
     Program PWSCF v.7.1 starts on 24May2025 at 19:12:30 

     This program is part of the open-source Quantum ESPRESSO suite
     for quantum simulation of materials; please cite
         "P. Giannozzi et al., J. Phys.:Condens. Matter 21 395502 (2009);
         "P. Giannozzi et al., J. Phys.:Condens. Matter 29 465901 (2017);
         "P. Giannozzi et al., J. Chem. Phys. 152 154105 (2020);
          URL http://www.quantum-espresso.org", 
     in publications or presentations arising from this work. More details at
     http://www.quantum-espresso.org/quote

     Parallel version (MPI), running on    16 processors

     MPI processes distributed on     1 nodes
     244216 MiB available memory on the printing compute node when the environment starts

     Reading input from input.pwi
Warning: card &CELL ignored
Warning: card / ignored
Warning: card &FCP ignored
Warning: card / ignored
Warning: card &RISM ignored
Warning: card / ignored

     Current dimensions of program PWSCF are:
     Max number of different atomic species (ntypx) = 10
     Max number of k-points (npk) =  40000
     Max angular momentum in pseudopotentials (lmaxx) =  4
     file C.pbe-n-kjpaw_psl.1.0.0.UPF: wavefunction(s)  2S 2P renormalized
     file O.pbe-n-kjpaw_psl.0.1.UPF: wavefunction(s)  2P renormalized

     IMPORTANT: XC functional enforced from input :
     Exchange-correlation= PBE
                           (   1   4   3   4   0   0   0)
     Any further DFT definition will be discarded
     Please, verify this is what you really want


     gamma-point specific algorithms are used
     Message from routine  set_nelup_neldw :
     BEWARE: non-integer number of up and down electrons!

     R & G space division:  proc/nbgrp/npool/nimage =      16
     Subspace diagonalization in iterative solution of the eigenvalue problem:
     one sub-group per band group will be used
     custom distributed-memory algorithm (size of sub-group:  2*  2 procs)


     Parallelization info
     --------------------
     sticks:   dense  smooth     PW     G-vecs:    dense   smooth      PW
     Min        1278     638    160               137586    48646    6088
     Max        1280     640    161               137596    48652    6097
     Sum       20461   10229   2561              2201421   778391   97473

     Using Slab Decomposition



     bravais-lattice index     =            0
     lattice parameter (alat)  =      25.3526  a.u.
     unit-cell volume          =   16294.2126 (a.u.)^3
     number of atoms/cell      =           83
     number of atomic types    =            3
     number of electrons       =       333.00 (up: 166.50, down: 166.50)
     number of Kohn-Sham states=          200
     kinetic-energy cutoff     =      50.0000  Ry
     charge density cutoff     =     400.0000  Ry
     scf convergence threshold =      1.0E-06
     mixing beta               =       0.3000
     number of iterations used =            8  plain     mixing
     energy convergence thresh.=      1.0E-04
     force convergence thresh. =      1.0E-03
     Exchange-correlation= PBE
                           (   1   4   3   4   0   0   0)
     nstep                     =         1000


     celldm(1)=  25.352566  celldm(2)=   0.000000  celldm(3)=   0.000000
     celldm(4)=   0.000000  celldm(5)=   0.000000  celldm(6)=   0.000000

     crystal axes: (cart. coord. in units of alat)
               a(1) = (   1.000000   0.000000   0.000000 )  
               a(2) = (   0.000000   1.000000   0.000000 )  
               a(3) = (   0.000000   0.000000   0.999925 )  

     reciprocal axes: (cart. coord. in units 2 pi/alat)
               b(1) = (  1.000000  0.000000  0.000000 )  
               b(2) = (  0.000000  1.000000  0.000000 )  
               b(3) = (  0.000000  0.000000  1.000075 )  


     PseudoPot. # 1 for C  read from file:
     /home/ana.bisette/espresso/pseudo/C.pbe-n-kjpaw_psl.1.0.0.UPF
     MD5 check sum: 5d2aebdfa2cae82b50a7e79e9516da0f
     Pseudo is Projector augmented-wave + core cor, Zval =  4.0
     Generated using "atomic" code by A. Dal Corso  v.5.1
     Shape of augmentation charge: PSQ
     Using radial grid of 1073 points,  4 beta functions with: 
                l(1) =   0
                l(2) =   0
                l(3) =   1
                l(4) =   1
     Q(r) pseudized with 0 coefficients 


     PseudoPot. # 2 for O  read from file:
     /home/ana.bisette/espresso/pseudo/O.pbe-n-kjpaw_psl.0.1.UPF
     MD5 check sum: 0234752ac141de4415c5fc33072bef88
     Pseudo is Projector augmented-wave + core cor, Zval =  6.0
     Generated using "atomic" code by A. Dal Corso  v.5.0.99 svn rev. 10869
     Shape of augmentation charge: BESSEL
     Using radial grid of 1095 points,  4 beta functions with: 
                l(1) =   0
                l(2) =   0
                l(3) =   1
                l(4) =   1
     Q(r) pseudized with 0 coefficients 


     PseudoPot. # 3 for H  read from file:
     /home/ana.bisette/espresso/pseudo/H.pbe-rrkjus_psl.1.0.0.UPF
     MD5 check sum: f52b6d4d1c606e5624b1dc7b2218f220
     Pseudo is Ultrasoft, Zval =  1.0
     Generated using "atomic" code by A. Dal Corso  v.5.1
     Using radial grid of  929 points,  2 beta functions with: 
                l(1) =   0
                l(2) =   0
     Q(r) pseudized with 0 coefficients 


     atomic species   valence    mass     pseudopotential
        C              4.00    12.01100     C ( 1.00)
        O              6.00    15.99900     O ( 1.00)
        H              1.00     1.00800     H ( 1.00)

     Starting magnetic structure 
     atomic species   magnetization
        C            0.000
        O            0.000
        H            0.000

     No symmetry found



   Cartesian axes

     site n.     atom                  positions (alat units)
         1           C   tau(   1) = (   0.8258795   0.8258050   0.8258050  )
         2           C   tau(   2) = (   0.7600626   0.7600626   0.7600626  )
         3           C   tau(   3) = (   0.8119410   0.9395498   0.8118664  )
         4           C   tau(   4) = (   0.1425164   0.1425164   0.8258050  )
         5           C   tau(   5) = (   0.2082588   0.2082588   0.7600626  )
         6           C   tau(   6) = (   0.1564550   0.0287716   0.8118664  )
         7           C   tau(   7) = (   0.8258795   0.1425164   0.1425164  )
         8           C   tau(   8) = (   0.7600626   0.2082588   0.2083333  )
         9           C   tau(   9) = (   0.8119410   0.0287716   0.1564550  )
        10           C   tau(  10) = (   0.1424419   0.8258050   0.1425164  )
        11           C   tau(  11) = (   0.2082588   0.7600626   0.2083333  )
        12           C   tau(  12) = (   0.1564550   0.9395498   0.1564550  )
        13           C   tau(  13) = (   0.8119410   0.8118664   0.9395498  )
        14           C   tau(  14) = (   0.8119410   0.1564550   0.0287716  )
        15           C   tau(  15) = (   0.1564550   0.8118664   0.0287716  )
        16           C   tau(  16) = (   0.1563804   0.1564550   0.9395498  )
        17           C   tau(  17) = (   0.9396243   0.8118664   0.8118664  )
        18           C   tau(  18) = (   0.0287716   0.8118664   0.1564550  )
        19           C   tau(  19) = (   0.0287716   0.1564550   0.8118664  )
        20           C   tau(  20) = (   0.9396243   0.1564550   0.1564550  )
        21           C   tau(  21) = (   0.1425164   0.1425164   0.1425164  )
        22           C   tau(  22) = (   0.2082588   0.2082588   0.2083333  )
        23           C   tau(  23) = (   0.0287716   0.1564550   0.1564550  )
        24           C   tau(  24) = (   0.8258795   0.8258795   0.1425164  )
        25           C   tau(  25) = (   0.7600626   0.7600626   0.2083333  )
        26           C   tau(  26) = (   0.9396243   0.8118664   0.1564550  )
        27           C   tau(  27) = (   0.8258795   0.1425164   0.8258050  )
        28           C   tau(  28) = (   0.7600626   0.2082588   0.7600626  )
        29           C   tau(  29) = (   0.9396243   0.1564550   0.8118664  )
        30           C   tau(  30) = (   0.1424419   0.8258050   0.8258050  )
        31           C   tau(  31) = (   0.2082588   0.7600626   0.7600626  )
        32           C   tau(  32) = (   0.0287716   0.8118664   0.8118664  )
        33           C   tau(  33) = (   0.1563804   0.1564550   0.0287716  )
        34           C   tau(  34) = (   0.8119410   0.1564550   0.9395498  )
        35           C   tau(  35) = (   0.1564550   0.8118664   0.9395498  )
        36           C   tau(  36) = (   0.8119410   0.8118664   0.0287716  )
        37           C   tau(  37) = (   0.1564550   0.0287716   0.1564550  )
        38           C   tau(  38) = (   0.1564550   0.9395498   0.8118664  )
        39           C   tau(  39) = (   0.8119410   0.9395498   0.1564550  )
        40           C   tau(  40) = (   0.8119410   0.0287716   0.8118664  )
        41           C   tau(  41) = (   0.3258050   0.3258795   0.3258795  )
        42           C   tau(  42) = (   0.2600626   0.2600626   0.2600626  )
        43           C   tau(  43) = (   0.3118664   0.4395498   0.3119410  )
        44           C   tau(  44) = (   0.6425164   0.6425164   0.3258795  )
        45           C   tau(  45) = (   0.7082588   0.7082588   0.2600626  )
        46           C   tau(  46) = (   0.6564550   0.5287716   0.3119410  )
        47           C   tau(  47) = (   0.3258795   0.6425164   0.6425164  )
        48           C   tau(  48) = (   0.2600626   0.7082588   0.7082588  )
        49           C   tau(  49) = (   0.3118664   0.5287716   0.6564550  )
        50           C   tau(  50) = (   0.6425164   0.3258795   0.6425164  )
        51           C   tau(  51) = (   0.7082588   0.2600626   0.7082588  )
        52           C   tau(  52) = (   0.6564550   0.4395498   0.6564550  )
        53           C   tau(  53) = (   0.3119410   0.3119410   0.4396243  )
        54           C   tau(  54) = (   0.3118664   0.6564550   0.5287716  )
        55           C   tau(  55) = (   0.6564550   0.3119410   0.5287716  )
        56           C   tau(  56) = (   0.6564550   0.6564550   0.4396243  )
        57           C   tau(  57) = (   0.4395498   0.3119410   0.3119410  )
        58           C   tau(  58) = (   0.5287716   0.3119410   0.6564550  )
        59           C   tau(  59) = (   0.5287716   0.6564550   0.3119410  )
        60           C   tau(  60) = (   0.4395498   0.6564550   0.6564550  )
        61           C   tau(  61) = (   0.6425164   0.6425164   0.6425164  )
        62           C   tau(  62) = (   0.7082588   0.7082588   0.7082588  )
        63           C   tau(  63) = (   0.5287716   0.6564550   0.6564550  )
        64           C   tau(  64) = (   0.3258050   0.3258795   0.6425164  )
        65           C   tau(  65) = (   0.2600626   0.2600626   0.7082588  )
        66           C   tau(  66) = (   0.4395498   0.3119410   0.6564550  )
        67           C   tau(  67) = (   0.3258795   0.6425164   0.3258050  )
        68           C   tau(  68) = (   0.2600626   0.7082588   0.2600626  )
        69           C   tau(  69) = (   0.4395498   0.6564550   0.3119410  )
        70           C   tau(  70) = (   0.6425164   0.3258795   0.3258795  )
        71           C   tau(  71) = (   0.7082588   0.2600626   0.2600626  )
        72           C   tau(  72) = (   0.5287716   0.3119410   0.3119410  )
        73           C   tau(  73) = (   0.6564550   0.6564550   0.5287716  )
        74           C   tau(  74) = (   0.3119410   0.6564550   0.4395498  )
        75           C   tau(  75) = (   0.6564550   0.3119410   0.4395498  )
        76           C   tau(  76) = (   0.3119410   0.3119410   0.5287716  )
        77           C   tau(  77) = (   0.6564550   0.5287716   0.6564550  )
        78           C   tau(  78) = (   0.6564550   0.4396243   0.3119410  )
        79           C   tau(  79) = (   0.3118664   0.4395498   0.6564550  )
        80           C   tau(  80) = (   0.3119410   0.5287716   0.3119410  )
        81           O   tau(  81) = (   0.7302475   0.8524150   0.8425760  )
        82           O   tau(  82) = (   0.6186643   0.8458557   0.8548002  )
        83           H   tau(  83) = (   0.5869112   0.9107036   0.8627758  )

     number of k points=     1  Gaussian smearing, width (Ry)=  0.0001
                       cart. coord. in units 2pi/alat
        k(    1) = (   0.0000000   0.0000000   0.0000000), wk =   1.0000000

     Dense  grid:  1100711 G-vectors     FFT dimensions: ( 162, 162, 162)

     Smooth grid:   389196 G-vectors     FFT dimensions: ( 120, 120, 120)

     Estimated max dynamical RAM per process >     440.20 MB

     Estimated total dynamical RAM >       6.88 GB

     Check: negative core charge=   -0.000003
     Generating pointlists ...
     new r_m :   0.0368 (alat units)  0.9323 (a.u.) for type    1
     new r_m :   0.0300 (alat units)  0.7597 (a.u.) for type    2
     new r_m :   0.0300 (alat units)  0.7597 (a.u.) for type    3

     Initial potential from superposition of free atoms

     starting charge     332.9967, renormalised to     333.0000

     negative rho (up, down):  1.360E-06 1.360E-06
     Starting wfcs are  329 randomized atomic wfcs
     Checking if some PAW data can be deallocated... 

     total cpu time spent up to now is        7.4 secs

     Self-consistent Calculation

     iteration #  1     ecut=    50.00 Ry     beta= 0.30
     Davidson diagonalization with overlap
     ethr =  1.00E-02,  avg # of iterations =  2.0

     negative rho (up, down):  4.382E-06 4.395E-06

     total cpu time spent up to now is       15.9 secs

     total energy              =   -1552.49735915 Ry
     estimated scf accuracy    <      11.60350255 Ry

     total magnetization       =     0.00 Bohr mag/cell
     absolute magnetization    =     0.10 Bohr mag/cell

     iteration #  2     ecut=    50.00 Ry     beta= 0.30
     Davidson diagonalization with overlap
     ethr =  3.48E-03,  avg # of iterations =  1.0

     negative rho (up, down):  4.861E-05 4.836E-05

     total cpu time spent up to now is       22.1 secs

     total energy              =   -1550.95912316 Ry
     estimated scf accuracy    <       3.51165502 Ry

     total magnetization       =    -0.00 Bohr mag/cell
     absolute magnetization    =     0.07 Bohr mag/cell

     iteration #  3     ecut=    50.00 Ry     beta= 0.30
     Davidson diagonalization with overlap
     ethr =  1.05E-03,  avg # of iterations =  2.0

     negative rho (up, down):  4.565E-05 4.541E-05

     total cpu time spent up to now is       30.1 secs

     total energy              =   -1551.66691711 Ry
     estimated scf accuracy    <       0.57696464 Ry

     total magnetization       =    -0.00 Bohr mag/cell
     absolute magnetization    =     0.05 Bohr mag/cell

     iteration #  4     ecut=    50.00 Ry     beta= 0.30
     Davidson diagonalization with overlap
     ethr =  1.73E-04,  avg # of iterations =  2.0

     negative rho (up, down):  4.373E-05 4.362E-05

     total cpu time spent up to now is       36.9 secs

     total energy              =   -1551.64891887 Ry
     estimated scf accuracy    <       0.17521419 Ry

     total magnetization       =     0.00 Bohr mag/cell
     absolute magnetization    =     0.05 Bohr mag/cell

     iteration #  5     ecut=    50.00 Ry     beta= 0.30
     Davidson diagonalization with overlap
     ethr =  5.26E-05,  avg # of iterations =  5.0

     negative rho (up, down):  4.583E-05 4.580E-05

     total cpu time spent up to now is       44.8 secs

     total energy              =   -1551.66508307 Ry
     estimated scf accuracy    <       0.17084958 Ry

     total magnetization       =     0.00 Bohr mag/cell
     absolute magnetization    =     0.03 Bohr mag/cell

     iteration #  6     ecut=    50.00 Ry     beta= 0.30
     Davidson diagonalization with overlap
     ethr =  5.13E-05,  avg # of iterations =  2.0

     negative rho (up, down):  5.004E-05 5.005E-05

     total cpu time spent up to now is       51.2 secs

     total energy              =   -1551.66667186 Ry
     estimated scf accuracy    <       0.09165384 Ry

     total magnetization       =     0.00 Bohr mag/cell
     absolute magnetization    =     0.03 Bohr mag/cell

     iteration #  7     ecut=    50.00 Ry     beta= 0.30
     Davidson diagonalization with overlap
     ethr =  2.75E-05,  avg # of iterations =  4.0

     negative rho (up, down):  5.202E-05 5.203E-05

     total cpu time spent up to now is       58.1 secs

     total energy              =   -1551.67387305 Ry
     estimated scf accuracy    <       0.03956165 Ry

     total magnetization       =     0.00 Bohr mag/cell
     absolute magnetization    =     0.03 Bohr mag/cell

     iteration #  8     ecut=    50.00 Ry     beta= 0.30
     Davidson diagonalization with overlap
     ethr =  1.19E-05,  avg # of iterations = 16.0

     negative rho (up, down):  5.280E-05 5.279E-05

     total cpu time spent up to now is       66.5 secs

     total energy              =   -1551.67180291 Ry
     estimated scf accuracy    <       0.03127191 Ry

     total magnetization       =    -0.00 Bohr mag/cell
     absolute magnetization    =     0.03 Bohr mag/cell

     iteration #  9     ecut=    50.00 Ry     beta= 0.30
     Davidson diagonalization with overlap
     ethr =  9.39E-06,  avg # of iterations =  2.0

     negative rho (up, down):  5.468E-05 5.468E-05

     total cpu time spent up to now is       73.1 secs

     total energy              =   -1551.67636618 Ry
     estimated scf accuracy    <       0.03392701 Ry

     total magnetization       =     0.00 Bohr mag/cell
     absolute magnetization    =     0.02 Bohr mag/cell

     iteration # 10     ecut=    50.00 Ry     beta= 0.30
     Davidson diagonalization with overlap
     ethr =  9.39E-06,  avg # of iterations =  1.0

     negative rho (up, down):  5.446E-05 5.447E-05

     total cpu time spent up to now is       79.3 secs

     total energy              =   -1551.67323716 Ry
     estimated scf accuracy    <       0.03697485 Ry

     total magnetization       =    -0.00 Bohr mag/cell
     absolute magnetization    =     0.04 Bohr mag/cell

     iteration # 11     ecut=    50.00 Ry     beta= 0.30
     Davidson diagonalization with overlap
     ethr =  9.39E-06,  avg # of iterations =  1.0

     negative rho (up, down):  5.428E-05 5.429E-05

     total cpu time spent up to now is       85.6 secs

     total energy              =   -1551.67524247 Ry
     estimated scf accuracy    <       0.02300763 Ry

     total magnetization       =    -0.00 Bohr mag/cell
     absolute magnetization    =     0.06 Bohr mag/cell

     iteration # 12     ecut=    50.00 Ry     beta= 0.30
     Davidson diagonalization with overlap
     ethr =  6.91E-06,  avg # of iterations =  1.0

     negative rho (up, down):  5.409E-05 5.412E-05

     total cpu time spent up to now is       91.8 secs

     total energy              =   -1551.67488934 Ry
     estimated scf accuracy    <       0.01480239 Ry

     total magnetization       =    -0.00 Bohr mag/cell
     absolute magnetization    =     0.19 Bohr mag/cell

     iteration # 13     ecut=    50.00 Ry     beta= 0.30
     Davidson diagonalization with overlap
     ethr =  4.45E-06,  avg # of iterations =  1.0

     negative rho (up, down):  5.392E-05 5.400E-05

     total cpu time spent up to now is       98.0 secs

     total energy              =   -1551.67572594 Ry
     estimated scf accuracy    <       0.01051652 Ry

     total magnetization       =     0.00 Bohr mag/cell
     absolute magnetization    =     0.57 Bohr mag/cell

     iteration # 14     ecut=    50.00 Ry     beta= 0.30
     Davidson diagonalization with overlap
     ethr =  3.16E-06,  avg # of iterations =  1.0

     negative rho (up, down):  5.401E-05 5.411E-05

     total cpu time spent up to now is      104.2 secs

     total energy              =   -1551.67544511 Ry
     estimated scf accuracy    <       0.01982590 Ry

     total magnetization       =     0.00 Bohr mag/cell
     absolute magnetization    =     0.46 Bohr mag/cell

     iteration # 15     ecut=    50.00 Ry     beta= 0.30
     Davidson diagonalization with overlap
     ethr =  3.16E-06,  avg # of iterations =  1.0

     negative rho (up, down):  5.403E-05 5.422E-05

     total cpu time spent up to now is      110.4 secs

     total energy              =   -1551.67523586 Ry
     estimated scf accuracy    <       0.00929156 Ry

     total magnetization       =    -0.00 Bohr mag/cell
     absolute magnetization    =     0.55 Bohr mag/cell

     iteration # 16     ecut=    50.00 Ry     beta= 0.30
     Davidson diagonalization with overlap
     ethr =  2.79E-06,  avg # of iterations =  1.0

     negative rho (up, down):  5.418E-05 5.443E-05

     total cpu time spent up to now is      116.6 secs

     total energy              =   -1551.67526453 Ry
     estimated scf accuracy    <       0.00245900 Ry

     total magnetization       =    -0.00 Bohr mag/cell
     absolute magnetization    =     0.62 Bohr mag/cell

     iteration # 17     ecut=    50.00 Ry     beta= 0.30
     Davidson diagonalization with overlap
     ethr =  7.38E-07,  avg # of iterations =  1.5

     negative rho (up, down):  5.421E-05 5.427E-05

     total cpu time spent up to now is      122.7 secs

     total energy              =   -1551.67560094 Ry
     estimated scf accuracy    <       0.03159721 Ry

     total magnetization       =    -0.00 Bohr mag/cell
     absolute magnetization    =     0.02 Bohr mag/cell

     iteration # 18     ecut=    50.00 Ry     beta= 0.30
     Davidson diagonalization with overlap
     ethr =  7.38E-07,  avg # of iterations =  1.0

     negative rho (up, down):  5.418E-05 5.412E-05

     total cpu time spent up to now is      128.9 secs

     total energy              =   -1551.67590693 Ry
     estimated scf accuracy    <       0.02356740 Ry

     total magnetization       =    -0.00 Bohr mag/cell
     absolute magnetization    =     0.16 Bohr mag/cell

     iteration # 19     ecut=    50.00 Ry     beta= 0.30
     Davidson diagonalization with overlap
     ethr =  7.38E-07,  avg # of iterations =  1.0

     negative rho (up, down):  5.419E-05 5.404E-05

     total cpu time spent up to now is      135.1 secs

     total energy              =   -1551.67584088 Ry
     estimated scf accuracy    <       0.01775728 Ry

     total magnetization       =     0.00 Bohr mag/cell
     absolute magnetization    =     0.26 Bohr mag/cell

     iteration # 20     ecut=    50.00 Ry     beta= 0.30
     Davidson diagonalization with overlap
     ethr =  7.38E-07,  avg # of iterations =  1.0

     negative rho (up, down):  5.423E-05 5.407E-05

     total cpu time spent up to now is      141.3 secs

     total energy              =   -1551.67606562 Ry
     estimated scf accuracy    <       0.02156361 Ry

     total magnetization       =    -0.00 Bohr mag/cell
     absolute magnetization    =     0.20 Bohr mag/cell

     iteration # 21     ecut=    50.00 Ry     beta= 0.30
     Davidson diagonalization with overlap
     ethr =  7.38E-07,  avg # of iterations =  1.0

     negative rho (up, down):  5.390E-05 5.359E-05

     total cpu time spent up to now is      147.6 secs

     total energy              =   -1551.66806574 Ry
     estimated scf accuracy    <       0.02203079 Ry

     total magnetization       =    -0.00 Bohr mag/cell
     absolute magnetization    =     0.21 Bohr mag/cell

     iteration # 22     ecut=    50.00 Ry     beta= 0.30
     Davidson diagonalization with overlap
     c_bands:  1 eigenvalues not converged
     c_bands:  1 eigenvalues not converged
     ethr =  7.38E-07,  avg # of iterations = 20.0

     negative rho (up, down):  5.397E-05 5.377E-05

     total cpu time spent up to now is      158.7 secs

     total energy              =   -1551.68383107 Ry
     estimated scf accuracy    <       0.07319305 Ry

     total magnetization       =     0.00 Bohr mag/cell
     absolute magnetization    =     0.22 Bohr mag/cell

     iteration # 23     ecut=    50.00 Ry     beta= 0.30
     Davidson diagonalization with overlap
     c_bands:  1 eigenvalues not converged
     ethr =  7.38E-07,  avg # of iterations = 19.5

     negative rho (up, down):  5.418E-05 5.413E-05

     total cpu time spent up to now is      167.2 secs

     total energy              =   -1551.67915326 Ry
     estimated scf accuracy    <       0.06418574 Ry

     total magnetization       =     0.00 Bohr mag/cell
     absolute magnetization    =     0.24 Bohr mag/cell

     iteration # 24     ecut=    50.00 Ry     beta= 0.30
     Davidson diagonalization with overlap
     ethr =  7.38E-07,  avg # of iterations =  4.5

     negative rho (up, down):  5.433E-05 5.445E-05

     total cpu time spent up to now is      174.2 secs

     total energy              =   -1551.67406080 Ry
     estimated scf accuracy    <       0.04168126 Ry

     total magnetization       =     0.00 Bohr mag/cell
     absolute magnetization    =     0.28 Bohr mag/cell

     iteration # 25     ecut=    50.00 Ry     beta= 0.30
     Davidson diagonalization with overlap
     ethr =  7.38E-07,  avg # of iterations =  6.0

     negative rho (up, down):  5.423E-05 5.430E-05

     total cpu time spent up to now is      181.7 secs

     total energy              =   -1551.67482482 Ry
     estimated scf accuracy    <       0.01009283 Ry

     total magnetization       =     0.00 Bohr mag/cell
     absolute magnetization    =     0.28 Bohr mag/cell

     iteration # 26     ecut=    50.00 Ry     beta= 0.30
     Davidson diagonalization with overlap
     ethr =  7.38E-07,  avg # of iterations =  1.0

     negative rho (up, down):  5.427E-05 5.441E-05

     total cpu time spent up to now is      187.7 secs

     total energy              =   -1551.67563520 Ry
     estimated scf accuracy    <       0.01848888 Ry

     total magnetization       =    -0.00 Bohr mag/cell
     absolute magnetization    =     0.41 Bohr mag/cell

     iteration # 27     ecut=    50.00 Ry     beta= 0.30
     Davidson diagonalization with overlap
     ethr =  7.38E-07,  avg # of iterations =  1.0

     negative rho (up, down):  5.423E-05 5.447E-05

     total cpu time spent up to now is      193.7 secs

     total energy              =   -1551.67573556 Ry
     estimated scf accuracy    <       0.01317674 Ry

     total magnetization       =     0.00 Bohr mag/cell
     absolute magnetization    =     0.46 Bohr mag/cell

     iteration # 28     ecut=    50.00 Ry     beta= 0.30
     Davidson diagonalization with overlap
     ethr =  7.38E-07,  avg # of iterations =  1.0

     negative rho (up, down):  5.426E-05 5.453E-05

     total cpu time spent up to now is      200.0 secs

     total energy              =   -1551.67545724 Ry
     estimated scf accuracy    <       0.01896804 Ry

     total magnetization       =     0.00 Bohr mag/cell
     absolute magnetization    =     0.40 Bohr mag/cell

     iteration # 29     ecut=    50.00 Ry     beta= 0.30
     Davidson diagonalization with overlap
     ethr =  7.38E-07,  avg # of iterations =  1.0

     negative rho (up, down):  5.429E-05 5.459E-05

     total cpu time spent up to now is      206.2 secs

     total energy              =   -1551.67497379 Ry
     estimated scf accuracy    <       0.01427617 Ry

     total magnetization       =     0.00 Bohr mag/cell
     absolute magnetization    =     0.44 Bohr mag/cell

     iteration # 30     ecut=    50.00 Ry     beta= 0.30
     Davidson diagonalization with overlap
     ethr =  7.38E-07,  avg # of iterations =  1.0

     negative rho (up, down):  5.422E-05 5.445E-05

     total cpu time spent up to now is      212.4 secs

     total energy              =   -1551.67486893 Ry
     estimated scf accuracy    <       0.00843317 Ry

     total magnetization       =     0.00 Bohr mag/cell
     absolute magnetization    =     0.34 Bohr mag/cell

     iteration # 31     ecut=    50.00 Ry     beta= 0.30
     Davidson diagonalization with overlap
     ethr =  7.38E-07,  avg # of iterations =  3.0

     negative rho (up, down):  5.433E-05 5.458E-05

     total cpu time spent up to now is      219.2 secs

     total energy              =   -1551.67635855 Ry
     estimated scf accuracy    <       0.02252566 Ry

     total magnetization       =     0.00 Bohr mag/cell
     absolute magnetization    =     0.42 Bohr mag/cell

     iteration # 32     ecut=    50.00 Ry     beta= 0.30
     Davidson diagonalization with overlap
     ethr =  7.38E-07,  avg # of iterations =  1.5

     negative rho (up, down):  5.438E-05 5.471E-05

     total cpu time spent up to now is      225.6 secs

     total energy              =   -1551.67392032 Ry
     estimated scf accuracy    <       0.01715011 Ry

     total magnetization       =    -0.00 Bohr mag/cell
     absolute magnetization    =     0.45 Bohr mag/cell

     iteration # 33     ecut=    50.00 Ry     beta= 0.30
     Davidson diagonalization with overlap
     ethr =  7.38E-07,  avg # of iterations =  3.5

     negative rho (up, down):  5.422E-05 5.439E-05

     total cpu time spent up to now is      232.5 secs

     total energy              =   -1551.67491226 Ry
     estimated scf accuracy    <       0.03360595 Ry

     total magnetization       =     0.00 Bohr mag/cell
     absolute magnetization    =     0.16 Bohr mag/cell

     iteration # 34     ecut=    50.00 Ry     beta= 0.30
     Davidson diagonalization with overlap
     ethr =  7.38E-07,  avg # of iterations =  1.0

     negative rho (up, down):  5.425E-05 5.454E-05

     total cpu time spent up to now is      238.7 secs

     total energy              =   -1551.67501239 Ry
     estimated scf accuracy    <       0.00570733 Ry

     total magnetization       =     0.00 Bohr mag/cell
     absolute magnetization    =     0.59 Bohr mag/cell

     iteration # 35     ecut=    50.00 Ry     beta= 0.30
     Davidson diagonalization with overlap
     ethr =  7.38E-07,  avg # of iterations =  1.0

     negative rho (up, down):  5.426E-05 5.438E-05

     total cpu time spent up to now is      244.9 secs

     total energy              =   -1551.67499671 Ry
     estimated scf accuracy    <       0.02988635 Ry

     total magnetization       =    -0.00 Bohr mag/cell
     absolute magnetization    =     0.18 Bohr mag/cell

     iteration # 36     ecut=    50.00 Ry     beta= 0.30
     Davidson diagonalization with overlap
     ethr =  7.38E-07,  avg # of iterations =  1.0

     negative rho (up, down):  5.429E-05 5.427E-05

     total cpu time spent up to now is      251.1 secs

     total energy              =   -1551.67507366 Ry
     estimated scf accuracy    <       0.00295196 Ry

     total magnetization       =    -0.00 Bohr mag/cell
     absolute magnetization    =     0.55 Bohr mag/cell

     iteration # 37     ecut=    50.00 Ry     beta= 0.30
     Davidson diagonalization with overlap
     ethr =  7.38E-07,  avg # of iterations =  1.0

     negative rho (up, down):  5.432E-05 5.439E-05

     total cpu time spent up to now is      257.0 secs

     total energy              =   -1551.67511611 Ry
     estimated scf accuracy    <       0.00242620 Ry

     total magnetization       =     0.00 Bohr mag/cell
     absolute magnetization    =     0.60 Bohr mag/cell

     iteration # 38     ecut=    50.00 Ry     beta= 0.30
     Davidson diagonalization with overlap
     ethr =  7.29E-07,  avg # of iterations =  1.0

     negative rho (up, down):  5.435E-05 5.442E-05

     total cpu time spent up to now is      263.2 secs

     total energy              =   -1551.67514673 Ry
     estimated scf accuracy    <       0.00169966 Ry

     total magnetization       =    -0.00 Bohr mag/cell
     absolute magnetization    =     0.62 Bohr mag/cell

     iteration # 39     ecut=    50.00 Ry     beta= 0.30
     Davidson diagonalization with overlap
     ethr =  5.10E-07,  avg # of iterations =  1.0

     negative rho (up, down):  5.437E-05 5.452E-05

     total cpu time spent up to now is      269.5 secs

     total energy              =   -1551.67527849 Ry
     estimated scf accuracy    <       0.00365311 Ry

     total magnetization       =    -0.00 Bohr mag/cell
     absolute magnetization    =     0.60 Bohr mag/cell

     iteration # 40     ecut=    50.00 Ry     beta= 0.30
     Davidson diagonalization with overlap
     ethr =  5.10E-07,  avg # of iterations =  1.0

     negative rho (up, down):  5.441E-05 5.454E-05

     total cpu time spent up to now is      275.7 secs

     total energy              =   -1551.67562609 Ry
     estimated scf accuracy    <       0.00173155 Ry

     total magnetization       =     0.00 Bohr mag/cell
     absolute magnetization    =     0.59 Bohr mag/cell

     iteration # 41     ecut=    50.00 Ry     beta= 0.30
     Davidson diagonalization with overlap
     ethr =  5.10E-07,  avg # of iterations =  1.0

     negative rho (up, down):  5.459E-05 5.457E-05

     total cpu time spent up to now is      281.8 secs

     total energy              =   -1551.67621810 Ry
     estimated scf accuracy    <       0.00193267 Ry

     total magnetization       =    -0.00 Bohr mag/cell
     absolute magnetization    =     0.59 Bohr mag/cell

     iteration # 42     ecut=    50.00 Ry     beta= 0.30
     Davidson diagonalization with overlap
     ethr =  5.10E-07,  avg # of iterations =  2.5

     negative rho (up, down):  5.443E-05 5.431E-05

     total cpu time spent up to now is      288.6 secs

     total energy              =   -1551.67603741 Ry
     estimated scf accuracy    <       0.02274077 Ry

     total magnetization       =     0.00 Bohr mag/cell
     absolute magnetization    =     0.10 Bohr mag/cell

     iteration # 43     ecut=    50.00 Ry     beta= 0.30
     Davidson diagonalization with overlap
     ethr =  5.10E-07,  avg # of iterations =  1.5

     negative rho (up, down):  5.447E-05 5.436E-05

     total cpu time spent up to now is      295.1 secs

     total energy              =   -1551.67565067 Ry
     estimated scf accuracy    <       0.02283447 Ry

     total magnetization       =     0.00 Bohr mag/cell
     absolute magnetization    =     0.25 Bohr mag/cell

     iteration # 44     ecut=    50.00 Ry     beta= 0.30
     Davidson diagonalization with overlap
     ethr =  5.10E-07,  avg # of iterations =  1.5

     negative rho (up, down):  5.463E-05 5.457E-05

     total cpu time spent up to now is      301.5 secs

     total energy              =   -1551.67527186 Ry
     estimated scf accuracy    <       0.02104339 Ry

     total magnetization       =     0.00 Bohr mag/cell
     absolute magnetization    =     0.24 Bohr mag/cell

     iteration # 45     ecut=    50.00 Ry     beta= 0.30
     Davidson diagonalization with overlap
     ethr =  5.10E-07,  avg # of iterations =  3.0

     negative rho (up, down):  5.467E-05 5.461E-05

     total cpu time spent up to now is      308.4 secs

     total energy              =   -1551.67829521 Ry
     estimated scf accuracy    <       0.00441362 Ry

     total magnetization       =     0.00 Bohr mag/cell
     absolute magnetization    =     0.58 Bohr mag/cell

     iteration # 46     ecut=    50.00 Ry     beta= 0.30
     Davidson diagonalization with overlap
     ethr =  5.10E-07,  avg # of iterations =  3.5

     negative rho (up, down):  5.470E-05 5.481E-05

     total cpu time spent up to now is      315.3 secs

     total energy              =   -1551.67949336 Ry
     estimated scf accuracy    <       0.00557469 Ry

     total magnetization       =     0.00 Bohr mag/cell
     absolute magnetization    =     0.60 Bohr mag/cell

     iteration # 47     ecut=    50.00 Ry     beta= 0.30
     Davidson diagonalization with overlap
     ethr =  5.10E-07,  avg # of iterations =  4.5

     negative rho (up, down):  5.438E-05 5.484E-05

     total cpu time spent up to now is      322.3 secs

     total energy              =   -1551.67987691 Ry
     estimated scf accuracy    <       0.00857845 Ry

     total magnetization       =    -0.00 Bohr mag/cell
     absolute magnetization    =     0.66 Bohr mag/cell

     iteration # 48     ecut=    50.00 Ry     beta= 0.30
     Davidson diagonalization with overlap
     ethr =  5.10E-07,  avg # of iterations =  4.5

     negative rho (up, down):  5.409E-05 5.460E-05

     total cpu time spent up to now is      329.4 secs

     total energy              =   -1551.67990513 Ry
     estimated scf accuracy    <       0.01032584 Ry

     total magnetization       =     0.00 Bohr mag/cell
     absolute magnetization    =     0.71 Bohr mag/cell

     iteration # 49     ecut=    50.00 Ry     beta= 0.30
     Davidson diagonalization with overlap
     ethr =  5.10E-07,  avg # of iterations =  1.0

     negative rho (up, down):  5.411E-05 5.464E-05

     total cpu time spent up to now is      335.6 secs

     total energy              =   -1551.67982176 Ry
     estimated scf accuracy    <       0.00923498 Ry

     total magnetization       =    -0.00 Bohr mag/cell
     absolute magnetization    =     0.72 Bohr mag/cell

     iteration # 50     ecut=    50.00 Ry     beta= 0.30
     Davidson diagonalization with overlap
     ethr =  5.10E-07,  avg # of iterations =  2.0

     negative rho (up, down):  5.417E-05 5.454E-05

     total cpu time spent up to now is      342.3 secs

     total energy              =   -1551.67970086 Ry
     estimated scf accuracy    <       0.00960873 Ry

     total magnetization       =    -0.00 Bohr mag/cell
     absolute magnetization    =     0.73 Bohr mag/cell

     iteration # 51     ecut=    50.00 Ry     beta= 0.30
     Davidson diagonalization with overlap
     ethr =  5.10E-07,  avg # of iterations =  1.5

     negative rho (up, down):  5.398E-05 5.431E-05

     total cpu time spent up to now is      348.7 secs

     total energy              =   -1551.67824834 Ry
     estimated scf accuracy    <       0.00722686 Ry

     total magnetization       =     0.00 Bohr mag/cell
     absolute magnetization    =     0.73 Bohr mag/cell

     iteration # 52     ecut=    50.00 Ry     beta= 0.30
     Davidson diagonalization with overlap
     ethr =  5.10E-07,  avg # of iterations =  4.5

     negative rho (up, down):  5.408E-05 5.442E-05

     total cpu time spent up to now is      356.4 secs

     total energy              =   -1551.67899726 Ry
     estimated scf accuracy    <       0.00563298 Ry

     total magnetization       =     0.00 Bohr mag/cell
     absolute magnetization    =     0.71 Bohr mag/cell

     iteration # 53     ecut=    50.00 Ry     beta= 0.30
     Davidson diagonalization with overlap
     ethr =  5.10E-07,  avg # of iterations =  2.0

     negative rho (up, down):  5.392E-05 5.411E-05

     total cpu time spent up to now is      363.2 secs

     total energy              =   -1551.67758513 Ry
     estimated scf accuracy    <       0.00538880 Ry

     total magnetization       =     0.00 Bohr mag/cell
     absolute magnetization    =     0.71 Bohr mag/cell

     iteration # 54     ecut=    50.00 Ry     beta= 0.30
     Davidson diagonalization with overlap
     ethr =  5.10E-07,  avg # of iterations =  5.0

     negative rho (up, down):  5.392E-05 5.416E-05

     total cpu time spent up to now is      370.7 secs

     total energy              =   -1551.67845782 Ry
     estimated scf accuracy    <       0.00648947 Ry

     total magnetization       =    -0.00 Bohr mag/cell
     absolute magnetization    =     0.75 Bohr mag/cell

     iteration # 55     ecut=    50.00 Ry     beta= 0.30
     Davidson diagonalization with overlap
     ethr =  5.10E-07,  avg # of iterations =  3.5

     negative rho (up, down):  5.383E-05 5.419E-05

     total cpu time spent up to now is      377.5 secs

     total energy              =   -1551.67895383 Ry
     estimated scf accuracy    <       0.00003699 Ry

     total magnetization       =     0.00 Bohr mag/cell
     absolute magnetization    =     0.77 Bohr mag/cell

     iteration # 56     ecut=    50.00 Ry     beta= 0.30
     Davidson diagonalization with overlap
     ethr =  1.11E-08,  avg # of iterations =  5.0

     negative rho (up, down):  5.398E-05 5.428E-05

     total cpu time spent up to now is      386.0 secs

     total energy              =   -1551.67896430 Ry
     estimated scf accuracy    <       0.00019751 Ry

     total magnetization       =     0.00 Bohr mag/cell
     absolute magnetization    =     0.79 Bohr mag/cell

     iteration # 57     ecut=    50.00 Ry     beta= 0.30
     Davidson diagonalization with overlap
     ethr =  1.11E-08,  avg # of iterations =  4.5

     negative rho (up, down):  5.411E-05 5.436E-05

     total cpu time spent up to now is      393.2 secs

     total energy              =   -1551.67899827 Ry
     estimated scf accuracy    <       0.00001449 Ry

     total magnetization       =     0.00 Bohr mag/cell
     absolute magnetization    =     0.79 Bohr mag/cell

     iteration # 58     ecut=    50.00 Ry     beta= 0.30
     Davidson diagonalization with overlap
     ethr =  4.35E-09,  avg # of iterations =  4.5

     negative rho (up, down):  5.416E-05 5.439E-05

     total cpu time spent up to now is      400.4 secs

     total energy              =   -1551.67900613 Ry
     estimated scf accuracy    <       0.00001279 Ry

     total magnetization       =     0.00 Bohr mag/cell
     absolute magnetization    =     0.79 Bohr mag/cell

     iteration # 59     ecut=    50.00 Ry     beta= 0.30
     Davidson diagonalization with overlap
     ethr =  3.84E-09,  avg # of iterations =  2.5

     negative rho (up, down):  5.415E-05 5.439E-05

     total cpu time spent up to now is      407.2 secs

     total energy              =   -1551.67900725 Ry
     estimated scf accuracy    <       0.00000729 Ry

     total magnetization       =     0.00 Bohr mag/cell
     absolute magnetization    =     0.79 Bohr mag/cell

     iteration # 60     ecut=    50.00 Ry     beta= 0.30
     Davidson diagonalization with overlap
     ethr =  2.19E-09,  avg # of iterations =  4.0

     negative rho (up, down):  5.415E-05 5.439E-05

     total cpu time spent up to now is      414.3 secs

     total energy              =   -1551.67901032 Ry
     estimated scf accuracy    <       0.00000720 Ry

     total magnetization       =    -0.00 Bohr mag/cell
     absolute magnetization    =     0.80 Bohr mag/cell

     iteration # 61     ecut=    50.00 Ry     beta= 0.30
     Davidson diagonalization with overlap
     ethr =  2.16E-09,  avg # of iterations =  2.0

     negative rho (up, down):  5.415E-05 5.439E-05

     total cpu time spent up to now is      421.0 secs

     total energy              =   -1551.67901426 Ry
     estimated scf accuracy    <       0.00000377 Ry

     total magnetization       =     0.00 Bohr mag/cell
     absolute magnetization    =     0.80 Bohr mag/cell

     iteration # 62     ecut=    50.00 Ry     beta= 0.30
     Davidson diagonalization with overlap
     ethr =  1.13E-09,  avg # of iterations =  5.0

     negative rho (up, down):  5.417E-05 5.440E-05

     total cpu time spent up to now is      428.2 secs

     total energy              =   -1551.67900522 Ry
     estimated scf accuracy    <       0.00000358 Ry

     total magnetization       =     0.00 Bohr mag/cell
     absolute magnetization    =     0.80 Bohr mag/cell

     iteration # 63     ecut=    50.00 Ry     beta= 0.30
     Davidson diagonalization with overlap
     ethr =  1.08E-09,  avg # of iterations =  4.5

     negative rho (up, down):  5.417E-05 5.440E-05

     total cpu time spent up to now is      435.6 secs

     total energy              =   -1551.67901036 Ry
     estimated scf accuracy    <       0.00000374 Ry

     total magnetization       =    -0.00 Bohr mag/cell
     absolute magnetization    =     0.79 Bohr mag/cell

     iteration # 64     ecut=    50.00 Ry     beta= 0.30
     Davidson diagonalization with overlap
     ethr =  1.08E-09,  avg # of iterations =  3.0

     negative rho (up, down):  5.418E-05 5.441E-05

     total cpu time spent up to now is      442.2 secs

     total energy              =   -1551.67900686 Ry
     estimated scf accuracy    <       0.00000291 Ry

     total magnetization       =     0.00 Bohr mag/cell
     absolute magnetization    =     0.79 Bohr mag/cell

     iteration # 65     ecut=    50.00 Ry     beta= 0.30
     Davidson diagonalization with overlap
     ethr =  8.74E-10,  avg # of iterations =  3.0

     negative rho (up, down):  5.418E-05 5.442E-05

     total cpu time spent up to now is      449.0 secs

     total energy              =   -1551.67898805 Ry
     estimated scf accuracy    <       0.00000307 Ry

     total magnetization       =    -0.00 Bohr mag/cell
     absolute magnetization    =     0.79 Bohr mag/cell

     iteration # 66     ecut=    50.00 Ry     beta= 0.30
     Davidson diagonalization with overlap
     ethr =  8.74E-10,  avg # of iterations =  5.0

     negative rho (up, down):  5.419E-05 5.445E-05

     total cpu time spent up to now is      457.0 secs

     total energy              =   -1551.67878974 Ry
     estimated scf accuracy    <       0.00000304 Ry

     total magnetization       =    -0.00 Bohr mag/cell
     absolute magnetization    =     0.79 Bohr mag/cell

     iteration # 67     ecut=    50.00 Ry     beta= 0.30
     Davidson diagonalization with overlap
     ethr =  8.74E-10,  avg # of iterations =  6.5

     negative rho (up, down):  5.418E-05 5.444E-05

     total cpu time spent up to now is      468.9 secs

     total energy              =   -1551.67894354 Ry
     estimated scf accuracy    <       0.00000261 Ry

     total magnetization       =    -0.00 Bohr mag/cell
     absolute magnetization    =     0.78 Bohr mag/cell

     iteration # 68     ecut=    50.00 Ry     beta= 0.30
     Davidson diagonalization with overlap
     ethr =  7.84E-10,  avg # of iterations =  4.0

     negative rho (up, down):  5.418E-05 5.445E-05

     total cpu time spent up to now is      476.1 secs

     total energy              =   -1551.67886662 Ry
     estimated scf accuracy    <       0.00000197 Ry

     total magnetization       =     0.00 Bohr mag/cell
     absolute magnetization    =     0.77 Bohr mag/cell

     iteration # 69     ecut=    50.00 Ry     beta= 0.30
     Davidson diagonalization with overlap
     ethr =  5.93E-10,  avg # of iterations =  6.0

     negative rho (up, down):  5.416E-05 5.445E-05

     total cpu time spent up to now is      486.8 secs

     total energy              =   -1551.67892916 Ry
     estimated scf accuracy    <       0.00000143 Ry

     total magnetization       =     0.00 Bohr mag/cell
     absolute magnetization    =     0.76 Bohr mag/cell

     iteration # 70     ecut=    50.00 Ry     beta= 0.30
     Davidson diagonalization with overlap
     ethr =  4.28E-10,  avg # of iterations =  5.0

     negative rho (up, down):  5.414E-05 5.443E-05

     Magnetic moment per site  (integrated on atomic sphere of radius R)
     atom   1 (R=0.037)  charge=  1.0457  magn= -0.0012
     atom   2 (R=0.037)  charge=  1.1098  magn=  0.0058
     atom   3 (R=0.037)  charge=  1.1108  magn= -0.0006
     atom   4 (R=0.037)  charge=  1.0042  magn= -0.0000
     atom   5 (R=0.037)  charge=  1.1028  magn=  0.0000
     atom   6 (R=0.037)  charge=  1.1089  magn=  0.0000
     atom   7 (R=0.037)  charge=  1.0040  magn=  0.0000
     atom   8 (R=0.037)  charge=  1.1031  magn= -0.0000
     atom   9 (R=0.037)  charge=  1.1082  magn= -0.0010
     atom  10 (R=0.037)  charge=  1.0041  magn=  0.0001
     atom  11 (R=0.037)  charge=  1.1028  magn= -0.0001
     atom  12 (R=0.037)  charge=  1.1075  magn= -0.0000
     atom  13 (R=0.037)  charge=  1.1149  magn= -0.0059
     atom  14 (R=0.037)  charge=  1.1084  magn=  0.0002
     atom  15 (R=0.037)  charge=  1.1094  magn= -0.0003
     atom  16 (R=0.037)  charge=  1.1084  magn=  0.0000
     atom  17 (R=0.037)  charge=  1.1135  magn=  0.0024
     atom  18 (R=0.037)  charge=  1.1089  magn= -0.0025
     atom  19 (R=0.037)  charge=  1.1087  magn=  0.0013
     atom  20 (R=0.037)  charge=  1.1087  magn=  0.0000
     atom  21 (R=0.037)  charge=  1.0036  magn= -0.0000
     atom  22 (R=0.037)  charge=  1.1033  magn=  0.0000
     atom  23 (R=0.037)  charge=  1.1086  magn= -0.0000
     atom  24 (R=0.037)  charge=  1.0033  magn=  0.0013
     atom  25 (R=0.037)  charge=  1.1027  magn= -0.0003
     atom  26 (R=0.037)  charge=  1.1089  magn= -0.0012
     atom  27 (R=0.037)  charge=  1.0029  magn= -0.0003
     atom  28 (R=0.037)  charge=  1.1028  magn= -0.0001
     atom  29 (R=0.037)  charge=  1.1091  magn=  0.0006
     atom  30 (R=0.037)  charge=  1.0046  magn=  0.0001
     atom  31 (R=0.037)  charge=  1.1023  magn=  0.0001
     atom  32 (R=0.037)  charge=  1.1130  magn= -0.0020
     atom  33 (R=0.037)  charge=  1.1090  magn= -0.0000
     atom  34 (R=0.037)  charge=  1.1088  magn=  0.0002
     atom  35 (R=0.037)  charge=  1.1082  magn= -0.0002
     atom  36 (R=0.037)  charge=  1.1122  magn= -0.0307
     atom  37 (R=0.037)  charge=  1.1084  magn=  0.0000
     atom  38 (R=0.037)  charge=  1.1073  magn=  0.0001
     atom  39 (R=0.037)  charge=  1.1079  magn= -0.0008
     atom  40 (R=0.037)  charge=  1.1132  magn=  0.0099
     atom  41 (R=0.037)  charge=  1.0049  magn=  0.0000
     atom  42 (R=0.037)  charge=  1.1025  magn= -0.0000
     atom  43 (R=0.037)  charge=  1.1083  magn= -0.0000
     atom  44 (R=0.037)  charge=  1.0041  magn=  0.0000
     atom  45 (R=0.037)  charge=  1.1030  magn= -0.0001
     atom  46 (R=0.037)  charge=  1.1086  magn= -0.0000
     atom  47 (R=0.037)  charge=  1.0042  magn= -0.0000
     atom  48 (R=0.037)  charge=  1.1031  magn=  0.0001
     atom  49 (R=0.037)  charge=  1.1077  magn=  0.0000
     atom  50 (R=0.037)  charge=  1.0043  magn=  0.0000
     atom  51 (R=0.037)  charge=  1.1024  magn= -0.0001
     atom  52 (R=0.037)  charge=  1.1082  magn=  0.0001
     atom  53 (R=0.037)  charge=  1.1088  magn= -0.0000
     atom  54 (R=0.037)  charge=  1.1079  magn=  0.0001
     atom  55 (R=0.037)  charge=  1.1081  magn= -0.0000
     atom  56 (R=0.037)  charge=  1.1086  magn= -0.0001
     atom  57 (R=0.037)  charge=  1.1079  magn=  0.0000
     atom  58 (R=0.037)  charge=  1.1082  magn= -0.0000
     atom  59 (R=0.037)  charge=  1.1081  magn= -0.0000
     atom  60 (R=0.037)  charge=  1.1083  magn=  0.0014
     atom  61 (R=0.037)  charge=  1.0025  magn= -0.0019
     atom  62 (R=0.037)  charge=  1.1082  magn=  0.0403
     atom  63 (R=0.037)  charge=  1.1083  magn=  0.0032
     atom  64 (R=0.037)  charge=  1.0046  magn=  0.0000
     atom  65 (R=0.037)  charge=  1.1027  magn= -0.0000
     atom  66 (R=0.037)  charge=  1.1079  magn= -0.0000
     atom  67 (R=0.037)  charge=  1.0046  magn= -0.0000
     atom  68 (R=0.037)  charge=  1.1031  magn=  0.0000
     atom  69 (R=0.037)  charge=  1.1081  magn=  0.0000
     atom  70 (R=0.037)  charge=  1.0044  magn= -0.0000
     atom  71 (R=0.037)  charge=  1.1027  magn=  0.0000
     atom  72 (R=0.037)  charge=  1.1078  magn= -0.0000
     atom  73 (R=0.037)  charge=  1.1084  magn=  0.0006
     atom  74 (R=0.037)  charge=  1.1083  magn= -0.0000
     atom  75 (R=0.037)  charge=  1.1082  magn= -0.0000
     atom  76 (R=0.037)  charge=  1.1084  magn=  0.0000
     atom  77 (R=0.037)  charge=  1.1076  magn=  0.0010
     atom  78 (R=0.037)  charge=  1.1089  magn=  0.0000
     atom  79 (R=0.037)  charge=  1.1085  magn=  0.0000
     atom  80 (R=0.037)  charge=  1.1076  magn=  0.0000
     atom  81 (R=0.030)  charge=  1.9588  magn= -0.0084
     atom  82 (R=0.030)  charge=  1.9100  magn= -0.0192
     atom  83 (R=0.030)  charge=  0.3984  magn=  0.0005

     total cpu time spent up to now is      494.7 secs

     End of self-consistent calculation

 ------ SPIN UP ------------


          k = 0.0000 0.0000 0.0000 ( 48737 PWs)   bands (ev):

   -27.7224 -22.5085 -19.0192 -18.8872 -18.8390 -18.8136 -18.7536 -18.6661
   -18.6412 -18.6170 -18.5976 -18.5528 -18.4463 -18.3697 -18.3430 -18.3013
   -18.0250 -17.0049 -16.7453 -16.4658 -16.3331 -16.2709 -16.2705 -16.2231
   -16.1784 -16.1429 -15.9874 -15.9557 -15.9546 -15.9410 -15.9243 -15.9131
   -15.8931 -15.8904 -15.8392 -15.7093 -15.4749 -15.4503 -15.3267 -15.0934
   -15.0531 -15.0257 -14.9606 -14.9490 -14.8550 -14.6312 -14.5051 -14.4329
   -14.3639 -13.8953 -13.1984 -12.7080 -12.2379 -11.5068 -11.4696 -11.4669
   -11.4287 -11.3959 -11.3346 -11.0265 -10.9098 -10.8773 -10.8638 -10.8285
   -10.8123 -10.7845 -10.7369 -10.7282 -10.7142 -10.6173 -10.6023 -10.4566
   -10.3702 -10.3466 -10.2520 -10.2296 -10.1777 -10.1297 -10.0196  -9.9571
    -9.9014  -9.7997  -9.7359  -9.7294  -9.6316  -9.5974  -9.5717  -9.5049
    -9.4959  -9.4284  -9.4229  -9.4124  -9.3975  -9.3773  -9.3730  -9.2866
    -9.2780  -9.2343  -8.5718  -7.4110  -6.5215  -5.5085  -5.4380  -5.3722
    -5.2819  -5.2699  -5.2387  -5.1666  -5.1212  -5.0685  -5.0672  -5.0307
    -4.9664  -4.9636  -4.9188  -4.9041  -4.8854  -4.8684  -4.8091  -4.7924
    -4.7699  -4.7536  -4.7006  -4.6648  -4.6580  -4.5908  -4.5318  -4.5223
    -4.4989  -4.4904  -4.4854  -4.4646  -4.4638  -4.4579  -4.4453  -4.4268
    -4.4228  -4.4121  -4.4020  -4.3724  -4.3667  -4.3581  -4.3350  -4.2971
    -4.2858  -4.2512  -4.1818  -4.1726  -4.1379  -4.0604  -4.0281  -3.9934
    -3.8012  -3.7582  -3.6675  -3.6338  -3.6023  -3.5766  -3.5345  -3.5223
    -3.5217  -3.5191  -3.4782  -3.3582  -3.3353  -2.6848  -2.3859  -0.4852
     0.5760   0.7147   0.9494   1.0293   1.0340   1.0418   1.0681   1.1109
     1.1794   1.2164   1.3357   1.5055   1.5431   1.5660   1.6123   1.6272
     1.6595   1.6732   1.7249   1.7452   1.8299   1.8581   1.9665   2.0831
     2.2075   2.2588   2.3284   2.4017   2.4475   2.4912   2.5585   2.5927

 ------ SPIN DOWN ----------


          k = 0.0000 0.0000 0.0000 ( 48737 PWs)   bands (ev):

   -27.7442 -22.5635 -19.0190 -18.8851 -18.8408 -18.8140 -18.7517 -18.6660
   -18.6418 -18.6136 -18.5988 -18.5527 -18.4432 -18.3707 -18.3416 -18.2988
   -18.0239 -16.9946 -16.7082 -16.4813 -16.3331 -16.2718 -16.2708 -16.2233
   -16.1795 -16.1419 -15.9860 -15.9590 -15.9546 -15.9408 -15.9238 -15.9130
   -15.8909 -15.8896 -15.8393 -15.7087 -15.4755 -15.4521 -15.3271 -15.0935
   -15.0546 -15.0260 -14.9597 -14.9493 -14.8567 -14.6299 -14.5033 -14.4349
   -14.3642 -13.8952 -13.1060 -12.8067 -12.2550 -11.5070 -11.4699 -11.4669
   -11.4300 -11.3976 -11.3343 -11.0244 -10.9101 -10.8770 -10.8633 -10.8282
   -10.8108 -10.7844 -10.7332 -10.7279 -10.6944 -10.6170 -10.6044 -10.4494
   -10.3688 -10.3527 -10.2512 -10.2312 -10.1777 -10.1265 -10.0176  -9.9640
    -9.9064  -9.7985  -9.7373  -9.7286  -9.6319  -9.5987  -9.5720  -9.5030
    -9.4963  -9.4267  -9.4239  -9.4138  -9.3967  -9.3737  -9.3718  -9.2870
    -9.2736  -9.2356  -8.5221  -7.5284  -6.5017  -5.5113  -5.4382  -5.3720
    -5.2775  -5.2709  -5.2350  -5.1683  -5.1219  -5.0706  -5.0635  -5.0236
    -4.9677  -4.9646  -4.9179  -4.9056  -4.8863  -4.8655  -4.7998  -4.7885
    -4.7654  -4.7544  -4.7119  -4.6636  -4.6573  -4.6061  -4.5333  -4.5245
    -4.5134  -4.4915  -4.4881  -4.4844  -4.4640  -4.4617  -4.4454  -4.4291
    -4.4238  -4.4176  -4.4102  -4.3825  -4.3666  -4.3566  -4.3425  -4.3018
    -4.2866  -4.2506  -4.1810  -4.1736  -4.1404  -4.0626  -4.0301  -3.9973
    -3.8102  -3.7066  -3.6673  -3.6338  -3.5990  -3.5764  -3.5313  -3.5230
    -3.5217  -3.5163  -3.4890  -3.3573  -3.3556  -2.6106  -2.4442  -0.5007
     0.5751   0.7155   0.9472   1.0301   1.0352   1.0452   1.0673   1.1103
     1.1804   1.2173   1.3388   1.5054   1.5426   1.5646   1.6132   1.6291
     1.6571   1.6723   1.7235   1.7456   1.8224   1.8595   1.9665   2.0873
     2.2100   2.2584   2.3292   2.4029   2.4502   2.4878   2.5590   2.5929

     the spin up/dw Fermi energies are    -2.3859   -2.4442 ev

!    total energy              =   -1551.67893394 Ry
     estimated scf accuracy    <       0.00000031 Ry
     smearing contrib. (-TS)   =      -0.00005642 Ry
     internal energy E=F+TS    =   -1551.67887752 Ry

     The total energy is F=E-TS. E is the sum of the following terms:
     one-electron contribution =   -2210.03286705 Ry
     hartree contribution      =    1180.13968440 Ry
     xc contribution           =    -377.78108132 Ry
     ewald contribution        =     368.54959531 Ry
     one-center paw contrib.   =    -512.55420886 Ry

     total magnetization       =     0.00 Bohr mag/cell
     absolute magnetization    =     0.75 Bohr mag/cell

     convergence has been achieved in  70 iterations

     negative rho (up, down):  5.414E-05 5.443E-05

     Forces acting on atoms (cartesian axes, Ry/au):

     atom    1 type  1   force =     0.52582627   -0.20607273   -0.04674819
     atom    2 type  1   force =     0.17037083   -0.02244472   -0.01234944
     atom    3 type  1   force =     0.06103807   -0.09965426   -0.03058590
     atom    4 type  1   force =    -0.03219415   -0.03325223    0.03135900
     atom    5 type  1   force =    -0.05073553   -0.05047000    0.05075580
     atom    6 type  1   force =     0.00459340    0.11777251   -0.00388452
     atom    7 type  1   force =     0.03190807   -0.03092030   -0.03005469
     atom    8 type  1   force =     0.05243373   -0.05234849   -0.05275973
     atom    9 type  1   force =    -0.00401119    0.11678801    0.00307554
     atom   10 type  1   force =    -0.03061684    0.03086421   -0.03267389
     atom   11 type  1   force =    -0.05250798    0.05231701   -0.05231342
     atom   12 type  1   force =     0.00349789   -0.11526896    0.00393922
     atom   13 type  1   force =     0.11737141   -0.05392448   -0.08735962
     atom   14 type  1   force =    -0.00413312    0.00294183    0.12057457
     atom   15 type  1   force =     0.00442125   -0.00376231    0.12146073
     atom   16 type  1   force =     0.00389178    0.00406182   -0.11942067
     atom   17 type  1   force =    -0.07505444   -0.00106404   -0.01100195
     atom   18 type  1   force =     0.12231910   -0.00348568    0.00399478
     atom   19 type  1   force =     0.12488580    0.00386365   -0.00357085
     atom   20 type  1   force =    -0.11950604    0.00400436    0.00386068
     atom   21 type  1   force =    -0.03145786   -0.03196072   -0.03145356
     atom   22 type  1   force =    -0.05214299   -0.05202645   -0.05242516
     atom   23 type  1   force =     0.11902416    0.00380371    0.00379926
     atom   24 type  1   force =     0.02993533    0.02821211   -0.03291491
     atom   25 type  1   force =     0.05262983    0.05332127   -0.05293213
     atom   26 type  1   force =    -0.12263834   -0.00378312    0.00443187
     atom   27 type  1   force =     0.03670650   -0.03425788    0.02799087
     atom   28 type  1   force =     0.05108739   -0.05193525    0.05167889
     atom   29 type  1   force =    -0.12361969    0.00605242   -0.00394612
     atom   30 type  1   force =    -0.03422824    0.02983197    0.03132443
     atom   31 type  1   force =    -0.05005432    0.05150174    0.05137749
     atom   32 type  1   force =     0.14160124   -0.00242059   -0.00407475
     atom   33 type  1   force =     0.00408882    0.00414220    0.11953847
     atom   34 type  1   force =    -0.00441146    0.00145508   -0.12181685
     atom   35 type  1   force =     0.00451303   -0.00329657   -0.12037499
     atom   36 type  1   force =    -0.00902912    0.00085592    0.17144925
     atom   37 type  1   force =     0.00387415    0.11544548    0.00406185
     atom   38 type  1   force =     0.00398450   -0.11686087   -0.00347037
     atom   39 type  1   force =    -0.00429037   -0.11631110    0.00290885
     atom   40 type  1   force =    -0.00561201    0.19481619   -0.00075243
     atom   41 type  1   force =     0.03144275    0.03106994    0.03139704
     atom   42 type  1   force =     0.05230938    0.05233484    0.05258536
     atom   43 type  1   force =    -0.00388841   -0.11459484   -0.00401314
     atom   44 type  1   force =    -0.03186530   -0.03153835    0.03158323
     atom   45 type  1   force =    -0.05217092   -0.05234614    0.05244513
     atom   46 type  1   force =     0.00383392    0.11918025   -0.00379418
     atom   47 type  1   force =     0.03009085   -0.03066218   -0.03070523
     atom   48 type  1   force =     0.05138186   -0.05139619   -0.05139075
     atom   49 type  1   force =    -0.00340955    0.11487665    0.00358332
     atom   50 type  1   force =    -0.03209227    0.03198450   -0.03215679
     atom   51 type  1   force =    -0.05129217    0.05103909   -0.05129653
     atom   52 type  1   force =     0.00436170   -0.11523982    0.00432975
     atom   53 type  1   force =    -0.00402423   -0.00406410   -0.11933097
     atom   54 type  1   force =    -0.00344400    0.00357175    0.11500887
     atom   55 type  1   force =     0.00399200   -0.00410364    0.11518640
     atom   56 type  1   force =     0.00411816    0.00402260   -0.11970581
     atom   57 type  1   force =    -0.11512172   -0.00391299   -0.00390138
     atom   58 type  1   force =     0.11551955   -0.00425796    0.00402845
     atom   59 type  1   force =     0.11520838    0.00385615   -0.00397472
     atom   60 type  1   force =    -0.11681059    0.00397447    0.00399103
     atom   61 type  1   force =    -0.03191086   -0.02515201   -0.02485790
     atom   62 type  1   force =    -0.08703250   -0.09291437   -0.09349428
     atom   63 type  1   force =     0.11322589    0.00188802    0.00182295
     atom   64 type  1   force =     0.03135856    0.03154991   -0.03164487
     atom   65 type  1   force =     0.05098799    0.05086180   -0.05091880
     atom   66 type  1   force =    -0.11527623   -0.00405056    0.00394663
     atom   67 type  1   force =     0.03063498   -0.03135412    0.03218166
     atom   68 type  1   force =     0.05233440   -0.05218713    0.05209153
     atom   69 type  1   force =    -0.11438402    0.00388838   -0.00422062
     atom   70 type  1   force =    -0.03179286    0.03185529    0.03092077
     atom   71 type  1   force =    -0.05221718    0.05234357    0.05240610
     atom   72 type  1   force =     0.11526336   -0.00396728   -0.00395433
     atom   73 type  1   force =     0.00463534    0.00424158    0.12037760
     atom   74 type  1   force =    -0.00404544    0.00391919   -0.11527993
     atom   75 type  1   force =     0.00403692   -0.00408946   -0.11458914
     atom   76 type  1   force =    -0.00393031   -0.00398740    0.11913935
     atom   77 type  1   force =     0.00423305    0.11552155    0.00385885
     atom   78 type  1   force =     0.00403056   -0.11946942   -0.00401919
     atom   79 type  1   force =    -0.00399503   -0.11477410    0.00404203
     atom   80 type  1   force =    -0.00381194    0.11487847   -0.00405282
     atom   81 type  2   force =    -0.70859238    0.34268453    0.11607627
     atom   82 type  2   force =    -0.14620546   -0.07246585    0.01366058
     atom   83 type  3   force =     0.03055494    0.03045465    0.00194109

     Total force =     1.381956     Total SCF correction =     0.000796

     BFGS Geometry Optimization
     Energy error            =      0.0E+00 Ry
     Gradient error          =      7.1E-01 Ry/Bohr

     number of scf cycles    =   1
     number of bfgs steps    =   0

     energy             new  =   -1551.6789339367 Ry

     new trust radius        =       0.5000000000 bohr
     new conv_thr            =       0.0000010000 Ry


ATOMIC_POSITIONS (angstrom)
C            11.2548671725       11.0104690841       11.0634535650
C            10.2536579999       10.1895358521       10.1928931067
C            10.9132986320       12.5718592853       10.8818284470
C             1.9012936122        1.9009417391       11.0894286544
C             2.7771275475        2.7772158503       10.2138791942
C             2.1005275686        0.4251660658       10.8907081764
C            11.0906112496        1.9017172407        1.9020051045
C            10.2144372008        2.7765911469        2.7774543872
C            10.8916660522        0.4248386618        2.1000227913
C             1.9008181569       11.0892641087        1.9011340719
C             2.7765381069       10.2143983830        2.7776028108
C             2.1001632477       12.5666665094        2.1003100156
C            10.9320326773       10.8740670408       12.5759479531
C            10.8916255027        2.0999783269        0.4260979105
C             2.1004703182       10.8907488167        0.4263926072
C             2.0992942368        2.1003507875       12.5652858289
C            12.5810401264       10.8916461470       10.8883412265
C             0.4266780638       10.8908408121        2.1003284912
C             0.4275316385        2.1002848848       10.8908124876
C            12.5662574370        2.1003316777        2.1002838965
C             1.9015384696        1.9013712393        1.9015399020
C             2.7766594878        2.7766982445        2.7775656481
C             0.4255823085        2.1002649509        2.1002634703
C            11.0899552023       11.0893821322        1.9010539189
C            10.2145024145       10.2147323589        2.7773970540
C            12.5652157710       10.8907418956        2.1004738494
C            11.0922070003        1.9006073043       11.0883085563
C            10.2139894647        2.7767285735       10.2141861733
C            12.5648894156        2.1010127736       10.8906876904
C             1.8996171614       11.0889208289       11.0894171573
C             2.7773540888       10.2141272606       10.2140859412
C             0.4330904741       10.8911950164       10.8906449145
C             2.0993597664        2.1003775173        0.4257533479
C            10.8915329372        2.0994838963       12.5644889604
C             2.1005008395       10.8909037013       12.5649684623
C            10.8899973021       10.8922846414        0.4430166353
C             2.1002883738        0.4243921963        2.1003507974
C             2.1003250737       12.5661371060       10.8908459059
C            10.8915732075       12.5663199387        2.0999673572
C            10.8911336863        0.4507874733       10.8917497726
C             4.3814565047        4.3823325227        4.3824413050
C             3.5063958457        3.5064043133        3.5064876265
C             4.1827068812        5.8588906899        4.1836654034
C             8.6094029739        8.6095117033        4.3825032216
C             9.4846501983        9.4845919279        3.5064409915
C             8.8082749962        7.1336342177        4.1837382195
C             4.3820069210        8.6098030792        8.6097887633
C             3.5060873938        9.4849078393        9.4849096504
C             4.1828661311        7.1322030275        8.8081916578
C             8.6093274941        4.3826366666        8.6093060367
C             9.4849424331        3.5059734022        9.4849409843
C             8.8084505135        5.8586761989        8.8084398873
C             4.1836617137        4.1836484549        5.8583156589
C             4.1828546743        8.8081878113        7.1322469974
C             8.8083275657        4.1836353074        7.1323060368
C             8.8083695216        8.8083377440        5.8581910020
C             5.8587154727        4.1836987065        4.1837025677
C             7.1324168286        4.1835839866        8.8083396886
C             7.1323133453        8.8082823903        4.1836781808
C             5.8581538271        8.8083217379        8.8083272460
C             8.6093878227        8.6116355248        8.6117333316
C             9.4730567402        9.4711006803        9.4709078289
C             7.1316540564        8.8076278730        8.8076062333
C             4.3814285072        4.3824921417        8.6094762788
C             3.5059564080        3.5059144459        9.4850665999
C             5.8586640912        4.1836529593        8.8083124786
C             4.3821878744        8.6095729709        4.3817022326
C             3.5064041662        9.4846448081        3.5063233979
C             5.8589608000        8.8082931087        4.1835964022
C             8.6094270643        4.3825936983        4.3822829167
C             9.4846348139        3.5064072181        3.5064280103
C             7.1323316295        4.1836806520        4.1836849592
C             8.8085415159        8.8084105685        7.1340324039
C             4.1836546618        8.8083033532        5.8586628592
C             8.8083425044        4.1836400207        5.8588925857
C             4.1836929475        4.1836739619        7.1336206163
C             8.8084077288        7.1324174918        8.8082832859
C             8.8083403912        5.8582696144        4.1836633891
C             4.1826714255        5.8588310765        8.8083442039
C             4.1837323140        7.1322036320        4.1836522079
O             9.5613526911       11.5499621169       11.3426019672
O             8.2513783590       11.3239009797       11.4725429219
H             7.8841612588       12.2281279060       11.5756455218



     Writing config-only to output data dir ./pwscf.save/
     NEW-OLD atomic charge density approx. for the potential

     Check: negative core charge=   -0.000003

     negative rho (up, down):  5.502E-05 6.011E-05
     Generating pointlists ...

     total cpu time spent up to now is      504.7 secs

     Self-consistent Calculation

     iteration #  1     ecut=    50.00 Ry     beta= 0.30
     Davidson diagonalization with overlap
     c_bands:  5 eigenvalues not converged
     c_bands:  5 eigenvalues not converged
     ethr =  1.00E-06,  avg # of iterations = 20.0

     negative rho (up, down):  5.388E-05 5.742E-05

     total cpu time spent up to now is      531.4 secs

     total energy              =   -1551.83132762 Ry
     estimated scf accuracy    <       0.61367477 Ry

     total magnetization       =    -0.00 Bohr mag/cell
     absolute magnetization    =     0.50 Bohr mag/cell

     iteration #  2     ecut=    50.00 Ry     beta= 0.30
     Davidson diagonalization with overlap
     ethr =  1.84E-04,  avg # of iterations =  4.0

     negative rho (up, down):  4.494E-05 4.770E-05

     total cpu time spent up to now is      538.7 secs

     total energy              =   -1551.87675730 Ry
     estimated scf accuracy    <       0.25698777 Ry

     total magnetization       =    -0.00 Bohr mag/cell
     absolute magnetization    =     0.49 Bohr mag/cell

     iteration #  3     ecut=    50.00 Ry     beta= 0.30
     Davidson diagonalization with overlap
     ethr =  7.72E-05,  avg # of iterations =  5.0

     negative rho (up, down):  3.855E-05 4.042E-05

     total cpu time spent up to now is      545.7 secs

     total energy              =   -1551.88648034 Ry
     estimated scf accuracy    <       0.09728404 Ry

     total magnetization       =    -0.00 Bohr mag/cell
     absolute magnetization    =     0.47 Bohr mag/cell

     iteration #  4     ecut=    50.00 Ry     beta= 0.30
     Davidson diagonalization with overlap
     ethr =  2.92E-05,  avg # of iterations =  4.0

     negative rho (up, down):  3.575E-05 3.696E-05

     total cpu time spent up to now is      552.6 secs

     total energy              =   -1551.89105790 Ry
     estimated scf accuracy    <       0.04469688 Ry

     total magnetization       =    -0.00 Bohr mag/cell
     absolute magnetization    =     0.45 Bohr mag/cell

     iteration #  5     ecut=    50.00 Ry     beta= 0.30
     Davidson diagonalization with overlap
     ethr =  1.34E-05,  avg # of iterations =  3.5

     negative rho (up, down):  3.477E-05 3.552E-05

     total cpu time spent up to now is      559.4 secs

     total energy              =   -1551.89193707 Ry
     estimated scf accuracy    <       0.01058139 Ry

     total magnetization       =     0.00 Bohr mag/cell
     absolute magnetization    =     0.68 Bohr mag/cell

     iteration #  6     ecut=    50.00 Ry     beta= 0.30
     Davidson diagonalization with overlap
     ethr =  3.18E-06,  avg # of iterations =  9.5

     negative rho (up, down):  3.455E-05 3.509E-05

     total cpu time spent up to now is      566.8 secs

     total energy              =   -1551.89116605 Ry
     estimated scf accuracy    <       0.01576476 Ry

     total magnetization       =    -0.00 Bohr mag/cell
     absolute magnetization    =     0.20 Bohr mag/cell

     iteration #  7     ecut=    50.00 Ry     beta= 0.30
     Davidson diagonalization with overlap
     ethr =  3.18E-06,  avg # of iterations =  2.0

     negative rho (up, down):  3.535E-05 3.564E-05

     total cpu time spent up to now is      573.4 secs

     total energy              =   -1551.89174105 Ry
     estimated scf accuracy    <       0.00657523 Ry

     total magnetization       =     0.00 Bohr mag/cell
     absolute magnetization    =     0.73 Bohr mag/cell

     iteration #  8     ecut=    50.00 Ry     beta= 0.30
     Davidson diagonalization with overlap
     ethr =  1.97E-06,  avg # of iterations =  2.0

     negative rho (up, down):  3.557E-05 3.580E-05

     total cpu time spent up to now is      580.1 secs

     total energy              =   -1551.89209864 Ry
     estimated scf accuracy    <       0.00580195 Ry

     total magnetization       =     0.00 Bohr mag/cell
     absolute magnetization    =     0.68 Bohr mag/cell

     iteration #  9     ecut=    50.00 Ry     beta= 0.30
     Davidson diagonalization with overlap
     ethr =  1.74E-06,  avg # of iterations =  1.0

     negative rho (up, down):  3.588E-05 3.607E-05

     total cpu time spent up to now is      586.2 secs

     total energy              =   -1551.89224643 Ry
     estimated scf accuracy    <       0.00215905 Ry

     total magnetization       =    -0.00 Bohr mag/cell
     absolute magnetization    =     0.74 Bohr mag/cell

     iteration # 10     ecut=    50.00 Ry     beta= 0.30
     Davidson diagonalization with overlap
     ethr =  6.48E-07,  avg # of iterations =  1.5

     negative rho (up, down):  3.601E-05 3.620E-05

     total cpu time spent up to now is      592.7 secs

     total energy              =   -1551.89237073 Ry
     estimated scf accuracy    <       0.00136047 Ry

     total magnetization       =     0.00 Bohr mag/cell
     absolute magnetization    =     0.74 Bohr mag/cell

     iteration # 11     ecut=    50.00 Ry     beta= 0.30
     Davidson diagonalization with overlap
     ethr =  4.09E-07,  avg # of iterations =  1.5

     negative rho (up, down):  3.633E-05 3.646E-05

     total cpu time spent up to now is      599.1 secs

     total energy              =   -1551.89261020 Ry
     estimated scf accuracy    <       0.00098268 Ry

     total magnetization       =    -0.00 Bohr mag/cell
     absolute magnetization    =     0.74 Bohr mag/cell

     iteration # 12     ecut=    50.00 Ry     beta= 0.30
     Davidson diagonalization with overlap
     ethr =  2.95E-07,  avg # of iterations =  3.0

     negative rho (up, down):  3.642E-05 3.653E-05

     total cpu time spent up to now is      605.9 secs

     total energy              =   -1551.89291337 Ry
     estimated scf accuracy    <       0.00051037 Ry

     total magnetization       =    -0.00 Bohr mag/cell
     absolute magnetization    =     0.74 Bohr mag/cell

     iteration # 13     ecut=    50.00 Ry     beta= 0.30
     Davidson diagonalization with overlap
     ethr =  1.53E-07,  avg # of iterations =  4.0

     negative rho (up, down):  3.637E-05 3.647E-05

     total cpu time spent up to now is      612.9 secs

     total energy              =   -1551.89312544 Ry
     estimated scf accuracy    <       0.00025424 Ry

     total magnetization       =    -0.00 Bohr mag/cell
     absolute magnetization    =     0.73 Bohr mag/cell

     iteration # 14     ecut=    50.00 Ry     beta= 0.30
     Davidson diagonalization with overlap
     ethr =  7.63E-08,  avg # of iterations =  4.0

     negative rho (up, down):  3.638E-05 3.646E-05

     total cpu time spent up to now is      619.8 secs

     total energy              =   -1551.89333450 Ry
     estimated scf accuracy    <       0.00019921 Ry

     total magnetization       =    -0.00 Bohr mag/cell
     absolute magnetization    =     0.72 Bohr mag/cell

     iteration # 15     ecut=    50.00 Ry     beta= 0.30
     Davidson diagonalization with overlap
     ethr =  5.98E-08,  avg # of iterations =  5.0

     negative rho (up, down):  3.646E-05 3.653E-05

     total cpu time spent up to now is      627.0 secs

     total energy              =   -1551.89357328 Ry
     estimated scf accuracy    <       0.00007158 Ry

     total magnetization       =    -0.00 Bohr mag/cell
     absolute magnetization    =     0.70 Bohr mag/cell

     iteration # 16     ecut=    50.00 Ry     beta= 0.30
     Davidson diagonalization with overlap
     ethr =  2.15E-08,  avg # of iterations =  5.0

     negative rho (up, down):  3.644E-05 3.652E-05

     total cpu time spent up to now is      634.7 secs

     total energy              =   -1551.89371000 Ry
     estimated scf accuracy    <       0.00005603 Ry

     total magnetization       =     0.00 Bohr mag/cell
     absolute magnetization    =     0.70 Bohr mag/cell

     iteration # 17     ecut=    50.00 Ry     beta= 0.30
     Davidson diagonalization with overlap
     ethr =  1.68E-08,  avg # of iterations =  5.0

     negative rho (up, down):  3.643E-05 3.650E-05

     total cpu time spent up to now is      643.0 secs

     total energy              =   -1551.89384791 Ry
     estimated scf accuracy    <       0.00003187 Ry

     total magnetization       =     0.00 Bohr mag/cell
     absolute magnetization    =     0.71 Bohr mag/cell

     iteration # 18     ecut=    50.00 Ry     beta= 0.30
     Davidson diagonalization with overlap
     ethr =  9.57E-09,  avg # of iterations =  4.0

     negative rho (up, down):  3.646E-05 3.653E-05

     total cpu time spent up to now is      650.1 secs

     total energy              =   -1551.89390253 Ry
     estimated scf accuracy    <       0.00002401 Ry

     total magnetization       =    -0.00 Bohr mag/cell
     absolute magnetization    =     0.71 Bohr mag/cell

     iteration # 19     ecut=    50.00 Ry     beta= 0.30
     Davidson diagonalization with overlap
     ethr =  7.21E-09,  avg # of iterations =  5.0

     negative rho (up, down):  3.667E-05 3.672E-05

     total cpu time spent up to now is      657.8 secs

     total energy              =   -1551.89392341 Ry
     estimated scf accuracy    <       0.00001889 Ry

     total magnetization       =    -0.00 Bohr mag/cell
     absolute magnetization    =     0.71 Bohr mag/cell

     iteration # 20     ecut=    50.00 Ry     beta= 0.30
     Davidson diagonalization with overlap
     ethr =  5.67E-09,  avg # of iterations =  6.0

     negative rho (up, down):  3.672E-05 3.676E-05

     total cpu time spent up to now is      667.6 secs

     total energy              =   -1551.89401469 Ry
     estimated scf accuracy    <       0.00002504 Ry

     total magnetization       =     0.00 Bohr mag/cell
     absolute magnetization    =     0.71 Bohr mag/cell

     iteration # 21     ecut=    50.00 Ry     beta= 0.30
     Davidson diagonalization with overlap
     ethr =  5.67E-09,  avg # of iterations =  5.0

     negative rho (up, down):  3.667E-05 3.671E-05

     total cpu time spent up to now is      674.9 secs

     total energy              =   -1551.89401310 Ry
     estimated scf accuracy    <       0.00005723 Ry

     total magnetization       =     0.00 Bohr mag/cell
     absolute magnetization    =     0.70 Bohr mag/cell

     iteration # 22     ecut=    50.00 Ry     beta= 0.30
     Davidson diagonalization with overlap
     ethr =  5.67E-09,  avg # of iterations =  5.0

     negative rho (up, down):  3.668E-05 3.671E-05

     total cpu time spent up to now is      683.1 secs

     total energy              =   -1551.89400956 Ry
     estimated scf accuracy    <       0.00000908 Ry

     total magnetization       =    -0.00 Bohr mag/cell
     absolute magnetization    =     0.72 Bohr mag/cell

     iteration # 23     ecut=    50.00 Ry     beta= 0.30
     Davidson diagonalization with overlap
     ethr =  2.73E-09,  avg # of iterations =  6.0

[...]
     atom  80 (R=0.035)  charge=  0.9567  magn=  0.0000
     atom  81 (R=0.029)  charge=  1.8119  magn=  0.0000
     atom  82 (R=0.029)  charge=  1.8317  magn=  0.0000
     atom  83 (R=0.029)  charge=  0.3784  magn= -0.0000

     total cpu time spent up to now is     6080.7 secs

     End of self-consistent calculation

 ------ SPIN UP ------------


          k = 0.0000 0.0000 0.0000 ( 48737 PWs)   bands (ev):

   -26.4006 -19.2055 -19.0922 -18.9985 -18.9971 -18.9757 -18.8598 -18.8588
   -18.8386 -18.7608 -18.7519 -18.7335 -18.5826 -18.5751 -18.5593 -18.4675
   -18.2188 -17.8456 -16.1428 -16.1061 -16.1039 -16.0632 -16.0429 -16.0261
   -15.9825 -15.9677 -15.9255 -15.9165 -15.9120 -15.9017 -15.8962 -15.8896
   -15.8839 -15.8802 -15.8329 -15.5423 -15.3724 -15.3701 -15.3689 -14.9274
   -14.9249 -14.9152 -14.9024 -14.9018 -14.8893 -14.4590 -14.3715 -14.3654
   -14.3467 -13.7452 -11.4779 -11.4761 -11.4585 -11.4424 -11.4123 -11.4010
   -11.3477 -11.2392 -11.2259 -11.2208 -11.1720 -11.1615 -11.1563 -11.1263
   -11.1151 -11.0571 -11.0451 -10.9487 -10.7465 -10.7437 -10.7423 -10.3670
   -10.3584 -10.3558 -10.3254 -10.2768 -10.2752 -10.2663  -9.9284  -9.9123
    -9.8442  -9.8416  -9.8367  -9.7569  -9.7563  -9.7471  -9.7383  -9.7306
    -9.6473  -9.6318  -9.6030  -9.5941  -9.5841  -9.5367  -9.5336  -9.5202
    -9.4870  -9.4703  -9.4645  -8.2111  -7.7156  -5.4136  -5.4076  -5.2481
    -5.2457  -5.2369  -5.1802  -5.1801  -5.0257  -5.0223  -5.0080  -4.9659
    -4.9265  -4.9201  -4.9075  -4.8430  -4.8244  -4.8212  -4.7014  -4.6365
    -4.6244  -4.6189  -4.5218  -4.5166  -4.5095  -4.5015  -4.4973  -4.4932
    -4.4843  -4.4825  -4.4309  -4.4278  -4.4228  -4.4141  -4.4115  -4.4042
    -4.3573  -4.3464  -4.3387  -4.3043  -4.3008  -4.2922  -4.2641  -4.2466
    -4.2429  -4.1955  -4.1687  -4.0086  -4.0024  -3.9970  -3.9138  -3.8984
    -3.8970  -3.7095  -3.7021  -3.5606  -3.5452  -3.5409  -3.5359  -3.5320
    -3.4751  -3.4679  -3.4586  -3.3136  -3.3079  -2.9703  -2.4154   0.2781
     0.4416   0.6968   0.6979   0.7065   0.7236   0.7247   0.7340   0.9100
     0.9143   0.9668   0.9713   1.5072   1.5129   1.5243   1.5572   1.5693
     1.5754   1.5898   1.6115   1.6415   1.6584   1.6788   1.8890   2.1884
     2.1943   2.2032   2.2131   2.2259   2.2422   2.2927   2.2961   2.3029

 ------ SPIN DOWN ----------


          k = 0.0000 0.0000 0.0000 ( 48737 PWs)   bands (ev):

   -26.4006 -19.2055 -19.0922 -18.9985 -18.9971 -18.9757 -18.8598 -18.8588
   -18.8386 -18.7608 -18.7519 -18.7335 -18.5826 -18.5751 -18.5593 -18.4675
   -18.2188 -17.8456 -16.1428 -16.1061 -16.1039 -16.0632 -16.0429 -16.0261
   -15.9825 -15.9677 -15.9255 -15.9165 -15.9120 -15.9017 -15.8962 -15.8896
   -15.8839 -15.8802 -15.8329 -15.5423 -15.3724 -15.3701 -15.3689 -14.9274
   -14.9249 -14.9152 -14.9024 -14.9018 -14.8893 -14.4590 -14.3715 -14.3654
   -14.3467 -13.7452 -11.4779 -11.4761 -11.4585 -11.4424 -11.4123 -11.4010
   -11.3477 -11.2392 -11.2259 -11.2208 -11.1720 -11.1615 -11.1563 -11.1263
   -11.1151 -11.0571 -11.0451 -10.9487 -10.7465 -10.7437 -10.7423 -10.3670
   -10.3584 -10.3558 -10.3254 -10.2768 -10.2752 -10.2663  -9.9284  -9.9123
    -9.8442  -9.8416  -9.8367  -9.7569  -9.7563  -9.7471  -9.7383  -9.7306
    -9.6473  -9.6318  -9.6030  -9.5941  -9.5841  -9.5367  -9.5336  -9.5202
    -9.4870  -9.4703  -9.4645  -8.2111  -7.7156  -5.4136  -5.4076  -5.2481
    -5.2457  -5.2369  -5.1802  -5.1801  -5.0257  -5.0223  -5.0080  -4.9659
    -4.9265  -4.9201  -4.9075  -4.8430  -4.8244  -4.8212  -4.7014  -4.6365
    -4.6244  -4.6189  -4.5218  -4.5166  -4.5095  -4.5015  -4.4973  -4.4932
    -4.4843  -4.4825  -4.4309  -4.4278  -4.4228  -4.4141  -4.4115  -4.4042
    -4.3573  -4.3464  -4.3387  -4.3043  -4.3008  -4.2922  -4.2641  -4.2466
    -4.2429  -4.1955  -4.1687  -4.0086  -4.0024  -3.9970  -3.9138  -3.8984
    -3.8970  -3.7095  -3.7021  -3.5606  -3.5452  -3.5409  -3.5359  -3.5320
    -3.4751  -3.4679  -3.4586  -3.3136  -3.3079  -2.9703  -2.4154   0.2781
     0.4416   0.6968   0.6979   0.7065   0.7236   0.7247   0.7340   0.9100
     0.9143   0.9668   0.9713   1.5072   1.5129   1.5243   1.5572   1.5693
     1.5754   1.5898   1.6115   1.6415   1.6584   1.6788   1.8890   2.1884
     2.1943   2.2032   2.2131   2.2259   2.2422   2.2927   2.2961   2.3029

     the spin up/dw Fermi energies are    -2.4154   -2.4154 ev

!    total energy              =   -1552.44057263 Ry
     estimated scf accuracy    <          1.5E-09 Ry
     smearing contrib. (-TS)   =      -0.00005642 Ry
     internal energy E=F+TS    =   -1552.44051621 Ry

     The total energy is F=E-TS. E is the sum of the following terms:
     one-electron contribution =   -2102.58711992 Ry
     hartree contribution      =    1125.83021983 Ry
     xc contribution           =    -376.42103748 Ry
     ewald contribution        =     313.18403929 Ry
     one-center paw contrib.   =    -512.44661792 Ry

     total magnetization       =    -0.00 Bohr mag/cell
     absolute magnetization    =     0.00 Bohr mag/cell

     convergence has been achieved in   6 iterations

     negative rho (up, down):  5.212E-05 5.212E-05

     Forces acting on atoms (cartesian axes, Ry/au):

     atom    1 type  1   force =    -0.00016292   -0.00011196   -0.00013090
     atom    2 type  1   force =    -0.00014582   -0.00020380    0.00024586
     atom    3 type  1   force =     0.00010229   -0.00001334    0.00050010
     atom    4 type  1   force =    -0.00006588    0.00010020    0.00001897
     atom    5 type  1   force =    -0.00025054   -0.00035771    0.00020324
     atom    6 type  1   force =     0.00027886    0.00034983   -0.00021692
     atom    7 type  1   force =    -0.00009441    0.00032495    0.00030762
     atom    8 type  1   force =    -0.00010775   -0.00026480   -0.00025511
     atom    9 type  1   force =    -0.00042339   -0.00020156    0.00005904
     atom   10 type  1   force =     0.00022888   -0.00000496    0.00002358
     atom   11 type  1   force =    -0.00001823   -0.00003323    0.00002940
     atom   12 type  1   force =    -0.00012503    0.00031843   -0.00037764
     atom   13 type  1   force =     0.00001754   -0.00015903   -0.00020751
     atom   14 type  1   force =     0.00001494   -0.00003327    0.00038024
     atom   15 type  1   force =     0.00001092   -0.00042871    0.00030153
     atom   16 type  1   force =    -0.00035652   -0.00036752   -0.00096515
     atom   17 type  1   force =    -0.00002434   -0.00019590   -0.00038447
     atom   18 type  1   force =    -0.00027891   -0.00010092   -0.00021681
     atom   19 type  1   force =     0.00002567   -0.00008820   -0.00014520
     atom   20 type  1   force =     0.00097315    0.00017946    0.00032652
     atom   21 type  1   force =     0.00007657   -0.00014236   -0.00032985
     atom   22 type  1   force =    -0.00006534   -0.00063897   -0.00051212
     atom   23 type  1   force =    -0.00069253    0.00031883   -0.00001147
     atom   24 type  1   force =    -0.00024209    0.00019203   -0.00007307
     atom   25 type  1   force =    -0.00084322    0.00060486   -0.00016803
     atom   26 type  1   force =     0.00059823    0.00004179   -0.00005019
     atom   27 type  1   force =    -0.00036135   -0.00000563    0.00040586
     atom   28 type  1   force =    -0.00084421    0.00008499    0.00030367
     atom   29 type  1   force =    -0.00030369   -0.00031115    0.00011736
     atom   30 type  1   force =     0.00011053    0.00010770    0.00013830
     atom   31 type  1   force =     0.00043084   -0.00030650   -0.00035402
     atom   32 type  1   force =    -0.00015604   -0.00001220    0.00006423
     atom   33 type  1   force =    -0.00003382   -0.00040736    0.00077847
     atom   34 type  1   force =    -0.00046787    0.00013958    0.00031612
     atom   35 type  1   force =     0.00044540    0.00006800    0.00007947
     atom   36 type  1   force =     0.00000476    0.00009996   -0.00017598
     atom   37 type  1   force =    -0.00031622   -0.00033119   -0.00022866
     atom   38 type  1   force =     0.00023786    0.00012280    0.00009379
     atom   39 type  1   force =    -0.00078610    0.00078575    0.00018396
     atom   40 type  1   force =    -0.00045836    0.00006025    0.00063736
     atom   41 type  1   force =     0.00031698   -0.00022081   -0.00012371
     atom   42 type  1   force =     0.00028742   -0.00024824   -0.00001729
     atom   43 type  1   force =     0.00056309   -0.00033056   -0.00013325
     atom   44 type  1   force =    -0.00002919   -0.00005077    0.00000612
     atom   45 type  1   force =    -0.00048916    0.00027442    0.00033623
     atom   46 type  1   force =     0.00035202   -0.00012431   -0.00008074
     atom   47 type  1   force =    -0.00000772    0.00000401   -0.00009703
     atom   48 type  1   force =     0.00007939    0.00034434    0.00027173
     atom   49 type  1   force =     0.00037073   -0.00013534    0.00006404
     atom   50 type  1   force =     0.00008219   -0.00002094   -0.00006108
     atom   51 type  1   force =     0.00017954   -0.00003277    0.00010532
     atom   52 type  1   force =     0.00014602   -0.00038938   -0.00035569
     atom   53 type  1   force =     0.00030041    0.00001575   -0.00002549
     atom   54 type  1   force =     0.00020279    0.00047490   -0.00031667
     atom   55 type  1   force =     0.00029044    0.00001248   -0.00061282
     atom   56 type  1   force =     0.00016434   -0.00047286   -0.00044563
     atom   57 type  1   force =     0.00026454   -0.00020222   -0.00018734
     atom   58 type  1   force =     0.00034451    0.00014133    0.00035129
     atom   59 type  1   force =     0.00017904   -0.00002857    0.00014839
     atom   60 type  1   force =     0.00017548   -0.00016206   -0.00016342
     atom   61 type  1   force =    -0.00014611    0.00005362   -0.00013327
     atom   62 type  1   force =    -0.00004229   -0.00001725   -0.00019336
     atom   63 type  1   force =    -0.00047197    0.00037571    0.00006307
     atom   64 type  1   force =     0.00015416   -0.00022285    0.00023271
     atom   65 type  1   force =     0.00045285   -0.00037381   -0.00018704
     atom   66 type  1   force =    -0.00000034   -0.00029363    0.00003304
     atom   67 type  1   force =     0.00009334    0.00005612   -0.00017762
     atom   68 type  1   force =    -0.00013739   -0.00016461   -0.00030279
     atom   69 type  1   force =    -0.00009281   -0.00002363   -0.00048424
     atom   70 type  1   force =     0.00028546    0.00024498    0.00002795
     atom   71 type  1   force =    -0.00036330    0.00051649    0.00038374
     atom   72 type  1   force =     0.00056013    0.00032936    0.00004869
     atom   73 type  1   force =    -0.00019631    0.00047829    0.00020218
     atom   74 type  1   force =     0.00007332   -0.00009372    0.00021727
     atom   75 type  1   force =     0.00007710    0.00021763    0.00062859
     atom   76 type  1   force =    -0.00004865   -0.00007373    0.00032918
     atom   77 type  1   force =     0.00001471    0.00030535    0.00019518
     atom   78 type  1   force =     0.00001285    0.00040743    0.00007933
     atom   79 type  1   force =     0.00017586    0.00005816   -0.00005528
     atom   80 type  1   force =     0.00025696    0.00032456   -0.00009348
     atom   81 type  2   force =     0.00029770   -0.00003189    0.00002311
     atom   82 type  2   force =    -0.00020596   -0.00033782    0.00015008
     atom   83 type  3   force =    -0.00045404    0.00023770   -0.00036156

     Total force =     0.004686     Total SCF correction =     0.000063
     Energy error            =      1.3E-05 Ry
     Gradient error          =      9.7E-04 Ry/Bohr

     bfgs converged in  66 scf cycles and  62 bfgs steps
     (criteria: energy <  1.0E-04 Ry, force <  1.0E-03 Ry/Bohr)

     End of BFGS Geometry Optimization

     Final energy             =   -1552.4405726267 Ry

     File ./pwscf.bfgs deleted, as requested
Begin final coordinates

ATOMIC_POSITIONS (angstrom)
C            11.1518767424       11.0837566344       11.0884610613
C            10.2629338072       10.1861534815       10.1930181744
C            10.9427199986       12.5766121250       10.8697024509
C             1.9518627977        1.8863005228       11.0964297706
C             2.8458649331        2.7806481909       10.2020947629
C             2.1652311866        0.3911478499       10.8861021093
C            11.1464026404        1.8659801533        1.8709390298
C            10.2468979688        2.7592138958        2.7656594991
C            10.9424307784        0.3714930970        2.0868772962
C             1.9535341815       11.0950785771        1.8910770251
C             2.8507556440       10.2027581659        2.7847281364
C             2.1633537227       12.5892485010        2.1052061969
C            10.9434774892       10.8706751178       12.5823053708
C            10.9387375730        2.0796436118        0.3761042311
C             2.1660545008       10.8853570368        0.3959948023
C             2.1631890702        2.1015239211       12.5903072859
C            12.6483971654       10.8760513373       10.8805272663
C             0.4622101687       10.8755573205        2.1034380768
C             0.4605003873        2.0978603628       10.8784654635
C            12.6383263908        2.0858407288        2.0881741818
C             1.9392778218        1.8876888207        1.8899299965
C             2.8263626687        2.7867434701        2.7859379153
C             0.4440242674        2.0918186304        2.0955778826
C            11.1631375608       11.0718854827        1.8815997834
C            10.2717100525       10.1734775407        2.7769719459
C            12.6567441961       10.8669624978        2.0989314699
C            11.1617134148        1.8747780330       11.0752655073
C            10.2661608961        2.7686877610       10.1802973441
C            12.6551597604        2.0953691198       10.8701537766
C             1.9457760407       11.0909286751       11.0950295751
C             2.8448628646       10.1981813236       10.2028016695
C             0.4540601006       10.8771250628       10.8802789137
C             2.1579396716        2.1016779846        0.3967808129
C            10.9450105587        2.0831619137       12.5694234409
C             2.1604616129       10.8811743179       12.5891657031
C            10.9522910954       10.8611290149        0.3888304802
C             2.1601652841        0.3950327433        2.1042780416
C             2.1614728816       12.5851276667       10.8835103592
C            10.9480262831       12.5657519988        2.0923179611
C            10.9551399613        0.3824074259       10.8599755964
C             4.4310159523        4.3897792096        4.3876476734
C             3.5338217630        3.4982186538        3.4950540035
C             4.2213705318        5.8835664685        4.1770741375
C             8.6595016622        8.5746756753        4.3802561261
C             9.5595997812        9.4643502403        3.4847375482
C             8.8616745263        7.0789856904        4.1667064854
C             4.4517516387        8.5934751756        8.5993832467
C             3.5572305350        9.4896323918        9.4943137963
C             4.2331035975        7.1013711582        8.8118773051
C             8.6519049973        4.3699719691        8.5825061802
C             9.5498923692        3.4748744952        9.4737950839
C             8.8679555486        5.8625148374        8.7974589229
C             4.2196704813        4.1766750600        5.8806119608
C             4.2373056259        8.8072292223        7.1066271424
C             8.8574831367        4.1554205196        7.0878588921
C             8.8739780296        8.7879014574        5.8737864652
C             5.9231481307        4.1701986319        4.1710959011
C             7.1573289821        4.1624373483        8.7992079313
C             7.1656633960        8.7961055210        4.1714020814
C             5.9465537240        8.8011201781        8.8100151326
C             8.6624932063        8.5790149645        8.5903151611
C             9.5589592530        9.4723672055        9.4825794032
C             7.1682904418        8.7935188991        8.8041093441
C             4.4421682113        4.3874457038        8.5942267497
C             3.5502212723        3.4933507932        9.4908548889
C             5.9357226017        4.1704683830        8.8026422902
C             4.4493811847        8.5966831711        4.3918507721
C             3.5586365596        9.4943411986        3.4970673088
C             5.9440030437        8.8023067138        4.1777953341
C             8.6412165786        4.3632106796        4.3722178963
C             9.5348194911        3.4666649353        3.4753940080
C             7.1447687855        4.1582841977        4.1642420134
C             8.8739047567        8.7877221305        7.0953561296
C             4.2373605302        8.8101158596        5.8850854557
C             8.8549945555        4.1504798582        5.8660224275
C             4.2237603753        4.1763475634        7.1019122599
C             8.8708460526        7.0839792464        8.8003764041
C             8.8578321358        5.8571665368        4.1621070741
C             4.2312042820        5.8799689663        8.8105150365
C             4.2279725620        7.1048728482        4.1787641583
O             8.1768056858       12.0866300031       11.9882087619
O             7.0705499964       11.7509100386       11.3146027564
H             6.3388798887       12.2516360852       11.7536679833
End final coordinates



     Writing all to output data dir ./pwscf.save/

     init_run     :      6.95s CPU      7.21s WALL (       1 calls)
     electrons    :   5240.28s CPU   5445.55s WALL (      66 calls)
     update_pot   :    213.64s CPU    216.08s WALL (      65 calls)
     forces       :    287.72s CPU    300.54s WALL (      66 calls)

     Called by init_run:
     wfcinit      :      2.81s CPU      2.93s WALL (       1 calls)
     potinit      :      2.11s CPU      2.17s WALL (       1 calls)
     hinit0       :      1.46s CPU      1.48s WALL (       1 calls)

     Called by electrons:
     c_bands      :   3596.17s CPU   3684.52s WALL (     724 calls)
     sum_band     :    739.57s CPU    779.02s WALL (     724 calls)
     v_of_rho     :    330.87s CPU    344.50s WALL (     766 calls)
     newd         :    206.63s CPU    230.64s WALL (     766 calls)
     PAW_pot      :    392.04s CPU    394.48s WALL (     831 calls)
     mix_rho      :     46.70s CPU     49.63s WALL (     724 calls)

     Called by c_bands:
     init_us_2    :     46.55s CPU     47.22s WALL (    3160 calls)
     init_us_2:cp :     46.52s CPU     47.21s WALL (    3160 calls)
     regterg      :   3525.35s CPU   3612.51s WALL (    1448 calls)

     Called by *egterg:
     rdiaghg      :    135.30s CPU    137.62s WALL (    6634 calls)
     h_psi        :   2016.37s CPU   2085.08s WALL (    6814 calls)
     s_psi        :    379.82s CPU    382.31s WALL (    6814 calls)
     g_psi        :      6.20s CPU      6.31s WALL (    5364 calls)

     Called by h_psi:
     h_psi:calbec :    396.58s CPU    400.90s WALL (    6814 calls)
     vloc_psi     :   1222.25s CPU   1283.89s WALL (    6814 calls)
     add_vuspsi   :    380.50s CPU    383.07s WALL (    6814 calls)

     General routines
     calbec       :    623.46s CPU    630.21s WALL (    8920 calls)
     fft          :    188.98s CPU    208.46s WALL (   16727 calls)
     ffts         :      8.15s CPU      9.56s WALL (    2980 calls)
     fftw         :   1181.19s CPU   1236.85s WALL (  838704 calls)
     interpolate  :     24.43s CPU     26.83s WALL (    1532 calls)

     Parallel routines

     PWSCF        :      1h37m CPU      1h41m WALL


   This run was terminated on:  20:54: 0  24May2025            

=------------------------------------------------------------------------------=
   JOB DONE.
=------------------------------------------------------------------------------=
