ITEM: TIMESTEP
0
ITEM: NUMBER OF ATOMS
73
ITEM: BOX BOUNDS pp pp pp
0.0000000000000000e+00 1.3600000000000000e+01
0.0000000000000000e+00 1.3600000000000000e+01
0.0000000000000000e+00 1.3600000000000000e+01
ITEM: ATOMS id type x y z 
1 1 6.672 0.882 7.682 
2 1 6.673 1.896 8.696 
3 1 6.672 2.763 9.563 
7 1 6.673 5.663 12.463 
8 1 6.672 4.65 11.449 
9 1 6.672 3.783 10.582 
49 1 5.663 6.673 12.463 
50 1 4.65 6.672 11.449 
51 1 3.783 6.672 10.582 
55 1 0.882 6.672 7.682 
56 1 1.896 6.673 8.696 
57 1 2.763 6.672 9.563 
73 2 6.597 1.788 10.048 
25 1 0.882 7.682 6.672 
26 1 1.896 8.696 6.673 
27 1 2.763 9.563 6.672 
31 1 5.663 12.463 6.673 
32 1 4.65 11.449 6.672 
33 1 3.783 10.582 6.672 
37 1 6.673 12.463 5.663 
38 1 6.672 11.449 4.65 
39 1 6.672 10.582 3.783 
43 1 6.672 7.682 0.882 
44 1 6.673 8.696 1.896 
45 1 6.672 9.563 2.763 
28 1 5.662 7.683 13.473 
29 1 4.649 8.696 13.472 
30 1 3.781 9.563 13.471 
34 1 0.882 12.462 13.473 
35 1 1.896 11.449 13.472 
36 1 2.763 10.582 13.472 
52 1 5.662 13.473 7.683 
53 1 4.649 13.472 8.696 
54 1 3.781 13.472 9.563 
58 1 0.882 13.472 12.462 
59 1 1.896 13.472 11.449 
60 1 2.763 13.472 10.582 
13 1 7.682 6.672 0.882 
14 1 8.696 6.673 1.896 
15 1 9.563 6.672 2.763 
19 1 12.463 6.673 5.663 
20 1 11.449 6.672 4.65 
21 1 10.582 6.672 3.783 
61 1 12.463 5.663 6.673 
62 1 11.449 4.65 6.672 
63 1 10.582 3.783 6.672 
67 1 7.682 0.882 6.672 
68 1 8.696 1.896 6.673 
69 1 9.563 2.763 6.672 
4 1 13.473 5.662 7.683 
5 1 13.472 4.649 8.696 
6 1 13.471 3.781 9.563 
10 1 13.473 0.883 12.462 
11 1 13.473 1.896 11.449 
12 1 13.472 2.763 10.582 
64 1 7.683 5.662 13.473 
65 1 8.696 4.649 13.472 
66 1 9.563 3.781 13.471 
70 1 12.462 0.883 13.473 
71 1 11.449 1.896 13.473 
72 1 10.582 2.763 13.472 
16 1 7.683 13.473 5.662 
17 1 8.696 13.472 4.649 
18 1 9.563 13.471 3.781 
22 1 12.462 13.473 0.882 
23 1 11.449 13.473 1.896 
24 1 10.582 13.472 2.763 
40 1 13.473 7.683 5.662 
41 1 13.472 8.696 4.649 
42 1 13.471 9.563 3.781 
46 1 13.473 12.462 0.882 
47 1 13.473 11.449 1.896 
48 1 13.472 10.582 2.763 
ITEM: TIMESTEP
10
ITEM: NUMBER OF ATOMS
73
ITEM: BOX BOUNDS pp pp pp
0.0000000000000000e+00 1.3600000000000000e+01
0.0000000000000000e+00 1.3600000000000000e+01
0.0000000000000000e+00 1.3600000000000000e+01
ITEM: ATOMS id type x y z 
1 1 6.6676 0.873431 7.67499 
2 1 6.71291 1.88986 8.6568 
3 1 6.65533 2.79173 9.63425 
7 1 6.67138 5.6559 12.4591 
8 1 6.67996 4.66735 11.4588 
9 1 6.67025 3.82069 10.5746 
49 1 5.63532 6.68277 12.4453 
50 1 4.63764 6.67227 11.437 
51 1 3.77233 6.67185 10.5715 
55 1 0.898226 6.67233 7.69827 
56 1 1.90638 6.67339 8.7052 
57 1 2.77081 6.67187 9.5712 
73 2 6.58056 1.74547 10.0359 
25 1 0.898111 7.69808 6.6724 
26 1 1.90576 8.70459 6.67339 
27 1 2.77027 9.57071 6.67183 
31 1 5.64493 12.4374 6.66567 
32 1 4.63768 11.4358 6.67111 
33 1 3.77109 10.5703 6.67197 
37 1 6.67282 12.4419 5.64192 
38 1 6.67245 11.4375 4.63828 
39 1 6.67174 10.5724 3.77326 
43 1 6.67229 7.70091 0.900851 
44 1 6.67339 8.70575 1.90692 
45 1 6.67181 9.57174 2.77129 
28 1 5.64501 7.70225 13.4749 
29 1 4.63846 8.70859 13.4745 
30 1 3.77131 9.57182 13.47 
34 1 0.897857 12.4461 13.4728 
35 1 1.90622 11.4402 13.471 
36 1 2.77033 10.5737 13.4723 
52 1 5.63227 13.4547 7.70265 
53 1 4.63442 13.4699 8.71067 
54 1 3.76817 13.4726 9.57569 
58 1 0.897354 13.4723 12.4466 
59 1 1.90549 13.4696 11.4416 
60 1 2.76908 13.4733 10.5747 
13 1 7.6994 6.67519 0.902261 
14 1 8.70671 6.67368 1.90802 
15 1 9.57282 6.67178 2.7724 
19 1 12.4467 6.6731 5.64667 
20 1 11.4389 6.67184 4.64006 
21 1 10.5739 6.67206 3.77457 
61 1 12.4471 5.64701 6.67286 
62 1 11.4391 4.64089 6.67172 
63 1 10.5747 3.77499 6.67225 
67 1 7.7089 0.901582 6.65643 
68 1 8.70872 1.91037 6.67112 
69 1 9.57518 2.77415 6.67232 
4 1 13.4727 5.64626 7.69866 
5 1 13.4743 4.63992 8.70709 
6 1 13.4699 3.77287 9.57043 
10 1 13.4722 0.899288 12.4468 
11 1 13.4748 1.90485 11.4378 
12 1 13.4708 2.77168 10.5742 
64 1 7.71024 5.64488 13.4831 
65 1 8.70863 4.63743 13.4735 
66 1 9.57292 3.77092 13.4704 
70 1 12.4468 0.899153 13.4724 
71 1 11.4381 1.9046 13.4748 
72 1 10.5744 2.7715 13.4708 
16 1 7.70034 13.4678 5.6394 
17 1 8.70906 13.4731 4.63685 
18 1 9.57342 13.4701 3.77009 
22 1 12.4467 13.4725 0.898406 
23 1 11.4389 13.4746 1.90369 
24 1 10.5751 13.471 2.77084 
40 1 13.4724 7.69845 5.64614 
41 1 13.4742 8.70711 4.63984 
42 1 13.47 9.57048 3.77285 
46 1 13.4724 12.4465 0.898585 
47 1 13.4746 11.4379 1.90469 
48 1 13.4709 10.5743 2.77158 
ITEM: TIMESTEP
20
ITEM: NUMBER OF ATOMS
73
ITEM: BOX BOUNDS pp pp pp
0.0000000000000000e+00 1.3600000000000000e+01
0.0000000000000000e+00 1.3600000000000000e+01
0.0000000000000000e+00 1.3600000000000000e+01
ITEM: ATOMS id type x y z 
1 1 6.66314 0.873526 7.66116 
2 1 6.76771 1.9111 8.62039 
3 1 6.64055 2.72995 9.70811 
7 1 6.66883 5.67809 12.4893 
8 1 6.68324 4.71134 11.456 
9 1 6.67897 3.8887 10.5487 
49 1 5.62649 6.69293 12.4485 
50 1 4.63131 6.67478 11.4342 
51 1 3.76763 6.67117 10.5665 
55 1 0.89835 6.67115 7.69966 
56 1 1.90359 6.67372 8.70193 
57 1 2.76838 6.67181 9.56819 
73 2 6.54015 1.65727 10.0069 
25 1 0.897147 7.69836 6.67113 
26 1 1.90193 8.70058 6.67364 
27 1 2.76686 9.56708 6.67192 
31 1 5.64285 12.4333 6.66637 
32 1 4.63402 11.429 6.66851 
33 1 3.76556 10.5657 6.67164 
37 1 6.67182 12.4375 5.63875 
38 1 6.67691 11.4385 4.6342 
39 1 6.66978 10.5693 3.77185 
43 1 6.67249 7.70429 0.904455 
44 1 6.67336 8.70591 1.90738 
45 1 6.67149 9.57213 2.77238 
28 1 5.64065 7.71222 13.4803 
29 1 4.63531 8.71477 13.4776 
30 1 3.7662 9.57679 13.4706 
34 1 0.898138 12.4445 13.4747 
35 1 1.90482 11.4428 13.4688 
36 1 2.76794 10.5747 13.4724 
52 1 5.63382 13.4417 7.70364 
53 1 4.63494 13.4658 8.71298 
54 1 3.76778 13.4742 9.57693 
58 1 0.895348 13.4729 12.4486 
59 1 1.90155 13.4707 11.4445 
60 1 2.76562 13.4731 10.5779 
13 1 7.70496 6.681 0.912538 
14 1 8.70718 6.6817 1.91832 
15 1 9.58024 6.66933 2.77627 
19 1 12.4463 6.6738 5.64578 
20 1 11.4415 6.67158 4.64237 
21 1 10.5763 6.67153 3.77631 
61 1 12.4482 5.64746 6.67384 
62 1 11.4409 4.64441 6.66913 
63 1 10.5785 3.77635 6.67418 
67 1 7.7054 0.90232 6.6418 
68 1 8.70896 1.91256 6.66504 
69 1 9.57619 2.77568 6.67386 
4 1 13.4728 5.64321 7.70187 
5 1 13.4733 4.63878 8.70766 
6 1 13.4707 3.77244 9.57235 
10 1 13.4725 0.902599 12.4433 
11 1 13.4734 1.90645 11.4369 
12 1 13.4712 2.77244 10.5719 
64 1 7.71798 5.64664 13.4956 
65 1 8.71403 4.63362 13.4754 
66 1 9.57824 3.76668 13.4703 
70 1 12.4472 0.89965 13.4717 
71 1 11.4419 1.90162 13.4736 
72 1 10.5769 2.76774 13.4712 
16 1 7.70129 13.4636 5.63217 
17 1 8.71258 13.4709 4.63063 
18 1 9.57907 13.4702 3.76569 
22 1 12.4476 13.4714 0.899073 
23 1 11.4423 13.4737 1.90085 
24 1 10.5774 13.4711 2.76728 
40 1 13.4721 7.70149 5.64294 
41 1 13.4731 8.70749 4.63876 
42 1 13.4708 9.57224 3.77265 
46 1 13.4725 12.4431 0.902433 
47 1 13.4735 11.4368 1.90627 
48 1 13.4711 10.572 2.77242 
ITEM: TIMESTEP
30
ITEM: NUMBER OF ATOMS
73
ITEM: BOX BOUNDS pp pp pp
0.0000000000000000e+00 1.3600000000000000e+01
0.0000000000000000e+00 1.3600000000000000e+01
0.0000000000000000e+00 1.3600000000000000e+01
ITEM: ATOMS id type x y z 
1 1 6.65938 0.890114 7.65919 
2 1 6.79208 1.91668 8.61184 
3 1 6.63236 2.71951 9.70986 
7 1 6.67281 5.67949 12.4816 
8 1 6.6787 4.71653 11.4388 
9 1 6.68623 3.88126 10.5413 
49 1 5.62951 6.68999 12.4514 
50 1 4.63183 6.6761 11.4372 
51 1 3.77004 6.67136 10.5687 
55 1 0.897173 6.67097 7.69884 
56 1 1.9037 6.67333 8.70201 
57 1 2.76906 6.67176 9.56814 
73 2 6.51132 1.62812 10.0437 
25 1 0.896671 7.69729 6.67164 
26 1 1.90195 8.70084 6.67364 
27 1 2.7675 9.56786 6.67212 
31 1 5.64337 12.4366 6.67295 
32 1 4.6369 11.4307 6.66795 
33 1 3.76787 10.5678 6.67133 
37 1 6.66906 12.439 5.64276 
38 1 6.6746 11.4384 4.63642 
39 1 6.67115 10.5718 3.77274 
43 1 6.67276 7.70451 0.904478 
44 1 6.67294 8.70632 1.9081 
45 1 6.67118 9.57268 2.7735 
28 1 5.64051 7.71289 13.4814 
29 1 4.63489 8.71605 13.4787 
30 1 3.7658 9.57781 13.4718 
34 1 0.897307 12.4473 13.4731 
35 1 1.90246 11.4435 13.4691 
36 1 2.76664 10.5769 13.4714 
52 1 5.63937 13.4459 7.70612 
53 1 4.63906 13.4653 8.71042 
54 1 3.77216 13.4735 9.57451 
58 1 0.8981 13.4734 12.4453 
59 1 1.90474 13.4712 11.4412 
60 1 2.76907 13.4737 10.5745 
13 1 7.70432 6.68063 0.913447 
14 1 8.70813 6.68303 1.91858 
15 1 9.57967 6.67057 2.77803 
19 1 12.4476 6.67291 5.64769 
20 1 11.4427 6.67137 4.644 
21 1 10.5786 6.67052 3.77723 
61 1 12.4459 5.64486 6.67403 
62 1 11.4391 4.64106 6.67045 
63 1 10.576 3.77447 6.67421 
67 1 7.70275 0.906146 6.63461 
68 1 8.70712 1.91242 6.66057 
69 1 9.57485 2.77396 6.67424 
4 1 13.4718 5.64299 7.70132 
5 1 13.4731 4.63887 8.7075 
6 1 13.4708 3.7727 9.57198 
10 1 13.4735 0.901575 12.443 
11 1 13.4736 1.90611 11.437 
12 1 13.4711 2.77217 10.5724 
64 1 7.714 5.64736 13.4947 
65 1 8.71274 4.63587 13.4773 
66 1 9.57594 3.76887 13.4701 
70 1 12.4483 0.899064 13.4711 
71 1 11.4418 1.90191 13.4734 
72 1 10.5767 2.76793 13.4709 
16 1 7.70026 13.4631 5.63006 
17 1 8.71071 13.4688 4.62973 
18 1 9.57823 13.4701 3.76658 
22 1 12.4486 13.4716 0.897835 
23 1 11.4431 13.4734 1.90056 
24 1 10.5778 13.4712 2.76712 
40 1 13.4723 7.70217 5.64278 
41 1 13.4732 8.70743 4.6389 
42 1 13.4708 9.57229 3.77246 
46 1 13.473 12.4422 0.902718 
47 1 13.4733 11.4368 1.90632 
48 1 13.4711 10.572 2.77255 
ITEM: TIMESTEP
40
ITEM: NUMBER OF ATOMS
73
ITEM: BOX BOUNDS pp pp pp
0.0000000000000000e+00 1.3600000000000000e+01
0.0000000000000000e+00 1.3600000000000000e+01
0.0000000000000000e+00 1.3600000000000000e+01
ITEM: ATOMS id type x y z 
1 1 6.67509 0.966442 7.64379 
2 1 6.83637 2.02841 8.54931 
3 1 6.62882 2.56034 9.76404 
7 1 6.69088 5.67587 12.4264 
8 1 6.69921 4.69396 11.3804 
9 1 6.69633 3.84272 10.4856 
49 1 5.65018 6.67771 12.4561 
50 1 4.63581 6.6807 11.4473 
51 1 3.77702 6.67273 10.5787 
55 1 0.898099 6.66813 7.70245 
56 1 1.90946 6.67526 8.70456 
57 1 2.7729 6.66963 9.5707 
73 2 6.34537 1.59904 10.337 
25 1 0.900072 7.69576 6.67672 
26 1 1.9049 8.70096 6.67919 
27 1 2.76718 9.5705 6.66942 
31 1 5.64548 12.4485 6.69996 
32 1 4.63936 11.4304 6.67392 
33 1 3.77144 10.5686 6.66937 
37 1 6.65695 12.4348 5.65102 
38 1 6.66369 11.4328 4.64288 
39 1 6.67294 10.5742 3.7721 
43 1 6.67354 7.69846 0.901926 
44 1 6.67637 8.70891 1.91225 
45 1 6.67007 9.57235 2.7726 
28 1 5.63917 7.7079 13.4814 
29 1 4.63441 8.718 13.4861 
30 1 3.76811 9.57847 13.4749 
34 1 0.894156 12.4531 13.4685 
35 1 1.90168 11.4492 13.4645 
36 1 2.76367 10.5784 13.4714 
52 1 5.66401 13.4737 7.71053 
53 1 4.65631 13.4708 8.70733 
54 1 3.78446 13.4694 9.57026 
58 1 0.904341 13.4759 12.4357 
59 1 1.91262 13.4746 11.4331 
60 1 2.77865 13.4747 10.5666 
13 1 7.70106 6.67176 0.906125 
14 1 8.7081 6.6756 1.91672 
15 1 9.57506 6.68031 2.77765 
19 1 12.4489 6.6697 5.65263 
20 1 11.4411 6.65967 4.64904 
21 1 10.5824 6.67407 3.77695 
61 1 12.4475 5.64453 6.67457 
62 1 11.4407 4.6427 6.67354 
63 1 10.5768 3.77226 6.67849 
67 1 7.69363 0.919591 6.58597 
68 1 8.70607 1.91478 6.6297 
69 1 9.57511 2.77384 6.67272 
4 1 13.4723 5.64448 7.69997 
5 1 13.4769 4.64188 8.71024 
6 1 13.4691 3.77119 9.57083 
10 1 13.4739 0.89972 12.4428 
11 1 13.4758 1.90448 11.438 
12 1 13.4698 2.77199 10.5722 
64 1 7.68663 5.65295 13.4691 
65 1 8.70468 4.64598 13.4794 
66 1 9.56511 3.78009 13.4726 
70 1 12.4467 0.904577 13.4667 
71 1 11.4351 1.90767 13.4731 
72 1 10.5722 2.77333 13.4684 
16 1 7.69204 13.4539 5.61135 
17 1 8.70868 13.4619 4.61767 
18 1 9.58413 13.4653 3.75983 
22 1 12.4528 13.4749 0.889888 
23 1 11.4485 13.4764 1.89492 
24 1 10.5855 13.4697 2.76158 
40 1 13.4726 7.69979 5.64601 
41 1 13.475 8.70762 4.64039 
42 1 13.4701 9.57126 3.77304 
46 1 13.4738 12.4444 0.897951 
47 1 13.4766 11.4375 1.90478 
48 1 13.4693 10.574 2.77028 
ITEM: TIMESTEP
50
ITEM: NUMBER OF ATOMS
73
ITEM: BOX BOUNDS pp pp pp
0.0000000000000000e+00 1.3600000000000000e+01
0.0000000000000000e+00 1.3600000000000000e+01
0.0000000000000000e+00 1.3600000000000000e+01
ITEM: ATOMS id type x y z 
1 1 6.67132 0.972744 7.63707 
2 1 6.80781 2.02066 8.55942 
3 1 6.63128 2.55711 9.78902 
7 1 6.69057 5.66882 12.419 
8 1 6.69575 4.69498 11.3665 
9 1 6.70684 3.84228 10.4943 
49 1 5.65227 6.67684 12.4508 
50 1 4.63902 6.68049 11.4472 
51 1 3.77645 6.67288 10.5794 
55 1 0.901519 6.67137 7.70207 
56 1 1.91129 6.67402 8.70769 
57 1 2.77557 6.67037 9.57355 
73 2 6.32768 1.59928 10.369 
25 1 0.897169 7.69497 6.67518 
26 1 1.90559 8.70249 6.67782 
27 1 2.76776 9.56988 6.66985 
31 1 5.64796 12.4539 6.70352 
32 1 4.6407 11.4357 6.67914 
33 1 3.77543 10.5717 6.66945 
37 1 6.65444 12.4332 5.65353 
38 1 6.66 11.4325 4.64465 
39 1 6.67188 10.5737 3.77345 
43 1 6.67375 7.69747 0.901791 
44 1 6.67601 8.70489 1.90883 
45 1 6.67162 9.57224 2.77187 
28 1 5.64096 7.70468 13.4811 
29 1 4.63751 8.71313 13.4849 
30 1 3.76975 9.57659 13.4761 
34 1 0.8964 12.454 13.465 
35 1 1.9041 11.446 13.4653 
36 1 2.7657 10.5778 13.4706 
52 1 5.66104 13.4786 7.71247 
53 1 4.65874 13.4706 8.70498 
54 1 3.78926 13.4719 9.56874 
58 1 0.904903 13.4757 12.436 
59 1 1.91479 13.4743 11.4298 
60 1 2.78121 13.4743 10.5654 
13 1 7.69916 6.66828 0.90429 
14 1 8.70519 6.67858 1.91194 
15 1 9.57322 6.6773 2.77492 
19 1 12.4501 6.67217 5.64935 
20 1 11.439 6.66388 4.64488 
21 1 10.5784 6.6729 3.77595 
61 1 12.4482 5.64563 6.6747 
62 1 11.4404 4.64118 6.67424 
63 1 10.5772 3.77322 6.67948 
67 1 7.70281 0.923266 6.57752 
68 1 8.70789 1.91405 6.6241 
69 1 9.57759 2.77603 6.66941 
4 1 13.4752 5.64598 7.70111 
5 1 13.4759 4.64179 8.70962 
6 1 13.47 3.77232 9.57101 
10 1 13.4756 0.89768 12.4443 
11 1 13.4748 1.90384 11.437 
12 1 13.4701 2.77084 10.5732 
64 1 7.69111 5.65176 13.4658 
65 1 8.70247 4.64752 13.4756 
66 1 9.56512 3.78023 13.4732 
70 1 12.4455 0.906504 13.4656 
71 1 11.434 1.91055 13.4713 
72 1 10.569 2.77566 13.4697 
16 1 7.68778 13.4542 5.61117 
17 1 8.70726 13.4579 4.6142 
18 1 9.58355 13.4648 3.76086 
22 1 12.4552 13.4762 0.88714 
23 1 11.4497 13.4757 1.89291 
24 1 10.5868 13.4701 2.76091 
40 1 13.4738 7.69941 5.6473 
41 1 13.4743 8.70742 4.64067 
42 1 13.4704 9.57085 3.77408 
46 1 13.4759 12.444 0.896678 
47 1 13.4765 11.4373 1.90379 
48 1 13.4697 10.5737 2.77052 
ITEM: TIMESTEP
60
ITEM: NUMBER OF ATOMS
73
ITEM: BOX BOUNDS pp pp pp
0.0000000000000000e+00 1.3600000000000000e+01
0.0000000000000000e+00 1.3600000000000000e+01
0.0000000000000000e+00 1.3600000000000000e+01
ITEM: ATOMS id type x y z 
1 1 6.64957 1.02177 7.59057 
2 1 6.69953 1.94756 8.64361 
3 1 6.60717 2.48137 9.88281 
7 1 6.69638 5.67426 12.4032 
8 1 6.721 4.69763 11.3383 
9 1 6.73613 3.83425 10.4855 
49 1 5.66066 6.68034 12.4379 
50 1 4.6447 6.67972 11.4397 
51 1 3.77488 6.67567 10.5779 
55 1 0.906657 6.67697 7.70121 
56 1 1.91162 6.67148 8.70823 
57 1 2.77384 6.67148 9.57863 
73 2 6.25174 1.61106 10.5219 
25 1 0.901808 7.70398 6.67274 
26 1 1.90884 8.7098 6.67028 
27 1 2.77754 9.57113 6.67093 
31 1 5.65419 12.463 6.71143 
32 1 4.63566 11.4516 6.70421 
33 1 3.78134 10.5769 6.67533 
37 1 6.65358 12.4325 5.65385 
38 1 6.64405 11.4253 4.65422 
39 1 6.66408 10.5713 3.77932 
43 1 6.67343 7.69424 0.904051 
44 1 6.67629 8.7004 1.90765 
45 1 6.67743 9.57339 2.77126 
28 1 5.64438 7.69686 13.4792 
29 1 4.64137 8.70128 13.4805 
30 1 3.77558 9.57022 13.4795 
34 1 0.906554 12.4479 13.4603 
35 1 1.91154 11.4388 13.4636 
36 1 2.77533 10.572 13.471 
52 1 5.66337 13.5039 7.6989 
53 1 4.67595 13.5027 8.71206 
54 1 3.7969 13.4698 9.56498 
58 1 0.91126 13.4739 12.4307 
59 1 1.9187 13.4765 11.4252 
60 1 2.78857 13.4715 10.5645 
13 1 7.69557 6.66584 0.896496 
14 1 8.70065 6.66637 1.89864 
15 1 9.56546 6.67523 2.76917 
19 1 12.4456 6.67578 5.63856 
20 1 11.4373 6.67646 4.63162 
21 1 10.5657 6.67115 3.77247 
61 1 12.4583 5.65678 6.67441 
62 1 11.4515 4.6492 6.67919 
63 1 10.59 3.78565 6.6835 
67 1 7.70743 0.934638 6.5577 
68 1 8.7203 1.91397 6.59258 
69 1 9.58623 2.78265 6.65123 
4 1 13.4818 5.65224 7.70223 
5 1 13.4721 4.64017 8.70593 
6 1 13.4732 3.77732 9.57169 
10 1 13.4795 0.895203 12.4422 
11 1 13.4743 1.90294 11.4362 
12 1 13.4705 2.76966 10.5722 
64 1 7.69408 5.65306 13.4444 
65 1 8.70189 4.64383 13.4598 
66 1 9.56783 3.77825 13.4728 
70 1 12.4465 0.908716 13.4606 
71 1 11.4381 1.91369 13.4651 
72 1 10.5671 2.77563 13.4751 
16 1 7.68013 13.4575 5.60163 
17 1 8.70029 13.44 4.59675 
18 1 9.58504 13.4594 3.7563 
22 1 12.4636 13.4754 0.879771 
23 1 11.4572 13.4742 1.88877 
24 1 10.5939 13.4709 2.75546 
40 1 13.4742 7.69764 5.64891 
41 1 13.4724 8.70721 4.64036 
42 1 13.4707 9.57184 3.7757 
46 1 13.4834 12.4465 0.884478 
47 1 13.4782 11.4414 1.90082 
48 1 13.4711 10.576 2.76487 
ITEM: TIMESTEP
70
ITEM: NUMBER OF ATOMS
73
ITEM: BOX BOUNDS pp pp pp
0.0000000000000000e+00 1.3600000000000000e+01
0.0000000000000000e+00 1.3600000000000000e+01
0.0000000000000000e+00 1.3600000000000000e+01
ITEM: ATOMS id type x y z 
1 1 6.64494 1.0204 7.5938 
2 1 6.70774 1.93929 8.65067 
3 1 6.59806 2.48831 9.88458 
7 1 6.69918 5.67195 12.3964 
8 1 6.72192 4.69846 11.3365 
9 1 6.73508 3.82463 10.4889 
49 1 5.66554 6.67761 12.4395 
50 1 4.64598 6.68012 11.4396 
51 1 3.7764 6.67561 10.5794 
55 1 0.906377 6.67832 7.6983 
56 1 1.90961 6.67252 8.70905 
57 1 2.77287 6.67126 9.5761 
73 2 6.24986 1.61168 10.5318 
25 1 0.900139 7.70296 6.67198 
26 1 1.90994 8.70977 6.66959 
27 1 2.77748 9.57203 6.67051 
31 1 5.65369 12.4639 6.70971 
32 1 4.63823 11.4517 6.70532 
33 1 3.78236 10.5793 6.67745 
37 1 6.65252 12.4359 5.65633 
38 1 6.64461 11.4253 4.65497 
39 1 6.66321 10.5702 3.77946 
43 1 6.67304 7.69146 0.901823 
44 1 6.67722 8.70329 1.90959 
45 1 6.67668 9.57196 2.77086 
28 1 5.64672 7.69446 13.4795 
29 1 4.64233 8.70262 13.4807 
30 1 3.77661 9.56745 13.4792 
34 1 0.90588 12.4495 13.4584 
35 1 1.9125 11.44 13.4637 
36 1 2.77466 10.5718 13.471 
52 1 5.66381 13.5084 7.69798 
53 1 4.67369 13.5049 8.70681 
54 1 3.80113 13.4712 9.56605 
58 1 0.91064 13.4734 12.432 
59 1 1.92012 13.4762 11.4239 
60 1 2.79001 13.4707 10.5633 
13 1 7.69425 6.66306 0.891474 
14 1 8.7014 6.66609 1.8994 
15 1 9.5635 6.67395 2.76747 
19 1 12.4473 6.67597 5.63964 
20 1 11.4366 6.67678 4.63312 
21 1 10.5673 6.67166 3.77231 
61 1 12.458 5.65797 6.67295 
62 1 11.4505 4.64984 6.6779 
63 1 10.5875 3.78193 6.68394 
67 1 7.70293 0.936967 6.55824 
68 1 8.72054 1.91589 6.59152 
69 1 9.58575 2.78125 6.64933 
4 1 13.4806 5.65169 7.7016 
5 1 13.4729 4.64129 8.70584 
6 1 13.4728 3.77644 9.57156 
10 1 13.4805 0.893699 12.4406 
11 1 13.4742 1.90558 11.4374 
12 1 13.4711 2.76936 10.5708 
64 1 7.69228 5.65614 13.4448 
65 1 8.7008 4.64488 13.4587 
66 1 9.56533 3.78008 13.4726 
70 1 12.4484 0.906933 13.4606 
71 1 11.4386 1.91302 13.4655 
72 1 10.5695 2.77401 13.4747 
16 1 7.68142 13.461 5.60352 
17 1 8.6993 13.4406 4.59857 
18 1 9.5838 13.4585 3.75441 
22 1 12.4635 13.4754 0.87994 
23 1 11.4569 13.474 1.88917 
24 1 10.5942 13.4704 2.75644 
40 1 13.4741 7.6991 5.64737 
41 1 13.4732 8.70907 4.63959 
42 1 13.4704 9.57303 3.77363 
46 1 13.4845 12.4448 0.888164 
47 1 13.4749 11.4395 1.89913 
48 1 13.4732 10.5766 2.76629 
ITEM: TIMESTEP
80
ITEM: NUMBER OF ATOMS
73
ITEM: BOX BOUNDS pp pp pp
0.0000000000000000e+00 1.3600000000000000e+01
0.0000000000000000e+00 1.3600000000000000e+01
0.0000000000000000e+00 1.3600000000000000e+01
ITEM: ATOMS id type x y z 
1 1 6.64641 1.02195 7.5976 
2 1 6.71062 1.93339 8.65576 
3 1 6.59097 2.48255 9.88854 
7 1 6.70219 5.67374 12.3936 
8 1 6.72314 4.69744 11.334 
9 1 6.73459 3.8217 10.4906 
49 1 5.66622 6.67764 12.4387 
50 1 4.6464 6.6802 11.4392 
51 1 3.77655 6.67579 10.5792 
55 1 0.905241 6.67838 7.69732 
56 1 1.90931 6.67311 8.70883 
57 1 2.77257 6.67136 9.57574 
73 2 6.2472 1.6134 10.5401 
25 1 0.900606 7.70331 6.67125 
26 1 1.9102 8.70986 6.66943 
27 1 2.77753 9.57239 6.6701 
31 1 5.65388 12.4649 6.70911 
32 1 4.63821 11.4521 6.70524 
33 1 3.78246 10.5794 6.68002 
37 1 6.65385 12.4371 5.6552 
38 1 6.64477 11.4264 4.65554 
39 1 6.66266 10.5702 3.78119 
43 1 6.67362 7.69153 0.902173 
44 1 6.67698 8.70338 1.90981 
45 1 6.67644 9.57178 2.77139 
28 1 5.64763 7.69365 13.4788 
29 1 4.64251 8.70189 13.4808 
30 1 3.77702 9.56689 13.479 
34 1 0.905934 12.4497 13.4583 
35 1 1.91251 11.4402 13.4633 
36 1 2.7746 10.572 13.4712 
52 1 5.65981 13.5096 7.69537 
53 1 4.67271 13.5047 8.70512 
54 1 3.80214 13.4738 9.56674 
58 1 0.911574 13.4732 12.4309 
59 1 1.92092 13.4758 11.4237 
60 1 2.79122 13.4701 10.5633 
13 1 7.69435 6.66305 0.890921 
14 1 8.70125 6.66555 1.8991 
15 1 9.56324 6.6729 2.76735 
19 1 12.4476 6.67686 5.63994 
20 1 11.4369 6.6763 4.63375 
21 1 10.568 6.67244 3.77237 
61 1 12.4565 5.65764 6.67231 
62 1 11.4504 4.649 6.67797 
63 1 10.5872 3.7814 6.6834 
67 1 7.70117 0.940514 6.55777 
68 1 8.71889 1.91662 6.59028 
69 1 9.5857 2.7805 6.64761 
4 1 13.4801 5.65237 7.70068 
5 1 13.4736 4.64199 8.70557 
6 1 13.4726 3.77664 9.57057 
10 1 13.4809 0.893472 12.4402 
11 1 13.4731 1.90613 11.4374 
12 1 13.4721 2.76965 10.5707 
64 1 7.69277 5.65588 13.4434 
65 1 8.70135 4.64439 13.458 
66 1 9.56564 3.77922 13.4722 
70 1 12.4497 0.906108 13.4603 
71 1 11.4392 1.91244 13.4658 
72 1 10.5704 2.77375 13.4743 
16 1 7.68183 13.4628 5.60451 
17 1 8.69914 13.4417 4.59884 
18 1 9.58239 13.4575 3.75331 
22 1 12.4634 13.4753 0.880269 
23 1 11.4569 13.4737 1.88958 
24 1 10.5944 13.4699 2.757 
40 1 13.4742 7.70042 5.64662 
41 1 13.4735 8.70939 4.63871 
42 1 13.4705 9.57368 3.77291 
46 1 13.4845 12.4446 0.887614 
47 1 13.4749 11.4401 1.89952 
48 1 13.4734 10.5765 2.76605 
ITEM: TIMESTEP
83
ITEM: NUMBER OF ATOMS
73
ITEM: BOX BOUNDS pp pp pp
0.0000000000000000e+00 1.3600000000000000e+01
0.0000000000000000e+00 1.3600000000000000e+01
0.0000000000000000e+00 1.3600000000000000e+01
ITEM: ATOMS id type x y z 
1 1 6.64666 1.02146 7.5987 
2 1 6.71129 1.93148 8.65832 
3 1 6.58875 2.48136 9.89028 
7 1 6.70314 5.67439 12.3924 
8 1 6.72384 4.69732 11.3333 
9 1 6.73412 3.81951 10.491 
49 1 5.66683 6.67756 12.4384 
50 1 4.64656 6.68025 11.4389 
51 1 3.77657 6.67586 10.5791 
55 1 0.905164 6.67866 7.69711 
56 1 1.90913 6.67329 8.70858 
57 1 2.77236 6.67144 9.57555 
73 2 6.24574 1.61374 10.544 
25 1 0.900725 7.70334 6.67102 
26 1 1.91034 8.70994 6.66933 
27 1 2.7776 9.57251 6.67003 
31 1 5.65385 12.4653 6.70854 
32 1 4.63845 11.4522 6.70537 
33 1 3.78254 10.5797 6.68093 
37 1 6.65414 12.4379 5.65528 
38 1 6.64494 11.4265 4.65558 
39 1 6.66238 10.5699 3.78158 
43 1 6.67377 7.69135 0.901994 
44 1 6.67688 8.70353 1.91003 
45 1 6.67634 9.5718 2.77174 
28 1 5.64798 7.69345 13.4787 
29 1 4.64268 8.70164 13.4807 
30 1 3.77716 9.56659 13.479 
34 1 0.906013 12.4498 13.4582 
35 1 1.91268 11.4402 13.4632 
36 1 2.77468 10.572 13.4713 
52 1 5.65913 13.5105 7.6942 
53 1 4.67201 13.505 8.70428 
54 1 3.80262 13.4746 9.56709 
58 1 0.911713 13.4731 12.4306 
59 1 1.92129 13.4756 11.4236 
60 1 2.79174 13.4699 10.5632 
13 1 7.69436 6.66297 0.890635 
14 1 8.70126 6.66531 1.89901 
15 1 9.56317 6.67249 2.76732 
19 1 12.4477 6.67714 5.64009 
20 1 11.4368 6.6762 4.63385 
21 1 10.5682 6.67268 3.77231 
61 1 12.4562 5.65768 6.6723 
62 1 11.45 4.64898 6.67712 
63 1 10.5871 3.78085 6.68362 
67 1 7.69993 0.941536 6.55772 
68 1 8.71851 1.91716 6.58981 
69 1 9.58588 2.78052 6.64689 
4 1 13.4798 5.65254 7.70033 
5 1 13.4739 4.64222 8.70547 
6 1 13.4725 3.77666 9.57026 
10 1 13.481 0.893407 12.44 
11 1 13.473 1.90636 11.4375 
12 1 13.4723 2.76978 10.5706 
64 1 7.69298 5.65603 13.443 
65 1 8.70153 4.64423 13.4577 
66 1 9.56573 3.77892 13.472 
70 1 12.4501 0.905887 13.4603 
71 1 11.4395 1.91215 13.4659 
72 1 10.5709 2.77352 13.4742 
16 1 7.68197 13.4636 5.6047 
17 1 8.69903 13.4421 4.59896 
18 1 9.5818 13.4571 3.75296 
22 1 12.4634 13.4753 0.88034 
23 1 11.457 13.4736 1.88973 
24 1 10.5944 13.4697 2.7572 
40 1 13.4742 7.70065 5.64642 
41 1 13.4735 8.70957 4.63845 
42 1 13.4706 9.57385 3.77266 
46 1 13.4843 12.4444 0.887297 
47 1 13.4753 11.4408 1.8998 
48 1 13.4733 10.5764 2.76567 
ITEM: TIMESTEP
84
ITEM: NUMBER OF ATOMS
73
ITEM: BOX BOUNDS pp pp pp
0.0000000000000000e+00 1.3600000000000000e+01
0.0000000000000000e+00 1.3600000000000000e+01
0.0000000000000000e+00 1.3600000000000000e+01
ITEM: ATOMS id type x y z 
1 1 6.64666 1.02146 7.5987 
2 1 6.71129 1.93148 8.65832 
3 1 6.58875 2.48136 9.89028 
7 1 6.70314 5.67439 12.3924 
8 1 6.72384 4.69732 11.3333 
9 1 6.73412 3.81951 10.491 
49 1 5.66683 6.67756 12.4384 
50 1 4.64656 6.68025 11.4389 
51 1 3.77657 6.67586 10.5791 
55 1 0.905164 6.67866 7.69711 
56 1 1.90913 6.67329 8.70858 
57 1 2.77236 6.67144 9.57555 
73 2 6.24574 1.61374 10.544 
25 1 0.900725 7.70334 6.67102 
26 1 1.91034 8.70994 6.66933 
27 1 2.7776 9.57251 6.67003 
31 1 5.65385 12.4653 6.70854 
32 1 4.63845 11.4522 6.70537 
33 1 3.78254 10.5797 6.68093 
37 1 6.65414 12.4379 5.65528 
38 1 6.64494 11.4265 4.65558 
39 1 6.66238 10.5699 3.78158 
43 1 6.67377 7.69135 0.901994 
44 1 6.67688 8.70353 1.91003 
45 1 6.67634 9.5718 2.77174 
28 1 5.64798 7.69345 13.4787 
29 1 4.64268 8.70164 13.4807 
30 1 3.77716 9.56659 13.479 
34 1 0.906013 12.4498 13.4582 
35 1 1.91268 11.4402 13.4632 
36 1 2.77468 10.572 13.4713 
52 1 5.65913 13.5105 7.6942 
53 1 4.67201 13.505 8.70428 
54 1 3.80262 13.4746 9.56709 
58 1 0.911713 13.4731 12.4306 
59 1 1.92129 13.4756 11.4236 
60 1 2.79174 13.4699 10.5632 
13 1 7.69436 6.66297 0.890635 
14 1 8.70126 6.66531 1.89901 
15 1 9.56317 6.67249 2.76732 
19 1 12.4477 6.67714 5.64009 
20 1 11.4368 6.6762 4.63385 
21 1 10.5682 6.67268 3.77231 
61 1 12.4562 5.65768 6.6723 
62 1 11.45 4.64898 6.67712 
63 1 10.5871 3.78085 6.68362 
67 1 7.69993 0.941536 6.55772 
68 1 8.71851 1.91716 6.58981 
69 1 9.58588 2.78052 6.64689 
4 1 13.4798 5.65254 7.70033 
5 1 13.4739 4.64222 8.70547 
6 1 13.4725 3.77666 9.57026 
10 1 13.481 0.893407 12.44 
11 1 13.473 1.90636 11.4375 
12 1 13.4723 2.76978 10.5706 
64 1 7.69298 5.65603 13.443 
65 1 8.70153 4.64423 13.4577 
66 1 9.56573 3.77892 13.472 
70 1 12.4501 0.905887 13.4603 
71 1 11.4395 1.91215 13.4659 
72 1 10.5709 2.77352 13.4742 
16 1 7.68197 13.4636 5.6047 
17 1 8.69903 13.4421 4.59896 
18 1 9.5818 13.4571 3.75296 
22 1 12.4634 13.4753 0.88034 
23 1 11.457 13.4736 1.88973 
24 1 10.5944 13.4697 2.7572 
40 1 13.4742 7.70065 5.64642 
41 1 13.4735 8.70957 4.63845 
42 1 13.4706 9.57385 3.77266 
46 1 13.4843 12.4444 0.887297 
47 1 13.4753 11.4408 1.8998 
48 1 13.4733 10.5764 2.76567 
ITEM: TIMESTEP
90
ITEM: NUMBER OF ATOMS
73
ITEM: BOX BOUNDS pp pp pp
-3.9078452027582816e-03 1.3603907845202754e+01
-1.9140966684783765e-03 1.3601914096668478e+01
-2.9846327521154941e-03 1.3602984632752117e+01
ITEM: ATOMS id type x y z 
1 1 6.64661 1.01985 7.59908 
2 1 6.71124 1.93004 8.65919 
3 1 6.58857 2.48008 9.8917 
7 1 6.70311 5.67412 12.3948 
8 1 6.72382 4.69669 11.3352 
9 1 6.73407 3.81876 10.4927 
49 1 5.66624 6.67753 12.4409 
50 1 4.64531 6.68021 11.4409 
51 1 3.7749 6.67583 10.5809 
55 1 0.901704 6.67863 7.69744 
56 1 1.90635 6.67326 8.70944 
57 1 2.76997 6.67141 9.5767 
73 2 6.24538 1.6123 10.5457 
25 1 0.897278 7.70354 6.67096 
26 1 1.90754 8.7105 6.66927 
27 1 2.77523 9.57323 6.66998 
31 1 5.65325 12.4669 6.70842 
32 1 4.63716 11.4534 6.70532 
33 1 3.78087 10.5809 6.6809 
37 1 6.65407 12.4396 5.65479 
38 1 6.64485 11.4279 4.65465 
39 1 6.66229 10.5711 3.78034 
43 1 6.6737 7.69157 0.899362 
44 1 6.67681 8.70408 1.9079 
45 1 6.67627 9.57251 2.76992 
28 1 5.64738 7.69364 13.4817 
29 1 4.64143 8.70218 13.4836 
30 1 3.77548 9.56731 13.4819 
34 1 0.902566 12.4515 13.4611 
35 1 1.90989 11.4415 13.4662 
36 1 2.7723 10.5731 13.4742 
52 1 5.65841 13.5124 7.69455 
53 1 4.67071 13.5069 8.70516 
54 1 3.80098 13.4765 9.56823 
58 1 0.908271 13.475 12.4331 
59 1 1.91852 13.4775 11.4256 
60 1 2.78938 13.4718 10.565 
13 1 7.69483 6.66293 0.887984 
14 1 8.70237 6.66527 1.89688 
15 1 9.5647 6.67245 2.76549 
19 1 12.451 6.67711 5.63964 
20 1 11.4395 6.67617 4.6329 
21 1 10.5705 6.67264 3.77104 
61 1 12.4595 5.65744 6.67224 
62 1 11.4527 4.64831 6.67704 
63 1 10.5894 3.78009 6.68357 
67 1 7.70045 0.939886 6.55756 
68 1 8.71965 1.91585 6.5897 
69 1 9.5874 2.77931 6.6468 
4 1 13.4836 5.65228 7.70066 
5 1 13.4778 4.64161 8.70631 
6 1 13.4764 3.77587 9.57141 
10 1 13.4848 0.891712 12.4425 
11 1 13.4767 1.90494 11.4394 
12 1 13.4762 2.76863 10.5723 
64 1 7.69346 5.65576 13.4459 
65 1 8.70265 4.6436 13.4606 
66 1 9.56726 3.77812 13.4749 
70 1 12.4534 0.904155 13.4632 
71 1 11.4421 1.91078 13.4688 
72 1 10.5731 2.77234 13.4771 
16 1 7.68241 13.4654 5.6042 
17 1 8.70017 13.444 4.59795 
18 1 9.58332 13.459 3.75167 
22 1 12.4667 13.4772 0.877688 
23 1 11.4596 13.4755 1.88761 
24 1 10.5967 13.4716 2.75536 
40 1 13.478 7.70084 5.64597 
41 1 13.4773 8.71012 4.63748 
42 1 13.4744 9.57458 3.77138 
46 1 13.4882 12.4461 0.884632 
47 1 13.4791 11.4421 1.89765 
48 1 13.4771 10.5775 2.76384 
ITEM: TIMESTEP
100
ITEM: NUMBER OF ATOMS
73
ITEM: BOX BOUNDS pp pp pp
-7.0792770690869681e-03 1.3607079277069078e+01
-6.9209736210408719e-04 1.3600692097362108e+01
-3.6244276117228065e-03 1.3603624427611724e+01
ITEM: ATOMS id type x y z 
1 1 6.64699 1.02085 7.59937 
2 1 6.71117 1.93026 8.66004 
3 1 6.58789 2.48018 9.89253 
7 1 6.70331 5.67499 12.3956 
8 1 6.72397 4.69737 11.3359 
9 1 6.73391 3.81942 10.4938 
49 1 5.66637 6.67761 12.4419 
50 1 4.64428 6.68024 11.4412 
51 1 3.77408 6.67587 10.5818 
55 1 0.898163 6.67867 7.69676 
56 1 1.90416 6.67333 8.7097 
57 1 2.76748 6.67146 9.57635 
73 2 6.24469 1.61343 10.5471 
25 1 0.89387 7.7027 6.67088 
26 1 1.90526 8.71014 6.66922 
27 1 2.77288 9.57227 6.66997 
31 1 5.65336 12.466 6.70761 
32 1 4.63601 11.4525 6.70525 
33 1 3.7798 10.5806 6.68117 
37 1 6.65419 12.4391 5.65493 
38 1 6.64485 11.4273 4.65465 
39 1 6.66215 10.5708 3.78066 
43 1 6.67367 7.69082 0.898196 
44 1 6.67672 8.70354 1.90727 
45 1 6.67617 9.57156 2.7692 
28 1 5.64757 7.69275 13.4822 
29 1 4.64049 8.70177 13.4842 
30 1 3.77454 9.56629 13.4826 
34 1 0.899144 12.4512 13.4617 
35 1 1.90763 11.4407 13.4668 
36 1 2.76997 10.5729 13.4749 
52 1 5.65734 13.5109 7.69405 
53 1 4.66922 13.5057 8.7055 
54 1 3.80003 13.4756 9.56819 
58 1 0.904888 13.4737 12.4343 
59 1 1.91637 13.4762 11.426 
60 1 2.78696 13.4706 10.566 
13 1 7.6947 6.66293 0.88675 
14 1 8.70337 6.66523 1.89649 
15 1 9.56544 6.67235 2.76456 
19 1 12.4543 6.67718 5.6402 
20 1 11.4415 6.67622 4.63268 
21 1 10.5729 6.67271 3.77132 