ITEM: TIMESTEP
0
ITEM: NUMBER OF ATOMS
129
ITEM: BOX BOUNDS pp pp pp
0.0000000000000000e+00 1.8762000000000000e+01
0.0000000000000000e+00 1.8762000000000000e+01
0.0000000000000000e+00 1.8760999999999999e+01
ITEM: ATOMS id type x y z 
1 1 3.12 3.119 3.121 
10 1 5.595 5.596 5.595 
17 1 4.011 4.011 4.012 
26 1 4.704 4.704 4.704 
33 1 0.414 3.456 3.456 
41 1 3.456 0.413 3.456 
49 1 3.456 3.456 0.414 
58 1 8.301 5.259 5.259 
66 1 5.259 8.301 5.259 
74 1 5.259 5.259 8.301 
81 1 1.612 3.354 3.354 
89 1 3.353 1.612 3.354 
97 1 3.354 3.354 1.613 
106 1 7.103 5.361 5.361 
114 1 5.362 7.103 5.361 
122 1 5.361 5.361 7.103 
4 1 3.12 3.12 14.976 
11 1 5.595 5.595 12.5 
20 1 4.011 4.011 14.084 
27 1 4.704 4.704 13.392 
36 1 0.414 3.456 14.639 
46 1 3.456 0.414 14.639 
56 1 3.456 3.456 17.682 
59 1 8.301 5.259 12.837 
69 1 5.259 8.301 12.837 
79 1 5.259 5.259 9.794 
84 1 1.612 3.354 14.742 
94 1 3.354 1.612 14.742 
104 1 3.354 3.354 16.483 
107 1 7.103 5.361 12.735 
117 1 5.361 7.103 12.735 
127 1 5.361 5.361 10.993 
6 1 3.12 14.976 3.12 
13 1 5.595 12.501 5.596 
22 1 4.011 14.085 4.011 
29 1 4.704 13.392 4.705 
38 1 0.414 14.64 3.457 
48 1 3.456 17.682 3.456 
52 1 3.456 14.64 0.414 
61 1 8.301 12.837 5.259 
71 1 5.259 9.794 5.259 
75 1 5.259 12.837 8.301 
86 1 1.612 14.742 3.354 
96 1 3.354 16.483 3.354 
100 1 3.354 14.742 1.612 
109 1 7.103 12.735 5.361 
119 1 5.361 10.993 5.361 
123 1 5.361 12.735 7.103 
7 1 3.12 14.976 14.976 
16 1 5.595 12.501 12.5 
23 1 4.011 14.085 14.084 
32 1 4.704 13.392 13.391 
39 1 0.414 14.64 14.639 
43 1 3.456 17.682 14.639 
53 1 3.456 14.64 17.682 
64 1 8.302 12.837 12.837 
68 1 5.259 9.795 12.837 
78 1 5.259 12.837 9.794 
87 1 1.612 14.742 14.741 
91 1 3.354 16.483 14.741 
101 1 3.353 14.742 16.483 
112 1 7.103 12.735 12.735 
116 1 5.361 10.993 12.735 
126 1 5.361 12.735 10.993 
8 1 14.976 3.12 3.12 
15 1 12.501 5.595 5.595 
24 1 14.084 4.011 4.011 
31 1 13.392 4.704 4.704 
40 1 17.682 3.456 3.456 
44 1 14.64 0.414 3.457 
54 1 14.64 3.456 0.414 
63 1 9.795 5.259 5.259 
67 1 12.837 8.301 5.259 
77 1 12.837 5.259 8.301 
88 1 16.483 3.354 3.354 
92 1 14.742 1.612 3.354 
102 1 14.742 3.354 1.612 
111 1 10.993 5.361 5.361 
115 1 12.735 7.103 5.361 
125 1 12.735 5.361 7.103 
5 1 14.976 3.119 14.975 
14 1 12.501 5.596 12.501 
21 1 14.085 4.011 14.084 
30 1 13.392 4.703 13.392 
37 1 17.682 3.456 14.639 
47 1 14.64 0.413 14.639 
51 1 14.64 3.456 17.682 
62 1 9.794 5.259 12.837 
72 1 12.837 8.301 12.837 
76 1 12.837 5.259 9.795 
85 1 16.483 3.354 14.741 
95 1 14.742 1.612 14.741 
99 1 14.742 3.354 16.483 
110 1 10.993 5.361 12.735 
120 1 12.734 7.103 12.735 
124 1 12.735 5.361 10.993 
129 2 12.024 5.761 13.761 
3 1 14.976 14.976 3.12 
12 1 12.501 12.501 5.595 
19 1 14.085 14.085 4.011 
28 1 13.392 13.392 4.704 
35 1 17.682 14.64 3.457 
45 1 14.64 17.682 3.457 
55 1 14.64 14.64 0.414 
60 1 9.794 12.837 5.259 
70 1 12.837 9.794 5.259 
80 1 12.837 12.837 8.301 
83 1 16.484 14.742 3.354 
93 1 14.742 16.483 3.354 
103 1 14.742 14.742 1.613 
108 1 10.993 12.735 5.361 
118 1 12.734 10.993 5.361 
128 1 12.734 12.734 7.103 
2 1 14.976 14.976 14.975 
9 1 12.501 12.501 12.501 
18 1 14.084 14.085 14.084 
25 1 13.391 13.393 13.392 
34 1 17.682 14.64 14.639 
42 1 14.64 17.682 14.639 
50 1 14.64 14.64 17.682 
57 1 9.795 12.837 12.837 
65 1 12.837 9.794 12.837 
73 1 12.837 12.837 9.794 
82 1 16.483 14.742 14.741 
90 1 14.742 16.483 14.741 
98 1 14.742 14.742 16.483 
105 1 10.993 12.734 12.734 
113 1 12.735 10.993 12.735 
121 1 12.735 12.734 10.993 
ITEM: TIMESTEP
10
ITEM: NUMBER OF ATOMS
129
ITEM: BOX BOUNDS pp pp pp
0.0000000000000000e+00 1.8762000000000000e+01
0.0000000000000000e+00 1.8762000000000000e+01
0.0000000000000000e+00 1.8760999999999999e+01
ITEM: ATOMS id type x y z 
1 1 3.11261 3.11147 3.11289 
10 1 5.60281 5.6032 5.60187 
17 1 4.01286 4.01242 4.01317 
26 1 4.70195 4.70231 4.70248 
33 1 0.417947 3.45488 3.45479 
41 1 3.4546 0.417992 3.45486 
49 1 3.45472 3.45481 0.41947 
58 1 8.29652 5.25999 5.26011 
66 1 5.2602 8.29709 5.25994 
74 1 5.26008 5.2599 8.29602 
81 1 1.60688 3.35553 3.35594 
89 1 3.35485 1.6067 3.35589 
97 1 3.35586 3.3558 1.60764 
106 1 7.10724 5.35922 5.35911 
114 1 5.35994 7.10716 5.3591 
122 1 5.35911 5.35907 7.10708 
4 1 3.11245 3.11218 14.9837 
11 1 5.60806 5.60273 12.4936 
20 1 4.01364 4.01372 14.082 
27 1 4.70025 4.70059 13.3947 
36 1 0.419595 3.45514 14.6401 
46 1 3.45493 0.417637 14.6403 
56 1 3.45486 3.45488 17.6776 
59 1 8.3105 5.25208 12.8362 
69 1 5.25999 8.29524 12.8357 
79 1 5.25989 5.26026 9.80059 
84 1 1.6093 3.35544 14.7403 
94 1 3.35558 1.60732 14.74 
104 1 3.35572 3.35584 16.488 
107 1 7.0978 5.36018 12.7355 
117 1 5.359 7.10736 12.7361 
127 1 5.35872 5.35979 10.988 
6 1 3.11182 14.9837 3.11232 
13 1 5.60329 12.4934 5.60304 
22 1 4.01282 14.083 4.01345 
29 1 4.70231 13.3939 4.7026 
38 1 0.418087 14.6411 3.4558 
48 1 3.45489 17.6776 3.45483 
52 1 3.45499 14.6411 0.41805 
61 1 8.29638 12.8359 5.26001 
71 1 5.26007 9.79902 5.26007 
75 1 5.26006 12.8359 8.29701 
86 1 1.60768 14.7404 3.35575 
96 1 3.35573 16.4881 3.35571 
100 1 3.35563 14.7403 1.608 
109 1 7.10624 12.7366 5.35967 
119 1 5.35928 10.9885 5.35929 
123 1 5.35948 12.7368 7.10747 
7 1 3.1143 14.9841 14.9838 
16 1 5.60218 12.4942 12.4923 
23 1 4.01298 14.0832 14.0826 
32 1 4.7024 13.3937 13.3926 
39 1 0.416586 14.641 14.64 
43 1 3.45478 17.6777 14.6401 
53 1 3.45468 14.641 17.6772 
64 1 8.29579 12.8358 12.836 
68 1 5.26013 9.79951 12.836 
78 1 5.26007 12.8359 9.79843 
87 1 1.60617 14.7399 14.739 
91 1 3.35595 16.4882 14.7393 
101 1 3.3551 14.7404 16.4875 
112 1 7.10796 12.7369 12.7369 
116 1 5.35918 10.9886 12.7365 
126 1 5.35909 12.7366 10.9886 
8 1 14.9833 3.11187 3.11254 
15 1 12.4928 5.60272 5.60087 
24 1 14.0817 4.01387 4.01399 
31 1 13.3943 4.7011 4.70058 
40 1 17.6777 3.45483 3.45481 
44 1 14.6411 0.417987 3.45575 
54 1 14.6409 3.45513 0.420133 
63 1 9.8012 5.26027 5.26014 
67 1 12.8358 8.29503 5.26005 
77 1 12.8372 5.25896 8.30398 
88 1 16.4889 3.35591 3.35586 
92 1 14.7402 1.60742 3.35574 
102 1 14.7404 3.35544 1.60967 
111 1 10.9878 5.35952 5.35874 
115 1 12.7365 7.10794 5.35859 
125 1 12.7362 5.35972 7.09671 
5 1 14.9776 3.11976 14.9765 
14 1 12.5725 5.57288 12.3062 
21 1 14.1334 3.96204 14.1109 
30 1 13.4304 4.66018 13.4185 
37 1 17.6781 3.45501 14.6398 
47 1 14.6409 0.417372 14.6399 
51 1 14.6409 3.45506 17.6772 
62 1 9.70138 5.2681 12.8102 
72 1 12.8321 8.41848 12.8312 
76 1 12.8388 5.25545 9.75665 
85 1 16.4904 3.35655 14.7381 
95 1 14.7397 1.60608 14.7384 
99 1 14.7388 3.35703 16.4906 
110 1 10.8922 5.30937 12.731 
120 1 12.7729 7.1135 12.7347 
124 1 12.7417 5.35605 10.9804 
129 2 11.9987 5.79723 13.9917 
3 1 14.9818 14.984 3.11212 
12 1 12.4932 12.493 5.60206 
19 1 14.083 14.0832 4.01287 
28 1 13.3936 13.3935 4.70242 
35 1 17.6791 14.641 3.45583 
45 1 14.6411 17.6779 3.45575 
55 1 14.6411 14.6411 0.418761 
60 1 9.79946 12.8359 5.26025 
70 1 12.8358 9.79996 5.26012 
80 1 12.836 12.836 8.29524 
83 1 16.49 14.74 3.35618 
93 1 14.7401 16.4881 3.35588 
103 1 14.7401 14.7403 1.60815 
108 1 10.9878 12.7372 5.35932 
118 1 12.7363 10.9887 5.35955 
128 1 12.7356 12.7356 7.10516 
2 1 14.9837 14.9833 14.9834 
9 1 12.4931 12.4891 12.4934 
18 1 14.0817 14.0834 14.082 
25 1 13.395 13.3966 13.3955 
34 1 17.6772 14.6412 14.6402 
42 1 14.6408 17.6776 14.6398 
50 1 14.641 14.6411 17.6782 
57 1 9.80153 12.836 12.8356 
65 1 12.8435 9.78727 12.8393 
73 1 12.8358 12.836 9.80129 
82 1 16.489 14.7401 14.7388 
90 1 14.7404 16.4837 14.7396 
98 1 14.74 14.7404 16.4862 
105 1 10.9879 12.7365 12.7352 
113 1 12.7349 11.0104 12.7348 
121 1 12.736 12.7369 10.9883 
ITEM: TIMESTEP
20
ITEM: NUMBER OF ATOMS
129
ITEM: BOX BOUNDS pp pp pp
0.0000000000000000e+00 1.8762000000000000e+01
0.0000000000000000e+00 1.8762000000000000e+01
0.0000000000000000e+00 1.8760999999999999e+01
ITEM: ATOMS id type x y z 
1 1 3.10726 3.10684 3.10787 
10 1 5.60676 5.60797 5.60646 
17 1 4.01274 4.01278 4.01349 
26 1 4.70178 4.70179 4.70165 
33 1 0.416652 3.45417 3.45419 
41 1 3.45384 0.416112 3.4543 
49 1 3.45415 3.45419 0.417462 
58 1 8.29781 5.26039 5.26086 
66 1 5.26093 8.29867 5.26055 
74 1 5.26067 5.2602 8.2954 
81 1 1.60688 3.35488 3.35536 
89 1 3.35447 1.60639 3.35525 
97 1 3.35532 3.35509 1.60762 
106 1 7.10835 5.35957 5.35952 
114 1 5.36017 7.10839 5.35949 
122 1 5.3598 5.35958 7.10654 
4 1 3.10802 3.10616 14.9893 
11 1 5.59584 5.60638 12.4897 
20 1 4.01096 4.01133 14.0841 
27 1 4.69743 4.69936 13.3961 
36 1 0.422019 3.45493 14.6404 
46 1 3.45419 0.415706 14.6409 
56 1 3.45416 3.4544 17.6798 
59 1 8.26753 5.24696 12.8399 
69 1 5.2593 8.29991 12.835 
79 1 5.2592 5.26104 9.79612 
84 1 1.61161 3.35465 14.741 
94 1 3.35514 1.60597 14.7404 
104 1 3.35529 3.3554 16.4894 
107 1 7.06656 5.35961 12.7343 
117 1 5.35682 7.11195 12.7355 
127 1 5.35662 5.36049 10.984 
6 1 3.10745 14.9885 3.10736 
13 1 5.60725 12.4887 5.60751 
22 1 4.01345 14.0825 4.01373 
29 1 4.70165 13.3943 4.70224 
38 1 0.417377 14.6417 3.45507 
48 1 3.45424 17.679 3.45417 
52 1 3.45425 14.6418 0.416545 
61 1 8.29716 12.8352 5.26078 
71 1 5.26075 9.79771 5.26072 
75 1 5.26078 12.8353 8.29822 
86 1 1.60694 14.741 3.35541 
96 1 3.35519 16.489 3.35523 
100 1 3.35514 14.7408 1.60684 
109 1 7.10807 12.7361 5.36009 
119 1 5.35987 10.9877 5.35987 
123 1 5.36005 12.7362 7.10823 
7 1 3.10839 14.9885 14.9876 
16 1 5.60646 12.4892 12.4874 
23 1 4.01323 14.0832 14.0825 
32 1 4.70158 13.3947 13.3936 
39 1 0.416147 14.6417 14.6407 
43 1 3.45413 17.6788 14.6409 
53 1 3.45389 14.6417 17.6788 
64 1 8.29616 12.8353 12.8358 
68 1 5.26072 9.79994 12.8357 
78 1 5.26062 12.8352 9.79703 
87 1 1.6066 14.7406 14.7397 
91 1 3.35554 16.4892 14.7402 
101 1 3.35497 14.7412 16.489 
112 1 7.10623 12.7363 12.7363 
116 1 5.35981 10.9896 12.7359 
126 1 5.35953 12.7362 10.9875 
8 1 14.9889 3.10661 3.10891 
15 1 12.4885 5.6074 5.60166 
24 1 14.082 4.01323 4.01341 
31 1 13.3944 4.70137 4.69782 
40 1 17.6796 3.45438 3.45413 
44 1 14.6416 0.416174 3.45494 
54 1 14.6411 3.4549 0.422294 
63 1 9.79935 5.26134 5.26024 
67 1 12.8347 8.29627 5.26014 
77 1 12.839 5.25696 8.28724 
88 1 16.4895 3.35537 3.35541 
92 1 14.7407 1.60616 3.35545 
102 1 14.7411 3.35462 1.61243 
111 1 10.9867 5.36215 5.35652 
115 1 12.7338 7.10897 5.35638 
125 1 12.7354 5.36111 7.08057 
5 1 15.0113 3.08893 15.0088 
14 1 12.5716 5.60498 12.3418 
21 1 14.1362 3.96038 14.1043 
30 1 13.4447 4.64907 13.4114 
37 1 17.689 3.45617 14.6386 
47 1 14.6396 0.404497 14.6385 
51 1 14.6396 3.45633 17.6885 
62 1 9.71634 5.2686 12.7906 
72 1 12.8245 8.36465 12.8229 
76 1 12.8426 5.24524 9.7238 
85 1 16.4992 3.35741 14.7372 
95 1 14.7392 1.596 14.7379 
99 1 14.7376 3.35843 16.4987 
110 1 10.931 5.30784 12.7921 
120 1 12.8036 7.16762 12.7092 
124 1 12.7563 5.34956 10.927 
129 2 11.9327 5.77124 14.0395 
3 1 14.9879 14.9892 3.10858 
12 1 12.4881 12.4891 5.60564 
19 1 14.0822 14.0825 4.01363 
28 1 13.3948 13.3949 4.7005 
35 1 17.679 14.6417 3.45498 
45 1 14.6418 17.6782 3.45485 
55 1 14.6418 14.6418 0.416527 
60 1 9.79675 12.8355 5.26086 
70 1 12.8355 9.79797 5.26091 
80 1 12.8357 12.8354 8.29708 
83 1 16.49 14.7407 3.35572 
93 1 14.7406 16.4891 3.3552 
103 1 14.7404 14.741 1.60707 
108 1 10.9878 12.7366 5.35965 
118 1 12.7362 10.9881 5.35993 
128 1 12.7353 12.735 7.10435 
2 1 14.9886 14.9872 14.9894 
9 1 12.4891 12.5026 12.49 
18 1 14.0835 14.0849 14.084 
25 1 13.396 13.3992 13.3965 
34 1 17.68 14.6418 14.6404 
42 1 14.6411 17.6748 14.64 
50 1 14.6417 14.6419 17.6794 
57 1 9.79535 12.8365 12.8351 
65 1 12.85 9.82616 12.8447 
73 1 12.8353 12.8365 9.79474 
82 1 16.4904 14.7401 14.7393 
90 1 14.7407 16.4843 14.74 
98 1 14.7402 14.7404 16.4901 
105 1 10.9847 12.7384 12.7352 
113 1 12.7372 11.0206 12.735 
121 1 12.7359 12.739 10.984 
ITEM: TIMESTEP
30
ITEM: NUMBER OF ATOMS
129
ITEM: BOX BOUNDS pp pp pp
0.0000000000000000e+00 1.8762000000000000e+01
0.0000000000000000e+00 1.8762000000000000e+01
0.0000000000000000e+00 1.8760999999999999e+01
ITEM: ATOMS id type x y z 
1 1 3.10674 3.10638 3.10755 
10 1 5.60683 5.60809 5.6057 
17 1 4.01276 4.0126 4.013 
26 1 4.70117 4.70169 4.7013 
33 1 0.41721 3.45381 3.4539 
41 1 3.45345 0.416316 3.45391 
49 1 3.45393 3.4539 0.418415 
58 1 8.29638 5.26029 5.26106 
66 1 5.26124 8.29916 5.26086 
74 1 5.2605 5.26015 8.29364 
81 1 1.60755 3.35398 3.35446 
89 1 3.35371 1.60648 3.35442 
97 1 3.35432 3.3541 1.60876 
106 1 7.10579 5.36032 5.36053 
114 1 5.36068 7.10863 5.36014 
122 1 5.3609 5.36052 7.10309 
4 1 3.10764 3.10397 14.9914 
11 1 5.60159 5.60545 12.4905 
20 1 4.00891 4.00875 14.0871 
27 1 4.69393 4.69748 13.3979 
36 1 0.426033 3.45569 14.6397 
46 1 3.45399 0.414492 14.6408 
56 1 3.45398 3.45447 17.681 
59 1 8.2541 5.2418 12.834 
69 1 5.25877 8.30442 12.8355 
79 1 5.25872 5.26057 9.79181 
84 1 1.61711 3.35339 14.7422 
94 1 3.35468 1.60469 14.7409 
104 1 3.35481 3.35477 16.4907 
107 1 7.05017 5.36045 12.7335 
117 1 5.3558 7.11297 12.7355 
127 1 5.35553 5.36046 10.9821 
6 1 3.1072 14.9888 3.10718 
13 1 5.60794 12.4879 5.6084 
22 1 4.01305 14.0831 4.01323 
29 1 4.70158 13.3943 4.70193 
38 1 0.417096 14.6421 3.45462 
48 1 3.45379 17.6788 3.45386 
52 1 3.45379 14.6421 0.417193 
61 1 8.29746 12.8349 5.26121 
71 1 5.2612 9.79827 5.26107 
75 1 5.26121 12.835 8.29757 
86 1 1.6073 14.7419 3.35455 
96 1 3.35433 16.4886 3.35432 
100 1 3.35427 14.7416 1.60734 
109 1 7.10742 12.7351 5.36101 
119 1 5.3607 10.9881 5.36072 
123 1 5.36095 12.7354 7.1076 
7 1 3.10689 14.9894 14.989 
16 1 5.60641 12.49 12.4876 
23 1 4.0129 14.0836 14.0826 
32 1 4.70118 13.395 13.3937 
39 1 0.4182 14.642 14.6409 
43 1 3.45401 17.6781 14.6412 
53 1 3.45363 14.6422 17.6784 
64 1 8.29495 12.8355 12.8357 
68 1 5.26051 9.80235 12.8357 
78 1 5.26084 12.8349 9.79644 
87 1 1.60855 14.7417 14.7408 
91 1 3.35443 16.4875 14.7412 
101 1 3.35407 14.7421 16.488 
112 1 7.10427 12.7354 12.7355 
116 1 5.36078 10.9924 12.7351 
126 1 5.35998 12.7357 10.9867 
8 1 14.9904 3.105 3.1095 
15 1 12.4885 5.60701 5.59045 
24 1 14.085 4.01047 4.00966 
31 1 13.3956 4.69999 4.69498 
40 1 17.6807 3.45432 3.45386 
44 1 14.6417 0.414659 3.45456 
54 1 14.6404 3.45547 0.427154 
63 1 9.79376 5.26161 5.25893 
67 1 12.8344 8.30251 5.25884 
77 1 12.843 5.25177 8.25445 
88 1 16.4904 3.3547 3.35495 
92 1 14.7414 1.60514 3.35511 
102 1 14.7423 3.35343 1.61797 
111 1 10.9853 5.36277 5.35499 
115 1 12.7333 7.11089 5.35478 
125 1 12.7341 5.3633 7.05525 
5 1 15.0167 3.07856 15.0161 
14 1 12.5924 5.61389 12.3664 
21 1 14.1462 3.95471 14.109 
30 1 13.4633 4.63933 13.4067 
37 1 17.695 3.45848 14.6362 
47 1 14.6375 0.402441 14.6364 
51 1 14.6372 3.45863 17.6937 
62 1 9.70379 5.27126 12.7683 
72 1 12.8356 8.37 12.8209 
76 1 12.8496 5.23267 9.72289 
85 1 16.5038 3.35589 14.7393 
95 1 14.7411 1.59304 14.7397 
99 1 14.7393 3.35731 16.5025 
110 1 10.923 5.31545 12.8805 
120 1 12.835 7.18631 12.6498 
124 1 12.7588 5.35372 10.925 
129 2 11.8625 5.70378 14.0713 
3 1 14.9894 14.9892 3.1068 
12 1 12.4877 12.4893 5.60604 
19 1 14.0829 14.0834 4.01292 
28 1 13.3941 13.3946 4.70087 
35 1 17.6792 14.642 3.45455 
45 1 14.642 17.6786 3.45442 
55 1 14.642 14.6422 0.418858 
60 1 9.79652 12.8352 5.26122 
70 1 12.8355 9.79911 5.26121 
80 1 12.8354 12.8351 8.29378 
83 1 16.4892 14.7418 3.35494 
93 1 14.7418 16.4883 3.35447 
103 1 14.7415 14.742 1.60887 
108 1 10.987 12.7359 5.36022 
118 1 12.7354 10.9897 5.36076 
128 1 12.7346 12.7343 7.10324 
2 1 14.9919 14.9879 14.9913 
9 1 12.4869 12.5075 12.4862 
18 1 14.0865 14.0872 14.0876 
25 1 13.3976 13.4027 13.3979 
34 1 17.6811 14.6418 14.6403 
42 1 14.6401 17.6688 14.6391 
50 1 14.6415 14.6418 17.681 
57 1 9.79043 12.8364 12.8358 
65 1 12.8527 9.85793 12.8527 
73 1 12.836 12.8365 9.79053 
82 1 16.49 14.7408 14.7402 
90 1 14.742 16.4775 14.7414 
98 1 14.7411 14.741 16.4898 
105 1 10.982 12.74 12.7354 
113 1 12.7363 11.0514 12.7338 
121 1 12.736 12.7407 10.9818 
ITEM: TIMESTEP
40
ITEM: NUMBER OF ATOMS
129
ITEM: BOX BOUNDS pp pp pp
0.0000000000000000e+00 1.8762000000000000e+01
0.0000000000000000e+00 1.8762000000000000e+01
0.0000000000000000e+00 1.8760999999999999e+01
ITEM: ATOMS id type x y z 
1 1 3.10697 3.1064 3.10779 
10 1 5.60649 5.60821 5.60427 
17 1 4.01212 4.01234 4.01285 
26 1 4.70115 4.70146 4.70072 
33 1 0.417701 3.45365 3.45374 
41 1 3.45317 0.415753 3.45363 
49 1 3.45381 3.45377 0.418862 
58 1 8.29509 5.26034 5.26096 
66 1 5.2614 8.29986 5.26111 
74 1 5.26045 5.26008 8.29182 
81 1 1.60766 3.35348 3.354 
89 1 3.35336 1.60555 3.35405 
97 1 3.35382 3.35358 1.60893 
106 1 7.10479 5.36063 5.36102 
114 1 5.36085 7.10969 5.36031 
122 1 5.36122 5.36084 7.10244 
4 1 3.10919 3.10232 14.9932 
11 1 5.58535 5.60684 12.4882 
20 1 4.00921 4.00924 14.0863 
27 1 4.69268 4.69658 13.3988 
36 1 0.427716 3.45642 14.6389 
46 1 3.45397 0.412673 14.6407 
56 1 3.45394 3.45465 17.6827 
59 1 8.26624 5.24319 12.8261 
69 1 5.25848 8.30402 12.8355 
79 1 5.25848 5.26063 9.79322 
84 1 1.6181 3.35294 14.7426 
94 1 3.35461 1.60288 14.7411 
104 1 3.35472 3.35452 16.4927 
107 1 7.05828 5.35699 12.7347 
117 1 5.35511 7.11707 12.7364 
127 1 5.3549 5.35971 10.9789 
6 1 3.10719 14.9888 3.10722 
13 1 5.60748 12.4883 5.6077 
22 1 4.01291 14.0828 4.01328 
29 1 4.70189 13.3943 4.70199 
38 1 0.41695 14.6424 3.45423 
48 1 3.45346 17.6789 3.45355 
52 1 3.45344 14.6424 0.416814 
61 1 8.29764 12.8347 5.26147 
71 1 5.26144 9.79784 5.26126 
75 1 5.26143 12.8348 8.29777 
86 1 1.60653 14.7423 3.35413 
96 1 3.35387 16.4892 3.35384 
100 1 3.35382 14.7421 1.60654 
109 1 7.10749 12.7346 5.36148 
119 1 5.36115 10.9881 5.36117 
123 1 5.36139 12.7349 7.10754 
7 1 3.10763 14.9887 14.9884 
16 1 5.60609 12.4911 12.4875 
23 1 4.01222 14.0839 14.083 
32 1 4.70094 13.3957 13.3939 
39 1 0.417639 14.6421 14.6411 
43 1 3.45391 17.6779 14.6414 
53 1 3.45339 14.6425 17.6794 
64 1 8.29308 12.8356 12.8359 
68 1 5.2604 9.80368 12.8358 
78 1 5.26092 12.8348 9.79541 
87 1 1.60757 14.742 14.7412 
91 1 3.35406 16.4881 14.7415 
101 1 3.35379 14.7423 16.4898 
112 1 7.1021 12.735 12.735 
116 1 5.36111 10.9932 12.7349 
126 1 5.36015 12.7355 10.9861 
8 1 14.9921 3.10334 3.11093 
15 1 12.4867 5.60916 5.58051 
24 1 14.0872 4.00835 4.00797 
31 1 13.3971 4.69847 4.69172 
40 1 17.6825 3.45449 3.4538 
44 1 14.6415 0.413166 3.45445 
54 1 14.6397 3.45612 0.427867 
63 1 9.79065 5.26123 5.2587 
67 1 12.8348 8.30492 5.25858 
77 1 12.8444 5.24932 8.2573 
88 1 16.492 3.35455 3.355 
92 1 14.7415 1.60364 3.35521 
102 1 14.7427 3.35309 1.61871 
111 1 10.9806 5.36165 5.35333 
115 1 12.7343 7.11494 5.35313 
125 1 12.7356 5.36199 7.06335 
5 1 15.023 3.07659 15.021 
14 1 12.6071 5.63673 12.3825 
21 1 14.1413 3.95225 14.1052 
30 1 13.4777 4.64503 13.3926 
37 1 17.6971 3.45986 14.635 
47 1 14.6363 0.397998 14.6351 
51 1 14.636 3.46006 17.6966 
62 1 9.69605 5.26359 12.7584 
72 1 12.8442 8.37445 12.8139 
76 1 12.8487 5.23063 9.72446 
85 1 16.5076 3.3544 14.7406 
95 1 14.7421 1.58757 14.741 
99 1 14.7401 3.35614 16.5068 
110 1 10.9126 5.33508 12.9393 
120 1 12.8536 7.19329 12.6036 
124 1 12.7595 5.35622 10.9211 
129 2 11.8137 5.64891 14.0779 
3 1 14.9892 14.9891 3.10795 
12 1 12.4875 12.4891 5.60512 
19 1 14.0833 14.0836 4.01231 
28 1 13.3943 13.3951 4.70076 
35 1 17.6802 14.6423 3.45434 
45 1 14.6421 17.6781 3.45428 
55 1 14.642 14.6423 0.418017 
60 1 9.79594 12.835 5.26141 
70 1 12.8355 9.80137 5.26108 
80 1 12.8354 12.8352 8.29227 
83 1 16.4903 14.7421 3.35447 
93 1 14.7423 16.488 3.35399 
103 1 14.7421 14.7424 1.6087 
108 1 10.9862 12.7357 5.36052 
118 1 12.735 10.9914 5.36135 
128 1 12.7341 12.734 7.10203 
2 1 14.993 14.9856 14.9929 
9 1 12.4853 12.5298 12.4841 
18 1 14.0881 14.0882 14.0886 
25 1 13.3968 13.4046 13.3974 
34 1 17.6834 14.6418 14.6402 
42 1 14.6394 17.6693 14.6384 
50 1 14.6413 14.6419 17.6829 
57 1 9.78848 12.8363 12.8367 
65 1 12.8541 9.85352 12.857 
73 1 12.8369 12.8364 9.78748 
82 1 16.4936 14.7407 14.7403 
90 1 14.7422 16.4788 14.7416 
98 1 14.7412 14.7409 16.4932 
105 1 10.9788 12.7422 12.7361 
113 1 12.7382 11.0432 12.7378 
121 1 12.7367 12.7427 10.9781 
ITEM: TIMESTEP
50
ITEM: NUMBER OF ATOMS
129
ITEM: BOX BOUNDS pp pp pp
0.0000000000000000e+00 1.8762000000000000e+01
0.0000000000000000e+00 1.8762000000000000e+01
0.0000000000000000e+00 1.8760999999999999e+01
ITEM: ATOMS id type x y z 
1 1 3.10686 3.10585 3.10792 
10 1 5.60597 5.60859 5.60226 
17 1 4.01213 4.01203 4.01246 
26 1 4.70063 4.70157 4.70019 
33 1 0.418382 3.45366 3.45369 
41 1 3.45298 0.415134 3.45344 
49 1 3.45378 3.45378 0.419538 
58 1 8.29348 5.26009 5.26087 
66 1 5.26142 8.30076 5.26133 
74 1 5.26038 5.25994 8.29137 
81 1 1.60907 3.35293 3.35353 
89 1 3.35302 1.60558 3.35371 
97 1 3.35334 3.35303 1.61014 
106 1 7.10268 5.36095 5.36125 
114 1 5.36087 7.11004 5.36027 
122 1 5.36132 5.36096 7.10225 
4 1 3.11017 3.10089 14.9947 
11 1 5.57689 5.61236 12.4846 
20 1 4.01074 4.00934 14.0859 
27 1 4.68971 4.69873 13.3969 
36 1 0.429891 3.45733 14.638 
46 1 3.45394 0.412017 14.6403 
56 1 3.45392 3.45501 17.6838 
59 1 8.26911 5.24071 12.816 
69 1 5.25892 8.29923 12.8355 
79 1 5.25887 5.26057 9.79586 
84 1 1.62064 3.35223 14.7433 
94 1 3.35452 1.60274 14.7417 
104 1 3.35463 3.35387 16.4929 
107 1 7.0581 5.35311 12.7354 
117 1 5.35187 7.11228 12.7325 
127 1 5.35166 5.36358 10.9833 
6 1 3.10696 14.9889 3.10706 
13 1 5.6076 12.4882 5.60784 
22 1 4.01301 14.0832 4.01314 
29 1 4.70143 13.3943 4.70168 
38 1 0.417233 14.6427 3.45395 
48 1 3.4532 17.6787 3.45329 
52 1 3.45321 14.6427 0.417375 
61 1 8.29707 12.8344 5.26174 
71 1 5.2617 9.79859 5.2615 
75 1 5.26167 12.8346 8.29704 
86 1 1.60747 14.7428 3.35359 
96 1 3.3533 16.4883 3.35328 
100 1 3.35323 14.7427 1.60774 
109 1 7.10692 12.7342 5.36195 
119 1 5.36166 10.9887 5.36165 
123 1 5.36189 12.7344 7.1068 
7 1 3.10694 14.989 14.9895 
16 1 5.60487 12.4936 12.4871 
23 1 4.0122 14.0842 14.0833 
32 1 4.70041 13.3962 13.3938 
39 1 0.419438 14.6421 14.641 
43 1 3.45392 17.677 14.6414 
53 1 3.45324 14.6427 17.6797 
64 1 8.29217 12.8356 12.8362 
68 1 5.26023 9.80442 12.8361 
78 1 5.26093 12.8346 9.79459 
87 1 1.60995 14.7426 14.7418 
91 1 3.35351 16.4863 14.7421 
101 1 3.35337 14.7427 16.4892 
112 1 7.10126 12.735 12.7347 
116 1 5.36118 10.9938 12.7348 
126 1 5.36009 12.7356 10.9853 
8 1 14.9945 3.1011 3.11125 
15 1 12.4845 5.61154 5.5817 
24 1 14.0875 4.00797 4.00798 
31 1 13.3966 4.69899 4.6904 
40 1 17.6839 3.45488 3.45385 
44 1 14.6411 0.411673 3.45447 
54 1 14.6387 3.4571 0.429878 
63 1 9.79068 5.26065 5.25873 
67 1 12.8353 8.30517 5.25864 
77 1 12.8454 5.24746 8.25157 
88 1 16.4929 3.3541 3.35513 
92 1 14.7419 1.60268 3.35539 
102 1 14.7432 3.35252 1.62093 
111 1 10.9812 5.36204 5.35187 
115 1 12.7339 7.11471 5.35167 
125 1 12.7357 5.36211 7.06075 
5 1 15.0227 3.0679 15.0216 
14 1 12.629 5.66038 12.3843 
21 1 14.142 3.96937 14.1049 
30 1 13.5017 4.64214 13.3626 
37 1 17.6983 3.46115 14.6339 
47 1 14.635 0.398177 14.6338 
51 1 14.6347 3.46142 17.6966 
62 1 9.69394 5.26402 12.7461 
72 1 12.8528 8.36152 12.8023 
76 1 12.8452 5.22933 9.74193 
85 1 16.5088 3.35219 14.7429 
95 1 14.7444 1.58791 14.7431 
99 1 14.7422 3.35426 16.5073 
110 1 10.9042 5.35106 12.9881 
120 1 12.8667 7.18826 12.5594 
124 1 12.7577 5.36396 10.9415 
129 2 11.7646 5.60596 14.0984 
3 1 14.9899 14.989 3.10782 
12 1 12.4874 12.4905 5.60421 
19 1 14.0836 14.084 4.01241 
28 1 13.3942 13.3953 4.70008 
35 1 17.6808 14.6425 3.45414 
45 1 14.6421 17.6776 3.4542 
55 1 14.6419 14.6423 0.419535 
60 1 9.79516 12.8349 5.26155 
70 1 12.8356 9.80239 5.26092 
80 1 12.8356 12.8352 8.29086 
83 1 16.4899 14.7426 3.35411 
93 1 14.7429 16.4864 3.35355 
103 1 14.7427 14.7429 1.61064 
108 1 10.9855 12.7355 5.36045 
118 1 12.7347 10.9929 5.36154 
128 1 12.7338 12.7339 7.10028 
2 1 14.9957 14.9862 14.9954 
9 1 12.4821 12.5267 12.4806 
18 1 14.0894 14.0888 14.0899 
25 1 13.3973 13.4083 13.3978 
34 1 17.6839 14.6417 14.6397 
42 1 14.6383 17.6655 14.6374 
50 1 14.6409 14.6419 17.6837 
57 1 9.78736 12.8356 12.8378 
65 1 12.8558 9.86213 12.8602 
73 1 12.838 12.8358 9.78649 
82 1 16.493 14.7407 14.741 
90 1 14.743 16.475 14.7424 
98 1 14.7419 14.7409 16.4929 
105 1 10.9789 12.7453 12.7352 
113 1 12.7373 11.0494 12.7408 
121 1 12.736 12.7457 10.9782 
ITEM: TIMESTEP
60
ITEM: NUMBER OF ATOMS
129
ITEM: BOX BOUNDS pp pp pp
0.0000000000000000e+00 1.8762000000000000e+01
0.0000000000000000e+00 1.8762000000000000e+01
0.0000000000000000e+00 1.8760999999999999e+01
ITEM: ATOMS id type x y z 
1 1 3.10732 3.10484 3.10828 
10 1 5.605 5.60967 5.60311 
17 1 4.0124 4.01199 4.01224 
26 1 4.70043 4.70222 4.69966 
33 1 0.419511 3.45389 3.45361 
41 1 3.45268 0.414332 3.45313 
49 1 3.45363 3.45394 0.42082 
58 1 8.29236 5.25977 5.26121 
66 1 5.26165 8.3013 5.26166 
74 1 5.26116 5.25966 8.29158 
81 1 1.61037 3.35218 3.35305 
89 1 3.35266 1.60468 3.35342 
97 1 3.35283 3.35233 1.61086 
106 1 7.10112 5.36164 5.36123 
114 1 5.36109 7.11012 5.36016 
122 1 5.36161 5.36134 7.10135 
4 1 3.11256 3.0991 14.9963 
11 1 5.56959 5.61449 12.4828 
20 1 4.00997 4.0084 14.0871 
27 1 4.68351 4.70069 13.395 
36 1 0.431677 3.45867 14.6368 
46 1 3.45392 0.410959 14.6399 
56 1 3.45388 3.45542 17.685 
59 1 8.27185 5.23784 12.7967 
69 1 5.25767 8.3007 12.8344 
79 1 5.25777 5.26191 9.79526 
84 1 1.6216 3.35144 14.744 
94 1 3.35464 1.60212 14.7427 
104 1 3.3548 3.35284 16.4939 
107 1 7.05812 5.34437 12.733 
117 1 5.34631 7.11189 12.7291 
127 1 5.34602 5.36725 10.9833 
6 1 3.10688 14.9889 3.10702 
13 1 5.60708 12.4885 5.60727 
22 1 4.01281 14.0832 4.01309 
29 1 4.70138 13.3945 4.7014 
38 1 0.417703 14.6431 3.45349 
48 1 3.45277 17.6783 3.45286 
52 1 3.4528 14.6431 0.418072 
61 1 8.29711 12.8342 5.2621 
71 1 5.26204 9.79885 5.26193 
75 1 5.26201 12.8342 8.29663 
86 1 1.60809 14.7435 3.35291 
96 1 3.35258 16.4879 3.35259 
100 1 3.35251 14.7434 1.60844 
109 1 7.10584 12.7336 5.36251 
119 1 5.36222 10.989 5.36215 
123 1 5.36241 12.7339 7.10657 
7 1 3.10719 14.9887 14.9907 
16 1 5.60325 12.4925 12.4859 
23 1 4.01224 14.0843 14.0834 
32 1 4.7001 13.3967 13.3931 
39 1 0.421241 14.6422 14.6407 
43 1 3.45383 17.6761 14.6411 
53 1 3.45297 14.643 17.6805 
64 1 8.2908 12.835 12.837 
68 1 5.261 9.80506 12.8365 
78 1 5.26113 12.8343 9.79388 
87 1 1.61101 14.7431 14.7426 
91 1 3.35299 16.4852 14.7428 
101 1 3.35299 14.743 16.49 
112 1 7.09957 12.7352 12.7339 
116 1 5.36131 10.9948 12.7345 
126 1 5.3603 12.7358 10.9851 
8 1 14.9962 3.09945 3.11284 
15 1 12.4829 5.61321 5.58743 
24 1 14.0873 4.00817 4.0089 
31 1 13.3938 4.70184 4.68959 
40 1 17.6849 3.45539 3.45393 
44 1 14.6406 0.410886 3.4545 
54 1 14.6374 3.45852 0.430706 
63 1 9.79341 5.26066 5.2587 
67 1 12.8353 8.30187 5.25854 
77 1 12.8444 5.24592 8.25413 
88 1 16.4943 3.3532 3.3554 
92 1 14.7428 1.60129 3.3557 
102 1 14.7439 3.35172 1.6218 
111 1 10.9813 5.36285 5.35038 
115 1 12.7332 7.11469 5.35025 
125 1 12.7364 5.36161 7.07038 
5 1 15.0215 3.06941 15.0235 
14 1 12.6721 5.67699 12.3929 
21 1 14.1412 3.97816 14.0845 
30 1 13.5628 4.65766 13.303 
37 1 17.6959 3.46176 14.6333 
47 1 14.6338 0.398849 14.6325 
51 1 14.6336 3.46265 17.697 
62 1 9.69281 5.26998 12.7313 
72 1 12.8672 8.34725 12.7728 
76 1 12.8357 5.23008 9.75346 
85 1 16.5113 3.34779 14.7471 
95 1 14.7478 1.58789 14.7473 
99 1 14.7453 3.3501 16.5082 
110 1 10.8928 5.37512 13.0512 
120 1 12.8693 7.17565 12.5285 
124 1 12.7587 5.37701 10.9606 
129 2 11.6804 5.57761 14.1412 
3 1 14.9912 14.9886 3.1081 
12 1 12.4864 12.4915 5.60267 
19 1 14.0839 14.0841 4.01222 
28 1 13.3938 13.3957 4.69949 
35 1 17.6813 14.6428 3.45378 
45 1 14.6419 17.6761 3.45404 
55 1 14.6417 14.6424 0.421595 
60 1 9.79409 12.8347 5.2617 
70 1 12.836 9.80282 5.2611 
80 1 12.8363 12.8348 8.28963 
83 1 16.4912 14.7429 3.35387 
93 1 14.7436 16.4856 3.35318 
103 1 14.7434 14.7434 1.61144 
108 1 10.9848 12.7355 5.36036 
118 1 12.7343 10.994 5.36145 
128 1 12.7333 12.734 7.09875 
2 1 14.9982 14.9851 14.9978 
9 1 12.4801 12.5253 12.4793 
18 1 14.0904 14.0889 14.0909 
25 1 13.3923 13.4098 13.3925 
34 1 17.6843 14.6416 14.6392 
42 1 14.6365 17.6637 14.6357 
50 1 14.6403 14.6418 17.684 
57 1 9.7893 12.8357 12.8381 
65 1 12.8573 9.85898 12.86 
73 1 12.8385 12.836 9.78751 
82 1 16.4949 14.7405 14.7421 
90 1 14.7442 16.471 14.7436 
98 1 14.743 14.7406 16.495 
105 1 10.9809 12.749 12.7333 
113 1 12.7371 11.0365 12.7481 
121 1 12.7342 12.7491 10.9805 
ITEM: TIMESTEP
70
ITEM: NUMBER OF ATOMS
129
ITEM: BOX BOUNDS pp pp pp
0.0000000000000000e+00 1.8762000000000000e+01
0.0000000000000000e+00 1.8762000000000000e+01
0.0000000000000000e+00 1.8760999999999999e+01
ITEM: ATOMS id type x y z 
1 1 3.10814 3.10435 3.10893 
10 1 5.60445 5.61007 5.60253 
17 1 4.01248 4.012 4.01228 
26 1 4.70036 4.70297 4.69955 
33 1 0.419872 3.45404 3.45345 
41 1 3.45248 0.413491 3.45296 
49 1 3.45351 3.45417 0.420428 
58 1 8.29405 5.25994 5.26156 
66 1 5.26195 8.30155 5.26175 
74 1 5.2618 5.25978 8.29292 
81 1 1.60996 3.35187 3.35295 
89 1 3.35259 1.60386 3.35332 
97 1 3.35264 3.35191 1.61128 
106 1 7.10326 5.36156 5.36123 
114 1 5.36091 7.11108 5.36023 
122 1 5.36172 5.36105 7.10384 
4 1 3.11391 3.09822 14.9974 
11 1 5.56725 5.6119 12.4839 
20 1 4.00862 4.00838 14.087 
27 1 4.68072 4.70232 13.3938 
36 1 0.430074 3.45935 14.636 
46 1 3.45389 0.409719 14.6398 
56 1 3.45388 3.45552 17.6858 
59 1 8.27438 5.23795 12.7807 
69 1 5.25608 8.30491 12.8327 
79 1 5.25608 5.26374 9.79284 
84 1 1.6199 3.35128 14.7442 
94 1 3.35501 1.59988 14.7433 
104 1 3.35513 3.35225 16.4958 
107 1 7.05972 5.33739 12.7274 
117 1 5.34282 7.11667 12.728 
127 1 5.34228 5.36896 10.9805 
6 1 3.10738 14.9888 3.10764 
13 1 5.60701 12.4887 5.60711 
22 1 4.01275 14.083 4.01287 
29 1 4.70128 13.3944 4.70152 
38 1 0.417414 14.6434 3.45321 
48 1 3.45251 17.6784 3.45259 
52 1 3.45254 14.6434 0.417458 
61 1 8.296 12.8338 5.26246 
71 1 5.2623 9.7987 5.26226 
75 1 5.26223 12.8339 8.29653 
86 1 1.6078 14.7438 3.35262 
96 1 3.35226 16.4881 3.35229 
100 1 3.35221 14.7436 1.60785 
109 1 7.10655 12.7334 5.36271 
119 1 5.36249 10.9891 5.36244 
123 1 5.36268 12.7335 7.10622 
7 1 3.10878 14.988 14.9908 
16 1 5.60372 12.4932 12.485 
23 1 4.01203 14.0844 14.0835 
32 1 4.69986 13.3967 13.3926 
39 1 0.419516 14.6422 14.6404 
43 1 3.45365 17.6763 14.641 
53 1 3.45275 14.6431 17.6819 
64 1 8.29159 12.8342 12.8369 
68 1 5.26168 9.80296 12.8363 