ITEM: TIMESTEP
0
ITEM: NUMBER OF ATOMS
200
ITEM: BOX BOUNDS pp pp pp
0.0000000000000000e+00 1.6077000000000002e+01
0.0000000000000000e+00 1.6077000000000002e+01
0.0000000000000000e+00 1.6077000000000002e+01
ITEM: ATOMS id type x y z 
5 1 5.31361 5.31361 5.31361 
24 1 0 5.64013 6.65138 
44 1 6.65138 0 5.64013 
64 1 5.64013 6.65138 0 
65 1 5.68467 6.67662 2.45512 
66 1 5.31264 7.33192 3.68806 
68 1 4.81426 6.5853 4.81426 
76 1 5.64013 0 6.65138 
79 1 5.37052 7.3205 1.22828 
89 1 6.67662 2.45512 5.68467 
90 1 7.33192 3.68806 5.31264 
92 1 6.5853 4.81426 4.81426 
98 1 0 6.65138 5.64013 
101 1 7.3205 1.22828 5.37052 
109 1 2.45512 5.68467 6.67662 
110 1 3.68806 5.31264 7.33192 
112 1 4.81426 4.81426 6.5853 
118 1 6.65138 5.64013 0 
121 1 1.22828 5.37052 7.3205 
129 1 6.67662 5.68467 2.45512 
130 1 7.33192 5.31264 3.68806 
137 1 7.3205 5.37052 1.22828 
141 1 2.45512 6.67662 5.68467 
142 1 3.68806 7.33192 5.31264 
149 1 1.22828 7.3205 5.37052 
153 1 5.68467 2.45512 6.67662 
154 1 5.31264 3.68806 7.33192 
161 1 5.37052 1.22828 7.3205 
6 1 0 5.64013 9.42562 
7 1 6.67662 5.68467 13.6219 
8 1 7.33192 5.31264 12.3889 
10 1 6.5853 4.81426 11.2627 
21 1 7.3205 5.37052 14.8487 
32 1 1.22828 7.3205 10.7065 
39 1 6.65138 0 10.4369 
40 1 2.45512 6.67662 10.3923 
41 1 3.68806 7.33192 10.7644 
43 1 4.81426 6.5853 11.2627 
47 1 5.37052 1.22828 8.7565 
55 1 5.68467 2.45512 9.40038 
56 1 5.31264 3.68806 8.74508 
58 1 4.81426 4.81426 9.4917 
75 1 5.31361 5.31361 10.7634 
82 1 5.64013 0 9.42562 
93 1 0 6.65138 10.4369 
168 1 5.68467 6.67662 13.6219 
169 1 5.31264 7.33192 12.3889 
176 1 5.37052 7.3205 14.8487 
182 1 7.3205 1.22828 10.7065 
186 1 6.67662 2.45512 10.3923 
187 1 7.33192 3.68806 10.7644 
191 1 1.22828 5.37052 8.7565 
195 1 2.45512 5.68467 9.40038 
196 1 3.68806 5.31264 8.74508 
9 1 7.3205 10.7065 1.22828 
18 1 0 10.4369 6.65138 
19 1 6.67662 10.3923 2.45512 
20 1 7.33192 10.7644 3.68806 
22 1 6.5853 11.2627 4.81426 
27 1 1.22828 8.7565 5.37052 
35 1 2.45512 9.40038 5.68467 
36 1 3.68806 8.74508 5.31264 
38 1 4.81426 9.4917 4.81426 
49 1 5.64013 9.42562 0 
50 1 5.68467 13.6219 6.67662 
51 1 5.31264 12.3889 7.33192 
53 1 4.81426 11.2627 6.5853 
62 1 5.37052 14.8487 7.3205 
81 1 5.31361 10.7634 5.31361 
103 1 0 9.42562 5.64013 
113 1 6.65138 10.4369 0 
167 1 5.37052 8.7565 1.22828 
171 1 5.68467 9.40038 2.45512 
172 1 5.31264 8.74508 3.68806 
180 1 6.67662 13.6219 5.68467 
181 1 7.33192 12.3889 5.31264 
188 1 7.3205 14.8487 5.37052 
194 1 1.22828 10.7065 7.3205 
198 1 2.45512 10.3923 6.67662 
199 1 3.68806 10.7644 7.33192 
12 1 0 10.4369 9.42562 
17 1 5.31361 10.7634 10.7634 
73 1 5.37052 8.7565 14.8487 
83 1 5.68467 9.40038 13.6219 
84 1 5.31264 8.74508 12.3889 
86 1 4.81426 9.4917 11.2627 
91 1 7.3205 14.8487 10.7065 
99 1 6.67662 13.6219 10.3923 
100 1 7.33192 12.3889 10.7644 
102 1 6.5853 11.2627 11.2627 
108 1 0 9.42562 10.4369 
114 1 2.45512 10.3923 9.40038 
115 1 3.68806 10.7644 8.74508 
117 1 4.81426 11.2627 9.4917 
126 1 1.22828 10.7065 8.7565 
131 1 7.3205 10.7065 14.8487 
135 1 6.67662 10.3923 13.6219 
136 1 7.33192 10.7644 12.3889 
144 1 2.45512 9.40038 10.3923 
145 1 3.68806 8.74508 10.7644 
152 1 1.22828 8.7565 10.7065 
158 1 5.37052 14.8487 8.7565 
162 1 5.68467 13.6219 9.40038 
163 1 5.31264 12.3889 8.74508 
3 1 8.7565 5.37052 1.22828 
13 1 9.40038 5.68467 2.45512 
14 1 8.74508 5.31264 3.68806 
16 1 9.4917 4.81426 4.81426 
29 1 9.42562 0 5.64013 
30 1 13.6219 6.67662 5.68467 
31 1 12.3889 7.33192 5.31264 
33 1 11.2627 6.5853 4.81426 
42 1 14.8487 7.3205 5.37052 
52 1 10.7065 1.22828 7.3205 
59 1 10.4369 6.65138 0 
60 1 10.3923 2.45512 6.67662 
61 1 10.7644 3.68806 7.33192 
63 1 11.2627 4.81426 6.5853 
70 1 10.4369 0 6.65138 
87 1 10.7634 5.31361 5.31361 
123 1 9.42562 5.64013 0 
170 1 10.7065 7.3205 1.22828 
174 1 10.3923 6.67662 2.45512 
175 1 10.7644 7.33192 3.68806 
179 1 8.7565 1.22828 5.37052 
183 1 9.40038 2.45512 5.68467 
184 1 8.74508 3.68806 5.31264 
192 1 13.6219 5.68467 6.67662 
193 1 12.3889 5.31264 7.33192 
200 1 14.8487 5.37052 7.3205 
23 1 10.7634 5.31361 10.7634 
34 1 9.42562 0 10.4369 
67 1 10.7065 7.3205 14.8487 
77 1 10.3923 6.67662 13.6219 
78 1 10.7644 7.33192 12.3889 
80 1 11.2627 6.5853 11.2627 
88 1 10.4369 0 9.42562 
94 1 9.40038 2.45512 10.3923 
95 1 8.74508 3.68806 10.7644 
97 1 9.4917 4.81426 11.2627 
106 1 8.7565 1.22828 10.7065 
116 1 14.8487 5.37052 8.7565 
124 1 13.6219 5.68467 9.40038 
125 1 12.3889 5.31264 8.74508 
127 1 11.2627 4.81426 9.4917 
134 1 8.7565 5.37052 14.8487 
138 1 9.40038 5.68467 13.6219 
139 1 8.74508 5.31264 12.3889 
143 1 14.8487 7.3205 10.7065 
147 1 13.6219 6.67662 10.3923 
148 1 12.3889 7.33192 10.7644 
156 1 10.3923 2.45512 9.40038 
157 1 10.7644 3.68806 8.74508 
164 1 10.7065 1.22828 8.7565 
11 1 10.7634 10.7634 5.31361 
54 1 10.4369 9.42562 0 
71 1 10.3923 9.40038 2.45512 
72 1 10.7644 8.74508 3.68806 
74 1 11.2627 9.4917 4.81426 
85 1 10.7065 8.7565 1.22828 
96 1 8.7565 14.8487 5.37052 
104 1 9.40038 13.6219 5.68467 
105 1 8.74508 12.3889 5.31264 
107 1 9.4917 11.2627 4.81426 
111 1 14.8487 10.7065 7.3205 
119 1 13.6219 10.3923 6.67662 
120 1 12.3889 10.7644 7.33192 
122 1 11.2627 11.2627 6.5853 
128 1 9.42562 10.4369 0 
132 1 9.40038 10.3923 2.45512 
133 1 8.74508 10.7644 3.68806 
140 1 8.7565 10.7065 1.22828 
146 1 14.8487 8.7565 5.37052 
150 1 13.6219 9.40038 5.68467 
151 1 12.3889 8.74508 5.31264 
155 1 10.7065 14.8487 7.3205 
159 1 10.3923 13.6219 6.67662 
160 1 10.7644 12.3889 7.33192 
1 1 9.40038 10.3923 13.6219 
2 1 8.74508 10.7644 12.3889 
4 1 9.4917 11.2627 11.2627 
15 1 8.7565 10.7065 14.8487 
25 1 13.6219 9.40038 10.3923 
26 1 12.3889 8.74508 10.7644 
28 1 11.2627 9.4917 11.2627 
37 1 14.8487 8.7565 10.7065 
45 1 10.3923 13.6219 9.40038 
46 1 10.7644 12.3889 8.74508 
48 1 11.2627 11.2627 9.4917 
57 1 10.7065 14.8487 8.7565 
69 1 10.7634 10.7634 10.7634 
165 1 10.3923 9.40038 13.6219 
166 1 10.7644 8.74508 12.3889 
173 1 10.7065 8.7565 14.8487 
177 1 9.40038 13.6219 10.3923 
178 1 8.74508 12.3889 10.7644 
185 1 8.7565 14.8487 10.7065 
189 1 13.6219 10.3923 9.40038 
190 1 12.3889 10.7644 8.74508 
197 1 14.8487 10.7065 8.7565 
ITEM: TIMESTEP
10
ITEM: NUMBER OF ATOMS
200
ITEM: BOX BOUNDS pp pp pp
0.0000000000000000e+00 1.6077000000000002e+01
0.0000000000000000e+00 1.6077000000000002e+01
0.0000000000000000e+00 1.6077000000000002e+01
ITEM: ATOMS id type x y z 
5 1 5.26884 5.26884 5.26884 
24 1 -3.05335e-15 5.52098 6.55712 
44 1 6.55712 -4.32524e-14 5.52098 
64 1 5.52098 6.55712 -4.15243e-14 
65 1 5.59398 6.6089 2.43576 
66 1 5.36603 7.3255 3.70867 
68 1 4.83812 6.57018 4.83812 
76 1 5.52098 -7.75092e-14 6.55712 
79 1 5.22051 7.3064 1.21554 
89 1 6.6089 2.43576 5.59398 
90 1 7.3255 3.70867 5.36603 
92 1 6.57018 4.83812 4.83812 
98 1 -1.36734e-14 6.55712 5.52098 
101 1 7.3064 1.21554 5.22051 
109 1 2.43576 5.59398 6.6089 
110 1 3.70867 5.36603 7.3255 
112 1 4.83812 4.83812 6.57018 
118 1 6.55712 5.52098 1.23835e-14 
121 1 1.21554 5.22051 7.3064 
129 1 6.6089 5.59398 2.43576 
130 1 7.3255 5.36603 3.70867 
137 1 7.3064 5.22051 1.21554 
141 1 2.43576 6.6089 5.59398 
142 1 3.70867 7.3255 5.36603 
149 1 1.21554 7.3064 5.22051 
153 1 5.59398 2.43576 6.6089 
154 1 5.36603 3.70867 7.3255 
161 1 5.22051 1.21554 7.3064 
6 1 -2.13807e-14 5.52098 9.51988 
7 1 6.6089 5.59398 13.6412 
8 1 7.3255 5.36603 12.3683 
10 1 6.57018 4.83812 11.2389 
21 1 7.3064 5.22051 14.8615 
32 1 1.21554 7.3064 10.8565 
39 1 6.55712 -3.39847e-14 10.556 
40 1 2.43576 6.6089 10.483 
41 1 3.70867 7.3255 10.711 
43 1 4.83812 6.57018 11.2389 
47 1 5.22051 1.21554 8.7706 
55 1 5.59398 2.43576 9.4681 
56 1 5.36603 3.70867 8.7515 
58 1 4.83812 4.83812 9.50682 
75 1 5.26884 5.26884 10.8082 
82 1 5.52098 -7.11923e-14 9.51988 
93 1 -5.88136e-15 6.55712 10.556 
168 1 5.59398 6.6089 13.6412 
169 1 5.36603 7.3255 12.3683 
176 1 5.22051 7.3064 14.8615 
182 1 7.3064 1.21554 10.8565 
186 1 6.6089 2.43576 10.483 
187 1 7.3255 3.70867 10.711 
191 1 1.21554 5.22051 8.7706 
195 1 2.43576 5.59398 9.4681 
196 1 3.70867 5.36603 8.7515 
9 1 7.3064 10.8565 1.21554 
18 1 1.79451e-14 10.556 6.55712 
19 1 6.6089 10.483 2.43576 
20 1 7.3255 10.711 3.70867 
22 1 6.57018 11.2389 4.83812 
27 1 1.21554 8.7706 5.22051 
35 1 2.43576 9.4681 5.59398 
36 1 3.70867 8.7515 5.36603 
38 1 4.83812 9.50682 4.83812 
49 1 5.52098 9.51988 -3.83139e-14 
50 1 5.59398 13.6412 6.6089 
51 1 5.36603 12.3683 7.3255 
53 1 4.83812 11.2389 6.57018 
62 1 5.22051 14.8615 7.3064 
81 1 5.26884 10.8082 5.26884 
103 1 -3.8167e-14 9.51988 5.52098 
113 1 6.55712 10.556 2.08656e-14 
167 1 5.22051 8.7706 1.21554 
171 1 5.59398 9.4681 2.43576 
172 1 5.36603 8.7515 3.70867 
180 1 6.6089 13.6412 5.59398 
181 1 7.3255 12.3683 5.36603 
188 1 7.3064 14.8615 5.22051 
194 1 1.21554 10.8565 7.3064 
198 1 2.43576 10.483 6.6089 
199 1 3.70867 10.711 7.3255 
12 1 3.0208e-15 10.556 9.51988 
17 1 5.26884 10.8082 10.8082 
73 1 5.22051 8.7706 14.8615 
83 1 5.59398 9.4681 13.6412 
84 1 5.36603 8.7515 12.3683 
86 1 4.83812 9.50682 11.2389 
91 1 7.3064 14.8615 10.8565 
99 1 6.6089 13.6412 10.483 
100 1 7.3255 12.3683 10.711 
102 1 6.57018 11.2389 11.2389 
108 1 -3.50779e-15 9.51988 10.556 
114 1 2.43576 10.483 9.4681 
115 1 3.70867 10.711 8.7515 
117 1 4.83812 11.2389 9.50682 
126 1 1.21554 10.8565 8.7706 
131 1 7.3064 10.8565 14.8615 
135 1 6.6089 10.483 13.6412 
136 1 7.3255 10.711 12.3683 
144 1 2.43576 9.4681 10.483 
145 1 3.70867 8.7515 10.711 
152 1 1.21554 8.7706 10.8565 
158 1 5.22051 14.8615 8.7706 
162 1 5.59398 13.6412 9.4681 
163 1 5.36603 12.3683 8.7515 
3 1 8.7706 5.22051 1.21554 
13 1 9.4681 5.59398 2.43576 
14 1 8.7515 5.36603 3.70867 
16 1 9.50682 4.83812 4.83812 
29 1 9.51988 -3.77838e-14 5.52098 
30 1 13.6412 6.6089 5.59398 
31 1 12.3683 7.3255 5.36603 
33 1 11.2389 6.57018 4.83812 
42 1 14.8615 7.3064 5.22051 
52 1 10.8565 1.21554 7.3064 
59 1 10.556 6.55712 -1.65798e-14 
60 1 10.483 2.43576 6.6089 
61 1 10.711 3.70867 7.3255 
63 1 11.2389 4.83812 6.57018 
70 1 10.556 -3.14878e-14 6.55712 
87 1 10.8082 5.26884 5.26884 
123 1 9.51988 5.52098 1.72446e-14 
170 1 10.8565 7.3064 1.21554 
174 1 10.483 6.6089 2.43576 
175 1 10.711 7.3255 3.70867 
179 1 8.7706 1.21554 5.22051 
183 1 9.4681 2.43576 5.59398 
184 1 8.7515 3.70867 5.36603 
192 1 13.6412 5.59398 6.6089 
193 1 12.3683 5.36603 7.3255 
200 1 14.8615 5.22051 7.3064 
23 1 10.8082 5.26884 10.8082 
34 1 9.51988 -3.53448e-14 10.556 
67 1 10.8565 7.3064 14.8615 
77 1 10.483 6.6089 13.6412 
78 1 10.711 7.3255 12.3683 
80 1 11.2389 6.57018 11.2389 
88 1 10.556 -4.53799e-14 9.51988 
94 1 9.4681 2.43576 10.483 
95 1 8.7515 3.70867 10.711 
97 1 9.50682 4.83812 11.2389 
106 1 8.7706 1.21554 10.8565 
116 1 14.8615 5.22051 8.7706 
124 1 13.6412 5.59398 9.4681 
125 1 12.3683 5.36603 8.7515 
127 1 11.2389 4.83812 9.50682 
134 1 8.7706 5.22051 14.8615 
138 1 9.4681 5.59398 13.6412 
139 1 8.7515 5.36603 12.3683 
143 1 14.8615 7.3064 10.8565 
147 1 13.6412 6.6089 10.483 
148 1 12.3683 7.3255 10.711 
156 1 10.483 2.43576 9.4681 
157 1 10.711 3.70867 8.7515 
164 1 10.8565 1.21554 8.7706 
11 1 10.8082 10.8082 5.26884 
54 1 10.556 9.51988 -1.0828e-14 
71 1 10.483 9.4681 2.43576 
72 1 10.711 8.7515 3.70867 
74 1 11.2389 9.50682 4.83812 
85 1 10.8565 8.7706 1.21554 
96 1 8.7706 14.8615 5.22051 
104 1 9.4681 13.6412 5.59398 
105 1 8.7515 12.3683 5.36603 
107 1 9.50682 11.2389 4.83812 
111 1 14.8615 10.8565 7.3064 
119 1 13.6412 10.483 6.6089 
120 1 12.3683 10.711 7.3255 
122 1 11.2389 11.2389 6.57018 
128 1 9.51988 10.556 -5.10092e-15 
132 1 9.4681 10.483 2.43576 
133 1 8.7515 10.711 3.70867 
140 1 8.7706 10.8565 1.21554 
146 1 14.8615 8.7706 5.22051 
150 1 13.6412 9.4681 5.59398 
151 1 12.3683 8.7515 5.36603 
155 1 10.8565 14.8615 7.3064 
159 1 10.483 13.6412 6.6089 
160 1 10.711 12.3683 7.3255 
1 1 9.4681 10.483 13.6412 
2 1 8.7515 10.711 12.3683 
4 1 9.50682 11.2389 11.2389 
15 1 8.7706 10.8565 14.8615 
25 1 13.6412 9.4681 10.483 
26 1 12.3683 8.7515 10.711 
28 1 11.2389 9.50682 11.2389 
37 1 14.8615 8.7706 10.8565 
45 1 10.483 13.6412 9.4681 
46 1 10.711 12.3683 8.7515 
48 1 11.2389 11.2389 9.50682 
57 1 10.8565 14.8615 8.7706 
69 1 10.8082 10.8082 10.8082 
165 1 10.483 9.4681 13.6412 
166 1 10.711 8.7515 12.3683 
173 1 10.8565 8.7706 14.8615 
177 1 9.4681 13.6412 10.483 
178 1 8.7515 12.3683 10.711 
185 1 8.7706 14.8615 10.8565 
189 1 13.6412 10.483 9.4681 
190 1 12.3683 10.711 8.7515 
197 1 14.8615 10.8565 8.7706 
ITEM: TIMESTEP
20
ITEM: NUMBER OF ATOMS
200
ITEM: BOX BOUNDS pp pp pp
0.0000000000000000e+00 1.6077000000000002e+01
0.0000000000000000e+00 1.6077000000000002e+01
0.0000000000000000e+00 1.6077000000000002e+01
ITEM: ATOMS id type x y z 
5 1 5.32687 5.32687 5.32687 
24 1 3.00223e-11 5.51247 6.54173 
44 1 6.54173 -2.24671e-11 5.51247 
64 1 5.51247 6.54173 3.34671e-12 
65 1 5.60313 6.61609 2.41709 
66 1 5.32879 7.32664 3.68308 
68 1 4.83102 6.57145 4.83102 
76 1 5.51247 -1.02977e-11 6.54173 
79 1 5.2159 7.3112 1.19777 
89 1 6.61609 2.41709 5.60313 
90 1 7.32664 3.68308 5.32879 
92 1 6.57145 4.83102 4.83102 
98 1 -1.61265e-11 6.54173 5.51247 
101 1 7.3112 1.19777 5.2159 
109 1 2.41709 5.60313 6.61609 
110 1 3.68308 5.32879 7.32664 
112 1 4.83102 4.83102 6.57145 
118 1 6.54173 5.51247 3.12303e-11 
121 1 1.19777 5.2159 7.3112 
129 1 6.61609 5.60313 2.41709 
130 1 7.32664 5.32879 3.68308 
137 1 7.3112 5.2159 1.19777 
141 1 2.41709 6.61609 5.60313 
142 1 3.68308 7.32664 5.32879 
149 1 1.19777 7.3112 5.2159 
153 1 5.60313 2.41709 6.61609 
154 1 5.32879 3.68308 7.32664 
161 1 5.2159 1.19777 7.3112 
6 1 -2.03392e-11 5.51247 9.53527 
7 1 6.61609 5.60313 13.6599 
8 1 7.32664 5.32879 12.3939 
10 1 6.57145 4.83102 11.246 
21 1 7.3112 5.2159 14.8792 
32 1 1.19777 7.3112 10.8611 
39 1 6.54173 -1.89287e-11 10.5645 
40 1 2.41709 6.61609 10.4739 
41 1 3.68308 7.32664 10.7482 
43 1 4.83102 6.57145 11.246 
47 1 5.2159 1.19777 8.7658 
55 1 5.60313 2.41709 9.46091 
56 1 5.32879 3.68308 8.75036 
58 1 4.83102 4.83102 9.50555 
75 1 5.32687 5.32687 10.7501 
82 1 5.51247 2.42702e-11 9.53527 
93 1 -2.23392e-11 6.54173 10.5645 
168 1 5.60313 6.61609 13.6599 
169 1 5.32879 7.32664 12.3939 
176 1 5.2159 7.3112 14.8792 
182 1 7.3112 1.19777 10.8611 
186 1 6.61609 2.41709 10.4739 
187 1 7.32664 3.68308 10.7482 
191 1 1.19777 5.2159 8.7658 
195 1 2.41709 5.60313 9.46091 
196 1 3.68308 5.32879 8.75036 
9 1 7.3112 10.8611 1.19777 
18 1 -1.19837e-11 10.5645 6.54173 
19 1 6.61609 10.4739 2.41709 
20 1 7.32664 10.7482 3.68308 
22 1 6.57145 11.246 4.83102 
27 1 1.19777 8.7658 5.2159 
35 1 2.41709 9.46091 5.60313 
36 1 3.68308 8.75036 5.32879 
38 1 4.83102 9.50555 4.83102 
49 1 5.51247 9.53527 -1.39616e-11 
50 1 5.60313 13.6599 6.61609 
51 1 5.32879 12.3939 7.32664 
53 1 4.83102 11.246 6.57145 
62 1 5.2159 14.8792 7.3112 
81 1 5.32687 10.7501 5.32687 
103 1 1.34855e-11 9.53527 5.51247 
113 1 6.54173 10.5645 3.61475e-12 
167 1 5.2159 8.7658 1.19777 
171 1 5.60313 9.46091 2.41709 
172 1 5.32879 8.75036 3.68308 
180 1 6.61609 13.6599 5.60313 
181 1 7.32664 12.3939 5.32879 
188 1 7.3112 14.8792 5.2159 
194 1 1.19777 10.8611 7.3112 
198 1 2.41709 10.4739 6.61609 
199 1 3.68308 10.7482 7.32664 
12 1 -4.14756e-12 10.5645 9.53527 
17 1 5.32687 10.7501 10.7501 
73 1 5.2159 8.7658 14.8792 
83 1 5.60313 9.46091 13.6599 
84 1 5.32879 8.75036 12.3939 
86 1 4.83102 9.50555 11.246 
91 1 7.3112 14.8792 10.8611 
99 1 6.61609 13.6599 10.4739 
100 1 7.32664 12.3939 10.7482 
102 1 6.57145 11.246 11.246 
108 1 3.34371e-11 9.53527 10.5645 
114 1 2.41709 10.4739 9.46091 
115 1 3.68308 10.7482 8.75036 
117 1 4.83102 11.246 9.50555 
126 1 1.19777 10.8611 8.7658 
131 1 7.3112 10.8611 14.8792 
135 1 6.61609 10.4739 13.6599 
136 1 7.32664 10.7482 12.3939 
144 1 2.41709 9.46091 10.4739 
145 1 3.68308 8.75036 10.7482 
152 1 1.19777 8.7658 10.8611 
158 1 5.2159 14.8792 8.7658 
162 1 5.60313 13.6599 9.46091 
163 1 5.32879 12.3939 8.75036 
3 1 8.7658 5.2159 1.19777 
13 1 9.46091 5.60313 2.41709 
14 1 8.75036 5.32879 3.68308 
16 1 9.50555 4.83102 4.83102 
29 1 9.53527 2.53473e-11 5.51247 
30 1 13.6599 6.61609 5.60313 
31 1 12.3939 7.32664 5.32879 
33 1 11.246 6.57145 4.83102 
42 1 14.8792 7.3112 5.2159 
52 1 10.8611 1.19777 7.3112 
59 1 10.5645 6.54173 1.27288e-11 
60 1 10.4739 2.41709 6.61609 
61 1 10.7482 3.68308 7.32664 
63 1 11.246 4.83102 6.57145 
70 1 10.5645 -1.26767e-11 6.54173 
87 1 10.7501 5.32687 5.32687 
123 1 9.53527 5.51247 -3.40446e-11 
170 1 10.8611 7.3112 1.19777 
174 1 10.4739 6.61609 2.41709 
175 1 10.7482 7.32664 3.68308 
179 1 8.7658 1.19777 5.2159 
183 1 9.46091 2.41709 5.60313 
184 1 8.75036 3.68308 5.32879 
192 1 13.6599 5.60313 6.61609 
193 1 12.3939 5.32879 7.32664 
200 1 14.8792 5.2159 7.3112 
23 1 10.7501 5.32687 10.7501 
34 1 9.53527 1.24538e-11 10.5645 
67 1 10.8611 7.3112 14.8792 
77 1 10.4739 6.61609 13.6599 
78 1 10.7482 7.32664 12.3939 
80 1 11.246 6.57145 11.246 
88 1 10.5645 1.33989e-12 9.53527 
94 1 9.46091 2.41709 10.4739 
95 1 8.75036 3.68308 10.7482 
97 1 9.50555 4.83102 11.246 
106 1 8.7658 1.19777 10.8611 
116 1 14.8792 5.2159 8.7658 
124 1 13.6599 5.60313 9.46091 
125 1 12.3939 5.32879 8.75036 
127 1 11.246 4.83102 9.50555 
134 1 8.7658 5.2159 14.8792 
138 1 9.46091 5.60313 13.6599 
139 1 8.75036 5.32879 12.3939 
143 1 14.8792 7.3112 10.8611 
147 1 13.6599 6.61609 10.4739 
148 1 12.3939 7.32664 10.7482 
156 1 10.4739 2.41709 9.46091 
157 1 10.7482 3.68308 8.75036 
164 1 10.8611 1.19777 8.7658 
11 1 10.7501 10.7501 5.32687 
54 1 10.5645 9.53527 -3.14107e-12 
71 1 10.4739 9.46091 2.41709 
72 1 10.7482 8.75036 3.68308 
74 1 11.246 9.50555 4.83102 
85 1 10.8611 8.7658 1.19777 
96 1 8.7658 14.8792 5.2159 
104 1 9.46091 13.6599 5.60313 
105 1 8.75036 12.3939 5.32879 
107 1 9.50555 11.246 4.83102 
111 1 14.8792 10.8611 7.3112 
119 1 13.6599 10.4739 6.61609 
120 1 12.3939 10.7482 7.32664 
122 1 11.246 11.246 6.57145 
128 1 9.53527 10.5645 2.16757e-12 
132 1 9.46091 10.4739 2.41709 
133 1 8.75036 10.7482 3.68308 
140 1 8.7658 10.8611 1.19777 
146 1 14.8792 8.7658 5.2159 
150 1 13.6599 9.46091 5.60313 
151 1 12.3939 8.75036 5.32879 
155 1 10.8611 14.8792 7.3112 
159 1 10.4739 13.6599 6.61609 
160 1 10.7482 12.3939 7.32664 
1 1 9.46091 10.4739 13.6599 
2 1 8.75036 10.7482 12.3939 
4 1 9.50555 11.246 11.246 
15 1 8.7658 10.8611 14.8792 
25 1 13.6599 9.46091 10.4739 
26 1 12.3939 8.75036 10.7482 
28 1 11.246 9.50555 11.246 
37 1 14.8792 8.7658 10.8611 
45 1 10.4739 13.6599 9.46091 
46 1 10.7482 12.3939 8.75036 
48 1 11.246 11.246 9.50555 
57 1 10.8611 14.8792 8.7658 
69 1 10.7501 10.7501 10.7501 
165 1 10.4739 9.46091 13.6599 
166 1 10.7482 8.75036 12.3939 
173 1 10.8611 8.7658 14.8792 
177 1 9.46091 13.6599 10.4739 
178 1 8.75036 12.3939 10.7482 
185 1 8.7658 14.8792 10.8611 
189 1 13.6599 10.4739 9.46091 
190 1 12.3939 10.7482 8.75036 
197 1 14.8792 10.8611 8.7658 
ITEM: TIMESTEP
30
ITEM: NUMBER OF ATOMS
200
ITEM: BOX BOUNDS pp pp pp
0.0000000000000000e+00 1.6077000000000002e+01
0.0000000000000000e+00 1.6077000000000002e+01
0.0000000000000000e+00 1.6077000000000002e+01
ITEM: ATOMS id type x y z 
5 1 5.33485 5.33485 5.33485 
24 1 2.29496e-08 5.51566 6.54297 
44 1 6.54297 -2.33669e-08 5.51566 
64 1 5.51566 6.54297 1.10456e-08 
65 1 5.61046 6.61779 2.40944 
66 1 5.31622 7.32712 3.67246 
68 1 4.83467 6.58234 4.83467 
76 1 5.51566 -1.56957e-08 6.54297 
79 1 5.22485 7.31245 1.19391 
89 1 6.61779 2.40944 5.61046 
90 1 7.32712 3.67246 5.31622 
92 1 6.58234 4.83467 4.83467 
98 1 -7.37421e-09 6.54297 5.51566 
101 1 7.31245 1.19391 5.22485 
109 1 2.40944 5.61046 6.61779 
110 1 3.67246 5.31622 7.32712 
112 1 4.83467 4.83467 6.58234 
118 1 6.54297 5.51566 2.8074e-08 
121 1 1.19391 5.22485 7.31245 
129 1 6.61779 5.61046 2.40944 
130 1 7.32712 5.31622 3.67246 
137 1 7.31245 5.22485 1.19391 
141 1 2.40944 6.61779 5.61046 
142 1 3.67246 7.32712 5.31622 
149 1 1.19391 7.31245 5.22485 
153 1 5.61046 2.40944 6.61779 
154 1 5.31622 3.67246 7.32712 
161 1 5.22485 1.19391 7.31245 
6 1 -2.38727e-08 5.51566 9.53403 
7 1 6.61779 5.61046 13.6676 
8 1 7.32712 5.31622 12.4045 
10 1 6.58234 4.83467 11.2423 
21 1 7.31245 5.22485 14.8831 
32 1 1.19391 7.31245 10.8521 
39 1 6.54297 -1.0961e-08 10.5613 
40 1 2.40944 6.61779 10.4665 
41 1 3.67246 7.32712 10.7608 
43 1 4.83467 6.58234 11.2423 
47 1 5.22485 1.19391 8.76455 
55 1 5.61046 2.40944 9.45921 
56 1 5.31622 3.67246 8.74988 
58 1 4.83467 4.83467 9.49466 
75 1 5.33485 5.33485 10.7421 
82 1 5.51566 1.48468e-08 9.53403 
93 1 -2.62598e-08 6.54297 10.5613 
168 1 5.61046 6.61779 13.6676 
169 1 5.31622 7.32712 12.4045 
176 1 5.22485 7.31245 14.8831 
182 1 7.31245 1.19391 10.8521 
186 1 6.61779 2.40944 10.4665 
187 1 7.32712 3.67246 10.7608 
191 1 1.19391 5.22485 8.76455 
195 1 2.40944 5.61046 9.45921 
196 1 3.67246 5.31622 8.74988 
9 1 7.31245 10.8521 1.19391 
18 1 -5.87279e-09 10.5613 6.54297 
19 1 6.61779 10.4665 2.40944 
20 1 7.32712 10.7608 3.67246 
22 1 6.58234 11.2423 4.83467 
27 1 1.19391 8.76455 5.22485 
35 1 2.40944 9.45921 5.61046 
36 1 3.67246 8.74988 5.31622 
38 1 4.83467 9.49466 4.83467 
49 1 5.51566 9.53403 -1.02806e-08 
50 1 5.61046 13.6676 6.61779 
51 1 5.31622 12.4045 7.32712 
53 1 4.83467 11.2423 6.58234 
62 1 5.22485 14.8831 7.31245 
81 1 5.33485 10.7421 5.33485 
103 1 7.92301e-09 9.53403 5.51566 
113 1 6.54297 10.5613 -1.40792e-09 
167 1 5.22485 8.76455 1.19391 
171 1 5.61046 9.45921 2.40944 
172 1 5.31622 8.74988 3.67246 
180 1 6.61779 13.6676 5.61046 
181 1 7.32712 12.4045 5.31622 
188 1 7.31245 14.8831 5.22485 
194 1 1.19391 10.8521 7.31245 
198 1 2.40944 10.4665 6.61779 
199 1 3.67246 10.7608 7.32712 
12 1 7.06533e-09 10.5613 9.53403 
17 1 5.33485 10.7421 10.7421 
73 1 5.22485 8.76455 14.8831 
83 1 5.61046 9.45921 13.6676 
84 1 5.31622 8.74988 12.4045 
86 1 4.83467 9.49466 11.2423 
91 1 7.31245 14.8831 10.8521 
99 1 6.61779 13.6676 10.4665 
100 1 7.32712 12.4045 10.7608 
102 1 6.58234 11.2423 11.2423 
108 1 2.60157e-08 9.53403 10.5613 
114 1 2.40944 10.4665 9.45921 
115 1 3.67246 10.7608 8.74988 
117 1 4.83467 11.2423 9.49466 
126 1 1.19391 10.8521 8.76455 
131 1 7.31245 10.8521 14.8831 
135 1 6.61779 10.4665 13.6676 
136 1 7.32712 10.7608 12.4045 
144 1 2.40944 9.45921 10.4665 
145 1 3.67246 8.74988 10.7608 
152 1 1.19391 8.76455 10.8521 
158 1 5.22485 14.8831 8.76455 
162 1 5.61046 13.6676 9.45921 
163 1 5.31622 12.4045 8.74988 
3 1 8.76455 5.22485 1.19391 
13 1 9.45921 5.61046 2.40944 
14 1 8.74988 5.31622 3.67246 
16 1 9.49466 4.83467 4.83467 
29 1 9.53403 2.28715e-08 5.51566 
30 1 13.6676 6.61779 5.61046 
31 1 12.4045 7.32712 5.31622 
33 1 11.2423 6.58234 4.83467 
42 1 14.8831 7.31245 5.22485 
52 1 10.8521 1.19391 7.31245 
59 1 10.5613 6.54297 3.10359e-09 
60 1 10.4665 2.40944 6.61779 
61 1 10.7608 3.67246 7.32712 
63 1 11.2423 4.83467 6.58234 
70 1 10.5613 -2.62595e-09 6.54297 
87 1 10.7421 5.33485 5.33485 
123 1 9.53403 5.51566 -2.74814e-08 
170 1 10.8521 7.31245 1.19391 
174 1 10.4665 6.61779 2.40944 
175 1 10.7608 7.32712 3.67246 
179 1 8.76455 1.19391 5.22485 
183 1 9.45921 2.40944 5.61046 
184 1 8.74988 3.67246 5.31622 
192 1 13.6676 5.61046 6.61779 
193 1 12.4045 5.31622 7.32712 
200 1 14.8831 5.22485 7.31245 
23 1 10.7421 5.33485 10.7421 
34 1 9.53403 1.1668e-08 10.5613 
67 1 10.8521 7.31245 14.8831 
77 1 10.4665 6.61779 13.6676 
78 1 10.7608 7.32712 12.4045 
80 1 11.2423 6.58234 11.2423 
88 1 10.5613 3.77061e-09 9.53403 
94 1 9.45921 2.40944 10.4665 
95 1 8.74988 3.67246 10.7608 
97 1 9.49466 4.83467 11.2423 
106 1 8.76455 1.19391 10.8521 
116 1 14.8831 5.22485 8.76455 
124 1 13.6676 5.61046 9.45921 
125 1 12.4045 5.31622 8.74988 
127 1 11.2423 4.83467 9.49466 
134 1 8.76455 5.22485 14.8831 
138 1 9.45921 5.61046 13.6676 
139 1 8.74988 5.31622 12.4045 
143 1 14.8831 7.31245 10.8521 
147 1 13.6676 6.61779 10.4665 
148 1 12.4045 7.32712 10.7608 
156 1 10.4665 2.40944 9.45921 
157 1 10.7608 3.67246 8.74988 
164 1 10.8521 1.19391 8.76455 
11 1 10.7421 10.7421 5.33485 
54 1 10.5613 9.53403 -3.92777e-09 
71 1 10.4665 9.45921 2.40944 
72 1 10.7608 8.74988 3.67246 
74 1 11.2423 9.49466 4.83467 
85 1 10.8521 8.76455 1.19391 
96 1 8.76455 14.8831 5.22485 
104 1 9.45921 13.6676 5.61046 
105 1 8.74988 12.4045 5.31622 
107 1 9.49466 11.2423 4.83467 
111 1 14.8831 10.8521 7.31245 
119 1 13.6676 10.4665 6.61779 
120 1 12.4045 10.7608 7.32712 
122 1 11.2423 11.2423 6.58234 
128 1 9.53403 10.5613 7.79143e-10 
132 1 9.45921 10.4665 2.40944 
133 1 8.74988 10.7608 3.67246 
140 1 8.76455 10.8521 1.19391 
146 1 14.8831 8.76455 5.22485 
150 1 13.6676 9.45921 5.61046 
151 1 12.4045 8.74988 5.31622 
155 1 10.8521 14.8831 7.31245 
159 1 10.4665 13.6676 6.61779 
160 1 10.7608 12.4045 7.32712 
1 1 9.45921 10.4665 13.6676 
2 1 8.74988 10.7608 12.4045 
4 1 9.49466 11.2423 11.2423 
15 1 8.76455 10.8521 14.8831 
25 1 13.6676 9.45921 10.4665 
26 1 12.4045 8.74988 10.7608 
28 1 11.2423 9.49466 11.2423 
37 1 14.8831 8.76455 10.8521 
45 1 10.4665 13.6676 9.45921 
46 1 10.7608 12.4045 8.74988 
48 1 11.2423 11.2423 9.49466 
57 1 10.8521 14.8831 8.76455 
69 1 10.7421 10.7421 10.7421 
165 1 10.4665 9.45921 13.6676 
166 1 10.7608 8.74988 12.4045 
173 1 10.8521 8.76455 14.8831 
177 1 9.45921 13.6676 10.4665 
178 1 8.74988 12.4045 10.7608 
185 1 8.76455 14.8831 10.8521 
189 1 13.6676 10.4665 9.45921 
190 1 12.4045 10.7608 8.74988 
197 1 14.8831 10.8521 8.76455 
ITEM: TIMESTEP
40
ITEM: NUMBER OF ATOMS
200
ITEM: BOX BOUNDS pp pp pp
0.0000000000000000e+00 1.6077000000000002e+01
0.0000000000000000e+00 1.6077000000000002e+01
0.0000000000000000e+00 1.6077000000000002e+01
ITEM: ATOMS id type x y z 
5 1 5.34026 5.34026 5.34026 
24 1 2.4486e-07 5.51593 6.54298 
44 1 6.54298 -2.91948e-07 5.51593 
64 1 5.51593 6.54298 1.73996e-07 
65 1 5.61247 6.61953 2.41069 
66 1 5.31162 7.32656 3.67285 
68 1 4.83603 6.58073 4.83603 
76 1 5.51593 -2.3973e-07 6.54298 
79 1 5.22687 7.31306 1.1942 
89 1 6.61953 2.41069 5.61247 
90 1 7.32656 3.67285 5.31162 
92 1 6.58073 4.83603 4.83603 
98 1 -3.55426e-08 6.54298 5.51593 
101 1 7.31307 1.1942 5.22687 
109 1 2.41069 5.61247 6.61953 
110 1 3.67285 5.31162 7.32656 
112 1 4.83603 4.83603 6.58073 
118 1 6.54298 5.51593 2.9844e-07 
121 1 1.19419 5.22687 7.31306 
129 1 6.61953 5.61247 2.41069 
130 1 7.32656 5.31162 3.67285 
137 1 7.31307 5.22687 1.1942 
141 1 2.41069 6.61953 5.61247 
142 1 3.67285 7.32656 5.31162 
149 1 1.1942 7.31307 5.22687 
153 1 5.61247 2.41069 6.61953 
154 1 5.31162 3.67285 7.32656 
161 1 5.22687 1.1942 7.31307 
6 1 -2.75823e-07 5.51593 9.53402 
7 1 6.61953 5.61247 13.6663 
8 1 7.32656 5.31162 12.4041 
10 1 6.58073 4.83603 11.241 
21 1 7.31307 5.22687 14.8828 
32 1 1.1942 7.31307 10.8501 
39 1 6.54298 -6.78737e-08 10.5611 
40 1 2.41069 6.61953 10.4645 
41 1 3.67285 7.32656 10.7654 
43 1 4.83603 6.58073 11.241 
47 1 5.22687 1.1942 8.76394 
55 1 5.61247 2.41069 9.45747 
56 1 5.31162 3.67285 8.75044 
58 1 4.83603 4.83603 9.49627 
75 1 5.34026 5.34026 10.7367 
82 1 5.51593 2.09867e-07 9.53402 
93 1 -3.08153e-07 6.54298 10.5611 
168 1 5.61247 6.61953 13.6663 
169 1 5.31162 7.32656 12.4041 
176 1 5.22687 7.31307 14.8828 
182 1 7.31307 1.1942 10.8501 
186 1 6.61953 2.41069 10.4645 
187 1 7.32656 3.67285 10.7654 
191 1 1.1942 5.22687 8.76393 
195 1 2.41069 5.61247 9.45747 
196 1 3.67285 5.31162 8.75044 
9 1 7.31306 10.8501 1.1942 
18 1 -8.32522e-08 10.5611 6.54298 
19 1 6.61953 10.4645 2.41069 
20 1 7.32656 10.7654 3.67285 
22 1 6.58073 11.241 4.83603 
27 1 1.19419 8.76394 5.22687 
35 1 2.41069 9.45747 5.61247 
36 1 3.67285 8.75044 5.31162 
38 1 4.83603 9.49627 4.83603 
49 1 5.51593 9.53402 -1.50979e-07 
50 1 5.61247 13.6663 6.61953 
51 1 5.31162 12.4041 7.32656 
53 1 4.83603 11.241 6.58073 
62 1 5.22687 14.8828 7.31306 
81 1 5.34026 10.7367 5.34026 
103 1 5.3235e-08 9.53402 5.51593 
113 1 6.54298 10.5611 -1.46773e-08 
167 1 5.22687 8.76393 1.1942 
171 1 5.61247 9.45747 2.41069 
172 1 5.31162 8.75044 3.67285 
180 1 6.61953 13.6663 5.61247 
181 1 7.32656 12.4041 5.31162 
188 1 7.31307 14.8828 5.22687 
194 1 1.1942 10.8501 7.31307 
198 1 2.41069 10.4645 6.61953 
199 1 3.67285 10.7654 7.32656 
12 1 1.17095e-07 10.5611 9.53402 
17 1 5.34026 10.7367 10.7367 
73 1 5.22687 8.76393 14.8828 
83 1 5.61247 9.45747 13.6663 
84 1 5.31162 8.75044 12.4041 
86 1 4.83603 9.49627 11.241 
91 1 7.31307 14.8828 10.8501 
99 1 6.61953 13.6663 10.4645 
100 1 7.32656 12.4041 10.7654 
102 1 6.58073 11.241 11.241 
108 1 2.92568e-07 9.53402 10.5611 
114 1 2.41069 10.4645 9.45747 
115 1 3.67285 10.7654 8.75044 
117 1 4.83603 11.241 9.49627 
126 1 1.1942 10.8501 8.76393 
131 1 7.31306 10.8501 14.8828 
135 1 6.61953 10.4645 13.6663 
136 1 7.32656 10.7654 12.4041 
144 1 2.41069 9.45747 10.4645 
145 1 3.67285 8.75044 10.7654 
152 1 1.1942 8.76394 10.8501 
158 1 5.22687 14.8828 8.76393 
162 1 5.61247 13.6663 9.45747 
163 1 5.31162 12.4041 8.75044 
3 1 8.76393 5.22687 1.1942 
13 1 9.45747 5.61247 2.41069 
14 1 8.75044 5.31162 3.67285 
16 1 9.49627 4.83603 4.83603 
29 1 9.53402 2.78604e-07 5.51593 
30 1 13.6663 6.61953 5.61247 
31 1 12.4041 7.32656 5.31162 
33 1 11.241 6.58073 4.83603 
42 1 14.8828 7.31307 5.22687 
52 1 10.8501 1.1942 7.31307 
59 1 10.5611 6.54298 1.86168e-08 
60 1 10.4645 2.41069 6.61953 
61 1 10.7654 3.67285 7.32656 
63 1 11.241 4.83603 6.58073 
70 1 10.5611 1.36727e-08 6.54298 
87 1 10.7367 5.34026 5.34026 
123 1 9.53402 5.51593 -2.87774e-07 
170 1 10.8501 7.31306 1.1942 
174 1 10.4645 6.61953 2.41069 
175 1 10.7654 7.32656 3.67285 
179 1 8.76394 1.1942 5.22687 
183 1 9.45747 2.41069 5.61247 
184 1 8.75044 3.67285 5.31162 
192 1 13.6663 5.61247 6.61953 
193 1 12.4041 5.31162 7.32656 
200 1 14.8828 5.22687 7.31306 
23 1 10.7367 5.34026 10.7367 
34 1 9.53402 7.96801e-08 10.5611 
67 1 10.8501 7.31306 14.8828 
77 1 10.4645 6.61953 13.6663 
78 1 10.7654 7.32656 12.4041 
80 1 11.241 6.58073 11.241 
88 1 10.5611 2.22132e-08 9.53402 
94 1 9.45747 2.41069 10.4645 
95 1 8.75044 3.67285 10.7654 
97 1 9.49627 4.83603 11.241 
106 1 8.76393 1.1942 10.8501 
116 1 14.8828 5.22687 8.76394 
124 1 13.6663 5.61247 9.45747 
125 1 12.4041 5.31162 8.75044 
127 1 11.241 4.83603 9.49627 
134 1 8.76393 5.22687 14.8828 
138 1 9.45747 5.61247 13.6663 
139 1 8.75044 5.31162 12.4041 
143 1 14.8828 7.31306 10.8501 
147 1 13.6663 6.61953 10.4645 