LAMMPS (3 Mar 2020)
Reading data file ...
  triclinic box = (0 0 0) to (13.552 11.7355 22.15) with tilt (-6.7755 0 0)
  2 by 2 by 2 MPI processor grid
  reading atoms ...
  162 atoms
  read_data CPU = 0.0169395 secs
WARNING: Using 'neigh_modify every 1 delay 0 check yes' setting during minimization (../min.cpp:190)
WARNING: Total cutoff < 2*bond cutoff. May need to use an increased neighbor list skin. (../pair_reaxc.cpp:413)
Neighbor list info ...
  update every 1 steps, delay 0 steps, check yes
  max neighbors/atom: 2000, page size: 100000
  master list distance cutoff = 9.5
  ghost atom cutoff = 9.5
  binsize = 4.75, bins = 5 3 5
  2 neighbor lists, perpetual/occasional/extra = 2 0 0
  (1) pair reax/c, perpetual
      attributes: half, newton off, ghost
      pair build: half/bin/newtoff/ghost
      stencil: half/ghost/bin/3d/newtoff
      bin: standard
  (2) fix qeq/reax, perpetual, copy from (1)
      attributes: half, newton off, ghost
      pair build: copy
      stencil: none
      bin: none
Setting up cg style minimization ...
  Unit style    : real
  Current step  : 0
Per MPI rank memory allocation (min/avg/max) = 22.46 | 23.47 | 24.43 Mbytes
Step Temp E_pair E_mol TotEng Press 
       0            0   -25494.221            0   -25494.221    81685.154 
     160            0   -29090.422            0   -29090.422    30656.956 
Loop time of 7.78881 on 8 procs for 160 steps with 162 atoms

99.3% CPU use with 8 MPI tasks x no OpenMP threads

Minimization stats:
  Stopping criterion = energy tolerance
  Energy initial, next-to-last, final = 
        -25494.2211666     -29090.4213249     -29090.4215216
  Force two-norm initial, final = 4658.13 158.89
  Force max component initial, final = 504.288 32.2736
  Final line search alpha, max atom move = 9.67801e-05 0.00312345
  Iterations, force evaluations = 160 1015

MPI task timing breakdown:
Section |  min time  |  avg time  |  max time  |%varavg| %total
---------------------------------------------------------------
Pair    | 5.6988     | 6.1033     | 6.3743     |   9.5 | 78.36
Neigh   | 0          | 0          | 0          |   0.0 |  0.00
Comm    | 0.047522   | 0.31668    | 0.72112    |  41.7 |  4.07
Output  | 0.00056333 | 0.00073271 | 0.0011076  |   0.0 |  0.01
Modify  | 1.3564     | 1.3573     | 1.358      |   0.0 | 17.43
Other   |            | 0.01081    |            |       |  0.14

Nlocal:    20.25 ave 33 max 5 min
Histogram: 2 0 1 0 1 0 0 1 0 3
Nghost:    846.25 ave 891 max 791 min
Histogram: 1 1 2 0 0 0 0 0 0 4
Neighs:    2794.75 ave 4464 max 759 min
Histogram: 2 0 1 0 1 0 0 1 0 3

Total # of neighbors = 22358
Ave neighs/atom = 138.012
Neighbor list builds = 0
Dangerous builds = 0
WARNING: Using 'neigh_modify every 1 delay 0 check yes' setting during minimization (../min.cpp:190)
WARNING: Total cutoff < 2*bond cutoff. May need to use an increased neighbor list skin. (../pair_reaxc.cpp:413)
Setting up cg style minimization ...
  Unit style    : real
  Current step  : 160
Per MPI rank memory allocation (min/avg/max) = 22.46 | 23.47 | 24.43 Mbytes
Step Temp E_pair E_mol TotEng Press 
     160            0   -29090.422            0   -29090.422    30656.956 
     161            0   -29090.422            0   -29090.422    30657.297 
Loop time of 0.0697848 on 8 procs for 1 steps with 162 atoms

99.3% CPU use with 8 MPI tasks x no OpenMP threads

Minimization stats:
  Stopping criterion = energy tolerance
  Energy initial, next-to-last, final = 
        -29090.4215216     -29090.4215216     -29090.4215684
  Force two-norm initial, final = 158.89 158.877
  Force max component initial, final = 32.2736 32.2698
  Final line search alpha, max atom move = 9.68282e-05 0.00312463
  Iterations, force evaluations = 1 8

MPI task timing breakdown:
Section |  min time  |  avg time  |  max time  |%varavg| %total
---------------------------------------------------------------
Pair    | 0.051292   | 0.055073   | 0.057682   |   1.0 | 78.92
Neigh   | 0          | 0          | 0          |   0.0 |  0.00
Comm    | 0.00038046 | 0.0029648  | 0.0067518  |   4.2 |  4.25
Output  | 0          | 0          | 0          |   0.0 |  0.00
Modify  | 0.011561   | 0.011572   | 0.011577   |   0.0 | 16.58
Other   |            | 0.0001752  |            |       |  0.25

Nlocal:    20.25 ave 33 max 5 min
Histogram: 2 0 1 1 0 0 0 0 2 2
Nghost:    872 ave 921 max 820 min
Histogram: 1 3 0 0 0 0 0 0 2 2
Neighs:    2774.88 ave 4415 max 751 min
Histogram: 2 0 1 1 0 0 0 0 0 4

Total # of neighbors = 22199
Ave neighs/atom = 137.031
Neighbor list builds = 0
Dangerous builds = 0
WARNING: Using 'neigh_modify every 1 delay 0 check yes' setting during minimization (../min.cpp:190)
WARNING: Total cutoff < 2*bond cutoff. May need to use an increased neighbor list skin. (../pair_reaxc.cpp:413)
Setting up cg style minimization ...
  Unit style    : real
  Current step  : 161
WARNING: Energy due to 3 extra global DOFs will be included in minimizer energies
Per MPI rank memory allocation (min/avg/max) = 22.46 | 23.47 | 24.43 Mbytes
Step Temp E_pair E_mol TotEng Press Volume 
     161            0   -29090.422            0   -29090.422    30657.297    3522.7279 
     431            0   -29135.058            0   -29135.058    8316.3554    3545.5312 
Loop time of 2.94241 on 8 procs for 270 steps with 162 atoms

99.3% CPU use with 8 MPI tasks x no OpenMP threads

Minimization stats:
  Stopping criterion = linesearch alpha is zero
  Energy initial, next-to-last, final = 
        -29090.4215684     -29135.0580089     -29135.0580089
  Force two-norm initial, final = 3642.33 796.169
  Force max component initial, final = 3206.99 531.594
  Final line search alpha, max atom move = 1.10919e-14 5.89636e-12
  Iterations, force evaluations = 270 413

MPI task timing breakdown:
Section |  min time  |  avg time  |  max time  |%varavg| %total
---------------------------------------------------------------
Pair    | 2.3449     | 2.5037     | 2.6201     |   6.0 | 85.09
Neigh   | 0          | 0          | 0          |   0.0 |  0.00
Comm    | 0.015983   | 0.13153    | 0.29077    |  26.1 |  4.47
Output  | 0.00091463 | 0.0011003  | 0.0016134  |   0.6 |  0.04
Modify  | 0.29383    | 0.29405    | 0.29419    |   0.0 |  9.99
Other   |            | 0.01206    |            |       |  0.41

Nlocal:    20.25 ave 33 max 5 min
Histogram: 2 0 1 1 0 0 0 0 2 2
Nghost:    872 ave 921 max 820 min
Histogram: 1 3 0 0 0 0 0 0 2 2
Neighs:    2774.88 ave 4415 max 751 min
Histogram: 2 0 1 1 0 0 0 0 0 4

Total # of neighbors = 22199
Ave neighs/atom = 137.031
Neighbor list builds = 0
Dangerous builds = 0
WARNING: Using 'neigh_modify every 1 delay 0 check yes' setting during minimization (../min.cpp:190)
WARNING: Total cutoff < 2*bond cutoff. May need to use an increased neighbor list skin. (../pair_reaxc.cpp:413)
Setting up cg style minimization ...
  Unit style    : real
  Current step  : 431
Per MPI rank memory allocation (min/avg/max) = 22.46 | 23.47 | 24.43 Mbytes
Step Temp E_pair E_mol TotEng Press 
     431            0   -29135.058            0   -29135.058    8316.3554 
     658            0   -29160.167            0   -29160.167    29062.522 
Loop time of 13.0713 on 8 procs for 227 steps with 162 atoms

99.3% CPU use with 8 MPI tasks x no OpenMP threads

Minimization stats:
  Stopping criterion = energy tolerance
  Energy initial, next-to-last, final = 
        -29135.0580089     -29160.1665717     -29160.1666311
  Force two-norm initial, final = 243.621 42.3757
  Force max component initial, final = 33.9871 7.45114
  Final line search alpha, max atom move = 0.000357065 0.00266054
  Iterations, force evaluations = 227 1690

MPI task timing breakdown:
Section |  min time  |  avg time  |  max time  |%varavg| %total
---------------------------------------------------------------
Pair    | 9.4866     | 10.204     | 10.753     |  12.9 | 78.06
Neigh   | 0          | 0          | 0          |   0.0 |  0.00
Comm    | 0.077354   | 0.62409    | 1.3411     |  51.9 |  4.77
Output  | 0.00079611 | 0.00096276 | 0.0014488  |   0.0 |  0.01
Modify  | 2.2234     | 2.2249     | 2.2259     |   0.1 | 17.02
Other   |            | 0.01776    |            |       |  0.14

Nlocal:    20.25 ave 33 max 5 min
Histogram: 2 0 1 1 0 0 0 0 1 3
Nghost:    854 ave 908 max 793 min
Histogram: 1 0 3 0 0 0 0 1 1 2
Neighs:    2749.88 ave 4377 max 743 min
Histogram: 2 0 1 1 0 0 0 0 1 3

Total # of neighbors = 21999
Ave neighs/atom = 135.796
Neighbor list builds = 0
Dangerous builds = 0
WARNING: Using 'neigh_modify every 1 delay 0 check yes' setting during minimization (../min.cpp:190)
WARNING: Total cutoff < 2*bond cutoff. May need to use an increased neighbor list skin. (../pair_reaxc.cpp:413)
Setting up cg style minimization ...
  Unit style    : real
  Current step  : 658
WARNING: Energy due to 3 extra global DOFs will be included in minimizer energies
Per MPI rank memory allocation (min/avg/max) = 22.46 | 23.47 | 24.43 Mbytes
Step Temp E_pair E_mol TotEng Press Volume 
     658            0   -29160.167            0   -29160.167    29062.522    3545.5312 
     727            0   -29170.492            0   -29170.492   -541.45919    3551.2624 
Loop time of 0.801577 on 8 procs for 69 steps with 162 atoms

99.4% CPU use with 8 MPI tasks x no OpenMP threads

Minimization stats:
  Stopping criterion = energy tolerance
  Energy initial, next-to-last, final = 
        -29160.1666311     -29170.4923735     -29170.4923735
  Force two-norm initial, final = 3297.1 392.416
  Force max component initial, final = 2829.44 180.936
  Final line search alpha, max atom move = 5.27076e-13 9.53672e-11
  Iterations, force evaluations = 69 113

MPI task timing breakdown:
Section |  min time  |  avg time  |  max time  |%varavg| %total
---------------------------------------------------------------
Pair    | 0.63351    | 0.68127    | 0.71673    |   3.6 | 84.99
Neigh   | 0          | 0          | 0          |   0.0 |  0.00
Comm    | 0.0040903  | 0.039402   | 0.087214   |  14.8 |  4.92
Output  | 0.00023735 | 0.00028641 | 0.00042519 |   0.0 |  0.04
Modify  | 0.077301   | 0.077343   | 0.077375   |   0.0 |  9.65
Other   |            | 0.003278   |            |       |  0.41

Nlocal:    20.25 ave 33 max 5 min
Histogram: 2 0 1 1 0 0 0 0 1 3
Nghost:    857 ave 915 max 794 min
Histogram: 1 1 2 0 0 0 0 1 1 2
Neighs:    2759 ave 4377 max 740 min
Histogram: 2 0 1 1 0 0 0 0 0 4

Total # of neighbors = 22072
Ave neighs/atom = 136.247
Neighbor list builds = 0
Dangerous builds = 0
WARNING: Using 'neigh_modify every 1 delay 0 check yes' setting during minimization (../min.cpp:190)
WARNING: Total cutoff < 2*bond cutoff. May need to use an increased neighbor list skin. (../pair_reaxc.cpp:413)
Setting up cg style minimization ...
  Unit style    : real
  Current step  : 727
Per MPI rank memory allocation (min/avg/max) = 22.46 | 23.47 | 24.43 Mbytes
Step Temp E_pair E_mol TotEng Press 
     727            0   -29170.492            0   -29170.492   -541.45919 
     743            0   -29173.456            0   -29173.456    23144.102 
Loop time of 0.888236 on 8 procs for 16 steps with 162 atoms

99.3% CPU use with 8 MPI tasks x no OpenMP threads

Minimization stats:
  Stopping criterion = energy tolerance
  Energy initial, next-to-last, final = 
        -29170.4923735     -29173.4559057     -29173.4560127
  Force two-norm initial, final = 313.423 118.11
  Force max component initial, final = 36.2794 27.1395
  Final line search alpha, max atom move = 0.000654831 0.0177718
  Iterations, force evaluations = 16 113

MPI task timing breakdown:
Section |  min time  |  avg time  |  max time  |%varavg| %total
---------------------------------------------------------------
Pair    | 0.63603    | 0.68929    | 0.72785    |   3.7 | 77.60
Neigh   | 0          | 0          | 0          |   0.0 |  0.00
Comm    | 0.0044407  | 0.042811   | 0.096045   |  14.7 |  4.82
Output  | 7.6594e-05 | 9.1059e-05 | 0.00013317 |   0.0 |  0.01
Modify  | 0.15468    | 0.15479    | 0.15487    |   0.0 | 17.43
Other   |            | 0.00126    |            |       |  0.14

Nlocal:    20.25 ave 33 max 5 min
Histogram: 2 0 1 1 0 0 0 0 1 3
Nghost:    855 ave 915 max 790 min
Histogram: 1 1 2 0 0 0 0 1 1 2
Neighs:    2754.75 ave 4374 max 737 min
Histogram: 2 0 1 1 0 0 0 0 0 4

Total # of neighbors = 22038
Ave neighs/atom = 136.037
Neighbor list builds = 0
Dangerous builds = 0
WARNING: Total cutoff < 2*bond cutoff. May need to use an increased neighbor list skin. (../pair_reaxc.cpp:413)
Setting up Verlet run ...
  Unit style    : real
  Current step  : 0
  Time step     : 0.25
Per MPI rank memory allocation (min/avg/max) = 21.35 | 22.36 | 23.32 Mbytes
Step Temp TotEng KinEng PotEng Press 
       0          300   -29029.483    143.97313   -29173.456    24997.342 
     200    358.13312   -29055.666    171.87182   -29227.538   -22445.269 
     400    339.71082   -29113.286    163.03076   -29276.317    4218.4721 
     600    279.87629   -29136.221    134.31555   -29270.536    17554.827 
     800    334.97863   -29126.678    160.75974   -29287.437   -6811.8748 
    1000    301.44301   -29118.443    144.66564   -29263.109    8111.4084 
    1200    281.89997   -29116.843    135.28673   -29252.129    -22422.26 
    1400    314.60942   -29095.768    150.98434   -29246.753    18065.581 
    1600     310.9036   -29096.337    149.20588   -29245.543    11422.535 
    1800    247.76798    -29112.52    118.90643   -29231.426   -13619.125 
    2000    323.90273    -29080.44    155.44429   -29235.884   -4043.1029 
    2200    287.73231   -29097.135    138.08573   -29235.221    634.38245 
    2400    292.00745   -29095.874    140.13742   -29236.011   -22105.989 
    2600    300.59532   -29078.134    144.25882   -29222.392   -7628.6653 
    2800    312.77493   -29073.956    150.10395    -29224.06   -6532.8351 
    3000     281.8729   -29094.112    135.27374   -29229.386    -6624.118 
    3200    292.97768   -29084.211    140.60304   -29224.814      1607.92 
    3400     345.6332   -29079.312    165.87297   -29245.185    3224.9578 
    3600    289.49026   -29095.923    138.92939   -29234.853    24897.948 
    3800    302.05962   -29071.726    144.96156   -29216.687    23534.961 
    4000    281.83171   -29093.501    135.25398   -29228.755   -8256.6117 
    4200    287.15518    -29089.81    137.80876   -29227.619    26071.834 
    4400    314.88514   -29065.138    151.11666   -29216.255   -4377.3444 
    4600    285.18674   -29092.283    136.86409   -29229.147    6148.7457 
    4800    289.18382   -29098.822    138.78233   -29237.605    -21952.29 
    5000    355.21851   -29060.265    170.47307   -29230.738   -2698.0202 
    5200    324.42613   -29099.842    155.69548   -29255.538   -15370.318 
    5400     296.5956   -29098.572    142.33932   -29240.911   -729.39279 
    5600    320.97081   -29080.066    154.03723   -29234.103    9187.7466 
    5800     300.4457   -29110.186    144.18702   -29254.373     7509.545 
    6000      301.166   -29108.821     144.5327   -29253.354    32707.645 
    6200    285.67797   -29108.096    137.09984   -29245.196   -5204.7549 
    6400    304.77327   -29121.316    146.26387    -29267.58    47143.299 
    6600    285.10501   -29139.031    136.82486   -29275.856    14700.156 
    6800    320.03135   -29114.054    153.58638   -29267.641   -20944.501 
    7000    291.55328   -29126.729    139.91946   -29266.649    -11485.36 
    7200    298.37195   -29123.608    143.19181     -29266.8    2474.5105 
    7400    293.37878   -29096.688    140.79553   -29237.484    24491.913 
    7600    311.61085   -29099.426    149.54529   -29248.971   -32830.284 
    7800    283.26348   -29129.543    135.94109   -29265.484    30043.327 
    8000     301.8276   -29105.763    144.85021   -29250.613    32824.545 
    8200    292.12826   -29123.721     140.1954   -29263.917    9352.1584 
    8400    285.72248   -29129.693     137.1212   -29266.814    31506.474 
    8600    318.43595   -29110.866    152.82073   -29263.686    38756.644 
    8800    279.08914   -29142.831    133.93779   -29276.769   -43824.703 
    9000    314.43827   -29126.682     150.9022   -29277.584    7026.6565 
    9200    298.89023    -29113.45    143.44054   -29256.891   -4317.3534 
    9400    293.75335   -29118.712    140.97529   -29259.687   -13821.528 
    9600    292.66185   -29137.864    140.45147   -29278.316   -13723.847 
    9800    304.88546   -29111.668    146.31771   -29257.985   -5270.4997 
   10000    303.37678   -29111.446    145.59368   -29257.039    5826.7088 
   10200    295.22475   -29129.713    141.68143   -29271.394    -23509.81 
   10400    304.62508   -29115.921    146.19275   -29262.114    7564.9156 
   10600    307.62589   -29100.613    147.63287   -29248.245    14378.269 
   10800    304.26153   -29116.212    146.01828   -29262.231    4584.9431 
   11000     316.9711   -29106.833    152.11774   -29258.951   -16197.807 
   11200    324.31439   -29093.455    155.64185   -29249.097    -42423.89 
   11400    304.97578   -29120.722    146.36106   -29267.083    -13829.14 
   11600    312.84539   -29097.704    150.13776   -29247.842    20264.457 
   11800    315.21356    -29103.52    151.27427   -29254.795   -29528.578 
   12000    282.34298    -29117.77    135.49934    -29253.27    10536.681 
   12200    296.86029   -29098.037    142.46634   -29240.503   -8228.0668 
   12400    267.81936   -29135.187     128.5293   -29263.716    21899.077 
   12600    283.74144   -29115.992    136.17048   -29252.162    19988.204 
   12800    299.83056   -29095.088    143.89181    -29238.98    23647.808 
   13000    311.61558   -29116.296    149.54756   -29265.844   -16962.517 
   13200    275.00324   -29117.066    131.97692   -29249.043    11130.426 
   13400    319.73661   -29105.036    153.44493   -29258.481    21117.332 
   13600    291.14439   -29121.059    139.72322   -29260.782     3145.763 
   13800     253.9487    -29145.36    121.87263   -29267.233   -15300.127 
   14000    271.88074   -29113.066     130.4784   -29243.544    2438.1206 
   14200    291.89811   -29121.681    140.08494   -29261.766   -21664.308 
   14400    278.80741   -29123.507    133.80258    -29257.31    9996.1614 
   14600    321.26856   -29098.035    154.18013   -29252.215    13326.111 
   14800    279.45332   -29128.815    134.11256   -29262.928    2130.2892 
   15000       283.21   -29116.763    135.91543   -29252.678   -18120.216 
   15200    325.64255   -29111.976    156.27925   -29268.255   -15399.685 
   15400    274.64503   -29140.765    131.80501    -29272.57   -6173.5404 
   15600      312.608    -29113.61    150.02384   -29263.634    16673.886 
   15800    309.27449   -29114.279    148.42405   -29262.703      -9120.1 
   16000    262.91056   -29142.628    126.17352   -29268.801    33772.994 
   16200     304.9566    -29121.89    146.35185   -29268.242   -7746.5397 
   16400    288.92264   -29123.395    138.65698   -29262.052   -6437.3428 
   16600    294.63453   -29139.347    141.39818   -29280.745    5474.5405 
   16800    308.08833   -29117.399     147.8548   -29265.254    1111.5018 
   17000    321.00004   -29115.067    154.05127   -29269.118    5483.0926 
   17200    276.32847   -29137.859    132.61291   -29270.471   -15303.493 
   17400    324.56254   -29101.247    155.76095   -29257.008   -16671.541 
   17600    278.49972   -29128.897    133.65492   -29262.552   -188.14758 
   17800    303.45513   -29135.184    145.63128   -29280.816   -14753.846 
   18000     341.8065     -29100.8     164.0365   -29264.837   -23606.995 
   18200    316.61904   -29123.225    151.94877   -29275.174    23943.112 
   18400    294.29429   -29131.737     141.2349   -29272.971   -20230.683 
   18600    287.70293   -29130.801    138.07163   -29268.872   -9282.9997 
   18800    298.86025   -29117.202    143.42615   -29260.628    3198.2762 
   19000    306.75805   -29134.648    147.21639   -29281.865   -20470.754 
   19200    306.24768   -29138.837    146.97145   -29285.809   -23458.639 
   19400    308.31463   -29118.742     147.9634   -29266.705   -2391.2083 
   19600    296.59132   -29131.929    142.33727   -29274.267    12939.435 
   19800    286.89651   -29146.838    137.68462   -29284.523   -2050.4663 
   20000    291.12816   -29120.214    139.71544    -29259.93    5727.3364 
   20200    304.23859   -29118.685    146.00727   -29264.692    2498.5084 
   20400    269.62045   -29145.713    129.39366   -29275.107   -9270.1777 
   20600    301.19131   -29122.786    144.54485   -29267.331     9517.842 
   20800    300.20712   -29114.549    144.07253   -29258.622   -4278.1337 
   21000    289.44936   -29148.038    138.90977   -29286.948   -3652.4043 
   21200    298.38867   -29128.979    143.19983   -29272.179    13949.728 
   21400    305.29103   -29109.221    146.51234   -29255.733   -26512.604 
   21600    284.13984   -29140.305    136.36167   -29276.667    9438.0192 
   21800    303.70069   -29125.607    145.74913   -29271.356   -1256.9913 
   22000    310.72242   -29119.047    149.11893   -29268.166    23653.585 
   22200    311.15013   -29109.922    149.32419   -29259.246    2196.1844 
   22400    310.30148   -29113.822    148.91691   -29262.739    21987.691 
   22600    274.33563   -29132.546    131.65653   -29264.202    9895.8198 
   22800     328.6546   -29109.134    157.72477   -29266.858   -8036.8705 
   23000    288.99749   -29120.009    138.69291   -29258.702   -27690.577 
   23200    282.11449   -29132.271    135.38968   -29267.661    -33305.21 
   23400    285.23498   -29115.733    136.88724    -29252.62   -65433.296 
   23600    323.46658   -29100.748    155.23498   -29255.983   -12123.454 
   23800    303.81462   -29134.401     145.8038   -29280.205     16068.84 
   24000    301.19133   -29119.351    144.54485   -29263.896   -32432.155 
   24200    312.00074   -29109.765    149.73241   -29259.498   -2439.9536 
   24400    293.72015   -29127.171    140.95936    -29268.13    19981.552 
   24600     264.1899   -29149.147    126.78749   -29275.935    13407.167 
   24800    284.03597   -29119.729    136.31182   -29256.041   -18935.984 
   25000    314.43746   -29104.134    150.90181   -29255.036    12669.039 
   25200    307.08413   -29132.911    147.37287   -29280.284    22667.282 
   25400    305.93523     -29127.7     146.8215   -29274.521    30962.439 
   25600    285.69322   -29114.748    137.10715   -29251.855     -15052.7 
   25800    281.99836   -29119.409    135.33395   -29254.743     -17688.2 
   26000     268.4402   -29137.937    128.82725   -29266.764    1490.5304 
   26200    321.62899   -29110.987     154.3531    -29265.34     4544.748 
   26400    312.18191   -29114.952    149.81935   -29264.771    576.83397 
   26600    322.08041   -29121.959    154.56974   -29276.528    218.16446 
   26800    275.38991   -29128.908    132.16249    -29261.07    18758.731 
   27000     299.7617   -29126.523    143.85876   -29270.382   -15647.777 
   27200    306.81935   -29118.733     147.2458   -29265.979    32744.101 
   27400    269.35909   -29144.847    129.26823   -29274.115    1904.2081 
   27600    312.30232    -29123.07    149.87714   -29272.947   -2909.8618 
   27800    273.01243   -29154.641    131.02151   -29285.663    4782.5833 
   28000    310.34163   -29141.789    148.93618   -29290.726   -1824.8268 
   28200      318.327   -29118.578    152.76844   -29271.346    7655.4534 
   28400    292.06491   -29147.124    140.16499   -29287.289   -4337.4935 
   28600    292.01359    -29148.45    140.14036   -29288.591    3432.3587 
   28800    299.90806   -29127.303      143.929   -29271.232   -10135.202 
   29000    278.00707   -29131.691    133.41849    -29265.11    22288.817 
   29200    296.96432   -29128.761    142.51627   -29271.277   -21551.491 
   29400    299.57076   -29121.814    143.76713   -29265.581    1714.2088 
   29600    284.99618   -29146.288    136.77263    -29283.06    6373.1879 
   29800    287.49919   -29128.638    137.97386   -29266.612   -914.57278 
   30000     301.2763   -29126.931    144.58564   -29271.516    12419.197 
   30200    301.34766   -29128.384    144.61988   -29273.004    15192.766 
   30400    269.74663   -29152.658    129.45422   -29282.112    30913.311 
   30600    300.38556    -29118.28    144.15816   -29262.438   -18479.808 
   30800    270.30436   -29126.935    129.72188   -29256.657   -21229.412 
   31000    338.92811   -29110.047    162.65513   -29272.702   -37768.161 
   31200     331.6824   -29110.081    159.17784   -29269.259     28191.16 
   31400      293.227   -29130.826    140.72269   -29271.548    19362.939 
   31600    319.66082    -29117.79    153.40856   -29271.199   -25747.144 
   31800    265.97305   -29146.946    127.64324   -29274.589   -15105.827 
   32000    304.58674   -29123.287    146.17435   -29269.461    16636.198 
   32200     299.3157   -29124.744    143.64472   -29268.389    27602.964 
   32400    280.38593   -29138.254    134.56013   -29272.815    13848.803 
   32600     275.3419   -29152.409    132.13945   -29284.548   -17417.882 
   32800    313.70024   -29118.523    150.54801   -29269.071   -18079.314 
   33000     281.3007   -29131.981    134.99914    -29266.98   -9852.6749 
   33200    300.56213   -29135.251     144.2429   -29279.494    26914.828 
   33400    312.45227   -29112.974     149.9491   -29262.923   -12252.093 
   33600    290.48197    -29134.72    139.40533   -29274.125   -473.13591 
   33800    303.89721   -29111.585    145.84344   -29257.428   -27721.453 
   34000    307.08075   -29121.625    147.37125   -29268.996   -22695.869 
   34200    308.58429   -29134.308    148.09281   -29282.401     29887.29 
   34400    297.80118   -29130.497    142.91789   -29273.415    46150.719 
   34600    317.87171    -29107.53    152.54994    -29260.08    2800.6484 
   34800    282.55391   -29118.324    135.60056   -29253.925   -12440.675 
   35000     276.8601   -29148.044    132.86804   -29280.912    11069.154 
   35200    327.54285   -29117.057    157.19123   -29274.248   -33252.441 
   35400    316.02268   -29125.055    151.66258   -29276.717   -15039.141 
   35600    279.83446   -29150.769    134.29547   -29285.065   -170.67129 
   35800    306.06781   -29128.243    146.88513   -29275.128    18360.823 
   36000    311.20384   -29120.395    149.34996   -29269.745    17096.326 
   36200     290.9699   -29121.766    139.63949   -29261.406    17579.585 
   36400     327.6635   -29095.982    157.24913   -29253.231     -28293.6 
   36600    314.45808   -29129.407    150.91171   -29280.319   -5130.0383 
   36800    276.15615   -29127.128    132.53021   -29259.659     1548.265 
   37000    326.88658   -29117.818    156.87628   -29274.695   -33947.865 
   37200    298.25568   -29140.246    143.13601   -29283.382     17974.47 
   37400    329.71402   -29114.882    158.23319   -29273.115    10922.085 
   37600    306.55813    -29126.77    147.12044    -29273.89    18642.482 
   37800    303.74854   -29112.598    145.77209   -29258.371   -6353.2809 
   38000    317.86029   -29127.607    152.54446   -29280.152    3141.4064 
   38200    271.02136   -29134.323    130.06597   -29264.389    3746.3747 
   38400    352.24476   -29102.337    169.04593   -29271.383    122.25017 
   38600     304.6178   -29112.129    146.18926   -29258.318   -32834.904 
   38800    306.52071   -29136.516    147.10248   -29283.618   -26384.498 
   39000    304.66853   -29136.433     146.2136   -29282.646   -3531.0721 
   39200    304.37681   -29121.195     146.0736   -29267.268    4078.9223 
   39400    289.02464   -29139.902    138.70594   -29278.608   -44199.746 
   39600    299.36716   -29120.479    143.66942   -29264.149    35288.205 
   39800     271.7367   -29152.491    130.40927     -29282.9    47178.431 
   40000    295.07772    -29128.93    141.61087   -29270.541   -21971.171 
   40200    286.33152   -29130.705    137.41348   -29268.118   -14155.386 
   40400    281.35695   -29158.218    135.02613   -29293.244    2864.9098 
   40600     321.2762   -29126.038    154.18379   -29280.222   -36117.992 
   40800    297.63195   -29111.672    142.83668   -29254.508    31575.311 
   41000    293.91604   -29129.243    141.05337   -29270.297   -2453.6936 
   41200    292.42287   -29134.697    140.33678   -29275.034   -24197.594 
   41400    298.89685   -29112.164    143.44371   -29255.608   -8886.3471 
   41600     273.4464   -29133.402    131.22978   -29264.632   -9690.6846 
   41800    331.00669   -29094.987    158.85356   -29253.841   -2786.3817 
   42000    272.48234   -29126.356    130.76711   -29257.123   -39389.043 
   42200    305.36393   -29121.665    146.54733   -29268.212    21479.169 
   42400    331.55065   -29097.773    159.11461   -29256.887   -37927.067 
   42600    271.76939   -29135.391    130.42496   -29265.816    8695.2877 
   42800    320.62977   -29115.584    153.87357   -29269.458    -20104.81 
   43000    333.59813   -29083.724    160.09722   -29243.822   -15579.823 
   43200    316.19081   -29106.299    151.74326   -29258.043   -12760.479 
   43400    294.12294   -29119.427    141.15266    -29260.58   -36116.527 
   43600    315.43014   -29112.901    151.37821    -29264.28     1791.633 
   43800    327.22909   -29116.492    157.04065   -29273.533    28329.365 
   44000    282.57906   -29134.772    135.61263   -29270.384    33046.929 
   44200     283.1042   -29115.595    135.86465    -29251.46   -12431.449 
   44400    294.31716   -29109.871    141.24587   -29251.117   -8199.0101 
   44600    277.06405   -29131.383    132.96592   -29264.349   -14897.451 
   44800    311.63727    -29124.64    149.55797   -29274.197   -203.21445 
   45000    282.03034    -29123.66     135.3493   -29259.009    -609.2841 
   45200    356.82566   -29094.555    171.24435     -29265.8   -11378.333 
   45400    279.60754   -29127.958    134.18657   -29262.144   -16587.958 
   45600    317.49952   -29125.294    152.37133   -29277.665   -7861.5879 
   45800    329.60532   -29100.113    158.18103   -29258.294    -2448.651 
   46000    285.86076   -29123.912    137.18756   -29261.099   -11439.345 
   46200    303.70862    -29130.92    145.75293   -29276.673   -16845.684 
   46400    334.19072   -29103.497    160.38161   -29263.879    9538.4554 
   46600    298.23241   -29133.545    143.12484    -29276.67   -4053.9843 
   46800    308.76913   -29121.418    148.18152     -29269.6    22539.009 
   47000    295.35941   -29118.268    141.74606   -29260.015    4319.7916 
   47200    281.75821   -29142.725     135.2187   -29277.943   -3802.0724 
   47400    286.75886   -29129.175    137.61856   -29266.794   -25743.686 
   47600    312.07414   -29126.196    149.76763   -29275.964    110.76705 
   47800    295.21823   -29122.642     141.6783    -29264.32     26461.59 
   48000    298.53064   -29131.723    143.26797    -29274.99   -19179.197 
   48200    314.78995   -29111.202    151.07098   -29262.273   -46062.005 
   48400    300.07282    -29120.42    144.00807   -29264.428    26372.419 
   48600    300.71167   -29142.333    144.31466   -29286.648    1524.2316 
   48800    301.81855   -29114.399    144.84587   -29259.245   -2565.6538 
   49000    315.28991   -29137.503    151.31091   -29288.814     52415.12 
   49200    270.69066   -29141.061    129.90727   -29270.968    16010.688 
   49400    303.97084   -29117.666    145.87877   -29263.545   -10264.335 
   49600    254.09463   -29153.332    121.94266   -29275.274     14771.91 
   49800    304.28487   -29128.732    146.02948   -29274.761   -11363.564 
   50000    292.88315   -29127.589    140.55767   -29268.147    28943.071 
   50200    277.50744   -29156.366    133.17871   -29289.545   -34240.709 
   50400    307.55287   -29128.006    147.59783   -29275.604   -11785.083 
   50600    300.97366   -29115.209    144.44039    -29259.65    -17816.31 
   50800    297.20136   -29099.353    142.63003   -29241.983    2628.6948 
   51000    275.03954   -29124.681    131.99434   -29256.675    32192.263 
   51200    294.42571   -29118.823    141.29797   -29260.121   -22193.849 
   51400    322.23533   -29097.616    154.64409    -29252.26    25931.136 
   51600    266.62133   -29123.951    127.95435   -29251.905   -15818.981 
   51800    304.16572   -29118.974     145.9723   -29264.947   -8587.9813 
   52000     331.5496    -29090.46    159.11411   -29249.574    1516.8899 
   52200    292.55555   -29123.385    140.40046   -29263.785       -11703 
   52400    303.62685    -29117.73    145.71369   -29263.444    8617.1084 
   52600    332.30075   -29100.965    159.47459    -29260.44   -11094.429 
   52800      307.145   -29136.869    147.40209   -29284.271   -25606.311 
   53000    288.49964    -29128.61    138.45398   -29267.064   -24320.633 
   53200     304.6565   -29100.824    146.20783   -29247.032   -39424.125 
   53400    290.41235   -29134.937    139.37191   -29274.309     568.0593 
   53600    292.14561   -29123.045    140.20372   -29263.249    36267.324 
   53800    311.15486   -29103.952    149.32646   -29253.278    24806.753 
   54000    268.02315   -29140.723     128.6271    -29269.35    22022.355 
   54200    268.93159   -29116.726    129.06307   -29245.789   -30037.199 
   54400    315.16031   -29113.876    151.24872   -29265.124   -20258.933 
   54600     270.4754   -29128.032    129.80396   -29257.836   -45380.705 
   54800     288.8755   -29128.595    138.63436    -29267.23    -19333.59 
   55000    323.67694   -29101.013    155.33594   -29256.349    14334.888 
   55200    271.10888   -29125.526    130.10797   -29255.634   -53168.482 
   55400    300.03433    -29127.73     143.9896    -29271.72    5832.7146 
   55600    327.03741   -29107.306    156.94866   -29264.255    27351.125 
   55800    308.10325   -29120.748    147.86196    -29268.61    26878.589 
   56000     316.0707   -29135.145    151.68562    -29286.83    15717.588 
   56200    336.14219   -29107.375    161.31814   -29268.693   -26851.998 
   56400    305.85043   -29120.661    146.78081   -29267.442    247.78304 
   56600      285.008   -29135.206    136.77831   -29271.985   -10153.824 
   56800    306.50512   -29104.405      147.095     -29251.5     -3306.46 
   57000    289.49787   -29121.286    138.93304   -29260.219   -33953.713 
   57200    310.63253   -29125.011    149.07579   -29274.087    63308.287 
   57400    292.94987   -29115.895    140.58969   -29256.485   -8232.2619 
   57600    283.34148   -29118.742    135.97853    -29254.72    64310.252 
   57800    261.18913   -29154.373    125.34739   -29279.721    619.07958 
   58000    286.59089   -29120.244    137.53795   -29257.782   -5820.2628 
   58200     293.2159   -29105.401    140.71737   -29246.119    40893.635 
   58400    278.53813   -29133.448    133.67335   -29267.121   -7342.1206 
   58600    293.18301   -29107.427    140.70158   -29248.128    25509.208 
   58800    295.95132   -29111.009    142.03012   -29253.039   -4235.5916 
   59000     289.9894   -29127.145    139.16893   -29266.314   -24916.348 
   59200     303.7233   -29097.119    145.75998   -29242.879   -39501.644 
   59400    306.11236    -29124.06    146.90651   -29270.966   -36736.387 
   59600    302.05145   -29122.773    144.95764   -29267.731   -15377.787 
   59800    321.15828   -29113.523     154.1272    -29267.65    27909.508 
   60000     304.4749   -29134.863    146.12068   -29280.984   -3992.7186 
   60200     305.8055   -29127.531    146.75925    -29274.29   -7605.7673 
   60400    319.90623   -29112.929    153.52633   -29266.455    4540.3106 
   60600    310.31379    -29123.75    148.92282   -29272.672    7852.3247 
   60800    297.04433   -29111.796    142.55467   -29254.351    38704.657 
   61000    334.69254   -29086.686    160.62244   -29247.308   -30374.335 
   61200    298.39132   -29123.527     143.2011   -29266.728   -15825.281 
   61400    270.57689    -29126.17    129.85267   -29256.023   -2834.4457 
   61600     327.6589    -29096.88    157.24692   -29254.127     18839.81 
   61800    300.40785   -29133.409    144.16886   -29277.578   -29139.076 
   62000    301.15149   -29118.305    144.52574   -29262.831     -4048.29 
   62200    303.60852    -29103.06    145.70489   -29248.765   -25458.114 
   62400      268.383   -29143.161     128.7998   -29271.961   -15497.199 
   62600    284.01895   -29132.269    136.30365   -29268.573      36943.5 
   62800    307.90731   -29109.653    147.76793   -29257.421    437.25044 
   63000    305.05796   -29140.501    146.40049   -29286.901    8853.6189 
   63200    281.41304   -29133.975    135.05305   -29269.028   -8358.7809 
   63400    298.09636   -29115.529    143.05955   -29258.589    -8114.847 
   63600    292.22323    -29132.17    140.24097   -29272.411   -17718.999 
   63800    281.31263   -29147.067    135.00486   -29282.072   -25658.167 
   64000    288.88512   -29118.723    138.63898   -29257.362   -47657.414 
   64200    317.77064   -29105.949    152.50144    -29258.45   -16788.751 
   64400    256.80569   -29139.048    123.24372   -29262.292   -14449.482 
   64600    301.88609   -29118.431    144.87828    -29263.31    22958.792 
   64800    287.26945   -29118.069     137.8636   -29255.932    10952.245 
   65000    283.12932   -29131.672    135.87671   -29267.549    1798.5425 
   65200    276.98889   -29147.842    132.92985   -29280.772    14567.676 
   65400    297.63476   -29115.498    142.83802   -29258.336   -16596.517 
   65600    272.21479   -29117.177    130.63871   -29247.816    8403.2732 
   65800    275.10105   -29131.288    132.02386   -29263.312    2480.8477 
   66000    311.12747   -29101.294    149.31331   -29250.607   -1325.7018 
   66200    294.12294   -29112.088    141.15266    -29253.24   -6387.6244 
   66400     304.1244   -29123.852    145.95247   -29269.805   -48853.323 
   66600     296.0615   -29114.607      142.083    -29256.69    36451.136 
   66800    322.19978   -29094.921    154.62703   -29249.548    12284.805 
   67000     288.1575   -29126.742    138.28979   -29265.031   -16793.351 
   67200    288.23313   -29126.182    138.32608   -29264.508    7743.5446 
   67400    328.06742   -29098.403    157.44297   -29255.846   -9348.6296 
   67600    298.73435    -29117.92    143.36573   -29261.286     31184.82 
   67800    321.53333    -29117.84    154.30719   -29272.147    45686.505 
   68000    306.02857   -29103.904     146.8663   -29250.771    16971.874 
   68200    308.71866    -29118.18     148.1573   -29266.337   -17234.678 
   68400    290.57182   -29130.785    139.44845   -29270.234   -380.14357 
   68600    342.28188   -29099.501    164.26464   -29263.765   -50278.263 
   68800    292.73571   -29119.965    140.48692   -29260.452   -11788.035 
   69000    286.07258   -29127.888    137.28921   -29265.178   -20751.865 
   69200    328.85574   -29094.682     157.8213   -29252.503   -5573.7156 
   69400    285.33143    -29120.05    136.93352   -29256.983   -20664.872 
   69600    281.10453   -29121.097    134.90499   -29256.002     8372.679 
   69800    318.70469   -29105.487     152.9497   -29258.436   -34136.957 
   70000    302.19897   -29112.332    145.02843    -29257.36   -7158.8866 
   70200    280.30449   -29130.384    134.52105   -29264.905    16183.563 
   70400    318.35838   -29094.068     152.7835   -29246.852    28023.218 
   70600    313.81369   -29095.953    150.60246   -29246.555   -3919.1254 
   70800    274.53307   -29122.235    131.75128   -29253.986    14117.856 
   71000    296.64775   -29136.864    142.36435   -29279.229    1717.8159 
   71200    284.45891   -29110.827     136.5148   -29247.342    38528.348 
   71400    294.37273   -29106.825    141.27254   -29248.098   -52303.482 
   71600    288.96265    -29134.36    138.67619   -29273.036   -45645.339 
   71800    302.96184   -29122.996    145.39454    -29268.39   -8994.3252 
   72000    284.03907   -29117.026    136.31331   -29253.339   -31468.602 
   72200    296.65182   -29123.049     142.3663   -29265.415     1546.433 
   72400    321.12857   -29137.777    154.11295    -29291.89    20461.949 
   72600    314.28678   -29106.153     150.8295   -29256.983    -33181.99 
   72800    289.50447   -29116.859    138.93621   -29255.795   -13721.289 
   73000    305.20039       -29122    146.46885   -29268.468   -3600.0531 
   73200    334.47365   -29122.651    160.51739   -29283.169   -5686.8899 
   73400    287.13919   -29125.729    137.80109    -29263.53    24097.842 
   73600    320.42493   -29110.271    153.77526   -29264.046    17814.414 
   73800    315.84603   -29112.088     151.5778   -29263.666    -23124.57 
   74000    270.37878   -29138.075     129.7576   -29267.833   -50348.949 
   74200    341.07869   -29106.137    163.68722   -29269.825   -1430.5775 
   74400    300.38495   -29116.462    144.15787    -29260.62   -5998.2518 
   74600      292.635   -29138.077    140.43859   -29278.516    28928.172 
   74800    296.20931   -29107.893    142.15393   -29250.047    4114.2427 
   75000    311.56221   -29117.363    149.52195   -29266.885    1520.3794 
   75200    299.30605   -29129.924    143.64009   -29273.564    22205.011 
   75400    324.53538   -29123.055    155.74791   -29278.802   -28707.898 
   75600    310.56562   -29126.797    149.04368   -29275.841    33126.149 
   75800    278.07061   -29143.273    133.44898   -29276.722   -38008.739 
   76000    270.02677   -29157.653    129.58866   -29287.241    14866.507 
   76200    296.74322   -29131.465    142.41016   -29273.875    143.80149 
   76400    292.35145   -29135.933    140.30251   -29276.235    23327.575 
   76600    313.95721   -29141.106    150.67134   -29291.777    51835.337 
   76800    305.12687    -29140.52    146.43356   -29286.953   -45156.943 
   77000     281.5331   -29112.838    135.11067   -29247.948    -37891.08 
   77200    282.00523   -29134.293    135.33725    -29269.63    -7682.468 
   77400      292.994    -29136.07    140.61087   -29276.681    2101.2745 
   77600    322.46097   -29113.259    154.75238   -29268.011   -30390.901 
   77800    290.50657   -29125.624    139.41713   -29265.041    4207.7148 
   78000    292.89184   -29142.091    140.56185   -29282.653   -10114.677 
   78200    323.53954    -29110.64    155.26999    -29265.91     12708.49 
   78400    324.36638    -29111.09    155.66681   -29266.757    38804.782 
   78600    280.13933   -29139.363    134.44178   -29273.805   -29536.161 
   78800    308.59311   -29115.306    148.09705   -29263.403    754.34189 
   79000    303.45371   -29115.507     145.6306   -29261.138    -5955.843 
   79200    291.75419     -29128.5    140.01588   -29268.516    11262.449 
   79400    297.22491   -29126.395    142.64133   -29269.036   -16601.812 
   79600    343.22555   -29102.325    164.71752   -29267.043   -25822.899 
   79800     296.9275   -29127.185     142.4986   -29269.684   -4929.0628 
   80000    289.64667   -29124.708    139.00445   -29263.713    18149.767 
   80200    295.26089   -29103.087    141.69878   -29244.785   -1377.6571 
   80400      278.329   -29125.285    133.57299   -29258.858   -8693.1484 
   80600    287.85351   -29136.358     138.1439   -29274.502     25079.22 
   80800    332.81369   -29103.117    159.72076   -29262.838   -11558.227 
   81000    294.53762   -29126.254    141.35167   -29267.606    14764.824 
   81200    270.88144   -29134.624    129.99883   -29264.623     4628.813 
   81400     299.4913   -29113.813    143.72899   -29257.542    -2773.345 
   81600    307.29199   -29117.359    147.47263   -29264.831    2837.6952 
   81800    297.15543   -29135.154    142.60799   -29277.762    4803.0752 
   82000    300.89062   -29109.471    144.40054   -29253.872    44247.087 
   82200    303.56592   -29112.017    145.68445   -29257.702   -67106.163 
   82400    294.30428   -29137.415    141.23969   -29278.655   -15979.415 
   82600    298.46242   -29109.748    143.23522   -29252.983    15194.364 
   82800    285.24894   -29141.736    136.89394   -29278.629   -23124.416 
   83000    302.14249   -29131.578    145.00133   -29276.579    -1356.827 
   83200    317.01412   -29118.475    152.13838   -29270.613    3674.6904 
   83400      276.889   -29150.781    132.88192   -29283.663    2670.6607 
   83600     279.4108   -29125.082    134.09216   -29259.174   -49359.426 
   83800    306.01588   -29118.988    146.86021   -29265.848    7805.2787 
   84000    296.86766   -29136.863    142.46988   -29279.333   -60626.787 
   84200    312.06304   -29121.555     149.7623   -29271.317    8016.8394 
   84400    311.16314   -29109.842    149.33043   -29259.172    46725.659 
   84600    311.94929   -29120.796    149.70772   -29270.504   -10396.664 
   84800    285.61338   -29131.516    137.06884   -29268.584   -19102.611 
   85000    315.92448   -29103.345    151.61545    -29254.96   -8877.3683 
   85200    296.62041   -29128.505    142.35122   -29270.857    11994.516 
   85400     295.7469   -29139.687    141.93202   -29281.619    30163.301 
   85600    294.67111   -29114.778    141.41574   -29256.193    20969.415 
   85800    301.68072   -29125.025    144.77972   -29269.805    659.23296 
   86000    273.56901   -29142.092    131.28862   -29273.381   -5471.4074 
   86200     302.3248   -29119.299    145.08882   -29264.388   -8619.7506 
   86400    291.71132   -29123.436     139.9953   -29263.431   -5768.4636 
   86600    288.01123   -29121.874    138.21959   -29260.093   -30180.611 
   86800    293.41288   -29100.914     140.8119   -29241.726   -17183.207 
   87000     291.5516   -29125.699    139.91865   -29265.618   -12736.269 
   87200    317.22638   -29125.503    152.24024   -29277.743    7734.7637 
   87400    284.01597   -29112.708    136.30222    -29249.01    15761.662 
   87600    301.05942    -29123.97    144.48155   -29268.452   -41656.077 
   87800    249.64086   -29160.926    119.80525   -29280.731   -11650.193 
   88000    295.43082   -29141.129    141.78033    -29282.91   -31913.776 
   88200    314.70006     -29116.5    151.02784   -29267.528    25910.426 
   88400    276.42594   -29139.021    132.65969   -29271.681   -19482.146 
   88600    294.23951   -29138.464    141.20861   -29279.673    25858.709 
   88800    309.82311   -29121.073    148.68734    -29269.76   -24266.407 
   89000    287.92952   -29115.657    138.18038   -29253.838    13026.915 
   89200    313.78418   -29093.496     150.5883   -29244.085    6892.6794 
   89400     303.8812   -29114.083    145.83575   -29259.919   -7121.0199 
   89600    303.24584   -29124.191    145.53084   -29269.722    16534.935 
   89800    303.22341   -29114.003    145.52007   -29259.523   -13114.911 
   90000    346.68762   -29081.191      166.379    -29247.57   -8500.7735 
   90200    333.63687   -29113.666    160.11581   -29273.782   -9198.4329 
   90400    265.72923   -29126.513    127.52623   -29254.039   -11309.775 
   90600    339.75302   -29097.057    163.05101   -29260.108    4859.1833 
   90800     285.1874   -29121.238    136.86441   -29258.102    13563.793 
   91000    284.15732   -29129.204    136.37006   -29265.574     19820.95 
   91200    307.17118    -29116.52    147.41465   -29263.935    -13950.47 
   91400    299.11835    -29106.51    143.55001    -29250.06   -4420.6261 
   91600    288.27654    -29137.17    138.34691   -29275.516   -10263.301 
   91800     310.1867   -29115.323    148.86183   -29264.185    15309.578 
   92000    292.81071   -29134.083    140.52291   -29274.606    20781.879 
   92200     276.4373   -29143.733    132.66514   -29276.398    3295.8301 
   92400     321.5162   -29115.101    154.29898     -29269.4   -412.93946 
   92600    314.74549   -29130.761    151.04964   -29281.811   -23089.027 
   92800    288.85084   -29163.454    138.62253   -29302.076    5965.2754 
   93000    307.87957   -29140.225    147.75461    -29287.98    20580.734 
   93200    304.07849    -29121.38    145.93044   -29267.311    28824.653 
   93400     310.4019   -29103.623    148.96511   -29252.588    40457.518 
   93600    286.42684   -29130.194    137.45922   -29267.653   -15968.548 
   93800    303.79607   -29121.058     145.7949   -29266.853    11047.592 
   94000    338.67055   -29108.841    162.53153   -29271.372    4846.4977 
   94200     304.0295   -29128.117    145.90693   -29274.024    31765.649 
   94400    296.91767   -29130.568    142.49388   -29273.062    4806.0202 
   94600    335.80465   -29102.854    161.15615   -29264.011    33788.845 
   94800    277.17821   -29132.927    133.02071   -29265.948   -10478.352 
   95000    296.09533    -29130.26    142.09924   -29272.359    30611.698 
   95200    326.36116   -29127.005    156.62412   -29283.629    20004.895 
   95400    300.59026   -29123.444    144.25639   -29267.701   -19719.816 
   95600    323.76699   -29091.937    155.37915   -29247.316    30428.954 
   95800    300.06393   -29127.185    144.00381   -29271.188   -24000.806 
   96000     320.3535   -29113.009    153.74098    -29266.75   -2309.7286 
   96200    319.10774   -29119.262    153.14313   -29272.405   -32361.305 
   96400    273.55735   -29129.758    131.28302   -29261.041   -46550.313 
   96600    306.59114   -29104.227    147.13628   -29251.363   -5472.8457 
   96800     283.3647   -29126.511    135.98967     -29262.5    28559.027 
   97000    291.22925   -29128.157    139.76395   -29267.921   -11104.096 
   97200    294.52779    -29125.42    141.34695   -29266.767    3633.2582 
   97400    304.19315   -29132.764    145.98546   -29278.749     -41608.3 
   97600    281.89178   -29141.362     135.2828   -29276.645   -19961.625 
   97800    289.67936   -29136.777    139.02014   -29275.798    9334.4373 
   98000    334.39808   -29113.485    160.48112   -29273.966    577.10871 
   98200    302.25065   -29147.777    145.05324    -29292.83    4527.3976 
   98400    312.08884   -29128.855    149.77469    -29278.63     68251.42 
   98600     286.0107   -29113.139    137.25951   -29250.398   -19703.545 
   98800     313.9875   -29124.773    150.68587   -29275.459   -3993.9967 
   99000    272.55689    -29136.75    130.80289   -29267.553   -2998.5131 
   99200    305.92492   -29112.515    146.81655   -29259.331    48841.287 
   99400    289.88017   -29138.272    139.11651   -29277.388    64166.851 
   99600    292.04234   -29123.301    140.15416   -29263.455    4942.0945 
   99800    317.92997   -29105.824     152.5779   -29258.402   -23022.524 
  100000    270.97137   -29134.974    130.04198   -29265.016   -34018.645 
  100200    295.75465   -29124.826    141.93574   -29266.761   -1913.4966 
  100400    339.09307   -29110.187     162.7343   -29272.921    32898.155 
  100600    283.44091   -29128.753    136.02624   -29264.779    5099.7318 
  100800    288.24006   -29111.321    138.32941   -29249.651    13542.859 
  101000    335.71183   -29076.257    161.11161   -29237.368   -25484.512 
  101200    305.55416   -29118.249    146.63863   -29264.888   -13356.243 
  101400    316.71983   -29133.816    151.99714   -29285.813    33072.649 
  101600    315.64956   -29121.407    151.48351    -29272.89   -21358.504 
  101800    322.46225   -29109.667    154.75299    -29264.42   -34177.345 
  102000    302.77098   -29139.537    145.30295    -29284.84   -31285.897 
  102200    281.14789   -29118.833     134.9258   -29253.759   -11386.948 
  102400    320.82137   -29119.372    153.96552   -29273.337   -60174.615 
  102600    293.25229   -29138.387    140.73483   -29279.122    22194.718 
  102800    262.01771   -29155.758    125.74503   -29281.503    672.12104 
  103000    281.54702   -29118.167    135.11735   -29253.284   -30165.758 
  103200    312.03038   -29117.877    149.74663   -29267.623    -20820.51 
  103400      281.133    -29145.46    134.91866   -29280.379      43686.8 
  103600    312.10522   -29128.819    149.78255   -29278.601   -17862.316 
  103800    295.85603   -29132.721    141.98439   -29274.706   -28975.917 
  104000    290.78999   -29155.041    139.55315   -29294.594   -6150.2563 
  104200    285.40493   -29124.104     136.9688   -29261.073   -36195.516 
  104400    299.74403   -29125.728    143.85028   -29269.578   -29868.569 
  104600    251.93369   -29153.486     120.9056   -29274.391   -8641.4864 
  104800      315.267   -29121.644    151.29992   -29272.944   -37820.099 
  105000     289.4435   -29129.999    138.90695   -29268.906   -23105.479 
  105200    288.79156   -29145.103    138.59408   -29283.697   -1962.1699 
  105400    331.09493   -29110.107    158.89591   -29269.003   -14897.157 
  105600    272.18896   -29133.069    130.62632   -29263.695   -53394.413 
  105800    314.76768   -29124.941    151.06029   -29276.001   -30876.522 
  106000    329.77047   -29111.911    158.26028   -29270.172     73085.08 
  106200    291.81018   -29132.489    140.04274   -29272.532   -21899.859 
  106400     303.0763    -29127.98    145.44947   -29273.429    19745.653 
  106600    317.01067   -29097.925    152.13672   -29250.062    21529.283 
  106800    311.18369    -29126.97    149.34029   -29276.311    59680.659 
  107000    320.18607   -29125.212    153.66063   -29278.872   -25416.091 
  107200     291.4392   -29098.681    139.86471   -29238.546    5220.2087 
  107400     288.9372   -29130.937    138.66397   -29269.601   -23865.487 
  107600    294.83861   -29125.033    141.49612   -29266.529   -19708.468 
  107800      347.785   -29099.214    166.90565    -29266.12    13526.909 
  108000    303.31796   -29134.451    145.56545   -29280.017    15613.534 
  108200    299.21563   -29118.517     143.5967   -29262.114    4586.3899 
  108400    319.36259   -29118.576    153.26544   -29271.841    7586.9852 
  108600    293.80465   -29141.519    140.99991   -29282.519     3155.737 
  108800    326.54742   -29120.244    156.71351   -29276.958    4200.9439 
  109000    284.43832    -29147.77    136.50491   -29284.274   -25214.028 
  109200    275.91826   -29133.811    132.41605   -29266.227   -5059.9272 
  109400    306.00467   -29119.818    146.85483   -29266.673    15302.008 
  109600     278.0638   -29129.708    133.44571   -29263.153   -11931.705 
  109800    310.61887   -29124.749    149.06923   -29273.819    21492.879 
  110000     322.9467   -29104.257    154.98548   -29259.242     17714.35 
  110200    304.90466   -29126.124    146.32692   -29272.451   -39333.151 
  110400    267.58626   -29156.772    128.41743    -29285.19     59017.56 
  110600    327.38132   -29123.908     157.1137   -29281.022    12888.295 
  110800    294.92514   -29115.381    141.53765   -29256.919   -5716.2394 
  111000    276.77687   -29142.763    132.82811   -29275.591    -15493.76 
  111200    302.36761   -29123.154    145.10936   -29268.264    8657.9503 
  111400    306.33603   -29116.755    147.01385   -29263.769   -1461.4146 
  111600    306.51338   -29134.768    147.09897   -29281.867    31022.845 
  111800    318.31373   -29106.792    152.76207   -29259.554    11984.637 
  112000    289.65073   -29122.333     139.0064    -29261.34    57212.785 
  112200    270.21579   -29130.436    129.67937   -29260.116    -47121.92 
  112400    303.00769   -29118.113    145.41655    -29263.53   -18259.412 
  112600    276.26842   -29116.905    132.58409   -29249.489    7201.7135 
  112800    274.28869   -29120.765      131.634   -29252.399   -16129.654 
  113000    315.08963   -29134.193     151.2148   -29285.407   -11023.832 
  113200    280.41085   -29136.938    134.57209    -29271.51    5266.4817 
  113400    305.30087   -29110.318    146.51707   -29256.835   -26006.008 
  113600    295.07292   -29133.609    141.60857   -29275.217   -306.81822 
  113800     283.8736   -29147.714     136.2339   -29283.947   -21268.807 
  114000    290.95212   -29119.948    139.63095   -29259.579    12602.102 
  114200    316.74408   -29101.705    152.00878   -29253.714   -24634.234 
  114400    279.59718   -29124.405     134.1816   -29258.587    22950.827 
  114600    262.68525   -29129.471    126.06539   -29255.537   -27167.035 
  114800    329.62393   -29099.717    158.18996   -29257.907    13130.146 
  115000    295.75895   -29115.198     141.9378   -29257.136    6700.9141 
  115200    299.58499   -29136.995    143.77396   -29280.769    23538.953 
  115400     333.6301   -29108.434    160.11256   -29268.547   -28008.897 
  115600    302.96561   -29120.903    145.39635     -29266.3   -1569.2212 
  115800    281.85378    -29136.81    135.26457   -29272.074    17366.032 
  116000    317.08063   -29111.619     152.1703   -29263.789    30165.391 
  116200    316.57198   -29104.263    151.92619   -29256.189    11497.608 
  116400    276.23911   -29129.475    132.57003   -29262.045    21388.934 
  116600    337.97835   -29099.599    162.19933   -29261.798   -41557.062 
  116800    298.37658   -29120.197    143.19403   -29263.391    3482.2104 
  117000     312.2509    -29126.98    149.85246   -29276.832    30381.784 
  117200    297.27282   -29110.411    142.66432   -29253.076   -11235.242 
  117400    272.17553   -29136.051    130.61987   -29266.671   -38647.034 
  117600     283.7141   -29130.278    136.15735   -29266.436    11607.673 
  117800    303.39399   -29112.366    145.60194   -29257.968    62752.789 
  118000     277.4809   -29139.756    133.16598   -29272.922    25846.237 
  118200    264.88888   -29136.262    127.12293   -29263.385   -42840.584 
  118400    306.29556   -29122.519    146.99443   -29269.513    10323.884 
  118600    312.24693   -29115.392    149.85056   -29265.242   -29087.021 
  118800    320.24085   -29126.088    153.68692   -29279.775   -9543.9316 
  119000    286.75599   -29116.059    137.61719   -29253.676   -51899.321 
  119200    313.06604   -29101.254    150.24365   -29251.497    56772.682 
  119400    305.54603   -29133.554    146.63473   -29280.189   -5921.1071 
  119600    310.30341   -29118.386    148.91784   -29267.304   -64085.312 
  119800    302.27654   -29116.574    145.06566    -29261.64    29793.123 
  120000    272.95696   -29140.758    130.99489   -29271.753    4169.2611 
  120200    321.25027   -29108.249    154.17135    -29262.42     -2133.21 
  120400    302.73311   -29116.844    145.28477   -29262.129    71.485558 
  120600     286.3468   -29122.269    137.42081   -29259.689    21455.468 
  120800    288.35729   -29109.862    138.38567   -29248.247    14862.232 
  121000    311.83137   -29129.288    149.65112   -29278.939   -43698.368 
  121200    317.82513   -29124.738    152.52759   -29277.266    3356.9826 
  121400    319.42513   -29108.308    153.29545   -29261.604    4042.2932 
  121600    287.87136   -29127.211    138.15247   -29265.363   -41992.528 
  121800    339.93907   -29093.802     163.1403   -29256.943   -12783.336 
  122000    319.59696   -29105.142    153.37791    -29258.52   -2942.8255 
  122200    267.40469   -29130.281     128.3303   -29258.611   -19861.842 
  122400    313.62695   -29118.171    150.51284   -29268.684   -10812.053 
  122600     316.8643   -29106.206    152.06648   -29258.272    9036.7981 
  122800    304.05407   -29124.704    145.91871   -29270.623    9462.0371 
  123000    277.92624   -29111.574     133.3797   -29244.954   -10950.306 
  123200    324.64321    -29084.56    155.79966    -29240.36   -20776.363 
  123400    318.25925   -29110.691    152.73593   -29263.427    105101.63 
  123600    272.19547   -29119.351    130.62944    -29249.98   -5723.8446 
  123800    303.77742   -29112.098    145.78595   -29257.884    12276.383 
  124000    320.13013    -29111.35    153.63379   -29264.983   -5679.1453 
  124200    292.12826   -29135.253     140.1954   -29275.448    24447.241 
  124400     303.8124   -29108.996    145.80273   -29254.799   -32766.117 
  124600    296.64004   -29113.925    142.36064   -29256.286   -47966.712 
  124800    295.33487   -29129.256    141.73428   -29270.991   -5829.5379 
  125000    326.25384   -29118.888    156.57261    -29275.46   -24940.753 
  125200    278.21585   -29121.145    133.51869   -29254.663    65267.845 
  125400    270.44087   -29141.753    129.78739    -29271.54    18327.451 
  125600    310.64821    -29111.17    149.08331   -29260.253    10999.789 
  125800    305.99135    -29112.03    146.84844   -29258.878    474.79803 
  126000    289.47503   -29143.568    138.92208    -29282.49   -38933.602 
  126200    319.99408   -29122.594    153.56849   -29276.163    28226.729 
  126400    325.68761   -29116.978    156.30088   -29273.278    1734.2138 
  126600    283.60726   -29149.566    136.10608   -29285.672   -51797.299 
  126800    304.68472   -29123.776    146.22137   -29269.998   -721.37958 
  127000    276.67507   -29117.724    132.77925   -29250.503   -39775.032 
  127200    311.44787   -29106.668    149.46708   -29256.135   -17136.519 
  127400     302.4581   -29112.779     145.1528   -29257.932   -24193.082 
  127600    269.28537   -29133.983    129.23286   -29263.216   -12798.222 
  127800     313.1189   -29106.467    150.26902   -29256.736    3378.7869 
  128000    321.51252   -29108.947    154.29721   -29263.244    35400.265 
  128200     285.9301   -29131.664    137.22083   -29268.885    26791.304 
  128400     319.8133   -29106.524    153.48173   -29260.006    63626.785 
  128600    324.73398   -29111.134    155.84322   -29266.978    6865.3861 
  128800    274.91777   -29130.019     131.9359   -29261.955   -11075.354 
  129000    307.38388    -29120.32    147.51673   -29267.837   -39748.782 
  129200    328.25411    -29096.66    157.53256   -29254.192   -18674.577 
  129400    319.26319   -29122.645    153.21773   -29275.863   -3656.6421 
  129600    298.42656   -29121.132    143.21801    -29264.35   -12557.652 
  129800    317.16088   -29094.298    152.20881   -29246.507    22806.954 
  130000    323.99149   -29117.573    155.48689    -29273.06    13791.948 
  130200    293.82944   -29115.466    141.01181   -29256.478    41492.241 
  130400    309.31531    -29099.12    148.44364   -29247.564   -18034.098 
  130600    317.69858   -29108.467    152.46686   -29260.934   -27321.606 
  130800    281.04671    -29127.96    134.87724   -29262.837    2215.6551 
  131000    312.19709   -29107.108    149.82664   -29256.934    17924.461 
  131200    326.12817   -29110.483    156.51231   -29266.996    27216.228 
  131400    315.37996   -29130.053    151.35413   -29281.407    15716.726 
  131600    294.25974   -29122.754    141.21831   -29263.973   -992.14601 
  131800    328.98643   -29095.966    157.88401    -29253.85     1804.856 
  132000    295.90059   -29131.849    142.00577   -29273.855    11036.378 
  132200    317.73541   -29116.548    152.48453   -29269.033   -53270.937 
  132400    314.28662   -29096.677    150.82942   -29247.506   -18447.988 
  132600    299.05278   -29122.185    143.51854   -29265.703   -45235.549 
  132800    284.53897   -29131.052    136.55322   -29267.605   -10893.038 
  133000    301.69561   -29099.967    144.78687   -29244.754    10948.634 
  133200    309.89753   -29113.597    148.72305    -29262.32   -49189.754 
  133400    302.14831   -29124.236    145.00412    -29269.24     41409.74 
  133600    302.26409   -29128.121    145.05969   -29273.181    45951.769 
  133800    299.28587   -29113.949    143.63041   -29257.579   -24100.023 
  134000    305.09956   -29112.072    146.42046   -29258.492    4606.6305 
  134200     291.8923   -29137.559    140.08215   -29277.641    281.04193 
  134400     306.8615   -29108.536    147.26603   -29255.802   -3181.2366 
  134600    292.76628   -29118.595    140.50159   -29259.097    7574.6952 
  134800    281.65739   -29129.486    135.17031   -29264.656    22019.237 
  135000    336.33355    -29099.35    161.40998    -29260.76    41550.318 
  135200     300.6661   -29126.577    144.29279    -29270.87     34886.58 
  135400    305.37669   -29121.271    146.55345   -29267.825    5599.0172 
  135600    295.91192   -29115.994    142.01121   -29258.005   -32791.961 
  135800    280.31018   -29143.541    134.52377   -29278.065    19271.474 
  136000    300.24049    -29114.19    144.08854   -29258.278   -23230.305 
  136200    309.77548   -29119.742    148.66448   -29268.407   -10792.678 
  136400    323.61433   -29127.935    155.30589   -29283.241    61522.886 
  136600    317.38129   -29117.533    152.31459   -29269.848    15485.095 
  136800    330.46648   -29100.467    158.59431   -29259.061    20769.911 
  137000    291.14901   -29126.477    139.72544   -29266.202   -22155.571 
  137200    307.97155   -29108.756    147.79876   -29256.555    2915.8938 
  137400    326.62782    -29092.11    156.75209   -29248.862    494.79438 
  137600    295.79406   -29128.157    141.95465   -29270.112   -47054.207 
  137800    290.58478   -29123.772    139.45466   -29263.227   -15109.748 
  138000    330.93919   -29101.582    158.82117   -29260.403    27000.572 
  138200    283.22465   -29136.773    135.92246   -29272.696   -7548.9162 
  138400    308.97441   -29120.301    148.28004   -29268.581    53552.679 
  138600    300.74583   -29117.413    144.33106   -29261.744   -1912.3673 
  138800    295.28841   -29145.317    141.71199   -29287.029   -23516.133 
  139000    318.00227   -29118.886     152.6126   -29271.498   -31757.869 
  139200    264.11153   -29143.298    126.74988   -29270.048   -364.52056 
  139400     305.7207    -29137.38    146.71855   -29284.098     45226.92 
  139600    314.80315     -29116.2    151.07731   -29267.277   -15828.334 
  139800    280.06152   -29138.048    134.40444   -29272.452    2617.9359 
  140000    284.38835   -29154.485    136.48093   -29290.966    -29742.27 
  140200    269.85208   -29125.859    129.50483   -29255.364    36259.779 
  140400     291.3966   -29132.243    139.84426   -29272.087    32252.105 
  140600    257.71932   -29150.452    123.68218   -29274.134   -6271.6447 
  140800    284.68474   -29136.468    136.62317   -29273.091   -47556.818 
  141000    313.35624    -29118.73    150.38292   -29269.113    296.62948 
  141200    319.98361   -29097.367    153.56347   -29250.931    9517.9526 
  141400    272.05512   -29137.849    130.56209   -29268.411   -45200.393 
  141600     337.5241   -29123.019    161.98133       -29285   -14001.068 
  141800     333.4925   -29099.825    160.04652   -29259.871   -38844.442 
  142000     265.7155    -29139.92    127.51963    -29267.44   -1233.2574 
  142200    300.57047   -29123.412     144.2469   -29267.659     2700.836 
  142400    319.89347   -29116.761    153.52021   -29270.281   -14337.871 
  142600    304.13023   -29145.058    145.95526   -29291.014     -5165.54 
  142800    301.42136   -29117.327    144.65525   -29261.982    -16828.82 
  143000    304.60537   -29128.069    146.18329   -29274.252    11683.853 
  143200    270.11099   -29162.384    129.62908   -29292.013     35825.08 
  143400    282.24938    -29146.69    135.45442   -29282.144   -39184.715 
  143600    320.73552   -29118.903    153.92432   -29272.827   -11214.138 
  143800    312.66503   -29118.635    150.05121   -29268.687   -15834.346 
  144000    288.44556   -29141.294    138.42803   -29279.722   -26794.601 
  144200    306.12371    -29115.14    146.91196   -29262.052   -25936.774 
  144400    292.77427   -29120.414    140.50542    -29260.92    54448.182 
  144600    276.86555   -29135.073    132.87066   -29267.944    2626.0589 
  144800     297.6419   -29122.654    142.84145   -29265.495    24290.754 
  145000    334.41265   -29105.935    160.48812   -29266.423    6628.3814 
  145200    276.10987   -29140.805      132.508   -29273.313   -32416.855 
  145400    309.26875    -29123.76     148.4213   -29272.181   -8676.2601 
  145600    318.16784   -29113.837    152.69206   -29266.529    9928.3694 
  145800    315.00372   -29114.799    151.17357   -29265.972   -6214.2274 
  146000    305.91748   -29121.812    146.81299   -29268.625    45504.245 
  146200    276.48768   -29145.821    132.68932    -29278.51    45731.709 
  146400    293.03827   -29114.039    140.63212   -29254.672   -16336.539 
  146600     296.1992   -29119.411    142.14908    -29261.56   -27118.917 
  146800    284.57792   -29142.217    136.57191   -29278.788   -1900.8379 
  147000    306.72211   -29105.833    147.19914   -29253.032   -18342.756 
  147200     295.8627   -29122.768    141.98759   -29264.755    53932.749 
  147400    250.28724   -29134.624    120.11546   -29254.739    9823.8751 
  147600    323.33578   -29099.743    155.17221   -29254.915    14327.947 
  147800    309.97068   -29128.927    148.75816   -29277.685   -22604.188 
  148000    290.09878   -29124.367    139.22143   -29263.588   -11898.578 
  148200      306.169   -29103.314    146.93369   -29250.247   -17477.237 
  148400    298.54036   -29098.122    143.27263   -29241.395    11948.884 
  148600    302.13194   -29124.267    144.99627   -29269.263    15852.649 
  148800    300.37173   -29122.001    144.15152   -29266.153    3779.3188 
  149000    319.72568   -29107.541    153.43968    -29260.98     15060.15 
  149200    296.03312   -29132.015    142.06938   -29274.085    20919.607 
  149400    298.62171   -29132.248    143.31167   -29275.559     -9130.84 
  149600    333.11343   -29104.133    159.86461   -29263.997    14088.955 
  149800    296.92498   -29130.858    142.49739   -29273.355    15183.606 
  150000    338.75982   -29120.535    162.57437    -29283.11   -48642.723 
  150200    291.64159    -29104.28    139.96184   -29244.242   -36315.461 
  150400    312.31157   -29124.934    149.88158   -29274.815    24726.518 
  150600    290.61155   -29129.871    139.46751   -29269.338    -26108.57 
  150800    274.15849   -29145.285    131.57152   -29276.856   -21891.285 
  151000    305.64514   -29115.217    146.68229     -29261.9    26149.093 
  151200    294.70787    -29128.13    141.43338   -29269.563   -2066.5594 
  151400    278.37818   -29156.066    133.59659   -29289.663   -2636.1579 
  151600    270.93895   -29150.269    130.02642   -29280.296   -1473.7622 
  151800    297.56896    -29125.57    142.80644   -29268.376    1862.8086 
  152000    303.33794   -29127.048    145.57504   -29272.623    5051.4819 
  152200     285.1168   -29150.387    136.83052   -29287.218   -18137.255 
  152400    321.07822   -29117.122    154.08878   -29271.211   -34738.734 
  152600    304.46393   -29133.595    146.11541    -29279.71    -11658.85 
  152800    268.32632   -29121.831     128.7726   -29250.603    3572.0563 
  153000    329.76353   -29108.212    158.25695   -29266.469    55702.377 
  153200     283.5783   -29133.599    136.09218   -29269.692    13783.512 
  153400    290.40706    -29123.49    139.36937    -29262.86   -42175.907 
  153600    284.35591   -29117.507    136.46537   -29253.972   -14450.232 
  153800    310.39145    -29122.32    148.96009    -29271.28    18378.467 
  154000    286.83819   -29135.593    137.65664    -29273.25    42949.271 
  154200    328.70942   -29109.569    157.75108    -29267.32   -19134.145 
  154400     288.9757   -29128.682    138.68245   -29267.365   -13332.713 
  154600    288.18101   -29136.342    138.30107   -29274.643   -3089.1959 
  154800    308.42513   -29112.574    148.01644    -29260.59   -33732.931 
  155000     296.6625   -29118.638    142.37142   -29261.009    4293.1494 
  155200    284.42625    -29135.54    136.49912   -29272.039   -18651.754 
  155400    344.03851   -29104.967    165.10766   -29270.075   -8898.9152 
  155600    300.40395   -29117.988    144.16699   -29262.155    8758.4587 
  155800    313.33973   -29121.394      150.375   -29271.769   -530.80044 
  156000    306.34284    -29120.88    147.01712   -29267.897   -2277.3939 
  156200    263.95301   -29140.496     126.6738    -29267.17     2343.157 
  156400    324.23003   -29113.887    155.60137   -29269.489    47191.271 
  156600    298.33035   -29117.881    143.17184   -29261.053    23369.303 
  156800    267.68836   -29143.021    128.46643   -29271.488    11962.526 
  157000      315.549   -29128.427    151.43525   -29279.862    2802.0885 
  157200    320.48631   -29105.929    153.80472   -29259.734   -26339.149 
  157400    298.11007   -29133.307    143.06613   -29276.373   -32242.846 
  157600    291.33178   -29121.894    139.81315   -29261.707    22445.199 
  157800    292.10555   -29119.931     140.1845   -29260.116   -4685.4152 
  158000    302.18845   -29124.519    145.02339   -29269.542   -14489.925 
  158200    342.63905    -29099.33    164.43605   -29263.766   -4114.9402 
  158400    280.79299   -29131.988    134.75548   -29266.743   -18828.409 
  158600    308.83341   -29118.607    148.21237   -29266.819    -59193.56 
  158800    307.09298    -29110.82    147.37712   -29258.198   -472.45521 
  159000    284.26878   -29133.566    136.42355   -29269.989   -7143.2317 
  159200    299.89556   -29106.126    143.92301   -29250.049   -18734.686 
  159400     303.3614   -29112.045     145.5863   -29257.631    5163.4646 
  159600    294.54378   -29117.352    141.35463   -29258.706    37935.377 
  159800    291.38974   -29110.352    139.84097   -29250.193    6441.1467 
  160000    281.34251   -29136.132     135.0192   -29271.151    7953.9929 
  160200    313.37798   -29108.076    150.39336   -29258.469    28325.819 
  160400    299.90281   -29113.383    143.92648    -29257.31    -47590.73 
  160600    273.52447   -29139.623    131.26724    -29270.89   -17708.333 
  160800    273.76063   -29152.324    131.38058   -29283.705    51389.689 
  161000    291.05081   -29122.189    139.67831   -29261.868    8823.7016 
  161200    327.31539   -29115.126    157.08207   -29272.208    19616.255 
  161400    289.95624   -29142.836    139.15302   -29281.989    34216.984 
  161600    318.37696   -29116.104    152.79242   -29268.896   -37305.966 
  161800    323.04358   -29116.483    155.03198   -29271.515   -12066.131 
  162000    275.13013    -29140.14    132.03782   -29272.178   -22335.119 
  162200    286.62403   -29130.787    137.55386   -29268.341    1488.2001 
  162400    296.45824   -29109.684     142.2734   -29251.957   -48217.778 
  162600    248.82821   -29129.625    119.41525    -29249.04   -7702.7164 
  162800     262.9795    -29126.94     126.2066   -29253.147   -31788.721 
  163000    357.28636   -29109.403    171.46545   -29280.868    -34909.71 
  163200    280.94385   -29132.262    134.82788    -29267.09   -4174.6254 
  163400    297.91645   -29098.207    142.97321   -29241.181    12403.698 
  163600    308.80596   -29116.313     148.1992   -29264.512    27128.282 
  163800    283.28387   -29129.177    135.95088   -29265.127    12454.883 
  164000    313.88629   -29094.594     150.6373   -29245.232    9918.0334 
  164200    316.25858   -29113.419    151.77579   -29265.195    905.05956 
  164400    284.20543   -29130.655    136.39314   -29267.048    25799.471 
  164600    276.00767   -29119.063    132.45896   -29251.522   -20444.126 
  164800    313.84961   -29107.572     150.6197   -29258.192    3452.8994 
  165000    273.32804   -29134.366    131.17298   -29265.539    30602.763 
  165200    304.43031   -29118.225    146.09928   -29264.324   -21950.926 
  165400     325.3168   -29118.103    156.12292   -29274.226    34230.412 
  165600    273.65863   -29139.692    131.33163   -29271.023    2906.2583 
  165800    316.52186   -29107.574    151.90214   -29259.476   -30631.614 
  166000     313.2447    -29118.59    150.32939    -29268.92    2849.7347 
  166200    275.04868   -29124.301    131.99873   -29256.299    11981.792 
  166400    294.29688    -29120.13    141.23614   -29261.366    19909.348 
  166600    302.13654   -29126.772    144.99847   -29271.771    14274.785 
  166800    275.74549   -29144.388    132.33313   -29276.721   -26079.588 
  167000    316.00797   -29114.517    151.65552   -29266.173     3131.738 
  167200    305.45317   -29129.162    146.59016   -29275.753   -25845.869 
  167400     257.3473   -29160.577    123.50365   -29284.081   -34257.169 
  167600    272.64141   -29150.038    130.84346   -29280.881    -11070.38 
  167800    288.49086   -29126.018    138.44977   -29264.468    101.16012 
  168000    310.31224    -29125.39    148.92208   -29274.312    20746.004 
  168200    279.63049   -29153.792    134.19759    -29287.99    41137.523 
  168400    296.15256   -29123.097     142.1267   -29265.223   -9275.7061 
  168600    308.84614   -29128.286    148.21848   -29276.504   -5818.9651 
  168800    270.00406   -29150.456    129.57776   -29280.034     -14536.3 
  169000    271.61203   -29151.291    130.34944   -29281.641   -19644.976 
  169200    314.35002   -29121.958    150.85985   -29272.818    26349.304 
  169400    272.42313   -29137.975     130.7387   -29268.714    28192.951 
  169600    317.06861   -29133.869    152.16453   -29286.034   -15693.147 
  169800    326.94834   -29118.868    156.90592   -29275.774    9132.3593 
  170000    274.60367   -29139.376    131.78516   -29271.162    7252.9362 
  170200     308.7173   -29113.596    148.15665   -29261.753   -9915.0922 
  170400    335.44064   -29123.213    160.98146   -29284.194    -22205.64 
  170600    290.67315   -29137.091    139.49707   -29276.588   -31680.141 
  170800     315.3905   -29141.142    151.35919   -29292.501    32824.104 
  171000    329.85239   -29120.243     158.2996   -29278.543    -25608.48 
  171200    297.02894   -29126.333    142.54728    -29268.88    27291.961 
  171400    264.22368    -29143.14     126.8037   -29269.944   -19609.345 
  171600    292.74192   -29124.615     140.4899   -29265.105   -12498.536 
  171800     305.1135    -29125.47    146.42715   -29271.897     -9459.41 
  172000    335.93729   -29095.448     161.2198   -29256.668    34966.367 
  172200     291.8644   -29127.077    140.06877   -29267.145   -10215.061 
  172400    280.25771   -29125.868    134.49859   -29260.366   -6255.4891 
  172600    328.36689   -29104.078    157.58669   -29261.665    19746.384 
  172800     270.4581   -29135.036    129.79566   -29264.831   -32322.414 
  173000    301.18661   -29126.697    144.54259    -29271.24    1072.5011 
  173200    307.11344   -29107.665    147.38694   -29255.052   -3979.2511 
  173400    267.18058   -29148.206    128.22275   -29276.429     13164.86 
  173600    305.88164   -29121.379    146.79579   -29268.175    28556.669 
  173800    294.66758   -29119.629    141.41404   -29261.043    19424.326 
  174000    283.38682   -29151.256    136.00029   -29287.257    4542.1583 
  174200    296.97096   -29129.224    142.51946   -29271.743    18916.823 
  174400    302.10395   -29121.838    144.98283   -29266.821   -8164.0729 
  174600    280.66485   -29155.126    134.69399    -29289.82    -2007.619 
  174800    317.55547   -29130.526    152.39818   -29282.924   -17672.315 
  175000    307.12364   -29126.942    147.39183   -29274.334   -7724.4373 
  175200    302.42465   -29113.775    145.13674   -29258.912   -17800.998 
  175400    292.00785   -29122.675    140.13761   -29262.812    26567.279 
  175600    276.45311   -29134.977    132.67273    -29267.65    45210.624 
  175800    305.81929   -29104.568    146.76586   -29251.334     15218.94 
  176000    312.09513   -29124.042     149.7777   -29273.819    26902.038 
  176200    297.14944   -29128.145    142.60511    -29270.75   -16799.698 
  176400     290.8863    -29117.95    139.59937   -29257.549   -5201.3183 
  176600    331.26644    -29109.87    158.97822   -29268.849    1208.9597 
  176800     296.5649   -29139.267    142.32458   -29281.592   -43132.326 
  177000    328.99321   -29115.967    157.88727   -29273.854   -16407.311 
  177200    300.68898   -29123.765    144.30378   -29268.069    20509.535 
  177400    315.54536   -29110.919     151.4335   -29262.352    11581.506 
  177600     327.5522   -29104.383    157.19571   -29261.578   -19008.875 
  177800    272.74234   -29123.111    130.89189   -29254.003    19585.951 
  178000    315.23066   -29110.861    151.28248   -29262.144    -17221.43 
  178200    327.64533    -29107.03    157.24041    -29264.27   -4152.9226 
  178400    282.74665   -29135.718    135.69306   -29271.411   -17219.534 
  178600    326.84902    -29112.49    156.85825   -29269.348   -12714.701 
  178800    326.36046   -29110.847    156.62378   -29267.471   -21771.434 
  179000    290.56445   -29131.572    139.44491   -29271.017   -12946.551 
  179200    324.50229   -29097.893    155.73203   -29253.625    12260.795 
[...]
  950000    312.06549   -29160.727    149.76348   -29310.491   -10710.134 
  950200    272.41002   -29157.298    130.73241   -29288.031    -19890.56 
  950400    290.13037   -29139.883    139.23659   -29279.119   -18753.951 
  950600    285.28018   -29168.544    136.90893   -29305.453   -19648.275 
  950800    288.51159   -29141.681    138.45972   -29280.141    18848.823 
  951000    303.96108   -29147.036    145.87409    -29292.91     -9439.37 
  951200    286.11131   -29153.783     137.3078    -29291.09    23313.963 
  951400    334.68227   -29127.034    160.61751   -29287.652    8599.4802 
  951600     309.7304   -29156.944    148.64284   -29305.587    30024.774 
  951800    280.40265   -29154.452    134.56815    -29289.02    35812.364 
  952000     346.3222    -29127.67    166.20363   -29293.874    49486.048 
  952200     310.4316   -29133.525    148.97936   -29282.504   -35471.131 
  952400    291.38179   -29157.803    139.83716    -29297.64   -28613.877 
  952600    294.46216   -29158.406    141.31546   -29299.721   -51263.158 
  952800    335.31034   -29129.932    160.91893   -29290.851   -19027.811 
  953000     304.7279   -29162.525    146.24209   -29308.767    5825.5738 
  953200    288.65411   -29155.409    138.52811   -29293.937   -28078.166 
  953400    303.99362   -29131.927    145.88971   -29277.817   -28381.064 
  953600    312.70965   -29171.464    150.07262   -29321.536   -27160.402 
  953800    293.67454    -29150.65    140.93747   -29291.588   -54938.675 
  954000    317.39319   -29142.199     152.3203    -29294.52    31588.612 
  954200    249.85768   -29166.324     119.9093   -29286.234   -49663.898 
  954400    243.68683    -29193.49    116.94785   -29310.438   -38628.671 
  954600    286.36049   -29156.908    137.42738   -29294.335    15538.433 
  954800    302.30468   -29140.582    145.07916   -29285.662   -12375.958 
  955000    290.20867   -29169.693    139.27417   -29308.967    3546.5216 
  955200    308.65171   -29158.929    148.12517   -29307.054    10756.291 
  955400    313.59191   -29149.704    150.49602     -29300.2    21904.377 
  955600    279.61742   -29151.402    134.19131   -29285.593    58129.111 
  955800    298.93583     -29162.6    143.46242   -29306.062   -17145.716 
  956000    291.61271   -29151.066    139.94798   -29291.014   -5289.9721 
  956200    303.19498   -29135.623    145.50643    -29281.13    -47502.75 
  956400    281.78236   -29170.289    135.23029   -29305.519    5375.6692 
  956600     288.0218   -29148.977    138.22466   -29287.202    26375.886 
  956800    316.63672   -29139.161    151.95726   -29291.118   -16496.404 
  957000    280.37676   -29176.052    134.55573   -29310.608    6460.4197 
  957200    305.23954   -29148.068    146.48763   -29294.556    22760.585 
  957400    292.17599   -29147.661     140.2183   -29287.879    33925.396 
  957600     268.0339   -29183.401    128.63226   -29312.033     12392.79 
  957800     283.9336     -29161.2    136.26269   -29297.463    28973.324 
  958000    313.15214   -29143.985    150.28497    -29294.27   -23827.552 
  958200    303.72212   -29157.715    145.75941   -29303.475   -20190.282 
  958400     272.8392   -29164.374    130.93837   -29295.313    1976.6532 
  958600    303.40352    -29139.58    145.60651   -29285.187    20307.288 
  958800     299.2114   -29152.208    143.59467   -29295.803   -20977.143 
  959000    271.97892   -29178.789    130.52552   -29309.315    2028.5818 
  959200    322.18935   -29141.843    154.62202   -29296.466    48446.642 
  959400    302.24559   -29154.144    145.05081   -29299.195     30769.95 
  959600     285.1235   -29174.274    136.83374   -29311.108    8531.9765 
  959800    301.71549   -29153.694     144.7964    -29298.49    6023.3892 
  960000    306.60132   -29143.897    147.14117   -29291.038   -57158.509 
  960200    291.69802   -29176.106    139.98892   -29316.095   -1259.9818 
  960400    296.98924   -29165.625    142.52823   -29308.154   -6759.0942 
  960600    303.78851   -29150.495    145.79127   -29296.286   -19694.521 
  960800    346.93713    -29117.42    166.49874   -29283.919   -3722.2356 
  961000    296.61849   -29156.501     142.3503   -29298.851    21443.266 
  961200    299.03237   -29159.156    143.50875   -29302.664    22190.884 
  961400    336.58333   -29133.491    161.52984   -29295.021   -6083.0633 
  961600    282.62814   -29160.818    135.63619   -29296.454   -15065.017 
  961800    272.33055   -29159.356    130.69427   -29290.051   -41681.031 
  962000    314.29666   -29139.793    150.83424   -29290.628    21202.249 
  962200    325.98679    -29149.06    156.44445   -29305.505   -43309.625 
  962400    302.86135   -29155.939    145.34632   -29301.285   -10227.198 
  962600    277.29921   -29165.807    133.07878   -29298.885    23540.893 
  962800    287.11638   -29172.351    137.79014   -29310.142   -49540.555 
  963000     334.0737   -29144.099    160.32545   -29304.425    12586.921 
  963200      284.452   -29160.164    136.51148   -29296.675    20795.169 
  963400    267.97267   -29180.725    128.60287   -29309.328   -13492.646 
  963600    304.47555   -29157.764    146.12099   -29303.885    39024.675 
  963800    284.25362   -29141.607    136.41627   -29278.023   -55702.468 
  964000    321.26444   -29131.584    154.17815   -29285.762   -59885.598 
  964200    285.10899   -29157.191    136.82678   -29294.018    13152.176 
  964400    319.48115   -29136.919    153.32233   -29290.242    38097.687 
  964600    331.09761   -29133.324    158.89719   -29292.221    2865.6377 
  964800    283.77349   -29151.257    136.18586   -29287.443    10764.979 
  965000    294.63045   -29155.607    141.39622   -29297.003    8361.9913 
  965200    295.72776   -29141.864    141.92283   -29283.787   -32908.816 
  965400    273.33671   -29144.216    131.17714   -29275.393   -7664.5416 
  965600    272.37725   -29170.852    130.71668   -29301.569   -41572.166 
  965800    317.43604   -29136.407    152.34086   -29288.748    -18726.02 
  966000    296.54805   -29151.193     142.3165   -29293.509   -19418.525 
  966200     288.4164   -29156.137    138.41404   -29294.551    29447.383 
  966400    331.34672   -29130.152    159.01674   -29289.169   -208.91238 
  966600    292.30312   -29159.505    140.27931   -29299.784    75.760913 
  966800    288.17323   -29151.831    138.29734   -29290.128   -138.24031 
  967000    295.15088   -29154.452    141.64598   -29296.098    64846.613 
  967200    268.86823   -29173.488    129.03267    -29302.52    22138.759 
  967400    312.78426    -29140.72    150.10843   -29290.829    27605.066 
  967600     251.5754   -29161.876    120.73366   -29282.609    10579.028 
  967800    296.75373   -29165.434     142.4152   -29307.849   -18157.112 
  968000    337.46341   -29153.685    161.95221   -29315.637   -9566.3062 
  968200    289.87936   -29161.069    139.11612   -29300.185   -26669.913 
  968400    279.55487   -29174.436    134.16129   -29308.597    17458.114 
  968600    323.38745   -29144.033      155.197    -29299.23    12736.584 
  968800    309.97883   -29158.588    148.76207    -29307.35    56890.199 
  969000    306.47473   -29172.545    147.08041   -29319.625    21735.882 
  969200    296.17469   -29149.892    142.13732    -29292.03   -21921.072 
  969400    309.51438   -29142.674    148.53917   -29291.213    -21558.81 
  969600    280.01732   -29175.965    134.38323   -29310.348    10653.072 
  969800    285.63532   -29160.095    137.07937   -29297.175    24988.579 
  970000    279.25822   -29149.834    134.01893   -29283.853    21015.776 
  970200    321.75286   -29141.279    154.41255   -29295.692   -25773.386 
  970400    300.19047   -29159.334    144.06453   -29303.399   -17631.858 
  970600    300.32141   -29164.693    144.12738   -29308.821    26655.716 
  970800    314.92878   -29135.093     151.1376    -29286.23     13031.82 
  971000    283.18582   -29157.815    135.90383   -29293.719   -20015.265 
  971200    319.32194   -29156.632    153.24593   -29309.878   -42647.032 
  971400    264.67297    -29148.28    127.01932   -29275.299    22529.517 
  971600    298.28717   -29147.748    143.15112   -29290.899   -20646.404 
  971800    294.20314   -29151.225    141.19115   -29292.416    14872.445 
  972000    306.14539   -29151.098    146.92236    -29298.02    12236.016 
  972200    308.72087   -29140.974    148.15836   -29289.133   -39800.215 
  972400    280.45188   -29168.374    134.59178   -29302.966    6350.0765 
  972600    316.04207   -29155.642    151.67188   -29307.314    40257.059 
  972800    294.42497    -29145.82    141.29761   -29287.118    5036.8899 
  973000    302.47504   -29167.466    145.16092   -29312.627    3833.4224 
  973200     296.8053   -29156.012    142.43996   -29298.452    32291.106 
  973400     312.5107    -29145.36    149.97714   -29295.337    3976.7692 
  973600    289.18907    -29169.01    138.78485   -29307.795    43407.618 
  973800    323.41655   -29128.725    155.21097   -29283.936   -18260.336 
  974000    333.02045   -29150.257    159.81999   -29310.077   -673.32227 
  974200    284.70074   -29165.494    136.63085   -29302.125    16382.221 
  974400    328.12049   -29129.366    157.46844   -29286.834    70125.963 
  974600    319.47658   -29147.396    153.32014   -29300.716   -4985.7721 
  974800    308.14442   -29156.621    147.88172   -29304.503   -19881.404 
  975000    289.35651   -29161.881     138.8652   -29300.747   -3060.1644 
  975200    301.86441   -29149.505    144.86788   -29294.373   -13920.982 
  975400    322.09405   -29148.257    154.57629   -29302.833    10166.374 
  975600     273.1213   -29174.058    131.07376   -29305.132   -57985.812 
  975800    317.30654   -29146.187    152.27871   -29298.466    -38517.32 
  976000    290.26202   -29152.873    139.29977   -29292.173   -54836.265 
  976200    312.89488   -29155.354    150.16151   -29305.515   -23346.556 
  976400    319.46632   -29127.515    153.31522   -29280.831    10175.239 
  976600    283.02309   -29152.367    135.82573   -29288.193   -26775.219 
  976800    283.93018   -29155.508    136.26105   -29291.769     21450.32 
  977000    338.05435    -29121.64     162.2358   -29283.876   -14243.206 
  977200    310.34174   -29139.843    148.93623   -29288.779    -951.1997 
  977400    319.80072   -29156.339     153.4757   -29309.815   -35892.435 
  977600    269.07224   -29161.118    129.13057   -29290.249    22209.246 
  977800     283.2098   -29148.025    135.91533    -29283.94    6991.7292 
  978000    321.76039   -29134.024    154.41616    -29288.44    8964.0963 
  978200    288.38492   -29167.667    138.39893   -29306.066    5814.4122 
  978400    291.79158   -29145.278    140.03382   -29285.312    37798.367 
  978600    306.92924    -29142.34    147.29854   -29289.639   -312.77894 
  978800    284.27633   -29169.297    136.42717   -29305.724    2019.2513 
  979000    295.23226   -29189.379    141.68504   -29331.064    -26926.32 
  979200    299.08671   -29177.116    143.53483   -29320.651    50937.411 
  979400    332.12873   -29160.463    159.39204   -29319.855    -9874.107 
  979600    277.30463    -29188.61    133.08138   -29321.691    22248.302 
  979800    328.06115   -29182.657    157.43996   -29340.097   -16892.766 
  980000    303.56254   -29165.365    145.68282   -29311.048   -5183.3036 
  980200    302.11652    -29168.62    144.98886   -29313.609     76847.64 
  980400    295.92276   -29192.859    142.01642   -29334.875   -5003.4608 
  980600    315.98605   -29166.614      151.645   -29318.259    5038.8786 
  980800    304.50842   -29166.404    146.13676   -29312.541    19242.983 
  981000    297.39725   -29187.137    142.72404   -29329.861    3635.6735 
  981200    294.31474   -29199.836    141.24471   -29341.081    1539.2578 
  981400    328.68962   -29163.665    157.74157   -29321.407   -6768.0764 
  981600    289.57042   -29184.307    138.96786   -29323.275   -25171.128 
  981800    287.56414   -29192.356    138.00503   -29330.361     10699.59 
  982000    325.23999   -29183.668    156.08606   -29339.754    47571.578 
  982200    294.87826   -29184.837    141.51515   -29326.352    -25279.38 
  982400    309.47943   -29179.524     148.5224   -29328.046     22062.02 
  982600    309.14437   -29175.685    148.36161   -29324.047    -25698.46 
  982800    284.98889   -29198.637    136.76914   -29335.406    28583.824 
  983000     311.8756   -29172.548    149.67235   -29322.221    33636.525 
  983200    300.21048   -29179.477    144.07414   -29323.551    22607.101 
  983400     303.8576    -29189.92    145.82443   -29335.745   -37704.737 
  983600    276.75779   -29183.821    132.81895    -29316.64    35917.329 
  983800    293.58417   -29183.199     140.8941   -29324.094   -22139.356 
  984000    358.20471   -29154.826    171.90617   -29326.732    39087.057 
  984200    308.43342   -29172.044    148.02041   -29320.064   -12876.688 
  984400    268.00254   -29187.276    128.61721   -29315.893    13960.059 
  984600     309.2539    -29160.42    148.41417   -29308.834   -25960.887 
  984800    308.79652   -29181.425    148.19467    -29329.62    31724.763 
  985000    297.40996   -29185.968    142.73014   -29328.698    -6504.063 
  985200    306.70371   -29162.514     147.1903   -29309.704   -23788.258 
  985400    279.50589   -29195.729    134.13779   -29329.866    57094.164 
  985600    295.36752   -29185.804    141.74995   -29327.554    3041.2046 
  985800    290.71242   -29170.153    139.51592   -29309.669   -828.96579 
  986000    298.80634   -29184.795    143.40028   -29328.196    18123.463 
  986200    308.23928   -29182.597    147.92724   -29330.524    19488.198 
  986400    305.47673   -29169.709    146.60146    -29316.31    -12973.18 
  986600    302.07058   -29184.877    144.96682   -29329.843   -1200.1251 
  986800    294.85269   -29193.418    141.50288   -29334.921   -21316.338 
  987000    305.08147   -29160.741    146.41178   -29307.153    53432.769 
  987200    285.30585   -29182.997    136.92125   -29319.918    12363.518 
  987400    310.98364   -29186.475    149.24429   -29335.719   -13165.724 
  987600    270.26582   -29176.396    129.70338     -29306.1     11469.46 
  987800    332.69263   -29156.075    159.66266   -29315.738    8996.1144 
  988000    289.68639   -29184.771    139.02352   -29323.795   -15917.071 
  988200     272.2489   -29187.121    130.65508   -29317.776    32029.325 
  988400    314.60154   -29153.391    150.98056   -29304.372    2740.6107 
  988600     293.9268   -29177.344    141.05853   -29318.403    52357.398 
  988800    308.21732   -29184.032     147.9167   -29331.948   -15777.401 
  989000    300.40528   -29193.112    144.16762   -29337.279    13535.904 
  989200    299.35125   -29172.777    143.66178   -29316.438    33895.111 
  989400    325.40191   -29165.972    156.16377   -29322.136    33926.629 
  989600    275.51412   -29196.727     132.2221   -29328.949    4029.3899 
  989800    312.93025   -29171.624    150.17849   -29321.802    29582.291 
  990000    306.08368   -29178.606    146.89275   -29325.499   -9549.0994 
  990200    286.81525   -29180.209    137.64563   -29317.855   -13666.818 
  990400    306.03193   -29169.193    146.86791   -29316.061    8185.0279 
  990600    282.84881   -29179.126    135.74209   -29314.869   -32036.463 
  990800    274.07864   -29194.811    131.53319   -29326.344   -4306.6356 
  991000     329.7231   -29165.105    158.23755   -29323.343    10578.252 
  991200    278.38292   -29183.222    133.59886    -29316.82    25704.995 
  991400    284.97393   -29189.958    136.76196    -29326.72    23573.483 
  991600    317.02542   -29152.998     152.1438   -29305.142    8071.9402 
  991800    297.11936   -29182.638    142.59067   -29325.228   -14508.664 
  992000    290.60979   -29185.601    139.46667   -29325.068    15454.594 
  992200    308.07664   -29156.531    147.84919    -29304.38    6281.9169 
  992400     333.9523   -29162.354    160.26719   -29322.621    8680.9117 
  992600    288.64084   -29187.605    138.52174   -29326.127   -33595.183 
  992800     311.7137   -29174.286    149.59465    -29323.88    34229.231 
  993000    340.11045   -29162.835    163.22255   -29326.057    32464.498 
  993200    319.16056   -29178.333    153.16848   -29331.502    7140.9333 
  993400    283.34618   -29186.168    135.98078   -29322.149    12682.966 
  993600    309.67846   -29192.391    148.61792   -29341.009    8817.5193 
  993800    323.02552   -29171.588    155.02331   -29326.611   -10196.354 
  994000    324.14009   -29171.844    155.55821   -29327.403    25803.112 
  994200    301.09443   -29198.414    144.49836   -29342.912    34807.339 
  994400    307.95097   -29169.922    147.78888   -29317.711   -15756.774 
  994600    309.11172   -29180.207    148.34593   -29328.553    3349.3755 
  994800    278.07151   -29203.013    133.44942   -29336.463    -16852.74 
  995000    304.54595   -29179.057    146.15478   -29325.212    1690.8307 
  995200     337.2009   -29169.428    161.82623   -29331.254    6741.1466 
  995400    287.00802   -29201.917    137.73814   -29339.655   -15136.565 
  995600    296.26469   -29187.591    142.18051   -29329.772    73330.857 
  995800    325.63477   -29168.418    156.27552   -29324.693   -39457.779 
  996000    288.89063   -29204.437    138.64162   -29343.079   -16819.539 
  996200    285.18701   -29182.703    136.86422   -29319.568   -4340.4181 
  996400     288.7206   -29173.784    138.56002   -29312.344    -39405.04 
  996600    285.47737   -29204.257    137.00357   -29341.261   -34052.233 
  996800    295.57287   -29179.924     141.8485   -29321.773    19892.083 
  997000    312.87167   -29175.245    150.15037   -29325.395   -29056.626 
  997200    272.46755    -29199.96    130.76002    -29330.72   -7014.0453 
  997400    287.97542   -29194.472     138.2024   -29332.674    4266.1637 
  997600    320.55913   -29172.943    153.83967   -29326.782    28711.596 
  997800    284.02658   -29183.512    136.30731   -29319.819   -9798.6751 
  998000    299.70917   -29201.014    143.83355   -29344.848    24842.437 
  998200    284.86557   -29169.683    136.70995   -29306.393    25280.021 
  998400    282.71809   -29176.455    135.67936   -29312.134    1619.5181 
  998600    301.72757   -29191.209     144.8022   -29336.011    3488.0228 
  998800    304.41042   -29181.599    146.08973   -29327.689    6868.4238 
  999000    310.50616   -29179.908    149.01514   -29328.923   -15719.752 
  999200     285.1411   -29208.156    136.84218   -29344.998   -10745.951 
  999400    275.65396   -29182.488    132.28921   -29314.777   -4596.7005 
  999600    305.32484   -29175.069    146.52857   -29321.598    36363.881 
  999800    257.15625    -29205.93    123.41196   -29329.342    33786.928 
 1000000    296.14259    -29173.73    142.12192   -29315.852   -1288.5128 
Loop time of 6132.33 on 8 procs for 1000000 steps with 162 atoms

Performance: 3.522 ns/day, 6.814 hours/ns, 163.070 timesteps/s
99.3% CPU use with 8 MPI tasks x no OpenMP threads

MPI task timing breakdown:
Section |  min time  |  avg time  |  max time  |%varavg| %total
---------------------------------------------------------------
Pair    | 5107.5     | 5243.8     | 5476.1     | 166.2 | 85.51
Neigh   | 0.99394    | 1.013      | 1.0333     |   1.1 |  0.02
Comm    | 38.058     | 269.44     | 407.04     | 732.9 |  4.39
Output  | 0.0966     | 0.10582    | 0.16264    |   6.6 |  0.00
Modify  | 612.4      | 613.75     | 615.01     |   3.5 | 10.01
Other   |            | 4.182      |            |       |  0.07

Nlocal:    20.25 ave 30 max 9 min
Histogram: 2 0 0 0 2 0 0 1 2 1
Nghost:    769.75 ave 786 max 756 min
Histogram: 1 1 0 0 2 2 0 1 0 1
Neighs:    2230.5 ave 3214 max 1019 min
Histogram: 2 0 0 0 1 1 0 1 2 1

Total # of neighbors = 17844
Ave neighs/atom = 110.148
Neighbor list builds = 1013
Dangerous builds = 0

Please see the log.cite file for references relevant to this simulation

Total wall time: 1:42:38
