ITEM: TIMESTEP
0
ITEM: NUMBER OF ATOMS
56
ITEM: BOX BOUNDS pp pp pp
0.0000000000000000e+00 3.3545581145400000e+01
0.0000000000000000e+00 1.7016206241700001e+01
0.0000000000000000e+00 2.4554980834500002e+00
ITEM: ATOMS id type x y z 
1 1 5.72413 0 0 
5 1 4.91289 0 1.22775 
9 1 3.54733 0 1.22775 
13 1 6.69513 1.16169 0 
21 1 8.09986 3.6065 0 
29 1 7.09853 1.72754 1.22775 
37 1 7.80142 2.96404 1.22775 
45 1 2.81099 0 0 
49 1 1.42317 0 0 
53 1 0.694546 0 1.22775 
16 1 6.69513 15.8545 0 
24 1 8.09986 13.4097 0 
32 1 7.09853 15.2887 1.22775 
40 1 7.80142 14.0522 1.22775 
18 1 10.0777 7.34641 0 
26 1 8.67294 4.9016 0 
34 1 9.67426 6.78057 1.22775 
42 1 8.97137 5.54406 1.22775 
4 1 11.0487 8.5081 0 
8 1 11.8599 8.5081 1.22775 
12 1 13.2255 8.5081 1.22775 
19 1 10.0777 9.66979 0 
27 1 8.67294 12.1146 0 
35 1 9.67426 10.2356 1.22775 
43 1 8.97137 11.4721 1.22775 
48 1 13.9618 8.5081 0 
52 1 15.3496 8.5081 0 
56 1 16.0782 8.5081 1.22775 
20 1 23.4679 7.34641 0 
28 1 24.8726 4.9016 0 
36 1 23.8713 6.78057 1.22775 
44 1 24.5742 5.54406 1.22775 
3 1 22.4969 8.5081 0 
7 1 21.6857 8.5081 1.22775 
11 1 20.3201 8.5081 1.22775 
17 1 23.4679 9.66979 0 
25 1 24.8726 12.1146 0 
33 1 23.8713 10.2356 1.22775 
41 1 24.5742 11.4721 1.22775 
47 1 19.5838 8.5081 0 
51 1 18.196 8.5081 0 
55 1 17.4673 8.5081 1.22775 
2 1 27.8215 0 0 
6 1 28.6327 0 1.22775 
10 1 29.9982 0 1.22775 
15 1 26.8504 1.16169 0 
23 1 25.4457 3.6065 0 
31 1 26.447 1.72754 1.22775 
39 1 25.7442 2.96404 1.22775 
46 1 30.7346 0 0 
50 1 32.1224 0 0 
54 1 32.851 0 1.22775 
14 1 26.8504 15.8545 0 
22 1 25.4457 13.4097 0 
30 1 26.447 15.2887 1.22775 
38 1 25.7442 14.0522 1.22775 
ITEM: TIMESTEP
10
ITEM: NUMBER OF ATOMS
56
ITEM: BOX BOUNDS pp pp pp
0.0000000000000000e+00 3.3545581145400000e+01
0.0000000000000000e+00 1.7016206241700001e+01
0.0000000000000000e+00 2.4554980834500002e+00
ITEM: ATOMS id type x y z 
1 1 5.72002 -4.25351e-07 7.4128e-17 
5 1 4.90521 -8.22371e-08 1.22775 
9 1 3.47974 3.68399e-09 1.22775 
13 1 6.68391 1.20227 2.70617e-17 
21 1 8.09547 3.5577 -4.55243e-17 
29 1 7.15575 1.74856 1.22775 
37 1 7.81996 2.91535 1.22775 
45 1 2.79597 2.30052e-09 1.72225e-17 
49 1 1.48186 6.341e-10 5.32684e-17 
53 1 0.750683 -6.96075e-11 1.22775 
16 1 6.68391 15.8139 1.08504e-16 
24 1 8.09547 13.4585 7.14636e-17 
32 1 7.15575 15.2677 1.22775 
40 1 7.81996 14.1009 1.22775 
18 1 10.0889 7.30584 -1.72748e-17 
26 1 8.67732 4.9504 8.72291e-17 
34 1 9.61704 6.75955 1.22775 
42 1 8.95283 5.59275 1.22775 
4 1 11.0528 8.5081 -2.52973e-17 
8 1 11.8676 8.5081 1.22775 
12 1 13.293 8.5081 1.22775 
19 1 10.0889 9.71037 7.15707e-17 
27 1 8.67732 12.0658 -3.38554e-17 
35 1 9.61704 10.2567 1.22775 
43 1 8.95283 11.4235 1.22775 
48 1 13.9768 8.5081 -9.74125e-19 
52 1 15.2909 8.5081 -3.20756e-17 
56 1 16.0221 8.5081 1.22775 
20 1 23.4567 7.30584 3.03033e-17 
28 1 24.8683 4.9504 9.44218e-18 
36 1 23.9285 6.75954 1.22775 
44 1 24.5928 5.59275 1.22775 
3 1 22.4928 8.5081 -1.0685e-16 
7 1 21.678 8.5081 1.22775 
11 1 20.2525 8.5081 1.22775 
17 1 23.4567 9.71037 -3.32905e-17 
25 1 24.8683 12.0658 7.73047e-17 
33 1 23.9285 10.2567 1.22775 
41 1 24.5928 11.4235 1.22775 
47 1 19.5688 8.5081 9.51105e-17 
51 1 18.2547 8.5081 6.97631e-17 
55 1 17.5235 8.5081 1.22775 
2 1 27.8256 -4.24696e-07 -6.71831e-17 
6 1 28.6404 -8.21493e-08 1.22775 
10 1 30.0658 3.68737e-09 1.22775 
15 1 26.8617 1.20227 5.84324e-17 
23 1 25.4501 3.5577 9.31359e-17 
31 1 26.3898 1.74856 1.22775 
39 1 25.7256 2.91535 1.22775 
46 1 30.7496 2.30096e-09 5.77204e-17 
50 1 32.0637 6.34138e-10 1.03671e-17 
54 1 32.7949 -6.96149e-11 1.22775 
14 1 26.8617 15.8139 -3.32268e-17 
22 1 25.4501 13.4585 -6.22488e-17 
30 1 26.3898 15.2676 1.22775 
38 1 25.7256 14.1009 1.22775 
ITEM: TIMESTEP
20
ITEM: NUMBER OF ATOMS
56
ITEM: BOX BOUNDS pp pp pp
0.0000000000000000e+00 3.3545581145400000e+01
0.0000000000000000e+00 1.7016206241700001e+01
0.0000000000000000e+00 2.4554980834500002e+00
ITEM: ATOMS id type x y z 
1 1 5.70394 -0.000201932 7.77828e-17 
5 1 4.89492 -1.95382e-05 1.22775 
9 1 3.44997 -1.64992e-07 1.22775 
13 1 6.64376 1.19477 3.75855e-17 
21 1 8.12121 3.55156 -8.11462e-17 
29 1 7.18264 1.70369 1.22775 
37 1 7.86984 2.87637 1.22775 
45 1 2.81568 -1.94309e-08 -6.22053e-17 
49 1 1.4965 -3.04604e-09 2.36925e-17 
53 1 0.73019 -7.86502e-10 1.22775 
16 1 6.64381 15.8214 2.47396e-18 
24 1 8.12119 13.4647 -1.2595e-17 
32 1 7.18244 15.3127 1.22775 
40 1 7.86979 14.1399 1.22775 
18 1 10.129 7.31333 -5.00749e-17 
26 1 8.65158 4.95654 7.67715e-17 
34 1 9.5902 6.80446 1.22775 
42 1 8.90296 5.63175 1.22775 
4 1 11.0691 8.50817 -6.49156e-17 
8 1 11.8779 8.50811 1.22775 
12 1 13.3226 8.5081 1.22775 
19 1 10.129 9.70289 -8.34881e-17 
27 1 8.65158 12.0596 5.95659e-17 
35 1 9.59027 10.2117 1.22775 
43 1 8.903 11.3844 1.22775 
48 1 13.9571 8.5081 -9.18836e-18 
52 1 15.2763 8.5081 -1.82395e-17 
56 1 16.0426 8.5081 1.22775 
20 1 23.4166 7.31332 7.97202e-18 
28 1 24.894 4.95659 -5.5578e-17 
36 1 23.9554 6.80447 1.22775 
44 1 24.6426 5.63174 1.22775 
3 1 22.4768 8.50817 -6.80075e-17 
7 1 21.6677 8.50811 1.22775 
11 1 20.2227 8.5081 1.22775 
17 1 23.4166 9.7029 3.47609e-17 
25 1 24.894 12.0596 1.2725e-16 
33 1 23.9553 10.2117 1.22775 
41 1 24.6426 11.3844 1.22775 
47 1 19.5884 8.5081 3.19655e-17 
51 1 18.2691 8.5081 -6.92506e-17 
55 1 17.5032 8.5081 1.22775 
2 1 27.8417 -0.000201594 -4.92484e-17 
6 1 28.6507 -1.95037e-05 1.22775 
10 1 30.0956 -1.64885e-07 1.22775 
15 1 26.9018 1.19477 1.34578e-17 
23 1 25.4244 3.55157 5.95498e-17 
31 1 26.3629 1.70371 1.22775 
39 1 25.6758 2.87634 1.22775 
46 1 30.7299 -1.94477e-08 3.57132e-17 
50 1 32.0493 -3.04642e-09 -8.18274e-18 
54 1 32.8152 -7.86125e-10 1.22775 
14 1 26.9018 15.8214 -7.87952e-17 
22 1 25.4244 13.4647 -7.66806e-18 
30 1 26.3631 15.3127 1.22775 
38 1 25.6758 14.14 1.22775 
ITEM: TIMESTEP
30
ITEM: NUMBER OF ATOMS
56
ITEM: BOX BOUNDS pp pp pp
0.0000000000000000e+00 3.3545581145400000e+01
0.0000000000000000e+00 1.7016206241700001e+01
0.0000000000000000e+00 2.4554980834500002e+00
ITEM: ATOMS id type x y z 
1 1 5.73321 0.00201523 8.96025e-17 
5 1 4.91469 0.000288447 1.22775 
9 1 3.46018 2.35253e-06 1.22775 
13 1 6.60903 1.21044 1.49294e-16 
21 1 8.20826 3.54159 3.12917e-16 
29 1 7.24782 1.62354 1.22775 
37 1 8.02998 2.80162 1.22775 
45 1 2.81091 -1.72119e-06 4.01027e-17 
49 1 1.50386 -4.777e-07 2.92195e-16 
53 1 0.721154 9.60917e-08 1.22775 
16 1 6.60828 15.8052 -6.13011e-16 
24 1 8.20841 13.474 1.85518e-16 
32 1 7.25024 15.391 1.22775 
40 1 8.03059 14.2131 1.22775 
18 1 10.1644 7.29705 8.63374e-16 
26 1 8.56406 4.96497 2.3558e-16 
34 1 9.52221 6.88221 1.22775 
42 1 8.74257 5.70696 1.22775 
4 1 11.0402 8.50762 -4.69669e-16 
8 1 11.8588 8.50807 1.22775 
12 1 13.3144 8.5081 1.22775 
19 1 10.1645 9.71954 -2.18408e-16 
27 1 8.56375 12.0523 9.05609e-16 
35 1 9.5217 10.1342 1.22775 
43 1 8.74231 11.3101 1.22775 
48 1 13.9627 8.5081 2.96297e-17 
52 1 15.269 8.5081 -3.81775e-17 
56 1 16.0515 8.5081 1.22775 
20 1 23.3811 7.29753 -5.17009e-16 
28 1 24.9813 4.96556 1.84316e-15 
36 1 24.0217 6.88384 1.22775 
44 1 24.803 5.70592 1.22775 
3 1 22.5027 8.50687 2.62345e-16 
7 1 21.6878 8.50792 1.22775 
11 1 20.2354 8.5081 1.22775 
17 1 23.3807 9.71898 -4.58947e-16 
25 1 24.9816 12.0516 1.00769e-15 
33 1 24.0232 10.1334 1.22775 
41 1 24.8034 11.3112 1.22775 
47 1 19.5841 8.5081 4.98589e-16 
51 1 18.2766 8.5081 7.49609e-16 
55 1 17.4943 8.5081 1.22775 
2 1 27.809 0.00164863 2.92417e-16 
6 1 28.6313 0.000221032 1.22775 
10 1 30.0881 1.16021e-06 1.22775 
15 1 26.9361 1.21054 -2.52081e-16 
23 1 25.3368 3.54334 -1.92422e-16 
31 1 26.2979 1.62345 1.22775 
39 1 25.5157 2.80142 1.22775 
46 1 30.7352 -1.85593e-06 -2.32275e-16 
50 1 32.0418 -4.75475e-07 -8.71122e-17 
54 1 32.8243 9.64278e-08 1.22775 
14 1 26.9367 15.8051 1.60085e-18 
22 1 25.3367 13.4722 1.95183e-16 
30 1 26.296 15.3915 1.22775 
38 1 25.5151 14.2135 1.22775 
ITEM: TIMESTEP
40
ITEM: NUMBER OF ATOMS
56
ITEM: BOX BOUNDS pp pp pp
0.0000000000000000e+00 3.3545581145400000e+01
0.0000000000000000e+00 1.7016206241700001e+01
0.0000000000000000e+00 2.4554980834500002e+00
ITEM: ATOMS id type x y z 
1 1 5.73792 0.000208673 1.26142e-16 
5 1 4.91717 2.32067e-05 1.22775 
9 1 3.46854 1.33518e-06 1.22775 
13 1 6.60662 1.21165 9.99756e-17 
21 1 8.22247 3.54559 3.77296e-16 
29 1 7.25361 1.61027 1.22775 
37 1 8.05547 2.79933 1.22775 
45 1 2.81221 -2.38131e-06 5.32993e-17 
49 1 1.5022 -6.81398e-07 2.71869e-16 
53 1 0.723486 1.2005e-07 1.22775 
16 1 6.60673 15.8045 -5.67737e-16 
24 1 8.22263 13.47 1.79726e-16 
32 1 7.25384 15.4055 1.22775 
40 1 8.05569 14.2162 1.22775 
18 1 10.1661 7.29665 8.0337e-16 
26 1 8.5499 4.96134 1.90248e-16 
34 1 9.51863 6.89667 1.22775 
42 1 8.71734 5.70926 1.22775 
4 1 11.0351 8.50802 -4.85761e-16 
8 1 11.8556 8.50814 1.22775 
12 1 13.3049 8.5081 1.22775 
19 1 10.166 9.71981 -2.29965e-16 
27 1 8.54969 12.0555 7.43718e-16 
35 1 9.51859 10.1195 1.22775 
43 1 8.71712 11.3077 1.22775 
48 1 13.9613 8.5081 3.7889e-17 
52 1 15.2707 8.5081 -6.48142e-17 
56 1 16.0493 8.5081 1.22775 
20 1 23.3795 7.29642 -4.88004e-16 
28 1 24.9955 4.96156 1.6735e-15 
36 1 24.0264 6.89769 1.22775 
44 1 24.8284 5.70835 1.22775 
3 1 22.5107 8.50792 2.73234e-16 
7 1 21.6899 8.50808 1.22775 
11 1 20.2414 8.5081 1.22775 
17 1 23.3796 9.71981 -4.78051e-16 
25 1 24.9957 12.0553 9.90634e-16 
33 1 24.0266 10.1189 1.22775 
41 1 24.8285 11.3084 1.22775 
47 1 19.5851 8.5081 5.2767e-16 
51 1 18.275 8.5081 7.39167e-16 
55 1 17.4965 8.5081 1.22775 
2 1 27.8075 0.00010683 3.13882e-16 
6 1 28.6284 -4.77352e-06 1.22775 
10 1 30.0773 7.04665e-07 1.22775 
15 1 26.9391 1.21168 -2.63023e-16 
23 1 25.3227 3.54704 -1.71457e-16 
31 1 26.2917 1.61044 1.22775 
39 1 25.49 2.79961 1.22775 
46 1 30.7335 -2.31923e-06 -2.53207e-16 
50 1 32.0434 -6.2904e-07 -1.16582e-16 
54 1 32.8221 1.20606e-07 1.22775 
14 1 26.939 15.8044 3.11719e-17 
22 1 25.3226 13.4687 2.12007e-16 
30 1 26.2916 15.4055 1.22775 
38 1 25.4898 14.216 1.22775 
ITEM: TIMESTEP
42
ITEM: NUMBER OF ATOMS
56
ITEM: BOX BOUNDS pp pp pp
0.0000000000000000e+00 3.3545581145400000e+01
0.0000000000000000e+00 1.7016206241700001e+01
0.0000000000000000e+00 2.4554980834500002e+00
ITEM: ATOMS id type x y z 
1 1 5.73792 0.000208648 1.26142e-16 
5 1 4.91717 2.32031e-05 1.22775 
9 1 3.46854 1.33516e-06 1.22775 
13 1 6.60662 1.21165 9.99737e-17 
21 1 8.22247 3.54559 3.77296e-16 
29 1 7.25361 1.61027 1.22775 
37 1 8.05547 2.79933 1.22775 
45 1 2.81221 -2.38132e-06 5.32992e-17 
49 1 1.5022 -6.81399e-07 2.71867e-16 
53 1 0.723486 1.2005e-07 1.22775 
16 1 6.60673 15.8045 -5.67732e-16 
24 1 8.22263 13.47 1.79724e-16 
32 1 7.25384 15.4055 1.22775 
40 1 8.05569 14.2162 1.22775 
18 1 10.1661 7.29665 8.03362e-16 
26 1 8.5499 4.96134 1.90245e-16 
34 1 9.51863 6.89667 1.22775 
42 1 8.71734 5.70926 1.22775 
4 1 11.0351 8.50802 -4.85759e-16 
8 1 11.8556 8.50814 1.22775 
12 1 13.3049 8.5081 1.22775 
19 1 10.166 9.71981 -2.29965e-16 
27 1 8.54969 12.0555 7.43706e-16 
35 1 9.51859 10.1195 1.22775 
43 1 8.71712 11.3077 1.22775 
48 1 13.9613 8.5081 3.78886e-17 
52 1 15.2707 8.5081 -6.4816e-17 
56 1 16.0493 8.5081 1.22775 
20 1 23.3795 7.29642 -4.88e-16 
28 1 24.9955 4.96156 1.67348e-15 
36 1 24.0264 6.89769 1.22775 
44 1 24.8284 5.70835 1.22775 
3 1 22.5107 8.50792 2.73232e-16 
7 1 21.6899 8.50808 1.22775 
11 1 20.2414 8.5081 1.22775 
17 1 23.3796 9.71981 -4.7805e-16 
25 1 24.9957 12.0553 9.90629e-16 
33 1 24.0266 10.1189 1.22775 
41 1 24.8285 11.3084 1.22775 
47 1 19.5851 8.5081 5.27669e-16 
51 1 18.275 8.5081 7.39162e-16 
55 1 17.4965 8.5081 1.22775 
2 1 27.8075 0.000106815 3.13881e-16 
6 1 28.6284 -4.77574e-06 1.22775 
10 1 30.0773 7.04652e-07 1.22775 
15 1 26.9391 1.21168 -2.63022e-16 
23 1 25.3227 3.54704 -1.71455e-16 
31 1 26.2917 1.61044 1.22775 
39 1 25.49 2.79961 1.22775 
46 1 30.7335 -2.31923e-06 -2.53206e-16 
50 1 32.0434 -6.2904e-07 -1.16583e-16 
54 1 32.8221 1.20606e-07 1.22775 
14 1 26.939 15.8044 3.11734e-17 
22 1 25.3226 13.4687 2.12006e-16 
30 1 26.2916 15.4055 1.22775 
38 1 25.4898 14.216 1.22775 
ITEM: TIMESTEP
43
ITEM: NUMBER OF ATOMS
56
ITEM: BOX BOUNDS pp pp pp
0.0000000000000000e+00 3.3545581145400000e+01
0.0000000000000000e+00 1.7016206241700001e+01
0.0000000000000000e+00 2.4554980834500002e+00
ITEM: ATOMS id type x y z 
1 1 5.73792 0.000208647 1.26142e-16 
5 1 4.91717 2.3203e-05 1.22775 
9 1 3.46854 1.33516e-06 1.22775 
13 1 6.60662 1.21165 9.99736e-17 
21 1 8.22247 3.54559 3.77296e-16 
29 1 7.25361 1.61027 1.22775 
37 1 8.05547 2.79933 1.22775 
53 1 0.723486 1.2005e-07 1.22775 
16 1 6.60673 15.8045 2.4555 
24 1 8.22263 13.47 1.79724e-16 
32 1 7.25384 15.4055 1.22775 
40 1 8.05569 14.2162 1.22775 
45 1 2.81221 17.0162 5.32992e-17 
49 1 1.5022 17.0162 2.71867e-16 
18 1 10.1661 7.29665 8.03361e-16 
26 1 8.5499 4.96134 1.90245e-16 
34 1 9.51863 6.89667 1.22775 
42 1 8.71734 5.70926 1.22775 
4 1 11.0351 8.50802 2.4555 
56 1 16.0493 8.5081 1.22775 
52 1 15.2707 8.5081 -2.76306e-23 
8 1 11.8556 8.50814 1.22775 
12 1 13.3049 8.5081 1.22775 
19 1 10.166 9.71981 2.4555 
27 1 8.54969 12.0555 7.43705e-16 
35 1 9.51859 10.1195 1.22775 
43 1 8.71712 11.3077 1.22775 
48 1 13.9613 8.5081 3.78886e-17 
20 1 23.3795 7.29642 2.4555 
28 1 24.9955 4.96156 1.67348e-15 
36 1 24.0264 6.89769 1.22775 
44 1 24.8284 5.70835 1.22775 
3 1 22.5107 8.50792 2.73232e-16 
55 1 17.4965 8.5081 1.22775 
7 1 21.6899 8.50808 1.22775 
11 1 20.2414 8.5081 1.22775 
51 1 18.275 8.5081 7.39162e-16 
47 1 19.5851 8.5081 5.27669e-16 
41 1 24.8285 11.3084 1.22775 
17 1 23.3796 9.71981 2.4555 
25 1 24.9957 12.0553 9.90628e-16 
33 1 24.0266 10.1189 1.22775 
2 1 27.8075 0.000106815 3.13881e-16 
54 1 32.8221 1.20606e-07 1.22775 
10 1 30.0773 7.04652e-07 1.22775 
15 1 26.9391 1.21168 2.4555 
23 1 25.3227 3.54704 1.31997e-23 
31 1 26.2917 1.61044 1.22775 
39 1 25.49 2.79961 1.22775 
14 1 26.939 15.8044 3.11734e-17 
22 1 25.3226 13.4687 2.12006e-16 
30 1 26.2916 15.4055 1.22775 
38 1 25.4898 14.216 1.22775 
6 1 28.6284 17.0162 1.22775 
46 1 30.7335 17.0162 2.4555 
50 1 32.0434 17.0162 -3.15778e-23 
ITEM: TIMESTEP
50
ITEM: NUMBER OF ATOMS
56
ITEM: BOX BOUNDS pp pp pp
-1.1740953400890000e-02 3.3557322098800881e+01
-5.9556721845950029e-03 1.7022161913884588e+01
-8.5942432920750004e-04 2.4563575077792081e+00
ITEM: ATOMS id type x y z 
1 1 5.73019 -0.00574734 -0.000859424 
5 1 4.90887 -0.00593252 1.22775 
9 1 3.45923 -0.00595434 1.22775 
13 1 6.5995 1.20654 -0.000859424 
21 1 8.21649 3.54212 -0.000859424 
29 1 7.24694 1.60544 1.22775 
37 1 8.04937 2.79534 1.22775 
53 1 0.712254 -0.00595555 1.22775 
16 1 6.59962 15.8096 2.45636 
24 1 8.21665 13.4735 -0.000859424 
32 1 7.24717 15.4103 1.22775 
40 1 8.04959 14.2202 1.22775 
45 1 2.80244 17.0222 -0.000859424 
49 1 1.49151 17.0222 -0.000859424 
18 1 10.1614 7.2958 -0.000859424 
26 1 8.54415 4.95886 -0.000859424 
34 1 9.51356 6.89555 1.22775 
42 1 8.7117 5.70729 1.22775 
4 1 11.0311 8.50802 2.45636 
56 1 16.0488 8.5081 1.22775 
52 1 15.2696 8.5081 -0.000859424 
8 1 11.8522 8.50814 1.22775 
12 1 13.3025 8.5081 1.22775 
19 1 10.1614 9.72066 2.45636 
27 1 8.54393 12.058 -0.000859424 
35 1 9.51352 10.1207 1.22775 
43 1 8.71148 11.3097 1.22775 
48 1 13.9593 8.5081 -0.000859424 
20 1 23.3842 7.29558 2.45636 
28 1 25.0013 4.95907 -0.000859424 
36 1 24.0314 6.89657 1.22775 
44 1 24.834 5.70638 1.22775 
3 1 22.5148 8.50792 -0.000859424 
55 1 17.497 8.5081 1.22775 
7 1 21.6933 8.50808 1.22775 
11 1 20.2438 8.5081 1.22775 
51 1 18.276 8.5081 -0.000859424 
47 1 19.587 8.5081 -0.000859424 
41 1 24.8342 11.3104 1.22775 
17 1 23.3842 9.72066 2.45636 
25 1 25.0015 12.0578 -0.000859424 
33 1 24.0316 10.12 1.22775 
2 1 27.8152 -0.00584905 -0.000859424 
54 1 32.8334 -0.00595555 1.22775 
10 1 30.0866 -0.00595497 1.22775 
15 1 26.9462 1.20657 2.45636 
23 1 25.3286 3.54357 -0.000859424 
31 1 26.2984 1.60561 1.22775 
39 1 25.4961 2.79562 1.22775 
14 1 26.9461 15.8095 -0.000859424 
22 1 25.3285 13.4722 -0.000859424 
30 1 26.2983 15.4103 1.22775 
38 1 25.4959 14.2199 1.22775 
6 1 28.6367 17.0222 1.22775 
46 1 30.7433 17.0222 2.45636 
50 1 32.0541 17.0222 -0.000859424 
ITEM: TIMESTEP
60
ITEM: NUMBER OF ATOMS
56
ITEM: BOX BOUNDS pp pp pp
-2.8513743973590015e-02 3.3574094889373569e+01
-1.4463775305445009e-02 1.7030670017005427e+01
-2.0871733709324990e-03 2.4575852568209338e+00
ITEM: ATOMS id type x y z 
1 1 5.71915 -0.0142561 -0.00208717 
5 1 4.89702 -0.0144407 1.22775 
9 1 3.44597 -0.0144624 1.22775 
13 1 6.58935 1.19924 -0.00208717 
21 1 8.20794 3.53717 -0.00208717 
29 1 7.2374 1.59853 1.22775 
37 1 8.04066 2.78965 1.22775 
53 1 0.6962 -0.0144637 1.22775 
16 1 6.58946 15.8169 2.45759 
24 1 8.20811 13.4784 -0.00208717 
32 1 7.23763 15.4172 1.22775 
40 1 8.04088 14.2259 1.22775 
45 1 2.78848 17.0307 -0.00208717 
49 1 1.47621 17.0307 -0.00208717 
18 1 10.1548 7.2946 -0.00208717 
26 1 8.53592 4.95529 -0.00208717 
34 1 9.50633 6.89395 1.22775 
42 1 8.70363 5.70447 1.22775 
4 1 11.0254 8.50802 2.45759 
56 1 16.0481 8.5081 1.22775 
52 1 15.2682 8.5081 -0.00208717 
8 1 11.8473 8.50814 1.22775 
12 1 13.299 8.5081 1.22775 
19 1 10.1548 9.72186 2.45759 
27 1 8.5357 12.0616 -0.00208717 
35 1 9.50628 10.1223 1.22775 
43 1 8.70342 11.3125 1.22775 
48 1 13.9565 8.5081 -0.00208717 
20 1 23.3908 7.29437 2.45759 
28 1 25.0095 4.95551 -0.00208717 
36 1 24.0387 6.89497 1.22775 
44 1 24.8421 5.70356 1.22775 
3 1 22.5205 8.50792 -0.00208717 
55 1 17.4977 8.5081 1.22775 
7 1 21.6982 8.50808 1.22775 
11 1 20.2473 8.5081 1.22775 
51 1 18.2775 8.5081 -0.00208717 
47 1 19.5898 8.5081 -0.00208717 
41 1 24.8422 11.3132 1.22775 
17 1 23.3909 9.72186 2.45759 
25 1 25.0097 12.0614 -0.00208717 
33 1 24.0389 10.1216 1.22775 
2 1 27.8263 -0.0143575 -0.00208717 
54 1 32.8494 -0.0144637 1.22775 
10 1 30.0999 -0.0144631 1.22775 
15 1 26.9563 1.19927 2.45759 
23 1 25.3372 3.53862 -0.00208717 
31 1 26.3079 1.5987 1.22775 
39 1 25.5048 2.78993 1.22775 
14 1 26.9562 15.8168 -0.00208717 
22 1 25.3371 13.4771 -0.00208717 
30 1 26.3078 15.4172 1.22775 
38 1 25.5046 14.2256 1.22775 
6 1 28.6486 17.0307 1.22775 
46 1 30.7573 17.0307 2.45759 
50 1 32.0694 17.0307 -0.00208717 
ITEM: TIMESTEP
70
ITEM: NUMBER OF ATOMS
56
ITEM: BOX BOUNDS pp pp pp
-4.3701297381049685e-02 3.3589282442781020e+01
-2.2167756940701472e-02 1.7038373998640672e+01
-3.1988848694654583e-03 2.4586969683194675e+00
ITEM: ATOMS id type x y z 
1 1 5.70842 -0.0219758 -0.00319888 
5 1 4.88678 -0.0221446 1.22775 
9 1 3.43852 -0.0221665 1.22775 
13 1 6.58176 1.19199 -0.00319888 
21 1 8.20085 3.53402 -0.00319888 
29 1 7.22631 1.5912 1.22775 
37 1 8.03312 2.7863 1.22775 
53 1 0.680276 -0.0221676 1.22775 
16 1 6.5819 15.8241 2.4587 
24 1 8.201 13.4816 -0.00319888 
32 1 7.22653 15.4245 1.22775 
40 1 8.03331 14.2292 1.22775 
45 1 2.7762 17.0384 -0.00319888 
49 1 1.45767 17.0384 -0.00319888 
18 1 10.1472 7.29414 -0.00319888 
26 1 8.52784 4.95082 -0.00319888 
34 1 9.50229 6.89363 1.22775 
42 1 8.69595 5.70002 1.22775 
4 1 11.0209 8.50802 2.4587 
56 1 16.0488 8.5081 1.22775 
52 1 15.2715 8.5081 -0.00319888 
8 1 11.8423 8.50814 1.22775 
12 1 13.2912 8.5081 1.22775 
19 1 10.1471 9.72233 2.4587 
27 1 8.52764 12.066 -0.00319888 
35 1 9.50222 10.1226 1.22775 
43 1 8.69577 11.3169 1.22775 
48 1 13.9536 8.5081 -0.00319888 
20 1 23.3984 7.29391 2.4587 
28 1 25.0176 4.95105 -0.00319888 
36 1 24.0428 6.89453 1.22775 
44 1 24.8497 5.69919 1.22775 
3 1 22.5249 8.50793 -0.00319888 
55 1 17.4969 8.5081 1.22775 
7 1 21.7032 8.50808 1.22775 
11 1 20.2551 8.5081 1.22775 
51 1 18.2742 8.5081 -0.00319888 
47 1 19.5927 8.5081 -0.00319888 
41 1 24.8498 11.3176 1.22775 
17 1 23.3985 9.72234 2.4587 
25 1 25.0178 12.0658 -0.00319888 
33 1 24.043 10.1221 1.22775 
2 1 27.837 -0.0220702 -0.00319888 
54 1 32.8653 -0.0221676 1.22775 
10 1 30.1073 -0.0221672 1.22775 
15 1 26.9639 1.19204 2.4587 
23 1 25.3443 3.53532 -0.00319888 
31 1 26.319 1.59144 1.22775 
39 1 25.5124 2.78663 1.22775 
14 1 26.9638 15.824 -0.00319888 
22 1 25.3442 13.4805 -0.00319888 
30 1 26.3189 15.4245 1.22775 
38 1 25.5122 14.2289 1.22775 
6 1 28.6588 17.0384 1.22775 
46 1 30.7695 17.0384 2.4587 
50 1 32.0879 17.0384 -0.00319888 
ITEM: TIMESTEP
80
ITEM: NUMBER OF ATOMS
56
ITEM: BOX BOUNDS pp pp pp
-5.7119529839209725e-02 3.3602700675239170e+01
-2.8974239437381477e-02 1.7045180481137344e+01
-4.1810841028454577e-03 2.4596791675528480e+00
ITEM: ATOMS id type x y z 
1 1 5.69914 -0.0287944 -0.00418108 
5 1 4.87785 -0.0289509 1.22775 
9 1 3.4317 -0.0289731 1.22775 
13 1 6.5752 1.18566 -0.00418108 
21 1 8.19446 3.53075 -0.00418108 
29 1 7.21673 1.58518 1.22775 
37 1 8.02618 2.78317 1.22775 
53 1 0.666718 -0.0289741 1.22775 
16 1 6.57536 15.8304 2.45968 
24 1 8.19461 13.4849 -0.00418108 
32 1 7.21696 15.4305 1.22775 
40 1 8.02635 14.2323 1.22775 
45 1 2.76537 17.0452 -0.00418108 
49 1 1.44211 17.0452 -0.00418108 
18 1 10.1403 7.29366 -0.00418108 
26 1 8.52082 4.94733 -0.00418108 
34 1 9.49849 6.89291 1.22775 
42 1 8.68943 5.69625 1.22775 
4 1 11.0168 8.50803 2.45968 
56 1 16.049 8.5081 1.22775 
52 1 15.2737 8.5081 -0.00418108 
8 1 11.8378 8.50813 1.22775 
12 1 13.2846 8.5081 1.22775 
19 1 10.1402 9.72282 2.45968 
27 1 8.52064 12.0694 -0.00418108 
35 1 9.49839 10.1234 1.22775 
43 1 8.68929 11.3207 1.22775 
48 1 13.951 8.5081 -0.00418108 
20 1 23.4053 7.29342 2.45968 
28 1 25.0246 4.9476 -0.00418108 
36 1 24.0467 6.8937 1.22775 
44 1 24.8561 5.69549 1.22775 
3 1 22.5291 8.50794 -0.00418108 
55 1 17.4968 8.5081 1.22775 
7 1 21.7077 8.50808 1.22775 
11 1 20.2616 8.5081 1.22775 
51 1 18.272 8.5081 -0.00418108 
47 1 19.5953 8.5081 -0.00418108 
41 1 24.8563 11.3213 1.22775 
17 1 23.4054 9.72284 2.45968 
25 1 25.0248 12.0692 -0.00418108 
33 1 24.0469 10.1229 1.22775 
2 1 27.8463 -0.0288831 -0.00418108 
54 1 32.8789 -0.0289741 1.22775 
10 1 30.1141 -0.0289738 1.22775 
15 1 26.9704 1.18572 2.45968 
23 1 25.3507 3.53193 -0.00418108 
31 1 26.3286 1.58546 1.22775 
39 1 25.5193 2.78354 1.22775 
14 1 26.9703 15.8303 -0.00418108 
22 1 25.3506 13.4839 -0.00418108 
30 1 26.3284 15.4304 1.22775 
38 1 25.5192 14.232 1.22775 
6 1 28.6677 17.0452 1.22775 
46 1 30.7804 17.0452 2.45968 
50 1 32.1035 17.0452 -0.00418108 
ITEM: TIMESTEP
90
ITEM: NUMBER OF ATOMS
56
ITEM: BOX BOUNDS pp pp pp
-6.3828646068289738e-02 3.3609409791468245e+01
-3.2377480685721487e-02 1.7048583722385679e+01
-4.6721837195354571e-03 2.4601702671695382e+00
ITEM: ATOMS id type x y z 
1 1 5.69441 -0.0322042 -0.00467218 
5 1 4.87362 -0.0323536 1.22775 
9 1 3.42945 -0.0323764 1.22775 
13 1 6.57249 1.18236 -0.00467218 
21 1 8.19135 3.52908 -0.00467218 
29 1 7.2114 1.5822 1.22775 
37 1 8.02258 2.78195 1.22775 
53 1 0.659842 -0.0323774 1.22775 
16 1 6.57267 15.8337 2.46017 
24 1 8.19149 13.4866 -0.00467218 
32 1 7.21163 15.4335 1.22775 
40 1 8.02273 14.2336 1.22775 
45 1 2.76007 17.0486 -0.00467218 
49 1 1.43349 17.0486 -0.00467218 
18 1 10.1363 7.29355 -0.00467218 
26 1 8.51723 4.94562 -0.00467218 
34 1 9.49715 6.89254 1.22775 
42 1 8.68628 5.69399 1.22775 
4 1 11.0148 8.50803 2.46017 
56 1 16.0492 8.5081 1.22775 
52 1 15.2756 8.5081 -0.00467218 
8 1 11.8354 8.50813 1.22775 
12 1 13.2801 8.5081 1.22775 
19 1 10.1362 9.72293 2.46017 
27 1 8.51706 12.0711 -0.00467218 
35 1 9.49703 10.1238 1.22775 
43 1 8.68616 11.323 1.22775 
48 1 13.9496 8.5081 -0.00467218 
20 1 23.4093 7.29331 2.46017 
28 1 25.0282 4.94593 -0.00467218 
36 1 24.0481 6.89325 1.22775 
44 1 24.8592 5.69331 1.22775 
3 1 22.5311 8.50795 -0.00467218 
55 1 17.4966 8.5081 1.22775 
7 1 21.7102 8.50808 1.22775 
11 1 20.2661 8.5081 1.22775 
51 1 18.2701 8.5081 -0.00467218 
47 1 19.5967 8.5081 -0.00467218 
41 1 24.8593 11.3235 1.22775 
17 1 23.4094 9.72295 2.46017 
25 1 25.0283 12.0708 -0.00467218 
33 1 24.0483 10.1234 1.22775 
2 1 27.8511 -0.0322897 -0.00467218 
54 1 32.8858 -0.0323774 1.22775 
10 1 30.1163 -0.0323771 1.22775 
15 1 26.9731 1.18243 2.46017 
23 1 25.3539 3.53019 -0.00467218 
31 1 26.3339 1.5825 1.22775 
39 1 25.5229 2.78234 1.22775 
14 1 26.973 15.8336 -0.00467218 
22 1 25.3538 13.4857 -0.00467218 
30 1 26.3337 15.4333 1.22775 
38 1 25.5228 14.2332 1.22775 
6 1 28.6719 17.0486 1.22775 
46 1 30.7857 17.0486 2.46017 
50 1 32.1121 17.0486 -0.00467218 
ITEM: TIMESTEP
100
ITEM: NUMBER OF ATOMS
56
ITEM: BOX BOUNDS pp pp pp
-7.7246878526449722e-02 3.3622828023926395e+01
-3.9183963182401520e-02 1.7055390204882350e+01
-5.6543829529154561e-03 2.4611524664029187e+00
ITEM: ATOMS id type x y z 
1 1 5.68495 -0.0390199 -0.00565438 
5 1 4.86532 -0.0391581 1.22775 
9 1 3.4253 -0.0391831 1.22775 
13 1 6.56728 1.17573 -0.00565438 
21 1 8.18512 3.52555 -0.00565438 
29 1 7.20063 1.57636 1.22775 
37 1 8.01524 2.77947 1.22775 
53 1 0.646076 -0.0391838 1.22775 
16 1 6.56749 15.8403 2.46115 
24 1 8.18523 13.4902 -0.00565438 
32 1 7.20088 15.4393 1.22775 
40 1 8.01536 14.2361 1.22775 
45 1 2.74948 17.0554 -0.00565438 
49 1 1.41608 17.0554 -0.00565438 
18 1 10.1281 7.29337 -0.00565438 
26 1 8.51006 4.94241 -0.00565438 
34 1 9.49459 6.89168 1.22775 
42 1 8.68013 5.68952 1.22775 
4 1 11.0109 8.50804 2.46115 
56 1 16.0495 8.5081 1.22775 
52 1 15.2796 8.5081 -0.00565438 
8 1 11.8303 8.50813 1.22775 
12 1 13.2707 8.50811 1.22775 
19 1 10.128 9.72313 2.46115 
27 1 8.50992 12.0742 -0.00565438 
35 1 9.49441 10.1248 1.22775 
43 1 8.68006 11.3274 1.22775 
48 1 13.9467 8.5081 -0.00565438 
20 1 23.4175 7.29312 2.46115 
28 1 25.0353 4.94279 -0.00565438 
36 1 24.0507 6.89222 1.22775 
44 1 24.8653 5.68897 1.22775 
3 1 22.535 8.50795 -0.00565438 
55 1 17.4963 8.5081 1.22775 
7 1 21.7153 8.50808 1.22775 
11 1 20.2754 8.5081 1.22775 
51 1 18.2661 8.5081 -0.00565438 
47 1 19.5996 8.5081 -0.00565438 
41 1 24.8654 11.3278 1.22775 
17 1 23.4176 9.72316 2.46115 
25 1 25.0355 12.0739 -0.00565438 
33 1 24.051 10.1245 1.22775 
2 1 27.8606 -0.0391004 -0.00565438 
54 1 32.8995 -0.0391838 1.22775 
10 1 30.1204 -0.0391837 1.22775 
15 1 26.9783 1.17581 2.46115 
23 1 25.3601 3.5265 -0.00565438 
31 1 26.3446 1.5767 1.22775 
39 1 25.5303 2.7799 1.22775 
14 1 26.9781 15.8402 -0.00565438 
22 1 25.3601 13.4894 -0.00565438 
30 1 26.3445 15.4391 1.22775 
38 1 25.5302 14.2357 1.22775 
6 1 28.6802 17.0554 1.22775 
46 1 30.7962 17.0554 2.46115 
50 1 32.1295 17.0554 -0.00565438 
ITEM: TIMESTEP
110
ITEM: NUMBER OF ATOMS
56
ITEM: BOX BOUNDS pp pp pp
-9.4019669099149702e-02 3.3639600814499083e+01
-4.7692066303251561e-02 1.7063898308003189e+01
-6.8821319946404547e-03 2.4623802154446444e+00
ITEM: ATOMS id type x y z 
1 1 5.67369 -0.0475273 -0.00688213 
5 1 4.85387 -0.0476653 1.22775 
9 1 3.41378 -0.0476912 1.22775 
13 1 6.55793 1.16823 -0.00688213 
21 1 8.17669 3.52054 -0.00688213 
29 1 7.19029 1.56946 1.22775 
37 1 8.00634 2.77415 1.22775 
53 1 0.629703 -0.0476919 1.22775 
16 1 6.55814 15.8478 2.46238 
24 1 8.1768 13.4952 -0.00688213 
32 1 7.19054 15.4462 1.22775 
40 1 8.00645 14.2414 1.22775 
45 1 2.73565 17.0639 -0.00688213 
49 1 1.39938 17.0639 -0.00688213 
18 1 10.1207 7.29236 -0.00688213 
26 1 8.50172 4.93892 -0.00688213 
34 1 9.48817 6.89009 1.22775 
42 1 8.67223 5.6863 1.22775 
4 1 11.0054 8.50803 2.46238 
56 1 16.0491 8.5081 1.22775 
52 1 15.2795 8.5081 -0.00688213 
8 1 11.825 8.50813 1.22775 
12 1 13.2655 8.50811 1.22775 
19 1 10.1206 9.72414 2.46238 
27 1 8.50158 12.0777 -0.00688213 
35 1 9.48798 10.1264 1.22775 
43 1 8.67218 11.3306 1.22775 
48 1 13.9438 8.5081 -0.00688213 
20 1 23.4249 7.29212 2.46238 
28 1 25.0437 4.93932 -0.00688213 
36 1 24.0572 6.89061 1.22775 
44 1 24.8732 5.68577 1.22775 
3 1 22.5405 8.50795 -0.00688213 
55 1 17.4967 8.5081 1.22775 
7 1 21.7206 8.50808 1.22775 
11 1 20.2806 8.5081 1.22775 
51 1 18.2662 8.5081 -0.00688213 
47 1 19.6025 8.5081 -0.00688213 
41 1 24.8732 11.331 1.22775 
17 1 23.4251 9.72417 2.46238 
25 1 25.0438 12.0773 -0.00688213 
33 1 24.0574 10.1261 1.22775 
2 1 27.8719 -0.0476078 -0.00688213 
54 1 32.9159 -0.0476919 1.22775 
10 1 30.1319 -0.0476919 1.22775 
15 1 26.9877 1.16831 2.46238 
23 1 25.3686 3.52146 -0.00688213 
31 1 26.355 1.56981 1.22775 
39 1 25.5392 2.7746 1.22775 
14 1 26.9875 15.8477 -0.00688213 
22 1 25.3685 13.4945 -0.00688213 
30 1 26.3548 15.446 1.22775 
38 1 25.5391 14.241 1.22775 
6 1 28.6917 17.0639 1.22775 
46 1 30.8101 17.0639 2.46238 
50 1 32.1462 17.0639 -0.00688213 
ITEM: TIMESTEP
120
ITEM: NUMBER OF ATOMS
56
ITEM: BOX BOUNDS pp pp pp
-1.1079245967184968e-01 3.3656373605071771e+01
-5.6200169424101602e-02 1.7072406411124028e+01
-8.1098810363654534e-03 2.4636079644863700e+00
ITEM: ATOMS id type x y z 
1 1 5.662 -0.0560332 -0.00810988 
5 1 4.84301 -0.0561711 1.22775 
9 1 3.40462 -0.0561994 1.22775 
13 1 6.5496 1.16046 -0.00810988 
21 1 8.1684 3.51539 -0.00810988 
29 1 7.1789 1.56257 1.22775 
37 1 7.99718 2.76921 1.22775 
53 1 0.612711 -0.0562001 1.22775 
16 1 6.54982 15.8556 2.46361 
24 1 8.1685 13.5004 -0.00810988 
32 1 7.17917 15.453 1.22775 
40 1 7.99728 14.2463 1.22775 
45 1 2.72193 17.0724 -0.00810988 
49 1 1.3806 17.0724 -0.00810988 
18 1 10.1123 7.29161 -0.00810988 
26 1 8.49324 4.93558 -0.00810988 
34 1 9.48281 6.88852 1.22775 
42 1 8.66459 5.68266 1.22775 
4 1 11.0003 8.50803 2.46361 
56 1 16.0493 8.5081 1.22775 
52 1 15.2815 8.5081 -0.00810988 
8 1 11.819 8.50813 1.22775 
12 1 13.2578 8.50811 1.22775 
19 1 10.1121 9.7249 2.46361 
27 1 8.49311 12.081 -0.00810988 
35 1 9.4826 10.128 1.22775 
43 1 8.66455 11.3343 1.22775 
48 1 13.9407 8.5081 -0.00810988 
20 1 23.4333 7.29137 2.46361 
28 1 25.0521 4.936 -0.00810988 
36 1 24.0626 6.88898 1.22775 
44 1 24.8808 5.6822 1.22775 
3 1 22.5456 8.50795 -0.00810988 
55 1 17.4965 8.5081 1.22775 
7 1 21.7265 8.50807 1.22775 
11 1 20.2882 8.5081 1.22775 
51 1 18.2642 8.5081 -0.00810988 
47 1 19.6056 8.5081 -0.00810988 
41 1 24.8808 11.3346 1.22775 
17 1 23.4335 9.72493 2.46361 
25 1 25.0523 12.0806 -0.00810988 
33 1 24.0628 10.1277 1.22775 
2 1 27.8836 -0.0561142 -0.00810988 
54 1 32.9329 -0.0562 1.22775 
10 1 30.1411 -0.0562001 1.22775 
15 1 26.996 1.16055 2.46361 
23 1 25.3769 3.51626 -0.00810988 
31 1 26.3664 1.56292 1.22775 
39 1 25.5483 2.76968 1.22775 
14 1 26.9958 15.8555 -0.00810988 
22 1 25.3768 13.4997 -0.00810988 
30 1 26.3662 15.4528 1.22775 
38 1 25.5483 14.2459 1.22775 
6 1 28.7026 17.0724 1.22775 
46 1 30.8238 17.0724 2.46361 
50 1 32.165 17.0724 -0.00810988 
ITEM: TIMESTEP
130
ITEM: NUMBER OF ATOMS
56