ITEM: TIMESTEP
0
ITEM: NUMBER OF ATOMS
51
ITEM: BOX BOUNDS pp pp pp
0.0000000000000000e+00 1.1000000000000000e+01
0.0000000000000000e+00 1.1002000000000001e+01
0.0000000000000000e+00 1.1000000000000000e+01
ITEM: ATOMS id type x y z 
10 1 4.603 4.603 4.603 
11 1 3.085 3.085 3.085 
12 1 3.796 3.796 3.796 
46 1 0.726 0.725 0.725 
47 1 2.26 2.259 2.26 
48 1 1.551 1.55 1.55 
49 2 0.539 0.602 2.065 
50 2 0.821 1.206 3.413 
51 3 1.131 0.442 3.955 
19 1 4.546 4.545 6.226 
20 1 3.013 3.013 7.764 
21 1 3.721 3.721 7.053 
31 1 0.668 0.667 10.103 
32 1 2.187 2.187 8.589 
33 1 1.476 1.475 9.298 
16 1 4.546 6.225 4.546 
17 1 3.013 7.765 3.013 
18 1 3.721 7.053 3.722 
25 1 0.668 10.103 0.668 
26 1 2.188 8.589 2.188 
27 1 1.476 9.298 1.476 
4 1 4.608 6.169 6.169 
5 1 3.086 7.684 7.684 
6 1 3.799 6.974 6.974 
37 1 0.729 10.046 10.046 
38 1 2.259 8.509 8.508 
39 1 1.552 9.219 9.219 
13 1 6.225 4.546 4.546 
14 1 7.764 3.013 3.013 
15 1 7.053 3.721 3.722 
28 1 10.102 0.667 0.668 
29 1 8.589 2.187 2.188 
30 1 9.298 1.475 1.476 
1 1 6.168 4.608 6.169 
2 1 7.684 3.086 7.684 
3 1 6.974 3.799 6.974 
40 1 10.045 0.728 10.046 
41 1 8.508 2.259 8.508 
42 1 9.218 1.551 9.218 
7 1 6.169 6.169 4.608 
8 1 7.684 7.684 3.086 
9 1 6.974 6.974 3.799 
43 1 10.046 10.047 0.729 
44 1 8.508 8.509 2.259 
45 1 9.219 9.219 1.552 
22 1 6.229 6.229 6.229 
23 1 7.764 7.765 7.765 
24 1 7.055 7.056 7.055 
34 1 10.108 10.108 10.107 
35 1 8.59 8.59 8.59 
36 1 9.301 9.301 9.3 
ITEM: TIMESTEP
10
ITEM: NUMBER OF ATOMS
51
ITEM: BOX BOUNDS pp pp pp
0.0000000000000000e+00 1.1000000000000000e+01
0.0000000000000000e+00 1.1002000000000001e+01
0.0000000000000000e+00 1.1000000000000000e+01
ITEM: ATOMS id type x y z 
10 1 4.60073 4.59767 4.60143 
11 1 3.09483 3.09458 3.09467 
12 1 3.79839 3.8056 3.80324 
46 1 0.716627 0.717513 0.710712 
47 1 2.30481 2.29899 2.29855 
48 1 1.65114 1.6433 1.47966 
49 2 0.443849 0.511369 2.11847 
50 2 0.828956 1.18491 3.45968 
51 3 1.12188 0.46308 3.958 
19 1 4.54344 4.54352 6.23502 
20 1 3.01012 3.01055 7.76658 
21 1 3.71241 3.71129 7.06296 
31 1 0.677857 0.672477 10.0488 
32 1 2.20366 2.20134 8.58064 
33 1 1.48525 1.48879 9.27373 
16 1 4.54245 6.23527 4.54273 
17 1 3.01028 7.76708 3.01037 
18 1 3.70993 7.06582 3.71134 
25 1 0.67401 10.0453 0.666533 
26 1 2.20168 8.58521 2.20396 
27 1 1.48649 9.26954 1.48193 
4 1 4.60789 6.16596 6.16715 
5 1 3.08162 7.68919 7.68689 
6 1 3.79094 6.97971 6.9842 
37 1 0.734194 10.0392 10.0405 
38 1 2.2607 8.50671 8.50468 
39 1 1.56522 9.20793 9.20932 
13 1 6.23519 4.54241 4.54258 
14 1 7.76766 3.00901 3.00908 
15 1 7.06503 3.71037 3.71165 
28 1 10.0419 0.671254 0.666874 
29 1 8.58414 2.20072 2.20357 
30 1 9.27152 1.48554 1.48325 
1 1 6.16548 4.60827 6.16832 
2 1 7.68859 3.08248 7.68759 
3 1 6.98003 3.79 6.98201 
40 1 10.0371 0.733398 10.0405 
41 1 8.50368 2.26182 8.5032 
42 1 9.2079 1.56493 9.20859 
7 1 6.16693 6.16891 4.60811 
8 1 7.68747 7.68993 3.08126 
9 1 6.98451 6.97963 3.79023 
43 1 10.0409 10.0429 0.733822 
44 1 8.50639 8.50766 2.25919 
45 1 9.20993 9.20988 1.56481 
22 1 6.23242 6.23267 6.23278 
23 1 7.76706 7.76804 7.76784 
24 1 7.06544 7.06642 7.06549 
34 1 10.0988 10.0974 10.101 
35 1 8.58355 8.58388 8.58309 
36 1 9.2921 9.29156 9.29233 
ITEM: TIMESTEP
20
ITEM: NUMBER OF ATOMS
51
ITEM: BOX BOUNDS pp pp pp
0.0000000000000000e+00 1.1000000000000000e+01
0.0000000000000000e+00 1.1002000000000001e+01
0.0000000000000000e+00 1.1000000000000000e+01
ITEM: ATOMS id type x y z 
10 1 4.605 4.60552 4.60438 
11 1 3.09856 3.09942 3.10344 
12 1 3.80718 3.80773 3.80932 
46 1 0.737734 0.740476 0.748954 
47 1 2.29836 2.29583 2.27528 
48 1 1.6585 1.64841 1.45807 
49 2 0.427018 0.492856 2.11899 
50 2 0.827112 1.18501 3.46691 
51 3 1.12013 0.460631 3.96458 
19 1 4.53822 4.53825 6.24266 
20 1 3.00532 3.00527 7.77142 
21 1 3.71333 3.71268 7.06424 
31 1 0.675184 0.673378 10.032 
32 1 2.2069 2.2066 8.58106 
33 1 1.48423 1.48421 9.26541 
16 1 4.53871 6.24317 4.53891 
17 1 3.00512 7.77352 3.00609 
18 1 3.71194 7.06404 3.71209 
25 1 0.674496 10.0258 0.664108 
26 1 2.2052 8.58453 2.20647 
27 1 1.48358 9.2645 1.48084 
4 1 4.60065 6.17905 6.17957 
5 1 3.08161 7.68761 7.68794 
6 1 3.79237 6.98131 6.98068 
37 1 0.736803 10.0365 10.0388 
38 1 2.27017 8.49974 8.49928 
39 1 1.56217 9.20605 9.20443 
13 1 6.24331 4.5385 4.53867 
14 1 7.77335 3.00458 3.00556 
15 1 7.0642 3.71153 3.71141 
28 1 10.0215 0.671362 0.662554 
29 1 8.58383 2.20367 2.20534 
30 1 9.26715 1.48228 1.48237 
1 1 6.17987 4.60064 6.17853 
2 1 7.68855 3.0817 7.68655 
3 1 6.97909 3.79249 6.98278 
40 1 10.0355 0.736046 10.039 
41 1 8.49934 2.27008 8.49824 
42 1 9.2035 1.56179 9.20539 
7 1 6.1798 6.17913 4.60004 
8 1 7.68854 7.6881 3.0808 
9 1 6.98152 6.98191 3.792 
43 1 10.0401 10.0414 0.737006 
44 1 8.50091 8.50033 2.26857 
45 1 9.20558 9.20917 1.56211 
22 1 6.23752 6.23813 6.23782 
23 1 7.7724 7.77379 7.77364 
24 1 7.06635 7.06638 7.06527 
34 1 10.0904 10.0913 10.0931 
35 1 8.5837 8.58448 8.58199 
36 1 9.29136 9.29019 9.29433 
ITEM: TIMESTEP
30
ITEM: NUMBER OF ATOMS
51
ITEM: BOX BOUNDS pp pp pp
0.0000000000000000e+00 1.1000000000000000e+01
0.0000000000000000e+00 1.1002000000000001e+01
0.0000000000000000e+00 1.1000000000000000e+01
ITEM: ATOMS id type x y z 
10 1 4.60638 4.61362 4.60724 
11 1 3.102 3.10371 3.1134 
12 1 3.81349 3.81155 3.81647 
46 1 0.716222 0.722213 0.802544 
47 1 2.31741 2.31476 2.26244 
48 1 1.67833 1.66807 1.44553 
49 2 0.419996 0.478838 2.07426 
50 2 0.825751 1.18519 3.47607 
51 3 1.11507 0.45728 3.97029 
19 1 4.54073 4.54191 6.24905 
20 1 3.00457 3.00456 7.77321 
21 1 3.71654 3.71578 7.06396 
31 1 0.666245 0.663462 10.022 
32 1 2.20917 2.20834 8.58108 
33 1 1.48188 1.4826 9.25769 
16 1 4.54092 6.24588 4.54057 
17 1 3.00507 7.76894 3.00614 
18 1 3.71931 7.07098 3.71982 
25 1 0.669967 10.0091 0.654058 
26 1 2.20596 8.58504 2.20999 
27 1 1.48391 9.25451 1.47543 
4 1 4.60025 6.18357 6.17992 
5 1 3.0811 7.68712 7.68813 
6 1 3.79381 6.9829 6.98056 
37 1 0.733135 10.0368 10.0325 
38 1 2.26673 8.49782 8.49417 
39 1 1.56815 9.20862 9.21279 
13 1 6.24758 4.53916 4.53779 
14 1 7.77159 3.00185 3.00284 
15 1 7.07415 3.71555 3.71605 
28 1 10.0045 0.667017 0.653999 
29 1 8.58594 2.20489 2.20915 
30 1 9.2553 1.48052 1.47554 
1 1 6.18364 4.60002 6.18491 
2 1 7.68712 3.08086 7.68728 
3 1 6.98206 3.79491 6.98121 
40 1 10.0322 0.732801 10.035 
41 1 8.49516 2.26578 8.49705 
42 1 9.20982 1.56975 9.2064 
7 1 6.18216 6.18443 4.59951 
8 1 7.69026 7.68652 3.08091 
9 1 6.97887 6.98529 3.79195 
43 1 10.0327 10.0374 0.73788 
44 1 8.49723 8.50015 2.269 
45 1 9.20627 9.20357 1.56719 
22 1 6.2418 6.24187 6.24004 
23 1 7.7765 7.77614 7.77522 
24 1 7.06504 7.06814 7.0682 
34 1 10.0866 10.0885 10.0912 
35 1 8.58013 8.58245 8.5838 
36 1 9.29422 9.29024 9.28759 
ITEM: TIMESTEP
40
ITEM: NUMBER OF ATOMS
51
ITEM: BOX BOUNDS pp pp pp
0.0000000000000000e+00 1.1000000000000000e+01
0.0000000000000000e+00 1.1002000000000001e+01
0.0000000000000000e+00 1.1000000000000000e+01
ITEM: ATOMS id type x y z 
10 1 4.61917 4.61701 4.61602 
11 1 3.10568 3.10604 3.12071 
12 1 3.81395 3.81542 3.82421 
46 1 0.704308 0.711666 0.869543 
47 1 2.33194 2.32763 2.23375 
48 1 1.68737 1.67833 1.42658 
49 2 0.410589 0.462349 2.00981 
50 2 0.82599 1.18748 3.48722 
51 3 1.10883 0.452968 3.97588 
19 1 4.54517 4.54522 6.25394 
20 1 3.00659 3.00635 7.77151 
21 1 3.7171 3.71685 7.06995 
31 1 0.66316 0.663632 10.0174 
32 1 2.20826 2.20776 8.57892 
33 1 1.48118 1.48081 9.25667 
16 1 4.54537 6.2557 4.5446 
17 1 3.00551 7.77387 3.00732 
18 1 3.71728 7.0728 3.71734 
25 1 0.665709 9.99607 0.649958 
26 1 2.20548 8.58347 2.20833 
27 1 1.48015 9.24821 1.47197 
4 1 4.60315 6.1863 6.18548 
5 1 3.08025 7.68774 7.68701 
6 1 3.79476 6.98303 6.9824 
37 1 0.734622 10.0408 10.0355 
38 1 2.26828 8.498 8.49574 
39 1 1.56768 9.20561 9.20718 
13 1 6.25557 4.54492 4.54413 
14 1 7.77337 3.00562 3.0071 
15 1 7.07319 3.71618 3.71686 
28 1 9.99097 0.661459 0.648962 
29 1 8.58459 2.20422 2.20752 
30 1 9.24832 1.4773 1.47246 
1 1 6.18682 4.60376 6.18345 
2 1 7.68681 3.08125 7.68699 
3 1 6.98174 3.7943 6.98153 
40 1 10.0376 0.734777 10.0365 
41 1 8.4954 2.26838 8.4967 
42 1 9.20699 1.56772 9.20334 
7 1 6.18474 6.18492 4.60166 
8 1 7.68663 7.68874 3.08064 
9 1 6.98455 6.981 3.79496 
43 1 10.0288 10.0309 0.733268 
44 1 8.49591 8.49628 2.2741 
45 1 9.20101 9.20189 1.56497 
22 1 6.2441 6.24464 6.24365 
23 1 7.77484 7.77642 7.77615 
24 1 7.06908 7.06897 7.06796 
34 1 10.084 10.085 10.0886 
35 1 8.58254 8.58159 8.58005 
36 1 9.2879 9.28963 9.29247 
ITEM: TIMESTEP
50
ITEM: NUMBER OF ATOMS
51
ITEM: BOX BOUNDS pp pp pp
0.0000000000000000e+00 1.1000000000000000e+01
0.0000000000000000e+00 1.1002000000000001e+01
0.0000000000000000e+00 1.1000000000000000e+01
ITEM: ATOMS id type x y z 
10 1 4.61816 4.61754 4.61701 
11 1 3.10548 3.10634 3.12184 
12 1 3.81548 3.81576 3.8237 
46 1 0.704061 0.711205 0.872103 
47 1 2.3334 2.32934 2.23087 
48 1 1.68813 1.67903 1.42519 
49 2 0.408914 0.460286 2.00567 
50 2 0.826209 1.18791 3.48863 
51 3 1.10825 0.452561 3.97632 
19 1 4.54523 4.54536 6.25381 
20 1 3.00646 3.00614 7.77171 
21 1 3.71755 3.71743 7.07021 
31 1 0.663629 0.663861 10.0178 
32 1 2.20816 2.20756 8.57895 
33 1 1.48088 1.48069 9.25636 
16 1 4.5455 6.25558 4.54482 
17 1 3.00591 7.7742 3.0075 
18 1 3.7173 7.07247 3.71785 
25 1 0.665639 9.99514 0.649289 
26 1 2.20544 8.58283 2.20733 
27 1 1.47943 9.24849 1.47274 
4 1 4.60305 6.18626 6.18529 
5 1 3.08021 7.68774 7.68707 
6 1 3.79475 6.9832 6.98241 
37 1 0.735808 10.0412 10.0362 
38 1 2.26861 8.49819 8.49663 
39 1 1.56625 9.20605 9.20618 
13 1 6.25576 4.54479 4.54413 
14 1 7.77454 3.00509 3.00668 
15 1 7.07286 3.71635 3.71693 
28 1 9.99052 0.661327 0.649023 
29 1 8.58453 2.2042 2.20703 
30 1 9.24759 1.4764 1.47217 
1 1 6.18643 4.60331 6.18406 
2 1 7.68647 3.08074 7.68699 
3 1 6.98247 3.7952 6.98169 
40 1 10.0385 0.735956 10.0366 
41 1 8.49599 2.26901 8.49669 
42 1 9.20623 1.56621 9.20348 
7 1 6.18558 6.18491 4.60171 
8 1 7.68747 7.68765 3.08119 
9 1 6.98226 6.98233 3.79496 
43 1 10.0279 10.0299 0.732639 
44 1 8.49558 8.49586 2.27444 
45 1 9.20096 9.20204 1.5647 
22 1 6.24461 6.24494 6.24393 
23 1 7.77574 7.77687 7.7764 
24 1 7.06851 7.06916 7.06847 
34 1 10.0833 10.0847 10.0892 
35 1 8.58209 8.58175 8.58081 
36 1 9.28931 9.28993 9.2916 
ITEM: TIMESTEP
60
ITEM: NUMBER OF ATOMS
51
ITEM: BOX BOUNDS pp pp pp
0.0000000000000000e+00 1.1000000000000000e+01
0.0000000000000000e+00 1.1002000000000001e+01
0.0000000000000000e+00 1.1000000000000000e+01
ITEM: ATOMS id type x y z 
10 1 4.61995 4.62017 4.62083 
11 1 3.10646 3.1087 3.12427 
12 1 3.8163 3.81652 3.82716 
46 1 0.704633 0.709379 0.891113 
47 1 2.35252 2.34515 2.19954 
48 1 1.69185 1.68549 1.41526 
49 2 0.392992 0.440258 1.9708 
50 2 0.828519 1.19287 3.50414 
51 3 1.10216 0.448071 3.9811 
19 1 4.54675 4.54706 6.25614 
20 1 3.00739 3.00706 7.77358 
21 1 3.71856 3.71829 7.07288 
31 1 0.66598 0.666399 10.0216 
32 1 2.20644 2.20596 8.57576 
33 1 1.48141 1.48081 9.25757 
16 1 4.54555 6.25562 4.54667 
17 1 3.0077 7.77678 3.00918 
18 1 3.71783 7.0745 3.7192 
25 1 0.661248 9.98858 0.647762 
26 1 2.20334 8.57831 2.20344 
27 1 1.47684 9.24506 1.47035 
4 1 4.60471 6.18768 6.18603 
5 1 3.07919 7.68841 7.68815 
6 1 3.79476 6.98479 6.98378 
37 1 0.741954 10.0445 10.0413 
38 1 2.26994 8.49777 8.50182 
39 1 1.55982 9.21091 9.19782 
13 1 6.25637 4.54502 4.54551 
14 1 7.77825 3.00624 3.00809 
15 1 7.0746 3.71662 3.71778 
28 1 9.98444 0.656555 0.647064 
29 1 8.58082 2.202 2.20302 
30 1 9.24317 1.47246 1.46898 
1 1 6.18736 4.60521 6.18516 
2 1 7.68738 3.07983 7.6878 
3 1 6.98379 3.79524 6.98311 
40 1 10.0449 0.741458 10.0388 
41 1 8.50041 2.27021 8.4964 
42 1 9.2008 1.56052 9.20539 
7 1 6.18672 6.18488 4.60443 
8 1 7.68677 7.68524 3.08364 
9 1 6.97928 6.98247 3.79783 
43 1 10.0204 10.0229 0.725718 
44 1 8.4939 8.49397 2.278 
45 1 9.19623 9.19764 1.5628 
22 1 6.2459 6.24692 6.24725 
23 1 7.77785 7.77935 7.77824 
24 1 7.07094 7.07045 7.0704 
34 1 10.0829 10.0852 10.0905 
35 1 8.58386 8.58369 8.58231 
36 1 9.29107 9.29176 9.29346 
ITEM: TIMESTEP
70
ITEM: NUMBER OF ATOMS
51
ITEM: BOX BOUNDS pp pp pp
0.0000000000000000e+00 1.1000000000000000e+01
0.0000000000000000e+00 1.1002000000000001e+01
0.0000000000000000e+00 1.1000000000000000e+01
ITEM: ATOMS id type x y z 
10 1 4.62007 4.61939 4.62121 
11 1 3.10695 3.10758 3.12376 
12 1 3.81633 3.81662 3.82604 
46 1 0.706043 0.710481 0.889116 
47 1 2.35366 2.34962 2.19473 
48 1 1.69254 1.68443 1.41538 
49 2 0.390889 0.437559 1.97116 
50 2 0.828823 1.1938 3.50683 
51 3 1.10123 0.447265 3.98182 
19 1 4.54705 4.5472 6.25691 
20 1 3.00748 3.00707 7.77395 
21 1 3.71882 3.7187 7.07301 
31 1 0.667023 0.666925 10.023 
32 1 2.20657 2.20588 8.5754 
33 1 1.48126 1.48098 9.25732 
16 1 4.54546 6.25603 4.54697 
17 1 3.00768 7.77747 3.00907 
18 1 3.71797 7.07475 3.71942 
25 1 0.660541 9.98839 0.647698 
26 1 2.20333 8.57817 2.20321 
27 1 1.47578 9.24314 1.46937 
4 1 4.60495 6.18848 6.18669 
5 1 3.07933 7.68827 7.6883 
6 1 3.79495 6.98475 6.98381 
37 1 0.741127 10.0453 10.0405 
38 1 2.26886 8.49802 8.50001 
39 1 1.56205 9.21053 9.20012 
13 1 6.2563 4.54498 4.54596 
14 1 7.77812 3.00666 3.00836 
15 1 7.07542 3.717 3.71837 
28 1 9.98379 0.655546 0.646748 
29 1 8.58005 2.20163 2.20254 
30 1 9.24229 1.47204 1.46854 
1 1 6.18811 4.60534 6.18518 
2 1 7.68724 3.08007 7.68759 
3 1 6.98393 3.79561 6.9828 
40 1 10.0438 0.740813 10.0395 
41 1 8.49881 2.2691 8.49636 
42 1 9.20319 1.56278 9.20519 
7 1 6.1857 6.18464 4.60529 
8 1 7.68557 7.68579 3.08401 
9 1 6.98087 6.98075 3.79861 
43 1 10.0199 10.0225 0.725271 
44 1 8.49338 8.49352 2.27794 
45 1 9.19602 9.19726 1.56324 
22 1 6.24627 6.24659 6.24742 
23 1 7.77833 7.77915 7.77809 
24 1 7.07051 7.07115 7.07095 
34 1 10.0835 10.0855 10.0904 
35 1 8.58407 8.58383 8.58233 
36 1 9.29103 9.29196 9.29346 
ITEM: TIMESTEP
80
ITEM: NUMBER OF ATOMS
51
ITEM: BOX BOUNDS pp pp pp
0.0000000000000000e+00 1.1000000000000000e+01
0.0000000000000000e+00 1.1002000000000001e+01
0.0000000000000000e+00 1.1000000000000000e+01
ITEM: ATOMS id type x y z 
10 1 4.61997 4.61939 4.62127 
11 1 3.1069 3.10766 3.12367 
12 1 3.81644 3.81655 3.82594 
46 1 0.706184 0.710568 0.888917 
47 1 2.35408 2.34995 2.19409 
48 1 1.69251 1.68446 1.41536 
49 2 0.39063 0.437207 1.97111 
50 2 0.828869 1.19394 3.50722 
51 3 1.10109 0.447147 3.98192 
19 1 4.54708 4.54725 6.25698 
20 1 3.00751 3.0071 7.77397 
21 1 3.71887 3.71873 7.07304 
31 1 0.667082 0.667045 10.0231 
32 1 2.20654 2.20589 8.57531 
33 1 1.48134 1.48098 9.25734 
16 1 4.54545 6.25604 4.54704 
17 1 3.00776 7.7775 3.00913 
18 1 3.71797 7.07479 3.71944 
25 1 0.660461 9.9882 0.647603 
26 1 2.20331 8.57802 2.20305 
27 1 1.47564 9.24312 1.46944 
4 1 4.60495 6.18855 6.18668 
5 1 3.07932 7.68826 7.68829 
6 1 3.79501 6.98474 6.98386 
37 1 0.741082 10.0454 10.0404 
38 1 2.26871 8.49807 8.49977 
39 1 1.56235 9.21049 9.20045 
13 1 6.25632 4.54497 4.54601 
14 1 7.77821 3.00669 3.00838 
15 1 7.07543 3.71702 3.71841 
28 1 9.98364 0.655396 0.646696 
29 1 8.57991 2.20154 2.20249 
30 1 9.24222 1.47205 1.46843 
1 1 6.18817 4.60535 6.18522 
2 1 7.68724 3.08008 7.68758 
3 1 6.98396 3.79564 6.98277 
40 1 10.0436 0.740773 10.0396 
41 1 8.49862 2.26891 8.49638 
42 1 9.20354 1.56309 9.20518 
7 1 6.1856 6.18463 4.60537 
8 1 7.68546 7.68578 3.08409 
9 1 6.98092 6.98062 3.79871 
43 1 10.0199 10.0224 0.725264 
44 1 8.49331 8.49345 2.27796 
45 1 9.19597 9.1972 1.56327 
22 1 6.24627 6.24662 6.2475 
23 1 7.77837 7.77921 7.77813 
24 1 7.07053 7.07114 7.07096 
34 1 10.0836 10.0856 10.0904 
35 1 8.58407 8.58387 8.58235 
36 1 9.29112 9.29197 9.29343 
ITEM: TIMESTEP
86
ITEM: NUMBER OF ATOMS
51
ITEM: BOX BOUNDS pp pp pp
0.0000000000000000e+00 1.1000000000000000e+01
0.0000000000000000e+00 1.1002000000000001e+01
0.0000000000000000e+00 1.1000000000000000e+01
ITEM: ATOMS id type x y z 
10 1 4.61997 4.61938 4.62127 
11 1 3.10691 3.10766 3.12366 
12 1 3.81643 3.81655 3.82594 
46 1 0.706186 0.710569 0.888914 
47 1 2.35409 2.34996 2.19408 
48 1 1.69251 1.68447 1.41536 
49 2 0.390627 0.437202 1.97111 
50 2 0.82887 1.19394 3.50723 
51 3 1.10109 0.447145 3.98193 
19 1 4.54708 4.54725 6.25698 
20 1 3.00751 3.0071 7.77398 
21 1 3.71887 3.71873 7.07304 
31 1 0.667083 0.667046 10.0231 
32 1 2.20654 2.20589 8.5753 
33 1 1.48134 1.48098 9.25734 
16 1 4.54545 6.25604 4.54704 
17 1 3.00776 7.77751 3.00913 
18 1 3.71797 7.07479 3.71944 
25 1 0.66046 9.9882 0.647603 
26 1 2.20331 8.57802 2.20305 
27 1 1.47564 9.24312 1.46944 
4 1 4.60495 6.18855 6.18668 
5 1 3.07932 7.68826 7.68829 
6 1 3.79501 6.98473 6.98387 
37 1 0.741081 10.0454 10.0404 
38 1 2.26871 8.49807 8.49977 
39 1 1.56236 9.21049 9.20045 
13 1 6.25632 4.54497 4.54601 
14 1 7.77821 3.00669 3.00837 
15 1 7.07544 3.71702 3.71841 
28 1 9.98364 0.655397 0.646692 
29 1 8.57991 2.20154 2.20249 
30 1 9.24221 1.47204 1.46843 
1 1 6.18817 4.60535 6.18522 
2 1 7.68723 3.08008 7.68758 
3 1 6.98396 3.79564 6.98277 
40 1 10.0436 0.740773 10.0396 
41 1 8.49862 2.26891 8.49638 
42 1 9.20354 1.56309 9.20518 
7 1 6.1856 6.18463 4.60537 
8 1 7.68547 7.68578 3.0841 
9 1 6.98091 6.98062 3.79871 
43 1 10.0199 10.0224 0.725263 
44 1 8.49331 8.49344 2.27796 
45 1 9.19596 9.1972 1.56327 
22 1 6.24628 6.24662 6.2475 
23 1 7.77837 7.77921 7.77813 
24 1 7.07053 7.07114 7.07096 
34 1 10.0836 10.0856 10.0904 
35 1 8.58407 8.58387 8.58235 
36 1 9.29112 9.29197 9.29343 
ITEM: TIMESTEP
88
ITEM: NUMBER OF ATOMS
51
ITEM: BOX BOUNDS pp pp pp
0.0000000000000000e+00 1.1000000000000000e+01
0.0000000000000000e+00 1.1002000000000001e+01
0.0000000000000000e+00 1.1000000000000000e+01
ITEM: ATOMS id type x y z 
10 1 4.61997 4.61938 4.62127 
11 1 3.10691 3.10766 3.12366 
12 1 3.81643 3.81655 3.82594 
46 1 0.706186 0.710569 0.888914 
47 1 2.35409 2.34996 2.19408 
48 1 1.69251 1.68447 1.41536 
49 2 0.390626 0.437202 1.97111 
50 2 0.82887 1.19394 3.50723 
51 3 1.10109 0.447145 3.98193 
19 1 4.54708 4.54725 6.25698 
20 1 3.00751 3.0071 7.77398 
21 1 3.71887 3.71873 7.07304 
31 1 0.667083 0.667046 10.0231 
32 1 2.20654 2.20589 8.5753 
33 1 1.48134 1.48098 9.25734 
16 1 4.54545 6.25604 4.54704 
17 1 3.00776 7.77751 3.00913 
18 1 3.71797 7.07479 3.71944 
25 1 0.66046 9.9882 0.647603 
26 1 2.20331 8.57802 2.20305 
27 1 1.47564 9.24312 1.46944 
4 1 4.60495 6.18855 6.18668 
5 1 3.07932 7.68826 7.68829 
6 1 3.79501 6.98473 6.98387 
37 1 0.741081 10.0454 10.0404 
38 1 2.26871 8.49807 8.49977 
39 1 1.56236 9.21049 9.20045 
13 1 6.25632 4.54497 4.54601 
14 1 7.77821 3.00669 3.00837 
15 1 7.07544 3.71702 3.71841 
28 1 9.98364 0.655397 0.646692 
29 1 8.57991 2.20154 2.20249 
30 1 9.24222 1.47204 1.46843 
1 1 6.18817 4.60534 6.18522 
2 1 7.68723 3.08008 7.68758 
3 1 6.98396 3.79565 6.98277 
40 1 10.0436 0.740773 10.0396 
41 1 8.49862 2.26891 8.49638 
42 1 9.20354 1.56309 9.20518 
7 1 6.1856 6.18463 4.60537 
8 1 7.68547 7.68578 3.0841 
9 1 6.98091 6.98062 3.79871 
43 1 10.0199 10.0224 0.725263 
44 1 8.49331 8.49344 2.27796 
45 1 9.19596 9.1972 1.56327 
22 1 6.24628 6.24662 6.2475 
23 1 7.77837 7.77921 7.77813 
24 1 7.07053 7.07114 7.07096 
34 1 10.0836 10.0856 10.0904 
35 1 8.58407 8.58387 8.58235 
36 1 9.29112 9.29197 9.29343 
ITEM: TIMESTEP
89
ITEM: NUMBER OF ATOMS
51
ITEM: BOX BOUNDS pp pp pp
-5.0360222073963758e-08 1.1000000050360223e+01
-5.0502702712135383e-08 1.1002000050502703e+01
-4.9436685075810643e-08 1.1000000049436686e+01
ITEM: ATOMS id type x y z 
10 1 4.61997 4.61938 4.62127 
11 1 3.10691 3.10766 3.12366 
12 1 3.81643 3.81655 3.82594 
46 1 0.706186 0.710569 0.888914 
47 1 2.35409 2.34996 2.19408 
48 1 1.69251 1.68447 1.41536 
49 2 0.390626 0.437202 1.97111 
50 2 0.82887 1.19394 3.50723 
51 3 1.10109 0.447145 3.98193 
19 1 4.54708 4.54725 6.25698 
20 1 3.00751 3.0071 7.77398 
21 1 3.71887 3.71873 7.07304 
31 1 0.667083 0.667046 10.0231 
32 1 2.20654 2.20589 8.5753 
33 1 1.48134 1.48098 9.25734 
16 1 4.54545 6.25604 4.54704 
17 1 3.00776 7.77751 3.00913 
18 1 3.71797 7.07479 3.71944 
25 1 0.66046 9.9882 0.647603 
26 1 2.20331 8.57802 2.20305 
27 1 1.47564 9.24312 1.46944 
4 1 4.60495 6.18855 6.18668 
5 1 3.07932 7.68826 7.68829 
6 1 3.79501 6.98473 6.98387 
37 1 0.741081 10.0454 10.0404 
38 1 2.26871 8.49807 8.49977 
39 1 1.56236 9.21049 9.20045 
13 1 6.25632 4.54497 4.54601 
14 1 7.77821 3.00669 3.00837 
15 1 7.07544 3.71702 3.71841 
28 1 9.98364 0.655397 0.646692 
29 1 8.57991 2.20154 2.20249 
30 1 9.24222 1.47204 1.46843 
1 1 6.18817 4.60535 6.18522 
2 1 7.68723 3.08008 7.68758 
3 1 6.98396 3.79565 6.98277 
40 1 10.0436 0.740773 10.0396 
41 1 8.49862 2.26891 8.49638 
42 1 9.20354 1.56309 9.20518 
7 1 6.1856 6.18463 4.60537 
8 1 7.68547 7.68578 3.0841 
9 1 6.98091 6.98062 3.79871 
43 1 10.0199 10.0224 0.725263 
44 1 8.49331 8.49344 2.27796 
45 1 9.19596 9.1972 1.56327 
22 1 6.24628 6.24662 6.2475 
23 1 7.77837 7.77921 7.77813 
24 1 7.07053 7.07114 7.07096 
34 1 10.0836 10.0856 10.0904 
35 1 8.58407 8.58387 8.58235 
36 1 9.29112 9.29197 9.29343 
ITEM: TIMESTEP
90
ITEM: NUMBER OF ATOMS
51
ITEM: BOX BOUNDS pp pp pp
-5.0360222073963758e-08 1.1000000050360223e+01
-5.0502702712135383e-08 1.1002000050502703e+01
-4.9436685075810643e-08 1.1000000049436686e+01
ITEM: ATOMS id type x y z 
10 1 4.61997 4.61938 4.62127 
11 1 3.10691 3.10766 3.12366 
12 1 3.81643 3.81655 3.82594 
46 1 0.706186 0.710569 0.888914 
47 1 2.35409 2.34996 2.19408 
48 1 1.69251 1.68447 1.41536 
49 2 0.390626 0.437202 1.97111 
50 2 0.82887 1.19394 3.50723 
51 3 1.10109 0.447145 3.98193 
19 1 4.54708 4.54725 6.25698 
20 1 3.00751 3.0071 7.77398 
21 1 3.71887 3.71873 7.07304 
31 1 0.667083 0.667046 10.0231 
32 1 2.20654 2.20589 8.5753 
33 1 1.48134 1.48098 9.25734 
16 1 4.54545 6.25604 4.54704 
17 1 3.00776 7.77751 3.00913 
18 1 3.71797 7.07479 3.71944 
25 1 0.66046 9.9882 0.647603 
26 1 2.20331 8.57802 2.20305 
27 1 1.47564 9.24312 1.46944 
4 1 4.60495 6.18855 6.18668 
5 1 3.07932 7.68826 7.68829 
6 1 3.79501 6.98473 6.98387 
37 1 0.741081 10.0454 10.0404 
38 1 2.26871 8.49807 8.49977 
39 1 1.56236 9.21049 9.20045 
13 1 6.25632 4.54497 4.54601 
14 1 7.77821 3.00669 3.00837 
15 1 7.07544 3.71702 3.71841 
28 1 9.98364 0.655397 0.646692 
29 1 8.57991 2.20154 2.20249 
30 1 9.24222 1.47204 1.46843 
1 1 6.18817 4.60534 6.18522 
2 1 7.68723 3.08008 7.68758 
3 1 6.98396 3.79565 6.98277 
40 1 10.0436 0.740773 10.0396 
41 1 8.49862 2.26891 8.49638 
42 1 9.20354 1.56309 9.20518 
7 1 6.1856 6.18463 4.60537 
8 1 7.68547 7.68578 3.0841 
9 1 6.98091 6.98062 3.79871 
43 1 10.0199 10.0224 0.725263 
44 1 8.49331 8.49344 2.27796 
45 1 9.19596 9.1972 1.56327 
22 1 6.24628 6.24662 6.2475 
23 1 7.77837 7.77921 7.77813 
24 1 7.07053 7.07114 7.07096 
34 1 10.0836 10.0856 10.0904 
35 1 8.58407 8.58387 8.58235 
36 1 9.29112 9.29197 9.29343 
ITEM: TIMESTEP
100
ITEM: NUMBER OF ATOMS
51
ITEM: BOX BOUNDS pp pp pp
-5.4810364797538451e-03 1.1005481036479756e+01
-5.5010505532054168e-03 1.1007501050553204e+01
-5.0497720572417488e-03 1.1005049772057241e+01
ITEM: ATOMS id type x y z 
10 1 4.61915 4.61854 4.62051 
11 1 3.10454 3.10528 3.12149 
12 1 3.81473 3.81486 3.82438 
46 1 0.701402 0.705769 0.884658 
47 1 2.35094 2.3468 2.19099 
48 1 1.68874 1.68068 1.41164 
49 2 0.385526 0.432126 1.96787 
50 2 0.824217 1.18964 3.50542 
51 3 1.0967 0.442088 3.98054 
19 1 4.54617 4.54634 6.25763 
20 1 3.00504 3.00463 7.77605 
21 1 3.71713 3.71698 7.07446 
31 1 0.662213 0.662159 10.0273 
32 1 2.20325 2.20258 8.57814 
33 1 1.47734 1.47696 9.26078 
16 1 4.54454 6.25676 4.54621 
17 1 3.0053 7.77977 3.00687 
18 1 3.71622 7.07634 3.71783 
25 1 0.655578 9.99269 0.64309 
26 1 2.2 8.58111 2.20001 
27 1 1.47164 9.24683 1.46574 
4 1 4.60411 6.18919 6.18726 
5 1 3.07692 7.69043 7.69029 
6 1 3.79329 6.98624 6.98525 
37 1 0.736299 10.05 10.0446 
38 1 2.26546 8.50109 8.50253 
39 1 1.55842 9.21422 9.20389 
13 1 6.25704 4.54405 4.54517 
14 1 7.78046 3.00422 3.00611 
15 1 7.07698 3.71527 3.71681 
28 1 9.98811 0.650494 0.642174 
29 1 8.58299 2.19823 2.19944 
30 1 9.24592 1.46802 1.46475 
1 1 6.18881 4.6045 6.1858 
2 1 7.6894 3.07768 7.68957 
3 1 6.98546 3.79393 6.98415 
40 1 10.0482 0.735973 10.0438 
41 1 8.50162 2.26565 8.49915 
42 1 9.20728 1.55914 9.20861 
7 1 6.18624 6.18526 4.6046 
8 1 7.68763 7.68795 3.0819 
9 1 6.9824 6.98211 3.79713 
43 1 10.0244 10.0269 0.720838 
44 1 8.49631 8.49645 2.27498 
45 1 9.19968 9.20093 1.55962 
22 1 6.24698 6.24733 6.24815 
23 1 7.78062 7.78147 7.7802 
24 1 7.07207 7.07268 7.07237 
34 1 10.0882 10.0902 10.0947 
35 1 8.58716 8.58697 8.5852 
36 1 9.29487 9.29575 9.2969 
ITEM: TIMESTEP
110
ITEM: NUMBER OF ATOMS
51
ITEM: BOX BOUNDS pp pp pp
-1.0640093258807737e-02 1.1010640093258811e+01
-1.0762429081385054e-02 1.1012762429081382e+01
-3.9830869853224333e-03 1.1003983086985320e+01
ITEM: ATOMS id type x y z 
10 1 4.61923 4.61859 4.62162 
11 1 3.10261 3.1033 3.12213 
12 1 3.8128 3.81291 3.82436 
46 1 0.696768 0.701017 0.885164 
47 1 2.3478 2.34356 2.19089 
48 1 1.68553 1.67742 1.413 
49 2 0.38063 0.427131 1.96847 
50 2 0.819866 1.18556 3.50601 
51 3 1.0925 0.43722 3.98087 
19 1 4.54603 4.54619 6.25676 
20 1 3.00324 3.00278 7.77511 
21 1 3.71591 3.71571 7.07375 
31 1 0.656637 0.656504 10.0267 
32 1 2.19996 2.19924 8.57781 
33 1 1.47366 1.47322 9.25969 
16 1 4.54438 6.25675 4.54716 
17 1 3.00349 7.78147 3.00787 
18 1 3.71497 7.07745 3.71861 
25 1 0.649993 9.99715 0.642916 
26 1 2.19667 8.58431 2.2004 
27 1 1.46809 9.24987 1.46673 
4 1 4.60422 6.18894 6.18623 
5 1 3.07493 7.69225 7.68963 
6 1 3.79137 6.988 6.98526 
37 1 0.731089 10.055 10.0442 
38 1 2.26185 8.50449 8.50235 
39 1 1.55447 9.21814 9.20374 
13 1 6.25701 4.54387 4.54612 
14 1 7.78212 3.00238 3.00711 
15 1 7.07807 3.71397 3.71759 
28 1 9.99249 0.64479 0.641993 
29 1 8.58614 2.19483 2.19984 
30 1 9.24887 1.4644 1.46574 
1 1 6.18855 4.60458 6.18474 
2 1 7.6912 3.07563 7.68887 
3 1 6.98718 3.79199 6.9842 
40 1 10.053 0.730673 10.0435 
41 1 8.50485 2.26196 8.49909 
42 1 9.21131 1.55513 9.20828 
7 1 6.18594 6.18496 4.60576 
8 1 7.6894 7.68975 3.0827 
9 1 6.98408 6.98383 3.79713 
43 1 10.0292 10.0318 0.721012 
44 1 8.49961 8.49981 2.27512 
45 1 9.20355 9.20489 1.55986 
22 1 6.24692 6.2473 6.24729 
23 1 7.78227 7.78316 7.77927 
24 1 7.07313 7.07376 7.07166 
34 1 10.0934 10.0955 10.0948 
35 1 8.59036 8.59019 8.58487 
36 1 9.29808 9.29907 9.29586 
ITEM: TIMESTEP
120
ITEM: NUMBER OF ATOMS
51
ITEM: BOX BOUNDS pp pp pp
-1.5177909385780656e-02 1.1015177909385784e+01
-1.5407005989972713e-02 1.1017407005989970e+01
-2.6928840836671956e-03 1.1002692884083663e+01
ITEM: ATOMS id type x y z 
10 1 4.61942 4.61878 4.62283 
11 1 3.10093 3.10161 3.12288 
12 1 3.81117 3.81119 3.82439 
46 1 0.692718 0.696835 0.885806 
47 1 2.34514 2.3408 2.19096 
48 1 1.68254 1.67439 1.41439 
49 2 0.3763 0.422681 1.96917 
50 2 0.816053 1.18197 3.50673 
51 3 1.08878 0.432921 3.98126 
19 1 4.54608 4.54621 6.2558 
20 1 3.00194 3.00142 7.77387 
21 1 3.71471 3.7145 7.07317 
31 1 0.651578 0.651327 10.0259 
32 1 2.19703 2.1962 8.57736 
33 1 1.47047 1.47001 9.25846 
16 1 4.54439 6.25658 4.54821 
17 1 3.00219 7.7827 3.0092 
18 1 3.71377 7.07855 3.71931 
25 1 0.644896 10.0011 0.642912 
26 1 2.19375 8.58711 2.20098 
27 1 1.46498 9.25246 1.46785 
4 1 4.60445 6.1886 6.18509 
5 1 3.07316 7.69388 7.68886 
6 1 3.78967 6.98952 6.9853 
37 1 0.726352 10.0595 10.0437 
38 1 2.25838 8.50778 8.50223 
39 1 1.55118 9.22147 9.20329 
13 1 6.25683 4.54385 4.54718 
14 1 7.78331 3.00101 3.00845 
15 1 7.07915 3.71276 3.71826 
28 1 9.99639 0.639573 0.641983 
29 1 8.58888 2.19184 2.20041 
30 1 9.25138 1.46121 1.46688 
1 1 6.18817 4.60482 6.18367 
2 1 7.69277 3.07386 7.68815 
3 1 6.98874 3.7902 6.9841 
40 1 10.0573 0.725842 10.0431 
41 1 8.50794 2.25841 8.49912 
42 1 9.21479 1.55177 9.20761 
7 1 6.18548 6.18453 4.60694 
8 1 7.69092 7.69133 3.08351 
9 1 6.98564 6.98538 3.79732 
43 1 10.0334 10.0362 0.72131 
44 1 8.50279 8.50305 2.27515 
45 1 9.20684 9.20823 1.56047 
22 1 6.24674 6.24711 6.24635 
23 1 7.78346 7.78437 7.77801 
24 1 7.07416 7.07486 7.07108 
34 1 10.0981 10.1004 10.0948 
35 1 8.59312 8.59309 8.58436 
36 1 9.30096 9.30188 9.29471 
ITEM: TIMESTEP
130
ITEM: NUMBER OF ATOMS
51
ITEM: BOX BOUNDS pp pp pp
-2.0062608986859555e-02 1.1020062608986864e+01
-2.0410178024419405e-02 1.1022410178024415e+01
-1.8107236911860170e-03 1.1001810723691182e+01
ITEM: ATOMS id type x y z 
10 1 4.61968 4.61899 4.62406 
11 1 3.09918 3.09979 3.12343 
12 1 3.80939 3.80941 3.82431 
46 1 0.688413 0.692373 0.885999 
47 1 2.3423 2.33786 2.19065 
48 1 1.67921 1.67102 1.41551 
49 2 0.371625 0.41786 1.96955 
50 2 0.811963 1.1781 3.50738 
51 3 1.08475 0.428297 3.98154 
19 1 4.5462 4.54632 6.25479 
20 1 3.00064 3.00007 7.77265 
21 1 3.71338 3.71313 7.07274 
31 1 0.646091 0.645765 10.0256 
32 1 2.19383 2.19295 8.57724 
33 1 1.46704 1.46645 9.25731 
16 1 4.54447 6.25632 4.54932 
17 1 3.0009 7.78393 3.0105 
18 1 3.71244 7.07979 3.71986 
25 1 0.639348 10.0055 0.642425 
26 1 2.19062 8.5901 2.2013 
27 1 1.46162 9.2552 1.46868 
4 1 4.60473 6.18821 6.18393 
5 1 3.07127 7.69564 7.68825 
6 1 3.78783 6.99118 6.98548 
37 1 0.721166 10.0645 10.0436 
38 1 2.25453 8.51143 8.50245 
39 1 1.5477 9.22499 9.20312 
13 1 6.25656 4.54391 4.54828 
14 1 7.78449 2.99967 3.00977 
15 1 7.08036 3.71139 3.7188 
28 1 10.0006 0.633889 0.641461 
29 1 8.59175 2.18864 2.2007 
30 1 9.25412 1.45777 1.46781 
1 1 6.18774 4.6051 6.18256 
2 1 7.69446 3.07194 7.68758 
3 1 6.99044 3.78827 6.98416 
40 1 10.062 0.720555 10.0431 
41 1 8.51134 2.25447 8.49952 
42 1 9.21852 1.54823 9.20718 
7 1 6.18496 6.18403 4.60817 
8 1 7.69257 7.69305 3.08418 
9 1 6.98732 6.98703 3.79734 
43 1 10.0381 10.0409 0.721132 
44 1 8.50634 8.50666 2.2748 
45 1 9.21027 9.21176 1.56078 
22 1 6.24647 6.24685 6.24536 
23 1 7.78464 7.78557 7.77676 
24 1 7.07532 7.07608 7.07067 
34 1 10.1033 10.1056 10.0952 
35 1 8.59612 8.59619 8.58407 
36 1 9.304 9.30496 9.29383 
ITEM: TIMESTEP
140
ITEM: NUMBER OF ATOMS
51
ITEM: BOX BOUNDS pp pp pp
-2.3442846395056244e-02 1.1023442846395060e+01
-2.3981736637295546e-02 1.1025981736637290e+01
-1.2580734239387077e-03 1.1001258073423935e+01
ITEM: ATOMS id type x y z 
10 1 4.61996 4.61924 4.62501 
11 1 3.09803 3.09857 3.12379 
12 1 3.80816 3.80811 3.82423 
46 1 0.68548 0.689218 0.885957 
47 1 2.34035 2.33576 2.19022 
48 1 1.67685 1.66857 1.41634 