ITEM: TIMESTEP
0
ITEM: NUMBER OF ATOMS
59
ITEM: BOX BOUNDS pp pp pp
0.0000000000000000e+00 3.2808000000000000e+01
0.0000000000000000e+00 1.7780000000000001e+01
0.0000000000000000e+00 2.4729999999999999e+00
ITEM: ATOMS id type x y z 
13 1 7.043 0.849 2.464 
29 1 7.397 1.432 1.228 
37 1 8.035 2.733 1.228 
57 2 5.4 0.972 1.228 
58 2 4.414 2.051 1.639 
59 3 5.058 2.779 1.678 
1 1 6.173 17.398 2.464 
5 1 5.371 17.398 1.228 
9 1 3.973 17.398 1.228 
16 1 7.043 16.167 2.464 
32 1 7.397 15.584 1.228 
40 1 8.035 14.283 1.228 
45 1 3.236 17.398 2.464 
49 1 1.81 17.398 2.464 
53 1 1.083 17.398 1.228 
4 1 10.968 8.508 2.464 
8 1 11.771 8.508 1.228 
12 1 13.168 8.508 1.228 
18 1 10.098 7.277 2.464 
21 1 8.308 3.392 2.464 
26 1 8.833 4.734 2.464 
34 1 9.745 6.694 1.228 
42 1 9.106 5.393 1.228 
48 1 13.906 8.508 2.464 
52 1 15.331 8.508 2.464 
56 1 16.058 8.508 1.228 
19 1 10.098 9.739 2.464 
24 1 8.308 13.624 2.464 
27 1 8.833 12.282 2.464 
35 1 9.745 10.322 1.228 
43 1 9.106 11.623 1.228 
3 1 22.577 8.508 2.464 
7 1 21.775 8.508 1.228 
11 1 20.377 8.508 1.228 
20 1 23.447 7.277 2.464 
36 1 23.801 6.694 1.228 
44 1 24.439 5.393 1.228 
47 1 19.64 8.508 2.464 
51 1 18.214 8.508 2.464 
55 1 17.487 8.508 1.228 
17 1 23.447 9.739 2.464 
33 1 23.801 10.322 1.228 
41 1 24.439 11.623 1.228 
15 1 26.502 0.849 2.464 
23 1 25.237 3.392 2.464 
28 1 24.712 4.734 2.464 
31 1 26.149 1.432 1.228 
39 1 25.511 2.733 1.228 
2 1 27.373 17.398 2.464 
6 1 28.175 17.398 1.228 
10 1 29.572 17.398 1.228 
14 1 26.502 16.167 2.464 
22 1 25.237 13.624 2.464 
25 1 24.712 12.282 2.464 
30 1 26.149 15.584 1.228 
38 1 25.511 14.283 1.228 
46 1 30.31 17.398 2.464 
50 1 31.735 17.398 2.464 
54 1 32.462 17.398 1.228 
ITEM: TIMESTEP
10
ITEM: NUMBER OF ATOMS
59
ITEM: BOX BOUNDS pp pp pp
0.0000000000000000e+00 3.2808000000000000e+01
0.0000000000000000e+00 1.7780000000000001e+01
0.0000000000000000e+00 2.4729999999999999e+00
ITEM: ATOMS id type x y z 
13 1 7.0987 0.807344 2.46434 
29 1 7.43842 1.40829 1.22767 
37 1 8.04687 2.70103 1.22764 
57 2 5.34033 0.951015 1.23432 
58 2 4.41382 2.0854 1.64495 
59 3 5.04288 2.74811 1.67114 
1 1 6.09891 17.3572 2.46353 
5 1 5.37409 17.5711 1.22362 
9 1 3.99179 17.3413 1.22747 
16 1 7.05067 16.1739 2.46421 
32 1 7.43034 15.5759 1.22775 
40 1 8.04456 14.3222 1.22771 
45 1 3.26529 17.3921 2.46414 
49 1 1.7833 17.3983 2.46424 
53 1 1.10737 17.3982 1.22774 
4 1 10.971 8.50851 2.46426 
8 1 11.7971 8.50809 1.22766 
12 1 13.1992 8.508 1.22772 
18 1 10.0618 7.29033 2.46429 
21 1 8.30653 3.36927 2.46425 
26 1 8.83205 4.75504 2.46427 
34 1 9.70608 6.67381 1.22776 
42 1 9.09632 5.42917 1.22771 
48 1 13.9091 8.508 2.46429 
52 1 15.3246 8.508 2.46429 
56 1 16.0528 8.508 1.22771 
19 1 10.0613 9.72677 2.46429 
24 1 8.30717 13.6474 2.46427 
27 1 8.832 12.2624 2.46427 
35 1 9.70582 10.3429 1.22776 
43 1 9.09594 11.5887 1.22772 
3 1 22.575 8.508 2.46426 
7 1 21.7472 8.508 1.22766 
11 1 20.3461 8.508 1.22772 
20 1 23.4843 7.28913 2.46429 
36 1 23.8405 6.67255 1.22777 
44 1 24.4483 5.42897 1.22772 
47 1 19.6392 8.508 2.46429 
51 1 18.2223 8.508 2.46429 
55 1 17.4885 8.508 1.22771 
17 1 23.4843 9.72687 2.46429 
33 1 23.8405 10.3435 1.22777 
41 1 24.4483 11.587 1.22772 
15 1 26.4646 0.836702 2.46429 
23 1 25.2374 3.36887 2.46427 
28 1 24.7116 4.75673 2.46427 
31 1 26.1095 1.4538 1.22777 
39 1 25.5016 2.69736 1.22771 
2 1 27.3715 17.398 2.46426 
6 1 28.2038 17.398 1.22766 
10 1 29.6006 17.398 1.22773 
14 1 26.4646 16.1793 2.46429 
22 1 25.2374 13.6471 2.46427 
25 1 24.7116 12.2593 2.46427 
30 1 26.1095 15.5622 1.22777 
38 1 25.5016 14.3186 1.22771 
46 1 30.3024 17.398 2.46429 
50 1 31.7584 17.398 2.46429 
54 1 32.5062 17.398 1.22771 
ITEM: TIMESTEP
20
ITEM: NUMBER OF ATOMS
59
ITEM: BOX BOUNDS pp pp pp
0.0000000000000000e+00 3.2808000000000000e+01
0.0000000000000000e+00 1.7780000000000001e+01
0.0000000000000000e+00 2.4729999999999999e+00
ITEM: ATOMS id type x y z 
13 1 7.11746 0.788404 2.46425 
29 1 7.46518 1.40143 1.22765 
37 1 8.05397 2.68462 1.22767 
57 2 5.3267 0.996349 1.23456 
58 2 4.3895 2.1022 1.65175 
59 3 5.04606 2.75614 1.6694 
1 1 6.13209 17.3592 2.46222 
5 1 5.33196 17.6423 1.22114 
9 1 4.00641 17.3017 1.22694 
16 1 7.05434 16.1407 2.46411 
32 1 7.45382 15.5675 1.22765 
40 1 8.05885 14.3328 1.22775 
45 1 3.28733 17.3748 2.46359 
49 1 1.79801 17.3985 2.46422 
53 1 1.0738 17.399 1.22773 
4 1 10.9668 8.50828 2.4642 
8 1 11.7801 8.5083 1.22776 
12 1 13.198 8.50798 1.22777 
18 1 10.0458 7.28834 2.46425 
21 1 8.30914 3.36366 2.46416 
26 1 8.82121 4.74798 2.46423 
34 1 9.68882 6.67828 1.22777 
42 1 9.08216 5.42965 1.22776 
48 1 13.907 8.50799 2.46423 
52 1 15.2945 8.508 2.46423 
56 1 16.0458 8.508 1.22777 
19 1 10.0457 9.72842 2.46425 
24 1 8.31339 13.651 2.46422 
27 1 8.8247 12.2616 2.46423 
35 1 9.68859 10.3382 1.22777 
43 1 9.08329 11.5844 1.22776 
3 1 22.5774 8.508 2.4642 
7 1 21.7627 8.508 1.22776 
11 1 20.3459 8.508 1.22777 
20 1 23.4995 7.28882 2.46426 
36 1 23.8571 6.67885 1.22777 
44 1 24.4601 5.43659 1.22776 
47 1 19.6453 8.508 2.46423 
51 1 18.2474 8.508 2.46423 
55 1 17.4987 8.508 1.22777 
17 1 23.4995 9.72718 2.46426 
33 1 23.8571 10.3371 1.22777 
41 1 24.4601 11.5794 1.22776 
15 1 26.4482 0.837491 2.46426 
23 1 25.2298 3.36875 2.46423 
28 1 24.7187 4.75778 2.46423 
31 1 26.0922 1.4487 1.22777 
39 1 25.4897 2.69009 1.22776 
2 1 27.366 17.398 2.4642 
6 1 28.1938 17.398 1.22776 
10 1 29.5909 17.398 1.22777 
14 1 26.4482 16.1785 2.46426 
22 1 25.2298 13.6472 2.46423 
25 1 24.7187 12.2582 2.46423 
30 1 26.0922 15.5673 1.22777 
38 1 25.4897 14.3259 1.22776 
46 1 30.3177 17.398 2.46423 
50 1 31.7911 17.398 2.46423 
54 1 32.525 17.3982 1.22777 
ITEM: TIMESTEP
30
ITEM: NUMBER OF ATOMS
59
ITEM: BOX BOUNDS pp pp pp
0.0000000000000000e+00 3.2808000000000000e+01
0.0000000000000000e+00 1.7780000000000001e+01
0.0000000000000000e+00 2.4729999999999999e+00
ITEM: ATOMS id type x y z 
13 1 7.21109 0.750061 2.46314 
29 1 7.53887 1.34847 1.22701 
37 1 8.09334 2.65752 1.22747 
57 2 5.30553 1.14289 1.22976 
58 2 4.31819 2.19745 1.68209 
59 3 5.03092 2.78889 1.6667 
1 1 6.13965 17.3523 2.45587 
5 1 5.36464 17.7873 1.21233 
9 1 4.0342 17.1819 1.22454 
16 1 7.02402 16.0962 2.46384 
32 1 7.49022 15.5852 1.22732 
40 1 8.12876 14.3514 1.22765 
45 1 3.29985 17.2871 2.46135 
49 1 1.85119 17.4002 2.46404 
53 1 1.09877 17.4055 1.22761 
4 1 10.9535 8.49976 2.46433 
8 1 11.7519 8.50615 1.22766 
12 1 13.1767 8.50818 1.2277 
18 1 10.0143 7.29752 2.46427 
21 1 8.31618 3.34028 2.46412 
26 1 8.79081 4.74561 2.46427 
34 1 9.63461 6.69806 1.22773 
42 1 9.02971 5.42609 1.2277 
48 1 13.9495 8.50794 2.4643 
52 1 15.3057 8.50798 2.4643 
56 1 16.0277 8.508 1.2277 
19 1 10.0163 9.71 2.46427 
24 1 8.34246 13.6563 2.46423 
27 1 8.80129 12.248 2.46429 
35 1 9.63695 10.3079 1.22773 
43 1 9.03777 11.5639 1.22771 
3 1 22.5822 8.508 2.46433 
7 1 21.7854 8.508 1.22766 
11 1 20.3609 8.508 1.2277 
20 1 23.5288 7.30549 2.46426 
36 1 23.9113 6.70833 1.22773 
44 1 24.5092 5.45326 1.22771 
47 1 19.587 8.508 2.4643 
51 1 18.24 8.508 2.4643 
55 1 17.5143 8.508 1.2277 
17 1 23.5288 9.71051 2.46426 
33 1 23.9113 10.3077 1.22773 
41 1 24.5092 11.5627 1.22771 
15 1 26.4185 0.819148 2.46426 
23 1 25.2057 3.35972 2.46429 
28 1 24.742 4.76891 2.46429 
31 1 26.0378 1.41935 1.22773 
39 1 25.4401 2.6755 1.22771 
2 1 27.3595 17.398 2.46433 
6 1 28.1932 17.398 1.22767 
10 1 29.5794 17.398 1.2277 
14 1 26.4185 16.1969 2.46426 
22 1 25.2057 13.6563 2.46429 
25 1 24.742 12.2471 2.46429 
30 1 26.0378 15.5967 1.22773 
38 1 25.4401 14.3405 1.22771 
46 1 30.3284 17.3978 2.4643 
50 1 31.7831 17.3977 2.4643 
54 1 32.5281 17.4004 1.22767 
ITEM: TIMESTEP
40
ITEM: NUMBER OF ATOMS
59
ITEM: BOX BOUNDS pp pp pp
0.0000000000000000e+00 3.2808000000000000e+01
0.0000000000000000e+00 1.7780000000000001e+01
0.0000000000000000e+00 2.4729999999999999e+00
ITEM: ATOMS id type x y z 
13 1 7.30735 0.68833 2.46033 
29 1 7.63215 1.28452 1.22419 
37 1 8.14059 2.64094 1.22718 
57 2 5.32513 1.12487 1.22721 
58 2 4.25097 2.30056 1.71665 
59 3 5.00353 2.85485 1.66544 
1 1 6.13367 17.3997 2.44731 
5 1 5.38104 17.7613 1.20635 
9 1 4.04224 17.1241 1.22179 
16 1 6.97117 16.1171 2.46247 
32 1 7.44949 15.6133 1.2262 
40 1 8.19373 14.3877 1.2275 
45 1 3.31562 17.1889 2.45864 
49 1 1.87761 17.3974 2.46327 
53 1 1.13528 17.4266 1.22695 
4 1 10.9234 8.49504 2.46425 
8 1 11.7342 8.49589 1.22775 
12 1 13.1452 8.50961 1.22775 
18 1 9.98983 7.28656 2.46425 
21 1 8.33244 3.33896 2.46376 
26 1 8.75322 4.75057 2.4642 
34 1 9.58201 6.70757 1.22773 
42 1 8.97755 5.44684 1.2277 
48 1 13.9166 8.50877 2.46424 
52 1 15.3029 8.50805 2.46425 
56 1 16.0253 8.50799 1.22776 
19 1 9.99281 9.70441 2.46426 
24 1 8.38705 13.6817 2.46408 
27 1 8.76158 12.262 2.46424 
35 1 9.58685 10.2824 1.22774 
43 1 8.97253 11.5604 1.22773 
3 1 22.6076 8.508 2.46425 
7 1 21.8052 8.508 1.22775 
11 1 20.3957 8.508 1.22776 
20 1 23.5459 7.30138 2.46426 
36 1 23.9652 6.73335 1.22774 
44 1 24.5723 5.46775 1.22774 
47 1 19.6142 8.508 2.46424 
51 1 18.2275 8.508 2.46425 
55 1 17.5063 8.508 1.22776 
17 1 23.5459 9.71462 2.46426 
33 1 23.9652 10.2827 1.22774 
41 1 24.5723 11.5483 1.22774 
15 1 26.4214 0.815123 2.46426 
23 1 25.1754 3.34665 2.46426 
28 1 24.7772 4.76797 2.46426 
31 1 25.9999 1.37375 1.22774 
39 1 25.3832 2.65359 1.22774 
2 1 27.3733 17.398 2.46425 
6 1 28.1863 17.3981 1.22777 
10 1 29.5871 17.3978 1.22774 
14 1 26.4214 16.2009 2.46426 
22 1 25.1754 13.6693 2.46426 
25 1 24.7772 12.248 2.46426 
30 1 25.9999 15.6423 1.22774 
38 1 25.3832 14.3624 1.22774 
46 1 30.3316 17.3966 2.46425 
50 1 31.7632 17.397 2.46418 
54 1 32.5209 17.4095 1.22766 
ITEM: TIMESTEP
50
ITEM: NUMBER OF ATOMS
59
ITEM: BOX BOUNDS pp pp pp
0.0000000000000000e+00 3.2808000000000000e+01
0.0000000000000000e+00 1.7780000000000001e+01
0.0000000000000000e+00 2.4729999999999999e+00
ITEM: ATOMS id type x y z 
13 1 7.30721 0.663424 2.45948 
29 1 7.66359 1.26896 1.22335 
37 1 8.15722 2.63356 1.22698 
57 2 5.30849 1.14204 1.23022 
58 2 4.24407 2.31951 1.72173 
59 3 4.99726 2.85869 1.66334 
1 1 6.14981 17.4063 2.4478 
5 1 5.37448 17.7888 1.20564 
9 1 4.05459 17.1117 1.22092 
16 1 6.9549 16.1039 2.46202 
32 1 7.44667 15.613 1.22571 
40 1 8.21282 14.3978 1.2274 
45 1 3.32693 17.1618 2.45775 
49 1 1.89691 17.3916 2.463 
53 1 1.15563 17.4363 1.22666 
4 1 10.9204 8.49682 2.46425 
8 1 11.72 8.49576 1.22775 
12 1 13.1442 8.50995 1.22775 
18 1 9.98166 7.28907 2.46424 
21 1 8.33506 3.33694 2.46358 
26 1 8.73696 4.74739 2.46416 
34 1 9.57036 6.71347 1.22774 
42 1 8.95709 5.4504 1.22768 
48 1 13.915 8.50965 2.46425 
52 1 15.2958 8.50821 2.46425 
56 1 16.0309 8.50792 1.22775 
19 1 9.98363 9.70485 2.46425 
24 1 8.40619 13.6846 2.46396 
27 1 8.75025 12.267 2.46422 
35 1 9.57312 10.2791 1.22775 
43 1 8.95215 11.5546 1.22773 
3 1 22.6127 8.508 2.46425 
7 1 21.8127 8.508 1.22775 
11 1 20.3895 8.508 1.22775 
20 1 23.5547 7.30203 2.46425 
36 1 23.9795 6.73635 1.22775 
44 1 24.5927 5.4722 1.22775 
47 1 19.6198 8.508 2.46425 
51 1 18.2369 8.508 2.46425 
55 1 17.5001 8.50798 1.22775 
17 1 23.5547 9.71397 2.46425 
33 1 23.9795 10.2797 1.22775 
41 1 24.5927 11.5438 1.22775 
15 1 26.4162 0.816759 2.46425 
23 1 25.1635 3.34443 2.46425 
28 1 24.7895 4.76867 2.46425 
31 1 25.9835 1.37627 1.22775 
39 1 25.3642 2.64397 1.22775 
2 1 27.3616 17.398 2.46426 
6 1 28.186 17.3982 1.22775 
10 1 29.5791 17.3976 1.22774 
14 1 26.4163 16.1992 2.46425 
22 1 25.1635 13.6716 2.46425 
25 1 24.7895 12.2473 2.46425 
30 1 25.9836 15.6398 1.22775 
38 1 25.3642 14.372 1.22775 
46 1 30.3338 17.3953 2.46424 
50 1 31.7818 17.3967 2.46412 
54 1 32.5179 17.4149 1.22761 
ITEM: TIMESTEP
60
ITEM: NUMBER OF ATOMS
59
ITEM: BOX BOUNDS pp pp pp
0.0000000000000000e+00 3.2808000000000000e+01
0.0000000000000000e+00 1.7780000000000001e+01
0.0000000000000000e+00 2.4729999999999999e+00
ITEM: ATOMS id type x y z 
13 1 7.41627 0.579872 2.45328 
29 1 7.84424 1.18037 1.21769 
37 1 8.25246 2.56441 1.225 
57 2 5.20957 1.25806 1.2482 
58 2 4.17164 2.44815 1.76248 
59 3 4.96657 2.9174 1.64813 
1 1 6.2554 17.4218 2.44448 
5 1 5.36285 17.8735 1.206 
9 1 4.07459 17.0498 1.216 
16 1 6.84598 16.0762 2.45805 
32 1 7.4011 15.5859 1.22243 
40 1 8.31271 14.4696 1.22636 
45 1 3.3363 16.9876 2.45286 
49 1 1.91556 17.3376 2.4608 
53 1 1.19429 17.473 1.22466 
4 1 10.8714 8.50446 2.46424 
8 1 11.688 8.49884 1.22774 
12 1 13.0934 8.51071 1.22775 
18 1 9.9277 7.30707 2.4642 
21 1 8.35735 3.29651 2.46208 
26 1 8.62383 4.74089 2.46385 
34 1 9.50242 6.75028 1.22769 
42 1 8.81852 5.44506 1.22744 
48 1 13.8549 8.51543 2.46425 
52 1 15.2848 8.50992 2.46425 
56 1 16.038 8.50716 1.22775 
19 1 9.92529 9.69997 2.46423 
24 1 8.52663 13.7277 2.4631 
27 1 8.6796 12.2774 2.46407 
35 1 9.49362 10.2487 1.22773 
43 1 8.81567 11.5509 1.22761 
3 1 22.6555 8.50809 2.46425 
7 1 21.8322 8.50802 1.22775 
11 1 20.4335 8.508 1.22775 
20 1 23.6025 7.31783 2.46425 
36 1 24.0572 6.78134 1.22775 
44 1 24.7399 5.48547 1.22775 
47 1 19.6753 8.50804 2.46425 
51 1 18.233 8.50801 2.46425 
55 1 17.4793 8.50755 1.22775 
17 1 23.6025 9.69823 2.46425 
33 1 24.0572 10.2347 1.22775 
41 1 24.7398 11.5307 1.22775 
15 1 26.4023 0.791403 2.46425 
23 1 25.0753 3.32837 2.46425 
28 1 24.8811 4.76529 2.46425 
31 1 25.9369 1.31726 1.22775 
39 1 25.2295 2.59839 1.22775 
2 1 27.3987 17.3981 2.46424 
6 1 28.2004 17.3987 1.22774 
10 1 29.6045 17.3932 1.22769 
14 1 26.4027 16.2244 2.46425 
22 1 25.0755 13.6881 2.46425 
25 1 24.8811 12.2509 2.46425 
30 1 25.9373 15.6986 1.22775 
38 1 25.2299 14.4177 1.22775 
46 1 30.3628 17.3875 2.46416 
50 1 31.8041 17.4084 2.46369 
54 1 32.5522 17.4534 1.22706 
ITEM: TIMESTEP
70
ITEM: NUMBER OF ATOMS
59
ITEM: BOX BOUNDS pp pp pp
0.0000000000000000e+00 3.2808000000000000e+01
0.0000000000000000e+00 1.7780000000000001e+01
0.0000000000000000e+00 2.4729999999999999e+00
ITEM: ATOMS id type x y z 
13 1 7.4225 0.575649 2.45308 
29 1 7.84781 1.18394 1.21725 
37 1 8.25852 2.57545 1.22485 
57 2 5.21163 1.25039 1.24872 
58 2 4.16766 2.45723 1.76537 
59 3 4.96299 2.92159 1.64675 
1 1 6.26414 17.4196 2.44509 
5 1 5.37435 17.8574 1.20626 
9 1 4.0643 17.0505 1.21595 
16 1 6.84562 16.0812 2.45772 
32 1 7.39972 15.5725 1.22202 
40 1 8.30476 14.4449 1.22625 
45 1 3.33756 16.9881 2.45271 
49 1 1.9163 17.3325 2.46069 
53 1 1.19383 17.4666 1.22451 
4 1 10.8651 8.50602 2.46424 
8 1 11.6875 8.5 1.22774 
12 1 13.0891 8.51066 1.22775 
18 1 9.92262 7.30392 2.46419 
21 1 8.36195 3.30955 2.4618 
26 1 8.62092 4.73656 2.4638 
34 1 9.50015 6.7417 1.22768 
42 1 8.82247 5.44765 1.22737 
48 1 13.8497 8.51511 2.46425 
52 1 15.2902 8.51009 2.46425 
56 1 16.0378 8.50732 1.22775 
19 1 9.91915 9.70321 2.46423 
24 1 8.52072 13.7286 2.46296 
27 1 8.68134 12.2885 2.46404 
35 1 9.48959 10.2616 1.22772 
43 1 8.82295 11.5612 1.22758 
3 1 22.6518 8.50808 2.46425 
7 1 21.8305 8.50803 1.22775 
11 1 20.4299 8.50801 1.22775 
20 1 23.6073 7.31632 2.46425 
36 1 24.0594 6.77674 1.22775 
44 1 24.7401 5.48659 1.22775 
47 1 19.6708 8.50805 2.46425 
51 1 18.2293 8.50797 2.46425 
55 1 17.4824 8.50747 1.22775 
17 1 23.6073 9.69978 2.46425 
33 1 24.0594 10.2394 1.22775 
41 1 24.74 11.5296 1.22775 
15 1 26.4017 0.791199 2.46425 
23 1 25.0741 3.32236 2.46425 
28 1 24.885 4.75965 2.46425 
31 1 25.9379 1.32096 1.22775 
39 1 25.2316 2.59865 1.22775 
2 1 27.3874 17.3982 2.46424 
6 1 28.2033 17.3985 1.22774 
10 1 29.6071 17.3923 1.22767 
14 1 26.4022 16.2247 2.46425 
22 1 25.0742 13.6938 2.46425 
25 1 24.885 12.2565 2.46425 
30 1 25.9383 15.6951 1.22775 
38 1 25.2318 14.4175 1.22775 
46 1 30.3647 17.3877 2.46415 
50 1 31.8078 17.4119 2.46361 
54 1 32.5497 17.4559 1.227 
ITEM: TIMESTEP
80
ITEM: NUMBER OF ATOMS
59
ITEM: BOX BOUNDS pp pp pp
0.0000000000000000e+00 3.2808000000000000e+01
0.0000000000000000e+00 1.7780000000000001e+01
0.0000000000000000e+00 2.4729999999999999e+00
ITEM: ATOMS id type x y z 
13 1 7.46074 0.571479 2.45203 
29 1 7.86717 1.19335 1.21596 
37 1 8.28009 2.58241 1.22377 
57 2 5.22287 1.21194 1.25274 
58 2 4.1479 2.4975 1.78034 
59 3 4.94939 2.93551 1.63656 
1 1 6.29699 17.4345 2.44691 
5 1 5.3873 17.8287 1.20883 
9 1 4.06085 17.0534 1.21536 
16 1 6.82765 16.0771 2.45639 
32 1 7.37223 15.5573 1.22035 
40 1 8.27568 14.4338 1.22563 
45 1 3.33772 16.9822 2.45214 
49 1 1.91116 17.3077 2.4601 
53 1 1.19014 17.4415 1.2239 
4 1 10.8677 8.5082 2.46423 
8 1 11.6867 8.50735 1.22773 
12 1 13.0891 8.51043 1.22775 
18 1 9.9176 7.30823 2.46414 
21 1 8.37237 3.32006 2.46067 
26 1 8.60847 4.74701 2.46349 
34 1 9.50566 6.74336 1.22763 
42 1 8.81909 5.45928 1.22707 
48 1 13.8464 8.51309 2.46425 
52 1 15.289 8.51076 2.46425 
56 1 16.0344 8.50826 1.22775 
19 1 9.90896 9.70096 2.4642 
24 1 8.52446 13.7236 2.46229 
27 1 8.6913 12.2929 2.46389 
35 1 9.49305 10.2639 1.2277 
43 1 8.83652 11.5588 1.22742 
3 1 22.6459 8.5081 2.46425 
7 1 21.8298 8.50807 1.22775 
11 1 20.4255 8.50805 1.22775 
20 1 23.6176 7.32402 2.46425 
36 1 24.052 6.77345 1.22775 
44 1 24.7383 5.48523 1.22775 
47 1 19.6654 8.50807 2.46425 
51 1 18.2261 8.5077 2.46425 
55 1 17.4788 8.50717 1.22775 
17 1 23.6177 9.69215 2.46425 
33 1 24.052 10.2427 1.22775 
41 1 24.7382 11.531 1.22775 
15 1 26.404 0.793402 2.46425 
23 1 25.0644 3.32184 2.46425 
28 1 24.8945 4.76152 2.46425 
31 1 25.9435 1.32654 1.22775 
39 1 25.2299 2.59918 1.22775 
2 1 27.3848 17.3985 2.46423 
6 1 28.2037 17.397 1.22772 
10 1 29.604 17.3884 1.22759 
14 1 26.4044 16.2226 2.46425 
22 1 25.0646 13.6944 2.46425 
25 1 24.8945 12.2547 2.46425 
30 1 25.9442 15.6895 1.22775 
38 1 25.2303 14.417 1.22775 
46 1 30.3607 17.3887 2.46406 
50 1 31.8045 17.428 2.46329 
54 1 32.5453 17.4682 1.22667 
ITEM: TIMESTEP
90
ITEM: NUMBER OF ATOMS
59
ITEM: BOX BOUNDS pp pp pp
0.0000000000000000e+00 3.2808000000000000e+01
0.0000000000000000e+00 1.7780000000000001e+01
0.0000000000000000e+00 2.4729999999999999e+00
ITEM: ATOMS id type x y z 
13 1 7.47142 0.571886 2.45203 
29 1 7.88293 1.18931 1.21589 
37 1 8.29047 2.58187 1.22303 
57 2 5.22154 1.2097 1.2576 
58 2 4.13577 2.51823 1.78997 
59 3 4.94552 2.93467 1.62614 
1 1 6.30277 17.4406 2.44807 
5 1 5.39239 17.8329 1.21055 
9 1 4.06523 17.0566 1.21513 
16 1 6.81856 16.0763 2.45587 
32 1 7.35381 15.548 1.21973 
40 1 8.26762 14.4321 1.2251 
45 1 3.34189 16.983 2.45191 
49 1 1.91173 17.2873 2.45963 
53 1 1.18987 17.4254 1.22347 
4 1 10.8666 8.50776 2.46421 
8 1 11.6843 8.5091 1.22772 
12 1 13.0885 8.51108 1.22774 
18 1 9.91928 7.30596 2.46408 
21 1 8.37802 3.31753 2.45998 
26 1 8.59997 4.75003 2.46316 
34 1 9.50044 6.74483 1.22755 
42 1 8.80653 5.4607 1.22679 
48 1 13.8473 8.51241 2.46425 
52 1 15.2888 8.51066 2.46425 
56 1 16.0365 8.5087 1.22775 
19 1 9.9084 9.70023 2.46417 
24 1 8.52437 13.7263 2.46176 
27 1 8.69765 12.2949 2.46372 
35 1 9.48728 10.2615 1.22766 
43 1 8.83618 11.5594 1.22728 
3 1 22.6488 8.50804 2.46425 
7 1 21.833 8.5081 1.22775 
11 1 20.4286 8.50809 1.22775 
20 1 23.6158 7.3212 2.46425 
36 1 24.0546 6.77379 1.22775 
44 1 24.7413 5.48493 1.22775 
47 1 19.6661 8.50801 2.46425 
51 1 18.2292 8.50748 2.46425 
55 1 17.4794 8.50723 1.22775 
17 1 23.6158 9.69495 2.46425 
33 1 24.0546 10.2423 1.22775 
41 1 24.7412 11.5312 1.22775 
15 1 26.4051 0.796167 2.46425 
23 1 25.0622 3.3207 2.46425 
28 1 24.8956 4.76152 2.46425 
31 1 25.9459 1.32906 1.22775 
39 1 25.2258 2.59826 1.22775 
2 1 27.3841 17.3985 2.46422 
6 1 28.2021 17.3955 1.2277 
10 1 29.6039 17.3869 1.22751 
14 1 26.4052 16.22 2.46425 
22 1 25.0624 13.6955 2.46425 
25 1 24.8955 12.2547 2.46425 
30 1 25.9464 15.687 1.22775 
38 1 25.2262 14.4179 1.22775 
46 1 30.3607 17.3915 2.46396 
50 1 31.8055 17.4391 2.46304 
54 1 32.5461 17.4733 1.2264 
ITEM: TIMESTEP
100
ITEM: NUMBER OF ATOMS
59
ITEM: BOX BOUNDS pp pp pp
0.0000000000000000e+00 3.2808000000000000e+01
0.0000000000000000e+00 1.7780000000000001e+01
0.0000000000000000e+00 2.4729999999999999e+00
ITEM: ATOMS id type x y z 
13 1 7.52022 0.573309 2.45319 
29 1 7.95123 1.17716 1.21668 
37 1 8.34673 2.57925 1.21975 
57 2 5.21832 1.21793 1.28236 
58 2 4.07757 2.63088 1.84539 
59 3 4.91879 2.92505 1.56295 
1 1 6.3329 17.4728 2.45465 
5 1 5.41894 17.8562 1.21985 
9 1 4.08545 17.086 1.21446 
16 1 6.78569 16.0797 2.45408 
32 1 7.25856 15.5145 1.21757 
40 1 8.20936 14.4118 1.22225 
45 1 3.35835 16.9887 2.45122 
49 1 1.91024 17.1819 2.45716 
53 1 1.1875 17.3276 1.22117 
4 1 10.8688 8.49711 2.46406 
8 1 11.6921 8.51127 1.22759 
12 1 13.0934 8.51375 1.22772 
18 1 9.92231 7.30037 2.46359 
21 1 8.40718 3.31554 2.45666 
26 1 8.56355 4.76449 2.46123 
34 1 9.48494 6.74794 1.22698 
42 1 8.75498 5.47404 1.225 
48 1 13.8508 8.51063 2.46422 
52 1 15.2943 8.50992 2.46425 
56 1 16.0429 8.51026 1.22775 
19 1 9.90429 9.67406 2.46392 
24 1 8.51704 13.7322 2.45892 
27 1 8.73283 12.2967 2.46259 
35 1 9.47732 10.2452 1.22736 
43 1 8.8528 11.5616 1.22628 
3 1 22.6541 8.50759 2.46425 
7 1 21.8287 8.50807 1.22775 
11 1 20.4344 8.50814 1.22775 
20 1 23.6147 7.32472 2.46425 
36 1 24.0533 6.77003 1.22775 
44 1 24.7416 5.48528 1.22775 
47 1 19.6705 8.50752 2.46425 
51 1 18.2304 8.50674 2.46425 
55 1 17.4822 8.5078 1.22775 
17 1 23.6145 9.69093 2.46425 
33 1 24.0531 10.2455 1.22775 
41 1 24.7418 11.5298 1.22775 
15 1 26.4128 0.804462 2.46422 
23 1 25.0511 3.3206 2.46425 
28 1 24.8966 4.76198 2.46425 
31 1 25.9632 1.33795 1.22772 
39 1 25.2205 2.60002 1.22775 
2 1 27.381 17.3979 2.46409 
6 1 28.1976 17.3871 1.22755 
10 1 29.6057 17.3856 1.22695 
14 1 26.4093 16.2127 2.46422 
22 1 25.0508 13.6947 2.46425 
25 1 24.8967 12.2534 2.46425 
30 1 25.9608 15.6781 1.22772 
38 1 25.2193 14.4154 1.22775 
46 1 30.3601 17.4144 2.46334 
50 1 31.8047 17.4935 2.46156 
54 1 32.554 17.492 1.22481 
ITEM: TIMESTEP
110
ITEM: NUMBER OF ATOMS
59
ITEM: BOX BOUNDS pp pp pp
0.0000000000000000e+00 3.2808000000000000e+01
0.0000000000000000e+00 1.7780000000000001e+01
0.0000000000000000e+00 2.4729999999999999e+00
ITEM: ATOMS id type x y z 
13 1 7.51917 0.578159 2.45384 
29 1 7.94872 1.18589 1.21729 
37 1 8.34671 2.57927 1.21989 
57 2 5.22253 1.22517 1.28131 
58 2 4.08029 2.64743 1.85375 
59 3 4.90579 2.92209 1.55363 
1 1 6.33647 17.4774 2.45538 
5 1 5.41469 17.8463 1.22141 
9 1 4.0753 17.098 1.21484 
16 1 6.78812 16.087 2.45454 
32 1 7.26251 15.5087 1.2181 
40 1 8.19265 14.4038 1.22204 
45 1 3.35832 16.9951 2.45151 
49 1 1.90693 17.1765 2.45707 
53 1 1.18623 17.315 1.22088 
4 1 10.8661 8.49238 2.464 
8 1 11.6836 8.50774 1.22753 
12 1 13.0875 8.51325 1.2277 
18 1 9.91525 7.29233 2.46341 
21 1 8.41083 3.32135 2.45663 
26 1 8.56528 4.75874 2.461 
34 1 9.48411 6.74168 1.22683 
42 1 8.76343 5.47636 1.22467 
48 1 13.8467 8.51167 2.46421 
52 1 15.2881 8.51011 2.46424 
56 1 16.0357 8.50987 1.22774 
19 1 9.89753 9.67925 2.46381 
24 1 8.50452 13.7223 2.45875 
27 1 8.73691 12.2963 2.46238 
35 1 9.48413 10.2437 1.22728 
43 1 8.86887 11.5659 1.22601 
3 1 22.6506 8.50742 2.46425 
7 1 21.8346 8.50791 1.22775 
11 1 20.428 8.508 1.22775 
20 1 23.6176 7.31886 2.46425 
36 1 24.0543 6.77115 1.22775 
44 1 24.7429 5.48228 1.22775 
47 1 19.6681 8.50747 2.46425 
51 1 18.228 8.50694 2.46425 
55 1 17.4801 8.50781 1.22775 
17 1 23.6173 9.69642 2.46425 
33 1 24.0541 10.244 1.22775 
41 1 24.7434 11.5325 1.22775 
15 1 26.418 0.800219 2.4642 
23 1 25.053 3.31648 2.46424 
28 1 24.8954 4.75834 2.46425 
31 1 25.9655 1.3374 1.22771 
39 1 25.2263 2.59504 1.22774 
2 1 27.3899 17.3971 2.46405 
6 1 28.208 17.387 1.2275 
10 1 29.6101 17.3913 1.22681 
14 1 26.4132 16.2169 2.4642 
22 1 25.0522 13.6984 2.46424 
25 1 24.8957 12.2565 2.46425 
30 1 25.9616 15.6788 1.22771 
38 1 25.2242 14.4201 1.22774 
46 1 30.3673 17.4212 2.46321 
50 1 31.8088 17.4924 2.46131 
54 1 32.552 17.4836 1.22462 
ITEM: TIMESTEP
120
ITEM: NUMBER OF ATOMS
59
ITEM: BOX BOUNDS pp pp pp
0.0000000000000000e+00 3.2808000000000000e+01
0.0000000000000000e+00 1.7780000000000001e+01
0.0000000000000000e+00 2.4729999999999999e+00
ITEM: ATOMS id type x y z 
13 1 7.51926 0.577704 2.45477 
29 1 7.95035 1.18406 1.21819 
37 1 8.35209 2.57747 1.22015 
57 2 5.22529 1.23495 1.27968 
58 2 4.07655 2.66508 1.87055 
59 3 4.89788 2.92246 1.53559 
1 1 6.33447 17.4809 2.4564 
5 1 5.4161 17.8584 1.22203 
9 1 4.07842 17.105 1.21539 
16 1 6.78323 16.0893 2.45533 
32 1 7.25931 15.5126 1.21891 
40 1 8.18 14.3998 1.22195 
45 1 3.36136 16.9938 2.45201 
49 1 1.90941 17.1652 2.45696 
53 1 1.187 17.304 1.22077 
4 1 10.8653 8.48822 2.46389 
8 1 11.6856 8.50301 1.22744 
12 1 13.0884 8.51265 1.22768 
18 1 9.9148 7.28911 2.46319 
21 1 8.41361 3.31809 2.45684 
26 1 8.56294 4.75668 2.46072 
34 1 9.48053 6.73933 1.22659 
42 1 8.75867 5.47572 1.22438 
48 1 13.8464 8.51282 2.46419 
52 1 15.2886 8.51055 2.46424 
56 1 16.0361 8.50953 1.22774 
19 1 9.89913 9.67477 2.46367 
24 1 8.4936 13.721 2.45867 
27 1 8.74244 12.2952 2.46209 
35 1 9.48695 10.2412 1.22712 
43 1 8.87624 11.5672 1.22572 
3 1 22.6513 8.50715 2.46425 
7 1 21.8321 8.5076 1.22775 
11 1 20.4265 8.50781 1.22775 
20 1 23.6171 7.31884 2.46425 
36 1 24.054 6.7708 1.22775 
44 1 24.7401 5.4811 1.22775 
47 1 19.6694 8.50747 2.46425 
51 1 18.2276 8.50718 2.46425 
55 1 17.481 8.50774 1.22775 
17 1 23.6168 9.69595 2.46425 
33 1 24.0538 10.2437 1.22775 
41 1 24.7409 11.5329 1.22775 
15 1 26.4206 0.801149 2.46418 
23 1 25.0557 3.31568 2.46424 
28 1 24.8926 4.75614 2.46425 
31 1 25.9675 1.33691 1.22769 
39 1 25.2305 2.59438 1.22774 
2 1 27.3918 17.3961 2.46399 
6 1 28.2081 17.3873 1.22743 
10 1 29.612 17.3984 1.22664 
14 1 26.4142 16.2158 2.46418 
22 1 25.0542 13.6985 2.46424 
25 1 24.8932 12.258 2.46425 
30 1 25.9613 15.6793 1.22769 
38 1 25.227 14.4204 1.22774 
46 1 30.3682 17.429 2.46302 
50 1 31.8108 17.4917 2.46105 
54 1 32.5548 17.4772 1.22435 
ITEM: TIMESTEP
130
ITEM: NUMBER OF ATOMS
59
ITEM: BOX BOUNDS pp pp pp
0.0000000000000000e+00 3.2808000000000000e+01
0.0000000000000000e+00 1.7780000000000001e+01
0.0000000000000000e+00 2.4729999999999999e+00
ITEM: ATOMS id type x y z 
13 1 7.52131 0.575143 2.45525 
29 1 7.9537 1.17912 1.21868 
37 1 8.35753 2.57644 1.22027 
57 2 5.22606 1.23915 1.27877 
58 2 4.07549 2.6756 1.88155 
59 3 4.89243 2.92333 1.52393 
1 1 6.32964 17.4824 2.45705 
5 1 5.41532 17.8691 1.22214 
9 1 4.08121 17.1077 1.21566 
16 1 6.77788 16.0898 2.45584 
32 1 7.25528 15.5153 1.21922 
40 1 8.17459 14.3989 1.22199 
45 1 3.36556 16.9923 2.45235 
49 1 1.90751 17.1587 2.45692 
53 1 1.19005 17.2972 1.22073 
4 1 10.8679 8.48862 2.46383 
8 1 11.6877 8.50059 1.22736 
12 1 13.091 8.51235 1.22766 
18 1 9.91741 7.29072 2.46305 
21 1 8.41471 3.31237 2.45702 
26 1 8.55998 4.75849 2.46056 
34 1 9.47839 6.74057 1.22647 
42 1 8.75045 5.47366 1.22428 
48 1 13.8513 8.51331 2.46417 
52 1 15.2913 8.51085 2.46423 
56 1 16.0406 8.50947 1.22774 
19 1 9.90275 9.66921 2.46358 
24 1 8.48929 13.7209 2.45863 
27 1 8.74533 12.2953 2.46192 
35 1 9.48698 10.2411 1.22702 
43 1 8.87854 11.5659 1.2256 
3 1 22.6494 8.50707 2.46425 
7 1 21.8308 8.50743 1.22775 
11 1 20.4281 8.50771 1.22775 
20 1 23.6152 7.3223 2.46425 
36 1 24.0526 6.77 1.22775 
44 1 24.7365 5.48302 1.22775 
47 1 19.6681 8.50747 2.46425 
51 1 18.2302 8.50726 2.46425 
55 1 17.4812 8.50771 1.22775 
17 1 23.6148 9.69223 2.46425 
33 1 24.0524 10.2443 1.22775 
41 1 24.7374 11.5306 1.22775 
15 1 26.4226 0.801328 2.46416 
23 1 25.0567 3.3165 2.46424 
28 1 24.891 4.7572 2.46425 
31 1 25.9684 1.33627 1.22767 
39 1 25.2299 2.59751 1.22773 
2 1 27.3913 17.3955 2.46395 
6 1 28.2098 17.3875 1.22739 
10 1 29.6123 17.4023 1.22654 
14 1 26.4152 16.2155 2.46416 
22 1 25.0548 13.6973 2.46424 
25 1 24.8917 12.2566 2.46425 
30 1 25.961 15.68 1.22767 
38 1 25.2256 14.417 1.22773 
46 1 30.3709 17.4334 2.46292 
50 1 31.8126 17.4915 2.46092 
54 1 32.5552 17.4742 1.22421 
ITEM: TIMESTEP
131
ITEM: NUMBER OF ATOMS
59
ITEM: BOX BOUNDS pp pp pp
0.0000000000000000e+00 3.2808000000000000e+01
0.0000000000000000e+00 1.7780000000000001e+01
0.0000000000000000e+00 2.4729999999999999e+00
ITEM: ATOMS id type x y z 
13 1 7.52131 0.575143 2.45525 
29 1 7.9537 1.17912 1.21868 
59 3 4.89243 2.92333 1.52393 
57 2 5.22606 1.23915 1.27877 
58 2 4.07549 2.6756 1.88155 
5 1 5.41532 0.0890599 1.22214 
1 1 6.32964 17.4824 2.45705 
53 1 1.19005 17.2972 1.22073 
9 1 4.08121 17.1077 1.21566 
16 1 6.77788 16.0898 2.45584 
32 1 7.25528 15.5153 1.21922 
40 1 8.17459 14.3989 1.22199 
45 1 3.36556 16.9923 2.45235 
49 1 1.90751 17.1587 2.45692 
4 1 10.8679 8.48862 2.46383 
8 1 11.6877 8.50059 1.22736 
12 1 13.091 8.51235 1.22766 
18 1 9.91741 7.29072 2.46305 
21 1 8.41471 3.31237 2.45702 
26 1 8.55998 4.75849 2.46056 
34 1 9.47839 6.74057 1.22647 
42 1 8.75045 5.47366 1.22428 
48 1 13.8513 8.51331 2.46417 
52 1 15.2913 8.51085 2.46423 
56 1 16.0406 8.50947 1.22774 
37 1 8.35753 2.57644 1.22027 
19 1 9.90275 9.66921 2.46358 
24 1 8.48929 13.7209 2.45863 
27 1 8.74533 12.2953 2.46192 
35 1 9.48698 10.2411 1.22702 
43 1 8.87854 11.5659 1.2256 
3 1 22.6494 8.50707 2.46425 
7 1 21.8308 8.50743 1.22775 
11 1 20.4281 8.50771 1.22775 
20 1 23.6152 7.3223 2.46425 
36 1 24.0526 6.77 1.22775 
55 1 17.4812 8.50771 1.22775 
47 1 19.6681 8.50747 2.46425 
51 1 18.2302 8.50726 2.46425 
17 1 23.6148 9.69223 2.46425 
33 1 24.0524 10.2443 1.22775 
15 1 26.4226 0.801328 2.46416 
23 1 25.0567 3.3165 2.46424 
28 1 24.891 4.7572 2.46425 
31 1 25.9684 1.33627 1.22767 
39 1 25.2299 2.59751 1.22773 
44 1 24.7365 5.48302 1.22775 
2 1 27.3913 17.3955 2.46395 
6 1 28.2098 17.3875 1.22739 
10 1 29.6123 17.4023 1.22654 
14 1 26.4152 16.2155 2.46416 
22 1 25.0548 13.6973 2.46424 
25 1 24.8917 12.2566 2.46425 
30 1 25.961 15.68 1.22767 
38 1 25.2256 14.417 1.22773 
46 1 30.3709 17.4334 2.46292 
50 1 31.8126 17.4915 2.46092 
54 1 32.5552 17.4742 1.22421 
41 1 24.7374 11.5306 1.22775 
ITEM: TIMESTEP
140
ITEM: NUMBER OF ATOMS
59
ITEM: BOX BOUNDS pp pp pp
-3.3090280489600880e-03 3.2811309028048967e+01
-3.4221170479913762e-03 1.7783422117047987e+01
-1.1128500000000001e-03 2.4741128499999991e+00
ITEM: ATOMS id type x y z 
13 1 7.51952 0.571956 2.45635 
29 1 7.95198 1.17615 1.21867 
59 3 4.8901 2.92103 1.52418 
57 2 5.22381 1.23621 1.27881 
58 2 4.07301 2.67321 1.88213 
5 1 5.41311 0.0856574 1.22213 
1 1 6.32761 17.4857 2.45815 
53 1 1.18698 17.3004 1.22071 
9 1 4.07873 17.1108 1.21564 
16 1 6.77596 16.0926 2.45694 
32 1 7.25343 15.5179 1.21921 
40 1 8.17292 14.401 1.22198 
45 1 3.36292 16.9955 2.45345 
49 1 1.90459 17.1619 2.45802 