ITEM: TIMESTEP
0
ITEM: NUMBER OF ATOMS
161
ITEM: BOX BOUNDS xy xz yz pp pp pp
-6.7755000000000001e+00 1.3552000000000000e+01 -6.7755000000000001e+00
0.0000000000000000e+00 1.1735510246683001e+01 0.0000000000000000e+00
0.0000000000000000e+00 2.2149999999999999e+01 0.0000000000000000e+00
ITEM: ATOMS id type x y z 
8 1 -2.486 5.297 9.849 
87 1 3.001 4.231 10.696 
90 1 2.733 5.481 9.824 
109 1 -2.486 5.297 0.765 
158 1 2.733 5.481 0.79 
11 1 4.24 4.139 20.131 
14 1 3.031 4.094 19.728 
18 1 1.299 5.827 18.554 
33 1 2.266 4.151 20.924 
43 1 4.343 3.96 21.647 
47 1 3.32 5.732 17.88 
52 1 4.24 4.139 12.633 
76 1 2.552 4.924 14.209 
85 1 4.343 3.96 11.117 
89 1 3.32 5.732 14.883 
91 1 1.036 5.037 11.84 
102 1 3.031 4.094 13.035 
105 1 1.299 5.827 14.209 
114 1 2.266 4.151 11.84 
150 1 2.552 4.924 18.554 
156 1 3.001 4.231 22.068 
159 1 1.036 5.037 20.924 
5 1 -5.049 10.63 8.653 
9 1 -3.317 8.897 7.479 
19 1 -1.707 7.414 10.572 
21 1 -2.66 8.795 10.993 
23 1 -3.31 7.532 6.805 
25 1 -4.284 10.573 9.849 
32 1 1.503 6.367 0.79 
36 1 -1.869 7.426 9.056 
38 1 -2.209 6.086 8.653 
54 1 0.3 8.576 10.696 
57 1 1.291 8.001 9.824 
60 1 -1.707 7.414 0.042 
65 1 -3.31 7.532 3.808 
78 1 -1.869 7.426 1.558 
80 1 -2.566 8.842 1.961 
84 1 -4.57 9.799 3.135 
99 1 -3.054 9.687 0.765 
100 1 -2.96 6.142 3.135 
107 1 -5.049 10.63 1.961 
110 1 -3.317 8.897 3.135 
111 1 0.642 5.929 10.696 
113 1 1.503 6.367 9.824 
119 1 -4.284 10.573 0.765 
127 1 -2.209 6.086 1.961 
131 1 -2.318 6.148 10.993 
138 1 1.291 8.001 0.79 
142 1 -2.566 8.842 8.653 
145 1 -4.57 9.799 7.479 
151 1 -5.019 10.493 10.993 
154 1 -3.054 9.687 9.849 
155 1 -2.96 6.142 7.479 
12 1 2.53 7.1 17.202 
17 1 0.468 9.427 20.924 
24 1 -3.52 8.357 11.865 
27 1 -0.31 7.31 21.647 
29 1 0.642 5.929 22.068 
31 1 1.292 7.192 17.88 
44 1 -0.148 7.298 20.131 
46 1 0.191 8.638 19.728 
51 1 -0.31 7.31 11.117 
53 1 2.53 7.1 15.561 
56 1 1.292 7.192 14.883 
63 1 -2.318 6.148 21.771 
66 1 -3.309 6.723 20.899 
70 1 -0.148 7.298 12.633 
72 1 0.548 5.882 13.035 
92 1 0.942 8.582 14.209 
95 1 -5.019 10.493 21.771 
98 1 -4.751 9.243 20.899 
104 1 0.468 9.427 11.84 
116 1 -2.66 8.795 21.771 
118 1 -3.52 8.357 20.899 
122 1 0.191 8.638 13.035 
133 1 -3.309 6.723 11.865 
136 1 0.3 8.576 22.068 
147 1 0.548 5.882 19.728 
153 1 -4.751 9.243 11.865 
160 1 0.942 8.582 18.554 
1 1 7.976 4.694 10.572 
4 1 9.274 4.77 10.993 
20 1 8.034 4.861 9.056 
42 1 9.55 5.41 7.479 
67 1 10.043 4.578 0.765 
77 1 7.976 4.694 0.042 
94 1 8.035 4.861 1.558 
96 1 9.278 4.635 1.961 
121 1 4.688 5.417 10.696 
130 1 9.55 5.41 3.135 
134 1 10.043 4.578 9.849 
152 1 9.278 4.635 8.653 
45 1 4.688 5.417 22.068 
55 1 4.788 5.329 13.035 
106 1 9.274 4.77 21.771 
137 1 4.788 5.329 19.728 
2 1 7.294 10.585 9.056 
3 1 9.004 7.624 6.127 
6 1 8.556 6.347 6.805 
16 1 2.314 8.72 0.79 
22 1 7.166 6.156 8.653 
26 1 7.226 8.565 7.479 
35 1 7.191 10.764 10.572 
37 1 6.846 9.307 10.993 
39 1 8.214 8.992 6.805 
41 1 6.677 7.002 9.849 
48 1 3.775 6.213 0.79 
61 1 7.294 10.585 1.558 
62 1 9.004 7.624 4.487 
64 1 6.747 9.395 1.961 
68 1 7.437 6.931 3.135 
71 1 4.29 8.493 10.696 
74 1 3.567 7.818 9.824 
81 1 8.556 6.347 3.808 
83 1 6.47 8.606 0.765 
93 1 7.191 10.764 0.042 
97 1 8.214 8.992 3.808 
101 1 2.261 9.954 10.696 
103 1 2.314 8.72 9.824 
117 1 7.166 6.156 1.961 
120 1 7.226 8.565 3.135 
123 1 3.775 6.213 9.824 
129 1 6.677 7.002 0.765 
132 1 6.747 9.395 8.653 
135 1 7.437 6.931 7.479 
141 1 7.244 6.231 10.993 
144 1 6.47 8.606 9.849 
148 1 3.567 7.818 0.79 
161 2 5.876 8.565 7.479 
7 1 9.22 6.004 11.865 
10 1 3.558 10.029 21.647 
13 1 2.261 9.954 22.068 
15 1 2.978 8.376 17.88 
28 1 3.5 9.862 20.131 
30 1 4.369 8.568 19.728 
34 1 4.308 6.159 18.554 
40 1 7.76 8.511 11.865 
49 1 4.857 7.722 20.924 
50 1 1.984 9.314 18.554 
58 1 1.491 10.146 11.84 
59 1 4.097 7.793 14.209 
69 1 3.558 10.029 11.117 
73 1 2.978 8.376 14.883 
75 1 5.064 6.118 11.84 
79 1 7.244 6.231 21.771 
82 1 7.967 6.906 20.899 
86 1 3.5 9.862 12.633 
88 1 2.256 10.089 13.035 
108 1 9.22 6.004 20.899 
112 1 4.369 8.568 13.035 
115 1 4.308 6.159 14.209 
124 1 4.857 7.722 11.84 
125 1 1.984 9.314 14.209 
126 1 6.846 9.307 21.771 
128 1 7.76 8.511 20.899 
139 1 1.491 10.146 20.924 
140 1 4.097 7.793 18.554 
143 1 7.967 6.906 11.865 
146 1 4.29 8.493 22.068 
149 1 5.064 6.118 20.924 
157 1 2.256 10.089 19.728 
ITEM: TIMESTEP
10
ITEM: NUMBER OF ATOMS
161
ITEM: BOX BOUNDS xy xz yz pp pp pp
-6.7755000000000001e+00 1.3552000000000000e+01 -6.7755000000000001e+00
0.0000000000000000e+00 1.1735510246683001e+01 0.0000000000000000e+00
0.0000000000000000e+00 2.2149999999999999e+01 0.0000000000000000e+00
ITEM: ATOMS id type x y z 
8 1 -2.4058 5.37811 9.85817 
87 1 2.97488 4.26334 10.6266 
90 1 2.67707 5.46284 9.76486 
109 1 -2.40552 5.37979 0.759807 
158 1 2.6758 5.45155 0.842479 
11 1 4.29326 4.20791 20.1487 
14 1 2.92547 4.12192 19.7041 
18 1 1.35461 5.83626 18.5988 
33 1 2.11831 4.24523 20.9021 
43 1 4.31659 4.15035 21.5597 
47 1 3.22548 5.79052 17.8616 
52 1 4.30236 4.19981 12.6351 
76 1 2.44026 4.89386 14.186 
85 1 4.33774 4.13136 11.192 
89 1 3.2218 5.79417 14.9001 
91 1 0.96296 5.11124 11.859 
102 1 2.91951 4.11951 13.0651 
105 1 1.35667 5.84579 14.1703 
114 1 2.10579 4.24202 11.8695 
150 1 2.43938 4.89716 18.5782 
156 1 2.98542 4.26692 22.1199 
159 1 0.966937 5.10904 20.9049 
5 1 -4.91348 10.5885 8.59668 
9 1 -3.30825 8.8846 7.54182 
19 1 -1.7589 7.5032 10.5522 
21 1 -2.60607 8.7581 10.9238 
23 1 -3.30001 7.5518 6.87075 
25 1 -4.1448 10.4823 9.83943 
32 1 1.5719 6.33924 0.780583 
36 1 -1.90219 7.52216 9.06464 
38 1 -2.15358 6.21908 8.6534 
54 1 0.313615 8.49286 10.6816 
57 1 1.33596 8.01318 9.79949 
60 1 -1.76076 7.4943 0.0572463 
65 1 -3.2841 7.52063 3.78018 
78 1 -1.90638 7.52826 1.55395 
80 1 -2.55442 8.78622 1.8757 
84 1 -4.4642 9.81325 3.10925 
99 1 -2.99215 9.62576 0.786208 
100 1 -2.91797 6.22081 3.16235 
107 1 -4.93369 10.5946 2.00317 
110 1 -3.35338 8.89844 3.09361 
111 1 0.598548 5.97148 10.7655 
113 1 1.56723 6.34096 9.83136 
119 1 -4.13606 10.4815 0.776388 
127 1 -2.158 6.21703 1.9595 
131 1 -2.32638 6.23095 11.0028 
138 1 1.34657 8.02371 0.814262 
142 1 -2.55094 8.78009 8.72758 
145 1 -4.46352 9.76177 7.52753 
151 1 -4.99244 10.4461 11.0446 
154 1 -3.0004 9.63662 9.84189 
155 1 -2.90457 6.2547 7.44284 
12 1 2.59118 7.0742 17.1073 
17 1 0.393344 9.34538 20.9289 
24 1 -3.52282 8.37546 11.8498 
27 1 -0.257397 7.21284 21.6361 
29 1 0.600238 5.97128 21.998 
31 1 1.27331 7.19425 17.8927 
44 1 -0.106921 7.186 20.1339 
46 1 0.138233 8.50821 19.7313 
51 1 -0.256852 7.21126 11.1298 
53 1 2.58366 7.07772 15.6494 
56 1 1.28509 7.19948 14.8663 
63 1 -2.32991 6.23255 21.7637 
66 1 -3.3679 6.73425 20.8724 
70 1 -0.107864 7.18658 12.629 
72 1 0.54995 5.938 12.9761 
92 1 0.8765 8.47272 14.2427 
95 1 -4.97603 10.4233 21.7103 
98 1 -4.68804 9.2317 20.8682 
104 1 0.388892 9.3442 11.838 
116 1 -2.60515 8.76134 21.8316 
118 1 -3.53665 8.38173 20.9109 
122 1 0.137527 8.50752 13.0322 
133 1 -3.32183 6.76542 11.8946 
136 1 0.315717 8.49522 22.0802 
147 1 0.548679 5.93802 19.7903 
153 1 -4.68401 9.22714 11.9078 
160 1 0.874978 8.48223 18.5252 
1 1 7.86376 4.95059 10.5085 
4 1 9.18466 4.77946 11.0621 
20 1 7.88446 4.9395 9.08474 
42 1 9.49899 5.39154 7.44033 
67 1 9.98888 4.55086 0.775593 
77 1 7.86402 4.95997 0.110405 
94 1 7.88303 4.96131 1.53831 
96 1 9.18463 4.65445 1.99387 
121 1 4.68066 5.42723 10.7216 
130 1 9.46108 5.41637 3.16791 
134 1 9.99317 4.55069 9.85158 
152 1 9.18746 4.63675 8.63118 
45 1 4.67705 5.41708 22.0327 
55 1 4.81505 5.47744 13.0537 
106 1 9.18678 4.76462 21.706 
137 1 4.81395 5.46944 19.7159 
2 1 7.25511 10.5766 9.07585 
3 1 8.96617 7.69989 6.04511 
6 1 8.54856 6.33808 6.81191 
16 1 2.32451 8.6961 0.828571 
22 1 7.14331 6.17269 8.72902 
26 1 7.29009 8.41543 7.41095 
35 1 7.26064 10.5523 10.534 
37 1 6.87261 9.27417 11.0034 
39 1 8.19495 8.95868 6.79897 
41 1 6.73792 7.03409 9.83998 
48 1 3.70989 6.35912 0.84388 
61 1 7.24501 10.5207 1.56798 
62 1 8.93116 7.67417 4.52266 
64 1 6.71453 9.24393 1.98173 
68 1 7.41825 6.96157 3.04477 
71 1 4.30246 8.55958 10.7903 
74 1 3.63113 7.79197 9.82489 
81 1 8.53365 6.39332 3.75965 
83 1 6.54921 8.43062 0.799501 
93 1 7.21477 10.6153 0.0907266 
97 1 8.28471 8.93837 3.82052 
101 1 2.34747 9.97035 10.6339 
103 1 2.33299 8.68526 9.77192 
117 1 7.15772 6.18478 1.89926 
120 1 7.16602 8.42224 3.06231 
123 1 3.71082 6.35837 9.7707 
129 1 6.74033 7.01159 0.785253 
132 1 6.53558 9.27681 8.64304 
135 1 7.44218 6.84934 7.56021 
141 1 7.24492 6.18203 10.9063 
144 1 6.57449 8.42904 9.85582 
148 1 3.63146 7.79692 0.783834 
161 2 5.7741 8.67707 7.51875 
7 1 9.14856 6.01543 11.898 
10 1 3.64873 9.76941 21.5875 
13 1 2.35453 9.94395 22.1085 
15 1 3.01157 8.29835 17.9063 
28 1 3.65173 9.77159 20.1539 
30 1 4.38125 8.5372 19.7961 
34 1 4.35249 6.29556 18.6236 
40 1 7.72516 8.38424 11.8671 
49 1 4.79432 7.71017 20.9057 
50 1 2.08337 9.33216 18.5035 
58 1 1.54419 10.1725 11.8547 
59 1 4.12119 7.76751 14.1275 
69 1 3.66815 9.76581 11.1854 
73 1 3.00595 8.29225 14.8568 
75 1 4.98636 6.2763 11.8668 
79 1 7.25204 6.18591 21.8503 
82 1 7.89786 6.96597 20.9233 
86 1 3.65238 9.77508 12.6102 
88 1 2.35325 10.084 13.045 
108 1 9.19884 6.05748 20.8529 
112 1 4.3834 8.53915 12.9687 
115 1 4.35125 6.2966 14.1378 
124 1 4.79982 7.70846 11.8581 
125 1 2.08407 9.33016 14.2632 
126 1 6.84857 9.2567 21.7603 
128 1 7.74555 8.36279 20.8813 
139 1 1.55824 10.1669 20.9271 
140 1 4.12481 7.77085 18.6414 
143 1 7.89644 6.9719 11.8525 
146 1 4.29563 8.55872 21.9704 
149 1 4.98271 6.27579 20.9 
157 1 2.35017 10.0816 19.7221 
ITEM: TIMESTEP
20
ITEM: NUMBER OF ATOMS
161
ITEM: BOX BOUNDS xy xz yz pp pp pp
-6.7755000000000001e+00 1.3552000000000000e+01 -6.7755000000000001e+00
0.0000000000000000e+00 1.1735510246683001e+01 0.0000000000000000e+00
0.0000000000000000e+00 2.2149999999999999e+01 0.0000000000000000e+00
ITEM: ATOMS id type x y z 
8 1 -2.42171 5.38233 9.84962 
87 1 2.96142 4.27554 10.658 
90 1 2.6697 5.44855 9.77176 
109 1 -2.41937 5.38302 0.767287 
158 1 2.66724 5.45218 0.84115 
11 1 4.28637 4.20648 20.1245 
14 1 2.89693 4.13485 19.7036 
18 1 1.32091 5.86032 18.5843 
33 1 2.1101 4.26206 20.9074 
43 1 4.30562 4.16798 21.5739 
47 1 3.25354 5.78659 17.8505 
52 1 4.28564 4.21031 12.6381 
76 1 2.44462 4.90228 14.1793 
85 1 4.31523 4.15717 11.1823 
89 1 3.25268 5.78751 14.9128 
91 1 0.9695 5.11273 11.8511 
102 1 2.89975 4.13442 13.0586 
105 1 1.32315 5.85718 14.178 
114 1 2.10985 4.26115 11.853 
150 1 2.44486 4.90472 18.5845 
156 1 2.96317 4.27285 22.1104 
159 1 0.97124 5.11334 20.9124 
5 1 -4.92386 10.5743 8.62808 
9 1 -3.29787 8.86744 7.53768 
19 1 -1.74538 7.51643 10.5454 
21 1 -2.59874 8.78468 10.943 
23 1 -3.30867 7.55756 6.87278 
25 1 -4.13634 10.4617 9.83461 
32 1 1.58963 6.35025 0.778558 
36 1 -1.87999 7.53665 9.06543 
38 1 -2.15348 6.21705 8.64827 
54 1 0.308252 8.50106 10.6794 
57 1 1.35651 7.99471 9.78997 
60 1 -1.75632 7.51018 0.0606019 
65 1 -3.29333 7.52858 3.76798 
78 1 -1.89159 7.54738 1.55308 
80 1 -2.55058 8.78945 1.89223 
84 1 -4.46007 9.81657 3.10347 
99 1 -2.98595 9.62487 0.779629 
100 1 -2.92384 6.25542 3.1754 
107 1 -4.91817 10.5908 1.98745 
110 1 -3.32868 8.86805 3.10584 
111 1 0.607101 5.96456 10.7498 
113 1 1.58977 6.35173 9.83403 
119 1 -4.1319 10.4708 0.778819 
127 1 -2.15582 6.22112 1.96535 
131 1 -2.32637 6.22852 11.0156 
138 1 1.35684 7.99356 0.824951 
142 1 -2.5413 8.79806 8.72117 
145 1 -4.45681 9.76183 7.52121 
151 1 -4.98226 10.4075 11.0502 
154 1 -3.00052 9.63459 9.84301 
155 1 -2.92302 6.27222 7.43756 
12 1 2.55867 7.07426 17.1374 
17 1 0.400391 9.33798 20.9152 
24 1 -3.52698 8.35894 11.8555 
27 1 -0.257364 7.19545 21.6302 
29 1 0.607403 5.96332 22.0144 
31 1 1.28635 7.19612 17.9047 
44 1 -0.119598 7.17235 20.1348 
46 1 0.141609 8.5017 19.7229 
51 1 -0.258811 7.19304 11.1335 
53 1 2.56012 7.07558 15.6256 
56 1 1.28351 7.19566 14.8632 
63 1 -2.32875 6.22242 21.7562 
66 1 -3.38287 6.7637 20.865 
70 1 -0.1202 7.17155 12.6291 
72 1 0.540227 5.93317 12.9733 
92 1 0.913483 8.4675 14.249 
95 1 -4.97837 10.4201 21.724 
98 1 -4.67842 9.20741 20.8637 
104 1 0.401223 9.33721 11.8471 
116 1 -2.60209 8.76788 21.8093 
118 1 -3.54091 8.37195 20.9136 
122 1 0.140498 8.50196 13.0407 
133 1 -3.32326 6.80069 11.9033 
136 1 0.30783 8.50257 22.0852 
147 1 0.540442 5.93261 19.7922 
153 1 -4.66807 9.19352 11.9155 
160 1 0.914276 8.46223 18.5127 
1 1 7.85739 4.94513 10.5256 
4 1 9.16307 4.8072 11.0522 
20 1 7.86401 4.92663 9.07617 
42 1 9.49304 5.40999 7.44148 
67 1 9.97523 4.56407 0.757591 
77 1 7.87165 4.94273 0.0808152 
94 1 7.86284 4.94247 1.54445 
96 1 9.18573 4.6553 1.99372 
121 1 4.66202 5.45963 10.7137 
130 1 9.46474 5.42793 3.1724 
134 1 9.98187 4.569 9.85623 
152 1 9.19749 4.64865 8.62932 
45 1 4.66868 5.45713 22.0555 
55 1 4.81575 5.49559 13.065 
106 1 9.16978 4.79959 21.7346 
137 1 4.81796 5.49687 19.6983 
2 1 7.26688 10.5292 9.0649 
3 1 8.98103 7.68083 6.06243 
6 1 8.54753 6.33775 6.82546 
16 1 2.35639 8.69346 0.846569 
22 1 7.12756 6.18091 8.70976 
26 1 7.25646 8.40324 7.41035 
35 1 7.25047 10.5764 10.4869 
37 1 6.87525 9.25774 11.0166 
39 1 8.18774 8.94889 6.79463 
41 1 6.72805 7.02811 9.83064 
48 1 3.70337 6.36393 0.832668 
61 1 7.25606 10.5136 1.54764 
62 1 8.96666 7.66516 4.49425 
64 1 6.70719 9.22604 1.98561 
68 1 7.40127 6.96563 3.05609 
71 1 4.31415 8.53092 10.7621 
74 1 3.60866 7.79261 9.82252 
81 1 8.52594 6.38028 3.77664 
83 1 6.54466 8.42871 0.798395 
93 1 7.24135 10.5604 0.103111 
97 1 8.2693 8.94512 3.83381 
101 1 2.36508 9.94372 10.6642 
103 1 2.35765 8.69457 9.76765 
117 1 7.12538 6.18692 1.90126 
120 1 7.1738 8.42461 3.06762 
123 1 3.70328 6.36424 9.7829 
129 1 6.72527 7.0056 0.779347 
132 1 6.52435 9.28394 8.64058 
135 1 7.45476 6.83766 7.54947 
141 1 7.2291 6.19612 10.9165 
144 1 6.57156 8.42965 9.83018 
148 1 3.60686 7.7894 0.791994 
161 2 5.80603 8.70831 7.54913 
7 1 9.11135 6.01208 11.8926 
10 1 3.65847 9.7821 21.6 
13 1 2.36599 9.94531 22.1025 
15 1 3.00843 8.32944 17.9053 
28 1 3.67383 9.78533 20.1416 
30 1 4.40756 8.53357 19.7852 
34 1 4.34077 6.30032 18.6212 
40 1 7.75777 8.37978 11.8925 
49 1 4.80812 7.71831 20.9077 
50 1 2.06958 9.29152 18.5152 
58 1 1.55505 10.1608 11.8367 
59 1 4.13239 7.75488 14.1308 
69 1 3.65914 9.78225 11.1621 
73 1 3.00734 8.32935 14.8598 
75 1 4.98609 6.28687 11.8566 
79 1 7.23736 6.19878 21.8344 
82 1 7.91471 6.96327 20.9063 
86 1 3.67361 9.78438 12.6207 
88 1 2.35009 10.066 13.0728 
108 1 9.17762 6.0474 20.8547 
112 1 4.41119 8.53163 12.9746 
115 1 4.33913 6.30106 14.142 
124 1 4.80601 7.71812 11.8542 
125 1 2.07211 9.29253 14.2482 
126 1 6.85351 9.24967 21.7567 
128 1 7.74452 8.37768 20.8827 
139 1 1.55615 10.1602 20.9259 
140 1 4.13283 7.75472 18.6319 
143 1 7.91278 6.94539 11.8661 
146 1 4.30926 8.53439 22.0035 
149 1 4.98792 6.28126 20.905 
157 1 2.34996 10.0649 19.6902 
ITEM: TIMESTEP
30
ITEM: NUMBER OF ATOMS
161
ITEM: BOX BOUNDS xy xz yz pp pp pp
-6.7755000000000001e+00 1.3552000000000000e+01 -6.7755000000000001e+00
0.0000000000000000e+00 1.1735510246683001e+01 0.0000000000000000e+00
0.0000000000000000e+00 2.2149999999999999e+01 0.0000000000000000e+00
ITEM: ATOMS id type x y z 
8 1 -2.43481 5.41045 9.85106 
87 1 2.95137 4.28045 10.654 
90 1 2.65455 5.44393 9.76971 
109 1 -2.4313 5.40674 0.771985 
158 1 2.65401 5.44611 0.845809 
11 1 4.27511 4.22519 20.1181 
14 1 2.88354 4.1514 19.7062 
18 1 1.2992 5.8537 18.5729 
33 1 2.09327 4.27204 20.9047 
43 1 4.28935 4.20588 21.5605 
47 1 3.25039 5.79499 17.8338 
52 1 4.27175 4.22963 12.6398 
76 1 2.44212 4.92459 14.1825 
85 1 4.29797 4.19432 11.1929 
89 1 3.25012 5.79556 14.9303 
91 1 0.958944 5.12352 11.8417 
102 1 2.88442 4.15209 13.057 
105 1 1.2994 5.85395 14.1901 
114 1 2.09192 4.27167 11.8605 
150 1 2.44194 4.92492 18.5806 
156 1 2.95407 4.28014 22.1122 
159 1 0.959866 5.12366 20.9219 
5 1 -4.90985 10.545 8.63167 
9 1 -3.29364 8.87089 7.53728 
19 1 -1.73847 7.53273 10.5441 
21 1 -2.57296 8.8035 10.9588 
23 1 -3.30593 7.56376 6.86701 
25 1 -4.11962 10.4506 9.8394 
32 1 1.59962 6.37002 0.782556 
36 1 -1.85979 7.55108 9.06731 
38 1 -2.15014 6.2312 8.64613 
54 1 0.319169 8.48788 10.6777 
57 1 1.36736 7.98198 9.79197 
60 1 -1.75605 7.51897 0.0586328 
65 1 -3.28754 7.53163 3.77109 
78 1 -1.8774 7.56478 1.54906 
80 1 -2.53963 8.79845 1.89516 
84 1 -4.4547 9.80993 3.1032 
99 1 -2.97201 9.6099 0.771205 
100 1 -2.92531 6.26621 3.16901 
107 1 -4.90174 10.5787 1.97552 
110 1 -3.31651 8.87262 3.11231 
111 1 0.605594 5.96274 10.7279 
113 1 1.60117 6.36943 9.83078 
119 1 -4.1103 10.4517 0.777413 
127 1 -2.15258 6.23531 1.96805 
131 1 -2.33085 6.24988 11.017 
138 1 1.36662 7.98188 0.822386 
142 1 -2.51406 8.80884 8.71066 
145 1 -4.45387 9.753 7.51619 
151 1 -4.96239 10.3929 11.0501 
154 1 -2.97592 9.61917 9.85573 
155 1 -2.92794 6.28596 7.4468 
12 1 2.56059 7.07591 17.1486 
17 1 0.413945 9.31411 20.9107 
24 1 -3.50759 8.34144 11.8633 
27 1 -0.250774 7.18498 21.6349 
29 1 0.605146 5.96255 22.0365 
31 1 1.27983 7.1847 17.8983 
44 1 -0.137086 7.15876 20.1383 
46 1 0.141368 8.48635 19.7178 
51 1 -0.255243 7.18113 11.1296 
53 1 2.55911 7.07643 15.6132 
56 1 1.2804 7.18394 14.867 
63 1 -2.33739 6.23693 21.753 
66 1 -3.39047 6.78276 20.8678 
70 1 -0.137521 7.15871 12.6262 
72 1 0.522455 5.92743 12.9752 
92 1 0.919103 8.44895 14.2463 
95 1 -4.9652 10.391 21.7273 
98 1 -4.67017 9.19947 20.8579 
104 1 0.414349 9.31396 11.8533 
116 1 -2.5838 8.78079 21.8004 
118 1 -3.53062 8.35015 20.9078 
122 1 0.141461 8.48643 13.0461 
133 1 -3.32133 6.81751 11.9126 
136 1 0.317833 8.4898 22.0866 
147 1 0.521626 5.92779 19.7898 
153 1 -4.66309 9.18255 11.9169 
160 1 0.918711 8.44759 18.5164 
1 1 7.81947 4.94863 10.525 
4 1 9.13699 4.83093 11.0454 
20 1 7.83704 4.92184 9.07135 
42 1 9.49221 5.41551 7.44633 
67 1 9.96275 4.58102 0.763756 
77 1 7.8437 4.94014 0.081093 
94 1 7.83577 4.94506 1.54285 
96 1 9.16745 4.67294 1.99047 
121 1 4.64726 5.49632 10.6928 
130 1 9.45623 5.44066 3.16805 
134 1 9.96795 4.58991 9.85938 
152 1 9.18397 4.66793 8.63526 
45 1 4.64939 5.4942 22.0742 
55 1 4.81519 5.51542 13.0646 
106 1 9.15277 4.82735 21.7423 
137 1 4.81672 5.51529 19.6998 
2 1 7.27017 10.5162 9.06745 
3 1 8.9829 7.66706 6.05664 
6 1 8.54831 6.33777 6.82024 
16 1 2.36327 8.69597 0.859976 
22 1 7.11352 6.16939 8.70172 
26 1 7.24381 8.38328 7.38872 
35 1 7.27792 10.5265 10.4883 
37 1 6.8645 9.2201 11.0237 
39 1 8.1848 8.93114 6.79427 
41 1 6.71634 7.01339 9.82625 
48 1 3.70015 6.35495 0.829141 
61 1 7.26729 10.491 1.5553 
62 1 8.96559 7.65993 4.48499 
64 1 6.7106 9.20658 1.98711 
68 1 7.38923 6.96177 3.0607 
71 1 4.32505 8.52351 10.7436 
74 1 3.59673 7.79857 9.80841 
81 1 8.51764 6.37924 3.78329 
83 1 6.54007 8.41152 0.802702 
93 1 7.25154 10.5304 0.108784 
97 1 8.27374 8.94527 3.83872 
101 1 2.38356 9.92269 10.6767 
103 1 2.36515 8.69712 9.75451 
117 1 7.10083 6.17811 1.90921 
120 1 7.18609 8.41647 3.07473 
123 1 3.7004 6.35507 9.78621 
129 1 6.71038 6.99079 0.779442 
132 1 6.49946 9.29337 8.64933 
135 1 7.44453 6.82861 7.54359 
141 1 7.21308 6.20216 10.9122 
144 1 6.56817 8.42083 9.82712 
148 1 3.59573 7.79729 0.805568 
161 2 5.80128 8.73515 7.55523 
7 1 9.08464 6.02226 11.8962 
10 1 3.6844 9.78389 21.5976 
13 1 2.383 9.92427 22.089 
15 1 3.02155 8.33318 17.8916 
28 1 3.70007 9.78011 20.1399 
30 1 4.43135 8.54001 19.7809 
34 1 4.33658 6.30533 18.6144 
40 1 7.76445 8.37377 11.8949 
49 1 4.81873 7.73193 20.9103 
50 1 2.08154 9.27166 18.5177 
58 1 1.56875 10.1443 11.8454 
59 1 4.14155 7.76178 14.1353 
69 1 3.6842 9.78273 11.1651 
73 1 3.0202 8.33285 14.873 
75 1 4.98952 6.307 11.8658 
79 1 7.22211 6.20636 21.8236 
82 1 7.91795 6.95627 20.8881 
86 1 3.70058 9.78002 12.622 
88 1 2.36769 10.046 13.0715 
108 1 9.16506 6.05696 20.8476 
112 1 4.4324 8.5414 12.9827 
115 1 4.33519 6.30484 14.1491 
124 1 4.82026 7.73277 11.8528 
125 1 2.08166 9.27278 14.2452 
126 1 6.85522 9.22337 21.7487 
128 1 7.74197 8.38055 20.8727 
139 1 1.56854 10.1439 20.9179 
140 1 4.14132 7.76144 18.6273 
143 1 7.90999 6.93069 11.8879 
146 1 4.32134 8.52062 22.0167 
149 1 4.98943 6.30647 20.8992 
157 1 2.3679 10.0455 19.6915 
ITEM: TIMESTEP
40
ITEM: NUMBER OF ATOMS
161
ITEM: BOX BOUNDS xy xz yz pp pp pp
-6.7755000000000001e+00 1.3552000000000000e+01 -6.7755000000000001e+00
0.0000000000000000e+00 1.1735510246683001e+01 0.0000000000000000e+00
0.0000000000000000e+00 2.2149999999999999e+01 0.0000000000000000e+00
ITEM: ATOMS id type x y z 
8 1 -2.45812 5.45453 9.85443 
87 1 2.93983 4.29821 10.6507 
90 1 2.63447 5.43854 9.75309 
109 1 -2.45127 5.4418 0.775642 
158 1 2.63415 5.43971 0.864185 
11 1 4.25814 4.26062 20.1064 
14 1 2.85949 4.17593 19.7128 
18 1 1.2766 5.84399 18.5581 
33 1 2.07127 4.28805 20.904 
43 1 4.26594 4.25905 21.5394 
47 1 3.23554 5.80613 17.8189 
52 1 4.25575 4.2643 12.65 
76 1 2.42162 4.94246 14.1905 
85 1 4.27196 4.25143 11.2123 
89 1 3.23507 5.80699 14.9461 
91 1 0.934026 5.13842 11.8342 
102 1 2.85947 4.17772 13.0508 
105 1 1.27598 5.84392 14.2056 
114 1 2.06995 4.28701 11.8622 
150 1 2.42136 4.94161 18.5734 
156 1 2.94031 4.29991 22.1151 
159 1 0.934736 5.13883 20.9297 
5 1 -4.89213 10.5001 8.64553 
9 1 -3.27981 8.87525 7.53908 
19 1 -1.72894 7.56848 10.5475 
21 1 -2.52062 8.81739 10.9827 
23 1 -3.30635 7.56791 6.86514 
25 1 -4.08493 10.4256 9.84158 
32 1 1.59608 6.38818 0.803784 
36 1 -1.82645 7.58037 9.05959 
38 1 -2.13968 6.26076 8.65082 
54 1 0.337612 8.46692 10.6788 
57 1 1.38518 7.97305 9.78653 
60 1 -1.75071 7.5419 0.051769 
65 1 -3.28913 7.52724 3.77043 
78 1 -1.85052 7.5901 1.55154 
80 1 -2.51436 8.81011 1.90914 
84 1 -4.43614 9.80942 3.10566 
99 1 -2.93654 9.59317 0.761783 
100 1 -2.92297 6.27387 3.16208 
107 1 -4.87705 10.5606 1.96449 
110 1 -3.30029 8.87785 3.12431 
111 1 0.586035 5.95967 10.7061 
113 1 1.59728 6.38842 9.81093 
119 1 -4.08124 10.4311 0.772299 
127 1 -2.13992 6.26453 1.96614 
131 1 -2.34079 6.28622 11.0214 
138 1 1.3817 7.97595 0.825899 
142 1 -2.47026 8.82758 8.70141 
145 1 -4.45087 9.72821 7.50837 
151 1 -4.93968 10.3497 11.0585 
154 1 -2.93432 9.60657 9.86204 
155 1 -2.92946 6.29943 7.45982 
12 1 2.57099 7.0724 17.1485 
17 1 0.436571 9.27821 20.9038 
24 1 -3.4716 8.3363 11.8812 
27 1 -0.244973 7.16324 21.6439 
29 1 0.586567 5.95969 22.0575 
31 1 1.27816 7.18225 17.8914 
44 1 -0.164327 7.1328 20.137 
46 1 0.134954 8.45576 19.7164 
51 1 -0.250191 7.15712 11.1214 
53 1 2.5715 7.07077 15.6149 
56 1 1.2793 7.18209 14.8726 
63 1 -2.3484 6.25917 21.7517 
66 1 -3.39899 6.7989 20.8639 
70 1 -0.165386 7.13231 12.6276 
72 1 0.493217 5.91701 12.9825 
92 1 0.91956 8.43042 14.2424 
95 1 -4.9528 10.3498 21.7284 
98 1 -4.65941 9.17512 20.8354 
104 1 0.437186 9.27817 11.8622 
116 1 -2.54228 8.79078 21.7769 
118 1 -3.50417 8.33443 20.8928 
122 1 0.135284 8.45649 13.0479 
133 1 -3.32579 6.82551 11.9308 
136 1 0.334655 8.46891 22.0866 
147 1 0.493618 5.91668 19.7811 
153 1 -4.63956 9.15716 11.9291 
160 1 0.919909 8.42908 18.5208 
1 1 7.75587 4.94194 10.5179 
4 1 9.08944 4.86498 11.0331 
20 1 7.79787 4.91153 9.06662 
42 1 9.49249 5.42579 7.4572 
67 1 9.94148 4.61752 0.768262 
77 1 7.78884 4.93652 0.0767649 
94 1 7.79089 4.94755 1.54439 
96 1 9.12801 4.69859 1.9853 
121 1 4.6258 5.53667 10.6802 
130 1 9.44633 5.45313 3.15885 
134 1 9.94345 4.63269 9.86759 
152 1 9.15259 4.69489 8.64409 
45 1 4.62697 5.53696 22.0852 
55 1 4.81258 5.54881 13.0656 
106 1 9.12081 4.86969 21.7517 
137 1 4.81493 5.54917 19.6962 
2 1 7.28297 10.4906 9.06353 
3 1 8.98605 7.65464 6.05253 
6 1 8.55172 6.33783 6.81489 
16 1 2.3751 8.70502 0.879155 
22 1 7.08047 6.14791 8.68229 
26 1 7.21489 8.35274 7.35293 
35 1 7.30795 10.4576 10.4852 
37 1 6.87457 9.18215 11.0389 
39 1 8.17237 8.90765 6.80258 
41 1 6.68943 6.99808 9.81459 
48 1 3.69288 6.35646 0.851526 
61 1 7.28606 10.4521 1.55861 
62 1 8.95706 7.66589 4.47802 
64 1 6.71555 9.17477 1.98992 
68 1 7.36938 6.94693 3.06907 
71 1 4.3433 8.51968 10.7206 
74 1 3.59526 7.81116 9.78471 
81 1 8.51276 6.37887 3.78396 
83 1 6.53132 8.38524 0.807194 
93 1 7.26586 10.4818 0.120049 
97 1 8.28834 8.95193 3.84301 
101 1 2.41619 9.89436 10.6929 
103 1 2.37736 8.70295 9.73304 
117 1 7.05599 6.16127 1.92725 
120 1 7.19533 8.39946 3.0863 
123 1 3.69398 6.35576 9.76449 
129 1 6.67872 6.96726 0.779891 
132 1 6.46454 9.30765 8.67141 
135 1 7.42408 6.81562 7.52847 
141 1 7.18584 6.20772 10.9145 
144 1 6.55402 8.3993 9.81437 
148 1 3.59433 7.81085 0.829435 
161 2 5.79192 8.77821 7.55364 
7 1 9.06689 6.03984 11.9103 
10 1 3.73182 9.78336 21.5997 
13 1 2.41595 9.89044 22.0687 
15 1 3.02904 8.32819 17.8768 
28 1 3.74523 9.77717 20.1378 
30 1 4.47376 8.55306 19.7633 
34 1 4.33277 6.32446 18.6008 
40 1 7.76978 8.35328 11.9109 
49 1 4.84676 7.75379 20.9098 
50 1 2.09735 9.2498 18.5213 
58 1 1.59187 10.1107 11.8551 
59 1 4.16129 7.77043 14.143 
69 1 3.73044 9.78104 11.1658 
73 1 3.02877 8.32842 14.8859 
75 1 4.99469 6.33778 11.8728 
79 1 7.196 6.20944 21.8083 
82 1 7.90541 6.94618 20.8548 
86 1 3.74592 9.77862 12.6261 
88 1 2.40629 10.0167 13.0723 
108 1 9.14448 6.06989 20.838 
112 1 4.47392 8.55373 13.0003 
115 1 4.33356 6.32553 14.1627 
124 1 4.84789 7.7548 11.8538 
125 1 2.09655 9.25035 14.2422 
126 1 6.85854 9.19036 21.744 
128 1 7.74291 8.37282 20.8461 
139 1 1.59137 10.1104 20.9079 
140 1 4.16262 7.77135 18.6196 
143 1 7.88014 6.91357 11.9189 
146 1 4.33485 8.51932 22.0392 
149 1 4.99266 6.33465 20.8925 
157 1 2.40496 10.0163 19.6921 
ITEM: TIMESTEP
50
ITEM: NUMBER OF ATOMS
161
ITEM: BOX BOUNDS xy xz yz pp pp pp
-6.7755000000000001e+00 1.3552000000000000e+01 -6.7755000000000001e+00
0.0000000000000000e+00 1.1735510246683001e+01 0.0000000000000000e+00
0.0000000000000000e+00 2.2149999999999999e+01 0.0000000000000000e+00
ITEM: ATOMS id type x y z 
8 1 -2.47471 5.48512 9.85864 
87 1 2.92969 4.3222 10.6479 
90 1 2.63172 5.46008 9.7266 
109 1 -2.46329 5.46792 0.777385 
158 1 2.63151 5.46041 0.88859 
11 1 4.24532 4.29071 20.0927 
14 1 2.84686 4.18715 19.7129 
18 1 1.26556 5.85469 18.5524 
33 1 2.06007 4.3014 20.9173 
43 1 4.25158 4.28454 21.5342 
47 1 3.23109 5.79039 17.8375 
52 1 4.24584 4.28934 12.6659 
76 1 2.40164 4.92467 14.1951 
85 1 4.2545 4.28048 11.2279 
89 1 3.23057 5.78999 14.9253 
91 1 0.91292 5.13797 11.835 
102 1 2.84694 4.18799 13.049 
105 1 1.26668 5.8555 14.2114 
114 1 2.06036 4.30105 11.846 
150 1 2.40103 4.92551 18.5685 
156 1 2.92785 4.32206 22.1159 
159 1 0.913692 5.13886 20.9301 
5 1 -4.87433 10.4738 8.64503 
9 1 -3.25923 8.8724 7.53786 
19 1 -1.72425 7.5854 10.541 
21 1 -2.4949 8.82779 10.9925 
23 1 -3.30618 7.56706 6.86912 
25 1 -4.07675 10.3963 9.85461 
32 1 1.57352 6.37376 0.822432 
36 1 -1.79685 7.6018 9.05791 
38 1 -2.13353 6.28163 8.65506 
54 1 0.355394 8.45183 10.6801 
57 1 1.39682 7.97961 9.77199 
60 1 -1.74142 7.55819 0.0587081 
65 1 -3.29716 7.52856 3.76959 
78 1 -1.82821 7.6078 1.55428 
80 1 -2.49106 8.81972 1.91097 
84 1 -4.41481 9.81271 3.10864 
99 1 -2.90844 9.59602 0.757342 
100 1 -2.92215 6.27049 3.1549 
107 1 -4.86004 10.5444 1.95953 
110 1 -3.28693 8.8752 3.12876 
111 1 0.578811 5.95174 10.697 
113 1 1.57301 6.37196 9.79154 
119 1 -4.06911 10.4117 0.76016 
127 1 -2.13538 6.276 1.9665 
131 1 -2.35221 6.30237 11.0287 
138 1 1.39328 7.98139 0.83998 
142 1 -2.44382 8.84385 8.69693 
145 1 -4.45134 9.70208 7.51739 
151 1 -4.92218 10.3121 11.0543 
154 1 -2.89475 9.61026 9.86689 
155 1 -2.92327 6.30213 7.46853 
12 1 2.57348 7.06222 17.1446 
17 1 0.45037 9.25471 20.8997 
24 1 -3.43982 8.33696 11.9045 
27 1 -0.250145 7.1524 21.6372 
29 1 0.58044 5.95361 22.0673 
31 1 1.28517 7.1881 17.8896 
44 1 -0.182773 7.11193 20.1366 
46 1 0.126354 8.43841 19.7179 
51 1 -0.251024 7.14723 11.1295 
53 1 2.57218 7.06477 15.6177 
56 1 1.28456 7.18921 14.8746 
63 1 -2.35824 6.27552 21.7479 
66 1 -3.39833 6.79705 20.8565 
70 1 -0.183984 7.11202 12.6295 
72 1 0.479664 5.90338 12.9962 
92 1 0.914273 8.43629 14.2379 
95 1 -4.94541 10.3252 21.7215 
98 1 -4.64124 9.15003 20.8167 
104 1 0.453752 9.25529 11.8662 
116 1 -2.52419 8.79661 21.7671 
118 1 -3.48512 8.34417 20.8741 
122 1 0.12655 8.43813 13.0472 
133 1 -3.32978 6.83361 11.9383 
136 1 0.34957 8.4549 22.0867 
147 1 0.478866 5.90335 19.7688 
153 1 -4.62652 9.1244 11.9553 
160 1 0.913958 8.43732 18.5265 
1 1 7.71494 4.92402 10.5188 
4 1 9.06077 4.89101 11.0371 
20 1 7.76574 4.91607 9.05979 
42 1 9.48821 5.43905 7.46808 
67 1 9.91772 4.65237 0.765844 
77 1 7.74437 4.91066 0.0712775 
94 1 7.76086 4.95398 1.54611 
96 1 9.09851 4.71287 1.98032 
121 1 4.61678 5.55358 10.692 
130 1 9.4446 5.46283 3.14935 
134 1 9.91695 4.66991 9.86784 
152 1 9.1316 4.70626 8.64955 
45 1 4.61515 5.55339 22.0725 
55 1 4.81073 5.57284 13.0734 
106 1 9.09291 4.89565 21.7573 
137 1 4.81146 5.56961 19.6878 
2 1 7.29162 10.4705 9.0641 
3 1 8.98632 7.65249 6.05286 
6 1 8.54721 6.34071 6.81189 
16 1 2.38803 8.70765 0.886693 
22 1 7.04819 6.1363 8.66604 
26 1 7.18413 8.33292 7.32461 
35 1 7.31885 10.4495 10.477 
37 1 6.89451 9.15228 11.0364 
39 1 8.15692 8.89195 6.80652 
41 1 6.6747 6.97745 9.80097 
48 1 3.67198 6.37224 0.881716 
61 1 7.29819 10.4328 1.56755 
62 1 8.9548 7.67187 4.48124 
64 1 6.72235 9.15473 1.99124 
68 1 7.35916 6.93324 3.07854 
71 1 4.35975 8.51692 10.7178 
74 1 3.61345 7.81465 9.7694 
81 1 8.5032 6.3842 3.78176 
83 1 6.52523 8.3706 0.803947 
93 1 7.2874 10.4458 0.130755 
97 1 8.29563 8.9528 3.83407 
101 1 2.44065 9.88109 10.6977 
103 1 2.39174 8.70968 9.72374 
117 1 7.02258 6.14442 1.93657 
120 1 7.19944 8.38748 3.09712 
123 1 3.67178 6.3725 9.73181 
129 1 6.65362 6.94953 0.782554 
132 1 6.43955 9.30656 8.68729 
135 1 7.40619 6.79995 7.51412 
141 1 7.15473 6.21258 10.9124 
144 1 6.54688 8.39608 9.82304 
148 1 3.61212 7.81454 0.843926 
161 2 5.79148 8.81127 7.54194 
7 1 9.05319 6.04339 11.9218 
10 1 3.76761 9.79657 21.6024 
13 1 2.43861 9.87844 22.065 
15 1 3.03577 8.32679 17.8879 
28 1 3.7802 9.77435 20.1315 
30 1 4.50895 8.56544 19.7533 
34 1 4.32967 6.33659 18.5865 
40 1 7.77791 8.33928 11.9367 
49 1 4.86521 7.77691 20.913 
50 1 2.09856 9.24672 18.5258 
58 1 1.61696 10.0817 11.8602 
59 1 4.17458 7.78816 14.1556 
69 1 3.76204 9.78808 11.1639 
73 1 3.03549 8.32686 14.8773 
75 1 4.99393 6.34535 11.8624 
79 1 7.17145 6.21921 21.7996 
82 1 7.87861 6.93761 20.8373 