ITEM: TIMESTEP
0
ITEM: NUMBER OF ATOMS
162
ITEM: BOX BOUNDS xy xz yz pp pp pp
-6.7755000000000001e+00 1.3552000000000000e+01 -6.7755000000000001e+00
0.0000000000000000e+00 1.1735510246683001e+01 0.0000000000000000e+00
0.0000000000000000e+00 2.2149999999999999e+01 0.0000000000000000e+00
ITEM: ATOMS id type x y z 
8 1 -2.486 5.297 9.849 
87 1 3.001 4.231 10.696 
90 1 2.733 5.481 9.824 
109 1 -2.486 5.297 0.765 
158 1 2.733 5.481 0.79 
11 1 4.24 4.139 20.131 
14 1 3.031 4.094 19.728 
18 1 1.299 5.827 18.554 
33 1 2.266 4.151 20.924 
43 1 4.343 3.96 21.647 
47 1 3.32 5.732 17.88 
52 1 4.24 4.139 12.633 
76 1 2.552 4.924 14.209 
85 1 4.343 3.96 11.117 
89 1 3.32 5.732 14.883 
91 1 1.036 5.037 11.84 
102 1 3.031 4.094 13.035 
105 1 1.299 5.827 14.209 
114 1 2.266 4.151 11.84 
150 1 2.552 4.924 18.554 
156 1 3.001 4.231 22.068 
159 1 1.036 5.037 20.924 
5 1 -5.049 10.63 8.653 
9 1 -3.317 8.897 7.479 
19 1 -1.707 7.414 10.572 
21 1 -2.66 8.795 10.993 
23 1 -3.31 7.532 6.805 
25 1 -4.284 10.573 9.849 
32 1 1.503 6.367 0.79 
36 1 -1.869 7.426 9.056 
38 1 -2.209 6.086 8.653 
54 1 0.3 8.576 10.696 
57 1 1.291 8.001 9.824 
60 1 -1.707 7.414 0.042 
65 1 -3.31 7.532 3.808 
78 1 -1.869 7.426 1.558 
80 1 -2.566 8.842 1.961 
84 1 -4.57 9.799 3.135 
99 1 -3.054 9.687 0.765 
100 1 -2.96 6.142 3.135 
107 1 -5.049 10.63 1.961 
110 1 -3.317 8.897 3.135 
111 1 0.642 5.929 10.696 
113 1 1.503 6.367 9.824 
119 1 -4.284 10.573 0.765 
127 1 -2.209 6.086 1.961 
131 1 -2.318 6.148 10.993 
138 1 1.291 8.001 0.79 
142 1 -2.566 8.842 8.653 
145 1 -4.57 9.799 7.479 
151 1 -5.019 10.493 10.993 
154 1 -3.054 9.687 9.849 
155 1 -2.96 6.142 7.479 
12 1 2.53 7.1 17.202 
17 1 0.468 9.427 20.924 
24 1 -3.52 8.357 11.865 
27 1 -0.31 7.31 21.647 
29 1 0.642 5.929 22.068 
31 1 1.292 7.192 17.88 
44 1 -0.148 7.298 20.131 
46 1 0.191 8.638 19.728 
51 1 -0.31 7.31 11.117 
53 1 2.53 7.1 15.561 
56 1 1.292 7.192 14.883 
63 1 -2.318 6.148 21.771 
66 1 -3.309 6.723 20.899 
70 1 -0.148 7.298 12.633 
72 1 0.548 5.882 13.035 
92 1 0.942 8.582 14.209 
95 1 -5.019 10.493 21.771 
98 1 -4.751 9.243 20.899 
104 1 0.468 9.427 11.84 
116 1 -2.66 8.795 21.771 
118 1 -3.52 8.357 20.899 
122 1 0.191 8.638 13.035 
133 1 -3.309 6.723 11.865 
136 1 0.3 8.576 22.068 
147 1 0.548 5.882 19.728 
153 1 -4.751 9.243 11.865 
160 1 0.942 8.582 18.554 
1 1 7.976 4.694 10.572 
4 1 9.274 4.77 10.993 
20 1 8.034 4.861 9.056 
42 1 9.55 5.41 7.479 
67 1 10.043 4.578 0.765 
77 1 7.976 4.694 0.042 
94 1 8.035 4.861 1.558 
96 1 9.278 4.635 1.961 
121 1 4.688 5.417 10.696 
130 1 9.55 5.41 3.135 
134 1 10.043 4.578 9.849 
152 1 9.278 4.635 8.653 
45 1 4.688 5.417 22.068 
55 1 4.788 5.329 13.035 
106 1 9.274 4.77 21.771 
137 1 4.788 5.329 19.728 
161 2 9.311 4.282 12.254 
162 3 9.311 3.306 12.254 
2 1 7.294 10.585 9.056 
3 1 9.004 7.624 6.127 
6 1 8.556 6.347 6.805 
16 1 2.314 8.72 0.79 
22 1 7.166 6.156 8.653 
26 1 7.226 8.565 7.479 
35 1 7.191 10.764 10.572 
37 1 6.846 9.307 10.993 
39 1 8.214 8.992 6.805 
41 1 6.677 7.002 9.849 
48 1 3.775 6.213 0.79 
61 1 7.294 10.585 1.558 
62 1 9.004 7.624 4.487 
64 1 6.747 9.395 1.961 
68 1 7.437 6.931 3.135 
71 1 4.29 8.493 10.696 
74 1 3.567 7.818 9.824 
81 1 8.556 6.347 3.808 
83 1 6.47 8.606 0.765 
93 1 7.191 10.764 0.042 
97 1 8.214 8.992 3.808 
101 1 2.261 9.954 10.696 
103 1 2.314 8.72 9.824 
117 1 7.166 6.156 1.961 
120 1 7.226 8.565 3.135 
123 1 3.775 6.213 9.824 
129 1 6.677 7.002 0.765 
132 1 6.747 9.395 8.653 
135 1 7.437 6.931 7.479 
141 1 7.244 6.231 10.993 
144 1 6.47 8.606 9.849 
148 1 3.567 7.818 0.79 
7 1 9.22 6.004 11.865 
10 1 3.558 10.029 21.647 
13 1 2.261 9.954 22.068 
15 1 2.978 8.376 17.88 
28 1 3.5 9.862 20.131 
30 1 4.369 8.568 19.728 
34 1 4.308 6.159 18.554 
40 1 7.76 8.511 11.865 
49 1 4.857 7.722 20.924 
50 1 1.984 9.314 18.554 
58 1 1.491 10.146 11.84 
59 1 4.097 7.793 14.209 
69 1 3.558 10.029 11.117 
73 1 2.978 8.376 14.883 
75 1 5.064 6.118 11.84 
79 1 7.244 6.231 21.771 
82 1 7.967 6.906 20.899 
86 1 3.5 9.862 12.633 
88 1 2.256 10.089 13.035 
108 1 9.22 6.004 20.899 
112 1 4.369 8.568 13.035 
115 1 4.308 6.159 14.209 
124 1 4.857 7.722 11.84 
125 1 1.984 9.314 14.209 
126 1 6.846 9.307 21.771 
128 1 7.76 8.511 20.899 
139 1 1.491 10.146 20.924 
140 1 4.097 7.793 18.554 
143 1 7.967 6.906 11.865 
146 1 4.29 8.493 22.068 
149 1 5.064 6.118 20.924 
157 1 2.256 10.089 19.728 
ITEM: TIMESTEP
10
ITEM: NUMBER OF ATOMS
162
ITEM: BOX BOUNDS xy xz yz pp pp pp
-6.7755000000000001e+00 1.3552000000000000e+01 -6.7755000000000001e+00
0.0000000000000000e+00 1.1735510246683001e+01 0.0000000000000000e+00
0.0000000000000000e+00 2.2149999999999999e+01 0.0000000000000000e+00
ITEM: ATOMS id type x y z 
8 1 -2.39436 5.33861 9.8524 
87 1 2.97192 4.27198 10.6534 
90 1 2.64746 5.44212 9.79075 
109 1 -2.40358 5.35612 0.766459 
158 1 2.64779 5.45479 0.837253 
11 1 4.29142 4.18156 20.1503 
14 1 2.92235 4.11977 19.7063 
18 1 1.33906 5.83772 18.6 
33 1 2.12869 4.23986 20.886 
43 1 4.3353 4.10553 21.5706 
47 1 3.24698 5.79922 17.8565 
52 1 4.29592 4.1744 12.618 
76 1 2.43746 4.90465 14.1824 
85 1 4.31213 4.10623 11.1783 
89 1 3.24793 5.79983 14.9075 
91 1 0.987973 5.09935 11.8603 
102 1 2.9145 4.12196 13.0595 
105 1 1.33801 5.8407 14.1624 
114 1 2.13863 4.24075 11.8586 
150 1 2.44045 4.89465 18.5804 
156 1 2.95735 4.24733 22.1287 
159 1 0.985281 5.10022 20.8992 
5 1 -4.9296 10.5996 8.62681 
9 1 -3.35231 8.86624 7.51892 
19 1 -1.76526 7.48948 10.5657 
21 1 -2.62252 8.74908 10.9293 
23 1 -3.31446 7.53171 6.84731 
25 1 -4.15255 10.4901 9.81286 
32 1 1.57969 6.32958 0.782482 
36 1 -1.91575 7.52542 9.05333 
38 1 -2.16392 6.21696 8.62831 
54 1 0.297576 8.51567 10.681 
57 1 1.33867 8.00004 9.78967 
60 1 -1.76444 7.5039 0.0475042 
65 1 -3.30625 7.52754 3.77423 
78 1 -1.90847 7.53703 1.56434 
80 1 -2.5729 8.78924 1.88712 
84 1 -4.45212 9.81457 3.11068 
99 1 -3.00253 9.6275 0.795638 
100 1 -2.92684 6.23117 3.17083 
107 1 -4.92891 10.6028 1.99344 
110 1 -3.34884 8.8841 3.08353 
111 1 0.600884 5.96434 10.7785 
113 1 1.57815 6.32971 9.83556 
119 1 -4.1315 10.4853 0.821262 
127 1 -2.15976 6.1982 1.97234 
131 1 -2.30759 6.21197 11.0081 
138 1 1.34005 8.00265 0.829157 
142 1 -2.56522 8.7799 8.72658 
145 1 -4.44976 9.82431 7.50623 
151 1 -4.98491 10.4641 11.0555 
154 1 -3.00378 9.63415 9.82035 
155 1 -2.92335 6.24823 7.43324 
12 1 2.58756 7.07687 17.1186 
17 1 0.387445 9.36637 20.9227 
24 1 -3.53407 8.42144 11.8393 
27 1 -0.252384 7.21799 21.6374 
29 1 0.597264 5.96438 21.984 
31 1 1.29135 7.20784 17.9044 
44 1 -0.102983 7.18893 20.1303 
46 1 0.140924 8.52083 19.7205 
51 1 -0.247928 7.22153 11.1204 
53 1 2.5834 7.07544 15.6376 
56 1 1.29914 7.20556 14.8533 
63 1 -2.30981 6.20657 21.7552 
66 1 -3.35826 6.72505 20.8587 
70 1 -0.108529 7.18864 12.6355 
72 1 0.557196 5.92918 12.9678 
92 1 0.910205 8.48862 14.2472 
95 1 -5.013 10.4611 21.6918 
98 1 -4.67497 9.23674 20.8365 
104 1 0.387253 9.36448 11.8383 
116 1 -2.60533 8.76003 21.8571 
118 1 -3.56604 8.39279 20.9 
122 1 0.141379 8.52629 13.0435 
133 1 -3.33059 6.75421 11.9238 
136 1 0.293175 8.51826 22.0839 
147 1 0.551453 5.93596 19.8017 
153 1 -4.68439 9.21293 11.9054 
160 1 0.907873 8.49413 18.5195 
1 1 7.80421 4.93072 10.4958 
4 1 9.1853 4.6467 11.1872 
20 1 7.87304 4.9413 9.1069 
42 1 9.47096 5.42502 7.42328 
67 1 9.99499 4.53506 0.758539 
77 1 7.90006 4.94231 0.0751729 
94 1 7.87391 4.93035 1.54063 
96 1 9.21901 4.63884 2.00667 
121 1 4.70397 5.40457 10.7213 
130 1 9.46777 5.42605 3.18305 
134 1 10.0637 4.53161 9.74369 
152 1 9.22558 4.6374 8.60642 
45 1 4.71122 5.40862 22.0374 
55 1 4.81538 5.48505 13.0629 
106 1 9.17441 4.77504 21.7203 
137 1 4.81407 5.47674 19.7024 
161 2 9.32658 4.25296 12.2269 
162 3 9.30934 3.29305 12.2542 
2 1 7.23741 10.5547 9.07481 
3 1 8.9663 7.65681 6.04936 
6 1 8.55167 6.40651 6.83721 
16 1 2.33983 8.70499 0.831416 
22 1 7.14798 6.2044 8.71037 
26 1 7.16304 8.43821 7.54728 
35 1 7.20414 10.6043 10.5132 
37 1 6.86411 9.27491 10.9993 
39 1 8.27425 8.92861 6.77403 
41 1 6.73155 7.02578 9.82704 
48 1 3.72891 6.36051 0.859254 
61 1 7.23465 10.5483 1.54545 
62 1 8.95312 7.65353 4.56305 
64 1 6.71165 9.2446 1.97911 
68 1 7.41159 6.95957 3.06159 
71 1 4.2797 8.55388 10.7885 
74 1 3.63587 7.81242 9.85612 
81 1 8.55487 6.4062 3.77725 
83 1 6.54759 8.44232 0.794593 
93 1 7.17202 10.616 0.115832 
97 1 8.27444 8.9306 3.83409 
101 1 2.35834 9.9492 10.6474 
103 1 2.34205 8.70069 9.78379 
117 1 7.14972 6.19961 1.88901 
120 1 7.16641 8.43981 3.0661 
123 1 3.72805 6.3654 9.7565 
129 1 6.74279 7.02603 0.770258 
132 1 6.70992 9.24607 8.63376 
135 1 7.41388 6.95687 7.55717 
141 1 7.24255 6.14606 10.8757 
144 1 6.54509 8.44542 9.82086 
148 1 3.6397 7.81415 0.762133 
7 1 9.1588 6.18378 11.9474 
10 1 3.63441 9.78142 21.6092 
13 1 2.35704 9.9495 22.1174 
15 1 2.97833 8.31151 17.9152 
28 1 3.65821 9.78786 20.1519 
30 1 4.38335 8.52369 19.7953 
34 1 4.35739 6.28943 18.63 
40 1 7.74464 8.40306 11.8656 
49 1 4.78885 7.70474 20.9137 
50 1 2.07019 9.29586 18.5053 
58 1 1.54322 10.1856 11.8368 
59 1 4.11801 7.75678 14.1396 
69 1 3.6328 9.77939 11.1597 
73 1 2.97282 8.30827 14.8481 
75 1 4.99642 6.28743 11.8859 
79 1 7.25406 6.17199 21.8675 
82 1 7.89056 6.93018 20.9287 
86 1 3.64843 9.79083 12.6086 
88 1 2.32405 10.0803 13.077 
108 1 9.19376 6.02115 20.8567 
112 1 4.38319 8.52724 12.9665 
115 1 4.35849 6.28872 14.131 
124 1 4.79091 7.70023 11.8453 
125 1 2.07203 9.29783 14.2539 
126 1 6.87839 9.32846 21.8015 
128 1 7.76771 8.3642 20.8474 
139 1 1.53931 10.1865 20.9315 
140 1 4.11959 7.75908 18.626 
143 1 7.9 6.96598 11.8636 
146 1 4.28392 8.55496 21.9731 
149 1 4.99333 6.28685 20.8824 
157 1 2.31855 10.0852 19.6831 
ITEM: TIMESTEP
20
ITEM: NUMBER OF ATOMS
162
ITEM: BOX BOUNDS xy xz yz pp pp pp
-6.7755000000000001e+00 1.3552000000000000e+01 -6.7755000000000001e+00
0.0000000000000000e+00 1.1735510246683001e+01 0.0000000000000000e+00
0.0000000000000000e+00 2.2149999999999999e+01 0.0000000000000000e+00
ITEM: ATOMS id type x y z 
8 1 -2.41773 5.35672 9.84361 
87 1 2.96396 4.26849 10.655 
90 1 2.66899 5.45239 9.78105 
109 1 -2.41573 5.37412 0.773269 
158 1 2.66958 5.45096 0.834255 
11 1 4.28557 4.20092 20.1324 
14 1 2.90494 4.13275 19.6968 
18 1 1.31488 5.85421 18.5887 
33 1 2.11823 4.25383 20.9032 
43 1 4.31855 4.14347 21.5884 
47 1 3.25969 5.78934 17.8489 
52 1 4.28942 4.19392 12.6322 
76 1 2.44941 4.91498 14.1774 
85 1 4.31447 4.14781 11.1796 
89 1 3.26163 5.78953 14.9149 
91 1 0.980513 5.10878 11.8549 
102 1 2.90432 4.13474 13.066 
105 1 1.31434 5.8537 14.1753 
114 1 2.11697 4.25345 11.8592 
150 1 2.44945 4.91131 18.5864 
156 1 2.96167 4.26823 22.1087 
159 1 0.980299 5.10907 20.9065 
5 1 -4.92584 10.5864 8.62047 
9 1 -3.33431 8.87087 7.514 
19 1 -1.76295 7.48207 10.5577 
21 1 -2.61193 8.77096 10.9388 
23 1 -3.30949 7.53698 6.83397 
25 1 -4.13624 10.4715 9.83277 
32 1 1.58777 6.34738 0.775218 
36 1 -1.90605 7.53438 9.06363 
38 1 -2.16259 6.22077 8.63482 
54 1 0.30482 8.51216 10.6771 
57 1 1.35344 7.99505 9.79291 
60 1 -1.76427 7.51715 0.0575996 
65 1 -3.31159 7.53149 3.77463 
78 1 -1.90081 7.54366 1.555 
80 1 -2.5606 8.78714 1.88359 
84 1 -4.46651 9.80719 3.10489 
99 1 -2.99696 9.61954 0.78358 
100 1 -2.9312 6.2604 3.1757 
107 1 -4.92146 10.588 1.99301 
110 1 -3.32973 8.87019 3.09931 
111 1 0.608158 5.9637 10.7583 
113 1 1.58823 6.34964 9.83937 
119 1 -4.1394 10.4674 0.783811 
127 1 -2.15999 6.21085 1.9704 
131 1 -2.32333 6.21194 11.0054 
138 1 1.35303 7.99678 0.822687 
142 1 -2.5588 8.79031 8.72795 
145 1 -4.46644 9.81063 7.50952 
151 1 -4.98237 10.436 11.0366 
154 1 -3.00008 9.62266 9.82355 
155 1 -2.93069 6.25834 7.43414 
12 1 2.56124 7.07007 17.14 
17 1 0.398675 9.34863 20.9176 
24 1 -3.53832 8.40308 11.8487 
27 1 -0.249757 7.20831 21.6326 
29 1 0.607348 5.96479 22.005 
31 1 1.29302 7.19553 17.9111 
44 1 -0.114078 7.17798 20.1359 
46 1 0.142951 8.51295 19.7205 
51 1 -0.252875 7.20715 11.1291 
53 1 2.56255 7.06768 15.6221 
56 1 1.29345 7.19465 14.8505 
63 1 -2.32071 6.21147 21.7495 
66 1 -3.37062 6.72649 20.8647 
70 1 -0.114635 7.17789 12.6278 
72 1 0.543875 5.93366 12.9648 
92 1 0.913531 8.46377 14.25 
95 1 -4.99063 10.4463 21.7332 
98 1 -4.68565 9.27061 20.847 
104 1 0.3988 9.34783 11.8455 
116 1 -2.6172 8.75885 21.8418 
118 1 -3.5945 8.38107 20.9068 
122 1 0.141495 8.51284 13.0434 
133 1 -3.34337 6.76888 11.9179 
136 1 0.303715 8.51102 22.0875 
147 1 0.545725 5.93435 19.7995 
153 1 -4.68039 9.22467 11.897 
160 1 0.91322 8.46359 18.5134 
1 1 7.8191 4.92231 10.507 
4 1 9.18622 4.64596 11.1575 
20 1 7.86688 4.95211 9.09795 
42 1 9.46747 5.43884 7.42925 
67 1 9.98117 4.55248 0.763168 
77 1 7.88339 4.93285 0.0848026 
94 1 7.8715 4.93967 1.54511 
96 1 9.1969 4.65422 1.99602 
121 1 4.67418 5.4459 10.72 
130 1 9.46625 5.42961 3.17465 
134 1 10.0311 4.5572 9.75992 
152 1 9.22422 4.65007 8.62287 
45 1 4.67289 5.44619 22.0417 
55 1 4.81611 5.49033 13.0616 
106 1 9.17715 4.78321 21.7375 
137 1 4.81614 5.48995 19.7021 
161 2 9.32928 4.25455 12.2305 
162 3 9.30623 3.302 12.2352 
2 1 7.25139 10.5296 9.06975 
3 1 8.97463 7.65858 6.06466 
6 1 8.53231 6.39305 6.82821 
16 1 2.35143 8.69602 0.83999 
22 1 7.14042 6.19685 8.71524 
26 1 7.18143 8.42793 7.54744 
35 1 7.23635 10.583 10.5116 
37 1 6.85503 9.25214 11.0094 
39 1 8.26655 8.93162 6.77269 
41 1 6.72283 7.0128 9.82085 
48 1 3.71312 6.36291 0.831772 
61 1 7.24722 10.5273 1.55916 
62 1 8.97381 7.65516 4.54669 
64 1 6.7167 9.23468 1.98739 
68 1 7.40477 6.97106 3.0545 
71 1 4.29633 8.53625 10.7743 
74 1 3.61116 7.7861 9.83763 
81 1 8.52965 6.39796 3.78519 
83 1 6.55035 8.44437 0.785708 
93 1 7.20951 10.5939 0.107923 
97 1 8.26846 8.93213 3.83834 
101 1 2.35596 9.94054 10.6615 
103 1 2.35133 8.69484 9.77475 
117 1 7.1392 6.19766 1.89552 
120 1 7.18083 8.42497 3.06626 
123 1 3.71034 6.36266 9.78334 
129 1 6.737 7.0128 0.779128 
132 1 6.7163 9.23398 8.62965 
135 1 7.4031 6.97058 7.56013 
141 1 7.23375 6.16933 10.893 
144 1 6.54379 8.43766 9.81207 
148 1 3.61259 7.78642 0.776303 
7 1 9.15062 6.19043 11.948 
10 1 3.64909 9.78898 21.6038 
13 1 2.35664 9.94115 22.1016 
15 1 3.00484 8.32707 17.9044 
28 1 3.6626 9.78393 20.1453 
30 1 4.39734 8.5261 19.7916 
34 1 4.34494 6.29743 18.6259 
40 1 7.74196 8.40457 11.8686 
49 1 4.79565 7.71403 20.9095 
50 1 2.06678 9.29606 18.5152 
58 1 1.55232 10.1707 11.8376 
59 1 4.13157 7.75583 14.1266 
69 1 3.64966 9.78779 11.1636 
73 1 3.00301 8.32621 14.8569 
75 1 4.99176 6.27868 11.8606 
79 1 7.23755 6.18623 21.8508 
82 1 7.91766 6.92888 20.9142 
86 1 3.66693 9.78198 12.6202 
88 1 2.34008 10.069 13.0682 
108 1 9.18201 6.02966 20.8481 
112 1 4.39163 8.52859 12.9669 
115 1 4.34561 6.29842 14.1375 
124 1 4.79744 7.71434 11.8557 
125 1 2.06603 9.2969 14.2493 
126 1 6.86902 9.28529 21.7985 
128 1 7.81084 8.35877 20.8484 
139 1 1.55291 10.1701 20.9259 
140 1 4.13091 7.75305 18.6328 
143 1 7.90639 6.96292 11.8678 
146 1 4.29908 8.5358 21.9921 
149 1 4.9882 6.28029 20.9022 
157 1 2.338 10.0703 19.6936 
ITEM: TIMESTEP
30
ITEM: NUMBER OF ATOMS
162
ITEM: BOX BOUNDS xy xz yz pp pp pp
-6.7755000000000001e+00 1.3552000000000000e+01 -6.7755000000000001e+00
0.0000000000000000e+00 1.1735510246683001e+01 0.0000000000000000e+00
0.0000000000000000e+00 2.2149999999999999e+01 0.0000000000000000e+00
ITEM: ATOMS id type x y z 
8 1 -2.4414 5.38728 9.83116 
87 1 2.95429 4.27538 10.6551 
90 1 2.65671 5.44026 9.77262 
109 1 -2.43007 5.40614 0.779107 
158 1 2.6576 5.43853 0.840238 
11 1 4.27352 4.22635 20.1232 
14 1 2.88694 4.14958 19.7044 
18 1 1.29701 5.84971 18.5729 
33 1 2.09152 4.26912 20.9011 
43 1 4.29914 4.18953 21.5707 
47 1 3.25096 5.79637 17.8303 
52 1 4.27589 4.22373 12.6435 
76 1 2.44668 4.92999 14.1801 
85 1 4.29613 4.1951 11.1998 
89 1 3.25138 5.79696 14.9335 
91 1 0.961597 5.12365 11.8423 
102 1 2.88705 4.14954 13.0579 
105 1 1.29736 5.84946 14.1904 
114 1 2.09262 4.26941 11.8619 
150 1 2.44595 4.92879 18.5827 
156 1 2.95316 4.2766 22.1072 
159 1 0.962203 5.12315 20.9216 
5 1 -4.90496 10.5748 8.63073 
9 1 -3.31754 8.87518 7.50092 
19 1 -1.76196 7.49031 10.5612 
21 1 -2.58621 8.78225 10.9612 
23 1 -3.29911 7.54713 6.81973 
25 1 -4.1099 10.4539 9.82909 
32 1 1.605 6.37127 0.777953 
36 1 -1.88624 7.55678 9.06801 
38 1 -2.16064 6.23908 8.63275 
54 1 0.3149 8.49247 10.6753 
57 1 1.36397 7.9849 9.79809 
60 1 -1.76725 7.53208 0.0563286 
65 1 -3.29865 7.54266 3.78669 
78 1 -1.87785 7.56293 1.54819 
80 1 -2.54272 8.79142 1.89398 
84 1 -4.46444 9.79452 3.1059 
99 1 -2.97621 9.60192 0.767604 
100 1 -2.93687 6.27742 3.17048 
107 1 -4.90636 10.5735 1.98559 
110 1 -3.31446 8.87398 3.11311 
111 1 0.60861 5.96485 10.7283 
113 1 1.60424 6.3727 9.83596 
119 1 -4.11346 10.4508 0.784965 
127 1 -2.15982 6.23237 1.97252 
131 1 -2.34299 6.22259 11.002 
138 1 1.36597 7.98448 0.817869 
142 1 -2.542 8.79509 8.71618 
145 1 -4.46798 9.79519 7.50625 
151 1 -4.97315 10.4053 11.0341 
154 1 -2.97623 9.60643 9.83684 
155 1 -2.93559 6.27896 7.43674 
12 1 2.56059 7.0775 17.1518 
17 1 0.412257 9.31768 20.9103 
24 1 -3.52345 8.38723 11.857 
27 1 -0.2472 7.19016 21.6345 
29 1 0.607802 5.96663 22.0354 
31 1 1.28212 7.18056 17.9002 
44 1 -0.13721 7.16046 20.1414 
46 1 0.142849 8.49045 19.7171 
51 1 -0.255266 7.18682 11.1257 
53 1 2.56081 7.0765 15.6108 
56 1 1.28185 7.18012 14.8633 
63 1 -2.33424 6.22993 21.7484 
66 1 -3.38337 6.73797 20.8711 
70 1 -0.135719 7.15957 12.6221 
72 1 0.522813 5.93131 12.9701 
92 1 0.918545 8.44723 14.2447 
95 1 -4.9716 10.4458 21.7343 
98 1 -4.68101 9.28343 20.844 
104 1 0.412251 9.31686 11.852 
116 1 -2.62473 8.75638 21.8056 
118 1 -3.6191 8.35866 20.9096 
122 1 0.141474 8.48911 13.0467 
133 1 -3.36171 6.79071 11.9169 
136 1 0.316322 8.49434 22.0901 
147 1 0.524734 5.93138 19.7932 
153 1 -4.66941 9.21526 11.9087 
160 1 0.918837 8.44748 18.5187 
1 1 7.80509 4.94249 10.5081 
4 1 9.18906 4.63124 11.1475 
20 1 7.84504 4.95106 9.09922 
42 1 9.45271 5.46183 7.43311 
67 1 9.96867 4.57526 0.770687 
77 1 7.84704 4.92565 0.0874753 
94 1 7.83832 4.94492 1.55174 
96 1 9.17038 4.67901 1.99521 
121 1 4.65064 5.49322 10.6921 
130 1 9.45165 5.45365 3.17329 
134 1 9.99487 4.58194 9.7748 
152 1 9.20684 4.67268 8.62441 
45 1 4.64896 5.49493 22.0703 
55 1 4.81767 5.51221 13.0637 
106 1 9.1579 4.80524 21.7557 
137 1 4.81647 5.51292 19.6995 
161 2 9.33527 4.26045 12.2356 
162 3 9.30203 3.30189 12.2085 
2 1 7.26585 10.4994 9.06052 
3 1 8.97423 7.65099 6.07454 
6 1 8.51439 6.38899 6.81214 
16 1 2.36301 8.69712 0.85634 
22 1 7.11432 6.18708 8.7112 
26 1 7.1956 8.41648 7.5402 
35 1 7.25049 10.5399 10.4996 
37 1 6.84913 9.23062 11.0198 
39 1 8.28118 8.9274 6.75471 
41 1 6.69751 6.99758 9.82331 
48 1 3.70143 6.34928 0.825099 
61 1 7.26005 10.4983 1.56822 
62 1 8.97306 7.6468 4.53678 
64 1 6.71647 9.21316 1.99274 
68 1 7.39269 6.96358 3.06017 
71 1 4.3145 8.52009 10.7505 
74 1 3.58872 7.79947 9.81204 
81 1 8.51164 6.39089 3.79928 
83 1 6.5481 8.42564 0.787689 
93 1 7.23016 10.5376 0.118874 
97 1 8.2834 8.92475 3.85696 
101 1 2.37757 9.91913 10.6794 
103 1 2.36202 8.69676 9.75863 
117 1 7.11103 6.18518 1.90439 
120 1 7.1933 8.41885 3.07356 
123 1 3.70016 6.35028 9.78962 
129 1 6.71916 6.9924 0.776521 
132 1 6.71402 9.20962 8.62563 
135 1 7.38989 6.96173 7.55322 
141 1 7.2201 6.17475 10.9104 
144 1 6.5384 8.41846 9.80315 
148 1 3.5894 7.79908 0.801266 
7 1 9.13625 6.20634 11.9573 
10 1 3.68561 9.79335 21.6015 
13 1 2.3766 9.91928 22.0844 
15 1 3.02245 8.33335 17.8893 
28 1 3.69626 9.77787 20.1377 
30 1 4.42389 8.54027 19.7827 
34 1 4.33559 6.30434 18.6161 
40 1 7.73662 8.40992 11.883 
49 1 4.81608 7.73103 20.911 
50 1 2.08211 9.271 18.5166 
58 1 1.56467 10.1483 11.8445 
59 1 4.14175 7.7625 14.1336 
69 1 3.68542 9.79231 11.1646 
73 1 3.02259 8.33285 14.8715 
75 1 4.99508 6.30124 11.8644 
79 1 7.21733 6.20155 21.8271 
82 1 7.94323 6.92561 20.8867 
86 1 3.69777 9.78189 12.626 
88 1 2.36498 10.0459 13.0697 
108 1 9.1708 6.02771 20.8327 
112 1 4.42149 8.53921 12.9769 
115 1 4.33554 6.30507 14.1454 
124 1 4.81893 7.72719 11.8516 
125 1 2.08118 9.27157 14.2474 
126 1 6.88339 9.23437 21.7744 
128 1 7.83898 8.3701 20.8573 
139 1 1.56613 10.1487 20.9184 
140 1 4.14075 7.76112 18.6284 
143 1 7.9055 6.96232 11.8924 
146 1 4.31719 8.52078 22.0162 
149 1 4.99114 6.30377 20.8988 
157 1 2.36448 10.0458 19.6939 
ITEM: TIMESTEP
40
ITEM: NUMBER OF ATOMS
162
ITEM: BOX BOUNDS xy xz yz pp pp pp
-6.7755000000000001e+00 1.3552000000000000e+01 -6.7755000000000001e+00
0.0000000000000000e+00 1.1735510246683001e+01 0.0000000000000000e+00
0.0000000000000000e+00 2.2149999999999999e+01 0.0000000000000000e+00
ITEM: ATOMS id type x y z 
8 1 -2.52004 5.46221 9.81657 
87 1 2.91792 4.33414 10.6468 
90 1 2.6112 5.45289 9.72581 
109 1 -2.47423 5.48675 0.796467 
158 1 2.61065 5.45319 0.886434 
11 1 4.2341 4.31726 20.0908 
14 1 2.82658 4.20971 19.7203 
18 1 1.252 5.84188 18.5465 
33 1 2.04964 4.31144 20.9091 
43 1 4.24934 4.31308 21.5292 
47 1 3.2199 5.80794 17.8193 
52 1 4.23609 4.31444 12.6759 
76 1 2.39133 4.94073 14.2019 
85 1 4.2446 4.31853 11.2421 
89 1 3.22071 5.8072 14.9403 
91 1 0.902391 5.1535 11.8258 
102 1 2.83089 4.20572 13.044 
105 1 1.25064 5.84387 14.2174 
114 1 2.04895 4.31138 11.851 
150 1 2.39191 4.94027 18.565 
156 1 2.91426 4.33124 22.1144 
159 1 0.901335 5.156 20.9362 
5 1 -4.83861 10.519 8.64144 
9 1 -3.27418 8.88174 7.46848 
19 1 -1.75974 7.53323 10.5764 
21 1 -2.50396 8.8016 11.0117 
23 1 -3.30445 7.55002 6.80007 
25 1 -4.05476 10.3977 9.84422 
32 1 1.58599 6.38469 0.829239 
36 1 -1.82513 7.61036 9.05029 
38 1 -2.14631 6.3153 8.62678 
54 1 0.346874 8.43517 10.6841 
57 1 1.39566 7.97866 9.78012 
60 1 -1.76401 7.57349 0.0354626 
65 1 -3.30282 7.53347 3.80596 
78 1 -1.81959 7.62425 1.55812 
80 1 -2.47816 8.82214 1.93355 
84 1 -4.40978 9.78561 3.12626 
99 1 -2.92549 9.57224 0.760162 
100 1 -2.93106 6.30504 3.15048 
107 1 -4.8434 10.5176 1.96009 
110 1 -3.27211 8.87917 3.14081 
111 1 0.564705 5.95217 10.6809 
113 1 1.58515 6.38416 9.78417 
119 1 -4.06598 10.4161 0.78457 
127 1 -2.14625 6.31102 1.97186 
131 1 -2.39724 6.27162 10.9846 
138 1 1.40111 7.97435 0.838737 
142 1 -2.48447 8.81946 8.69223 
145 1 -4.41323 9.78826 7.49268 
151 1 -4.93587 10.3168 11.0198 
154 1 -2.89157 9.58242 9.8543 
155 1 -2.93142 6.30698 7.43936 
12 1 2.57805 7.06697 17.1398 
17 1 0.459547 9.23912 20.896 
24 1 -3.46211 8.38669 11.8926 
27 1 -0.253554 7.1413 21.6557 
29 1 0.563733 5.95788 22.0838 
31 1 1.28431 7.187 17.8793 
44 1 -0.196276 7.09684 20.1308 
46 1 0.123708 8.41308 19.7165 
51 1 -0.264388 7.12965 11.1059 
53 1 2.57761 7.06721 15.6274 
56 1 1.28431 7.18799 14.8819 
63 1 -2.3627 6.28385 21.762 
66 1 -3.4213 6.7577 20.8472 
70 1 -0.197336 7.09766 12.6346 
72 1 0.462288 5.90013 13.0022 
92 1 0.918534 8.41528 14.2301 
95 1 -4.94089 10.3871 21.7259 
98 1 -4.63167 9.25139 20.804 
104 1 0.456942 9.23302 11.866 
116 1 -2.56708 8.76623 21.74 
118 1 -3.54409 8.33802 20.8603 
122 1 0.126433 8.41059 13.0444 
133 1 -3.40619 6.80821 11.9375 
136 1 0.349795 8.4429 22.0819 
147 1 0.460782 5.90065 19.762 
153 1 -4.6366 9.15687 11.966 
160 1 0.918353 8.41617 18.5326 
1 1 7.75655 4.97151 10.5289 
4 1 9.1458 4.62091 11.178 
20 1 7.75985 4.96902 9.1154 
42 1 9.43334 5.50216 7.44537 
67 1 9.90436 4.66769 0.800431 
77 1 7.71793 4.92148 0.0781086 
94 1 7.72832 4.95819 1.5565 
96 1 9.08344 4.73983 1.99626 
121 1 4.60138 5.57757 10.6803 
130 1 9.42604 5.49585 3.16081 
134 1 9.92083 4.65499 9.77756 
152 1 9.12481 4.72577 8.62768 
45 1 4.60287 5.58048 22.0833 
55 1 4.81032 5.58989 13.0759 
106 1 9.07543 4.87171 21.7908 
137 1 4.80464 5.59514 19.6861 
161 2 9.36055 4.27194 12.26 
162 3 9.28441 3.32769 12.092 
2 1 7.30425 10.4131 9.02052 
3 1 8.94928 7.6664 6.05889 
6 1 8.50103 6.39667 6.79809 
16 1 2.39213 8.71002 0.896084 
22 1 7.01465 6.1583 8.67208 
26 1 7.20963 8.37397 7.50337 
35 1 7.27097 10.4605 10.4748 
37 1 6.85783 9.15801 11.0233 
39 1 8.30946 8.92125 6.74687 
41 1 6.62933 6.93988 9.82764 
48 1 3.67029 6.36484 0.886324 
61 1 7.29783 10.4119 1.5844 
62 1 8.95619 7.65922 4.5433 
64 1 6.72534 9.12876 1.99818 
68 1 7.34069 6.92776 3.077 
71 1 4.34991 8.51316 10.7026 
74 1 3.61105 7.81909 9.75938 
81 1 8.49716 6.40248 3.81264 
83 1 6.53725 8.34497 0.821026 
93 1 7.30076 10.4161 0.161099 
97 1 8.31398 8.92198 3.86746 
101 1 2.4573 9.85761 10.7162 
103 1 2.38565 8.70895 9.72028 
117 1 7.01345 6.14967 1.94245 
120 1 7.21083 8.37657 3.10981 
123 1 3.67051 6.36674 9.72667 
129 1 6.64398 6.93276 0.782177 
132 1 6.7281 9.12506 8.60922 
135 1 7.34871 6.9219 7.53312 
141 1 7.1744 6.18412 10.9536 
144 1 6.51666 8.36155 9.80291 
148 1 3.61414 7.82148 0.854669 
7 1 9.08788 6.2269 11.9903 
10 1 3.80963 9.79558 21.607 
13 1 2.45753 9.85705 22.0472 
15 1 3.03561 8.32139 17.8711 
28 1 3.80956 9.76848 20.131 
30 1 4.52355 8.56998 19.7505 
34 1 4.32709 6.34512 18.5845 
40 1 7.73795 8.39732 11.9497 
49 1 4.88883 7.79542 20.9074 
50 1 2.11102 9.22595 18.5264 
58 1 1.62634 10.0561 11.8746 
59 1 4.18904 7.78879 14.155 
69 1 3.80902 9.79652 11.1564 
73 1 3.03541 8.32389 14.8914 
75 1 5.00456 6.36547 11.8671 
79 1 7.19105 6.20979 21.7683 
82 1 7.91551 6.9298 20.8311 
86 1 3.80214 9.76946 12.6279 
88 1 2.45018 9.98228 13.071 
108 1 9.14507 6.01287 20.7969 
112 1 4.53128 8.56988 13.0175 
115 1 4.32555 6.34885 14.1833 
124 1 4.88132 7.78874 11.851 
125 1 2.1113 9.22548 14.2322 
126 1 6.93059 9.14453 21.7294 
128 1 7.79149 8.3565 20.8222 
139 1 1.62862 10.058 20.8906 
140 1 4.19279 7.79443 18.6126 
143 1 7.84933 6.96267 11.9695 
146 1 4.35051 8.51659 22.062 
149 1 4.99174 6.36043 20.8872 
157 1 2.44958 9.9825 19.6926 
ITEM: TIMESTEP
50
ITEM: NUMBER OF ATOMS
162
ITEM: BOX BOUNDS xy xz yz pp pp pp
-6.7755000000000001e+00 1.3552000000000000e+01 -6.7755000000000001e+00
0.0000000000000000e+00 1.1735510246683001e+01 0.0000000000000000e+00
0.0000000000000000e+00 2.2149999999999999e+01 0.0000000000000000e+00
ITEM: ATOMS id type x y z 
8 1 -2.5215 5.46687 9.81419 
87 1 2.92033 4.33469 10.6471 
90 1 2.61415 5.45398 9.71912 
109 1 -2.47802 5.48898 0.791942 
158 1 2.61469 5.45336 0.893114 
11 1 4.23149 4.31728 20.0926 
14 1 2.82855 4.20714 19.7177 
18 1 1.25244 5.84585 18.5439 
33 1 2.04403 4.31371 20.914 
43 1 4.24296 4.31361 21.5274 
47 1 3.2163 5.80615 17.8209 
52 1 4.23383 4.31637 12.6766 
76 1 2.38824 4.93762 14.2031 
85 1 4.23932 4.31807 11.2415 
89 1 3.21933 5.80288 14.9355 
91 1 0.898529 5.15115 11.8271 
102 1 2.83032 4.20577 13.0464 
105 1 1.25088 5.84799 14.2202 
114 1 2.04579 4.31282 11.849 
150 1 2.38773 4.93806 18.5613 
156 1 2.9198 4.3338 22.1149 
159 1 0.897563 5.15361 20.9362 
5 1 -4.84529 10.5185 8.64667 
9 1 -3.27336 8.87837 7.4694 
19 1 -1.75925 7.5332 10.5709 
21 1 -2.5045 8.80184 11.0098 
23 1 -3.30419 7.54825 6.8015 
25 1 -4.05501 10.3944 9.84583 
32 1 1.57369 6.3872 0.833382 
36 1 -1.82232 7.61362 9.05368 
38 1 -2.14875 6.31171 8.6271 
54 1 0.349974 8.4331 10.6823 
57 1 1.39547 7.97775 9.77734 
60 1 -1.75593 7.56897 0.0458998 
65 1 -3.3026 7.53851 3.80865 
78 1 -1.81502 7.62864 1.55142 
80 1 -2.47752 8.83089 1.9249 
84 1 -4.40613 9.78865 3.12574 
99 1 -2.92019 9.56897 0.760283 
100 1 -2.93353 6.30005 3.15843 
107 1 -4.8499 10.5176 1.96906 
110 1 -3.27291 8.87666 3.14484 
111 1 0.565288 5.95045 10.6807 
113 1 1.5734 6.38622 9.78111 
119 1 -4.05787 10.412 0.771687 
127 1 -2.13849 6.30865 1.96982 
131 1 -2.40055 6.27737 10.9859 
138 1 1.40108 7.97694 0.839866 
142 1 -2.48232 8.82203 8.69183 
145 1 -4.40953 9.79113 7.48955 
151 1 -4.94093 10.3117 11.0216 
154 1 -2.8874 9.58348 9.85457 
155 1 -2.93114 6.30544 7.43946 
12 1 2.57706 7.06388 17.1433 
17 1 0.461214 9.23335 20.8955 
24 1 -3.4637 8.3871 11.8964 
27 1 -0.255886 7.14104 21.6484 
29 1 0.564212 5.95545 22.0822 
31 1 1.28567 7.18485 17.8766 
44 1 -0.200731 7.0947 20.1352 
46 1 0.121998 8.41582 19.7191 
51 1 -0.268089 7.13004 11.1133 
53 1 2.57848 7.06443 15.6325 
56 1 1.28306 7.18529 14.8807 
63 1 -2.37153 6.28396 21.757 
66 1 -3.4238 6.76807 20.8466 
70 1 -0.201642 7.0933 12.6285 
72 1 0.459786 5.89627 13.0009 
92 1 0.917182 8.4185 14.2333 
95 1 -4.9382 10.3702 21.7236 
98 1 -4.63171 9.22913 20.7995 
104 1 0.459425 9.22924 11.8656 
116 1 -2.56727 8.77909 21.7436 
118 1 -3.53546 8.33839 20.8608 
122 1 0.122745 8.41303 13.0435 
133 1 -3.41013 6.80656 11.9387 
136 1 0.355225 8.4416 22.0842 
147 1 0.45874 5.89647 19.7631 
153 1 -4.63648 9.16055 11.96 
160 1 0.917327 8.42111 18.5308 
1 1 7.75462 4.96803 10.53 
4 1 9.14183 4.62257 11.1773 
20 1 7.75777 4.96803 9.11784 
42 1 9.43473 5.50207 7.44712 
67 1 9.90441 4.67134 0.794274 
77 1 7.71662 4.91039 0.0774784 
94 1 7.73106 4.95386 1.55196 
96 1 9.07181 4.74033 2.00069 
121 1 4.60067 5.58072 10.6815 
130 1 9.42531 5.49397 3.15999 
134 1 9.91651 4.6565 9.77938 
152 1 9.12007 4.72655 8.62933 
45 1 4.59995 5.58148 22.0815 
55 1 4.81111 5.59406 13.0759 
106 1 9.06975 4.87714 21.787 
137 1 4.80795 5.59468 19.6859 
161 2 9.36305 4.27193 12.2654 
162 3 9.28157 3.33671 12.0782 
2 1 7.31173 10.4045 9.03192 
3 1 8.94979 7.66655 6.05567 
6 1 8.49941 6.39594 6.80092 
16 1 2.39452 8.71041 0.894514 
22 1 7.00728 6.15572 8.67321 
26 1 7.20905 8.37009 7.50281 
35 1 7.28408 10.442 10.4683 
37 1 6.86448 9.16124 11.0202 
39 1 8.31101 8.92524 6.75242 
41 1 6.62798 6.94003 9.82756 
48 1 3.67193 6.3709 0.890475 
61 1 7.30357 10.4077 1.58953 
62 1 8.9563 7.66158 4.54099 
64 1 6.72516 9.12781 1.99968 
68 1 7.34189 6.92958 3.08541 
71 1 4.35896 8.50736 10.7047 
74 1 3.6112 7.81945 9.75522 
81 1 8.49213 6.40303 3.81424 
83 1 6.53893 8.34552 0.810455 
93 1 7.30576 10.4168 0.157359 
97 1 8.31507 8.9237 3.86596 
101 1 2.46041 9.85381 10.7138 
103 1 2.39025 8.71028 9.7214 
117 1 7.0024 6.14703 1.94439 
120 1 7.20973 8.3728 3.11106 
123 1 3.67158 6.37107 9.7225 
129 1 6.64375 6.93408 0.773361 
132 1 6.73154 9.12891 8.61209 
135 1 7.34921 6.9236 7.52806 
141 1 7.1711 6.18551 10.9539 
144 1 6.51745 8.35898 9.80534 
148 1 3.61459 7.81996 0.858469 
7 1 9.08543 6.2281 11.9931 
10 1 3.81216 9.81346 21.6058 
13 1 2.46183 9.85295 22.0494 
15 1 3.04174 8.31882 17.8704 
28 1 3.80388 9.77101 20.1329 
30 1 4.5327 8.57515 19.7462 
34 1 4.32628 6.35177 18.5783 
40 1 7.73533 8.39959 11.9474 
49 1 4.89122 7.78852 20.9157 
50 1 2.10944 9.22797 18.5283 
58 1 1.62611 10.0528 11.8682 
59 1 4.18803 7.79375 14.1595 
69 1 3.81275 9.81353 11.1559 