LAMMPS (3 Mar 2020)
Reading data file ...
  triclinic box = (0 0 0) to (15.77 13.6581 25.747) with tilt (7.8845 0 0)
  2 by 2 by 2 MPI processor grid
  reading atoms ...
  131 atoms
  read_data CPU = 0.00848776 secs
WARNING: Using 'neigh_modify every 1 delay 0 check yes' setting during minimization (../min.cpp:190)
WARNING: Total cutoff < 2*bond cutoff. May need to use an increased neighbor list skin. (../pair_reaxc.cpp:413)
Neighbor list info ...
  update every 1 steps, delay 0 steps, check yes
  max neighbors/atom: 2000, page size: 100000
  master list distance cutoff = 9.5
  ghost atom cutoff = 9.5
  binsize = 4.75, bins = 5 3 6
  2 neighbor lists, perpetual/occasional/extra = 2 0 0
  (1) pair reax/c, perpetual
      attributes: half, newton off, ghost
      pair build: half/bin/newtoff/ghost
      stencil: half/ghost/bin/3d/newtoff
      bin: standard
  (2) fix qeq/reax, perpetual, copy from (1)
      attributes: half, newton off, ghost
      pair build: copy
      stencil: none
      bin: none
Setting up cg style minimization ...
  Unit style    : real
  Current step  : 0
Per MPI rank memory allocation (min/avg/max) = 16.41 | 16.94 | 17.51 Mbytes
Step Temp E_pair E_mol TotEng Press 
       0            0   -19574.891            0   -19574.891    53751.717 
     246            0   -22050.457            0   -22050.457    3992.1228 
Loop time of 25.2009 on 8 procs for 246 steps with 131 atoms

99.7% CPU use with 8 MPI tasks x no OpenMP threads

Minimization stats:
  Stopping criterion = energy tolerance
  Energy initial, next-to-last, final = 
        -19574.8905936     -22050.4569797       -22050.45699
  Force two-norm initial, final = 5080.74 64.8725
  Force max component initial, final = 1201.25 19.5229
  Final line search alpha, max atom move = 0.000160056 0.00312475
  Iterations, force evaluations = 246 1586

MPI task timing breakdown:
Section |  min time  |  avg time  |  max time  |%varavg| %total
---------------------------------------------------------------
Pair    | 14.92      | 16.948     | 18.428     |  30.0 | 67.25
Neigh   | 0          | 0          | 0          |   0.0 |  0.00
Comm    | 0.18643    | 1.6679     | 3.6928     |  95.9 |  6.62
Output  | 0.0048427  | 0.0060842  | 0.0084227  |   1.4 |  0.02
Modify  | 6.5035     | 6.5047     | 6.5084     |   0.1 | 25.81
Other   |            | 0.0747     |            |       |  0.30

Nlocal:    16.375 ave 37 max 2 min
Histogram: 2 1 0 2 1 0 0 0 0 2
Nghost:    472.25 ave 514 max 423 min
Histogram: 2 0 2 0 0 0 0 0 0 4
Neighs:    1200.25 ave 2494 max 176 min
Histogram: 2 0 1 1 2 0 0 0 0 2

Total # of neighbors = 9602
Ave neighs/atom = 73.2977
Neighbor list builds = 0
Dangerous builds = 0
WARNING: Using 'neigh_modify every 1 delay 0 check yes' setting during minimization (../min.cpp:190)
WARNING: Total cutoff < 2*bond cutoff. May need to use an increased neighbor list skin. (../pair_reaxc.cpp:413)
Setting up cg style minimization ...
  Unit style    : real
  Current step  : 246
Per MPI rank memory allocation (min/avg/max) = 16.41 | 16.94 | 17.51 Mbytes
Step Temp E_pair E_mol TotEng Press 
     246            0   -22050.457            0   -22050.457    3992.1228 
     247            0   -22050.457            0   -22050.457    3992.1201 
Loop time of 0.14383 on 8 procs for 1 steps with 131 atoms

98.8% CPU use with 8 MPI tasks x no OpenMP threads

Minimization stats:
  Stopping criterion = energy tolerance
  Energy initial, next-to-last, final = 
          -22050.45699       -22050.45699     -22050.4569903
  Force two-norm initial, final = 64.8725 64.8724
  Force max component initial, final = 19.5229 19.5229
  Final line search alpha, max atom move = 0.000160068 0.00312499
  Iterations, force evaluations = 1 8

MPI task timing breakdown:
Section |  min time  |  avg time  |  max time  |%varavg| %total
---------------------------------------------------------------
Pair    | 0.089562   | 0.099344   | 0.1064     |   2.0 | 69.07
Neigh   | 0          | 0          | 0          |   0.0 |  0.00
Comm    | 0.0014984  | 0.0085813  | 0.018412   |   6.7 |  5.97
Output  | 0          | 0          | 0          |   0.0 |  0.00
Modify  | 0.035099   | 0.035106   | 0.035118   |   0.0 | 24.41
Other   |            | 0.0007983  |            |       |  0.56

Nlocal:    16.375 ave 40 max 0 min
Histogram: 1 2 1 1 1 0 0 0 1 1
Nghost:    478.125 ave 520 max 428 min
Histogram: 2 1 1 0 0 0 0 0 0 4
Neighs:    1166 ave 2632 max 0 min
Histogram: 1 1 2 0 1 1 0 0 0 2

Total # of neighbors = 9328
Ave neighs/atom = 71.2061
Neighbor list builds = 0
Dangerous builds = 0
WARNING: Using 'neigh_modify every 1 delay 0 check yes' setting during minimization (../min.cpp:190)
WARNING: Total cutoff < 2*bond cutoff. May need to use an increased neighbor list skin. (../pair_reaxc.cpp:413)
Setting up cg style minimization ...
  Unit style    : real
  Current step  : 247
WARNING: Energy due to 3 extra global DOFs will be included in minimizer energies
Per MPI rank memory allocation (min/avg/max) = 16.41 | 16.94 | 17.51 Mbytes
Step Temp E_pair E_mol TotEng Press Volume 
     247            0   -22050.457            0   -22050.457    3992.1201    5545.5955 
     276            0   -22050.956            0   -22050.956    768.53046    5547.9359 
Loop time of 1.06783 on 8 procs for 29 steps with 131 atoms

99.4% CPU use with 8 MPI tasks x no OpenMP threads

Minimization stats:
  Stopping criterion = linesearch alpha is zero
  Energy initial, next-to-last, final = 
        -22050.4569903     -22050.9560802     -22050.9560802
  Force two-norm initial, final = 647.103 141.915
  Force max component initial, final = 495.116 90.0559
  Final line search alpha, max atom move = 5.86077e-13 5.27797e-11
  Iterations, force evaluations = 29 74

MPI task timing breakdown:
Section |  min time  |  avg time  |  max time  |%varavg| %total
---------------------------------------------------------------
Pair    | 0.74091    | 0.82737    | 0.88392    |   5.6 | 77.48
Neigh   | 0          | 0          | 0          |   0.0 |  0.00
Comm    | 0.012129   | 0.068912   | 0.15543    |  19.6 |  6.45
Output  | 0.00060327 | 0.00073434 | 0.00098116 |   0.0 |  0.07
Modify  | 0.16215    | 0.16225    | 0.16249    |   0.0 | 15.19
Other   |            | 0.008572   |            |       |  0.80

Nlocal:    16.375 ave 40 max 0 min
Histogram: 1 2 1 1 1 0 0 0 1 1
Nghost:    478.125 ave 520 max 428 min
Histogram: 2 1 1 0 0 0 0 0 0 4
Neighs:    1166 ave 2632 max 0 min
Histogram: 1 1 2 0 1 1 0 0 0 2

Total # of neighbors = 9328
Ave neighs/atom = 71.2061
Neighbor list builds = 0
Dangerous builds = 0
WARNING: Using 'neigh_modify every 1 delay 0 check yes' setting during minimization (../min.cpp:190)
WARNING: Total cutoff < 2*bond cutoff. May need to use an increased neighbor list skin. (../pair_reaxc.cpp:413)
Setting up cg style minimization ...
  Unit style    : real
  Current step  : 276
Per MPI rank memory allocation (min/avg/max) = 16.41 | 16.94 | 17.51 Mbytes
Step Temp E_pair E_mol TotEng Press 
     276            0   -22050.956            0   -22050.956    768.53046 
     382            0   -22053.265            0   -22053.265    3846.4078 
Loop time of 15.2915 on 8 procs for 106 steps with 131 atoms

99.7% CPU use with 8 MPI tasks x no OpenMP threads

Minimization stats:
  Stopping criterion = energy tolerance
  Energy initial, next-to-last, final = 
        -22050.9560802     -22053.2647258     -22053.2647589
  Force two-norm initial, final = 80.9001 37.725
  Force max component initial, final = 13.1273 8.31734
  Final line search alpha, max atom move = 6.94993e-05 0.000578049
  Iterations, force evaluations = 106 965

MPI task timing breakdown:
Section |  min time  |  avg time  |  max time  |%varavg| %total
---------------------------------------------------------------
Pair    | 9.6691     | 10.651     | 11.301     |  18.5 | 69.66
Neigh   | 0          | 0          | 0          |   0.0 |  0.00
Comm    | 0.13674    | 0.79094    | 1.7738     |  68.1 |  5.17
Output  | 0.0022644  | 0.0027331  | 0.0036993  |   0.9 |  0.02
Modify  | 3.8011     | 3.8019     | 3.8042     |   0.0 | 24.86
Other   |            | 0.04453    |            |       |  0.29

Nlocal:    16.375 ave 40 max 0 min
Histogram: 1 2 1 1 1 0 0 0 1 1
Nghost:    479.625 ave 520 max 432 min
Histogram: 2 1 1 0 0 0 0 0 0 4
Neighs:    1165.38 ave 2632 max 0 min
Histogram: 1 1 2 0 1 1 0 0 0 2

Total # of neighbors = 9323
Ave neighs/atom = 71.1679
Neighbor list builds = 0
Dangerous builds = 0
WARNING: Using 'neigh_modify every 1 delay 0 check yes' setting during minimization (../min.cpp:190)
WARNING: Total cutoff < 2*bond cutoff. May need to use an increased neighbor list skin. (../pair_reaxc.cpp:413)
Setting up cg style minimization ...
  Unit style    : real
  Current step  : 382
WARNING: Energy due to 3 extra global DOFs will be included in minimizer energies
Per MPI rank memory allocation (min/avg/max) = 16.41 | 16.94 | 17.51 Mbytes
Step Temp E_pair E_mol TotEng Press Volume 
     382            0   -22053.265            0   -22053.265    3846.4078    5547.9359 
     390            0   -22053.353            0   -22053.353    58.942151    5548.7821 
Loop time of 0.354357 on 8 procs for 8 steps with 131 atoms

99.5% CPU use with 8 MPI tasks x no OpenMP threads

Minimization stats:
  Stopping criterion = energy tolerance
  Energy initial, next-to-last, final = 
        -22053.2647589     -22053.3529544     -22053.3531018
  Force two-norm initial, final = 614.97 173.678
  Force max component initial, final = 454.702 128.804
  Final line search alpha, max atom move = 1.20907e-08 1.55733e-06
  Iterations, force evaluations = 8 24

MPI task timing breakdown:
Section |  min time  |  avg time  |  max time  |%varavg| %total
---------------------------------------------------------------
Pair    | 0.24746    | 0.27553    | 0.29484    |   3.2 | 77.76
Neigh   | 0          | 0          | 0          |   0.0 |  0.00
Comm    | 0.0027391  | 0.022035   | 0.050063   |  11.5 |  6.22
Output  | 0          | 0          | 0          |   0.0 |  0.00
Modify  | 0.053911   | 0.053944   | 0.054014   |   0.0 | 15.22
Other   |            | 0.002845   |            |       |  0.80

Nlocal:    16.375 ave 39 max 0 min
Histogram: 1 1 2 1 1 0 0 0 1 1
Nghost:    479.125 ave 522 max 429 min
Histogram: 2 1 1 0 0 0 0 0 0 4
Neighs:    1168.38 ave 2574 max 0 min
Histogram: 1 1 1 1 1 1 0 0 0 2

Total # of neighbors = 9347
Ave neighs/atom = 71.3511
Neighbor list builds = 0
Dangerous builds = 0
WARNING: Using 'neigh_modify every 1 delay 0 check yes' setting during minimization (../min.cpp:190)
WARNING: Total cutoff < 2*bond cutoff. May need to use an increased neighbor list skin. (../pair_reaxc.cpp:413)
Setting up cg style minimization ...
  Unit style    : real
  Current step  : 390
Per MPI rank memory allocation (min/avg/max) = 16.41 | 16.94 | 17.51 Mbytes
Step Temp E_pair E_mol TotEng Press 
     390            0   -22053.353            0   -22053.353    58.942151 
     576            0   -22058.602            0   -22058.602    1372.9795 
Loop time of 24.5207 on 8 procs for 186 steps with 131 atoms

99.7% CPU use with 8 MPI tasks x no OpenMP threads

Minimization stats:
  Stopping criterion = energy tolerance
  Energy initial, next-to-last, final = 
        -22053.3531018     -22058.6019984     -22058.6021114
  Force two-norm initial, final = 57.5431 18.3216
  Force max component initial, final = 9.90301 5.55641
  Final line search alpha, max atom move = 0.000222009 0.00123357
  Iterations, force evaluations = 186 1556

MPI task timing breakdown:
Section |  min time  |  avg time  |  max time  |%varavg| %total
---------------------------------------------------------------
Pair    | 15.367     | 17.065     | 18.166     |  25.0 | 69.59
Neigh   | 0          | 0          | 0          |   0.0 |  0.00
Comm    | 0.23642    | 1.3447     | 3.0447     |  89.3 |  5.48
Output  | 0.0034255  | 0.0041475  | 0.0057232  |   1.1 |  0.02
Modify  | 6.034      | 6.0349     | 6.0385     |   0.1 | 24.61
Other   |            | 0.07223    |            |       |  0.29

Nlocal:    16.375 ave 39 max 0 min
Histogram: 1 1 2 1 1 0 0 0 1 1
Nghost:    479.125 ave 522 max 429 min
Histogram: 2 1 1 0 0 0 0 0 0 4
Neighs:    1168.38 ave 2573 max 0 min
Histogram: 1 1 1 1 1 1 0 0 0 2

Total # of neighbors = 9347
Ave neighs/atom = 71.3511
Neighbor list builds = 0
Dangerous builds = 0
WARNING: Total cutoff < 2*bond cutoff. May need to use an increased neighbor list skin. (../pair_reaxc.cpp:413)
Setting up Verlet run ...
  Unit style    : real
  Current step  : 0
  Time step     : 0.25
Per MPI rank memory allocation (min/avg/max) = 15.23 | 15.7 | 16.4 Mbytes
Step Temp TotEng KinEng PotEng Press 
       0          300   -21942.351    116.25159   -22058.602    2330.6896 
     200    244.88277   -21900.438    94.893373   -21995.331    2.1831368 
     400    292.74586   -21844.337    113.44057   -21957.777    3521.8301 
     600    297.18043   -21829.739    115.15899   -21944.898   -20219.098 
     800    281.69801   -21855.384    109.15947   -21964.544   -15691.232 
    1000    306.30078   -21835.145    118.69318   -21953.839   -2764.9834 
    1200    300.82264   -21839.635    116.57037   -21956.206   -6675.7316 
    1400    261.86992   -21856.256    101.47598   -21957.732    13260.319 
    1600    297.79133   -21823.891    115.39572   -21939.286    2372.0936 
    1800    303.63812   -21841.719    117.66138    -21959.38    11884.859 
    2000    261.85081   -21858.491    101.46858    -21959.96   -235.48037 
    2200    329.93769   -21841.306     127.8526   -21969.159   -8736.6156 
    2400    339.83996   -21837.812    131.68979   -21969.501   -8471.6991 
    2600    281.10021   -21857.231    108.92782   -21966.158   -6313.2115 
    2800    319.39438   -21835.316    123.76702   -21959.083     -6513.13 
    3000    307.13938   -21837.119    119.01814   -21956.137   -5538.0033 
    3200    277.88772    -21859.74    107.68297   -21967.423   -13608.206 
    3400    317.68133   -21837.576     123.1032   -21960.679    1826.5587 
    3600    268.60512   -21865.014    104.08591     -21969.1    5624.2288 
    3800    290.94597   -21853.107    112.74311    -21965.85    5263.4555 
    4000    316.35636    -21832.87    122.58977    -21955.46    15108.291 
    4200    271.34267   -21857.935    105.14673   -21963.082    15572.945 
    4400    280.66579   -21850.997    108.75948   -21959.756   -4835.8641 
    4600    331.70611    -21836.51    128.53788   -21965.048    5234.9473 
    4800    301.35409   -21846.153    116.77631   -21962.929    8480.8621 
    5000    312.58474   -21827.417    121.12825   -21948.545   -20970.394 
    5200    302.81263    -21828.98     117.3415   -21946.321    14081.485 
    5400    307.53877   -21850.873    119.17291   -21970.046    18507.819 
    5600    365.17337   -21825.866    141.50662   -21967.373   -527.33884 
    5800    311.48934   -21839.172    120.70377   -21959.876    7211.8438 
    6000    279.34179   -21845.101    108.24643   -21953.348   -15672.687 
    6200    338.53949   -21825.319    131.18585   -21956.505   -21181.121 
    6400     259.3736   -21858.904    100.50865   -21959.413   -6894.2028 
    6600    330.12571   -21843.071    127.92546   -21970.997    16680.506 
    6800    307.46964   -21847.104    119.14612    -21966.25    6111.7687 
    7000    282.46326   -21873.114    109.45601    -21982.57    9796.4823 
    7200    303.07588   -21851.257    117.44351   -21968.701    1919.2388 
    7400    300.92956   -21867.198     116.6118    -21983.81    20804.283 
    7600    277.77055    -21864.95    107.63756   -21972.588   -951.34539 
    7800    327.35672    -21849.93    126.85246   -21976.783   -17751.724 
    8000    285.38299   -21864.112    110.58742   -21974.699   -7167.4166 
    8200    264.17937   -21889.286    102.37091   -21991.657    20680.539 
    8400    293.46447   -21861.918    113.71904   -21975.637    -35502.34 
    8600    331.12678   -21844.785    128.31338   -21973.098   -10838.146 
    8800    271.43036   -21871.647     105.1807   -21976.828   -9586.7151 
    9000    275.68874   -21867.391    106.83085   -21974.222    3416.1466 
    9200     317.5228   -21855.159    123.04177     -21978.2    16003.995 
    9400    301.69339   -21863.535    116.90779   -21980.442    5004.4215 
    9600    320.76631   -21839.205    124.29865   -21963.504    6714.0584 
    9800    322.90056   -21841.056    125.12568   -21966.181    6830.4887 
   10000    313.02193    -21860.59    121.29766   -21981.888   -5492.5537 
   10200    291.84252    -21860.45    113.09052    -21973.54   -28691.153 
   10400    329.24847   -21837.599    127.58553   -21965.184   -1181.0592 
   10600    299.32119   -21865.295    115.98855   -21981.283    2892.4604 
   10800    324.82039   -21852.994    125.86962   -21978.864   -18079.445 
   11000    365.75836   -21818.172     141.7333   -21959.905    -458.2072 
   11200    313.00327    -21852.99    121.29043   -21974.281    7788.3602 
   11400    274.67743   -21872.879    106.43896   -21979.318    2390.3811 
   11600    308.20986   -21857.668    119.43295   -21977.101   -16240.948 
   11800    325.84695   -21845.203    126.26742   -21971.471    10341.579 
   12000    292.43177   -21857.812    113.31886   -21971.131    1160.7164 
   12200    303.67398   -21862.707    117.67528   -21980.382   -3520.9555 
   12400    249.03677   -21888.961    96.503069   -21985.465    14759.038 
   12600    300.55138   -21859.224    116.46525   -21975.689   -3678.2283 
   12800    305.83709    -21863.99     118.5135   -21982.504    178.51774 
   13000    299.29296   -21861.161    115.97761   -21977.139    -10013.67 
   13200    323.69818   -21844.172    125.43476   -21969.607        -6713 
   13400    296.38076   -21872.365    114.84912   -21987.214     2784.243 
   13600    322.51753   -21862.693    124.97725    -21987.67   -12403.879 
   13800    332.53646   -21836.013    128.85964   -21964.873    33527.975 
   14000    295.54845   -21860.765    114.52659   -21975.291    -556.0534 
   14200    286.09546   -21865.239    110.86351   -21976.103    7686.3474 
   14400    292.48332   -21844.558    113.33884   -21957.897    13710.348 
   14600     271.1107   -21872.288    105.05683   -21977.345     8637.832 
   14800    279.40627     -21867.8    108.27141   -21976.072   -3034.9559 
   15000    349.08599    -21847.13    135.27267   -21982.403    4310.4989 
   15200    276.79075   -21876.259    107.25789   -21983.517    13538.859 
   15400    300.40342   -21866.286    116.40792   -21982.694   -13244.532 
   15600    287.95126   -21852.248    111.58264    -21963.83    2105.3932 
   15800     263.0928   -21880.596    101.94986   -21982.545   -3695.7889 
   16000    282.91948   -21872.627     109.6328   -21982.259   -4518.5555 
   16200    320.81192   -21854.514    124.31632    -21978.83   -7126.2365 
   16400    287.64324   -21868.811    111.46328   -21980.274    15772.256 
   16600    251.29463   -21873.264    97.378001   -21970.642    7407.2109 
   16800    322.71564   -21850.909    125.05402   -21975.963   -4566.6885 
   17000    268.63742    -21874.25    104.09843   -21978.348    1745.5713 
   17200    295.34142   -21863.958    114.44637   -21978.405   -3686.2865 
   17400    299.99817   -21846.388    116.25088   -21962.639    9451.0145 
   17600    333.77731   -21853.887    129.34048   -21983.228   -8935.2869 
   17800    270.63907   -21874.046    104.87408    -21978.92   -12539.638 
   18000    338.64273   -21844.243    131.22585   -21975.469    15026.294 
   18200    287.59922   -21863.418    111.44622   -21974.864   -7325.6274 
   18400    291.04988   -21866.844    112.78337   -21979.627   -4035.3857 
   18600    268.58631   -21856.872    104.07862   -21960.951   -22073.526 
   18800    312.29675   -21858.923    121.01665    -21979.94    -9809.661 
   19000    278.69256   -21873.719    107.99484   -21981.714   -11583.287 
   19200    304.52518    -21865.33    118.00512   -21983.336    14844.073 
   19400    325.32317    -21848.93    126.06445   -21974.994   -12494.696 
   19600    278.42316   -21877.147    107.89045   -21985.038   -3816.0442 
   19800    285.10682    -21868.43     110.4804    -21978.91   -19337.225 
   20000    319.12706   -21851.709    123.66343   -21975.372    9113.6895 
   20200    314.10527   -21873.321    121.71746   -21995.038    6306.2214 
   20400    274.13336   -21876.254    106.22813   -21982.482   -15397.344 
   20600    292.29217   -21854.154    113.26477   -21967.419   -7184.7997 
   20800    259.10459   -21875.905     100.4044    -21976.31    5490.7527 
   21000     268.8894   -21886.389    104.19607   -21990.585   -2964.0807 
   21200    299.12127   -21853.912    115.91108   -21969.823    4666.8163 
   21400     288.5873    -21864.34    111.82911   -21976.169    4910.0094 
   21600    257.11851   -21883.297    99.634788   -21982.931   -2543.8264 
   21800    303.01886   -21864.363    117.42141   -21981.785    9618.9433 
   22000    296.58655    -21851.99    114.92886   -21966.919    18117.201 
   22200    288.89375   -21878.111    111.94786   -21990.059   -16300.526 
   22400    292.11849   -21862.132    113.19747   -21975.329    7351.7341 
   22600    286.53723   -21862.035     111.0347    -21973.07    4512.5347 
   22800     306.4316   -21859.257    118.74387   -21978.001   -13029.953 
   23000    327.52831   -21838.087    126.91896   -21965.006   -11036.564 
   23200    312.48712   -21866.329    121.09042    -21987.42    -1834.838 
   23400    333.06855   -21856.771    129.06583   -21985.837    12988.121 
   23600    350.38255    -21834.21     135.7751   -21969.985    10153.052 
   23800    285.95194    -21865.98     110.8079   -21976.788   -6091.0589 
   24000    276.20115   -21859.805    107.02941   -21966.834    4470.9522 
   24200    304.89078   -21842.846    118.14679   -21960.992   -19902.814 
   24400    296.72612   -21853.076    114.98295   -21968.059   -5632.7542 
   24600    296.88465   -21863.093    115.04438   -21978.138   -1239.8673 
   24800    268.43312   -21888.531    104.01926    -21992.55    1466.7717 
   25000    273.87164   -21864.688    106.12671   -21970.815    10243.436 
   25200    299.68598   -21856.511    116.12991   -21972.641     11716.21 
   25400    315.56236   -21841.448    122.28209    -21963.73    10100.468 
   25600    306.13728   -21854.667    118.62982   -21973.296    3594.7354 
   25800    278.78361   -21865.786    108.03013   -21973.816   -2967.9447 
   26000    333.27822   -21837.358    129.14708   -21966.505    5052.8134 
   26200    294.61307   -21859.529    114.16413   -21973.693   -3853.1395 
   26400    284.31531   -21863.944    110.17369   -21974.118   -1923.2827 
   26600    300.20114   -21841.257    116.32953   -21957.586   -6229.6701 
   26800    276.85044    -21865.27    107.28101   -21972.551   -833.46616 
   27000    276.94858    -21870.42    107.31905   -21977.739   -6542.2991 
   27200     313.2052   -21852.709    121.36868   -21974.078   -1089.8541 
   27400    315.29764   -21850.788    122.17951   -21972.968    15423.351 
   27600    262.02331   -21872.886    101.53542   -21974.421   -2055.6589 
   27800    326.99398   -21845.878     126.7119    -21972.59   -636.93415 
   28000    302.59935   -21858.448    117.25886   -21975.707    7450.0239 
   28200      298.003     -21864.3    115.47774   -21979.778   -10542.824 
   28400     333.4639   -21852.258    129.21903   -21981.477   -2441.7077 
   28600    284.69245   -21856.266    110.31984   -21966.586    2508.5736 
   28800    310.31414   -21843.674    120.24838   -21963.922   -10885.624 
   29000    302.13682   -21843.035    117.07962   -21960.115    31765.894 
   29200    309.86401   -21862.288    120.07395   -21982.362   -8885.0878 
   29400    316.89802   -21846.147    122.79966   -21968.947    15246.308 
   29600    312.39711   -21838.125    121.05554   -21959.181    3427.9778 
   29800    280.30932   -21868.806    108.62135   -21977.427   -2918.7338 
   30000    281.87391   -21861.955    109.22764   -21971.183    10364.657 
   30200    303.12357   -21842.191    117.46199   -21959.653    7081.2945 
   30400    271.56461   -21863.174    105.23273   -21968.406   -9549.8112 
   30600     303.3584   -21852.398    117.55299   -21969.951    5228.9739 
   30800    312.39503   -21848.135    121.05473    -21969.19   -20794.421 
   31000    295.99412    -21867.32    114.69929    -21982.02   -4625.8931 
   31200    305.47368   -21853.821    118.37267   -21972.194    25719.253 
   31400    330.10524   -21847.075    127.91753   -21974.993   -17223.479 
   31600    296.67944   -21866.522    114.96486   -21981.487    740.64376 
   31800    347.58186   -21839.457    134.68982   -21974.147    2442.0445 
   32000    328.59257    -21850.17    127.33136   -21977.501    25177.354 
   32200    288.27894   -21858.865    111.70962   -21970.574    5884.0389 
   32400    309.71409   -21828.564    120.01585    -21948.58   -10908.089 
   32600     296.7834   -21842.727    115.00514   -21957.732    16405.288 
   32800    296.01362   -21859.711    114.70685   -21974.417   -3820.2623 
   33000     303.6877   -21845.945     117.6806   -21963.625   -30730.868 
   33200    320.69925   -21851.573    124.27266   -21975.846   -21133.284 
   33400     273.5291   -21871.201    105.99398   -21977.195    9282.8019 
   33600    287.05724   -21847.071     111.2362   -21958.307    -17687.74 
   33800    315.65157   -21854.341    122.31666   -21976.658   -13251.773 
   34000    251.89938   -21875.752    97.612347   -21973.364    24174.147 
   34200    317.39641   -21856.031    122.99279   -21979.024   -9560.7327 
   34400    283.39837   -21850.618    109.81837   -21960.436    -4978.316 
   34600    285.26929   -21841.146    110.54336   -21951.689   -4746.1007 
   34800    320.66019   -21847.874    124.25753   -21972.132   -2983.8438 
   35000    301.60382   -21858.561    116.87308   -21975.435   -11176.335 
   35200    312.37839   -21839.784    121.04828   -21960.832   -22889.829 
   35400     311.1716   -21860.681    120.58064   -21981.262    23832.212 
   35600    305.27902   -21855.898    118.29724   -21974.195    30986.257 
   35800    274.20866   -21845.075    106.25731   -21951.332   -14859.408 
   36000     301.8622   -21852.041    116.97321   -21969.014    11387.468 
   36200    290.54775   -21852.573    112.58879   -21965.162   -2074.2713 
   36400    351.42198   -21823.549    136.17788   -21959.727    -14564.47 
   36600    298.69705   -21851.572    115.74669   -21967.319   -4368.8909 
   36800      286.979   -21850.994    111.20589     -21962.2   -11211.663 
   37000    345.22454   -21817.136    133.77634   -21950.913    49882.008 
   37200    287.70865   -21848.458    111.48863   -21959.947    2765.8416 
   37400    317.80874   -21851.081    123.15257   -21974.234    5102.3358 
   37600    309.03587   -21866.962    119.75304   -21986.715    5973.7539 
   37800    279.56094   -21876.861    108.33135   -21985.192   -25948.306 
   38000    332.25218   -21845.653    128.74948   -21974.402    31177.753 
   38200    288.04584   -21868.143    111.61929   -21979.762   -3674.5781 
   38400    330.99726   -21868.878    128.26319   -21997.141     27804.61 
   38600     373.2503   -21839.122    144.63647   -21983.758    23355.552 
   38800    307.66058   -21863.212    119.22011   -21982.433    23436.295 
   39000    290.19232   -21874.943    112.45106   -21987.394   -3503.8523 
   39200    326.42158   -21855.997    126.49009   -21982.487    4785.9787 
   39400    271.47316   -21875.281    105.19729   -21980.478    5823.0672 
   39600    267.11146   -21878.637    103.50711   -21982.144    7732.9909 
   39800    432.60845   -21888.746    167.63807   -22056.384    9473.3265 
   40000    295.50308   -21970.308    114.50901   -22084.817   -5207.2274 
   40200    297.77513   -21980.246    115.38944   -22095.636    443.32514 
   40400    332.82562   -21953.622    128.97169   -22082.594    375.92415 
   40600    298.59405    -21972.77    115.70678   -22088.477   -27688.117 
   40800     248.1244    -21976.19    96.149522    -22072.34   -24245.469 
   41000    289.74727   -21958.188     112.2786   -22070.466   -3195.8891 
   41200    290.71886   -21957.004     112.6551   -22069.659   -12760.869 
   41400    262.46144   -21973.872     101.7052   -22075.577    12535.184 
   41600    277.92678   -21899.281     107.6981   -22006.979   -9185.9102 
   41800    321.67691   -21882.534    124.65151   -22007.186    1651.9759 
   42000     311.4058    -21876.42     120.6714   -21997.091    687.88043 
   42200     318.8404   -21881.904    123.55235   -22005.456   -3701.9659 
   42400    282.19181   -21888.319    109.35082    -21997.67   -18624.468 
   42600    353.95938    -21864.16    137.16114   -22001.322    8854.8253 
   42800    273.86819   -21892.144    106.12538    -21998.27   -4351.2848 
   43000    293.66713   -21886.921    113.79757   -22000.719    759.24206 
   43200    291.53549   -21862.839    112.97155    -21975.81   -6527.7113 
   43400     302.9733   -21878.435    117.40376   -21995.839   -1033.8276 
   43600    265.82593   -21894.999    103.00896   -21998.008    12392.424 
   43800    344.57479   -21861.419    133.52456   -21994.943   -748.65684 
   44000    308.63176   -21882.895    119.59644   -22002.492    1249.7623 
   44200    308.57149   -21884.953    119.57309   -22004.526   -1402.2355 
   44400    531.22565   -21866.756    205.85276   -22072.609   -3855.7933 
   44600    276.98854   -21960.681    107.33453   -22068.015   -3439.3212 
   44800    297.75928   -21990.364     115.3833   -22105.747    82.850866 
   45000     334.4429   -21969.398     129.5984   -22098.996    6930.8298 
   45200    317.73757   -21969.505    123.12499    -22092.63    14108.128 
   45400     297.9615   -21987.654    115.46166   -22103.116    1609.9209 
   45600    300.44507   -21941.715    116.42406   -22058.139    7206.4998 
   45800    318.55932   -21963.775    123.44343   -22087.219   -11484.413 
   46000    264.63174   -21978.898     102.5462   -22081.444    14596.481 
   46200    291.02272   -21936.327    112.77285     -22049.1   -19185.761 
   46400    334.27967   -21772.717    129.53515   -21902.252    6137.7274 
   46600    250.52623   -21824.101    97.080245   -21921.181   -3018.1399 
   46800    275.94518   -21793.933    106.93022   -21900.863    9285.7947 
   47000     313.6882    -21771.41    121.55584   -21892.966    3252.9484 
   47200    296.47966   -21795.529    114.88744   -21910.416    621.53801 
   47400    325.81797   -21774.366    126.25619   -21900.623     11717.29 
   47600    308.74201   -21788.595    119.63917   -21908.234    17373.531 
   47800    322.22357   -21871.472    124.86334   -21996.336    18176.526 
   48000    527.46794   -21716.295    204.39662   -21920.691    17008.403 
   48200    276.24852   -21821.996    107.04777   -21929.044   -3693.0974 
   48400    315.55832   -21842.782    122.28052   -21965.063   -15720.258 
   48600     298.3964   -21877.676    115.63019   -21993.306    -3727.563 
   48800    286.22661   -21877.012    110.91433   -21987.926   -1123.0319 
   49000    286.98368   -21865.156     111.2077   -21976.364    4258.5817 
   49200    345.11083   -21878.282    133.73228   -22012.014    4549.1465 
   49400    238.51033   -21879.562    92.424017   -21971.986   -10077.244 
   49600    296.79969   -21866.921    115.01146   -21981.932    11457.153 
   49800    267.87514   -21884.406    103.80304   -21988.209     41.23751 
   50000    298.78048   -21863.429    115.77902   -21979.208   -11573.896 
   50200    281.24567   -21870.386    108.98419    -21979.37     38.09476 
   50400    273.95777   -21882.772    106.16009   -21988.932    3905.4517 
   50600    311.66035   -21866.611    120.77004   -21987.381   -1613.9774 
   50800    302.96043   -21872.372    117.39877   -21989.771    -9515.962 
   51000     287.9121   -21891.019    111.56747   -22002.586    -14351.58 
   51200    283.24664   -21880.076    109.75957   -21989.836    35929.622 
   51400    302.25684   -21875.973    117.12613   -21993.099    38401.856 
   51600     297.7352   -21858.095    115.37397   -21973.469   -7170.3557 
   51800    328.47623   -21868.096    127.28628   -21995.382    34356.497 
   52000    261.84035   -21878.301    101.46452   -21979.765    6566.8396 
   52200    353.20889   -21857.741    136.87032   -21994.611    6901.0305 
   52400    290.23988   -21884.296     112.4695   -21996.765   -1404.0776 
   52600    268.85652   -21880.471    104.18333   -21984.654    -2534.037 
   52800    299.15693   -21866.022     115.9249   -21981.947   -18859.927 
   53000    304.58511   -21875.451    118.02835    -21993.48    14223.407 
   53200    287.36748   -21888.654    111.35642    -22000.01   -17317.956 
   53400    331.23697   -21870.977    128.35608   -21999.333      14722.1 
   53600    288.18279   -21896.086    111.67236   -22007.758   -11535.375 
   53800    318.30847   -21890.407    123.34622   -22013.754    31832.478 
   54000    276.76874   -21896.966    107.24936   -22004.216    33160.723 
   54200    300.69161    -21907.64    116.51959    -22024.16   -23667.481 
   54400    341.27346   -21871.505    132.24528   -22003.751    -9483.625 
   54600    282.18517   -21878.364    109.34825   -21987.712    546.19368 
   54800    256.92309   -21889.691     99.55906   -21989.251   -21675.009 
   55000    306.19917   -21907.554     118.6538   -22026.207   -22400.247 
   55200    241.42638   -21898.088    93.554001   -21991.642    7277.2592 
   55400    298.86451   -21878.305    115.81159   -21994.117   -13050.049 
   55600     316.5202   -21885.615    122.65326   -22008.268   -18046.048 
   55800    303.07479   -21870.101    117.44309   -21987.545   -26405.623 
   56000    328.46345   -21883.358    127.28133   -22010.639   -290.20187 
   56200    317.80124   -21884.763    123.14967   -22007.913    5536.9171 
   56400    288.47061   -21895.177    111.78389   -22006.961    1777.4609 
   56600    315.08544   -21871.973    122.09728    -21994.07   -16817.668 
   56800    315.29866   -21872.221     122.1799   -21994.401    11077.633 
   57000    313.26005   -21903.848    121.38993   -22025.238   -543.04262 
   57200    299.45074   -21858.864    116.03875   -21974.903     5136.983 
   57400    379.30977   -21857.201    146.98455   -22004.185    4661.3951 
   57600    263.67092   -21896.865    102.17388   -21999.039   -7046.9624 
   57800    264.24823    -21889.66    102.39759   -21992.058    7506.0048 
   58000    335.15208   -21882.633    129.87321   -22012.507    2850.0756 
   58200    277.40167   -21894.388    107.49462   -22001.883    -11611.41 
   58400    307.94895   -21894.781    119.33185   -22014.113    12898.917 
   58600    321.37244   -21875.414    124.53353   -21999.947    -21028.69 
   58800    232.24113   -21897.682    89.994669   -21987.676    -9300.557 
   59000    275.63685   -21890.704    106.81074   -21997.515    16971.404 
   59200    302.87616   -21880.116    117.36612   -21997.482    8979.5103 
   59400    320.73614   -21895.226    124.28696   -22019.513    4709.5157 
   59600    349.26949    -21877.33    135.34378   -22012.674   -17015.007 
   59800    339.36878   -21884.885     131.5072   -22016.392   -16286.287 
   60000    265.10547   -21913.092    102.72978   -22015.822   -8944.6834 
   60200    323.20108   -21889.568    125.24213    -22014.81   -3082.9368 
   60400    306.22693   -21895.113    118.66456   -22013.778   -13326.768 
   60600    250.13964   -21921.031    96.930438   -22017.961    8493.1832 
   60800    405.35033   -21861.929    157.07541   -22019.004   -16461.476 
   61000    293.12007   -21838.708    113.58558   -21952.293    1342.6987 
   61200     292.2993   -21857.557    113.26753   -21970.824    4766.8126 
   61400    327.69751   -21841.706    126.98452    -21968.69    19552.037 
   61600    313.29578   -21872.434    121.40378   -21993.838   -28297.809 
   61800     258.6739   -21884.339    100.23751   -21984.576   -11515.442 
   62000    266.91749   -21922.222    103.43194   -22025.654    2611.4249 
   62200    338.32134   -21884.332    131.10132   -22015.433    14892.998 
   62400    329.57699   -21880.917    127.71283    -22008.63   -12207.706 
   62600    280.37735   -21852.783    108.64771    -21961.43   -25744.571 
   62800     263.8523   -21899.723    102.24417   -22001.968   -3543.0261 
   63000    328.61083   -21906.432    127.33844    -22033.77     10956.16 
   63200    329.64565   -21873.637    127.73944   -22001.377    32153.113 
   63400    284.57055     -21871.2     110.2726   -21981.473    16130.299 
   63600    255.54103   -21890.671    99.023506   -21989.694    4154.6169 
   63800     253.9396   -21873.037    98.402942    -21971.44   -6567.1714 
   64000    317.74503   -21851.764    123.12789   -21974.892   -11347.593 
   64200    314.06336   -21862.683    121.70122   -21984.384   -16845.768 
   64400    301.37002   -21873.383    116.78248   -21990.165    815.31808 
   64600    318.03545   -21855.868    123.24042   -21979.108   -8348.6556 
   64800    316.88727   -21854.895     122.7955   -21977.691   -2084.9046 
   65000    302.64966   -21866.371    117.27835   -21983.649    15850.117 
   65200    283.10937   -21865.199    109.70638   -21974.905    3317.6174 
   65400    324.66216   -21845.635    125.80831   -21971.443   -2622.1041 
   65600    273.71259   -21865.269    106.06508   -21971.334    8072.9116 
   65800    263.62841   -21894.025    102.15741   -21996.182    -5455.321 
   66000    277.92216   -21866.471    107.69631   -21974.167   -7293.9872 
   66200    304.35754   -21850.831    117.94016   -21968.771   -15207.202 
   66400    309.65026   -21866.449    119.99112    -21986.44   -18339.269 
   66600    289.83558   -21873.023    112.31283   -21985.336    1772.9544 
   66800    295.71112   -21847.454    114.58963   -21962.043    24832.228 
   67000    293.44364   -21868.856    113.71097   -21982.567    5741.5781 
   67200    286.57698   -21861.738     111.0501   -21972.788    9840.5152 
   67400    316.75961   -21839.124    122.74603    -21961.87   -10472.834 
   67600    283.90722   -21865.002    110.01556   -21975.018   -26123.589 
   67800    316.35602   -21854.073    122.58964   -21976.663    -11279.67 
   68000    315.35011   -21834.296    122.19984   -21956.496    5439.4089 
   68200    307.28302   -21858.804     119.0738   -21977.877    16991.108 
   68400    291.25425   -21865.844    112.86257   -21978.706   -16002.169 
   68600     276.0636    -21884.96    106.97611   -21991.937   -11179.819 
   68800    287.75184   -21854.428    111.50537   -21965.933    18166.791 
   69000    327.35507   -21861.389    126.85183    -21988.24     17692.19 
   69200    265.32034   -21884.638    102.81304   -21987.451    6260.7119 
   69400    284.62578   -21871.458      110.294   -21981.752     15087.11 
   69600    317.82197   -21851.645     123.1577   -21974.802    12814.086 
   69800    245.93889   -21872.805    95.302626   -21968.108    -10927.25 
   70000    308.46256   -21860.306    119.53088   -21979.837   -32421.297 
   70200     300.4198   -21847.997    116.41427   -21964.411    3222.0989 
   70400    291.72289   -21869.012    113.04417   -21982.057    25529.442 
   70600    319.16971   -21842.957    123.67996   -21966.637    1991.7432 
   70800    303.07918    -21853.83    117.44479   -21971.275   -28949.054 
   71000     272.1199   -21870.166    105.44791   -21975.614   -6707.9196 
   71200    308.42632   -21841.363    119.51684    -21960.88   -14560.924 
   71400    299.56274    -21846.13    116.08215   -21962.212   -11080.023 
   71600    302.53343   -21866.305    117.23331   -21983.538   -8561.8847 
   71800    324.73997     -21852.9    125.83846   -21978.739     11992.09 
   72000    339.18423   -21847.541    131.43569   -21978.976    1198.3119 
   72200    267.80377     -21873.6    103.77538   -21977.375    18509.881 
   72400    284.82296   -21863.952    110.37041   -21974.323    18888.744 
   72600    292.24021   -21854.532    113.24463   -21967.777    2773.4311 
   72800    321.43989   -21860.759    124.55966   -21985.318     -258.095 
   73000    294.63809   -21855.396    114.17382    -21969.57    4461.7085 
   73200    336.15543   -21821.871    130.26201   -21952.133   -24841.967 
   73400    326.07125   -21854.586    126.35434   -21980.941    13529.883 
   73600    270.86749   -21874.622    104.96259   -21979.585    17471.495 
   73800    306.20979   -21856.296    118.65792   -21974.954    16909.215 
   74000    314.97622   -21849.781    122.05496   -21971.836   -28941.979 
   74200     296.8372   -21862.124    115.02599    -21977.15    5450.0827 
   74400    283.22337    -21870.96    109.75056    -21980.71    -3277.467 
   74600    288.29865   -21882.181    111.71726   -21993.899    18566.729 
   74800     324.9225   -21859.701    125.90919    -21985.61   -21503.243 
   75000    293.45733   -21864.915    113.71627   -21978.631   -10049.437 
   75200     292.8959    -21877.74    113.49871   -21991.239   -7027.9756 
   75400    333.92054   -21849.827    129.39598   -21979.223    1942.5046 
   75600    301.02124   -21859.845    116.64733   -21976.492   -4311.0729 
   75800    287.68609   -21882.621    111.47989   -21994.101   -8762.7748 
   76000    324.90829   -21858.892    125.90369   -21984.795   -2596.4702 
   76200    274.31552   -21860.049    106.29872   -21966.348    18144.332 
   76400    282.36932   -21880.457    109.41961   -21989.877    12268.443 
   76600    316.23778   -21859.217    122.54382   -21981.761     785.9936 
   76800    301.79091   -21855.003    116.94558   -21971.948   -5580.5343 
   77000    279.16044   -21881.713    108.17615   -21989.889     11553.07 
   77200    311.16794   -21856.158    120.57923   -21976.737   -241.38363 
   77400    270.48979   -21858.603    104.81623   -21963.419   -1578.1758 
   77600    286.90894   -21870.223    111.17874   -21981.402   -10886.435 
   77800    312.54789   -21848.182    121.11396   -21969.296   -789.87034 
   78000    309.70349   -21858.446    120.01174   -21978.457    6294.6293 
   78200    273.25822   -21871.343    105.88901   -21977.232     11307.53 
   78400    297.99877   -21862.807    115.47611   -21978.283   -27374.967 
   78600    301.57449   -21861.498    116.86172    -21978.36   -4318.3988 
   78800    309.43976   -21851.157    119.90955   -21971.067   -17324.049 
   79000    301.65272   -21867.718    116.89203    -21984.61    34869.462 
   79200    298.47259   -21868.465    115.65971   -21984.125    18003.275 
   79400     310.8078   -21844.813    120.43967   -21965.252   -11999.952 
   79600    296.28068   -21858.589    114.81034   -21973.399   -14021.162 
   79800    287.30611   -21873.528    111.33264   -21984.861   -5662.8885 
   80000    325.57512   -21845.879    126.16209   -21972.041   -8334.2458 
   80200    314.54906   -21855.528    121.88943   -21977.417   -653.12993 
   80400    322.29257   -21863.524    124.89008   -21988.414    6111.4425 
   80600    282.87662   -21857.505    109.61619   -21967.121    484.87051 
   80800    308.55004   -21840.896    119.56478   -21960.461    50696.371 
   81000     264.3735   -21868.638    102.44613   -21971.085    10530.645 
   81200    314.02349     -21863.5    121.68577   -21985.186   -23363.424 
   81400    322.90746   -21840.049    125.12835   -21965.178    14909.235 
   81600    300.40913   -21855.655    116.41013   -21972.065    4001.6819 
   81800    295.23315   -21870.801    114.40441   -21985.205   -4940.9682 
   82000    259.01753   -21888.679    100.37067    -21989.05    949.44373 
   82200    286.00164   -21857.368    110.82715   -21968.195   -11796.091 
   82400    317.69101   -21852.814    123.10695   -21975.921    10931.644 
   82600      288.405   -21880.449    111.75847   -21992.208    2.3166319 
   82800    284.26959   -21862.601    110.15598   -21972.757    10255.633 
   83000    316.93647   -21858.431    122.81456   -21981.246   -13648.828 
   83200     274.8829   -21878.009    106.51858   -21984.528    220.46544 
   83400    296.73966   -21864.198    114.98819   -21979.186   -11473.569 
   83600    290.99755   -21854.053    112.76309   -21966.816    19050.572 
   83800    256.94394   -21876.363    99.567141    -21975.93   -2585.1011 
   84000    277.76738    -21882.95    107.63633   -21990.587   -18125.598 
   84200    300.50935   -21855.004    116.44897   -21971.453   -23415.029 
   84400    296.74347   -21864.892    114.98967   -21979.881   -6866.3691 
   84600    304.55821   -21876.805    118.01792   -21994.823   -17774.093 
   84800    287.94431   -21860.789    111.57995   -21972.369   -1507.8196 
   85000    277.03915    -21858.61    107.35414   -21965.964      -3189.9 
   85200    337.91818   -21848.159    130.94509   -21979.104    760.25476 
   85400     281.4128    -21869.78    109.04895   -21978.829    18465.318 
   85600    290.50115   -21857.056    112.57074   -21969.627   -39854.868 
   85800    310.89492   -21848.092    120.47343   -21968.565    11656.155 
   86000    272.48126   -21866.253    105.58794    -21971.84   -5087.4293 
   86200    298.60439   -21857.158    115.71078   -21972.869   -12372.573 
   86400    326.20032   -21833.359    126.40436   -21959.764    13244.169 
   86600    303.38947   -21861.351    117.56503   -21978.916    32738.142 
   86800    298.48554   -21870.751    115.66473   -21986.415    27.708327 
   87000    287.95964    -21875.71    111.58589   -21987.296   -3186.8591 
   87200    317.89288    -21848.29    123.18518   -21971.475    55.565964 
   87400    265.98751   -21865.284    103.07157   -21968.356   -3183.6945 
   87600    314.44549   -21862.585     121.8493   -21984.435    17495.518 
   87800     341.6871   -21843.358    132.40556   -21975.763   -2615.9486 
   88000    273.83232   -21868.783    106.11148   -21974.894    9462.4586 
   88200    302.34346   -21867.091     117.1597   -21984.251   -11875.304 
   88400    289.85196    -21862.15    112.31917   -21974.469    -14429.65 
   88600    296.85414    -21851.66    115.03256   -21966.693    9693.4438 
   88800    269.56363    -21876.86    104.45734   -21981.317    19291.613 
   89000    326.24611   -21856.184     126.4221   -21982.606    10562.355 
   89200    294.68416   -21859.525    114.19168   -21973.717    9860.5636 
   89400    280.85865   -21872.622    108.83422   -21981.456    4047.8499 
   89600    280.58047   -21886.421    108.72642   -21995.147    15616.188 
   89800    306.44417   -21850.871    118.74874    -21969.62   -3057.0728 
   90000    283.23985   -21868.145    109.75695   -21977.902   -2352.6329 
   90200    290.35239   -21858.674    112.51309   -21971.187   -13184.377 
   90400    323.94023    -21850.95    125.52856   -21976.478    -17507.77 
   90600    285.25554   -21870.268    110.53804   -21980.806     7157.578 
   90800    287.72498   -21863.524    111.49496   -21975.019    33090.677 
   91000    334.33616   -21829.131    129.55703   -21958.688    22088.261 
   91200    296.06079    -21857.37    114.72513   -21972.095    16247.446 
   91400    313.03025   -21861.559    121.30088    -21982.86   -620.93477 
   91600    289.29414   -21860.351    112.10301   -21972.454     17546.95 
   91800    255.57383   -21874.647    99.036215   -21973.683   -8208.2591 
   92000    306.12884   -21858.451    118.62655   -21977.078   -5093.3102 
   92200    294.52757   -21843.739      114.131    -21957.87    13960.026 
   92400    312.18263   -21863.159    120.97243   -21984.131   -6892.4645 
   92600    290.96259   -21866.589    112.74955   -21979.339    14253.176 
   92800    303.93696   -21844.703    117.77718   -21962.481   -18226.889 
   93000    307.76877   -21869.561    119.26203   -21988.823    9447.8828 
   93200    317.87807   -21868.406    123.17944   -21991.586    22096.487 
   93400    365.25873   -21842.041     141.5397   -21983.581   -22680.359 
   93600    302.07592   -21857.321    117.05602   -21974.377    13588.023 
   93800    286.15512   -21864.142    110.88663   -21975.028   -10236.804 
   94000    333.00634   -21840.487    129.04172   -21969.528    -12019.04 
   94200    307.62705   -21852.742    119.20711   -21971.949   -35249.498 
   94400    278.17843   -21867.744    107.79562    -21975.54    15929.699 
   94600    332.12302   -21842.839    128.69943   -21971.538   -10521.773 
   94800    257.44851   -21868.392    99.762665   -21968.155    9491.8163 
   95000    256.92872   -21871.208    99.561242   -21970.769   -9981.0811 
   95200    329.71677   -21848.461      127.767   -21976.228    -14823.63 
   95400    299.56815   -21863.783    116.08425   -21979.867   -9894.0066 
   95600     319.8458    -21861.61    123.94194   -21985.551    13379.889 
   95800    322.01566   -21854.027    124.78278    -21978.81    14871.412 
   96000     287.7163   -21851.136    111.49159   -21962.628   -30270.183 
   96200    297.81051   -21872.447    115.40315    -21987.85    25558.889 
   96400    278.48938   -21881.318    107.91611   -21989.235    21479.344 
   96600    303.85027   -21855.089    117.74359   -21972.833    10451.377 
   96800    257.25987   -21873.082    99.689566   -21972.771    5411.8417 
   97000    254.81473   -21875.399     98.74206   -21974.141    20124.072 
   97200    298.80806   -21856.917    115.78971   -21972.707    801.26861 
   97400    288.75769   -21868.734    111.89514   -21980.629    2525.6006 
   97600    300.92039   -21856.591    116.60825   -21973.199   -20058.488 
   97800    322.31666   -21852.842    124.89942   -21977.742     8615.575 
   98000     269.4588   -21876.209    104.41671   -21980.626     15605.82 
   98200    289.46751   -21857.083     112.1702   -21969.254   -5267.8195 
   98400    298.15445   -21855.758    115.53643   -21971.294   -5417.3482 
   98600    279.00245   -21876.518    108.11493   -21984.633   -10877.212 
   98800    325.05553   -21856.478    125.96074   -21982.439    -5115.008 
   99000    293.09217   -21861.943    113.57477   -21975.518   -6888.5269 
   99200    268.71985   -21879.912    104.13037   -21984.042    1535.5092 
   99400    319.06232   -21854.985    123.63834   -21978.623   -13087.236 
   99600    329.57647   -21848.913    127.71263   -21976.626   -8123.0398 
   99800     293.6905   -21864.227    113.80663   -21978.033    -9762.882 
  100000    282.16411   -21861.773    109.34009   -21971.113   -10603.118 
  100200    314.32003   -21854.896    121.80068   -21976.696   -9378.0703 
  100400    284.88208   -21874.936    110.39332   -21985.329    13324.529 
  100600    293.70701   -21871.574    113.81303   -21985.387    10922.264 
  100800    292.95556    -21848.26    113.52183   -21961.782    30015.758 
  101000     257.5564    -21871.76     99.80447   -21971.564    19505.743 
  101200    276.44983   -21864.391    107.12578   -21971.517    817.93476 
  101400    313.85731   -21856.067    121.62137   -21977.689    15354.289 
  101600    278.66925   -21881.833    107.98581   -21989.819   -1070.5965 
  101800    283.34869   -21888.292    109.79912   -21998.091   -7877.7397 
  102000    294.39136   -21861.335    114.07821   -21975.414    4209.0684 
  102200    303.84089   -21854.542    117.73996   -21972.282   -7203.4531 
  102400    260.51046   -21884.399    100.94919   -21985.348   -7317.0244 
  102600     271.5949   -21868.221    105.24446   -21973.466    4015.1036 
  102800    319.25256   -21854.569    123.71206   -21978.282   -11011.506 
  103000    333.24153   -21829.341    129.13286   -21958.474   -11956.644 
  103200    314.96691   -21864.195    122.05135   -21986.246   -8882.6843 
  103400    301.90799    -21864.93    116.99095   -21981.921    12211.823 
  103600    350.74652   -21838.866    135.91614   -21974.782   -12344.341 
  103800     305.2813   -21865.243    118.29812   -21983.541   -19539.943 
  104000    294.29541   -21866.438    114.04103   -21980.479   -15733.148 
  104200    288.66935   -21850.292    111.86091   -21962.153    29140.771 
  104400    310.51635   -21859.163    120.32673    -21979.49     16000.71 
  104600    287.49527   -21869.619    111.40594   -21981.025    5317.1963 
  104800    345.20943   -21845.022    133.77048   -21978.793    2033.9756 
  105000    322.06413   -21858.613    124.80156   -21983.415   -6379.2283 
  105200     294.4101   -21864.192    114.08548   -21978.277    15992.268 
  105400    284.35691    -21878.77    110.18981   -21988.959    7823.8119 
  105600    299.20152   -21853.919    115.94218   -21969.861   -7932.9602 
  105800    309.54056   -21857.078    119.94861   -21977.027    24512.849 
  106000    276.01833   -21886.103    106.95857   -21993.062    11236.466 
  106200    282.73832   -21859.655     109.5626   -21969.218   -17489.327 
  106400    276.93181   -21864.158    107.31255    -21971.47   -19280.003 
  106600    288.15127   -21879.872    111.66015   -21991.532    12814.934 
  106800    333.36531   -21848.651    129.18083   -21977.832   -6226.1749 
  107000    292.47625   -21867.102     113.3361   -21980.438   -2941.1234 
  107200     283.0258   -21862.536      109.674    -21972.21   -18609.274 
  107400    318.67293   -21862.459    123.48745   -21985.947    3977.6802 
  107600    282.67295   -21870.787    109.53727   -21980.324   -16585.808 
  107800    300.16976   -21870.747    116.31738   -21987.065   -2012.2936 
  108000    276.58693   -21848.145     107.1789   -21955.324   -2264.0859 
  108200    301.35339   -21861.557    116.77604   -21978.333    17021.527 
  108400    288.53124   -21872.604    111.80738   -21984.411    22381.726 
  108600    309.24253   -21851.672    119.83312   -21971.506   -13348.827 
  108800    297.40992   -21877.949    115.24792   -21993.197   -403.34155 
  109000    290.07388   -21885.601    112.40517   -21998.006    2070.8515 
  109200    321.61894   -21861.424    124.62905   -21986.054   -21479.325 
  109400    296.20918   -21861.462    114.78263   -21976.244   -8781.3408 
  109600    277.56025   -21880.299    107.55607   -21987.855   -15260.419 
  109800      305.259   -21850.433    118.28948   -21968.723    6923.6655 
  110000    296.55634     -21865.7    114.91715   -21980.617    17844.591 
  110200    274.67303   -21877.433    106.43726    -21983.87    13681.811 
  110400    340.30046    -21848.78    131.86824   -21980.648   -22371.326 
  110600    295.04679   -21862.249     114.3322   -21976.581   -4729.8198 
  110800    283.76254   -21868.299    109.95949   -21978.258   -1435.2634 
  111000    352.19359   -21845.755    136.47689   -21982.231   -15389.316 
  111200    309.26787   -21857.552    119.84294   -21977.395    17130.675 
  111400    293.71452   -21874.713    113.81593   -21988.529    -2783.779 
  111600    274.82995   -21862.513    106.49807   -21969.011    3062.8617 
  111800    328.80392    -21846.76    127.41326   -21974.173    5262.1663 
  112000    271.33476   -21870.488    105.14366   -21975.632   -772.78056 
  112200    313.71766   -21866.218    121.56726   -21987.785   -14969.622 
  112400    351.36566   -21834.212    136.15606   -21970.368    28183.613 
  112600    309.60625   -21857.487    119.97407   -21977.461    22840.172 
  112800    313.73124   -21865.776    121.57252   -21987.348    -10210.69 
  113000    306.01702     -21863.4    118.58322   -21981.983    18016.357 
  113200    283.09604   -21860.985    109.70122   -21970.686   -7053.4421 
  113400    271.25126   -21876.285     105.1113   -21981.396   -5440.1779 
  113600    335.29915   -21849.799     129.9302    -21979.73    10629.928 
  113800    305.45957   -21862.398    118.36721   -21980.765   -2481.9816 
  114000    292.86758   -21867.211    113.48774   -21980.698    426.44815 
  114200    277.00056   -21862.127    107.33919   -21969.466   -19759.762 
  114400    310.33575   -21842.187    120.25675   -21962.444    7283.5923 
  114600    286.82354   -21870.654    111.14564   -21981.799    22715.655 
  114800    317.65489   -21853.149    123.09296   -21976.242   -20551.299 
  115000    291.02818     -21870.5    112.77496   -21983.275    4932.3474 
  115200    304.74536   -21875.552    118.09044   -21993.643   -5169.8776 
  115400    335.14773   -21857.771    129.87153   -21987.643      10179.9 
  115600    266.86892   -21882.936    103.41312   -21986.349   -582.76043 
  115800    277.58238   -21867.348    107.56465   -21974.913   -14963.021 
  116000     315.1739   -21855.972    122.13156   -21978.104   -13261.905 
  116200    263.03086   -21888.065    101.92585   -21989.991   -6620.8284 
  116400    290.23307   -21867.104    112.46685   -21979.571   -8205.1434 
  116600    304.72064   -21858.464    118.08087   -21976.545    13798.604 
  116800    299.88975   -21863.308    116.20887   -21979.517   -10020.896 
  117000    324.97396   -21860.118    125.92914   -21986.048    -13999.98 
  117200    324.84691   -21844.136     125.8799   -21970.016   -5156.6289 
  117400    314.57179   -21871.842    121.89824    -21993.74    24990.526 
  117600    273.35888   -21868.349    105.92802   -21974.277   -3323.8012 
  117800    315.64575   -21850.905     122.3144   -21973.219    13242.395 
  118000    271.60336   -21884.281    105.24774   -21989.529    18226.979 
  118200    314.69769   -21860.262    121.94703   -21982.209   -11740.801 
  118400    301.80114   -21861.422    116.94954   -21978.371    16930.364 
  118600    256.42278   -21883.552     99.36519   -21982.917   -12822.697 
  118800    312.20004   -21856.146    120.97917   -21977.125   -24012.057 
  119000    303.74593    -21861.43    117.70316   -21979.133    20280.136 
  119200    287.60703   -21877.421    111.44925    -21988.87   -2430.0324 
  119400    283.14476   -21864.562     109.7201   -21974.283    7603.3161 
  119600    302.64569   -21852.929    117.27681   -21970.206   -17652.158 
  119800     278.7333   -21883.428    108.01063   -21991.439   -13377.147 
  120000    288.13149   -21870.683    111.65248   -21982.335   -8247.0378 
  120200    317.78621   -21853.708    123.14384   -21976.852    19649.617 
  120400    265.08197   -21881.067    102.72067   -21983.788   -13442.918 
  120600    290.75523   -21868.313     112.6692   -21980.982    9257.8409 
  120800    330.96214   -21854.301    128.24959    -21982.55    3698.3587 
  121000    296.68895   -21870.322    114.96854    -21985.29   -9189.2564 
  121200    302.82011   -21886.524     117.3444   -22003.868    -22779.67 
  121400    321.90406   -21857.734    124.73953   -21982.473   -34499.621 
  121600    293.87627   -21874.283    113.87861   -21988.162    468.45422 
  121800    296.00092   -21876.255    114.70193   -21990.957    -20016.49 
  122000    326.99476   -21854.008     126.7122    -21980.72   -5766.1816 
  122200    289.33635    -21873.79    112.11937    -21985.91     3558.637 
  122400    282.52244   -21868.957    109.47894   -21978.436    8836.1309 
  122600    307.09982   -21855.272    119.00281   -21974.275   -10149.565 
  122800    268.50745    -21875.13    104.04806   -21979.178   -1725.0999 
  123000    312.92242   -21864.657     121.2591   -21985.916   -262.59111 
  123200    293.27986   -21854.718     113.6475   -21968.366    2124.1775 
  123400    294.58097   -21879.539    114.15169   -21993.691   -2825.0946 
  123600     292.4628     -21863.8    113.33089    -21977.13    1926.5338 
  123800    300.59274   -21864.393    116.48128   -21980.874    -1139.954 
  124000    292.44196   -21871.728    113.32281   -21985.051   -15094.289 
  124200    316.54859   -21847.101    122.66426   -21969.765   -5463.9716 
  124400    291.47361    -21872.48    112.94757   -21985.427    5426.0739 
  124600    292.49758   -21868.207    113.34437   -21981.551   -11220.757 
  124800    319.08631   -21858.944    123.64764   -21982.591    2905.5579 
  125000    292.85175   -21865.112    113.48161   -21978.593    3192.3102 
  125200    283.78729   -21871.982    109.96908   -21981.951     14776.77 
  125400    325.72466   -21847.763    126.22004   -21973.983   -28287.956 
  125600     289.4864   -21880.367    112.17752   -21992.544    9424.9504 
  125800    271.36587   -21864.134    105.15571    -21969.29    20289.258 
  126000    288.25002   -21861.014    111.69841   -21972.712    11594.338 
  126200    254.45236   -21893.576     98.60164   -21992.177    601.58836 
  126400    319.75611   -21875.606    123.90719   -21999.513    6387.6004 
  126600    324.51676   -21861.676    125.75197   -21987.428    2887.5105 
  126800     336.7626   -21859.952     130.4973   -21990.449   -16793.117 
  127000    276.05618   -21877.479    106.97324   -21984.452   -27184.109 
  127200     324.1525   -21852.188    125.61081   -21977.798    20227.622 
  127400    291.51999   -21871.762    112.96554   -21984.728   -13746.135 
  127600     300.3798   -21878.055    116.39877   -21994.453   -4936.2667 
  127800    313.92432   -21856.903    121.64734   -21978.551    -842.2826 
  128000    291.27588   -21875.628    112.87095   -21988.499    10076.883 
  128200    262.44576   -21874.532    101.69913   -21976.231   -2434.3309 
  128400    310.07041    -21862.89    120.15393   -21983.044    -2764.173 
  128600    299.84389    -21870.83     116.1911   -21987.022   -14377.468 
  128800    320.61348    -21850.57    124.23942   -21974.809    17573.846 
  129000    302.06247   -21872.554    117.05081   -21989.605   -8315.4588 
  129200    267.01555   -21862.716    103.46994   -21966.186   -15133.609 
  129400    274.27812   -21861.465    106.28423   -21967.749    148.44341 
  129600    287.56148   -21882.705     111.4316   -21994.136   -5288.7871 
  129800    315.10118   -21858.544    122.10338   -21980.647   -12808.744 
  130000    271.42877   -21875.291    105.18009   -21980.471     225.9698 
  130200    263.98179   -21882.575    102.29434   -21984.869   -2312.6641 
  130400    328.03332   -21863.145    127.11465   -21990.259   -2227.2644 
  130600    261.87717   -21865.049    101.47879   -21966.528    9462.6988 
  130800    276.09928   -21878.779    106.98994   -21985.769    10939.248 
  131000    291.78089   -21855.084    113.06664   -21968.151   -1219.6805 
  131200    297.85924   -21858.938    115.42203    -21974.36   -3262.2876 
  131400    286.47234    -21866.99    111.00955       -21978    958.84985 
  131600    275.75459   -21874.241    106.85637   -21981.098   -7748.3969 
  131800    317.51222   -21847.612    123.03767    -21970.65    9217.0338 
  132000    270.36304   -21872.499    104.76711   -21977.266   -2993.9966 
  132200    306.87691   -21869.161    118.91643   -21988.078   -20976.193 
  132400    334.25416   -21863.245    129.52526   -21992.771    27020.335 
  132600    293.17175   -21872.772    113.60561   -21986.378   -9327.6327 
  132800    281.75739   -21882.261    109.18248   -21991.444    12001.291 
  133000    340.65702   -21856.097     132.0064   -21988.103    8030.6408 
  133200    278.84657   -21868.578    108.05452   -21976.633    18595.167 
  133400    264.75113   -21893.412    102.59247   -21996.005    1101.3201 
  133600    299.04655   -21868.535    115.88212   -21984.417    10738.158 
  133800    308.12667   -21857.381    119.40072   -21976.782    2068.6051 
  134000    299.70532   -21856.173     116.1374    -21972.31    -19524.89 
  134200    276.80743   -21877.152    107.26435   -21984.417   -14848.415 
  134400    344.98806   -21846.373     133.6847   -21980.058    8715.2624 
  134600    283.72091   -21865.467    109.94336   -21975.411    4180.3039 
  134800     296.6044   -21867.208    114.93578   -21982.144    3704.1723 
  135000    291.11482   -21840.695    112.80854   -21953.503    -6265.773 
  135200    282.01258   -21867.893    109.28137   -21977.175   -4891.6425 
  135400    322.23088   -21864.737    124.86618   -21989.604   -1068.9688 
  135600    323.06987   -21844.632    125.19129   -21969.823    -5811.241 
  135800    292.54961    -21858.58    113.36453   -21971.944    9946.6415 
  136000    286.55204   -21865.567    111.04044   -21976.607    11743.612 
  136200    323.75916   -21844.145    125.45839   -21969.603   -3933.4529 
  136400     282.0795   -21872.226     109.3073   -21981.533    12831.476 
  136600    276.29528   -21869.258    107.06589   -21976.324   -8408.9505 
  136800    336.56679   -21850.912    130.42142   -21981.333    17000.035 
  137000    311.74307   -21864.782    120.80209   -21985.584    3094.6707 
  137200    302.02392   -21863.211    117.03587   -21980.247     17937.63 
  137400     271.4467   -21870.228    105.18704   -21975.416    27967.472 
  137600    314.70187   -21868.882    121.94864    -21990.83   -15209.464 
  137800    323.35579   -21855.013    125.30208   -21980.315   -3178.2534 
  138000    288.76932   -21865.732    111.89964   -21977.632   -8126.3978 
  138200    291.47017   -21875.514    112.94624    -21988.46    -4075.441 
  138400    292.85377   -21846.509    113.48239   -21959.992    36608.791 
  138600    320.75394   -21863.288    124.29386   -21987.582   -10896.458 
  138800    297.48823   -21865.529    115.27827   -21980.808   -3111.3513 
  139000     323.4635   -21844.777    125.34382   -21970.121     1899.071 
  139200    283.81231   -21873.179    109.97878   -21983.158   -16117.532 
  139400    315.02732   -21855.794    122.07476   -21977.868   -20086.081 
  139600    294.33457   -21860.348    114.05621   -21974.404    19170.417 
  139800    263.06975   -21868.793    101.94092   -21970.734    4161.0472 
  140000    323.21677   -21848.892    125.24821    -21974.14   -8417.7591 
  140200    296.13964   -21871.706    114.75568   -21986.462   -3806.6239 
  140400    301.71237   -21866.248    116.91515   -21983.163   -25034.462 
  140600    347.31136   -21842.789    134.58499   -21977.374   -23775.288 
  140800    329.86544   -21845.167    127.82461   -21972.992     10313.48 
  141000    293.59472   -21867.018    113.76951   -21980.788     8390.863 
  141200    305.20936   -21847.123    118.27025   -21965.393    6032.3567 
  141400     327.8117   -21850.464    127.02878   -21977.493    2512.0371 
  141600    296.07366   -21872.557    114.73011   -21987.287   -8520.3904 
  141800    313.58217   -21852.006    121.51476   -21973.521    9130.9503 
  142000    300.06539    -21856.95    116.27693   -21973.227   -4751.8611 
  142200    267.07526   -21876.005    103.49308   -21979.498    17927.793 
  142400    318.00032   -21853.401    123.22681   -21976.628   -19437.311 
  142600    335.98887   -21861.124    130.19747   -21991.321    8198.5057 
  142800    287.85574   -21883.345    111.54563    -21994.89   -3317.0408 
  143000    273.33211   -21857.535    105.91764   -21963.453    -4564.285 
  143200    294.55163   -21855.779    114.14032   -21969.919   -11921.422 
  143400    315.14433   -21869.305     122.1201   -21991.425    5365.8995 
  143600    295.14351   -21876.057    114.36968   -21990.427    9643.9817 
  143800    326.04626    -21847.47    126.34466   -21973.815   -13663.872 
  144000    303.88421   -21862.828    117.75675   -21980.585    -23075.04 
  144200    287.16319   -21867.804    111.27726   -21979.082    29509.734 
  144400    338.25811   -21837.076    131.07681   -21968.153   -29290.228 
  144600    315.99195    -21862.89    122.44856   -21985.338    11556.243 
  144800    333.29669   -21863.616    129.15424   -21992.771      10451.6 
  145000     345.1099   -21839.337    133.73192   -21973.069    8420.7624 
  145200    282.95085   -21863.602    109.64496   -21973.247   -10866.704 
  145400    335.33386   -21861.718    129.94365   -21991.662    7252.6803 
  145600     321.9238   -21855.616    124.74718   -21980.364    -6255.547 
  145800    263.02875   -21878.846    101.92504   -21980.772    6935.6755 
  146000    298.92206   -21854.602    115.83388   -21970.436    13720.799 
  146200    304.30844   -21852.707    117.92114   -21970.628     20106.28 
  146400    303.36571   -21860.997    117.55582   -21978.553    11408.336 
  146600    276.62287   -21878.764    107.19283   -21985.957    7728.1257 
  146800    309.18561   -21853.862    119.81106   -21973.673   -14733.711 
  147000    286.59324   -21861.573     111.0564   -21972.629    -19764.96 
  147200    315.12125   -21867.033    122.11115   -21989.144    2611.7502 
  147400    334.73819   -21848.767    129.71283    -21978.48    9773.4204 
  147600    287.90804   -21878.145    111.56589   -21989.711    6521.5896 
  147800    261.78748   -21873.762    101.44404   -21975.206   -20495.745 
  148000    285.06344   -21857.467     110.4636    -21967.93    1523.5573 
  148200    307.39739   -21861.037    119.11812   -21980.155    4615.7416 
  148400    267.15889   -21876.473    103.52549   -21979.999    19479.899 
  148600    266.69664   -21856.719    103.34636   -21960.066   -8306.8751 
  148800    289.52512   -21861.126    112.19252   -21973.319     14139.08 
  149000    276.06148   -21874.576    106.97529   -21981.551      2756.25 
  149200    328.84728   -21849.339    127.43006   -21976.769   -11896.968 
  149400    287.22544   -21857.809    111.30138    -21969.11    -18020.67 
  149600    287.33886   -21864.157    111.34533   -21975.503    3633.4167 
  149800    322.06687   -21860.583    124.80262   -21985.386   -12160.651 
  150000     329.3203   -21851.614    127.61336   -21979.227   -5466.7703 
  150200    290.02171   -21874.574    112.38495   -21986.959   -995.97271 
  150400    283.07117   -21862.901    109.69158   -21972.593     8021.319 
  150600     303.1449   -21854.256    117.47026   -21971.726    1747.2442 
  150800    301.11121   -21875.101    116.68219   -21991.783    -18011.93 
  151000    305.22374   -21861.763    118.27582   -21980.039    13100.416 
  151200    329.89561   -21850.736     127.8363   -21978.572   -32568.921 
  151400    299.93859   -21875.531    116.22779   -21991.759    2842.3123 
  151600    333.44891   -21851.161    129.21322   -21980.374    7954.3251 
  151800    320.13282   -21861.608    124.05317   -21985.661   -10858.671 
  152000    294.65513   -21870.624    114.18043   -21984.804   -9565.8948 
  152200    338.72184   -21838.621    131.25651   -21969.878    5076.4845 
  152400    329.35691   -21860.097    127.62755   -21987.725   -2945.1111 
  152600    301.67393   -21868.676    116.90025   -21985.576   -4433.2392 
  152800    279.87388   -21874.504    108.45261   -21982.957    2062.0857 
  153000    303.45474   -21858.946    117.59032   -21976.536   -1795.9175 
  153200    317.08619   -21858.218    122.87258   -21981.091   -1589.5779 
  153400    301.43985   -21886.221    116.80954   -22003.031    23816.456 
  153600    320.26208   -21874.211    124.10325   -21998.314   -15921.199 
  153800    350.78895   -21857.869    135.93258   -21993.801   -7404.4333 
  154000    296.94428   -21884.385    115.06748   -21999.452    3255.4568 
  154200    288.59836   -21889.851    111.83339   -22001.685   -20611.752 
  154400    344.68817   -21860.463     133.5685   -21994.032    13484.572 
  154600    283.91588   -21893.233    110.01891   -22003.252    22133.933 
  154800     293.2332   -21882.802    113.62942   -21996.432   -8350.7601 
  155000    294.19908   -21881.849     114.0037   -21995.853   -537.07106 
  155200    276.21442   -21902.477    107.03455   -22009.511    3128.7108 
  155400    303.40077    -21874.18    117.56941    -21991.75   -24563.481 
  155600     287.6276   -21876.916    111.45722   -21988.373   -197.23139 
  155800    272.51676   -21903.343    105.60169   -22008.944   -3168.2651 
  156000    280.30852   -21882.634    108.62104   -21991.255    9271.7105 
  156200    312.22192   -21877.985    120.98765   -21998.973    1240.0341 
  156400    331.81232   -21891.391    128.57904    -22019.97   -6905.3109 
  156600    286.07265   -21894.622    110.85467   -22005.477    8720.7538 
  156800    312.78751   -21870.983    121.20682    -21992.19    8489.5861 
  157000    270.26924    -21891.74    104.73076   -21996.471   -17934.963 
  157200    278.28904     -21887.3    107.83848   -21995.139   -208.26694 
  157400    315.66247   -21873.567    122.32088   -21995.888    16402.824 
  157600    274.42501   -21892.172    106.34115   -21998.513   -16538.971 
  157800    333.45642   -21864.483    129.21613   -21993.699    12610.245 
  158000    320.12559   -21878.896    124.05036   -22002.946    10976.728 
  158200    299.22457   -21888.664    115.95111   -22004.615    17242.822 
  158400    283.95347    -21887.84    110.03348   -21997.873    9708.4967 
  158600    265.87244   -21877.245    103.02698   -21980.272    20467.759 
  158800    335.56071   -21857.813    130.03155   -21987.844    13379.029 
  159000    334.78911   -21878.867    129.73256   -22008.599   -5991.0144 
  159200    275.33124   -21890.962    106.69232   -21997.655   -8668.7352 
  159400    333.08821   -21862.673    129.07345   -21991.747    6741.4436 
  159600    279.48467   -21874.111    108.30179   -21982.413    5553.1955 
  159800    317.59053    -21876.98    123.06802   -22000.048   -39307.469 
  160000    301.62976   -21868.631    116.88313   -21985.514    9747.3019 
  160200    305.23144   -21887.626     118.2788   -22005.905    5014.3003 
  160400    273.81762   -21890.879    106.10578   -21996.984   -5036.3689 
  160600    306.50344   -21860.235    118.77171   -21979.007    20903.766 
  160800    285.84788   -21873.563    110.76757   -21984.331    3014.2333 
  161000    273.45808   -21891.386    105.96646   -21997.352   -18274.526 
  161200    263.60748   -21917.572     102.1493   -22019.721     8719.007 
  161400    309.23877   -21890.837    119.83166   -22010.668   -23460.087 
  161600     297.0722   -21875.003    115.11705   -21990.121    7846.2039 
  161800    288.04565   -21892.869    111.61922   -22004.488    7164.6928 
  162000    293.61357   -21889.569    113.77682   -22003.345   -6529.0206 
  162200    303.54323   -21879.822    117.62461   -21997.447   -16780.129 
  162400    290.31536   -21896.539    112.49874   -22009.038   -5344.2387 
  162600    325.20449   -21864.223    126.01846   -21990.242    177.43745 
  162800    294.05822    -21879.75    113.94912   -21993.699   -10768.967 
  163000    301.90151   -21889.755    116.98844   -22006.743    -27829.53 
  163200    336.70812   -21858.726    130.47618   -21989.202    15416.806 
  163400    285.11612   -21885.949    110.48401   -21996.433    3004.3729 
  163600    316.36966   -21876.788    122.59492   -21999.383   -12786.447 
  163800    315.86712   -21851.096    122.40018   -21973.496    7573.1858 
  164000    327.63453   -21877.281    126.96012   -22004.241    2384.1206 
  164200    308.70974    -21895.76    119.62666   -22015.387    7895.4541 
  164400    326.75125   -21870.202    126.61784    -21996.82   -8048.5364 
  164600    329.51019   -21881.788    127.68695   -22009.475   -4645.2747 
  164800    275.80925    -21892.47    106.87755   -21999.348    5059.6393 
  165000    288.44384   -21875.542    111.77352   -21987.316    10485.686 
  165200    315.28379    -21880.49    122.17414   -22002.664    8744.9771 
  165400    267.24278   -21898.649      103.558   -22002.207   -26666.331 
  165600    309.50048   -21876.043    119.93308   -21995.976    14627.118 
  165800    336.65448   -21880.109     130.4554   -22010.564    10386.458 
  166000    279.59102   -21902.301      108.343   -22010.644   -17248.779 
  166200     312.7678   -21876.891    121.19918    -21998.09   -15983.961 
  166400    284.69512   -21884.333    110.32087   -21994.654   -19482.374 
  166600    312.00375   -21881.978    120.90311   -22002.881   -8322.4947 
  166800    327.89269   -21872.226    127.06016   -21999.287    6852.8386 
  167000    347.65379   -21861.697    134.71769   -21996.415   -1345.2157 
  167200    293.62306    -21889.97    113.78049    -22003.75   -5738.7414 
  167400    308.54422   -21877.049    119.56252   -21996.612     29705.33 
  167600    302.71252   -21866.494    117.30271   -21983.797   -9018.7956 
  167800    272.59762   -21892.985    105.63302   -21998.618    773.83115 
  168000    301.97599   -21868.995     117.0173   -21986.013   -14322.775 
  168200    330.87595   -21879.921    128.21619   -22008.137    27793.618 
  168400     295.9138    -21892.48    114.66817   -22007.148   -27220.204 
  168600    323.67939    -21873.35    125.42748   -21998.778   -39992.208 
  168800    320.00921   -21866.843    124.00527   -21990.848    35044.031 
  169000    295.24736   -21894.909    114.40992   -22009.319   -20033.826 
  169200    306.63195   -21873.272    118.82151   -21992.094   -15551.788 
  169400    277.27658   -21875.335    107.44615   -21982.781    7169.9457 
  169600    298.98537   -21897.481    115.85842   -22013.339   -19548.954 
  169800    311.32648   -21894.718    120.64066   -22015.359    6494.8782 
  170000    291.39235   -21889.319    112.91608   -22002.235   -5995.8385 
  170200    319.75293   -21871.122    123.90596   -21995.028   -8407.5437 
  170400    330.11678   -21864.232      127.922   -21992.154   -27650.183 
  170600    297.70361   -21880.647    115.36173   -21996.009    31283.762 
  170800    305.19826   -21879.518    118.26595   -21997.784   -10277.176 
  171000    271.49095   -21886.548    105.20418   -21991.752     21697.72 
  171200    325.72213   -21864.984    126.21905   -21991.203    9978.1997 
  171400    301.17621   -21872.838    116.70738   -21989.545   -3012.9739 
  171600    285.51442   -21896.016    110.63835   -22006.655    2455.6671 
  171800    285.16985   -21874.309    110.50483   -21984.814    3983.2295 
  172000    268.68798   -21883.678    104.11802   -21987.796    43739.369 
  172200     303.9453   -21889.176    117.78042   -22006.956    -14508.45 
  172400    324.61706   -21864.161    125.79083   -21989.952   -18585.734 
  172600    309.84516   -21883.851    120.06664   -22003.918   -2511.7758 
  172800    262.59232   -21913.354    101.75592   -22015.109   -8084.0615 
  173000    314.59471   -21893.694    121.90712   -22015.601     14944.32 
  173200    279.60882   -21882.724     108.3499   -21991.074   -23474.712 
  173400    303.65564    -21862.89    117.66817   -21980.558     22853.05 
  173600    295.64044   -21882.376    114.56224   -21996.938   -4391.8208 
  173800    310.07524   -21891.793     120.1558   -22011.949   -3204.1004 
  174000    325.36386   -21874.324    126.08022   -22000.404   -20421.581 
  174200    300.30848   -21891.733    116.37113   -22008.104    4696.9611 
  174400    286.30645    -21892.88    110.94527   -22003.825    -7836.968 
  174600    316.18751    -21875.83    122.52434   -21998.354    18672.997 
  174800     280.9523   -21893.005    108.87051   -22001.876    3011.4866 
  175000    288.94276   -21892.142    111.96685   -22004.109    -5997.987 
  175200    309.73717   -21878.181     120.0248   -21998.206   -9890.3847 
  175400    285.45771   -21882.727    110.61638   -21993.343    2140.3473 
  175600    294.83908   -21893.364    114.25171   -22007.616   -3514.7513 
  175800    309.39808   -21865.215     119.8934   -21985.109     10426.57 
  176000    306.84843   -21878.183    118.90539   -21997.088    3564.7388 
  176200    309.39918   -21885.092    119.89383   -22004.985   -14141.085 
  176400    311.30749   -21889.521     120.6333   -22010.154   -3557.3422 
  176600    271.70679   -21886.918    105.28782   -21992.206   -11201.847 
  176800     332.3865   -21869.229    128.80153    -21998.03   -14242.948 
  177000    290.54168    -21895.91    112.58644   -22008.497   -22456.297 
  177200    309.83333   -21884.913    120.06206   -22004.975   -9853.4732 
  177400     301.4632   -21880.806    116.81859   -21997.625    13825.368 
  177600    300.32842   -21890.895    116.37886   -22007.273    225.56381 
  177800    299.41588   -21885.568    116.02524   -22001.594    -10735.37 
  178000    297.74476   -21873.871    115.37767   -21989.249    14531.679 
  178200    265.05523   -21900.157    102.71031   -22002.868    16998.193 
  178400    337.42563   -21872.155    130.75422    -22002.91   -17525.625 
  178600    304.32416   -21878.356    117.92723   -21996.283    28053.482 
  178800    282.36802   -21889.477    109.41911   -21998.896   -2588.9635 
  179000    332.49996   -21863.635     128.8455    -21992.48    2999.9238 
  179200    289.58231   -21882.976    112.21468    -21995.19      7893.24 
[...]
  950000     285.8333   -22190.393    110.76192   -22301.155   -15745.271 
  950200    303.38459   -22170.814    117.56314   -22288.377   -23107.985 
  950400    315.85069   -22180.353    122.39382   -22302.746    13991.902 
  950600    276.31818   -22194.646    107.07476    -22301.72   -1479.9358 
  950800    318.08499   -22170.128    123.25962   -22293.387    2317.9485 
  951000    295.29137   -22179.306    114.42697   -22293.733    14225.313 
  951200    268.28901   -22199.057    103.96341    -22303.02   -4189.3459 
  951400     286.4674    -22179.52    111.00764   -22290.528   -19334.236 
  951600    301.71887   -22173.683    116.91766   -22290.601    -14665.57 
  951800    267.39739   -22190.804    103.61791   -22294.422    11698.333 
  952000    299.71139   -22185.228    116.13976   -22301.367   -24146.514 
  952200    322.26098   -22164.097    124.87784   -22288.975    -10664.77 
  952400    310.88939   -22181.182    120.47129   -22301.653   -6646.0627 
  952600    299.04694   -22171.602    115.88228   -22287.484   -8471.0808 
  952800    280.74569   -22169.752    108.79044   -22278.542    33189.459 
  953000    268.24113   -22194.504    103.94486   -22298.449    26349.628 
  953200    320.52252   -22168.242    124.20418   -22292.446   -19792.159 
  953400     318.1545   -22173.789    123.28656   -22297.076   -861.84119 
  953600    294.41529   -22180.677    114.08749   -22294.764   -9954.7886 
  953800    270.00549   -22204.923    104.62856   -22309.552      22005.4 
  954000    289.49849   -22178.144     112.1822   -22290.326   -6212.3068 
  954200    298.63067   -22173.504    115.72097   -22289.225    11165.735 
  954400    288.46393   -22196.996     111.7813   -22308.777    4532.8073 
  954600       340.76   -22171.693    132.04631   -22303.739   -5916.5769 
  954800    305.67299   -22168.288    118.44991   -22286.738   -29967.231 
  955000    280.61785   -22191.441    108.74091   -22300.182   -979.13206 
  955200    314.27818    -22181.71    121.78446   -22303.495   -2961.4351 
  955400    309.13633   -22171.218    119.79197    -22291.01    5726.3549 
  955600    347.15573   -22141.965    134.52469    -22276.49   -24550.876 
  955800    302.90047   -22180.899    117.37554   -22298.274   -5139.0048 
  956000    295.15633   -22186.822    114.37465   -22301.197    -17691.11 
  956200    297.42972    -22163.39     115.2556   -22278.646   -24388.635 
  956400    306.12256     -22174.6    118.62412   -22293.224    -10858.73 
  956600    293.59957   -22182.601    113.77139   -22296.373    14738.549 
  956800    319.52417   -22172.434    123.81731   -22296.251   -26590.147 
  957000    244.91519   -22205.385    94.905935   -22300.291   -9662.1318 
  957200    274.47464   -22182.009    106.36038    -22288.37   -638.39553 
  957400    314.07983   -22172.043     121.7076   -22293.751    12307.352 
  957600    263.33842   -22200.524    102.04504   -22302.569   -5415.0162 
  957800    279.18991   -22186.386    108.18757   -22294.573   -4097.5119 
  958000    290.26336   -22173.036    112.47859   -22285.515   -19883.843 
  958200     306.6972   -22183.466    118.84679   -22302.313   -16898.316 
  958400    318.57079   -22196.902    123.44787    -22320.35    4165.1829 
  958600    307.68935   -22180.563    119.23126   -22299.794    -364.1623 
  958800     303.8769   -22172.387    117.75391   -22290.141    1748.7578 
  959000    356.24693   -22143.684    138.04758   -22281.732    10523.372 
  959200    318.19666   -22175.982    123.30289   -22299.284   -1948.5974 
  959400    302.15521   -22186.128    117.08675   -22303.214   -22833.787 
  959600    261.18377   -22185.602     101.2101   -22286.812      969.204 
  959800    327.28732   -22163.863    126.82557   -22290.688    12959.382 
  960000    290.76353   -22189.474    112.67241   -22302.146    15039.878 
  960200    280.49317   -22176.692    108.69259   -22285.385    1234.5413 
  960400    288.15455   -22166.195    111.66142   -22277.856   -2038.0583 
  960600    253.31448   -22200.412    98.160705   -22298.573    -3880.227 
  960800    293.57079   -22179.862    113.76024   -22293.622   -15795.539 
  961000    308.38116   -22169.876    119.49933   -22289.375   -20732.956 
  961200    273.87838   -22196.998    106.12933   -22303.127    -5841.499 
  961400      286.233   -22182.952    110.91681   -22293.868    2832.1785 
  961600    311.11819   -22180.645    120.55995   -22301.205    17724.767 
  961800     323.8838   -22162.609    125.50669   -22288.116    1652.1713 
  962000    296.43216   -22180.196    114.86903   -22295.065   -12879.099 
  962200    287.75429   -22189.339    111.50631   -22300.845   -7990.1707 
  962400    328.07613   -22157.228    127.13124   -22284.359    852.50202 
  962600    349.79726   -22143.328     135.5483   -22278.877    -316.1043 
  962800    302.18416    -22179.39    117.09797   -22296.488   -20552.523 
  963000     293.1098   -22191.081     113.5816   -22304.662    2723.2502 
  963200    344.27053   -22164.995    133.40666   -22298.402   -13467.712 
  963400    297.92778    -22181.01    115.44859   -22296.459    21544.537 
  963600    283.76798   -22184.132     109.9616   -22294.094    14613.469 
  963800    322.68763   -22175.466    125.04317    -22300.51    12427.701 
  964000    266.42211   -22202.344    103.23998   -22305.584   -17527.063 
  964200    286.86339   -22182.568    111.16109   -22293.729   -1583.1142 
  964400    264.81755   -22171.728    102.61821   -22274.346   -1341.7007 
  964600    304.65319   -22172.912    118.05473   -22290.967   -1918.2977 
  964800    289.52606   -22198.006    112.19288   -22310.199    5050.0208 
  965000    298.62981   -22177.067    115.72064   -22292.788   -23886.654 
  965200    289.39734   -22174.723    112.14301   -22286.866    22370.071 
  965400    262.16563   -22202.902    101.59057   -22304.493    1894.3366 
  965600    270.91137   -22186.808    104.97959   -22291.788   -20304.935 
  965800    295.95992   -22176.492    114.68604   -22291.178     24917.65 
  966000    337.78298    -22144.12     130.8927   -22275.013    18535.322 
  966200    317.34499   -22167.735    122.97287   -22290.708   -23182.679 
  966400    265.05374   -22188.478    102.70973   -22291.188   -16987.628 
  966600    280.20297    -22172.06    108.58014   -22280.641    8738.3678 
  966800    307.24965   -22163.454    119.06087   -22282.515   -9465.6054 
  967000    284.62396   -22183.489    110.29329   -22293.782   -8615.9943 
  967200    292.33984   -22178.898    113.28324   -22292.182   -16064.881 
  967400    329.21376   -22154.977    127.57208   -22282.549   -9094.9463 
  967600    290.26304    -22182.93    112.47847   -22295.409   -18390.322 
  967800    272.98071   -22185.715    105.78148   -22291.496   -2654.9134 
  968000     323.9253   -22155.808    125.52277   -22281.331    9382.9035 
  968200    318.19854   -22172.425    123.30362   -22295.729   -21673.432 
  968400    314.36007   -22178.687    121.81619   -22300.503    2436.5948 
  968600    263.13236   -22194.717    101.96519   -22296.682    2675.4534 
  968800    275.20091   -22200.403    106.64181   -22307.045    9543.0607 
  969000    323.54068   -22173.539    125.37373   -22298.913   -13963.598 
  969200     272.7838   -22177.814    105.70517   -22283.519    20158.206 
  969400    283.21626   -22202.114     109.7478   -22311.862    418.88674 
  969600    320.03713   -22175.675    124.01609   -22299.691     -8116.06 
  969800    307.92486   -22176.043    119.32252   -22295.366    4030.5115 
  970000    253.96665   -22193.723    98.413425   -22292.137    24439.597 
  970200    258.79905   -22204.343    100.28601   -22304.629   -2309.0187 
  970400    341.45367   -22174.706    132.31511   -22307.021    -21929.96 
  970600    320.06562   -22170.162    124.02713    -22294.19    9328.3163 
  970800     316.6349   -22194.207     122.6977   -22316.905    2964.6143 
  971000    316.67202   -22168.895    122.71209   -22291.607   -3678.4669 
  971200    299.42386   -22178.109    116.02833   -22294.137    15814.227 
  971400    293.20974   -22182.278    113.62033   -22295.898   -1352.9449 
  971600    311.10897   -22179.152    120.55638   -22299.708    10240.112 
  971800    297.50686   -22178.047    115.28549   -22293.332   -1489.2199 
  972000    273.12852   -22180.369    105.83875   -22286.208   -9251.7927 
  972200    277.20946   -22203.074    107.42014   -22310.494   -11033.569 
  972400    298.54886   -22174.898    115.68927   -22290.588    14921.691 
  972600    281.48796   -22183.663    109.07808   -22292.741   -13175.971 
  972800    256.15801   -22207.233    99.262588   -22306.495    17152.444 
  973000    318.46485   -22172.918    123.40682   -22296.325    5233.0722 
  973200    307.96357   -22179.777    119.33752   -22299.114     28545.72 
  973400    269.95714   -22198.628    104.60982   -22303.238     2440.852 
  973600    276.31417   -22168.796    107.07321    -22275.87     12171.12 
  973800    311.71834   -22175.453    120.79251   -22296.246    15319.274 
  974000    282.97231   -22189.887    109.65327   -22299.541   -19720.575 
  974200      312.374   -22180.245    121.04658   -22301.292    3890.5871 
  974400    335.68513   -22163.987    130.07977   -22294.066    2892.4422 
  974600    319.15762   -22160.362    123.67527   -22284.037   -7076.8561 
  974800    272.57789   -22179.896    105.62538   -22285.521   -2684.7461 
  975000    275.31108   -22185.727     106.6845   -22292.411    5714.1038 
  975200     283.5062   -22184.488    109.86016   -22294.348    9729.3076 
  975400    304.60358    -22168.94    118.03551   -22286.976   -25778.728 
  975600    268.16542   -22196.818    103.91552   -22300.733   -1206.5379 
  975800    284.81214   -22197.009    110.36622   -22307.375   -25328.892 
  976000    303.97136   -22175.287    117.79052   -22293.078   -15097.893 
  976200    305.87532   -22181.665    118.52831   -22300.194    5618.5739 
  976400    285.20463    -22196.96    110.51831   -22307.478    7632.1067 
  976600     299.1056   -22178.539    115.90501   -22294.444     12998.82 
  976800    300.68087   -22170.134    116.51543   -22286.649    963.29318 
  977000    266.79019   -22196.077    103.38262    -22299.46    35409.963 
  977200    321.90331   -22171.691    124.73924    -22296.43   -12727.611 
  977400     306.2966   -22175.996    118.69156   -22294.687   -17267.795 
  977600    278.20056   -22183.476     107.8042    -22291.28   -4408.2085 
  977800    289.59175   -22179.819    112.21834   -22292.038    6954.8099 
  978000     287.7831   -22182.287    111.51748   -22293.805   -15056.185 
  978200    299.93049    -22169.45    116.22466   -22285.675   -11599.387 
  978400    322.19341   -22170.596    124.85166   -22295.447     16183.13 
  978600    292.12912   -22187.188    113.20158   -22300.389   -9036.5206 
  978800    321.95641   -22177.899    124.75982   -22302.659   -31604.039 
  979000    334.40057   -22158.685      129.582   -22288.267   -17230.015 
  979200    325.04714   -22159.598    125.95749   -22285.555    5229.0061 
  979400    296.77322    -22183.94     115.0012   -22298.941     25289.77 
  979600    315.98016   -22180.194    122.44399   -22302.638   -12574.687 
  979800    325.81648   -22156.527    126.25561   -22282.783     6815.444 
  980000    308.90743   -22177.653    119.70327   -22297.356    4190.0907 
  980200    283.02497    -22182.88    109.67368   -22292.554   -612.15105 
  980400    342.96361   -22148.428    132.90022   -22281.328   -5203.0071 
  980600    325.03498   -22166.085    125.95278   -22292.038   -14784.457 
  980800    310.65832   -22179.098    120.38175    -22299.48     1861.076 
  981000    267.94619   -22198.572    103.83057   -22302.403   -13950.551 
  981200    279.63006   -22181.696    108.35813   -22290.054   -30353.829 
  981400    304.68956   -22168.984    118.06882   -22287.052    4545.5016 
  981600    267.37883   -22192.068    103.61072   -22295.679    5137.8501 
  981800    310.36231   -22190.051    120.26704   -22310.318   -5843.7756 
  982000    260.07881   -22177.138    100.78192    -22277.92    20949.647 
  982200    285.32412   -22177.918    110.56461   -22288.483    307.25239 
  982400    304.11625   -22188.588    117.84666   -22306.435    4924.4138 
  982600    292.54447   -22181.053    113.36253   -22294.416   -12368.908 
  982800     294.5958   -22169.232    114.15744   -22283.389    15809.279 
  983000    233.53946   -22200.314     90.49778   -22290.812    10699.194 
  983200    315.79502   -22173.084    122.37224   -22295.456   -26938.852 
  983400    296.45042    -22180.85    114.87611   -22295.726    11342.316 
  983600     245.2388   -22205.034    95.031335   -22300.065   -7286.0988 
  983800    295.35095   -22181.287    114.45006   -22295.738   -28599.974 
  984000    326.16137   -22165.627    126.38926   -22292.016   -20587.167 
  984200    286.27143   -22195.441     110.9317   -22306.373    20224.131 
  984400    276.03777   -22178.995     106.9661   -22285.961   -9298.0218 
  984600    298.14732   -22171.431    115.53367   -22286.965   -23234.175 
  984800    305.45844   -22183.156    118.36677   -22301.523   -13139.548 
  985000    262.05028   -22196.643    101.54587   -22298.189   -12002.557 
  985200    293.53995   -22170.636    113.74829   -22284.384   -12738.577 
  985400    322.61822   -22174.429    125.01627   -22299.446    13002.434 
  985600    265.17343   -22203.652    102.75611   -22306.408    1934.3659 
  985800    286.94385   -22181.225    111.19227   -22292.417   -10425.958 
  986000    300.06705   -22176.464    116.27757   -22292.742    771.79018 
  986200    266.03433    -22207.36    103.08971    -22310.45   -14878.323 
  986400    290.89889   -22190.788    112.72486   -22303.513    7535.2683 
  986600    312.14104    -22172.77    120.95631   -22293.726   -3646.1744 
  986800    337.15192   -22170.133    130.64816   -22300.781    8597.5463 
  987000    278.23038   -22194.985    107.81575   -22302.801     7575.786 
  987200    318.63628    -22170.47    123.47325   -22293.943   -7631.4498 
  987400    309.35793   -22178.139    119.87784   -22298.017    6975.1795 
  987600    293.04356   -22180.038    113.55594   -22293.594    18125.787 
  987800    333.66205    -22158.84    129.29582   -22288.135   -15926.279 
  988000    292.80637   -22187.765    113.46402   -22301.229     681.1652 
  988200    289.14916    -22183.05    112.04683   -22295.096     14241.24 
  988400     295.8911   -22158.747    114.65937   -22273.406   -18435.189 
  988600    314.18751   -22153.011    121.74933   -22274.761    7181.8273 
  988800    323.05362   -22181.898    125.18499   -22307.083    12889.619 
  989000    282.95208   -22193.605    109.64543    -22303.25   -122.09198 
  989200    315.96406   -22165.427    122.43775   -22287.864   -31378.386 
  989400    292.60478   -22181.908     113.3859   -22295.294    20254.155 
  989600    262.11168   -22193.724    101.56967   -22295.293     12030.23 
  989800    304.63279   -22174.776    118.04682   -22292.823    40358.684 
  990000     327.5964   -22169.147    126.94534   -22296.093    10034.834 
  990200    283.81015   -22195.491    109.97794   -22305.469   -18198.632 
  990400    307.71653   -22182.536    119.24179   -22301.778   -8086.7404 
  990600    315.05916   -22179.517    122.08709   -22301.604    15725.105 
  990800    282.83053   -22177.143    109.59833   -22286.742    -20133.48 
  991000    302.28788   -22176.832    117.13816    -22293.97   -5967.9959 
  991200    293.89713   -22184.678     113.8867   -22298.565    22234.731 
  991400    283.98618   -22185.298    110.04615   -22295.344   -482.42664 
  991600    310.33198   -22166.721    120.25529   -22286.976     9823.017 
  991800    273.22763   -22192.827    105.87716   -22298.704   -1302.9042 
  992000    315.14942   -22186.838    122.12207   -22308.961   -4303.3903 
  992200    291.70877   -22171.593     113.0387   -22284.632    -13319.17 
  992400    308.26624   -22180.113     119.4548   -22299.568   -3764.2138 
  992600    299.14975   -22180.991    115.92212   -22296.913   -5022.3207 
  992800    322.28229   -22166.457     124.8861   -22291.343   -31666.232 
  993000    293.10327    -22189.76    113.57907   -22303.339    4953.0988 
  993200    296.37332   -22183.246    114.84623   -22298.092   -8852.9434 
  993400    311.29932    -22165.37    120.63014       -22286   -6268.1006 
  993600    307.44756   -22189.705    119.13756   -22308.843     14738.44 
  993800    332.95916   -22179.807    129.02344    -22308.83    11186.961 
  994000    294.55177   -22170.656    114.14037   -22284.797   -2428.7474 
  994200    264.72054   -22198.743    102.58061   -22301.323    21310.383 
  994400    310.82686    -22181.58    120.44706   -22302.027   -3506.7613 
  994600    310.14316    -22165.12    120.18212   -22285.302   -3487.5559 
  994800    343.68713   -22148.472    133.18059   -22281.652    4440.6754 
  995000    307.73603   -22179.863    119.24935   -22299.113   -7906.1999 
  995200     281.9319   -22190.835    109.25011   -22300.085    1287.7676 
  995400    319.08423   -22161.591    123.64683   -22285.238    7143.3513 
  995600    289.61353   -22176.593    112.22678    -22288.82    -16122.55 
  995800    266.29066   -22209.813    103.18904   -22313.002    4632.4088 
  996000    274.55203   -22190.872    106.39037   -22297.262    6129.8007 
  996200    325.10074   -22168.482    125.97826    -22294.46    22349.518 
  996400    323.45657   -22167.322    125.34114   -22292.663    1239.7578 
  996600    268.18737   -22191.972    103.92403   -22295.896    22707.708 
  996800    342.92942    -22156.77    132.88697   -22289.657   -14890.691 
  997000    296.29461   -22173.412    114.81573   -22288.228    -9155.492 
  997200    298.19476    -22179.13    115.55205   -22294.682    14706.589 
  997400     295.3904    -22150.82    114.46535   -22265.285     11903.21 
  997600    280.77221   -22174.708    108.80072   -22283.509    11877.462 
  997800    299.99297   -22177.887    116.24887   -22294.136   -9305.0677 
  998000    314.56059   -22159.237     121.8939   -22281.131     33867.14 
  998200    297.22112   -22175.818    115.17476   -22290.993   -17028.707 
  998400    282.15501   -22182.498    109.33656   -22291.834    3768.1951 
  998600    322.35313   -22154.333    124.91355   -22279.247   -7990.5273 
  998800    310.51773   -22174.904    120.32727   -22295.231   -21733.606 
  999000     300.6719   -22182.347    116.51196   -22298.859    20787.054 
  999200    328.10612   -22167.613    127.14286   -22294.756    17079.942 
  999400     280.2966   -22182.932    108.61642   -22291.548     14.81742 
  999600    292.82876   -22187.921     113.4727   -22301.394     16234.27 
  999800    331.14969   -22168.193    128.32226   -22296.516     1377.747 
 1000000    264.52515    -22185.32     102.5049   -22287.825   -15768.551 
Loop time of 14952.4 on 8 procs for 1000000 steps with 131 atoms

Performance: 1.445 ns/day, 16.614 hours/ns, 66.879 timesteps/s
99.7% CPU use with 8 MPI tasks x no OpenMP threads

MPI task timing breakdown:
Section |  min time  |  avg time  |  max time  |%varavg| %total
---------------------------------------------------------------
Pair    | 10139      | 11368      | 11867      | 529.6 | 76.03
Neigh   | 3.8755     | 4.0817     | 4.3206     |   9.1 |  0.03
Comm    | 287.77     | 782.86     | 2009.1     |2016.5 |  5.24
Output  | 0.51346    | 0.54763    | 0.72909    |   9.3 |  0.00
Modify  | 2772.1     | 2776.6     | 2780.4     |   6.6 | 18.57
Other   |            | 20.06      |            |       |  0.13

Nlocal:    16.375 ave 39 max 6 min
Histogram: 4 2 0 0 0 0 0 0 0 2
Nghost:    528.375 ave 550 max 496 min
Histogram: 2 0 0 0 1 1 0 0 1 3
Neighs:    1132.88 ave 2563 max 436 min
Histogram: 4 0 2 0 0 0 0 0 0 2

Total # of neighbors = 9063
Ave neighs/atom = 69.1832
Neighbor list builds = 1866
Dangerous builds = 0

Please see the log.cite file for references relevant to this simulation

Total wall time: 4:10:19
