ITEM: TIMESTEP
0
ITEM: NUMBER OF ATOMS
147
ITEM: BOX BOUNDS pp pp pp
0.0000000000000000e+00 2.1884000000000000e+01
0.0000000000000000e+00 2.1885999999999999e+01
0.0000000000000000e+00 2.1885000000000002e+01
ITEM: ATOMS id type x y z 
145 2 10.603 9.33 8.575 
146 2 9.341 10.137 8.676 
147 3 8.898 10.03 7.799 
9 1 8.524 12.547 12.547 
10 1 1.604 19.466 19.466 
11 1 1.605 19.466 12.547 
12 1 8.524 12.547 19.466 
13 1 1.605 12.547 19.466 
14 1 8.524 19.467 12.547 
15 1 8.524 19.467 19.466 
16 1 1.605 12.547 12.547 
25 1 10.105 10.965 10.965 
26 1 0.023 21.047 21.049 
27 1 0.023 21.047 10.964 
28 1 10.106 10.965 21.047 
29 1 0.023 10.966 21.048 
30 1 10.106 21.049 10.966 
31 1 10.106 21.048 21.049 
32 1 0.024 10.965 10.965 
57 1 5.811 12.218 12.218 
58 1 4.317 19.796 19.795 
59 1 4.318 19.795 12.218 
60 1 5.811 12.219 19.795 
61 1 4.318 12.218 19.795 
62 1 5.811 19.795 12.218 
63 1 5.811 19.796 19.795 
64 1 4.318 12.218 12.218 
65 1 8.853 15.26 12.218 
66 1 1.276 16.754 19.795 
67 1 8.853 16.754 19.795 
68 1 1.276 15.26 12.218 
69 1 1.276 16.754 12.218 
70 1 8.853 15.26 19.796 
71 1 1.276 15.26 19.795 
72 1 8.853 16.753 12.218 
73 1 8.853 12.219 15.26 
74 1 1.276 19.795 16.753 
75 1 1.276 12.218 16.754 
76 1 8.853 19.796 15.26 
77 1 8.853 19.796 16.753 
78 1 1.276 12.218 15.26 
79 1 1.276 19.795 15.26 
80 1 8.853 12.219 16.754 
105 1 7.01 12.317 12.317 
106 1 3.118 19.696 19.696 
107 1 3.119 19.696 12.317 
108 1 7.011 12.317 19.696 
109 1 3.119 12.317 19.696 
110 1 7.01 19.696 12.317 
111 1 7.01 19.697 19.696 
112 1 3.118 12.317 12.317 
113 1 8.754 14.061 12.317 
114 1 1.375 17.953 19.696 
115 1 8.754 17.953 19.696 
116 1 1.375 14.061 12.317 
117 1 1.375 17.953 12.317 
118 1 8.754 14.061 19.696 
119 1 1.375 14.061 19.696 
120 1 8.754 17.953 12.317 
121 1 8.754 12.317 14.061 
122 1 1.375 19.696 17.952 
123 1 1.375 12.317 17.953 
124 1 8.754 19.697 14.061 
125 1 8.754 19.697 17.952 
126 1 1.375 12.317 14.061 
127 1 1.375 19.696 14.061 
128 1 8.754 12.318 17.953 
137 1 9.407 11.664 11.664 
138 1 0.721 20.349 20.35 
139 1 0.721 20.349 11.663 
140 1 9.408 11.664 20.349 
141 1 0.721 11.664 20.35 
142 1 9.407 20.35 11.664 
143 1 9.407 20.35 20.35 
144 1 0.722 11.664 11.663 
1 1 19.466 1.604 1.604 
2 1 12.547 8.524 8.524 
3 1 12.546 8.524 1.604 
4 1 19.466 1.605 8.524 
5 1 12.547 1.604 8.524 
6 1 19.466 8.524 1.605 
7 1 19.466 8.524 8.524 
8 1 12.547 1.604 1.605 
17 1 21.048 0.023 0.022 
18 1 10.965 10.106 10.106 
19 1 10.965 10.106 0.024 
20 1 21.048 0.024 10.107 
21 1 10.965 0.022 10.105 
22 1 21.048 10.105 0.023 
23 1 21.047 10.106 10.106 
24 1 10.965 0.023 0.022 
33 1 16.753 1.275 1.276 
34 1 15.26 8.853 8.853 
35 1 15.26 8.852 1.276 
36 1 16.753 1.275 8.853 
37 1 15.26 1.275 8.853 
38 1 16.753 8.852 1.276 
39 1 16.753 8.853 8.853 
40 1 15.26 1.275 1.276 
41 1 19.795 4.317 1.276 
42 1 12.218 5.811 8.853 
43 1 19.795 5.811 8.853 
44 1 12.218 4.317 1.276 
45 1 12.218 5.811 1.275 
46 1 19.795 4.317 8.853 
47 1 12.218 4.317 8.853 
48 1 19.795 5.811 1.276 
49 1 19.795 1.275 4.317 
50 1 12.218 8.852 5.811 
51 1 12.218 1.276 5.811 
52 1 19.795 8.853 4.318 
53 1 19.795 8.853 5.811 
54 1 12.218 1.275 4.318 
55 1 12.218 8.852 4.317 
56 1 19.795 1.275 5.811 
81 1 17.952 1.374 1.375 
82 1 14.061 8.754 8.754 
83 1 14.06 8.753 1.375 
84 1 17.952 1.374 8.754 
85 1 14.06 1.374 8.754 
86 1 17.952 8.754 1.375 
87 1 17.952 8.754 8.754 
88 1 14.061 1.374 1.375 
89 1 19.696 3.118 1.375 
90 1 12.317 7.01 8.754 
91 1 19.696 7.01 8.754 
92 1 12.317 3.118 1.375 
93 1 12.317 7.01 1.374 
94 1 19.695 3.118 8.754 
95 1 12.317 3.118 8.754 
96 1 19.696 7.01 1.375 
97 1 19.696 1.374 3.118 
98 1 12.317 8.754 7.01 
99 1 12.317 1.375 7.01 
100 1 19.696 8.754 3.118 
101 1 19.696 8.754 7.01 
102 1 12.317 1.374 3.119 
103 1 12.317 8.753 3.118 
104 1 19.696 1.374 7.01 
129 1 20.35 0.722 0.721 
130 1 11.664 9.407 9.407 
131 1 11.663 9.407 0.722 
132 1 20.35 0.722 9.408 
133 1 11.663 0.72 9.407 
134 1 20.35 9.407 0.721 
135 1 20.349 9.407 9.407 
136 1 11.664 0.721 0.721 
ITEM: TIMESTEP
10
ITEM: NUMBER OF ATOMS
147
ITEM: BOX BOUNDS pp pp pp
0.0000000000000000e+00 2.1884000000000000e+01
0.0000000000000000e+00 2.1885999999999999e+01
0.0000000000000000e+00 2.1885000000000002e+01
ITEM: ATOMS id type x y z 
145 2 10.617 9.31457 8.5573 
146 2 9.32987 10.1348 8.65493 
147 3 8.9087 10.0311 7.81883 
9 1 8.51973 12.5513 12.5511 
10 1 1.61206 19.4583 19.4581 
11 1 1.61285 19.4583 12.5549 
12 1 8.51639 12.5552 19.4584 
13 1 1.61291 12.5551 19.4584 
14 1 8.51622 19.4587 12.5552 
15 1 8.51588 19.459 19.4582 
16 1 1.61285 12.5552 12.5549 
25 1 10.116 10.956 10.9573 
26 1 0.0214833 21.0485 21.0503 
27 1 0.0214656 21.0484 10.9629 
28 1 10.1077 10.9638 21.0487 
29 1 0.0214149 10.9646 21.0495 
30 1 10.1072 21.0501 10.9643 
31 1 10.1069 21.0494 21.0502 
32 1 0.0224926 10.9639 10.9634 
57 1 5.81939 12.2192 12.2192 
58 1 4.3088 19.7946 19.7938 
59 1 4.30938 19.7938 12.2192 
60 1 5.81986 12.22 19.7937 
61 1 4.30937 12.2193 19.7938 
62 1 5.81972 19.7937 12.2192 
63 1 5.81933 19.7948 19.7937 
64 1 4.30859 12.2192 12.2192 
65 1 8.85183 15.2515 12.2192 
66 1 1.27727 16.762 19.7938 
67 1 8.85169 16.7623 19.7938 
68 1 1.27726 15.2517 12.2193 
69 1 1.27724 16.762 12.2192 
70 1 8.85184 15.2518 19.7945 
71 1 1.27723 15.2518 19.7937 
72 1 8.8518 16.762 12.2192 
73 1 8.85175 12.2201 15.2519 
74 1 1.27723 19.7938 16.7616 
75 1 1.27723 12.2192 16.7621 
76 1 8.85176 19.7948 15.2511 
77 1 8.85178 19.7948 16.7618 
78 1 1.27726 12.2193 15.2516 
79 1 1.2772 19.7938 15.2513 
80 1 8.85183 12.2203 16.7623 
105 1 7.00707 12.3165 12.3165 
106 1 3.12042 19.6966 19.6964 
107 1 3.12073 19.6964 12.3166 
108 1 7.00834 12.3166 19.6966 
109 1 3.12082 12.3165 19.6964 
110 1 7.00754 19.6968 12.3164 
111 1 7.00786 19.6974 19.6964 
112 1 3.12033 12.3165 12.3165 
113 1 8.75448 14.0639 12.3165 
114 1 1.37444 17.9505 19.6964 
115 1 8.75441 17.9509 19.6964 
116 1 1.37452 14.0633 12.3166 
117 1 1.37455 17.9506 12.3166 
118 1 8.7545 14.0635 19.6966 
119 1 1.37454 14.0632 19.6964 
120 1 8.7546 17.9511 12.3165 
121 1 8.75456 12.3166 14.0642 
122 1 1.37445 19.6964 17.9502 
123 1 1.37452 12.3166 17.9506 
124 1 8.75453 19.6975 14.0629 
125 1 8.75437 19.6974 17.9504 
126 1 1.37451 12.3166 14.0633 
127 1 1.37456 19.6964 14.0627 
128 1 8.75451 12.3175 17.9508 
137 1 9.4079 11.6624 11.6621 
138 1 0.716852 20.3534 20.3542 
139 1 0.717242 20.3534 11.6587 
140 1 9.4119 11.6593 20.3533 
141 1 0.717317 11.6597 20.3539 
142 1 9.4115 20.3547 11.6601 
143 1 9.4117 20.3541 20.354 
144 1 0.717728 11.6594 11.6592 
1 1 19.4582 1.61216 1.61217 
2 1 12.5916 8.48824 8.49222 
3 1 12.5541 8.51585 1.61269 
4 1 19.458 1.61255 8.516 
5 1 12.5547 1.61241 8.51594 
6 1 19.4581 8.51588 1.61279 
7 1 19.4575 8.51588 8.51586 
8 1 12.5551 1.61197 1.61285 
17 1 21.0496 0.0217653 0.0209582 
18 1 10.9648 10.1441 10.1695 
19 1 10.9633 10.1073 0.0223879 
20 1 21.0495 0.0226193 10.108 
21 1 10.9634 0.0203808 10.1065 
22 1 21.0495 10.1064 0.0214824 
23 1 21.0487 10.107 10.1071 
24 1 10.9641 0.0216081 0.0208066 
33 1 16.7617 1.27619 1.27725 
34 1 15.2552 8.85215 8.85214 
35 1 15.2509 8.85069 1.27726 
36 1 16.7617 1.27622 8.85175 
37 1 15.251 1.27625 8.85174 
38 1 16.7617 8.85089 1.27729 
39 1 16.7604 8.85166 8.85166 
40 1 15.2513 1.27623 1.27722 
41 1 19.7938 4.3088 1.27728 
42 1 12.2189 5.81701 8.85187 
43 1 19.7938 5.81951 8.8517 
44 1 12.2193 4.30866 1.27719 
45 1 12.2193 5.81923 1.27631 
46 1 19.7936 4.30896 8.85184 
47 1 12.2194 4.30995 8.85166 
48 1 19.7937 5.81937 1.27726 
49 1 19.7937 1.27625 4.30871 
50 1 12.2189 8.85104 5.81742 
51 1 12.2192 1.27719 5.81975 
52 1 19.7937 8.85174 4.30898 
53 1 19.7938 8.85174 5.81976 
54 1 12.2192 1.2763 4.30924 
55 1 12.2193 8.85062 4.31011 
56 1 19.7937 1.27624 5.81934 
81 1 17.9502 1.37363 1.37451 
82 1 14.0595 8.75323 8.75401 
83 1 14.0625 8.75357 1.37443 
84 1 17.9502 1.37368 8.75444 
85 1 14.0625 1.3735 8.75446 
86 1 17.9502 8.75424 1.37449 
87 1 17.9493 8.75439 8.75438 
88 1 14.0627 1.37363 1.37462 
89 1 19.6964 3.12025 1.3745 
90 1 12.3175 7.01027 8.75356 
91 1 19.6964 7.00765 8.75441 
92 1 12.3166 3.12019 1.37462 
93 1 12.3164 7.00767 1.37356 
94 1 19.6957 3.12042 8.75435 
95 1 12.3165 3.1211 8.75444 
96 1 19.6964 7.00774 1.37452 
97 1 19.6965 1.37356 3.12023 
98 1 12.3178 8.75316 7.01044 
99 1 12.3166 1.37459 7.00825 
100 1 19.6965 8.7545 3.12065 
101 1 19.6964 8.75437 7.00807 
102 1 12.3166 1.37357 3.1207 
103 1 12.3164 8.75349 3.12121 
104 1 19.6965 1.37366 7.00783 
129 1 20.3538 0.717231 0.716444 
130 1 11.6008 9.42475 9.39516 
131 1 11.6591 9.41154 0.717427 
132 1 20.3537 0.717657 9.41227 
133 1 11.6592 0.716238 9.4113 
134 1 20.3537 9.4113 0.717125 
135 1 20.3529 9.41168 9.41161 
136 1 11.6593 0.71681 0.716975 
ITEM: TIMESTEP
20
ITEM: NUMBER OF ATOMS
147
ITEM: BOX BOUNDS pp pp pp
0.0000000000000000e+00 2.1884000000000000e+01
0.0000000000000000e+00 2.1885999999999999e+01
0.0000000000000000e+00 2.1885000000000002e+01
ITEM: ATOMS id type x y z 
145 2 10.6552 9.2998 8.55838 
146 2 9.32156 10.1371 8.64791 
147 3 8.91198 10.0301 7.82406 
9 1 8.51627 12.5543 12.5539 
10 1 1.61698 19.4536 19.4535 
11 1 1.61734 19.4535 12.5596 
12 1 8.51171 12.5601 19.4546 
13 1 1.61756 12.5599 19.4538 
14 1 8.51135 19.4553 12.5599 
15 1 8.51109 19.4542 19.4535 
16 1 1.61683 12.5599 12.5596 
25 1 10.1138 10.9661 10.9725 
26 1 0.0221981 21.048 21.0494 
27 1 0.0221025 21.0481 10.9638 
28 1 10.107 10.9646 21.048 
29 1 0.0222164 10.9651 21.0489 
30 1 10.1064 21.0493 10.9652 
31 1 10.1062 21.0488 21.0493 
32 1 0.0232859 10.9646 10.9641 
57 1 5.81842 12.2203 12.2203 
58 1 4.31056 19.7934 19.7927 
59 1 4.31038 19.7927 12.2203 
60 1 5.81795 12.2209 19.7925 
61 1 4.31094 12.2205 19.7927 
62 1 5.81705 19.7928 12.2202 
63 1 5.81791 19.7936 19.7926 
64 1 4.30922 12.2201 12.2201 
65 1 8.85068 15.2526 12.2203 
66 1 1.27834 16.7603 19.7927 
67 1 8.85056 16.761 19.7928 
68 1 1.27833 15.2539 12.2203 
69 1 1.27834 16.7606 12.2204 
70 1 8.8508 15.2538 19.7932 
71 1 1.27834 15.2532 19.7926 
72 1 8.85089 16.7607 12.2201 
73 1 8.85062 12.2211 15.2528 
74 1 1.2783 19.7927 16.76 
75 1 1.27835 12.2203 16.7604 
76 1 8.85086 19.7938 15.2541 
77 1 8.85068 19.7937 16.7609 
78 1 1.27835 12.2203 15.2539 
79 1 1.27831 19.7927 15.2527 
80 1 8.85088 12.2212 16.7616 
105 1 7.00613 12.3173 12.3172 
106 1 3.12128 19.6955 19.6952 
107 1 3.12175 19.6952 12.3177 
108 1 7.00741 12.318 19.6955 
109 1 3.12174 12.3178 19.6953 
110 1 7.00807 19.6957 12.3175 
111 1 7.0069 19.6962 19.6952 
112 1 3.12008 12.3176 12.3176 
113 1 8.75371 14.0653 12.3172 
114 1 1.37562 17.9498 19.6953 
115 1 8.75314 17.9499 19.6952 
116 1 1.37555 14.0637 12.3178 
117 1 1.37575 17.9495 12.3177 
118 1 8.75331 14.0644 19.6957 
119 1 1.37579 14.064 19.6952 
120 1 8.75366 17.9511 12.3173 
121 1 8.75381 12.3175 14.0652 
122 1 1.37559 19.6953 17.9494 
123 1 1.37571 12.3178 17.9496 
124 1 8.75344 19.6964 14.0625 
125 1 8.75312 19.6961 17.9499 
126 1 1.37552 12.3178 14.0638 
127 1 1.37574 19.6953 14.0637 
128 1 8.75341 12.3186 17.9508 
137 1 9.39965 11.6703 11.6701 
138 1 0.717576 20.3528 20.3536 
139 1 0.718004 20.3529 11.6592 
140 1 9.41112 11.66 20.353 
141 1 0.717889 11.6603 20.3533 
142 1 9.41054 20.3537 11.6603 
143 1 9.41109 20.3535 20.3534 
144 1 0.718131 11.6602 11.6601 
1 1 19.4536 1.61696 1.6171 
2 1 12.6076 8.47495 8.48012 
3 1 12.559 8.51108 1.61996 
4 1 19.4535 1.61709 8.51115 
5 1 12.5592 1.62029 8.51162 
6 1 19.4535 8.51101 1.61732 
7 1 19.4487 8.51132 8.51145 
8 1 12.5598 1.61667 1.61741 
17 1 21.0489 0.0223874 0.0218565 
18 1 10.9911 10.1523 10.2012 
19 1 10.9644 10.1063 0.0225894 
20 1 21.0488 0.0231371 10.107 
21 1 10.9644 0.0209869 10.1058 
22 1 21.0487 10.1058 0.0221997 
23 1 21.0482 10.1063 10.1062 
24 1 10.9648 0.02209 0.0217155 
33 1 16.7601 1.2773 1.27838 
34 1 15.2616 8.85276 8.85281 
35 1 15.2524 8.84947 1.2783 
36 1 16.7599 1.27738 8.85065 
37 1 15.2525 1.27724 8.85048 
38 1 16.7599 8.84988 1.27846 
39 1 16.7607 8.8507 8.85064 
40 1 15.2529 1.27732 1.27834 
41 1 19.7926 4.31049 1.27841 
42 1 12.2183 5.81331 8.8515 
43 1 19.7928 5.81829 8.85043 
44 1 12.2204 4.31038 1.27827 
45 1 12.2205 5.81776 1.27742 
46 1 19.7923 4.3105 8.85078 
47 1 12.2205 4.3107 8.85054 
48 1 19.7926 5.81768 1.27838 
49 1 19.7926 1.27735 4.31048 
50 1 12.2188 8.85083 5.81555 
51 1 12.2204 1.27812 5.81806 
52 1 19.7926 8.8507 4.31071 
53 1 19.7928 8.85045 5.81855 
54 1 12.2203 1.2775 4.31091 
55 1 12.2203 8.8495 4.3111 
56 1 19.7926 1.27739 5.81771 
81 1 17.9494 1.37487 1.37564 
82 1 14.0674 8.75052 8.75289 
83 1 14.0631 8.7523 1.37576 
84 1 17.9492 1.37492 8.75324 
85 1 14.0632 1.37492 8.75316 
86 1 17.9492 8.75296 1.37563 
87 1 17.9514 8.75241 8.75237 
88 1 14.0635 1.37486 1.3758 
89 1 19.6952 3.12112 1.37566 
90 1 12.3225 7.00377 8.75097 
91 1 19.695 7.00726 8.75304 
92 1 12.3178 3.12112 1.37585 
93 1 12.3176 7.00704 1.37493 
94 1 19.6946 3.12128 8.75311 
95 1 12.3183 3.121 8.75284 
96 1 19.6952 7.00702 1.37574 
97 1 19.6953 1.37481 3.12111 
98 1 12.3242 8.7487 7.00568 
99 1 12.3179 1.37591 7.00793 
100 1 19.6953 8.75329 3.12145 
101 1 19.695 8.75305 7.0075 
102 1 12.3178 1.37476 3.12158 
103 1 12.318 8.75193 3.12138 
104 1 19.6952 1.37493 7.00704 
129 1 20.3529 0.717712 0.717041 
130 1 11.5231 9.42853 9.34997 
131 1 11.6593 9.41114 0.718636 
132 1 20.3528 0.718213 9.41161 
133 1 11.6595 0.71717 9.41062 
134 1 20.353 9.41065 0.717797 
135 1 20.3524 9.41111 9.41118 
136 1 11.6599 0.717555 0.717557 
ITEM: TIMESTEP
30
ITEM: NUMBER OF ATOMS
147
ITEM: BOX BOUNDS pp pp pp
0.0000000000000000e+00 2.1884000000000000e+01
0.0000000000000000e+00 2.1885999999999999e+01
0.0000000000000000e+00 2.1885000000000002e+01
ITEM: ATOMS id type x y z 
145 2 10.6667 9.28879 8.54935 
146 2 9.31704 10.1398 8.64774 
147 3 8.91071 10.0297 7.82284 
9 1 8.51504 12.5554 12.5549 
10 1 1.61752 19.4532 19.4531 
11 1 1.61787 19.4532 12.5598 
12 1 8.511 12.5606 19.4548 
13 1 1.61803 12.5602 19.4532 
14 1 8.51091 19.4549 12.5604 
15 1 8.51073 19.4536 19.4534 
16 1 1.61658 12.5604 12.5603 
25 1 10.1178 10.9687 10.9797 
26 1 0.022659 21.0477 21.0489 
27 1 0.0226994 21.0478 10.9642 
28 1 10.1065 10.9648 21.0475 
29 1 0.0227561 10.9654 21.0484 
30 1 10.1059 21.0486 10.9654 
31 1 10.1059 21.0484 21.0487 
32 1 0.0237631 10.965 10.9647 
57 1 5.81517 12.2207 12.2207 
58 1 4.31265 19.7928 19.7922 
59 1 4.31302 19.7922 12.2208 
60 1 5.81586 12.2213 19.792 
61 1 4.31309 12.221 19.7921 
62 1 5.81561 19.7922 12.2207 
63 1 5.81565 19.7931 19.7921 
64 1 4.31125 12.2206 12.2206 
65 1 8.85029 15.2554 12.2208 
66 1 1.27884 16.7581 19.7922 
67 1 8.85009 16.7588 19.7923 
68 1 1.27884 15.2558 12.2208 
69 1 1.27882 16.7582 12.2208 
70 1 8.8503 15.2559 19.7927 
71 1 1.27884 15.2554 19.7921 
72 1 8.85041 16.7598 12.2206 
73 1 8.85022 12.2215 15.2555 
74 1 1.27881 19.7922 16.7579 
75 1 1.27884 12.2208 16.7584 
76 1 8.85027 19.7932 15.2554 
77 1 8.85017 19.7932 16.7581 
78 1 1.27886 12.2208 15.2558 
79 1 1.2788 19.7922 15.2552 
80 1 8.85043 12.2216 16.7598 
105 1 7.00287 12.3175 12.3174 
106 1 3.12377 19.6951 19.6947 
107 1 3.12389 19.6948 12.3182 
108 1 7.00484 12.3185 19.6952 
109 1 3.12409 12.3183 19.6948 
110 1 7.00456 19.6954 12.3179 
111 1 7.00445 19.6957 19.6948 
112 1 3.12267 12.318 12.318 
113 1 8.75338 14.068 12.3175 
114 1 1.37609 17.9472 19.6948 
115 1 8.75261 17.9476 19.6948 
116 1 1.37596 14.0664 12.3183 
117 1 1.37621 17.9473 12.3182 
118 1 8.75283 14.067 19.6954 
119 1 1.37627 14.0664 19.6948 
120 1 8.75329 17.9486 12.3178 
121 1 8.75349 12.3178 14.068 
122 1 1.37605 19.6948 17.9469 
123 1 1.37622 12.3183 17.9473 
124 1 8.75305 19.6961 14.0666 
125 1 8.75279 19.6958 17.947 
126 1 1.37595 12.3183 14.0664 
127 1 1.37617 19.6948 14.0661 
128 1 8.7531 12.3189 17.9483 
137 1 9.39828 11.6717 11.6715 
138 1 0.717498 20.353 20.3537 
139 1 0.717663 20.3531 11.6593 
140 1 9.41136 11.6601 20.3532 
141 1 0.717655 11.6604 20.3535 
142 1 9.4108 20.3541 11.6605 
143 1 9.41096 20.3537 20.3536 
144 1 0.717989 11.6603 11.6599 
1 1 19.453 1.61746 1.61744 
2 1 12.6061 8.47502 8.48062 
3 1 12.5593 8.51071 1.62058 
4 1 19.4529 1.61753 8.51082 
5 1 12.5596 1.62073 8.51142 
6 1 19.453 8.51068 1.61777 
7 1 19.4489 8.51113 8.5113 
8 1 12.56 1.61727 1.61791 
17 1 21.0482 0.022771 0.022198 
18 1 11.001 10.154 10.2108 
19 1 10.9649 10.1059 0.0229674 
20 1 21.0481 0.0234864 10.1067 
21 1 10.965 0.0213808 10.1053 
22 1 21.0481 10.1055 0.0226991 
23 1 21.0481 10.1058 10.1057 
24 1 10.9651 0.0225404 0.022258 
33 1 16.7579 1.27783 1.27889 
34 1 15.2657 8.85277 8.85316 
35 1 15.2546 8.84893 1.27875 
36 1 16.7578 1.2779 8.85014 
37 1 15.2547 1.27766 8.84991 
38 1 16.7577 8.84939 1.27897 
39 1 16.7574 8.8505 8.85036 
40 1 15.2551 1.27784 1.27887 
41 1 19.7921 4.31264 1.27891 
42 1 12.2184 5.80886 8.85156 
43 1 19.7924 5.81583 8.84989 
44 1 12.2209 4.31246 1.27876 
45 1 12.221 5.81556 1.27787 
46 1 19.7918 4.31259 8.85024 
47 1 12.2207 4.3136 8.85016 
48 1 19.7921 5.81551 1.2789 
49 1 19.7921 1.27787 4.31262 
50 1 12.219 8.85077 5.8104 
51 1 12.221 1.27854 5.81604 
52 1 19.7921 8.85019 4.31285 
53 1 19.7924 8.8499 5.81609 
54 1 12.2208 1.27804 4.31306 
55 1 12.2206 8.84909 4.31445 
56 1 19.7921 1.27791 5.81559 
81 1 17.9469 1.37536 1.37612 
82 1 14.0731 8.74963 8.75247 
83 1 14.0657 8.75187 1.37637 
84 1 17.9467 1.37543 8.75274 
85 1 14.0659 1.37559 8.75279 
86 1 17.9466 8.75244 1.37612 
87 1 17.9486 8.75185 8.75181 
88 1 14.0661 1.37533 1.37626 
89 1 19.6947 3.12369 1.37615 
90 1 12.3252 7.00127 8.74923 
91 1 19.6944 7.00429 8.7527 
92 1 12.3183 3.12358 1.37634 
93 1 12.3181 7.00449 1.37559 
94 1 19.6941 3.1238 8.75263 
95 1 12.3189 3.12358 8.75233 
96 1 19.6947 7.00447 1.37623 
97 1 19.6948 1.3753 3.12372 
98 1 12.3279 8.74601 7.00322 
99 1 12.3182 1.37641 7.00477 
100 1 19.6948 8.7528 3.12398 
101 1 19.6943 8.75271 7.00448 
102 1 12.3183 1.37526 3.12409 
103 1 12.3185 8.75141 3.12472 
104 1 19.6947 1.37543 7.00453 
129 1 20.3533 0.717523 0.717226 
130 1 11.5013 9.43081 9.33914 
131 1 11.6592 9.4112 0.718583 
132 1 20.3531 0.718003 9.41143 
133 1 11.6592 0.717318 9.41093 
134 1 20.3532 9.41055 0.717597 
135 1 20.3521 9.4114 9.41148 
136 1 11.66 0.717283 0.71737 
ITEM: TIMESTEP
40
ITEM: NUMBER OF ATOMS
147
ITEM: BOX BOUNDS pp pp pp
0.0000000000000000e+00 2.1884000000000000e+01
0.0000000000000000e+00 2.1885999999999999e+01
0.0000000000000000e+00 2.1885000000000002e+01
ITEM: ATOMS id type x y z 
145 2 10.7092 9.23342 8.49608 
146 2 9.29214 10.1546 8.64689 
147 3 8.90267 10.0291 7.81623 
9 1 8.50537 12.5636 12.5622 
10 1 1.62182 19.4492 19.4493 
11 1 1.62171 19.4494 12.5638 
12 1 8.50685 12.565 19.4521 
13 1 1.62184 12.5644 19.4495 
14 1 8.50623 19.4524 12.5645 
15 1 8.50674 19.4498 19.4489 
16 1 1.6184 12.5649 12.5649 
25 1 10.143 10.9759 11.0089 
26 1 0.0236437 21.0473 21.048 
27 1 0.0237052 21.0476 10.9652 
28 1 10.106 10.9651 21.0469 
29 1 0.0234446 10.9661 21.0477 
30 1 10.1055 21.048 10.9657 
31 1 10.1051 21.0479 21.0478 
32 1 0.0247478 10.9655 10.9652 
57 1 5.81243 12.2219 12.2219 
58 1 4.3131 19.7909 19.7903 
59 1 4.3131 19.7903 12.2226 
60 1 5.81506 12.2228 19.7902 
61 1 4.31323 12.2229 19.7902 
62 1 5.81512 19.7904 12.2223 
63 1 5.81522 19.7912 19.7902 
64 1 4.30961 12.222 12.222 
65 1 8.84899 15.258 12.2221 
66 1 1.28063 16.7578 19.7903 
67 1 8.84828 16.7585 19.7904 
68 1 1.28067 15.2565 12.2225 
69 1 1.28062 16.7579 12.2226 
70 1 8.84857 15.2567 19.7906 
71 1 1.2807 15.2557 19.7903 
72 1 8.84903 16.7616 12.222 
73 1 8.84896 12.2228 15.2572 
74 1 1.28061 19.7903 16.7575 
75 1 1.28065 12.2226 16.758 
76 1 8.84864 19.7914 15.256 
77 1 8.84835 19.7913 16.7584 
78 1 1.28069 12.2225 15.2565 
79 1 1.28066 19.7903 15.2554 
80 1 8.84896 12.223 16.7614 
105 1 7.00163 12.3206 12.3203 
106 1 3.1233 19.6915 19.6912 
107 1 3.12317 19.6912 12.3218 
108 1 7.005 12.3222 19.692 
109 1 3.12336 12.3221 19.6912 
110 1 7.00521 19.692 12.3217 
111 1 7.00509 19.692 19.6911 
112 1 3.12047 12.3211 12.3211 
113 1 8.75009 14.0695 12.3204 
114 1 1.37974 17.9477 19.6912 
115 1 8.74882 17.9484 19.6912 
116 1 1.37893 14.0663 12.3219 
117 1 1.37981 17.948 12.3218 
118 1 8.74929 14.0668 19.6923 
119 1 1.37992 14.0658 19.6911 
120 1 8.74955 17.9514 12.3215 
121 1 8.75017 12.321 14.0689 
122 1 1.37964 19.6912 17.9476 
123 1 1.37984 12.322 17.9481 
124 1 8.74936 19.6927 14.0663 
125 1 8.74896 19.692 17.9483 
126 1 1.37891 12.3219 14.0664 
127 1 1.37977 19.6912 14.0655 
128 1 8.74962 12.3224 17.9513 
137 1 9.39798 11.6737 11.6751 
138 1 0.717862 20.3527 20.3529 
139 1 0.717881 20.3527 11.6601 
140 1 9.41085 11.6607 20.3539 
141 1 0.718492 11.6604 20.3531 
142 1 9.41061 20.3539 11.6605 
143 1 9.41063 20.3533 20.353 
144 1 0.717664 11.6609 11.6606 
1 1 19.4491 1.62158 1.62187 
2 1 12.606 8.47366 8.47993 
3 1 12.5626 8.50748 1.6271 
4 1 19.4491 1.62129 8.5066 
5 1 12.5627 1.62541 8.50796 
6 1 19.449 8.50648 1.62157 
7 1 19.446 8.50791 8.50819 
8 1 12.5641 1.62119 1.6217 
17 1 21.0474 0.0232517 0.0233549 
18 1 11.0365 10.1578 10.2408 
19 1 10.9665 10.1042 0.0237274 
20 1 21.0472 0.0238587 10.1056 
21 1 10.9663 0.0223355 10.1038 
22 1 21.0472 10.1048 0.023498 
23 1 21.0477 10.1047 10.1046 
24 1 10.9658 0.0231522 0.023324 
33 1 16.7577 1.27974 1.28075 
34 1 15.2634 8.85224 8.85408 
35 1 15.2546 8.84692 1.28048 
36 1 16.7573 1.27969 8.84824 
37 1 15.2546 1.27938 8.84791 
38 1 16.7572 8.84755 1.28076 
39 1 16.7582 8.84985 8.84959 
40 1 15.2554 1.27972 1.28079 
41 1 19.7902 4.31302 1.28078 
42 1 12.2209 5.81062 8.85054 
43 1 19.7907 5.81514 8.84806 
44 1 12.2228 4.31308 1.28051 
45 1 12.2231 5.81557 1.27969 
46 1 19.7901 4.31256 8.84829 
47 1 12.2216 4.31599 8.84874 
48 1 19.7902 5.81511 1.28081 
49 1 19.7902 1.27976 4.31299 
50 1 12.2226 8.84905 5.81097 
51 1 12.223 1.28015 5.8163 
52 1 19.7905 8.84833 4.31273 
53 1 19.7908 8.84807 5.81542 
54 1 12.2228 1.27988 4.3132 
55 1 12.2215 8.84771 4.31784 
56 1 19.7902 1.27984 5.81522 
81 1 17.9474 1.37908 1.37973 
82 1 14.0691 8.74204 8.74707 
83 1 14.0652 8.74846 1.38054 
84 1 17.9474 1.37915 8.74912 
85 1 14.0656 1.37997 8.74922 
86 1 17.9471 8.74872 1.3798 
87 1 17.9495 8.74779 8.74757 
88 1 14.0655 1.37905 1.37991 
89 1 19.691 3.12312 1.37979 
90 1 12.3386 7.00315 8.73869 
91 1 19.6902 7.0045 8.74936 
92 1 12.3219 3.12307 1.37997 
93 1 12.3215 7.00494 1.37986 
94 1 19.6906 3.12273 8.74905 
95 1 12.3228 3.12566 8.74835 
96 1 19.6911 7.00499 1.37989 
97 1 19.6911 1.37903 3.12318 
98 1 12.3456 8.73118 7.00444 
99 1 12.3217 1.38064 7.00533 
100 1 19.6911 8.74911 3.12286 
101 1 19.6901 8.74934 7.00473 
102 1 12.3218 1.37902 3.12333 
103 1 12.3223 8.74733 3.12706 
104 1 19.691 1.37915 7.00516 
129 1 20.3524 0.717859 0.717644 
130 1 11.4326 9.44328 9.31379 
131 1 11.6601 9.4106 0.72011 
132 1 20.3526 0.718251 9.41062 
133 1 11.6599 0.719312 9.41082 
134 1 20.3525 9.41013 0.718076 
135 1 20.3507 9.41137 9.41128 
136 1 11.6606 0.717732 0.717863 
ITEM: TIMESTEP
45
ITEM: NUMBER OF ATOMS
147
ITEM: BOX BOUNDS pp pp pp
0.0000000000000000e+00 2.1884000000000000e+01
0.0000000000000000e+00 2.1885999999999999e+01
0.0000000000000000e+00 2.1885000000000002e+01
ITEM: ATOMS id type x y z 
145 2 10.7099 9.2306 8.49245 
146 2 9.2912 10.1552 8.64691 
147 3 8.9023 10.0291 7.81598 
9 1 8.50561 12.5634 12.562 
10 1 1.62135 19.4496 19.4497 
11 1 1.62123 19.4498 12.5634 
12 1 8.50724 12.5646 19.4527 
13 1 1.62144 12.5639 19.4499 
14 1 8.50676 19.4528 12.5641 
15 1 8.50716 19.4502 19.4495 
16 1 1.61807 12.5645 12.5645 
25 1 10.1444 10.9759 11.0098 
26 1 0.0236738 21.0472 21.048 
27 1 0.0237204 21.0475 10.9653 
28 1 10.106 10.9651 21.0469 
29 1 0.0235233 10.9662 21.0477 
30 1 10.1055 21.048 10.9656 
31 1 10.105 21.0479 21.0478 
32 1 0.0247521 10.9655 10.9652 
57 1 5.81211 12.2219 12.2219 
58 1 4.3135 19.7908 19.7902 
59 1 4.31363 19.7902 12.2227 
60 1 5.81452 12.2228 19.7902 
61 1 4.31358 12.2229 19.7902 
62 1 5.81456 19.7904 12.2223 
63 1 5.81485 19.7911 19.7902 
64 1 4.31001 12.222 12.222 
65 1 8.84896 15.2585 12.2222 
66 1 1.28071 16.7574 19.7902 
67 1 8.84821 16.7582 19.7904 
68 1 1.28075 15.2567 12.2225 
69 1 1.28069 16.7575 12.2227 
70 1 8.84851 15.2573 19.7906 
71 1 1.28077 15.2563 19.7902 
72 1 8.84896 16.7613 12.2221 
73 1 8.84892 12.2229 15.2578 
74 1 1.28069 19.7902 16.7572 
75 1 1.28072 12.2227 16.7576 
76 1 8.84858 19.7913 15.2566 
77 1 8.84829 19.7913 16.7579 
78 1 1.28076 12.2226 15.2568 
79 1 1.28073 19.7903 15.2559 
80 1 8.8489 12.2231 16.7609 
105 1 7.00092 12.3207 12.3203 
106 1 3.12384 19.6915 19.6912 
107 1 3.1237 19.6912 12.3218 
108 1 7.00455 12.3222 19.692 
109 1 3.1239 12.3221 19.6912 
110 1 7.00458 19.692 12.3217 
111 1 7.00452 19.692 19.6911 
112 1 3.12072 12.3212 12.3211 
113 1 8.74998 14.07 12.3204 
114 1 1.37974 17.9471 19.6912 
115 1 8.74881 17.9479 19.6912 
116 1 1.3789 14.067 12.3219 
117 1 1.37981 17.9476 12.3218 
118 1 8.74931 14.0672 19.6923 
119 1 1.3799 14.0663 19.6912 
120 1 8.74957 17.9508 12.3215 
121 1 8.75006 12.3211 14.0695 
122 1 1.37964 19.6912 17.947 
123 1 1.37983 12.322 17.9476 
124 1 8.74937 19.6928 14.0669 
125 1 8.74898 19.692 17.9477 
126 1 1.37888 12.3219 14.067 
127 1 1.37975 19.6913 14.066 
128 1 8.74968 12.3223 17.9507 
137 1 9.39846 11.6736 11.6752 
138 1 0.717945 20.3527 20.3529 
139 1 0.717974 20.3527 11.6601 
140 1 9.41085 11.6607 20.3538 
141 1 0.718483 11.6605 20.3531 
142 1 9.41056 20.354 11.6605 
143 1 9.41057 20.3533 20.353 
144 1 0.717654 11.6609 11.6607 
1 1 19.4495 1.62116 1.62133 
2 1 12.6046 8.4744 8.48005 
3 1 12.5622 8.50785 1.62694 
4 1 19.4495 1.6208 8.50702 
5 1 12.5624 1.62532 8.50844 
6 1 19.4494 8.50691 1.6211 
7 1 19.4464 8.50822 8.50849 
8 1 12.5637 1.62081 1.62124 
17 1 21.0473 0.0232962 0.0233855 
18 1 11.0366 10.1583 10.2416 
19 1 10.9666 10.1042 0.0237225 
20 1 21.0471 0.023906 10.1055 
21 1 10.9663 0.0223981 10.1039 
22 1 21.0472 10.1048 0.023547 
23 1 21.0477 10.1047 10.1046 
24 1 10.9659 0.0232093 0.0233577 
33 1 16.7573 1.27982 1.28082 
34 1 15.2648 8.85215 8.85406 
35 1 15.2548 8.84684 1.28056 
36 1 16.7569 1.27976 8.84816 
37 1 15.2551 1.27946 8.84785 
38 1 16.7569 8.84747 1.28083 
39 1 16.7575 8.84977 8.84952 
40 1 15.2558 1.27979 1.28086 
41 1 19.7901 4.31341 1.28085 
42 1 12.2211 5.80998 8.85044 
43 1 19.7906 5.81478 8.848 
44 1 12.2229 4.31329 1.28059 
45 1 12.2232 5.8153 1.27977 
46 1 19.79 4.31305 8.84822 
47 1 12.2217 4.31653 8.84871 
48 1 19.7902 5.81473 1.28089 
49 1 19.7901 1.27982 4.31355 
50 1 12.2231 8.8487 5.81197 
51 1 12.2231 1.28022 5.81574 
52 1 19.7904 8.84825 4.3131 
53 1 19.7907 8.84801 5.81503 
54 1 12.2228 1.27996 4.31359 
55 1 12.2216 8.84767 4.31813 
56 1 19.7901 1.27992 5.81481 
81 1 17.9468 1.37907 1.37973 
82 1 14.0689 8.74204 8.74712 
83 1 14.0656 8.74842 1.38062 
84 1 17.9468 1.37912 8.74912 
85 1 14.066 1.37999 8.74921 
86 1 17.9465 8.74872 1.37979 
87 1 17.9485 8.74784 8.7476 
88 1 14.0661 1.37905 1.37991 
89 1 19.691 3.1237 1.37979 
90 1 12.3389 7.00339 8.73853 
91 1 19.6902 7.00402 8.74934 
92 1 12.3219 3.12373 1.37996 
93 1 12.3215 7.00453 1.37994 
94 1 19.6906 3.12324 8.74905 
95 1 12.3228 3.12594 8.74828 
96 1 19.6911 7.0044 1.37987 
97 1 19.6911 1.37903 3.12367 
98 1 12.3459 8.731 7.00319 
99 1 12.3217 1.38066 7.00493 
100 1 19.6911 8.74912 3.12349 
101 1 19.6901 8.74932 7.00426 
102 1 12.3218 1.37901 3.12397 
103 1 12.3223 8.74726 3.12759 
104 1 19.691 1.37914 7.00456 
129 1 20.3524 0.717882 0.717738 
130 1 11.4327 9.4437 9.31452 
131 1 11.6601 9.41052 0.720217 
132 1 20.3525 0.718254 9.41058 
133 1 11.66 0.719321 9.41069 
134 1 20.3525 9.4101 0.718114 
135 1 20.3507 9.41127 9.4112 
136 1 11.6606 0.717747 0.717942 
ITEM: TIMESTEP
47
ITEM: NUMBER OF ATOMS
147
ITEM: BOX BOUNDS pp pp pp
0.0000000000000000e+00 2.1884000000000000e+01
0.0000000000000000e+00 2.1885999999999999e+01
0.0000000000000000e+00 2.1885000000000002e+01
ITEM: ATOMS id type x y z 
145 2 10.71 9.23039 8.49219 
146 2 9.29113 10.1553 8.64692 
147 3 8.90227 10.0291 7.81596 
9 1 8.50563 12.5634 12.562 
10 1 1.62132 19.4496 19.4497 
11 1 1.62122 19.4498 12.5634 
12 1 8.50724 12.5646 19.4527 
13 1 1.62142 12.5638 19.4499 
14 1 8.50677 19.4529 12.5641 
15 1 8.50718 19.4503 19.4496 
16 1 1.61806 12.5645 12.5644 
25 1 10.1445 10.9759 11.0099 
26 1 0.0236735 21.0472 21.0479 
27 1 0.0237231 21.0475 10.9653 
28 1 10.106 10.9651 21.0469 
29 1 0.0235299 10.9662 21.0477 
30 1 10.1055 21.048 10.9656 
31 1 10.105 21.0479 21.0478 
32 1 0.0247418 10.9655 10.9652 
57 1 5.81208 12.2219 12.2219 
58 1 4.31352 19.7908 19.7902 
59 1 4.31354 19.7902 12.2227 
60 1 5.81461 12.2228 19.7901 
61 1 4.31359 12.2229 19.7902 
62 1 5.81458 19.7903 12.2224 
63 1 5.81483 19.7911 19.7902 
64 1 4.31005 12.222 12.222 
65 1 8.84896 15.2585 12.2222 
66 1 1.28071 16.7574 19.7902 
67 1 8.8482 16.7582 19.7904 
68 1 1.28074 15.2569 12.2225 
69 1 1.28071 16.7576 12.2227 
70 1 8.8485 15.2572 19.7906 
71 1 1.28078 15.2562 19.7902 
72 1 8.84896 16.7613 12.2221 
73 1 8.84892 12.2229 15.2578 
74 1 1.2807 19.7902 16.7572 
75 1 1.28074 12.2227 16.7577 
76 1 8.84858 19.7913 15.2566 
77 1 8.84829 19.7913 16.7578 
78 1 1.28075 12.2226 15.257 
79 1 1.28075 19.7902 15.2558 
80 1 8.84888 12.2231 16.761 
105 1 7.0009 12.3207 12.3203 
106 1 3.12386 19.6915 19.6912 
107 1 3.1238 19.6912 12.3218 
108 1 7.00446 12.3222 19.692 
109 1 3.12392 12.3221 19.6912 
110 1 7.00452 19.692 12.3217 
111 1 7.0045 19.692 19.6911 
112 1 3.1207 12.3212 12.3211 
113 1 8.74997 14.0701 12.3205 
114 1 1.37974 17.9471 19.6912 
115 1 8.74881 17.9479 19.6912 
116 1 1.3789 14.0669 12.3219 
117 1 1.37981 17.9474 12.3218 
118 1 8.74931 14.0673 19.6923 
119 1 1.3799 14.0664 19.6912 
120 1 8.74957 17.9508 12.3215 
121 1 8.75005 12.3211 14.0695 
122 1 1.37964 19.6912 17.9469 
123 1 1.37983 12.322 17.9475 
124 1 8.74936 19.6928 14.0669 
125 1 8.74897 19.692 17.9477 
126 1 1.37888 12.3219 14.0669 
127 1 1.37975 19.6913 14.0661 
128 1 8.74968 12.3223 17.9505 
137 1 9.39849 11.6736 11.6753 
138 1 0.717948 20.3527 20.3529 
139 1 0.71797 20.3527 11.6601 
140 1 9.41086 11.6607 20.3538 
141 1 0.718476 11.6605 20.3531 
142 1 9.41056 20.354 11.6605 
143 1 9.41056 20.3533 20.353 
144 1 0.717662 11.6609 11.6607 
1 1 19.4496 1.62114 1.62133 
2 1 12.6045 8.47441 8.48006 
3 1 12.5622 8.50786 1.62692 
4 1 19.4495 1.6208 8.50704 