ITEM: TIMESTEP
0
ITEM: NUMBER OF ATOMS
48
ITEM: BOX BOUNDS pp pp pp
0.0000000000000000e+00 1.0773000000000000e+01
0.0000000000000000e+00 1.0773000000000000e+01
0.0000000000000000e+00 1.0773000000000000e+01
ITEM: ATOMS id type x y z 
10 1 4.59555 4.59555 4.59555 
11 1 3.08151 3.08151 3.08151 
12 1 3.78542 3.78542 3.78542 
46 1 0.790954 0.790954 0.790954 
47 1 2.30499 2.30499 2.30499 
48 1 1.60108 1.60108 1.60108 
19 1 4.59555 4.59555 6.17745 
20 1 3.08151 3.08151 7.69149 
21 1 3.78542 3.78542 6.98758 
31 1 0.790954 0.790954 9.98205 
32 1 2.30499 2.30499 8.46801 
33 1 1.60108 1.60108 9.17192 
16 1 4.59555 6.17745 4.59555 
17 1 3.08151 7.69149 3.08151 
18 1 3.78542 6.98758 3.78542 
25 1 0.790954 9.98205 0.790954 
26 1 2.30499 8.46801 2.30499 
27 1 1.60108 9.17192 1.60108 
4 1 4.59555 6.17745 6.17745 
5 1 3.08151 7.69149 7.69149 
6 1 3.78542 6.98758 6.98758 
37 1 0.790954 9.98205 9.98205 
38 1 2.30499 8.46801 8.46801 
39 1 1.60108 9.17192 9.17192 
13 1 6.17745 4.59555 4.59555 
14 1 7.69149 3.08151 3.08151 
15 1 6.98758 3.78542 3.78542 
28 1 9.98205 0.790954 0.790954 
29 1 8.46801 2.30499 2.30499 
30 1 9.17192 1.60108 1.60108 
1 1 6.17745 4.59555 6.17745 
2 1 7.69149 3.08151 7.69149 
3 1 6.98758 3.78542 6.98758 
40 1 9.98205 0.790954 9.98205 
41 1 8.46801 2.30499 8.46801 
42 1 9.17192 1.60108 9.17192 
7 1 6.17745 6.17745 4.59555 
8 1 7.69149 7.69149 3.08151 
9 1 6.98758 6.98758 3.78542 
43 1 9.98205 9.98205 0.790954 
44 1 8.46801 8.46801 2.30499 
45 1 9.17192 9.17192 1.60108 
22 1 6.17745 6.17745 6.17745 
23 1 7.69149 7.69149 7.69149 
24 1 6.98758 6.98758 6.98758 
34 1 9.98205 9.98205 9.98205 
35 1 8.46801 8.46801 8.46801 
36 1 9.17192 9.17192 9.17192 
ITEM: TIMESTEP
10
ITEM: NUMBER OF ATOMS
48
ITEM: BOX BOUNDS pp pp pp
0.0000000000000000e+00 1.0773000000000000e+01
0.0000000000000000e+00 1.0773000000000000e+01
0.0000000000000000e+00 1.0773000000000000e+01
ITEM: ATOMS id type x y z 
10 1 4.54525 4.54525 4.54457 
11 1 3.06589 3.06589 3.06586 
12 1 3.77769 3.77769 3.7767 
46 1 0.844318 0.844318 0.844036 
47 1 2.31409 2.31409 2.31444 
48 1 1.61022 1.61022 1.61032 
19 1 4.54377 4.54377 6.2299 
20 1 3.06851 3.06851 7.70429 
21 1 3.78051 3.78051 6.99235 
31 1 0.843104 0.843104 9.93159 
32 1 2.31748 2.31748 8.45542 
33 1 1.60578 1.60578 9.16794 
16 1 4.54371 6.22965 4.54325 
17 1 3.06867 7.704 3.06862 
18 1 3.78064 6.99239 3.78072 
25 1 0.842836 9.93182 0.842774 
26 1 2.31794 8.45491 2.31794 
27 1 1.60619 9.16762 1.60617 
4 1 4.54557 6.22941 6.2294 
5 1 3.06915 7.7038 7.70391 
6 1 3.78134 6.99211 6.9919 
37 1 0.843171 9.93046 9.93032 
38 1 2.3177 8.45529 8.45531 
39 1 1.60604 9.16739 9.16734 
13 1 6.22965 4.54371 4.54325 
14 1 7.704 3.06867 3.06862 
15 1 6.99239 3.78064 3.78072 
28 1 9.93182 0.842836 0.842774 
29 1 8.45491 2.31794 2.31794 
30 1 9.16762 1.60619 1.60617 
1 1 6.22941 4.54557 6.2294 
2 1 7.7038 3.06915 7.70391 
3 1 6.99211 3.78134 6.9919 
40 1 9.93046 0.843171 9.93032 
41 1 8.45529 2.3177 8.45531 
42 1 9.16739 1.60604 9.16734 
7 1 6.22921 6.22921 4.54553 
8 1 7.70364 7.70364 3.06939 
9 1 6.99178 6.99178 3.78153 
43 1 9.93041 9.93041 0.843076 
44 1 8.45497 8.45497 2.31805 
45 1 9.16706 9.16706 1.60633 
22 1 6.2311 6.2311 6.23054 
23 1 7.70044 7.70044 7.70083 
24 1 6.99663 6.99663 6.9957 
34 1 9.9305 9.9305 9.93067 
35 1 8.45302 8.45302 8.45328 
36 1 9.16484 9.16484 9.16437 
ITEM: TIMESTEP
20
ITEM: NUMBER OF ATOMS
48
ITEM: BOX BOUNDS pp pp pp
0.0000000000000000e+00 1.0773000000000000e+01
0.0000000000000000e+00 1.0773000000000000e+01
0.0000000000000000e+00 1.0773000000000000e+01
ITEM: ATOMS id type x y z 
10 1 4.55026 4.55026 4.54937 
11 1 3.06194 3.06194 3.06181 
12 1 3.77443 3.77443 3.77362 
46 1 0.847404 0.847404 0.846691 
47 1 2.31156 2.31156 2.31212 
48 1 1.60644 1.60644 1.60629 
19 1 4.54924 4.54924 6.22717 
20 1 3.07358 3.07358 7.69817 
21 1 3.78626 3.78626 6.98852 
31 1 0.837617 0.837617 9.93836 
32 1 2.31199 2.31199 8.46058 
33 1 1.60064 1.60064 9.17341 
16 1 4.54982 6.22732 4.54918 
17 1 3.07425 7.69772 3.0744 
18 1 3.78682 6.98755 3.78651 
25 1 0.838093 9.9381 0.837773 
26 1 2.31214 8.46044 2.3122 
27 1 1.60076 9.17327 1.60067 
4 1 4.5523 6.2245 6.22387 
5 1 3.07353 7.69865 7.6987 
6 1 3.78695 6.98768 6.98754 
37 1 0.839951 9.93585 9.93525 
38 1 2.31217 8.46021 8.46024 
39 1 1.60198 9.17261 9.17257 
13 1 6.22732 4.54982 4.54918 
14 1 7.69772 3.07425 3.0744 
15 1 6.98755 3.78682 3.78651 
28 1 9.9381 0.838093 0.837773 
29 1 8.46044 2.31214 2.3122 
30 1 9.17327 1.60076 1.60067 
1 1 6.2245 4.5523 6.22387 
2 1 7.69865 3.07353 7.6987 
3 1 6.98768 3.78695 6.98754 
40 1 9.93585 0.839951 9.93525 
41 1 8.46021 2.31217 8.46024 
42 1 9.17261 1.60198 9.17257 
7 1 6.22387 6.22387 4.55213 
8 1 7.69813 7.69813 3.07414 
9 1 6.98702 6.98702 3.78745 
43 1 9.93518 9.93518 0.840056 
44 1 8.46001 8.46001 2.31244 
45 1 9.17234 9.17234 1.60216 
22 1 6.23365 6.23365 6.23242 
23 1 7.69811 7.69811 7.69814 
24 1 6.99292 6.99292 6.99272 
34 1 9.93753 9.93753 9.93713 
35 1 8.44851 8.44851 8.44848 
36 1 9.16073 9.16073 9.16084 
ITEM: TIMESTEP
30
ITEM: NUMBER OF ATOMS
48
ITEM: BOX BOUNDS pp pp pp
0.0000000000000000e+00 1.0773000000000000e+01
0.0000000000000000e+00 1.0773000000000000e+01
0.0000000000000000e+00 1.0773000000000000e+01
ITEM: ATOMS id type x y z 
10 1 4.55017 4.55017 4.54918 
11 1 3.06189 3.06189 3.06166 
12 1 3.77441 3.77441 3.7738 
46 1 0.847297 0.847297 0.846547 
47 1 2.31154 2.31154 2.31206 
48 1 1.60637 1.60637 1.60629 
19 1 4.54944 4.54944 6.22742 
20 1 3.07362 3.07362 7.69838 
21 1 3.78606 3.78606 6.98822 
31 1 0.837564 0.837564 9.9384 
32 1 2.31201 2.31201 8.46049 
33 1 1.60071 1.60071 9.17347 
16 1 4.54993 6.22735 4.54926 
17 1 3.07418 7.69772 3.0743 
18 1 3.78682 6.98768 3.78655 
25 1 0.838014 9.93813 0.837702 
26 1 2.31214 8.46032 2.31221 
27 1 1.6009 9.17335 1.60078 
4 1 4.55243 6.22449 6.2239 
5 1 3.07355 7.6987 7.6988 
6 1 3.7868 6.9877 6.98745 
37 1 0.840176 9.93598 9.93548 
38 1 2.31235 8.46019 8.46033 
39 1 1.60171 9.17256 9.1723 
13 1 6.22735 4.54993 4.54926 
14 1 7.69772 3.07418 3.0743 
15 1 6.98768 3.78682 3.78655 
28 1 9.93813 0.838014 0.837702 
29 1 8.46032 2.31214 2.31221 
30 1 9.17335 1.6009 1.60078 
1 1 6.22449 4.55243 6.2239 
2 1 7.6987 3.07355 7.6988 
3 1 6.9877 3.7868 6.98745 
40 1 9.93598 0.840176 9.93548 
41 1 8.46019 2.31235 8.46033 
42 1 9.17256 1.60171 9.1723 
7 1 6.22388 6.22388 4.55229 
8 1 7.69821 7.69821 3.07419 
9 1 6.98696 6.98696 3.78725 
43 1 9.93537 9.93537 0.840267 
44 1 8.46003 8.46003 2.31263 
45 1 9.17218 9.17218 1.60191 
22 1 6.2335 6.2335 6.23239 
23 1 7.69806 7.69806 7.69822 
24 1 6.99293 6.99293 6.99247 
34 1 9.93734 9.93734 9.93705 
35 1 8.4484 8.4484 8.4485 
36 1 9.16088 9.16088 9.16077 
ITEM: TIMESTEP
40
ITEM: NUMBER OF ATOMS
48
ITEM: BOX BOUNDS pp pp pp
0.0000000000000000e+00 1.0773000000000000e+01
0.0000000000000000e+00 1.0773000000000000e+01
0.0000000000000000e+00 1.0773000000000000e+01
ITEM: ATOMS id type x y z 
10 1 4.55006 4.55006 4.54907 
11 1 3.06184 3.06184 3.06162 
12 1 3.77444 3.77444 3.77382 
46 1 0.847191 0.847191 0.846446 
47 1 2.3115 2.3115 2.31204 
48 1 1.60632 1.60632 1.60624 
19 1 4.54952 4.54952 6.22746 
20 1 3.07356 3.07356 7.69838 
21 1 3.78606 3.78606 6.98832 
31 1 0.837538 0.837538 9.93847 
32 1 2.31205 2.31205 8.46046 
33 1 1.60074 1.60074 9.17344 
16 1 4.55003 6.22741 4.54936 
17 1 3.07412 7.69774 3.07425 
18 1 3.78681 6.98775 3.78653 
25 1 0.83798 9.93821 0.837665 
26 1 2.31218 8.46027 2.31225 
27 1 1.60095 9.17331 1.60083 
4 1 4.5525 6.22448 6.22387 
5 1 3.07351 7.69873 7.69882 
6 1 3.78679 6.98772 6.9875 
37 1 0.840227 9.93608 9.93555 
38 1 2.31235 8.46015 8.46027 
39 1 1.60179 9.17255 9.17235 
13 1 6.22741 4.55003 4.54936 
14 1 7.69774 3.07412 3.07425 
15 1 6.98775 3.78681 3.78654 
28 1 9.93821 0.83798 0.837664 
29 1 8.46027 2.31218 2.31224 
30 1 9.17331 1.60095 1.60083 
1 1 6.22448 4.5525 6.22387 
2 1 7.69873 3.07351 7.69882 
3 1 6.98772 3.78679 6.9875 
40 1 9.93608 0.840227 9.93555 
41 1 8.46015 2.31235 8.46027 
42 1 9.17255 1.60179 9.17235 
7 1 6.22386 6.22386 4.55236 
8 1 7.69824 7.69824 3.07415 
9 1 6.987 6.987 3.78723 
43 1 9.93546 9.93546 0.84032 
44 1 8.45998 8.45998 2.31264 
45 1 9.17218 9.17218 1.60199 
22 1 6.23341 6.23341 6.23228 
23 1 7.69804 7.69804 7.69819 
24 1 6.99286 6.99286 6.99242 
34 1 9.93721 9.93721 9.93691 
35 1 8.44837 8.44837 8.44846 
36 1 9.16093 9.16093 9.16082 
ITEM: TIMESTEP
50
ITEM: NUMBER OF ATOMS
48
ITEM: BOX BOUNDS pp pp pp
0.0000000000000000e+00 1.0773000000000000e+01
0.0000000000000000e+00 1.0773000000000000e+01
0.0000000000000000e+00 1.0773000000000000e+01
ITEM: ATOMS id type x y z 
10 1 4.55005 4.55005 4.54905 
11 1 3.06184 3.06184 3.0616 
12 1 3.77443 3.77443 3.77383 
46 1 0.847177 0.847177 0.84643 
47 1 2.3115 2.3115 2.31203 
48 1 1.60632 1.60632 1.60624 
19 1 4.54954 4.54954 6.22747 
20 1 3.07356 3.07356 7.69839 
21 1 3.78606 3.78606 6.98833 
31 1 0.837532 0.837532 9.93848 
32 1 2.31205 2.31205 8.46045 
33 1 1.60075 1.60075 9.17344 
16 1 4.55005 6.22742 4.54937 
17 1 3.07412 7.69774 3.07424 
18 1 3.78681 6.98776 3.78654 
25 1 0.837976 9.93822 0.837659 
26 1 2.31218 8.46027 2.31225 
27 1 1.60095 9.1733 1.60084 
4 1 4.55251 6.22447 6.22387 
5 1 3.07351 7.69873 7.69883 
6 1 3.78679 6.98773 6.9875 
37 1 0.840236 9.93609 9.93556 
38 1 2.31235 8.46015 8.46026 
39 1 1.6018 9.17254 9.17235 
13 1 6.22742 4.55005 4.54937 
14 1 7.69774 3.07412 3.07424 
15 1 6.98776 3.78681 3.78654 
28 1 9.93822 0.837976 0.837659 
29 1 8.46027 2.31218 2.31225 
30 1 9.1733 1.60095 1.60084 
1 1 6.22447 4.55251 6.22387 
2 1 7.69873 3.07351 7.69883 
3 1 6.98774 3.78679 6.9875 
40 1 9.93609 0.840236 9.93556 
41 1 8.46015 2.31235 8.46026 
42 1 9.17254 1.6018 9.17235 
7 1 6.22385 6.22385 4.55237 
8 1 7.69824 7.69824 3.07414 
9 1 6.987 6.987 3.78723 
43 1 9.93548 9.93548 0.840335 
44 1 8.45997 8.45997 2.31264 
45 1 9.17217 9.17217 1.60199 
22 1 6.2334 6.2334 6.23227 
23 1 7.69803 7.69803 7.69819 
24 1 6.99285 6.99285 6.9924 
34 1 9.9372 9.9372 9.93689 
35 1 8.44837 8.44837 8.44845 
36 1 9.16093 9.16093 9.16083 
ITEM: TIMESTEP
51
ITEM: NUMBER OF ATOMS
48
ITEM: BOX BOUNDS pp pp pp
0.0000000000000000e+00 1.0773000000000000e+01
0.0000000000000000e+00 1.0773000000000000e+01
0.0000000000000000e+00 1.0773000000000000e+01
ITEM: ATOMS id type x y z 
10 1 4.55005 4.55005 4.54904 
11 1 3.06184 3.06184 3.0616 
12 1 3.77443 3.77443 3.77383 
46 1 0.847173 0.847173 0.84643 
47 1 2.3115 2.3115 2.31203 
48 1 1.60632 1.60632 1.60623 
19 1 4.54954 4.54954 6.22748 
20 1 3.07356 3.07356 7.69839 
21 1 3.78606 3.78606 6.98833 
31 1 0.837532 0.837532 9.93848 
32 1 2.31205 2.31205 8.46045 
33 1 1.60075 1.60075 9.17344 
16 1 4.55005 6.22742 4.54937 
17 1 3.07412 7.69774 3.07424 
18 1 3.78681 6.98776 3.78654 
25 1 0.837974 9.93822 0.837659 
26 1 2.31218 8.46026 2.31225 
27 1 1.60096 9.1733 1.60084 
4 1 4.55251 6.22447 6.22387 
5 1 3.07351 7.69873 7.69883 
6 1 3.78679 6.98774 6.9875 
37 1 0.84024 9.93609 9.93556 
38 1 2.31235 8.46015 8.46026 
39 1 1.6018 9.17254 9.17235 
13 1 6.22742 4.55005 4.54937 
14 1 7.69774 3.07412 3.07424 
15 1 6.98776 3.7868 3.78654 
28 1 9.93822 0.837975 0.837658 
29 1 8.46026 2.31218 2.31225 
30 1 9.1733 1.60095 1.60084 
1 1 6.22447 4.55251 6.22387 
2 1 7.69873 3.07351 7.69883 
3 1 6.98774 3.78679 6.9875 
40 1 9.93609 0.84024 9.93556 
41 1 8.46015 2.31235 8.46026 
42 1 9.17254 1.6018 9.17235 
7 1 6.22385 6.22385 4.55237 
8 1 7.69824 7.69824 3.07414 
9 1 6.987 6.987 3.78723 
43 1 9.93548 9.93548 0.840337 
44 1 8.45997 8.45997 2.31264 
45 1 9.17217 9.17217 1.60199 
22 1 6.2334 6.2334 6.23227 
23 1 7.69803 7.69803 7.69819 
24 1 6.99285 6.99285 6.99239 
34 1 9.93719 9.93719 9.93689 
35 1 8.44837 8.44837 8.44845 
36 1 9.16093 9.16093 9.16083 
ITEM: TIMESTEP
53
ITEM: NUMBER OF ATOMS
48
ITEM: BOX BOUNDS pp pp pp
0.0000000000000000e+00 1.0773000000000000e+01
0.0000000000000000e+00 1.0773000000000000e+01
0.0000000000000000e+00 1.0773000000000000e+01
ITEM: ATOMS id type x y z 
10 1 4.55005 4.55005 4.54904 
11 1 3.06184 3.06184 3.0616 
12 1 3.77443 3.77443 3.77383 
46 1 0.847173 0.847173 0.84643 
47 1 2.3115 2.3115 2.31203 
48 1 1.60632 1.60632 1.60623 
19 1 4.54954 4.54954 6.22748 
20 1 3.07356 3.07356 7.69839 
21 1 3.78606 3.78606 6.98833 
31 1 0.837532 0.837532 9.93848 
32 1 2.31205 2.31205 8.46045 
33 1 1.60075 1.60075 9.17344 
16 1 4.55005 6.22742 4.54937 
17 1 3.07412 7.69774 3.07424 
18 1 3.78681 6.98776 3.78654 
25 1 0.837974 9.93822 0.837659 
26 1 2.31218 8.46026 2.31225 
27 1 1.60096 9.1733 1.60084 
4 1 4.55251 6.22447 6.22387 
5 1 3.0735 7.69873 7.69883 
6 1 3.78679 6.98774 6.9875 
37 1 0.84024 9.93609 9.93556 
38 1 2.31235 8.46015 8.46026 
39 1 1.6018 9.17254 9.17235 
13 1 6.22742 4.55005 4.54937 
14 1 7.69774 3.07412 3.07424 
15 1 6.98776 3.7868 3.78654 
28 1 9.93822 0.837975 0.837658 
29 1 8.46026 2.31218 2.31225 
30 1 9.1733 1.60095 1.60084 
1 1 6.22447 4.55251 6.22387 
2 1 7.69873 3.0735 7.69883 
3 1 6.98774 3.78679 6.9875 
40 1 9.93609 0.84024 9.93556 
41 1 8.46015 2.31235 8.46026 
42 1 9.17254 1.6018 9.17235 
7 1 6.22385 6.22385 4.55237 
8 1 7.69824 7.69824 3.07414 
9 1 6.987 6.987 3.78723 
43 1 9.93548 9.93548 0.840337 
44 1 8.45997 8.45997 2.31264 
45 1 9.17217 9.17217 1.60199 
22 1 6.2334 6.2334 6.23227 
23 1 7.69803 7.69803 7.69819 
24 1 6.99285 6.99285 6.99239 
34 1 9.93719 9.93719 9.93689 
35 1 8.44837 8.44837 8.44845 
36 1 9.16093 9.16093 9.16083 
ITEM: TIMESTEP
60
ITEM: NUMBER OF ATOMS
48
ITEM: BOX BOUNDS pp pp pp
-3.7705500000000001e-03 1.0776770549999995e+01
-3.7705500000000001e-03 1.0776770549999995e+01
-3.7705500000000001e-03 1.0776770549999995e+01
ITEM: ATOMS id type x y z 
10 1 4.54946 4.54946 4.54846 
11 1 3.06021 3.06021 3.05998 
12 1 3.77331 3.77331 3.7727 
46 1 0.843995 0.843995 0.843251 
47 1 2.30934 2.30934 2.30988 
48 1 1.60367 1.60367 1.60359 
19 1 4.54895 4.54895 6.22806 
20 1 3.07194 3.07194 7.7 
21 1 3.78494 3.78494 6.98945 
31 1 0.834347 0.834347 9.94167 
32 1 2.3099 2.3099 8.4626 
33 1 1.5981 1.5981 9.17609 
16 1 4.54947 6.22801 4.54878 
17 1 3.0725 7.69936 3.07262 
18 1 3.78569 6.98889 3.78542 
25 1 0.83479 9.94141 0.834474 
26 1 2.31003 8.46242 2.3101 
27 1 1.59831 9.17595 1.59819 
4 1 4.55193 6.22506 6.22445 
5 1 3.07189 7.70035 7.70045 
6 1 3.78567 6.98886 6.98862 
37 1 0.837057 9.93928 9.93875 
38 1 2.3102 8.4623 8.46242 
39 1 1.59915 9.17519 9.175 
13 1 6.22801 4.54947 4.54878 
14 1 7.69936 3.0725 3.07262 
15 1 6.98889 3.78568 3.78542 
28 1 9.94141 0.83479 0.834474 
29 1 8.46242 2.31003 2.3101 
30 1 9.17595 1.59831 1.59819 
1 1 6.22506 4.55193 6.22445 
2 1 7.70035 3.07189 7.70045 
3 1 6.98886 3.78567 6.98862 
40 1 9.93928 0.837057 9.93875 
41 1 8.4623 2.3102 8.46242 
42 1 9.17519 1.59915 9.175 
7 1 6.22444 6.22444 4.55178 
8 1 7.69986 7.69986 3.07252 
9 1 6.98812 6.98812 3.78611 
43 1 9.93866 9.93866 0.837154 
44 1 8.46213 8.46213 2.31049 
45 1 9.17482 9.17482 1.59934 
22 1 6.23399 6.23399 6.23286 
23 1 7.69964 7.69964 7.69981 
24 1 6.99398 6.99398 6.99352 
34 1 9.94038 9.94038 9.94007 
35 1 8.45051 8.45051 8.45059 
36 1 9.16357 9.16357 9.16347 
ITEM: TIMESTEP
70
ITEM: NUMBER OF ATOMS
48
ITEM: BOX BOUNDS pp pp pp
-9.1570500000000034e-03 1.0782157049999988e+01
-9.1570500000000034e-03 1.0782157049999988e+01
-9.1570500000000034e-03 1.0782157049999988e+01
ITEM: ATOMS id type x y z 
10 1 4.54863 4.54863 4.54762 
11 1 3.05789 3.05789 3.05765 
12 1 3.77169 3.77169 3.77109 
46 1 0.839463 0.839463 0.838696 
47 1 2.30628 2.30628 2.30679 
48 1 1.59988 1.59988 1.59984 
19 1 4.54812 4.54812 6.22892 
20 1 3.06963 3.06963 7.70233 
21 1 3.78332 3.78332 6.99103 
31 1 0.829798 0.829798 9.94622 
32 1 2.30682 2.30682 8.46567 
33 1 1.59431 1.59431 9.17988 
16 1 4.54863 6.22885 4.54795 
17 1 3.07019 7.70167 3.07031 
18 1 3.78408 6.99049 3.78382 
25 1 0.830242 9.94596 0.829925 
26 1 2.30695 8.46549 2.30702 
27 1 1.59452 9.17974 1.59441 
4 1 4.55109 6.2259 6.22529 
5 1 3.06957 7.70266 7.70276 
6 1 3.78407 6.99046 6.99022 
37 1 0.832511 9.94383 9.9433 
38 1 2.30712 8.46538 8.46549 
39 1 1.59537 9.17898 9.17878 
13 1 6.22885 4.54863 4.54795 
14 1 7.70167 3.07019 3.07031 
15 1 6.99049 3.78408 3.78382 
28 1 9.94596 0.830242 0.829925 
29 1 8.46549 2.30695 2.30702 
30 1 9.17974 1.59452 1.59441 
1 1 6.2259 4.55109 6.22529 
2 1 7.70266 3.06957 7.70276 
3 1 6.99046 3.78407 6.99022 
40 1 9.94383 0.832511 9.9433 
41 1 8.46538 2.30712 8.46549 
42 1 9.17898 1.59537 9.17878 
7 1 6.22527 6.22527 4.55095 
8 1 7.70217 7.70217 3.07021 
9 1 6.98973 6.98973 3.78451 
43 1 9.94321 9.94321 0.832608 
44 1 8.4652 8.4652 2.30742 
45 1 9.1786 9.1786 1.59556 
22 1 6.23484 6.23484 6.23371 
23 1 7.70195 7.70195 7.70212 
24 1 6.99558 6.99558 6.99513 
34 1 9.94493 9.94493 9.94462 
35 1 8.45357 8.45357 8.45366 
36 1 9.16735 9.16735 9.16725 
ITEM: TIMESTEP
80
ITEM: NUMBER OF ATOMS
48
ITEM: BOX BOUNDS pp pp pp
-1.4543550000000013e-02 1.0787543549999981e+01
-1.4543550000000013e-02 1.0787543549999981e+01
-1.4543550000000013e-02 1.0787543549999981e+01
ITEM: ATOMS id type x y z 
10 1 4.54779 4.54779 4.54678 
11 1 3.05557 3.05557 3.05533 
12 1 3.77008 3.77008 3.76947 
46 1 0.834923 0.834923 0.834156 
47 1 2.3032 2.3032 2.30371 
48 1 1.5961 1.5961 1.59606 
19 1 4.54729 4.54729 6.22976 
20 1 3.06732 3.06732 7.70464 
21 1 3.78172 3.78172 6.99263 
31 1 0.825249 0.825249 9.95077 
32 1 2.30374 2.30374 8.46875 
33 1 1.59053 1.59053 9.18366 
16 1 4.5478 6.22969 4.54711 
17 1 3.06788 7.70398 3.068 
18 1 3.78248 6.99209 3.78222 
25 1 0.825707 9.95052 0.825364 
26 1 2.30389 8.46857 2.30393 
27 1 1.59071 9.18352 1.59065 
4 1 4.55026 6.22674 6.22613 
5 1 3.06726 7.70497 7.70507 
6 1 3.78246 6.99207 6.99182 
37 1 0.827965 9.94838 9.94785 
38 1 2.30404 8.46845 8.46857 
39 1 1.59159 9.18276 9.18257 
13 1 6.22969 4.5478 4.54711 
14 1 7.70398 3.06788 3.068 
15 1 6.99209 3.78248 3.78221 
28 1 9.95052 0.825693 0.825376 
29 1 8.46857 2.30388 2.30395 
30 1 9.18352 1.59074 1.59062 
1 1 6.22674 4.55026 6.22613 
2 1 7.70497 3.06726 7.70507 
3 1 6.99207 3.78246 6.99183 
40 1 9.94838 0.827965 9.94785 
41 1 8.46845 2.30404 8.46857 
42 1 9.18276 1.59159 9.18257 
7 1 6.22612 6.22612 4.55013 
8 1 7.70449 7.70449 3.06792 
9 1 6.99131 6.99131 3.78288 
43 1 9.94776 9.94776 0.828063 
44 1 8.46828 8.46828 2.30434 
45 1 9.18239 9.18239 1.59178 
22 1 6.23568 6.23568 6.23455 
23 1 7.70426 7.70426 7.70443 
24 1 6.99719 6.99719 6.99673 
34 1 9.94948 9.94948 9.94917 
35 1 8.45664 8.45664 8.45672 
36 1 9.17112 9.17112 9.17102 
ITEM: TIMESTEP
90
ITEM: NUMBER OF ATOMS
48
ITEM: BOX BOUNDS pp pp pp
-1.9930050000000029e-02 1.0792930049999974e+01
-1.9930050000000029e-02 1.0792930049999974e+01
-1.9930050000000029e-02 1.0792930049999974e+01
ITEM: ATOMS id type x y z 
10 1 4.54695 4.54695 4.54594 
11 1 3.05325 3.05325 3.05301 
12 1 3.76846 3.76846 3.76786 
46 1 0.830382 0.830382 0.829617 
47 1 2.30012 2.30012 2.30064 
48 1 1.59232 1.59232 1.59227 
19 1 4.54645 4.54645 6.2306 
20 1 3.06501 3.06501 7.70695 
21 1 3.78012 3.78012 6.99424 
31 1 0.8207 0.8207 9.95532 
32 1 2.30067 2.30067 8.47182 
33 1 1.58675 1.58675 9.18744 
16 1 4.54696 6.23054 4.54627 
17 1 3.06557 7.70629 3.06569 
18 1 3.78088 6.9937 3.78061 
25 1 0.821157 9.95507 0.820816 
26 1 2.30081 8.47165 2.30086 
27 1 1.58693 9.1873 1.58687 
4 1 4.54943 6.22757 6.22696 
5 1 3.06495 7.70728 7.70738 
6 1 3.78086 6.99367 6.99343 
37 1 0.82342 9.95293 9.9524 
38 1 2.30097 8.47153 8.47164 
39 1 1.58781 9.18654 9.18635 
13 1 6.23054 4.54696 4.54627 
14 1 7.70629 3.06557 3.06569 
15 1 6.9937 3.78088 3.78061 
28 1 9.95507 0.821144 0.820827 
29 1 8.47164 2.3008 2.30087 
30 1 9.1873 1.58696 1.58684 
1 1 6.22757 4.54943 6.22696 
2 1 7.70728 3.06495 7.70738 
3 1 6.99367 3.78086 6.99343 
40 1 9.95293 0.82342 9.9524 
41 1 8.47153 2.30097 8.47164 
42 1 9.18654 1.58781 9.18635 
7 1 6.22696 6.22696 4.5493 
8 1 7.7068 7.7068 3.06561 
9 1 6.99292 6.99292 3.78127 
43 1 9.95231 9.95231 0.823518 
44 1 8.47135 8.47135 2.30126 
45 1 9.18617 9.18617 1.588 
22 1 6.23653 6.23653 6.2354 
23 1 7.70658 7.70658 7.70674 
24 1 6.9988 6.9988 6.99834 
34 1 9.95403 9.95403 9.95372 
35 1 8.4597 8.4597 8.45979 
36 1 9.17489 9.17489 9.17479 
ITEM: TIMESTEP
100
ITEM: NUMBER OF ATOMS
48
ITEM: BOX BOUNDS pp pp pp
-2.5316550000000045e-02 1.0798316549999967e+01
-2.5316550000000045e-02 1.0798316549999967e+01
-2.5316550000000045e-02 1.0798316549999967e+01
ITEM: ATOMS id type x y z 
10 1 4.54611 4.54611 4.5451 
11 1 3.05093 3.05093 3.05069 
12 1 3.76684 3.76684 3.76624 
46 1 0.825841 0.825841 0.825077 
47 1 2.29705 2.29705 2.29757 
48 1 1.58854 1.58854 1.58849 
19 1 4.54561 4.54561 6.23144 
20 1 3.0627 3.0627 7.70925 
21 1 3.77851 3.77851 6.99585 
31 1 0.816151 0.816151 9.95987 
32 1 2.29759 2.29759 8.4749 
33 1 1.58297 1.58297 9.19122 
16 1 4.54612 6.23138 4.54544 
17 1 3.06326 7.70859 3.06339 
18 1 3.77927 6.99531 3.779 
25 1 0.816607 9.95962 0.816268 
26 1 2.29773 8.47472 2.29778 
27 1 1.58316 9.19108 1.58309 
4 1 4.54859 6.22841 6.2278 
5 1 3.06265 7.70958 7.70969 
6 1 3.77925 6.99528 6.99504 
37 1 0.818874 9.95748 9.95695 
38 1 2.29789 8.47461 8.47472 
39 1 1.58403 9.19032 9.19013 
13 1 6.23138 4.54612 4.54544 
14 1 7.70859 3.06326 3.06339 
15 1 6.99531 3.77927 3.779 
28 1 9.95962 0.816596 0.816278 
29 1 8.47472 2.29772 2.29779 
30 1 9.19108 1.58318 1.58306 
1 1 6.22841 4.54859 6.2278 
2 1 7.70958 3.06265 7.70969 
3 1 6.99528 3.77925 6.99504 
40 1 9.95748 0.818874 9.95695 
41 1 8.47461 2.29789 8.47472 
42 1 9.19032 1.58403 9.19013 
7 1 6.22779 6.22779 4.54846 
8 1 7.7091 7.7091 3.0633 
9 1 6.99453 6.99453 3.77967 
43 1 9.95686 9.95686 0.818972 
44 1 8.47443 8.47443 2.29818 
45 1 9.18995 9.18995 1.58422 
22 1 6.23737 6.23737 6.23624 
23 1 7.70889 7.70889 7.70905 
24 1 7.0004 7.0004 6.99994 
34 1 9.95858 9.95858 9.95827 
35 1 8.46277 8.46277 8.46286 
36 1 9.17866 9.17866 9.17856 
ITEM: TIMESTEP
110
ITEM: NUMBER OF ATOMS
48
ITEM: BOX BOUNDS pp pp pp
-3.0703050000000062e-02 1.0803703049999960e+01
-3.0703050000000062e-02 1.0803703049999960e+01
-3.0703050000000062e-02 1.0803703049999960e+01
ITEM: ATOMS id type x y z 
10 1 4.54528 4.54528 4.54427 
11 1 3.04861 3.04861 3.04837 
12 1 3.76523 3.76523 3.76462 
46 1 0.8213 0.8213 0.820537 
47 1 2.29397 2.29397 2.2945 
48 1 1.58476 1.58476 1.5847 
19 1 4.54478 4.54478 6.23228 
20 1 3.06039 3.06039 7.71156 
21 1 3.7769 3.7769 6.99746 
31 1 0.811609 0.811609 9.96444 
32 1 2.29451 2.29451 8.478 
33 1 1.57918 1.57918 9.19497 
16 1 4.54529 6.23222 4.5446 
17 1 3.06095 7.7109 3.06108 
18 1 3.77766 6.99692 3.7774 
25 1 0.812057 9.96417 0.81172 
26 1 2.29465 8.4778 2.2947 
27 1 1.57938 9.19486 1.57931 
4 1 4.54776 6.22925 6.22864 
5 1 3.06034 7.71189 7.71199 
6 1 3.77764 6.99689 6.99665 
37 1 0.814327 9.96203 9.9615 
38 1 2.29481 8.47769 8.4778 
39 1 1.58026 9.1941 9.1939 
13 1 6.23222 4.54529 4.5446 
14 1 7.7109 3.06095 3.06108 
15 1 6.99692 3.77766 3.7774 
28 1 9.96417 0.812047 0.811729 
29 1 8.4778 2.29464 2.29471 
30 1 9.19486 1.5794 1.57929 
1 1 6.22925 4.54776 6.22864 
2 1 7.71189 3.06034 7.71199 
3 1 6.99689 3.77764 6.99665 
40 1 9.96203 0.814327 9.9615 
41 1 8.47769 2.29481 8.4778 
42 1 9.1941 1.58026 9.1939 
7 1 6.22863 6.22863 4.54763 
8 1 7.71141 7.71141 3.06099 
9 1 6.99614 6.99614 3.77806 
43 1 9.96141 9.96141 0.814425 
44 1 8.47751 8.47751 2.2951 
45 1 9.19372 9.19372 1.58045 
22 1 6.23822 6.23822 6.23709 
23 1 7.7112 7.7112 7.71136 
24 1 7.00201 7.00201 7.00155 
34 1 9.96313 9.96313 9.96282 
35 1 8.46584 8.46584 8.46592 
36 1 9.18243 9.18243 9.18233 
ITEM: TIMESTEP
120
ITEM: NUMBER OF ATOMS
48
ITEM: BOX BOUNDS pp pp pp
-3.6089550000000081e-02 1.0809089549999953e+01
-3.6089550000000081e-02 1.0809089549999953e+01
-3.6089550000000081e-02 1.0809089549999953e+01
ITEM: ATOMS id type x y z 
10 1 4.54444 4.54444 4.54343 
11 1 3.04629 3.04629 3.04606 
12 1 3.76361 3.76361 3.763 
46 1 0.816758 0.816758 0.815997 
47 1 2.2909 2.2909 2.29142 
48 1 1.58098 1.58098 1.58092 
19 1 4.54394 4.54394 6.23312 
20 1 3.05809 3.05809 7.71386 
21 1 3.77529 3.77529 6.99908 
31 1 0.807058 0.807058 9.96899 
32 1 2.29143 2.29143 8.48108 
33 1 1.5754 1.5754 9.19875 
16 1 4.54445 6.23306 4.54377 
17 1 3.05865 7.7132 3.05877 
18 1 3.77605 6.99853 3.77579 
25 1 0.807506 9.96872 0.80717 
26 1 2.29157 8.48089 2.29162 
27 1 1.57561 9.19863 1.57553 
4 1 4.54693 6.23008 6.22947 
5 1 3.05803 7.7142 7.7143 
6 1 3.77603 6.9985 6.99826 
37 1 0.809778 9.96658 9.96605 
38 1 2.29172 8.48077 8.48088 
39 1 1.57648 9.19788 9.19768 
13 1 6.23306 4.54445 4.54377 
14 1 7.7132 3.05865 3.05877 
15 1 6.99853 3.77605 3.77579 
28 1 9.96872 0.807497 0.807179 
29 1 8.48088 2.29156 2.29163 
30 1 9.19864 1.57563 1.57551 
1 1 6.23008 4.54693 6.22947 
2 1 7.7142 3.05803 7.7143 
3 1 6.9985 3.77603 6.99826 
40 1 9.96658 0.809778 9.96605 
41 1 8.48077 2.29172 8.48088 
42 1 9.19788 1.57648 9.19768 
7 1 6.22946 6.22946 4.54679 
8 1 7.71371 7.71371 3.05868 
9 1 6.99775 6.99775 3.77646 
43 1 9.96596 9.96596 0.809876 
44 1 8.48059 8.48059 2.29202 
45 1 9.1975 9.1975 1.57667 
22 1 6.23907 6.23907 6.23793 
23 1 7.71351 7.71351 7.71368 
24 1 7.00361 7.00361 7.00315 
34 1 9.96768 9.96768 9.96737 
35 1 8.46891 8.46891 8.469 
36 1 9.18619 9.18619 9.18609 
ITEM: TIMESTEP
130
ITEM: NUMBER OF ATOMS
48
ITEM: BOX BOUNDS pp pp pp
-4.1476050000000098e-02 1.0814476049999946e+01
-4.1476050000000098e-02 1.0814476049999946e+01
-4.1476050000000098e-02 1.0814476049999946e+01
ITEM: ATOMS id type x y z 
10 1 4.54361 4.54361 4.5426 
11 1 3.04398 3.04398 3.04375 
12 1 3.76199 3.76199 3.76138 
46 1 0.812213 0.812213 0.811454 
47 1 2.28783 2.28783 2.28835 
48 1 1.5772 1.5772 1.57713 
19 1 4.54311 4.54311 6.23395 
20 1 3.05579 3.05579 7.71616 
21 1 3.77368 3.77368 7.0007 
31 1 0.802504 0.802504 9.97355 
32 1 2.28835 2.28835 8.48416 
33 1 1.57163 1.57163 9.20253 
16 1 4.54362 6.23389 4.54293 
17 1 3.05635 7.7155 3.05647 
18 1 3.77444 7.00014 3.77417 
25 1 0.802951 9.97328 0.802619 
26 1 2.28848 8.48397 2.28854 
27 1 1.57184 9.20241 1.57175 
4 1 4.54609 6.23092 6.23031 
5 1 3.05573 7.7165 7.7166 
6 1 3.77442 7.00012 6.99987 
37 1 0.805224 9.97113 9.9706 
38 1 2.28864 8.48385 8.48397 
39 1 1.57271 9.20165 9.20145 
13 1 6.23389 4.54362 4.54293 
14 1 7.7155 3.05635 3.05647 
15 1 7.00014 3.77444 3.77417 
28 1 9.97328 0.802944 0.802626 
29 1 8.48397 2.28847 2.28854 
30 1 9.20241 1.57186 1.57174 
1 1 6.23092 4.54609 6.23031 
2 1 7.7165 3.05573 7.7166 
3 1 7.00012 3.77442 6.99987 
40 1 9.97113 0.805224 9.9706 
41 1 8.48385 2.28864 8.48397 
42 1 9.20165 1.57271 9.20145 
7 1 6.2303 6.2303 4.54596 
8 1 7.71601 7.71601 3.05638 
9 1 6.99937 6.99937 3.77485 
43 1 9.97051 9.97051 0.805322 
44 1 8.48368 8.48368 2.28894 
45 1 9.20127 9.20127 1.5729 
22 1 6.23991 6.23991 6.23877 
23 1 7.71583 7.71583 7.71599 
24 1 7.00521 7.00521 7.00475 
34 1 9.97223 9.97223 9.97192 
35 1 8.47199 8.47199 8.47207 
36 1 9.18996 9.18996 9.18986 
ITEM: TIMESTEP
140
ITEM: NUMBER OF ATOMS
48
ITEM: BOX BOUNDS pp pp pp
-4.6862550000000114e-02 1.0819862549999939e+01
-4.6862550000000114e-02 1.0819862549999939e+01
-4.6862550000000114e-02 1.0819862549999939e+01
ITEM: ATOMS id type x y z 
10 1 4.54278 4.54278 4.54177 
11 1 3.04168 3.04168 3.04144 
12 1 3.76037 3.76037 3.75977 
46 1 0.80766 0.80766 0.806905 
47 1 2.28475 2.28475 2.28528 
48 1 1.57341 1.57341 1.57334 
19 1 4.54228 4.54228 6.23477 
20 1 3.05349 3.05349 7.71845 
21 1 3.77207 3.77207 7.00232 
31 1 0.797943 0.797943 9.97811 
32 1 2.28525 2.28525 8.48725 
33 1 1.56787 1.56787 9.2063 
16 1 4.54279 6.23471 4.5421 
17 1 3.05405 7.7178 3.05418 
18 1 3.77282 7.00176 3.77255 
25 1 0.798389 9.97784 0.798061 
26 1 2.28539 8.48706 2.28545 
27 1 1.56808 9.20617 1.56798 
4 1 4.54527 6.23175 6.23113 
5 1 3.05344 7.71879 7.71889 
6 1 3.7728 7.00174 7.00149 
37 1 0.80066 9.97569 9.97516 
38 1 2.28555 8.48694 8.48706 
39 1 1.56894 9.20542 9.20522 
13 1 6.23471 4.54279 4.5421 
14 1 7.7178 3.05405 3.05418 
15 1 7.00176 3.77282 3.77255 
28 1 9.97784 0.798384 0.798066 
29 1 8.48706 2.28538 2.28545 
30 1 9.20618 1.56809 1.56797 
1 1 6.23175 4.54527 6.23113 
2 1 7.71879 3.05344 7.71889 
3 1 7.00174 3.7728 7.00149 
40 1 9.97569 0.80066 9.97516 
41 1 8.48694 2.28555 8.48706 
42 1 9.20542 1.56894 9.20522 
7 1 6.23112 6.23112 4.54513 
8 1 7.7183 7.7183 3.05408 
9 1 7.00099 7.00099 3.77323 
43 1 9.97507 9.97507 0.800758 
44 1 8.48677 8.48677 2.28585 
45 1 9.20504 9.20504 1.56913 
22 1 6.24074 6.24074 6.23961 
23 1 7.71814 7.71814 7.7183 
24 1 7.00682 7.00682 7.00635 
34 1 9.97679 9.97679 9.97648 
35 1 8.47507 8.47507 8.47516 
36 1 9.19373 9.19373 9.19363 
ITEM: TIMESTEP
150
ITEM: NUMBER OF ATOMS
48
ITEM: BOX BOUNDS pp pp pp
-5.2249050000000130e-02 1.0825249049999933e+01
-5.2249050000000130e-02 1.0825249049999933e+01
-5.2249050000000130e-02 1.0825249049999933e+01
ITEM: ATOMS id type x y z 
10 1 4.54197 4.54197 4.54096 
11 1 3.03941 3.03941 3.03917 
12 1 3.75875 3.75875 3.75814 
46 1 0.803079 0.803079 0.802329 
47 1 2.28167 2.28167 2.28221 
48 1 1.56962 1.56962 1.56954 
19 1 4.54147 4.54147 6.23555 
20 1 3.05121 3.05121 7.72072 
21 1 3.77043 3.77043 7.00396 
31 1 0.793357 0.793357 9.98269 
32 1 2.28213 2.28213 8.49036 
33 1 1.56413 1.56413 9.21006 
16 1 4.54199 6.2355 4.5413 
17 1 3.05178 7.72007 3.05191 
18 1 3.77118 7.0034 3.77091 
25 1 0.793799 9.98243 0.793482 
26 1 2.28227 8.49017 2.28234 
27 1 1.56434 9.20992 1.56423 
4 1 4.54447 6.23255 6.23194 
5 1 3.05116 7.72106 7.72117 
6 1 3.77116 7.00338 7.00314 
37 1 0.796063 9.98028 9.97975 
38 1 2.28244 8.49006 8.49017 
39 1 1.56519 9.20916 9.20897 
13 1 6.2355 4.54199 4.5413 
14 1 7.72007 3.05178 3.05191 
15 1 7.0034 3.77118 3.77091 
28 1 9.98243 0.793798 0.793482 
29 1 8.49017 2.28227 2.28234 
30 1 9.20992 1.56434 1.56423 
1 1 6.23255 4.54447 6.23194 
2 1 7.72106 3.05116 7.72117 
3 1 7.00338 3.77116 7.00313 
40 1 9.98028 0.796063 9.97975 
41 1 8.49006 2.28244 8.49017 
42 1 9.20916 1.56519 9.20897 
7 1 6.23193 6.23193 4.54432 
8 1 7.72057 7.72057 3.0518 
9 1 7.00264 7.00264 3.7716 
43 1 9.97966 9.97966 0.796161 
44 1 8.48988 8.48988 2.28274 
45 1 9.20879 9.20879 1.56538 
22 1 6.24155 6.24155 6.24042 
23 1 7.72045 7.72045 7.72061 
24 1 7.00841 7.00841 7.00794 
34 1 9.98137 9.98137 9.98107 
35 1 8.47819 8.47819 8.47827 
36 1 9.19749 9.19749 9.19739 
ITEM: TIMESTEP
160
ITEM: NUMBER OF ATOMS
48
ITEM: BOX BOUNDS pp pp pp