LAMMPS (3 Mar 2020)
# Alpha
clear
units		real
dimension 3
boundary        p p p
atom_style	charge
newton on
read_data       OH_1.lmp
  orthogonal box = (0 0 0) to (11 11.002 11)
  2 by 2 by 2 MPI processor grid
  reading atoms ...
  50 atoms
  read_data CPU = 0.0033704 secs

timestep 0.25

# ---------- Define Interatomic Potential ---------------------
pair_style      reax/c NULL checkqeq no
pair_coeff      * * ffield.reax C H O
WARNING: Changed valency_val to valency_boc for X (../reaxc_ffield.cpp:315)
fix             2 all qeq/reax 1 0.0 10.0 1.0e-6 reax/c

#------------ Equilibration of the system -------------------------
reset_timestep 0

dump 1 all custom 10 min.lammpstrj id type x y z

minimize 1.0e-8 1.0e-8 100000 100000
WARNING: Using 'neigh_modify every 1 delay 0 check yes' setting during minimization (../min.cpp:190)
Neighbor list info ...
  update every 1 steps, delay 0 steps, check yes
  max neighbors/atom: 2000, page size: 100000
  master list distance cutoff = 12
  ghost atom cutoff = 12
  binsize = 6, bins = 2 2 2
  2 neighbor lists, perpetual/occasional/extra = 2 0 0
  (1) pair reax/c, perpetual
      attributes: half, newton off, ghost
      pair build: half/bin/newtoff/ghost
      stencil: half/ghost/bin/3d/newtoff
      bin: standard
  (2) fix qeq/reax, perpetual, copy from (1)
      attributes: half, newton off, ghost
      pair build: copy
      stencil: none
      bin: none
Per MPI rank memory allocation (min/avg/max) = 25.13 | 25.28 | 25.44 Mbytes
Step Temp E_pair E_mol TotEng Press 
       0            0   -8511.4503            0   -8511.4503    113442.63 
     107            0   -8832.0907            0   -8832.0907    38696.505 
Loop time of 4.9562 on 8 procs for 107 steps with 50 atoms

98.9% CPU use with 8 MPI tasks x no OpenMP threads

Minimization stats:
  Stopping criterion = energy tolerance
  Energy initial, next-to-last, final = 
        -8511.45025235     -8832.09061232     -8832.09070032
  Force two-norm initial, final = 1132.2 58.188
  Force max component initial, final = 269.25 13.3692
  Final line search alpha, max atom move = 6.83906e-08 9.1433e-07
  Iterations, force evaluations = 107 965

MPI task timing breakdown:
Section |  min time  |  avg time  |  max time  |%varavg| %total
---------------------------------------------------------------
Pair    | 4.11       | 4.1929     | 4.2984     |   2.4 | 84.60
Neigh   | 0          | 0          | 0          |   0.0 |  0.00
Comm    | 0.05096    | 0.15677    | 0.2396     |  12.6 |  3.16
Output  | 0.00033641 | 0.00042945 | 0.00071563 |   0.0 |  0.01
Modify  | 0.59536    | 0.59571    | 0.59597    |   0.0 | 12.02
Other   |            | 0.01044    |            |       |  0.21

Nlocal:    6.25 ave 8 max 6 min
Histogram: 7 0 0 0 0 0 0 0 0 1
Nghost:    970.75 ave 980 max 962 min
Histogram: 4 0 0 0 0 0 0 0 1 3
Neighs:    1766.62 ave 2255 max 1687 min
Histogram: 7 0 0 0 0 0 0 0 0 1

Total # of neighbors = 14133
Ave neighs/atom = 282.66
Neighbor list builds = 0
Dangerous builds = 0

###
min_style cg
minimize 1.0e-8 1.0e-8 100000 100000
WARNING: Using 'neigh_modify every 1 delay 0 check yes' setting during minimization (../min.cpp:190)
Per MPI rank memory allocation (min/avg/max) = 25.13 | 25.28 | 25.44 Mbytes
Step Temp E_pair E_mol TotEng Press 
     107            0   -8832.0907            0   -8832.0907    38696.507 
     109            0   -8832.0909            0   -8832.0909    38696.364 
Loop time of 0.193891 on 8 procs for 2 steps with 50 atoms

98.4% CPU use with 8 MPI tasks x no OpenMP threads

Minimization stats:
  Stopping criterion = energy tolerance
  Energy initial, next-to-last, final = 
        -8832.09069954     -8832.09081538     -8832.09088056
  Force two-norm initial, final = 58.188 57.5922
  Force max component initial, final = 13.3692 14.0536
  Final line search alpha, max atom move = 3.52982e-08 4.96066e-07
  Iterations, force evaluations = 2 39

MPI task timing breakdown:
Section |  min time  |  avg time  |  max time  |%varavg| %total
---------------------------------------------------------------
Pair    | 0.16831    | 0.17051    | 0.17281    |   0.3 | 87.94
Neigh   | 0          | 0          | 0          |   0.0 |  0.00
Comm    | 0.0018773  | 0.0042072  | 0.0064124  |   2.0 |  2.17
Output  | 0          | 0          | 0          |   0.0 |  0.00
Modify  | 0.018653   | 0.018673   | 0.018694   |   0.0 |  9.63
Other   |            | 0.0005026  |            |       |  0.26

Nlocal:    6.25 ave 8 max 6 min
Histogram: 7 0 0 0 0 0 0 0 0 1
Nghost:    966.25 ave 971 max 962 min
Histogram: 4 0 0 0 0 0 0 1 0 3
Neighs:    1764.62 ave 2243 max 1684 min
Histogram: 7 0 0 0 0 0 0 0 0 1

Total # of neighbors = 14117
Ave neighs/atom = 282.34
Neighbor list builds = 0
Dangerous builds = 0

###
fix 1 all box/relax aniso 0.0
min_style cg
minimize 1.0e-8 1.0e-8 100000 100000
WARNING: Using 'neigh_modify every 1 delay 0 check yes' setting during minimization (../min.cpp:190)
Per MPI rank memory allocation (min/avg/max) = 25.13 | 25.28 | 25.44 Mbytes
Step Temp E_pair E_mol TotEng Press Volume 
     109            0   -8832.0909            0   -8832.0909    38696.362     1331.242 
     214            0   -8837.3107            0   -8837.3107    60.559387    1347.2242 
Loop time of 0.74041 on 8 procs for 105 steps with 50 atoms

98.7% CPU use with 8 MPI tasks x no OpenMP threads

Minimization stats:
  Stopping criterion = energy tolerance
  Energy initial, next-to-last, final = 
         -8832.0908815     -8837.31058792     -8837.31066215
  Force two-norm initial, final = 1302.55 51.5141
  Force max component initial, final = 755.752 10.2187
  Final line search alpha, max atom move = 3.2186e-05 0.000328899
  Iterations, force evaluations = 105 152

MPI task timing breakdown:
Section |  min time  |  avg time  |  max time  |%varavg| %total
---------------------------------------------------------------
Pair    | 0.65199    | 0.65739    | 0.66578    |   0.5 | 88.79
Neigh   | 0          | 0          | 0          |   0.0 |  0.00
Comm    | 0.0083382  | 0.016796   | 0.022248   |   3.2 |  2.27
Output  | 0.00032693 | 0.00047148 | 0.00080266 |   0.0 |  0.06
Modify  | 0.0608     | 0.060857   | 0.06093    |   0.0 |  8.22
Other   |            | 0.004891   |            |       |  0.66

Nlocal:    6.25 ave 8 max 6 min
Histogram: 7 0 0 0 0 0 0 0 0 1
Nghost:    966.25 ave 971 max 962 min
Histogram: 4 0 0 0 0 0 0 1 0 3
Neighs:    1764.62 ave 2243 max 1684 min
Histogram: 7 0 0 0 0 0 0 0 0 1

Total # of neighbors = 14117
Ave neighs/atom = 282.34
Neighbor list builds = 0
Dangerous builds = 0

unfix 1
###
min_style cg
minimize 1.0e-8 1.0e-8 100000 100000
WARNING: Using 'neigh_modify every 1 delay 0 check yes' setting during minimization (../min.cpp:190)
Per MPI rank memory allocation (min/avg/max) = 25.13 | 25.28 | 25.44 Mbytes
Step Temp E_pair E_mol TotEng Press 
     214            0   -8837.3107            0   -8837.3107    60.547193 
     229            0   -8837.3671            0   -8837.3671    660.51928 
Loop time of 1.08758 on 8 procs for 15 steps with 50 atoms

99.0% CPU use with 8 MPI tasks x no OpenMP threads

Minimization stats:
  Stopping criterion = energy tolerance
  Energy initial, next-to-last, final = 
         -8837.3106651     -8837.36713684     -8837.36713713
  Force two-norm initial, final = 51.468 43.3426
  Force max component initial, final = 10.2187 9.4057
  Final line search alpha, max atom move = 2.03574e-09 1.91475e-08
  Iterations, force evaluations = 15 233

MPI task timing breakdown:
Section |  min time  |  avg time  |  max time  |%varavg| %total
---------------------------------------------------------------
Pair    | 0.92303    | 0.93632    | 0.95739    |   1.1 | 86.09
Neigh   | 0          | 0          | 0          |   0.0 |  0.00
Comm    | 0.01209    | 0.033039   | 0.046279   |   6.0 |  3.04
Output  | 3.1459e-05 | 3.833e-05  | 5.7948e-05 |   0.0 |  0.00
Modify  | 0.11584    | 0.11588    | 0.11591    |   0.0 | 10.66
Other   |            | 0.002294   |            |       |  0.21

Nlocal:    6.25 ave 8 max 6 min
Histogram: 7 0 0 0 0 0 0 0 0 1
Nghost:    932.5 ave 947 max 917 min
Histogram: 1 1 0 1 1 0 1 0 1 2
Neighs:    1754.62 ave 2219 max 1677 min
Histogram: 7 0 0 0 0 0 0 0 0 1

Total # of neighbors = 14037
Ave neighs/atom = 280.74
Neighbor list builds = 0
Dangerous builds = 0

###
fix 1 all box/relax aniso 0.0
min_style cg
minimize 1.0e-8 1.0e-8 100000 100000
WARNING: Using 'neigh_modify every 1 delay 0 check yes' setting during minimization (../min.cpp:190)
Per MPI rank memory allocation (min/avg/max) = 25.13 | 25.28 | 25.44 Mbytes
Step Temp E_pair E_mol TotEng Press Volume 
     229            0   -8837.3671            0   -8837.3671     660.5334    1347.2242 
     231            0   -8837.3674            0   -8837.3674    381.21614    1347.2398 
Loop time of 0.0773684 on 8 procs for 2 steps with 50 atoms

99.4% CPU use with 8 MPI tasks x no OpenMP threads

Minimization stats:
  Stopping criterion = energy tolerance
  Energy initial, next-to-last, final = 
        -8837.36713364     -8837.36734179      -8837.3674191
  Force two-norm initial, final = 48.8256 47.0418
  Force max component initial, final = 13.1695 10.4479
  Final line search alpha, max atom move = 1.43809e-07 1.50251e-06
  Iterations, force evaluations = 2 16

MPI task timing breakdown:
Section |  min time  |  avg time  |  max time  |%varavg| %total
---------------------------------------------------------------
Pair    | 0.067427   | 0.068534   | 0.070034   |   0.3 | 88.58
Neigh   | 0          | 0          | 0          |   0.0 |  0.00
Comm    | 0.00080851 | 0.0022954  | 0.0034047  |   1.7 |  2.97
Output  | 3.0066e-05 | 3.6991e-05 | 5.7017e-05 |   0.0 |  0.05
Modify  | 0.0059681  | 0.0059722  | 0.0059773  |   0.0 |  7.72
Other   |            | 0.0005294  |            |       |  0.68

Nlocal:    6.25 ave 8 max 6 min
Histogram: 7 0 0 0 0 0 0 0 0 1
Nghost:    932.5 ave 947 max 917 min
Histogram: 1 1 0 1 1 0 1 0 1 2
Neighs:    1754.62 ave 2219 max 1677 min
Histogram: 7 0 0 0 0 0 0 0 0 1

Total # of neighbors = 14037
Ave neighs/atom = 280.74
Neighbor list builds = 0
Dangerous builds = 0

unfix 1
###
min_style cg
minimize 1.0e-8 1.0e-8 100000 100000
WARNING: Using 'neigh_modify every 1 delay 0 check yes' setting during minimization (../min.cpp:190)
Per MPI rank memory allocation (min/avg/max) = 25.13 | 25.28 | 25.44 Mbytes
Step Temp E_pair E_mol TotEng Press 
     231            0   -8837.3674            0   -8837.3674    381.20363 
     233            0   -8837.3676            0   -8837.3676    382.84353 
Loop time of 0.184291 on 8 procs for 2 steps with 50 atoms

99.2% CPU use with 8 MPI tasks x no OpenMP threads

Minimization stats:
  Stopping criterion = energy tolerance
  Energy initial, next-to-last, final = 
        -8837.36742227     -8837.36751304     -8837.36756196
  Force two-norm initial, final = 45.2168 43.114
  Force max component initial, final = 10.4479 9.31142
  Final line search alpha, max atom move = 3.78547e-08 3.52481e-07
  Iterations, force evaluations = 2 39

MPI task timing breakdown:
Section |  min time  |  avg time  |  max time  |%varavg| %total
---------------------------------------------------------------
Pair    | 0.15723    | 0.15973    | 0.1631     |   0.5 | 86.67
Neigh   | 0          | 0          | 0          |   0.0 |  0.00
Comm    | 0.0019645  | 0.0053181  | 0.0078246  |   2.5 |  2.89
Output  | 0          | 0          | 0          |   0.0 |  0.00
Modify  | 0.018761   | 0.018771   | 0.01878    |   0.0 | 10.19
Other   |            | 0.0004689  |            |       |  0.25

Nlocal:    6.25 ave 8 max 6 min
Histogram: 7 0 0 0 0 0 0 0 0 1
Nghost:    932.5 ave 947 max 917 min
Histogram: 1 1 0 1 1 0 1 0 1 2
Neighs:    1754.62 ave 2219 max 1677 min
Histogram: 7 0 0 0 0 0 0 0 0 1

Total # of neighbors = 14037
Ave neighs/atom = 280.74
Neighbor list builds = 0
Dangerous builds = 0

undump 1
#############
#----------- Thermo ------------
reset_timestep 0
thermo  200

thermo_style    custom step temp etotal ke pe press
velocity all create 300 12345 mom yes rot yes
fix 1 all npt temp 300 300 25.0 iso 0.0 0.0 250.0

variable vpe equal pe
variable vtemp equal temp
variable vstep equal step

fix output all print 2500 "${vstep} ${vtemp} ${vpe}" file temp-tpdh-Pt.dat screen no

dump 1 all custom 2500 thermo-tpdh-Pt.lammpstrj id type x y z

run 1000000
Per MPI rank memory allocation (min/avg/max) = 24 | 24.16 | 24.31 Mbytes
Step Temp TotEng KinEng PotEng Press 
       0          300   -8793.5497    43.817908   -8837.3676    1869.6028 
     200     243.6186   -8775.1747    35.582858   -8810.7575    54462.887 
     400    356.37164   -8755.2078    52.051533   -8807.2593   -26023.383 
     600    290.54761   -8772.2535    42.437295   -8814.6908   -35684.094 
     800    317.59273   -8767.4885    46.387496    -8813.876    -22909.36 
    1000    340.31985   -8761.7353    49.707012   -8811.4423    19313.853 
    1200    333.51311   -8754.7114    48.712822   -8803.4242   -4792.9372 
    1400    340.63525   -8761.2523     49.75308   -8811.0053   -22022.917 
    1600    276.45663   -8770.5197    40.379171   -8810.8989   -25171.952 
    1800     285.9178    -8766.793    41.761066    -8808.554   -20309.558 
    2000    325.25647   -8759.4299     47.50686   -8806.9367   -13188.094 
    2200    245.17261   -8771.6208    35.809836   -8807.4307   -35035.092 
    2400     301.0921   -8757.0155    43.977419   -8800.9929   -28597.633 
    2600    289.63103   -8762.6707    42.303419   -8804.9741    85319.981 
    2800    237.36979   -8771.6123    34.670158   -8806.2825   -52175.608 
    3000    290.19192   -8759.4181    42.385343   -8801.8034   -18527.545 
    3200    282.47401   -8764.0531    41.258068   -8805.3112    13269.747 
    3400     284.4989   -8763.7108    41.553822   -8805.2646    33158.259 
    3600    316.19053   -8747.3242    46.182692   -8793.5069    27741.516 
    3800    386.33504   -8770.4603    56.427977   -8826.8883    3487.7651 
    4000    306.46998   -8795.9134     44.76291   -8840.6763    20962.373 
    4200    298.43138   -8786.1059    43.588796   -8829.6947   -22478.759 
    4400     285.0412   -8788.2331    41.633029   -8829.8662   -39326.731 
    4600    311.92293   -8789.9035    45.559367   -8835.4629   -13392.336 
    4800    350.32981   -8772.7007    51.169065   -8823.8697    36014.891 
    5000    278.63799   -8789.6506    40.697779   -8830.3483    14494.576 
    5200    292.81733   -8793.2175    42.768809   -8835.9863    14203.074 
    5400    315.88918   -8779.3106    46.138676   -8825.4492   -13975.972 
    5600     296.4012   -8787.6954    43.292268   -8830.9876    -6331.957 
    5800    261.28287   -8786.6947    38.162895   -8824.8576   -24442.763 
    6000    350.72251   -8778.7296    51.226422    -8829.956   -17248.205 
    6200    292.38336   -8788.6157    42.705423   -8831.3211    22383.717 
    6400    323.27125   -8784.8361    47.216899    -8832.053   -13224.172 
    6600    278.96536   -8796.6253    40.745595   -8837.3709   -27837.678 
    6800    337.45504   -8780.2368    49.288579   -8829.5254   -23502.301 
    7000    337.62193   -8783.4141    49.312955   -8832.7271   -24400.804 
    7200    281.96839   -8790.8414    41.184216   -8832.0256     16197.86 
    7400    282.91965   -8799.7975    41.323158   -8841.1207    166.13021 
    7600    323.86206   -8783.4102    47.303193   -8830.7134    18700.788 
    7800    333.76433   -8781.8668    48.749516   -8830.6163   -20237.933 
    8000    280.61625   -8799.9054    40.986724   -8840.8921    37002.385 
    8200    251.30986   -8791.8845     36.70624   -8828.5908    12866.619 
    8400    298.00939   -8784.6091     43.52716   -8828.1362     54207.69 
    8600    268.71574   -8784.8096    39.248539   -8824.0582   -6206.2054 
    8800    284.31109   -8795.3245    41.526391   -8836.8509   -8449.5875 
    9000    309.73311   -8776.4984    45.239523   -8821.7379   -8814.9351 
    9200    313.09435   -8787.6965    45.730465    -8833.427    17601.842 
    9400     293.6008   -8790.7775    42.883242   -8833.6608    21853.383 
    9600    341.90111   -8778.0214    49.937971   -8827.9594    4732.1781 
    9800    260.99754   -8789.6042    38.121221   -8827.7254    9233.3644 
   10000    328.56659    -8780.366    47.990334   -8828.3563    8967.2943 
   10200    304.43557   -8783.6522    44.465766   -8828.1179   -45864.222 
   10400    326.11592    -8786.189     47.63239   -8833.8214    -21202.62 
   10600    347.48924   -8774.2683    50.754172   -8825.0225    72863.851 
   10800    317.34968   -8781.1023    46.351996   -8827.4543   -26365.671 
   11000    263.73709   -8786.6432    38.521358   -8825.1646     27847.85 
   11200    329.28933   -8779.8568    48.095899   -8827.9527    28349.677 
   11400    264.63014   -8793.6523    38.651796   -8832.3041   -9657.8384 
   11600    318.18039   -8781.0776     46.47333   -8827.5509   -4639.7736 
   11800    296.00989   -8786.8709    43.235114    -8830.106   -26556.123 
   12000    261.75249   -8791.4809    38.231489   -8829.7124    30625.858 
   12200    383.46864   -8775.8791    56.009311   -8831.8884    46983.152 
   12400    306.65731   -8790.6087    44.790273    -8835.399   -27230.369 
   12600    349.85857    -8779.117    51.100236   -8830.2173    33095.631 
   12800    380.61052     -8772.46    55.591856   -8828.0519   -6460.4382 
   13000     287.1452   -8790.8723     41.94034   -8832.8126   -29382.857 
   13200    297.31619   -8784.8446    43.425911   -8828.2705    35875.038 
   13400    303.65836   -8781.4645    44.352246   -8825.8168   -23731.499 
   13600     286.9629   -8793.3115    41.913713   -8835.2253     39923.42 
   13800    316.30025   -8786.2991    46.198717   -8832.4979   -34788.554 
   14000    246.06133   -8801.6181    35.939642   -8837.5577    33473.523 
   14200    290.23229   -8788.7195    42.391238   -8831.1107    11093.932 
   14400    265.31596   -8790.2326    38.751967   -8828.9846   -24071.976 
   14600    395.56427   -8770.6967    57.775996   -8828.4727    21778.171 
   14800    289.43416   -8791.8793    42.274665    -8834.154   -10379.617 
   15000    331.16784   -8786.8781    48.370273   -8835.2483   -3844.2014 
   15200    372.43423   -8775.1359     54.39763   -8829.5335    -17889.19 
   15400    239.07603   -8793.3279    34.919372   -8828.2473   -3543.4522 
   15600    289.38036   -8787.4595    42.266807   -8829.7263    43575.816 
   15800     324.9598    -8777.285    47.463529   -8824.7486    -16165.68 
   16000    246.49517   -8797.0253    36.003008   -8833.0283     12462.32 
   16200    304.27146   -8790.7522    44.441796    -8835.194    16579.246 
   16400    329.79811   -8782.3699    48.170211   -8830.5401    4341.0228 
   16600    233.18291   -8798.6931    34.058624   -8832.7517    8848.4084 
   16800    261.16947   -8793.4816    38.146333    -8831.628   -5257.3699 
   17000    329.66118   -8783.6781    48.150211   -8831.8283   -13733.447 
   17200    291.43399   -8788.5309    42.566759   -8831.0977   -22883.411 
   17400    257.94277   -8791.9033    37.675042   -8829.5784      21539.3 
   17600    329.37465   -8779.2485     48.10836   -8827.3568    26351.929 
   17800    289.46733   -8788.9967    42.279509   -8831.2762    27077.102 
   18000    216.57498    -8804.965    31.632874   -8836.5978   -37092.494 
   18200    323.36324   -8789.5029    47.230335   -8836.7333   -41248.406 
   18400    321.64091   -8779.0891    46.978772   -8826.0678   -32732.378 
   18600    309.88302   -8786.4941    45.261418   -8831.7555    18926.062 
   18800    274.91686   -8792.7721    40.154272   -8832.9264   -6558.3219 
   19000     383.7085   -8776.8361    56.044346   -8832.8804   -11508.484 
   19200    297.48627   -8788.3412    43.450753    -8831.792    20312.215 
   19400    316.35844   -8786.1563    46.207216   -8832.3635   -9769.9616 
   19600     269.3668   -8783.6303    39.343632    -8822.974    -30666.15 
   19800    302.50789   -8797.3818     44.18421    -8841.566   -7853.6934 
   20000    296.65472     -8780.41    43.329297   -8823.7393   -16471.867 
   20200    297.61087   -8778.8533    43.468953   -8822.3223   -5025.4014 
   20400    271.38184   -8791.9755    39.637948   -8831.6134      9381.06 
   20600    308.28993   -8786.9906    45.028732   -8832.0193    12838.515 
   20800    329.34519   -8786.8735    48.104057   -8834.9776   -8017.9882 
   21000    309.55142   -8788.1127    45.212986   -8833.3256    59695.459 
   21200    320.45122   -8785.2309    46.805007   -8832.0359    71762.589 
   21400    340.48486   -8774.4176    49.731115   -8824.1487    9632.3582 
   21600    253.21713   -8789.4146    36.984816   -8826.3994    -40737.75 
   21800    299.01628   -8787.8806    43.674225   -8831.5548   -20580.514 
   22000     354.0469   -8766.5412    51.711981   -8818.2531    30907.896 
   22200     332.3524   -8782.6355    48.543289   -8831.1787   -12123.271 
   22400    278.79127   -8793.7868    40.720168   -8834.5069   -22624.196 
   22600    305.32228   -8780.9456    44.595279   -8825.5409   -9254.8756 
   22800    312.05887   -8778.4301    45.579222   -8824.0093   -34254.783 
   23000    257.38343   -8794.3251    37.593345   -8831.9185    23746.077 
   23200    336.38511   -8780.3299    49.132305   -8829.4622    12544.237 
   23400    269.51948   -8784.4095    39.365933   -8823.7755    24512.426 
   23600    287.01055   -8786.0925    41.920673   -8828.0132   -14412.102 
   23800    276.52855    -8793.528    40.389675   -8833.9176   -2297.4304 
   24000    252.54599   -8798.5271     36.88679   -8835.4139   -27576.158 
   24200    310.81359   -8783.6375    45.397337   -8829.0349   -3642.7436 
   24400    283.48821   -8789.6464      41.4062   -8831.0526    42331.121 
   24600    245.44868   -8797.3134    35.850158   -8833.1636   -25642.143 
   24800    320.05927   -8781.7417    46.747758   -8828.4895   -31723.687 
   25000    243.01142   -8792.1298    35.494173    -8827.624    13603.784 
   25200    266.13668   -8802.9183    38.871841   -8841.7902   -10855.083 
   25400    312.18319    -8781.559    45.597381   -8827.1564   -5716.9312 
   25600    369.38939   -8778.7528    53.952901   -8832.7057   -19399.486 
   25800    272.64561   -8794.0011    39.822534   -8833.8236    11198.442 
   26000    342.78502   -8787.6401    50.067075   -8837.7072    23149.277 
   26200    295.72723   -8780.3824    43.193829   -8823.5762   -43800.242 
   26400    313.76299   -8784.9288    45.828126   -8830.7569    76819.675 
   26600     296.9142   -8789.9852    43.367197   -8833.3524   -20270.626 
   26800    259.77656   -8800.7108    37.942885   -8838.6537   -1575.3738 
   27000    294.41771   -8783.8178     43.00256   -8826.8203   -51866.938 
   27200     295.7609   -8782.4821    43.198746   -8825.6808    53463.815 
   27400    247.64948   -8798.0431    36.171607   -8834.2147    9861.5564 
   27600    309.86771   -8784.7505    45.259182   -8830.0097    -18555.81 
   27800    307.96004   -8786.1001    44.980549   -8831.0806     22108.62 
   28000    367.41023   -8786.0204    53.663826   -8839.6842   -7206.7808 
   28200    238.45585   -8798.1746    34.828789   -8833.0034   -16452.829 
   28400    289.71099   -8780.9735    42.315098   -8823.2886   -28157.828 
   28600    301.91028    -8783.384    44.096923   -8827.4809   -11085.232 
   28800    260.82187   -8793.7076    38.095563   -8831.8031    28725.165 
   29000    229.18152   -8801.5964    33.474182   -8835.0706    18014.797 
   29200    269.07988   -8787.8122    39.301724   -8827.1139    53118.103 
   29400    293.10527   -8782.7835    42.810866   -8825.5943   -12326.093 
   29600    256.66126   -8799.4398    37.487865   -8836.9276   -36820.155 
   29800    285.55105   -8789.8961    41.707499   -8831.6036    14189.102 
   30000    337.26522   -8786.5315    49.260854   -8835.7924   -20683.284 
   30200    254.69636   -8789.7059    37.200872   -8826.9068    6671.4091 
   30400    321.75016    -8787.093    46.994729   -8834.0877   -2140.3121 
   30600    313.56272   -8779.3799    45.798874   -8825.1788    18902.179 
   30800    289.82727   -8795.2728    42.332082   -8837.6048   -12293.362 
   31000    313.36118   -8786.6007    45.769437   -8832.3701    29336.003 
   31200    310.15388   -8781.9714    45.300981   -8827.2724    43398.047 
   31400    385.66148   -8778.1372    56.329597   -8834.4668    11977.614 
   31600    282.84602   -8792.8143    41.312402   -8834.1267   -8984.2598 
   31800    310.95232   -8779.3263      45.4176   -8824.7439   -2213.1444 
   32000     236.7204   -8779.1348    34.575309   -8813.7101    -17265.63 
   32200    255.27559   -8790.0074    37.285475   -8827.2929     16551.72 
   32400    323.78869   -8779.2407    47.292477   -8826.5331    29696.906 
   32600    327.28726   -8777.7265    47.803476     -8825.53    22042.835 
   32800    311.44547    -8786.211     45.48963   -8831.7006    16722.738 
   33000    252.06058   -8799.3295    36.815891   -8836.1454   -21492.121 
   33200    309.43917    -8792.126     45.19659   -8837.3226   -12611.817 
   33400    310.83397   -8783.7802    45.400315   -8829.1805    9832.0066 
   33600    301.42915   -8786.2195    44.026648   -8830.2461    56876.361 
   33800    345.77502   -8777.8689    50.503794   -8828.3727    11736.555 
   34000    266.88699   -8793.9834    38.981431   -8832.9649   -38776.823 
   34200    318.04552   -8783.2228     46.45363   -8829.6764    -26075.15 
   34400    330.03913   -8782.0318    48.205414   -8830.2372    25223.308 
   34600    263.63743    -8791.778    38.506803   -8830.2848    557.64662 
   34800    286.94851   -8783.1188    41.911612   -8825.0304   -1835.2954 
   35000     349.7701   -8778.8444    51.087314   -8829.9318    53251.776 
   35200    268.57068   -8793.2739     39.22735   -8832.5012   -44576.806 
   35400    294.33294    -8784.787    42.990179   -8827.7772    16054.031 
   35600    416.57405   -8765.7625    60.844678   -8826.6072    50816.512 
   35800     316.2248   -8779.3436    46.187696   -8825.5313   -12835.636 
   36000    329.40566   -8793.2463    48.112889   -8841.3592     29933.35 
   36200    323.41063   -8779.6225    47.237257   -8826.8598   -7061.7253 
   36400    315.71267   -8782.9081    46.112896    -8829.021    12181.868 
   36600    309.78283   -8793.4056    45.246786   -8838.6524   -7281.1003 
   36800    277.39687    -8795.042    40.516501   -8835.5585   -27772.138 
   37000    314.07335   -8779.1965    45.873457     -8825.07    17522.028 
   37200    310.53764   -8789.5012    45.357032   -8834.8582   -35333.478 
   37400    243.95975   -8794.7446    35.632686   -8830.3773   -21469.024 
   37600    258.08411   -8787.1226    37.695686   -8824.8183    5587.3077 
   37800    331.80106   -8782.0722    48.462761   -8830.5349   -25963.109 
   38000     263.3914   -8800.6679    38.470867   -8839.1388    20832.644 
   38200    309.18508   -8790.4506    45.159477   -8835.6101   -4393.0379 
   38400    337.32634    -8783.929    49.269782   -8833.1988    8704.7376 
   38600     269.4451   -8798.0742    39.355069   -8837.4293    30793.811 
   38800    283.95856   -8790.4557      41.4749   -8831.9306   -24209.453 
   39000     315.7703   -8781.6022    46.121314   -8827.7235   -15093.571 
   39200    274.63984   -8791.2087     40.11381   -8831.3226   -53034.248 
   39400    282.08068   -8796.4473    41.200618    -8837.648   -63889.884 
   39600    328.27119   -8783.8816    47.947189   -8831.8288    11247.009 
   39800    271.38048   -8786.2978    39.637749   -8825.9355    100043.05 
   40000    373.79135   -8777.3182    54.595849    -8831.914    4773.9517 
   40200    272.25256   -8791.7441    39.765125   -8831.5093   -47930.913 
   40400     296.8242   -8790.1709    43.354051    -8833.525   -2623.8885 
   40600    244.31735   -8796.2043    35.684916   -8831.8892   -9588.5013 
   40800      315.847   -8785.3205    46.132516    -8831.453   -53.904878 
   41000    254.53605   -8796.4963    37.177457   -8833.6737    16013.422 
   41200    346.71089    -8785.289    50.640485   -8835.9295    26726.156 
   41400    376.83413   -8776.7847    55.040278    -8831.825    14936.325 
   41600    280.37962   -8795.3913    40.952161   -8836.3434    28185.564 
   41800    270.98566   -8788.3958    39.580082   -8827.9759    26111.231 
   42000    345.19955   -8781.6312     50.41974   -8832.0509    41079.318 
   42200    224.71709   -8794.8802    32.822108   -8827.7023   -26623.942 
   42400    240.16403   -8803.8639    35.078285   -8838.9422   -23970.442 
   42600    314.06018   -8784.8471    45.871534   -8830.7187   -36805.584 
   42800     295.9742   -8778.0639    43.229901   -8821.2938    37643.784 
   43000    239.26797   -8796.6828    34.947406   -8831.6302    17753.662 
   43200     296.4941   -8786.1709    43.305836   -8829.4768   -8988.8397 
   43400     276.8856   -8782.9354    40.441826   -8823.3772    -17130.27 
   43600    281.16942   -8799.6352    41.067519   -8840.7027   -35867.787 
   43800    305.59923   -8785.6347    44.635729   -8830.2704   -12178.068 
   44000    309.31455   -8781.6152    45.178388   -8826.7935    12456.103 
   44200    317.54183    -8793.769    46.380062   -8840.1491   -26097.724 
   44400    288.58943   -8793.5997    42.151283    -8835.751   -36073.139 
   44600    322.57458   -8782.2677    47.115144   -8829.3828   -29996.978 
   44800    293.75848   -8793.8358    42.906274    -8836.742   -3289.3538 
   45000    262.94312   -8804.7359    38.405392   -8843.1413    18915.361 
   45200    264.92999   -8784.2596    38.695593   -8822.9551    13854.659 
   45400    326.77986   -8781.3426    47.729366    -8829.072    12640.098 
   45600    285.52184   -8792.5091    41.703232   -8834.2123    2943.4422 
   45800    329.58818   -8782.2008    48.139548   -8830.3404    24439.585 
   46000    280.50654   -8789.2088    40.970699   -8830.1795   -23891.931 
   46200    382.12814   -8775.1943    55.813519   -8831.0079    28887.099 
   46400     246.9855   -8791.9979    36.074626   -8828.0725    28439.984 
   46600    306.74277   -8782.5867    44.802754   -8827.3895    15820.223 
   46800    279.44785   -8791.0147    40.816067   -8831.8307    16399.566 
   47000    281.58568   -8789.5906    41.128318    -8830.719    -6126.154 
   47200    302.45449   -8770.4704     44.17641   -8814.6468    -44192.68 
   47400     333.6245   -8775.4776    48.729092   -8824.2067   -6494.2788 
   47600     303.6947     -8790.76    44.357555   -8835.1175    68663.604 
   47800    323.13684    -8783.331    47.197268   -8830.5282    -4561.461 
   48000    361.51059   -8778.3547    52.802125   -8831.1569    13707.497 
   48200    291.04059   -8794.1522    42.509298   -8836.6615    68461.838 
   48400    340.52415   -8783.5005    49.736852   -8833.2373   -35212.227 
   48600    364.21737   -8768.7979    53.197477   -8821.9954    42876.936 
   48800    349.35487   -8783.3898    51.026665   -8834.4165    32710.677 
   49000    285.91072   -8790.3249    41.760032    -8832.085   -16983.198 
   49200    351.71743   -8779.5245    51.371739   -8830.8962    20361.273 
   49400    307.10889   -8780.2546     44.85623   -8825.1108    21422.217 
   49600    277.59727   -8793.0653    40.545772   -8833.6111   -8490.0673 
   49800    305.04344   -8779.2032    44.554551   -8823.7578   -13993.818 
   50000    280.95145   -8788.2169    41.035682   -8829.2526    9863.8278 
   50200    280.25152   -8791.8504    40.933452   -8832.7839   -10757.247 
   50400     317.9543   -8780.2102    46.440307   -8826.6505    10812.744 
   50600    249.54419   -8798.5815    36.448347   -8835.0299    5042.7597 
   50800    256.68844   -8793.8927    37.491835   -8831.3845    16842.697 
   51000    313.45046   -8785.0466    45.782478    -8830.829    14483.026 
   51200     312.8084   -8782.1289    45.688699   -8827.8176    10414.548 
   51400    216.25644   -8800.2567    31.586349    -8831.843    13881.766 
   51600    318.21379   -8784.2517    46.478209   -8830.7299   -17704.117 
   51800    298.73432   -8783.1449    43.633043   -8826.7779    4395.9468 
   52000    327.75028   -8783.7416    47.871105   -8831.6127    25294.047 
   52200    265.08037   -8794.9165    38.717557    -8833.634   -9837.6883 
   52400    351.66874   -8776.6646    51.364628   -8828.0293   -20102.398 
   52600    321.63547    -8779.639    46.977978    -8826.617    27781.519 
   52800    283.11229   -8791.7328    41.351294   -8833.0841    2462.8925 
   53000    330.19164   -8785.9723    48.227689      -8834.2     12783.41 
   53200     307.2456   -8783.1803    44.876198   -8828.0565    17745.398 
   53400    332.23686   -8789.8641    48.526414   -8838.3905   -26004.554 
   53600    389.83912   -8773.3001    56.939782   -8830.2399     11795.21 
   53800    307.54492   -8786.9352    44.919917   -8831.8551   -2073.2071 
   54000    266.10239   -8791.4979    38.866834   -8830.3647   -26279.663 
   54200    317.39772    -8776.726    46.359014    -8823.085   -36003.731 
   54400    292.87153   -8787.2063    42.776726    -8829.983   -40849.784 
   54600    291.74811   -8787.2129    42.612639   -8829.8255    14153.392 
   54800    324.44675   -8786.9139    47.388593   -8834.3025    45011.353 
   55000    267.57822   -8794.8815    39.082392   -8833.9639    13937.496 
   55200    314.79612   -8777.6788    45.979025   -8823.6578    10335.981 
   55400     367.5508   -8783.5756    53.684357     -8837.26   -14961.404 
   55600    257.40667   -8799.3025    37.596739   -8836.8992   -13905.282 
   55800    304.56501   -8798.1519    44.484672   -8842.6366   -45590.705 
   56000    341.72602   -8780.1036    49.912397    -8830.016   -37688.006 
   56200    316.18428   -8780.5425    46.181779   -8826.7243    8776.2434 
   56400    302.66816   -8795.9753    44.207619   -8840.1829    -28433.72 
   56600    268.38758   -8782.5812    39.200608   -8821.7818    24083.815 
   56800    302.97588    -8782.285    44.252564   -8826.5376    38501.131 
   57000    267.47149   -8796.8372    39.066803    -8835.904     4269.092 
   57200      311.999    -8773.002    45.570478   -8818.5724   -13478.628 
   57400    294.95134    -8788.461    43.080502   -8831.5415   -13677.937 
   57600    282.10527   -8792.6345    41.204208   -8833.8387   -6190.0352 
   57800    349.05377   -8772.6729    50.982686   -8823.6556     4017.282 
   58000    282.41608   -8793.7062    41.249607   -8834.9558    26810.921 
   58200    306.32138   -8782.9686    44.741206   -8827.7098    19228.522 
   58400     321.2216   -8780.9986    46.917529   -8827.9162   -26954.557 
   58600    275.05881   -8796.0589    40.175006   -8836.2339   -28631.445 
   58800    348.23397   -8780.3283    50.862946   -8831.1912   -17984.726 
   59000    308.18992   -8785.9063    45.014125   -8830.9204     19936.19 
   59200    261.46757   -8789.8319    38.189872   -8828.0218    17652.608 
   59400    362.48195   -8778.2737    52.944002   -8831.2177   -10620.666 
   59600    259.05833   -8788.3423    37.837981   -8826.1802   -11335.513 
   59800    239.99906   -8798.6902    35.054189   -8833.7444    7334.1915 
   60000    309.51689   -8788.5434    45.207942   -8833.7514    11764.346 
   60200    300.90019   -8779.0386    43.949389    -8822.988    9185.7369 
   60400    311.08071   -8793.0032    45.436353   -8838.4396   -40404.024 
   60600    248.43083   -8800.9511    36.285731   -8837.2368   -29363.009 
   60800    289.44412   -8784.7094    42.276119   -8826.9856   -52677.763 
   61000    295.18802   -8777.7375    43.115072   -8820.8526    7941.1702 
   61200    254.54706   -8795.8574    37.179065   -8833.0365   -19873.788 
   61400     326.0878   -8785.9838    47.628284   -8833.6121   -9573.4579 
   61600    306.00374   -8782.4421    44.694812   -8827.1369   -35727.176 
   61800    251.50743   -8801.1084    36.735098   -8837.8435   -1436.8117 
   62000    295.36122   -8788.6145    43.140369   -8831.7549    13181.464 
   62200    330.00984   -8781.5985    48.201136   -8829.7996    -25962.26 
   62400    251.57071   -8794.6783     36.74434   -8831.4226   -4843.7019 
   62600    319.08576   -8794.1465    46.605568   -8840.7521   -11988.945 
   62800    279.81205   -8787.1615    40.869262   -8828.0307    23487.677 
   63000    347.77781   -8770.1237    50.796321     -8820.92     42926.64 
   63200    267.75154   -8784.5208    39.107707   -8823.6285    4852.2457 
   63400    283.78337   -8791.1818    41.449311   -8832.6311    -14647.14 
   63600    308.79123   -8782.0018    45.101953   -8827.1038    14171.483 
   63800    329.90229   -8774.3559    48.185427   -8822.5413   -34110.811 
   64000    297.21244   -8791.7064    43.410758   -8835.1172    1960.2698 
   64200    291.47182   -8786.7251    42.572285   -8829.2974    8946.1479 
   64400    410.54611   -8764.3985    59.964239   -8824.3628    42228.128 
   64600     280.3771   -8782.6197    40.951794   -8823.5715   -21932.172 
   64800    266.28785     -8792.33    38.893921    -8831.224   -7499.9025 
   65000    283.94649   -8786.4381    41.473137   -8827.9112   -37382.133 
   65200    377.69088   -8773.8448    55.165414   -8829.0103   -27435.509 
   65400    261.03588   -8791.2665     38.12682   -8829.3933   -20.391577 
   65600    288.97837   -8783.3732    42.208093   -8825.5813    16433.791 
   65800    301.61518    -8782.043    44.053821   -8826.0968   -8102.9658 
   66000    261.61464   -8793.6819    38.211354   -8831.8932    43179.476 
   66200    290.92905   -8781.8123    42.493008   -8824.3053   -15654.527 
   66400    254.83837   -8792.2622    37.221614   -8829.4838    31365.494 
   66600    295.58622   -8799.4344    43.173232   -8842.6076   -31263.834 
   66800    320.01391   -8781.2375    46.741133   -8827.9787   -6298.2608 
   67000    293.11571   -8790.3522    42.812391   -8833.1646    13358.389 
   67200     253.1085   -8791.4402     36.96895   -8828.4091   -4375.1695 
   67400     346.9207   -8777.7536    50.671131   -8828.4248    23893.311 
   67600     301.6236   -8788.8879     44.05505    -8832.943    19842.959 
   67800    245.19502    -8803.636    35.813109   -8839.4492    11032.899 
   68000    298.24973   -8791.8281    43.562264   -8835.3903   -18046.397 
   68200    290.11577   -8783.1388     42.37422    -8825.513   -30292.567 
   68400    288.99143    -8786.051    42.209999    -8828.261     12342.19 
   68600    308.72001   -8797.5503     45.09155   -8842.6419   -9301.3512 
   68800    279.71893    -8780.693    40.855661   -8821.5487    3547.1626 
   69000     317.5677   -8786.6808     46.38384   -8833.0646    37318.452 
   69200    288.26247   -8799.4287    42.103528   -8841.5322   -1594.4161 
   69400    245.97492   -8789.7076    35.927021   -8825.6346     3729.933 
   69600    306.58576    -8783.554    44.779821   -8828.3338    8518.3122 
   69800    273.17696   -8795.3802    39.900143   -8835.2804    5802.8626 
   70000    286.22518   -8777.7568    41.805961   -8819.5628     9646.793 
   70200    347.39868   -8781.6349    50.740945   -8832.3759    17911.544 
   70400    239.99561   -8789.2696    35.053686   -8824.3233    -12620.28 
   70600    284.96412   -8781.5507    41.621772   -8823.1724    5561.0316 
   70800     357.4448   -8778.0468    52.208277   -8830.2551    33509.988 
   71000    261.36389   -8792.9665     38.17473   -8831.1413   -10607.152 
   71200    291.10633   -8784.6629    42.518901   -8827.1818   -12498.279 
   71400    305.88979   -8773.7352    44.678168   -8818.4134    9313.8533 
   71600    267.78796   -8787.2421    39.113027   -8826.3551    15281.195 
   71800    278.85492   -8787.0648    40.729464   -8827.7943    13331.424 
   72000    343.41236   -8778.1665    50.158703   -8828.3252   -31106.714 
   72200    305.09145   -8790.7074    44.561563    -8835.269    35498.246 
   72400    287.09156   -8791.3161    41.932505   -8833.2486    27717.793 
   72600    297.94047   -8778.3936    43.517094   -8821.9107    36846.143 
   72800    250.44506   -8788.0785    36.579928   -8824.6585   -17073.854 
   73000    235.38692   -8797.2133    34.380541   -8831.5938   -17444.829 
   73200    232.57131   -8782.4804    33.969294   -8816.4497    3404.2867 
   73400    244.69057   -8787.1716     35.73943    -8822.911    16613.447 
   73600    277.04799   -8793.9137    40.465545   -8834.3792    19740.142 
   73800    351.84523   -8774.8353    51.390407   -8826.2258   -9255.0479 
   74000    267.37984   -8789.3969    39.053416   -8828.4503    17755.233 
   74200    335.36895   -8788.4058    48.983886   -8837.3897    5378.9618 
   74400    351.92822   -8775.2178    51.402527   -8826.6203     5261.495 
   74600    286.58886   -8789.2797     41.85908   -8831.1387    -12420.14 
   74800     249.3609   -8787.2038    36.421576   -8823.6254   -11103.509 
   75000    313.20839   -8775.6922    45.747121   -8821.4393   -25171.235 
   75200     280.9553   -8785.3571    41.036244   -8826.3934    46778.615 
   75400     311.4837   -8791.3398    45.495214   -8836.8351   -6380.2873 
   75600    231.29013   -8797.9307    33.782165   -8831.7129   -34332.254 
   75800    364.00835   -8782.5287    53.166947   -8835.6956   -34186.879 
   76000    298.20199   -8791.2439    43.555291   -8834.7992    15962.912 
   76200    300.88538   -8791.0261    43.947226   -8834.9733    2413.7089 
   76400    301.06296   -8777.5579    43.973163    -8821.531   -2674.1461 
   76600    282.53341   -8787.1153    41.266743    -8828.382   -25703.456 
   76800    270.29404   -8788.0349    39.479064    -8827.514     20385.19 
   77000    338.44929   -8778.4358    49.433799   -8827.8696   -3084.0794 
   77200    273.95928   -8794.4027    40.014408   -8834.4171    10833.781 
   77400     298.2142   -8784.3424    43.557074   -8827.8995    17860.605 
   77600    241.80213   -8781.5132    35.317545   -8816.8307    10531.718 
   77800    243.91634   -8799.4802    35.626345   -8835.1065    28234.555 
   78000    257.40758   -8786.0855    37.596872   -8823.6824    2388.1237 
   78200    291.96567   -8784.7141    42.644416   -8827.3585   -21201.098 
   78400    245.18051   -8799.6511    35.810989   -8835.4621    21933.651 
   78600     244.9291   -8805.1301    35.774269   -8840.9044    31013.918 
   78800    327.98483   -8783.1832    47.905364   -8831.0886   -21155.661 
   79000     340.8281   -8781.6607    49.781247   -8831.4419     25373.39 
   79200    294.65391   -8793.8876     43.03706   -8836.9246    17482.632 
   79400     337.6778   -8775.8741    49.321115   -8825.1952    15884.186 
   79600    325.12137   -8774.7243    47.487127   -8822.2114     82449.34 
   79800    342.61131   -8790.9544    50.041703   -8840.9961   -25405.618 
   80000    283.92399   -8787.0196    41.469851   -8828.4894   -27704.366 
   80200     324.1973   -8782.4755    47.352158   -8829.8277   -22301.195 
   80400     253.1379    -8792.161    36.973243   -8829.1342    8933.1462 
   80600    324.93936   -8778.3535    47.460543   -8825.8141    52220.652 
   80800    360.73584   -8779.0553    52.688966   -8831.7443   -27097.311 
   81000    297.61039   -8794.0019    43.468882   -8837.4708   -15569.688 
   81200    299.61554   -8782.5485    43.761754   -8826.3103    22444.837 
   81400    302.09516   -8782.5801    44.123927    -8826.704   -1309.4985 
   81600    279.04309   -8794.5507    40.756949   -8835.3076    5846.1178 
   81800    326.16124   -8779.5165     47.63901   -8827.1555    83184.674 
   82000    333.14886   -8782.9642     48.65962   -8831.6238   -26919.189 
   82200    267.19914   -8798.5979    39.027025   -8837.6249   -19732.883 
   82400    283.77596   -8789.5964    41.448229   -8831.0447    33744.066 
   82600    292.78295   -8783.2264    42.763787   -8825.9901   -12361.399 
   82800    266.72585   -8790.2312    38.957895   -8829.1891    -5777.629 
   83000    261.44562   -8795.6772    38.186667   -8833.8638   -19248.847 
   83200    277.28725   -8786.6967    40.500491   -8827.1972   -1234.8017 
   83400     304.0545   -8785.0346    44.410106   -8829.4447   -39668.062 
   83600    257.68274   -8794.4117    37.637062   -8832.0488   -7169.6844 
   83800    350.33389   -8779.3398     51.16966   -8830.5095   -20086.314 
   84000    292.25873   -8788.3319     42.68722   -8831.0191   -10006.964 
   84200    280.74351   -8799.1104    41.005311   -8840.1157    23684.621 
   84400    329.60372    -8787.574    48.141818   -8835.7158     41818.02 
   84600    362.10634   -8783.7485    52.889141   -8836.6377   -608.44612 
   84800     307.4381   -8794.1072    44.904314   -8839.0115    23124.069 
   85000    298.79834   -8786.5912    43.642394   -8830.2336    30233.313 
   85200    329.96494   -8776.8009    48.194578   -8824.9954   -9125.5889 
   85400    257.29638   -8793.3502    37.580631   -8830.9308    24446.867 
   85600    271.54956   -8782.6195    39.662445   -8822.2819   -57011.102 
   85800    339.45661   -8774.5857    49.580928   -8824.1666    -12453.89 
   86000    266.43887   -8787.9857    38.915979   -8826.9016     2168.351 
   86200    314.43636    -8781.773    45.926478   -8827.6995    23137.825 
   86400    281.86868   -8795.5825    41.169653   -8836.7521   -29115.575 
   86600    287.69242   -8785.9466    42.020267   -8827.9669    21317.145 
   86800    313.84457   -8781.0073    45.840042   -8826.8473   -48131.477 
   87000    240.20166   -8795.6033     35.08378   -8830.6871    8522.1358 
   87200    291.96154   -8796.2282    42.643813    -8838.872   -1097.9452 
   87400    365.87658   -8776.9745     53.43982   -8830.4143    16785.633 
   87600    323.01922   -8788.8785    47.180087   -8836.0585   -41786.775 
   87800    263.27254   -8797.5783    38.453506   -8836.0318    4259.4284 
   88000    321.65713   -8787.9142    46.981141   -8834.8954    42954.879 
   88200    321.94534   -8778.9447    47.023237   -8825.9679   -15909.097 
   88400    267.38113   -8797.6015    39.053605   -8836.6551    -1438.213 
   88600     346.5847   -8786.4101    50.622054   -8837.0321    17346.317 
   88800    349.18553   -8780.9654    51.001931   -8831.9673    33310.678 
   89000    276.29537   -8801.4112    40.355617   -8841.7668   -18817.072 
   89200    283.23219    -8787.013    41.368807   -8828.3818    14535.786 
   89400    362.96784   -8782.1756    53.014971   -8835.1906   -41555.449 
   89600    283.90858   -8793.2475    41.467601   -8834.7151   -14049.005 
   89800    337.35977   -8785.0441    49.274665   -8834.3187    21696.852 
   90000    296.24709   -8785.3983    43.269759   -8828.6681    14117.792 
   90200    368.43958    -8769.654    53.814172   -8823.4682   -20075.327 
   90400    309.61812   -8788.4943    45.222727    -8833.717   -21377.225 
   90600     347.0347   -8785.5107    50.687782   -8836.1985   -14531.728 
   90800    342.77877   -8772.2667    50.066161   -8822.3328   -38187.306 
   91000    320.22456   -8779.2442      46.7719   -8826.0161    9828.6651 
   91200    273.30763   -8790.7327    39.919228   -8830.6519    8881.3496 
   91400    320.48017   -8787.6255    46.809234   -8834.4347   -13936.133 
   91600    251.75563   -8801.5711     36.77135   -8838.3424    53266.774 
   91800    312.11733   -8786.2936    45.587762   -8831.8813    23976.477 
   92000    295.91467   -8788.5149    43.221206   -8831.7361   -11742.963 
   92200    267.67538   -8797.2108    39.096584   -8836.3073   -15763.304 
   92400    308.63325   -8778.6881    45.078878    -8823.767   -34760.431 
   92600    348.79883   -8784.7752    50.945449   -8835.7206   -12282.318 
   92800    320.35355   -8792.2417    46.790742   -8839.0324    2470.9176 
   93000    285.91351   -8787.2792    41.760439   -8829.0396    69266.802 
   93200    342.38942   -8771.0196    50.009293   -8821.0289   -53474.362 
   93400    308.73504     -8785.98    45.093745   -8831.0737   -10913.269 
   93600    262.57474   -8792.3077    38.351586   -8830.6593   -39432.831 
   93800    330.09537   -8779.1219    48.213628   -8827.3355    13155.634 
   94000    359.95042   -8780.1663    52.574247   -8832.7405    73170.149 
   94200    227.39946   -8792.2109    33.213895   -8825.4247   -2208.3902 
   94400    323.62473   -8779.6315    47.268529      -8826.9   -7954.4145 
   94600    312.55221   -8780.9454    45.651279   -8826.5967    67581.515 
   94800     245.1773   -8794.8166    35.810521   -8830.6271   -25820.214 
   95000     289.9213   -8779.6275    42.345815   -8821.9733   -21562.438 
   95200    303.45652   -8784.7581    44.322766   -8829.0808    6879.8767 
   95400    260.87597    -8793.209    38.103463   -8831.3125   -9976.8773 
   95600    303.99639   -8781.9186    44.401619   -8826.3202   -705.82185 
   95800    306.44449   -8786.8896    44.759187   -8831.6488    18831.161 
   96000    238.90711   -8803.7391    34.894699   -8838.6338   -20795.809 
   96200    269.80518   -8785.1511    39.407662   -8824.5587    6343.9267 
   96400    320.82213   -8780.5519    46.859182   -8827.4111   -4770.4967 
   96600    274.46093   -8796.9301    40.087679   -8837.0177     -16786.5 
   96800     265.8329    -8789.176    38.827471   -8828.0034   -34984.375 
   97000    314.15263   -8781.9403    45.885037   -8827.8254    103.57981 
   97200    275.89907   -8787.2517    40.297733   -8827.5494    24246.011 
   97400     280.4852   -8795.3194    40.967582    -8836.287   -18324.195 
   97600    340.18709   -8776.6651    49.687621   -8826.3527   -26868.886 
   97800    330.69517   -8783.2677    48.301235    -8831.569   -9638.4198 
   98000     336.1773   -8789.0582    49.101952   -8838.1601   -7153.8504 
   98200    271.34309   -8790.3076    39.632289   -8829.9399   -1738.0288 
   98400    342.00445   -8774.5999    49.953065    -8824.553   -24815.693 
   98600    248.17925   -8789.7001    36.248985   -8825.9491    33902.573 
   98800    333.69505   -8786.1798    48.739396   -8834.9192   -30253.447 
   99000    317.66559   -8778.7622    46.398138   -8825.1604    22378.688 
   99200    307.23802   -8785.3331    44.875091   -8830.2082   -10576.446 
   99400    266.98961   -8792.9118     38.99642   -8831.9082    60153.234 
   99600    326.46524   -8780.3611    47.683412   -8828.0446    33597.668 
   99800    243.75753   -8799.8156     35.60315   -8835.4187   -3276.8454 
  100000    293.57457   -8791.4759    42.879412   -8834.3554   -44916.067 
  100200    324.60633   -8780.8292      47.4119   -8828.2411    40541.571 
  100400    303.56666    -8791.114    44.338852   -8835.4528    20117.504 
  100600    258.34452   -8803.9014    37.733721   -8841.6351    -20855.91 
  100800    273.85406   -8792.2139    39.999039    -8832.213     9493.427 
  101000    321.02031   -8776.7012    46.888128   -8823.5893    -15682.21 
  101200    297.72935   -8790.9902    43.486257   -8834.4765    4337.8661 
  101400    315.60603   -8787.8682     46.09732   -8833.9655    17028.254 
  101600    332.13229   -8779.2899     48.51114    -8827.801   -3646.0799 
  101800    402.32387   -8769.1836    58.763301   -8827.9469    33755.539 
  102000    320.49105   -8787.4757    46.810824   -8834.2865   -1321.7507 
  102200    334.97783   -8782.1603    48.926758   -8831.0871   -46056.304 
  102400    316.87238   -8784.7974    46.282282   -8831.0797   -13055.182 
  102600    285.69286   -8789.7151    41.728211   -8831.4433   -20916.432 
  102800    327.94212   -8776.9455    47.899125   -8824.8447    22837.054 
  103000    255.66111   -8795.3119    37.341783   -8832.6536    20396.804 
  103200    289.71869   -8781.2402    42.316223   -8823.5564    29681.696 
  103400    326.91151   -8782.5583    47.748595   -8830.3069    43841.761 
  103600    300.11678   -8786.3358    43.834965   -8830.1707    22290.425 
  103800    317.36808   -8785.3663    46.354685   -8831.7209   -23005.533 
  104000    201.31006   -8798.4816    29.403285   -8827.8849    3992.2358 
  104200    250.55292   -8790.7612    36.595682   -8827.3569   -14923.365 
  104400     336.8668   -8783.7524    49.202662    -8832.955   -11466.421 
  104600    291.24579   -8791.7282    42.539271   -8834.2675   -2863.8565 
  104800    254.38174   -8800.4888    37.154918   -8837.6437    36550.403 
  105000     277.4269   -8786.0542    40.520888   -8826.5751    962.36569 
  105200    322.55907   -8778.6411    47.112879    -8825.754   -33875.312 
  105400    323.83372   -8781.1595    47.299053   -8828.4585   -13050.315 
  105600    274.35279   -8795.5722    40.071884   -8835.6441   -28594.497 
  105800    316.53044   -8780.0605    46.232338   -8826.2928   -11970.021 
  106000    340.71202   -8779.3266    49.764293   -8829.0909    26284.105 
  106200    290.66601   -8792.9145    42.454588   -8835.3691   -5130.2983 
  106400     281.4599   -8790.0413    41.109947   -8831.1512    35154.964 
  106600    322.26632    -8782.656     47.07012   -8829.7262    27801.288 
  106800    314.95458   -8787.1404    46.002169   -8833.1426    44954.092 
  107000    376.10774   -8771.7438    54.934181    -8826.678   -9883.5018 
  107200    291.41102   -8787.1015    42.563404   -8829.6649   -29185.082 
  107400     323.2957   -8790.1501    47.220471   -8837.3706   -14757.976 
  107600    289.73324   -8786.2217    42.318348   -8828.5401   -15187.547 
  107800     327.5833   -8780.3978    47.846716   -8828.2445   -45845.647 
  108000    289.73295   -8792.4338    42.318306   -8834.7521    26397.944 
  108200    267.61346   -8788.5538     39.08754   -8827.6414    42597.527 
  108400    253.14916   -8785.9718    36.974888   -8822.9467    23803.115 
  108600    361.20564   -8773.6351    52.757584   -8826.3927   -17316.906 
  108800    258.50839   -8795.3065    37.757656   -8833.0642   -14817.066 
  109000    308.72206   -8784.2781     45.09185   -8829.3699    15472.706 
  109200    397.39363   -8774.6271    58.043192   -8832.6702    8935.4652 
  109400    290.75074   -8794.4072    42.466963   -8836.8741   -2971.7504 
  109600    356.41204   -8781.6993    52.057433   -8833.7567   -5823.7144 
  109800    299.21721   -8779.7243    43.703573   -8823.4278   -46598.624 
  110000    241.81698   -8800.9598    35.319714   -8836.2795    18599.267 
  110200    288.67292   -8792.5891    42.163478   -8834.7526    4496.2346 
  110400    288.91931   -8780.6835    42.199466    -8822.883   -7687.4431 
  110600    238.50987   -8792.0119    34.836678   -8826.8485   -36583.271 
  110800    304.37736   -8788.4441    44.457264   -8832.9014   -18722.942 
  111000    274.14722   -8780.2111    40.041859   -8820.2529    58068.549 
  111200    351.92561   -8781.3856    51.402147   -8832.7877    48908.785 
  111400    291.33011   -8794.6694    42.551587    -8837.221    13429.563 
  111600    295.36011     -8778.67    43.140206   -8821.8102   -14667.183 
  111800    355.14876   -8783.5676    51.872919   -8835.4405    728.13235 
  112000    310.95601   -8790.5628    45.418139   -8835.9809   -12786.073 
  112200     310.7194   -8777.0866     45.38358   -8822.4702   -2591.7608 
  112400    284.08187   -8783.7331     41.49291    -8825.226   -25484.168 
  112600    304.73348   -8789.8959    44.509278   -8834.4052    21947.746 
  112800    323.07993   -8780.1412    47.188955   -8827.3302    2692.7132 
  113000    357.62242   -8771.1874    52.234221   -8823.4217    23163.015 
  113200    253.84711   -8789.1212    37.076831   -8826.1981   -17256.807 
  113400    307.37154   -8783.1847    44.894592   -8828.0793   -19278.087 
  113600    365.03863    -8765.717    53.317431   -8819.0345   -36772.669 
  113800     287.6774   -8787.5158    42.018072   -8829.5339    12657.553 
  114000    252.14394   -8787.6118    36.828066   -8824.4399   -28984.313 
  114200    308.14765   -8781.9599    45.007951   -8826.9678    13285.752 
  114400    205.04657   -8795.9807     29.94904   -8825.9297    35225.829 
  114600    297.97105   -8784.3054     43.52156    -8827.827   -21290.683 
  114800    308.21809   -8792.7025    45.018239   -8837.7207   -29178.795 
  115000    287.13455   -8792.5007    41.938785   -8834.4395    -26180.78 
  115200    320.73987   -8782.5125    46.847167   -8829.3597     -41883.9 
  115400    336.44421   -8790.0312    49.140938   -8839.1721   -29779.414 
  115600    324.35366   -8778.5347    47.374995   -8825.9097   -10437.316 
  115800    364.81479   -8776.8179    53.284736   -8830.1026   -20246.309 
  116000    262.54211   -8791.6633    38.346819   -8830.0101    736.23124 
  116200    332.96808   -8781.5804    48.633216   -8830.2136   -7655.5384 
  116400    264.36876   -8794.0615     38.61362   -8832.6751   -10459.621 
  116600    293.88085   -8790.9627    42.924146   -8833.8868    13415.617 
  116800    316.61986   -8784.0814      46.2454   -8830.3268    5199.5245 
  117000    319.16889   -8794.5933    46.617709    -8841.211   -5072.9315 
  117200    299.74226    -8785.581    43.780262   -8829.3612    6501.0117 
  117400    283.86297    -8781.509    41.460938     -8822.97   -2820.9084 
  117600     280.5825   -8787.5787    40.981794   -8828.5605   -19857.372 
  117800    327.20536   -8777.4818    47.791514   -8825.2733   -12414.837 
  118000    221.47879   -8794.8576    32.349123   -8827.2067   -2927.0018 
  118200    299.40235   -8788.8546    43.730615   -8832.5852   -29984.468 
  118400    317.05033   -8787.0902    46.308274   -8833.3984   -6118.6252 
  118600    386.52465   -8773.8017    56.455671   -8830.2573     3660.813 
  118800    351.26657   -8788.0579    51.305888   -8839.3638    15055.287 
  119000    297.71599   -8786.4418    43.484306   -8829.9261    41385.707 
  119200     411.3299   -8763.3705    60.078719   -8823.4493    5740.8995 
  119400    358.35924   -8772.4446    52.341841   -8824.7864   -12793.974 
  119600    321.30362   -8790.1206    46.929508   -8837.0501   -13558.643 
  119800    305.10133   -8787.5195    44.563006   -8832.0825   -29765.837 
  120000    334.44594   -8777.2481     48.84907   -8826.0972   -9121.1995 
  120200    214.62101   -8797.1414    31.347479   -8828.4889    9801.0015 
  120400    281.93111   -8784.9055    41.178771   -8826.0843    11135.757 
  120600    344.33288   -8773.5437    50.293155   -8823.8368   -4381.1563 
  120800    271.85619   -8781.8232    39.707232   -8821.5304   -11074.578 
  121000    301.45503    -8791.209    44.030428   -8835.2394     -27275.5 
  121200    240.02497   -8796.9181    35.057974   -8831.9761    46687.933 
  121400    342.56647   -8785.3914    50.035154   -8835.4266   -21905.086 
  121600    311.40911   -8793.8269    45.484318   -8839.3112   -18739.872 
  121800     228.9196   -8798.1653    33.435927   -8831.6012    16272.801 
  122000    303.63346   -8779.4388    44.348609   -8823.7874    24001.444 
  122200    302.94246   -8783.2108    44.247683   -8827.4585   -13071.264 
  122400    240.84476   -8794.2484    35.177712   -8829.4261     -46578.4 
  122600    300.84891   -8784.0874    43.941899   -8828.0293   -13043.371 
  122800    236.09174   -8791.6529    34.483486   -8826.1364   -20731.262 
  123000    319.94146   -8780.8995    46.730551     -8827.63    22280.348 
  123200    324.86452   -8788.6639    47.449612   -8836.1135    27452.097 
  123400    275.75001   -8790.0387    40.275962   -8830.3146   -38815.775 
  123600    332.24989   -8778.6433    48.528317   -8827.1716   -21071.663 
  123800    257.39289   -8797.5132    37.594727   -8835.1079    20244.203 
  124000    259.42612    -8798.581    37.891699   -8836.4727   -28020.742 
  124200    349.31949   -8781.6837    51.021498   -8832.7052    69590.549 
  124400    332.65846   -8779.1978    48.587992   -8827.7858   -33939.378 
  124600    321.52907   -8791.9036    46.962436    -8838.866     29623.54 
  124800    286.86685   -8795.9839    41.899684   -8837.8836    13260.881 
  125000    299.74697   -8781.2056    43.780951   -8824.9865    4097.1643 
  125200    312.24527   -8780.0318    45.606448   -8825.6382    11983.637 
  125400    252.04711   -8796.5916    36.813923   -8833.4055    25187.789 
  125600     354.2501   -8782.0888     51.74166   -8833.8304   -15624.088 
  125800    293.02303   -8785.7973    42.798853   -8828.5961   -21085.325 
  126000    234.95879   -8802.2753    34.318008   -8836.5933    7731.4997 
  126200    253.04484   -8795.3216    36.959652   -8832.2813    39091.455 
  126400    309.81899   -8788.2359    45.252066    -8833.488   -13447.378 
  126600    297.00901   -8780.9241    43.381044   -8824.3052    36643.442 
  126800    323.57096    -8763.922    47.260675   -8811.1827   -42564.053 
  127000    260.80789   -8786.3101     38.09352   -8824.4036   -18691.045 
  127200    304.57242   -8780.2724    44.485754   -8824.7582    60349.851 
  127400     291.1936    -8789.742    42.531648   -8832.2736    3412.3833 
  127600    262.67889   -8798.8755    38.366797   -8837.2423    7122.4821 
  127800    356.50365   -8781.2885    52.070813   -8833.3593     14621.28 
  128000    276.78259   -8791.5898     40.42678   -8832.0166   -9753.6379 
  128200    353.43747   -8780.1336    51.622968   -8831.7566   -9121.2837 
  128400    276.18085    -8781.551    40.338889   -8821.8898    46001.567 
  128600    280.97139   -8788.3788    41.038594   -8829.4174    435.27835 
  128800    295.90142   -8797.1828     43.21927    -8840.402   -25476.465 
  129000    317.58432   -8784.9006    46.386268   -8831.2868   -38202.282 
  129200    295.56834   -8785.0563    43.170621   -8828.2269   -28256.731 
  129400     296.7409   -8790.4556    43.341884   -8833.7975    17946.026 
  129600    312.49412   -8787.5451    45.642795   -8833.1878   -15662.974 
  129800    296.03557   -8780.2626    43.238865   -8823.5015   -14265.807 
  130000    278.34676   -8770.6698    40.655243   -8811.3251   -34754.927 
  130200    307.27575   -8784.0849    44.880601   -8828.9655   -25130.746 
  130400    277.76403   -8794.7671    40.570129   -8835.3372    6.7561318 
  130600    309.01435   -8780.5992    45.134541   -8825.7338    9815.3513 
  130800    411.32954   -8776.6147    60.078666   -8836.6934    41771.423 
  131000    288.92355   -8791.1754    42.200084   -8833.3755   -15987.637 
  131200     325.9517   -8784.9085    47.608405   -8832.5169   -16399.579 
  131400    351.94495   -8773.7203    51.404971   -8825.1253   -40618.312 
  131600    307.99523   -8786.9341    44.985688   -8831.9198   -19990.226 
  131800    344.96746   -8788.6291    50.385841   -8839.0149   -9817.9884 
  132000    297.51033    -8790.677    43.454268   -8834.1312   -4077.4141 
  132200    347.46386   -8780.7943    50.750465   -8831.5448    13867.093 
  132400    327.98182   -8779.3098    47.904923   -8827.2147   -4219.4879 
  132600    230.39185   -8783.0526    33.650963   -8816.7035   -44876.247 
  132800    342.92658   -8774.0054    50.087751   -8824.0932   -7404.1706 
  133000    300.46569   -8790.3829    43.885926   -8834.2689    10893.883 
  133200    303.92548   -8781.3603    44.391262   -8825.7516    32103.366 
  133400    237.59598   -8798.0913    34.703196   -8832.7945   -4186.5408 
  133600    301.07531   -8791.5183    43.974967   -8835.4932   -10992.802 
  133800    330.14715   -8783.2296    48.221191   -8831.4507   -12017.892 
  134000    250.58605   -8791.4769    36.600522   -8828.0774    6181.2157 
  134200      294.083   -8781.1675    42.953672   -8824.1212    12058.535 
  134400    312.61929   -8777.5673    45.661077   -8823.2284    28470.694 
  134600    266.60073   -8796.2005     38.93962   -8835.1401    37032.695 
  134800    278.03374   -8791.8712    40.609523   -8832.4808    12770.492 
  135000    306.76306   -8777.1777    44.805719   -8821.9834   -40087.752 
  135200    324.06147   -8785.8218    47.332319   -8833.1541   -2389.4854 
  135400    259.34563   -8789.9172    37.879942   -8827.7971   -32530.739 
  135600    295.42237   -8777.6869      43.1493   -8820.8362    1971.0274 
  135800    300.96917   -8784.3035    43.959465    -8828.263   -27616.638 
  136000     239.2438   -8800.0337    34.943876   -8834.9775    12995.146 
  136200    278.27451   -8791.3859     40.64469   -8832.0306    4226.6115 
  136400    352.50431   -8782.0129    51.486671   -8833.4996   -12077.137 
  136600    341.60213   -8778.5729    49.894303   -8828.4672   -991.31541 
  136800    254.87427   -8786.1366    37.226857   -8823.3634   -7760.2145 
  137000    289.37727   -8776.3363    42.266356   -8818.6027    19007.163 
  137200    240.76103   -8792.6654    35.165482   -8827.8309    23130.394 
  137400    281.72851   -8788.5173     41.14918   -8829.6664     -13138.1 
  137600    295.59078    -8790.808    43.173898   -8833.9819    5045.3715 
  137800    272.57003   -8804.8132    39.811495   -8844.6247    10426.988 
  138000     242.0835   -8789.9739    35.358641   -8825.3326    93.349016 
  138200    295.24131   -8782.0779    43.122855   -8825.2008   -27548.496 
  138400    299.03501   -8786.1325    43.676962   -8829.8094   -12412.596 
  138600    241.44062    -8789.884    35.264742   -8825.1488    8027.1823 
  138800      316.686   -8773.2646     46.25506   -8819.5197    -10394.31 
  139000    311.14298   -8789.6245    45.445448   -8835.0699    20345.331 
  139200    259.95109   -8796.7822    37.968376   -8834.7506    7596.3201 
  139400    331.61709   -8780.3368    48.435889   -8828.7727   -34700.674 
  139600    248.38656   -8796.5173    36.279264   -8832.7966   -47981.128 
  139800    315.20037   -8785.0998     46.03807   -8831.1378   -9795.6656 
  140000    321.02213   -8778.3192    46.888394   -8825.2076     29021.81 
  140200    320.99862   -8773.3254    46.884959   -8820.2103    33092.764 
  140400    259.66832   -8791.9977    37.927075   -8829.9248    28435.217 
  140600    301.67336    -8786.989    44.062319   -8831.0514    15367.661 
  140800    272.38149   -8786.7691    39.783957   -8826.5531   -9352.7659 
  141000    264.01359   -8795.5238    38.561744   -8834.0856   -23609.783 
  141200    313.68218   -8782.4687    45.816323    -8828.285   -17560.146 
  141400    306.86623   -8783.0903    44.820788   -8827.9111   -31566.727 
  141600    309.33034   -8782.9963    45.180695    -8828.177    799.09417 
  141800    381.69605   -8775.3543    55.750408   -8831.1047   -28487.375 
  142000    291.36141   -8792.6304    42.556158   -8835.1866    1647.9709 
  142200     336.4123   -8788.1562    49.136277   -8837.2925    19682.717 
  142400    329.00151   -8777.1281    48.053859    -8825.182   -5546.4447 
  142600    296.17033   -8791.9877    43.258547   -8835.2462   -47879.115 
  142800    276.65794   -8791.4028    40.408574   -8831.8114     29925.85 
  143000    312.03945   -8775.7375    45.576386   -8821.3139    25811.748 
  143200    313.53134    -8788.136    45.794291   -8833.9303   -34316.926 
  143400    280.33799   -8793.3678    40.946081   -8834.3139   -37526.108 
  143600    313.80279   -8782.8148    45.833939   -8828.6487   -7467.4416 
  143800    386.53336   -8770.9973    56.456943   -8827.4543   -44382.015 
  144000    283.88512   -8790.1726    41.464173   -8831.6367   -22753.937 
  144200    321.08112   -8784.5974    46.897009   -8831.4945    -14830.62 
  144400     305.8936   -8774.9318    44.678725   -8819.6105   -19862.409 
  144600     333.5332   -8783.8692    48.715756    -8832.585   -16450.829 
  144800    326.40983   -8792.3292     47.67532   -8840.0045    5944.1742 
  145000     334.3929   -8778.2397    48.841324    -8827.081    21570.104 
  145200      283.668   -8785.7112     41.43246   -8827.1436    7144.0997 
  145400    295.29104   -8791.7892    43.130118   -8834.9193    7142.2634 
  145600    335.03167     -8780.17    48.934623   -8829.1046    12555.409 
  145800    323.97625   -8777.7383    47.319871   -8825.0582   -9411.0502 
  146000    328.33498   -8782.7512    47.956506   -8830.7077   -18853.602 
  146200    286.85853    -8791.616    41.898469   -8833.5144    28723.786 
  146400    214.68135   -8802.1949    31.356292   -8833.5512   -8470.9178 
  146600    312.34143    -8783.123    45.620493   -8828.7435    17112.789 
  146800    294.51199    -8791.775     43.01633   -8834.7913   -20550.487 
  147000    284.13597   -8792.5156    41.500812   -8834.0164    38380.896 
  147200    334.22323   -8778.7287    48.816541   -8827.5452   -5787.7068 
  147400    289.15281   -8788.0366    42.233571   -8830.2702   -7233.9232 
  147600     328.0094   -8795.4798    47.908952   -8843.3888    56010.005 
  147800    283.39767   -8790.3304    41.392977   -8831.7234    -35469.16 
  148000     341.2136   -8778.8024    49.837554     -8828.64   -19279.316 
  148200    283.30856    -8790.461    41.379962    -8831.841    15586.901 
  148400    250.36545   -8790.4053    36.568301   -8826.9736    3650.4071 
  148600    256.78537   -8775.7251    37.505993   -8813.2311    -52138.01 
  148800    343.52695   -8782.8602    50.175441   -8833.0357   -5205.6947 
  149000     297.4492   -8791.6828    43.445339   -8835.1281      6068.26 
  149200    338.76703   -8779.8259    49.480208   -8829.3061   -18657.076 
  149400    297.40059   -8783.2339    43.438239   -8826.6721    2755.3495 
  149600     281.8687   -8785.4057    41.169656   -8826.5753    13946.023 
  149800    329.32294   -8781.8552    48.100807   -8829.9561    11849.336 
  150000    241.19797   -8798.6382    35.229301   -8833.8675    8266.1801 
  150200    305.02712   -8785.0843    44.552167   -8829.6364    28383.117 
  150400    293.50042   -8791.5869    42.868581   -8834.4555   -19681.949 
  150600    201.76175   -8801.3359     29.46926   -8830.8052   -15791.602 
  150800    330.73076   -8781.5242    48.306432   -8829.8306   -13160.687 
  151000    293.30418   -8791.9148    42.839919   -8834.7547   -29809.739 
  151200    292.21588    -8777.779    42.680962     -8820.46   -9702.6479 
  151400    338.19209   -8780.4613    49.396232   -8829.8575   -9667.1586 
  151600    355.15557   -8785.3315    51.873913   -8837.2054    12346.286 
  151800    286.68241   -8799.7269    41.872745   -8841.5997   -25564.063 
  152000    278.02325   -8794.6537     40.60799   -8835.2617    34177.595 
  152200     297.0102   -8784.6311    43.381218   -8828.0123      12402.1 
  152400    378.89546   -8778.3026    55.341354   -8833.6439   -21961.369 
  152600    261.15721   -8795.7065    38.144541   -8833.8511    13957.817 
  152800    337.25141   -8783.9522    49.258837    -8833.211   -27610.373 
  153000    279.27731   -8786.5417    40.791157   -8827.3329   -7205.7805 
  153200    239.92041   -8795.0339    35.042701   -8830.0766      11163.7 
  153400    288.66085    -8786.597    42.161715   -8828.7587   -39436.129 
  153600    355.88537   -8777.3786    51.980508   -8829.3591    19945.528 
  153800     269.4597   -8798.9588    39.357201    -8838.316   -10987.661 
  154000    281.64982   -8787.2746    41.137686   -8828.4123    11502.506 
  154200    334.00837   -8785.4659     48.78516    -8834.251   -15176.349 
  154400    315.94663   -8775.5554    46.147068   -8821.7025    28306.061 
  154600    265.08949   -8792.5409    38.718889   -8831.2598    45171.332 
  154800    300.97191    -8783.611    43.959865   -8827.5709    23482.086 
  155000    334.94905   -8781.6112    48.922555   -8830.5337   -4735.5383 
  155200    258.51172   -8798.5099    37.758143    -8836.268   -29713.528 
  155400    294.08465   -8787.7532    42.953914   -8830.7071   -16086.531 
  155600    310.48129   -8783.1494    45.348802   -8828.4982   -37590.139 
  155800    277.20168   -8798.0834    40.487993   -8838.5713    25498.652 
  156000    329.16262   -8785.3291    48.077391   -8833.4065    18234.487 
  156200    277.28696   -8790.0797    40.500448   -8830.5802    18778.236 
  156400    286.09628   -8772.4216    41.787134   -8814.2087   -26168.762 
  156600    285.22265   -8778.0382    41.659532   -8819.6978    13374.287 
  156800    286.00914   -8787.2911    41.774406   -8829.0655    19540.274 
  157000    365.20225   -8775.4364    53.341329   -8828.7777   -2517.2648 
  157200    323.69678   -8784.4351    47.279053   -8831.7142   -1864.9359 
  157400    270.81916   -8794.6727    39.555764   -8834.2285   -6308.1892 
  157600    273.64492   -8786.0476    39.968493   -8826.0161    6074.9782 
  157800    318.64065   -8774.1774    46.540555    -8820.718   -16934.898 
  158000    282.43862   -8786.4789    41.252898   -8827.7318    1518.7357 
  158200    198.02608   -8806.5787    28.923628   -8835.5023    42493.518 
  158400    248.12552   -8793.1995    36.241138   -8829.4406    676.54538 
  158600    339.71857   -8783.5587    49.619189   -8833.1779   -7347.2648 
  158800    276.88495   -8802.0821     40.44173   -8842.5238   -15825.637 
  159000    239.25579   -8794.6949    34.945627   -8829.6406    17872.673 
  159200    270.50516   -8785.5972    39.509901   -8825.1071   -57630.913 
  159400    324.69032   -8784.0572    47.424168   -8831.4813    29169.291 
  159600    309.41751   -8778.9727    45.193426   -8824.1662    59700.283 
  159800    336.69144   -8773.6775    49.177048   -8822.8546    8735.1975 
  160000    317.35746   -8791.8649    46.353133    -8838.218    20488.089 
  160200    297.29738   -8792.1526    43.423164   -8835.5758    27345.249 
  160400    374.84725   -8773.4095    54.750074   -8828.1595   -15253.079 
  160600    353.70932   -8788.6384    51.662675   -8840.3011    27799.289 
  160800    285.94829   -8785.3895    41.765519    -8827.155   -50859.786 
  161000    309.82823   -8770.1849    45.253417   -8815.4383    4025.3351 
  161200    232.98133   -8787.2594    34.029182   -8821.2885   -39306.069 
  161400    297.74197   -8793.8143      43.4881   -8837.3024    -15694.63 
  161600    272.12029   -8795.0786    39.745806   -8834.8244    23363.222 
  161800     310.4809   -8782.5597    45.348745   -8827.9084    29956.407 
  162000    260.58303   -8797.9406    38.060677   -8836.0012    -28179.46 
  162200    251.84242   -8793.2303    36.784026   -8830.0143    -1429.697 
  162400    239.60555   -8783.0826    34.996712   -8818.0793    4941.0133 
  162600    341.49718   -8784.5176    49.878973   -8834.3966   -13495.288 
  162800    257.47321   -8796.3393    37.606458   -8833.9458    17292.735 
  163000    308.11287   -8785.0948     45.00287   -8830.0977   -25957.218 
  163200    344.88885    -8780.662    50.374359   -8831.0364   -7242.8711 
  163400    313.37664    -8797.003    45.771696   -8842.7747    33074.291 
  163600    309.87941   -8783.9216    45.260891   -8829.1825   -8023.0775 
  163800    317.62256   -8780.8348    46.391854   -8827.2266   -33897.099 
  164000     216.6949    -8791.998     31.65039   -8823.6483   -25179.452 
  164200    270.20824   -8796.7393    39.466532   -8836.2058   -12153.794 
  164400    367.92161    -8781.385    53.738517   -8835.1235   -11044.845 
  164600     298.2863   -8794.0732    43.567606   -8837.6408   -10376.783 
  164800    302.85874   -8792.0418    44.235454   -8836.2772   -37077.499 
  165000    332.55773   -8782.1175     48.57328   -8830.6907   -962.58677 
  165200    306.34063   -8782.8735    44.744019   -8827.6175    6355.3792 
  165400     312.7869   -8786.3767    45.685558   -8832.0623    11390.248 
  165600    313.81079     -8796.53    45.835107   -8842.3651    20928.273 
  165800    291.02398   -8788.6259    42.506874   -8831.1328   -33091.349 
  166000     275.3578   -8793.0765    40.218675   -8833.2952   -24981.848 
  166200    237.40838    -8803.298    34.675795   -8837.9738   -9492.7269 
  166400    315.57639   -8788.7111    46.092991   -8834.8041    -1944.691 
  166600    241.31853   -8782.6279     35.24691   -8817.8748   -16234.592 
  166800    343.23659   -8771.7228    50.133031   -8821.8559   -34496.704 
  167000    261.29432   -8790.3461    38.164568   -8828.5107    38011.552 
  167200    335.79625   -8781.3096    49.046297   -8830.3559   -16818.163 
  167400    275.17288   -8797.0059    40.191666   -8837.1975   -54873.672 
  167600    253.93236   -8793.3279    37.089283   -8830.4172   -13300.186 
  167800    389.67099   -8772.1772    56.915225   -8829.0924     10031.91 
  168000    275.68658   -8785.0944    40.266697   -8825.3611    63386.603 
  168200    296.32701   -8784.8946    43.281432   -8828.1761   -17184.244 
  168400    316.28196   -8782.7746    46.196046   -8828.9707   -7054.4851 
  168600    353.71317   -8779.7677    51.663238   -8831.4309    35225.724 
  168800    308.10714   -8797.4029    45.002034   -8842.4049    5786.2408 
  169000    290.00093   -8793.1597    42.357446   -8835.5172     15015.37 
  169200    324.38943   -8777.9909    47.380221   -8825.3711   -7472.4221 
  169400    276.83631   -8788.9627    40.434626   -8829.3973    15754.265 
  169600    274.16548   -8778.2359    40.044525   -8818.2804     10681.32 
  169800     314.8401   -8780.7022    45.985448   -8826.6877   -34926.772 
  170000    285.84404   -8789.8435    41.750292   -8831.5938   -10396.037 
  170200    297.30517   -8790.6291    43.424302   -8834.0535   -6748.9709 
  170400    265.28944   -8797.7912    38.748094   -8836.5393    43981.766 
  170600    268.23172   -8800.3003    39.177843   -8839.4781   -28407.278 
  170800    274.67022   -8787.9904    40.118247   -8828.1087   -29997.942 
  171000    287.25551   -8780.1074    41.956452   -8822.0639   -68684.106 
  171200    294.32868     -8782.17    42.989557   -8825.1596   -31155.509 
  171400    273.01718   -8792.6018    39.876805   -8832.4786   -6310.3756 
  171600    341.80985   -8776.5834    49.924642    -8826.508   -1777.6704 
  171800    314.60189    -8787.981    45.950655   -8833.9316   -24738.857 
  172000    293.72164   -8791.3349    42.900893   -8834.2358   -21932.163 
  172200    274.58359   -8786.6392    40.105594   -8826.7448    9813.6987 
  172400    289.98976   -8785.2337    42.355815   -8827.5895   -978.36952 
  172600    270.15433    -8796.241    39.458658   -8835.6997    40240.288 
  172800    314.34469   -8775.1007    45.913089   -8821.0138    7619.4788 
  173000    334.76044    -8782.257    48.895007   -8831.1521    -20793.04 
  173200    270.84758   -8792.7299    39.559914   -8832.2899    -29339.09 
  173400    268.67757   -8790.0751    39.242964   -8829.3181    8121.4852 
  173600    287.82848   -8789.8063    42.040139   -8831.8465     29637.64 
  173800    342.90423    -8785.014    50.084486   -8835.0985   -23610.988 
  174000    268.30324   -8798.4695    39.188288   -8837.6578   -45682.021 
  174200    313.96196   -8785.2267    45.857188   -8831.0839   -39274.883 
  174400    258.05424   -8787.1764    37.691323   -8824.8677    -45299.46 
  174600    260.48438    -8792.203    38.046269   -8830.2493   -3959.3074 
  174800    318.36737   -8779.2225    46.500641   -8825.7232    39084.701 
  175000    280.67775   -8794.2893    40.995706    -8835.285    5587.0779 
  175200    294.33334   -8788.6024    42.990237   -8831.5926    21132.606 
  175400     315.9026   -8784.2251    46.140637   -8830.3658   -3330.9468 
  175600    281.33157   -8789.0439    41.091203   -8830.1351    17955.634 
  175800    285.82528   -8790.6362    41.747552   -8832.3838    5684.1315 
  176000    316.38922   -8776.3153    46.211712    -8822.527    8677.8751 
  176200    304.45957   -8787.0783    44.469271   -8831.5475   -13170.419 
  176400    327.05825   -8790.6257    47.770028   -8838.3957     19376.04 
  176600    308.13617   -8788.1602    45.006274   -8833.1665    54162.305 
  176800    308.89019   -8781.8433    45.116406   -8826.9597   -40387.007 
  177000     257.2624   -8794.2798    37.575666   -8831.8555    20239.838 
  177200    295.80871   -8787.1346    43.205729   -8830.3403    20502.503 
  177400    281.99765   -8783.6752     41.18849   -8824.8637     34420.56 
  177600    285.27341   -8791.4305    41.666947   -8833.0975    6997.7829 
  177800    282.85625   -8804.0078    41.313896   -8845.3217   -25176.668 
  178000    297.27522   -8790.9142    43.419927   -8834.3342   -22753.667 
  178200    296.26499   -8780.3274    43.272373   -8823.5997    -40821.38 
  178400    263.94097   -8790.2546    38.551137   -8828.8058   -25267.051 
  178600    284.99902   -8786.9172     41.62687   -8828.5441   -1651.7071 
  178800    365.61893   -8778.8991    53.402189   -8832.3013   -24043.283 
  179000    297.20072   -8790.0445    43.409045   -8833.4535   -33944.368 
  179200    315.41588   -8789.1041    46.069547   -8835.1736   -52696.451 
  179400    264.29638   -8783.0996    38.603048   -8821.7027   -27404.427 
  179600    251.10213    -8796.777      36.6759   -8833.4529   -24839.442 
  179800    289.04474   -8780.9123    42.217786   -8823.1301    -4330.192 
[...]
  950000    310.39227   -8791.5712      45.3358    -8836.907     17245.38 
  950200    334.43801   -8769.6849    48.847913   -8818.5328    17107.622 
  950400    329.45259   -8786.3678    48.119744   -8834.4876    -4882.194 
  950600    242.17871   -8791.0103    35.372548   -8826.3829    20466.785 
  950800    341.60833   -8774.0819    49.895207   -8823.9771     9603.605 
  951000    267.82983   -8793.2838    39.119142    -8832.403    29781.744 
  951200    312.96998   -8788.1292    45.712299   -8833.8415   -18020.999 
  951400    311.97966   -8776.5952    45.567652   -8822.1628   -31867.665 
  951600     278.5197   -8797.0261    40.680501   -8837.7066    6241.8705 
  951800    292.37243   -8786.5749    42.703828   -8829.2787     16397.55 
  952000    339.18116   -8785.0496    49.540695   -8834.5902    13655.881 
  952200    264.91123   -8792.0465    38.692853   -8830.7394   -40084.172 
  952400    277.52281   -8785.2671    40.534896   -8825.8019   -13006.782 
  952600    293.05424   -8787.4712    42.803412   -8830.2746   -6626.1485 
  952800    226.44814   -8801.8271    33.074946   -8834.9021    4221.1402 
  953000    255.24239   -8787.1889    37.280625   -8824.4695    28823.332 
  953200     318.3423   -8783.3322    46.496978   -8829.8292    11939.277 
  953400    260.17316    -8796.976    38.000812   -8834.9768   -29497.597 
  953600    288.19323   -8785.5427    42.093415   -8827.6361     52651.44 
  953800    299.38868   -8785.8563    43.728619   -8829.5849    12076.085 
  954000    338.62629   -8778.6813    49.459652   -8828.1409    37547.264 
  954200    300.64785   -8782.7688    43.912533   -8826.6814   -1139.3718 
  954400    319.07889   -8796.2836    46.604564   -8842.8881    41455.942 
  954600    306.05671   -8781.8885    44.702549   -8826.5911    41609.696 
  954800    300.27958   -8779.1099    43.858743   -8822.9687    28866.632 
  955000    261.82402    -8792.501    38.241935   -8830.7429   -22630.943 
  955200    280.06484    -8777.668    40.906184   -8818.5742    32657.146 
  955400    358.47602   -8775.9488    52.358897   -8828.3077   -6383.5328 
  955600    270.40377   -8791.6454    39.495092   -8831.1405     20570.59 
  955800    304.85664   -8785.8498    44.527267   -8830.3771    41484.522 
  956000    325.09748   -8769.7131    47.483638   -8817.1967    20112.809 
  956200    316.30105   -8784.3122    46.198834    -8830.511    4175.9797 
  956400      349.932   -8790.3566    51.110961   -8841.4675    53390.049 
  956600    346.49264   -8776.6626    50.608608   -8827.2712   -20350.428 
  956800    290.37361    -8785.927     42.41188   -8828.3389   -25935.384 
  957000    337.80736    -8786.565     49.34004    -8835.905   -18331.423 
  957200    276.29043    -8790.621    40.354895   -8830.9759    14880.484 
  957400    307.58663   -8788.4916    44.926008   -8833.4176   -32255.945 
  957600    294.99655   -8777.4775    43.087105   -8820.5646     17967.81 
  957800     295.6638   -8795.0865    43.184563   -8838.2711    34768.417 
  958000    298.60851   -8792.3679    43.614667   -8835.9826   -36894.993 
  958200    321.03027   -8783.5996    46.889583   -8830.4892    14948.251 
  958400    303.47466   -8784.0644    44.325416   -8828.3899    1268.5609 
  958600    295.96992   -8795.9649    43.229275   -8839.1942     13366.54 
  958800    302.40351   -8787.2862    44.168964   -8831.4551   -40357.031 
  959000    362.23864   -8779.0281    52.908464   -8831.9366    50264.331 
  959200    291.33881    -8792.647    42.552857   -8835.1998   -47520.538 
  959400     249.5783   -8805.0704     36.45333   -8841.5238   -15646.557 
  959600    288.64788   -8791.6022    42.159821    -8833.762    41574.976 
  959800    322.00472   -8778.7669     47.03191   -8825.7988   -16947.762 
  960000     310.5668   -8791.1111    45.361291   -8836.4724   -20655.939 
  960200    287.29118   -8791.9721    41.961661   -8833.9338    20554.432 
  960400    314.71909   -8781.3329    45.967774   -8827.3006   -27472.683 
  960600    264.20666   -8789.9814    38.589944   -8828.5713    43589.395 
  960800    290.27568   -8793.5587    42.397576   -8835.9563   -22409.785 
  961000    305.16714   -8781.4076    44.572618   -8825.9802    29441.591 
  961200    315.07723   -8785.3942    46.020083   -8831.4143   -20828.518 
  961400    311.13501   -8789.2471    45.444284   -8834.6914    8419.4136 
  961600    245.39651   -8784.1384    35.842539    -8819.981    568.35143 
  961800    408.46666   -8772.5131    59.660515   -8832.1736    -6079.112 
  962000    266.23421   -8790.2789    38.886086    -8829.165    1097.2844 
  962200     282.0166   -8788.5481    41.191257   -8829.7393     3770.637 
  962400    276.54436   -8776.8642    40.391985   -8817.2561   -39359.348 
  962600    272.98111   -8789.5138    39.871537   -8829.3854    7681.6648 
  962800    289.63097   -8784.1994     42.30341   -8826.5028    5677.0606 
  963000    305.54921   -8777.1884    44.628424   -8821.8168    38713.539 
  963200    235.24888   -8793.8489    34.360379   -8828.2092      -5606.6 
  963400      367.021   -8780.0726    53.606974   -8833.6796    6523.3148 
  963600    266.80657   -8786.8227    38.969685   -8825.7924    7671.5467 
  963800    283.75953   -8795.6362     41.44583   -8837.0821    9236.4142 
  964000    311.81942    -8783.011    45.544249   -8828.5553   -3429.2358 
  964200    319.02301    -8783.462    46.596402   -8830.0584   -41660.161 
  964400    296.26455   -8787.3625    43.272309   -8830.6348    5518.5502 
  964600     274.5031   -8797.7455    40.093838   -8837.8394    10323.941 
  964800    328.25585   -8780.7446    47.944949   -8828.6895   -51362.318 
  965000    293.78624    -8787.141    42.910328   -8830.0514   -15063.471 
  965200    244.97922   -8796.8885    35.781589   -8832.6701   -5428.4743 
  965400    319.53801   -8788.1889    46.671624   -8834.8606    16866.318 
  965600    295.18128   -8785.2338    43.114086   -8828.3479   -10197.618 
  965800     403.9333    -8770.889    58.998374   -8829.8874    10916.187 
  966000    360.80285   -8788.2829    52.698753   -8840.9817    20960.525 
  966200    262.42085     -8789.43    38.329109   -8827.7591    482.46857 
  966400    299.36543   -8772.3964    43.725222   -8816.1217    -13877.91 
  966600     290.3384   -8784.7536    42.406738   -8827.1603    299.80192 
  966800    292.15986   -8790.0718    42.672779   -8832.7446   -27413.922 
  967000    363.81943   -8775.9379    53.139354   -8829.0772    1180.4541 
  967200    270.61503   -8789.3935    39.525948   -8828.9195   -25685.229 
  967400    309.16949     -8786.94    45.157201   -8832.0972   -19225.893 
  967600    311.87399   -8777.2824    45.552219   -8822.8346   -48996.702 
  967800    291.86623   -8791.3683    42.629892   -8833.9982   -1612.6404 
  968000    288.29912    -8785.005     42.10888   -8827.1139   -17543.473 
  968200    294.79847   -8780.3422    43.058174   -8823.4004   -22336.299 
  968400    262.03228   -8793.7047    38.272354    -8831.977    12341.244 
  968600    280.23535   -8787.1451    40.931089   -8828.0762    11126.354 
  968800    245.47052    -8800.032    35.853348   -8835.8854   -12036.352 
  969000    297.54486   -8783.9195    43.459311   -8827.3788    948.59403 
  969200    242.06501   -8791.7932    35.355941   -8827.1492    -6385.321 
  969400    317.93468   -8778.8443    46.437441   -8825.2817    -17223.99 
  969600    315.39146   -8782.6271     46.06598   -8828.6931   -4974.6076 
  969800     285.0178   -8790.3073    41.629612   -8831.9369   -12599.574 
  970000    306.15034   -8785.5572    44.716225   -8830.2734   -25712.395 
  970200    384.48393   -8766.9532    56.157605   -8823.1108    7724.6434 
  970400    270.64087   -8785.2591    39.529722   -8824.7889    9297.9882 
  970600    326.73242   -8786.4753    47.722437   -8834.1977    4940.2892 
  970800    297.00207   -8789.9257    43.380031   -8833.3057    20806.095 
  971000    327.55264   -8777.0716    47.842237   -8824.9138   -24341.001 
  971200    277.52244   -8787.8513    40.534842   -8828.3861   -42404.694 
  971400    332.87021   -8789.3799    48.618921   -8837.9988   -17835.377 
  971600    263.06945   -8792.0472    38.423844    -8830.471   -68914.831 
  971800    365.51358   -8776.2111    53.386801   -8829.5979    276.05584 
  972000     270.8633   -8786.8415     39.56221   -8826.4037    3181.1709 
  972200    296.21641   -8783.1493    43.265277   -8826.4145    11863.292 
  972400    230.15135   -8799.5382    33.615836    -8833.154   -28382.305 
  972600    309.02738   -8786.8541    45.136445   -8831.9905    43391.436 
  972800    275.00305   -8784.7177    40.166861   -8824.8846   -24679.765 
  973000    333.04245    -8771.096    48.644078   -8819.7401   -37142.218 
  973200    287.39467   -8789.3092    41.976777    -8831.286    -20879.63 
  973400    311.20812   -8782.4832    45.454962   -8827.9382    144.81891 
  973600    261.37172   -8796.4798    38.175873   -8834.6556   -11404.802 
  973800    313.95758   -8783.9464    45.856548    -8829.803    30271.887 
  974000    302.07544   -8786.8571    44.121046   -8830.9781   -8118.1615 
  974200    281.41049   -8789.4328     41.10273   -8830.5356   -9056.3161 
  974400     347.6538   -8778.9934    50.778207   -8829.7716    12896.191 
  974600    311.53615   -8792.8823    45.502874   -8838.3852    10974.857 
  974800    314.37961   -8792.0225    45.918189   -8837.9407   -1796.2955 
  975000    323.69982   -8784.6539    47.279496   -8831.9334    22596.776 
  975200    235.77612   -8798.4632    34.437387   -8832.9006    38203.589 
  975400    315.42798   -8790.2793    46.071313   -8836.3506     15556.66 
  975600    287.80377   -8785.3797     42.03653   -8827.4162    11965.032 
  975800    342.92262   -8777.3229    50.087172     -8827.41    38618.553 
  976000    298.41974   -8785.6455    43.587095   -8829.2326    58495.346 
  976200    299.65769   -8790.7031    43.767909    -8834.471   -5927.5548 
  976400    287.93875   -8783.3325    42.056246   -8825.3888    26042.502 
  976600    310.12916   -8774.0074    45.297369   -8819.3048   -11921.571 
  976800     294.6965   -8790.7518     43.04328   -8833.7951     12627.67 
  977000    323.60903   -8778.3717    47.266236   -8825.6379     27125.37 
  977200    264.88869   -8790.6839     38.68956   -8829.3735   -22652.281 
  977400    317.87736   -8790.5737    46.429069   -8837.0027   -4990.2597 
  977600    324.23326   -8770.9714     47.35741   -8818.3288   -17952.625 
  977800    393.95288    -8764.945    57.540636   -8822.4857    -17784.26 
  978000    291.53187   -8787.9621    42.581055   -8830.5431   -9847.6823 
  978200    290.93633    -8791.658    42.494071    -8834.152   -28175.194 
  978400    347.24212   -8777.3883    50.718077   -8828.1063    11612.773 
  978600    270.76941   -8778.6465    39.548496    -8818.195    6445.8273 
  978800    292.66132   -8789.4396    42.746022   -8832.1856   -56600.102 
  979000    279.86823   -8791.5615    40.877468   -8832.4389   -23346.044 
  979200    359.94572   -8775.3547    52.573561   -8827.9282    51590.897 
  979400    289.22554   -8791.1619    42.244193   -8833.4061    33652.714 
  979600     254.3296   -8792.7702    37.147303   -8829.9175    18504.713 
  979800     324.1577   -8774.4771    47.346374   -8821.8235   -31333.391 
  980000    322.64422   -8787.5338    47.125315   -8834.6591    16537.335 
  980200    268.76546   -8787.0411    39.255801   -8826.2969   -40960.683 
  980400    339.48546   -8787.3731    49.585142   -8836.9583    29023.006 
  980600    339.90552   -8772.8144    49.646495   -8822.4609    18642.942 
  980800     324.7418   -8783.0381    47.431688   -8830.4698   -12562.235 
  981000    298.62575   -8790.5032    43.617185   -8834.1204   -1414.6756 
  981200    346.06296   -8780.7472     50.54585    -8831.293    25689.346 
  981400    295.08727    -8781.519    43.100356   -8824.6193    13135.112 
  981600    292.28683   -8790.4624    42.691324   -8833.1537    27156.594 
  981800      351.314   -8780.5537    51.312815   -8831.8665   -26290.343 
  982000     284.8059   -8791.9321    41.598663   -8833.5307    4153.4224 
  982200    345.07504   -8789.0432    50.401554   -8839.4448    24527.382 
  982400    331.54233   -8779.6486    48.424971   -8828.0736   -15603.533 
  982600    296.08023   -8785.0579    43.245388   -8828.3033   -34182.735 
  982800    251.52045    -8790.282       36.737    -8827.019   -30100.308 
  983000     256.8141    -8796.354    37.510188   -8833.8642   -20137.166 
  983200    280.45542   -8780.0577    40.963233   -8821.0209    41804.867 
  983400    323.06833     -8782.11     47.18726   -8829.2972    51096.388 
  983600    295.64566    -8792.712    43.181915   -8835.8939    15404.641 
  983800    348.35835   -8777.2687    50.881114   -8828.1498    114.46478 
  984000    265.96934   -8789.4983    38.847401   -8828.3457    3465.5939 
  984200    361.03037   -8789.8151    52.731985   -8842.5471    13735.435 
  984400    254.15143    -8777.819    37.121279   -8814.9403    3144.9003 
  984600    347.37101   -8786.7109    50.736903   -8837.4479   -24664.557 
  984800    266.01837   -8794.7631    38.854561   -8833.6177    21688.785 
  985000    321.91062    -8775.957    47.018166   -8822.9752    -26845.45 
  985200    216.69603   -8785.4686    31.650556   -8817.1191     -31814.2 
  985400    259.00193   -8805.1855    37.829742   -8843.0153    4562.3165 
  985600    293.40704   -8789.1552    42.854942   -8832.0101   -5677.3533 
  985800     351.7889   -8776.7507    51.382179   -8828.1329    4396.1142 
  986000    286.11484   -8791.4662    41.789846    -8833.256    77729.015 
  986200    293.13523   -8794.8945    42.815241   -8837.7097   -20975.864 
  986400    289.94302   -8784.2522    42.348989   -8826.6011     12236.96 
  986600    314.07001   -8779.1379     45.87297   -8825.0108   -28920.436 
  986800    394.93392    -8769.019    57.683927   -8826.7029   -11716.175 
  987000    311.11323    -8788.293    45.441103   -8833.7341   -13820.935 
  987200    301.30652   -8787.3641    44.008738   -8831.3729    20202.203 
  987400    332.08766   -8771.6854    48.504622     -8820.19   -18174.695 
  987600    244.09928   -8790.7082    35.653065   -8826.3613   -49646.107 
  987800    298.13208   -8789.8929     43.54508    -8833.438    6195.8487 
  988000    376.96336   -8775.3887    55.059152   -8830.4479   -31607.274 
  988200    338.16997   -8786.6479    49.393001   -8836.0409    14164.484 
  988400    262.58196   -8790.5625    38.352641   -8828.9151   -13664.409 
  988600    282.17655   -8775.8562    41.214619   -8817.0708   -35212.351 
  988800     328.6448   -8778.7263    48.001758    -8826.728   -10592.465 
  989000    263.63714   -8789.4015     38.50676   -8827.9082    14273.514 
  989200    358.18627   -8776.3002    52.316577   -8828.6168   -22145.124 
  989400    310.89991   -8781.4961    45.409945   -8826.9061   -19999.404 
  989600    254.44455   -8790.1742    37.164093   -8827.3383    9643.7817 
  989800     320.8772   -8776.9583    46.867225   -8823.8256    4211.7732 
  990000     355.4715   -8777.4256    51.920058   -8829.3457   -10438.508 
  990200    313.31262   -8788.3233    45.762345   -8834.0857   -21127.801 
  990400    302.13978   -8786.8462    44.130444   -8830.9767   -1828.0972 
  990600    343.41096   -8777.9313    50.158499   -8828.0898   -932.92165 
  990800    303.94455   -8788.9113    44.394048   -8833.3053    8028.3206 
  991000    267.90075   -8785.6459    39.129501   -8824.7754     476.3229 
  991200    238.88763   -8802.6287    34.891854   -8837.5206   -26776.732 
  991400    294.66051    -8789.941    43.038024    -8832.979   -16225.768 
  991600    285.94665   -8782.0067     41.76528    -8823.772    38868.442 
  991800    337.55814    -8769.791    49.303639   -8819.0947   -6864.0894 
  992000    262.20499    -8790.382     38.29758   -8828.6795    994.86384 
  992200    331.98116   -8790.6533    48.489066   -8839.1423    21283.313 
  992400    320.04854   -8773.3573    46.746192   -8820.1035    5845.2511 
  992600     305.1754   -8783.7797    44.573825   -8828.3536     9296.159 
  992800    261.62467    -8791.799    38.212819   -8830.0119   -21557.854 
  993000    297.69732   -8776.9883    43.481579   -8820.4699   -61380.357 
  993200      368.559   -8776.6644    53.831614    -8830.496   -15471.542 
  993400    313.74543   -8791.8826    45.825561   -8837.7081    14596.831 
  993600     328.0268   -8781.1633    47.911494   -8829.0748   -18151.168 
  993800     247.2516   -8795.1324    36.113493   -8831.2459   -35414.985 
  994000    318.67236   -8789.9723    46.545187   -8836.5174     20488.57 
  994200    305.04548   -8786.2289    44.554849   -8830.7837    43975.585 
  994400    254.76162   -8787.5453    37.210403   -8824.7557    -16899.03 
  994600    370.94291   -8783.9682    54.179807   -8838.1481    50455.324 
  994800     295.4214   -8791.4045    43.149158   -8834.5536   -24044.282 
  995000    379.00017   -8769.6181    55.356648   -8824.9747    56147.609 
  995200    254.47503   -8787.4828    37.168545   -8824.6514    23045.197 
  995400    324.32747    -8789.126     47.37117   -8836.4971   -46760.609 
  995600    262.27158   -8801.3758    38.307307   -8839.6831    25722.162 
  995800    336.51785   -8783.9667    49.151693   -8833.1184    1944.3777 
  996000    278.40108   -8785.4644    40.663177   -8826.1276   -33859.949 
  996200    387.82773   -8776.2836    56.645999   -8832.9296    42253.761 
  996400    310.26823   -8791.4166    45.317683   -8836.7342    38779.282 
  996600    321.41054   -8783.9784    46.945125   -8830.9235   -1477.0531 
  996800    330.18142   -8782.5008    48.226196    -8830.727   -39791.323 
  997000    230.91504   -8800.6063     33.72738   -8834.3336   -57141.795 
  997200    331.64337   -8782.4017    48.439729   -8830.8414    30539.769 
  997400    338.59601   -8783.4978    49.455229    -8832.953    4446.4636 
  997600    261.48607   -8793.9548    38.192575   -8832.1474    12065.359 
  997800    311.72138   -8783.7485     45.52993   -8829.2784   -4913.4201 
  998000     349.0606   -8767.4247    50.983683   -8818.4084   -21455.136 
  998200    328.24124   -8776.7989    47.942814   -8824.7417    48699.551 
  998400    270.13486   -8790.0485    39.455815   -8829.5043   -26763.002 
  998600    297.31818   -8787.6282    43.426202   -8831.0544   -3115.7105 
  998800     305.3573   -8773.1881    44.600393   -8817.7884    2676.2714 
  999000    276.03935   -8792.7347    40.318223   -8833.0529   -15336.146 
  999200    288.69044   -8783.5786    42.166037   -8825.7446   -39915.142 
  999400    268.49785   -8779.3641    39.216714   -8818.5808   -5309.8351 
  999600     320.7651    -8784.738    46.850852   -8831.5889    12726.599 
  999800    283.31659   -8789.8889    41.381134   -8831.2701    10691.021 
 1000000    224.91273   -8802.3048    32.850684   -8835.1555   -20965.378 
Loop time of 4379.57 on 8 procs for 1000000 steps with 50 atoms

Performance: 4.932 ns/day, 4.866 hours/ns, 228.333 timesteps/s
99.0% CPU use with 8 MPI tasks x no OpenMP threads

MPI task timing breakdown:
Section |  min time  |  avg time  |  max time  |%varavg| %total
---------------------------------------------------------------
Pair    | 3799.4     | 3848.4     | 3967.4     |  82.7 | 87.87
Neigh   | 2.6703     | 2.7507     | 2.8367     |   3.2 |  0.06
Comm    | 48.157     | 167.14     | 215.87     | 396.8 |  3.82
Output  | 0.12554    | 0.14495    | 0.27295    |  12.7 |  0.00
Modify  | 356.43     | 357.14     | 357.6      |   2.1 |  8.15
Other   |            | 4.006      |            |       |  0.09

Nlocal:    6.25 ave 7 max 6 min
Histogram: 6 0 0 0 0 0 0 0 0 2
Nghost:    940 ave 952 max 926 min
Histogram: 1 1 0 1 1 0 2 0 0 2
Neighs:    1760.5 ave 1953 max 1683 min
Histogram: 5 1 0 0 0 0 0 0 0 2

Total # of neighbors = 14084
Ave neighs/atom = 281.68
Neighbor list builds = 1224
Dangerous builds = 0

unfix 1
unfix output
undump 1

Please see the log.cite file for references relevant to this simulation

Total wall time: 1:13:06
