ITEM: TIMESTEP
0
ITEM: NUMBER OF ATOMS
50
ITEM: BOX BOUNDS pp pp pp
0.0000000000000000e+00 1.1000000000000000e+01
0.0000000000000000e+00 1.1002000000000001e+01
0.0000000000000000e+00 1.1000000000000000e+01
ITEM: ATOMS id type x y z 
10 1 4.603 4.603 4.603 
11 1 3.085 3.085 3.085 
12 1 3.796 3.796 3.796 
46 1 0.726 0.725 0.725 
47 1 2.26 2.259 2.26 
48 1 1.551 1.55 1.55 
19 1 4.546 4.545 6.226 
20 1 3.013 3.013 7.764 
21 1 3.721 3.721 7.053 
31 1 0.668 0.667 10.103 
32 1 2.187 2.187 8.589 
33 1 1.476 1.475 9.298 
16 1 4.546 6.225 4.546 
17 1 3.013 7.765 3.013 
18 1 3.721 7.053 3.722 
25 1 0.668 10.103 0.668 
26 1 2.188 8.589 2.188 
27 1 1.476 9.298 1.476 
4 1 4.608 6.169 6.169 
5 1 3.086 7.684 7.684 
6 1 3.799 6.974 6.974 
37 1 0.729 10.046 10.046 
38 1 2.259 8.509 8.508 
39 1 1.552 9.219 9.219 
13 1 6.225 4.546 4.546 
14 1 7.764 3.013 3.013 
15 1 7.053 3.721 3.722 
28 1 10.102 0.667 0.668 
29 1 8.589 2.187 2.188 
30 1 9.298 1.475 1.476 
1 1 6.168 4.608 6.169 
2 1 7.684 3.086 7.684 
3 1 6.974 3.799 6.974 
40 1 10.045 0.728 10.046 
41 1 8.508 2.259 8.508 
42 1 9.218 1.551 9.218 
49 2 6.083 4.916 7.482 
50 3 6.083 4.916 8.458 
7 1 6.169 6.169 4.608 
8 1 7.684 7.684 3.086 
9 1 6.974 6.974 3.799 
43 1 10.046 10.047 0.729 
44 1 8.508 8.509 2.259 
45 1 9.219 9.219 1.552 
22 1 6.229 6.229 6.229 
23 1 7.764 7.765 7.765 
24 1 7.055 7.056 7.055 
34 1 10.108 10.108 10.107 
35 1 8.59 8.59 8.59 
36 1 9.301 9.301 9.3 
ITEM: TIMESTEP
10
ITEM: NUMBER OF ATOMS
50
ITEM: BOX BOUNDS pp pp pp
0.0000000000000000e+00 1.1000000000000000e+01
0.0000000000000000e+00 1.1002000000000001e+01
0.0000000000000000e+00 1.1000000000000000e+01
ITEM: ATOMS id type x y z 
10 1 4.58421 4.5911 4.61138 
11 1 3.08187 3.08653 3.07995 
12 1 3.79455 3.7861 3.79822 
46 1 0.737221 0.734729 0.736214 
47 1 2.27297 2.27217 2.27295 
48 1 1.55998 1.55865 1.55865 
19 1 4.47747 4.55077 6.205 
20 1 3.01931 3.01189 7.76695 
21 1 3.6938 3.71242 7.05518 
31 1 0.699063 0.675541 10.0939 
32 1 2.18909 2.19373 8.58371 
33 1 1.48201 1.47135 9.29937 
16 1 4.52389 6.2411 4.53624 
17 1 3.00016 7.7806 2.99799 
18 1 3.7078 7.06085 3.71286 
25 1 0.677519 10.096 0.678471 
26 1 2.18701 8.59063 2.19079 
27 1 1.48044 9.2922 1.47371 
4 1 4.60743 6.16027 6.17717 
5 1 3.08635 7.68827 7.68424 
6 1 3.79243 6.97167 6.98033 
37 1 0.740792 10.0354 10.036 
38 1 2.27289 8.4957 8.49576 
39 1 1.5595 9.21034 9.2085 
13 1 6.23156 4.53525 4.48116 
14 1 7.77693 3.00157 3.01041 
15 1 7.07148 3.69988 3.6805 
28 1 10.0928 0.674238 0.699439 
29 1 8.58319 2.18855 2.18978 
30 1 9.30331 1.47688 1.47967 
1 1 6.1896 4.5696 6.08091 
2 1 7.69749 3.06971 7.6856 
3 1 7.06741 3.67971 6.85947 
40 1 10.0279 0.744383 10.0269 
41 1 8.51391 2.25593 8.51889 
42 1 9.22544 1.54369 9.22816 
49 2 6.0162 4.95211 7.70268 
50 3 6.04365 4.98046 8.57634 
7 1 6.181 6.18757 4.59908 
8 1 7.6895 7.6937 3.07978 
9 1 6.98204 6.97432 3.79029 
43 1 10.0353 10.0352 0.740375 
44 1 8.49786 8.49901 2.26947 
45 1 9.21038 9.20994 1.55977 
22 1 6.22819 6.33096 6.18903 
23 1 7.77207 7.76453 7.77502 
24 1 7.06558 7.08779 7.05475 
34 1 10.0975 10.0717 10.0986 
35 1 8.58401 8.58478 8.58859 
36 1 9.30601 9.30353 9.29786 
ITEM: TIMESTEP
20
ITEM: NUMBER OF ATOMS
50
ITEM: BOX BOUNDS pp pp pp
0.0000000000000000e+00 1.1000000000000000e+01
0.0000000000000000e+00 1.1002000000000001e+01
0.0000000000000000e+00 1.1000000000000000e+01
ITEM: ATOMS id type x y z 
10 1 4.56658 4.60102 4.60934 
11 1 3.08567 3.07633 3.07607 
12 1 3.77321 3.79217 3.79434 
46 1 0.739905 0.733708 0.736067 
47 1 2.26892 2.2692 2.27022 
48 1 1.56728 1.56423 1.562 
19 1 4.52532 4.54453 6.20937 
20 1 3.00953 3.00576 7.77209 
21 1 3.69879 3.71447 7.05426 
31 1 0.681651 0.669032 10.0992 
32 1 2.19143 2.19214 8.58356 
33 1 1.48941 1.48196 9.29252 
16 1 4.52272 6.24024 4.53248 
17 1 2.99932 7.78001 2.9989 
18 1 3.70269 7.06751 3.70668 
25 1 0.676804 10.0976 0.672068 
26 1 2.19072 8.58676 2.18846 
27 1 1.47976 9.29379 1.48315 
4 1 4.60684 6.16645 6.17926 
5 1 3.08264 7.68345 7.68346 
6 1 3.79932 6.98 6.98355 
37 1 0.740334 10.0368 10.0359 
38 1 2.26971 8.50001 8.49807 
39 1 1.56594 9.2027 9.20375 
13 1 6.22872 4.5389 4.49008 
14 1 7.79163 2.98715 2.99451 
15 1 7.07232 3.69849 3.67884 
28 1 10.103 0.667291 0.677489 
29 1 8.59543 2.17855 2.17924 
30 1 9.30774 1.46855 1.47524 
1 1 6.2043 4.55398 6.06301 
2 1 7.69638 3.06752 7.6575 
3 1 7.0469 3.70084 6.83639 
40 1 10.051 0.724229 10.0451 
41 1 8.50479 2.26808 8.51301 
42 1 9.20696 1.558 9.21128 
49 2 6.00302 4.96501 7.75232 
50 3 6.03281 5.00064 8.667 
7 1 6.169 6.20455 4.60141 
8 1 7.69518 7.68772 3.07391 
9 1 6.98111 6.99604 3.79045 
43 1 10.0375 10.0331 0.737968 
44 1 8.50025 8.50208 2.26644 
45 1 9.20804 9.20652 1.56327 
22 1 6.23042 6.2739 6.1945 
23 1 7.77437 7.76475 7.7783 
24 1 7.05956 7.09201 7.04422 
34 1 10.1063 10.0943 10.1006 
35 1 8.58502 8.58461 8.58266 
36 1 9.29169 9.28634 9.29648 
ITEM: TIMESTEP
30
ITEM: NUMBER OF ATOMS
50
ITEM: BOX BOUNDS pp pp pp
0.0000000000000000e+00 1.1000000000000000e+01
0.0000000000000000e+00 1.1002000000000001e+01
0.0000000000000000e+00 1.1000000000000000e+01
ITEM: ATOMS id type x y z 
10 1 4.57077 4.6053 4.60144 
11 1 3.08409 3.07959 3.0805 
12 1 3.77873 3.79365 3.79401 
46 1 0.745545 0.730119 0.732251 
47 1 2.27019 2.2687 2.26833 
48 1 1.56505 1.56205 1.56242 
19 1 4.5399 4.53679 6.21768 
20 1 3.00737 3.01212 7.76566 
21 1 3.71199 3.71257 7.05451 
31 1 0.679515 0.670813 10.0958 
32 1 2.19397 2.1923 8.58514 
33 1 1.48699 1.48188 9.28973 
16 1 4.52435 6.24197 4.53509 
17 1 3 7.78361 2.9994 
18 1 3.69691 7.06418 3.70313 
25 1 0.678707 10.098 0.670676 
26 1 2.1874 8.58902 2.18822 
27 1 1.48104 9.2951 1.4777 
4 1 4.6076 6.16793 6.17964 
5 1 3.08516 7.68385 7.68337 
6 1 3.79798 6.9757 6.98287 
37 1 0.740834 10.0354 10.0359 
38 1 2.27006 8.49806 8.49673 
39 1 1.56775 9.20399 9.20371 
13 1 6.22422 4.54242 4.48118 
14 1 7.78336 2.99427 2.99916 
15 1 7.06784 3.70442 3.68105 
28 1 10.1102 0.664557 0.665748 
29 1 8.59801 2.17706 2.18213 
30 1 9.3042 1.47019 1.47169 
1 1 6.19831 4.56608 6.08714 
2 1 7.7092 3.05258 7.64207 
3 1 7.05545 3.69154 6.82906 
40 1 10.0401 0.728526 10.0299 
41 1 8.4954 2.26827 8.50908 
42 1 9.21106 1.56981 9.20992 
49 2 5.99224 4.96298 7.78884 
50 3 6.01957 5.01814 8.71094 
7 1 6.16391 6.19855 4.59057 
8 1 7.6926 7.68832 3.07777 
9 1 6.97771 6.99181 3.78871 
43 1 10.042 10.0284 0.735026 
44 1 8.50046 8.50052 2.26704 
45 1 9.20872 9.20725 1.56215 
22 1 6.23949 6.25982 6.19596 
23 1 7.7676 7.76917 7.76956 
24 1 7.06263 7.07886 7.04428 
34 1 10.1032 10.0965 10.0939 
35 1 8.58457 8.58183 8.58611 
36 1 9.29387 9.28837 9.29313 
ITEM: TIMESTEP
40
ITEM: NUMBER OF ATOMS
50
ITEM: BOX BOUNDS pp pp pp
0.0000000000000000e+00 1.1000000000000000e+01
0.0000000000000000e+00 1.1002000000000001e+01
0.0000000000000000e+00 1.1000000000000000e+01
ITEM: ATOMS id type x y z 
10 1 4.57657 4.60667 4.59776 
11 1 3.08064 3.07975 3.08188 
12 1 3.78042 3.79369 3.79113 
46 1 0.742244 0.733784 0.728577 
47 1 2.26958 2.26994 2.27121 
48 1 1.57016 1.56103 1.55928 
19 1 4.54852 4.53452 6.22078 
20 1 3.005 3.0102 7.76693 
21 1 3.71472 3.71103 7.05584 
31 1 0.67989 0.671664 10.091 
32 1 2.19536 2.19445 8.58319 
33 1 1.48858 1.48327 9.28786 
16 1 4.51622 6.23946 4.53581 
17 1 2.99597 7.77882 2.9966 
18 1 3.701 7.0736 3.70863 
25 1 0.678315 10.0969 0.667705 
26 1 2.18766 8.59009 2.18722 
27 1 1.48004 9.29585 1.47676 
4 1 4.61163 6.16694 6.17899 
5 1 3.08605 7.68244 7.68385 
6 1 3.7993 6.97529 6.98206 
37 1 0.740074 10.036 10.0298 
38 1 2.27214 8.49516 8.49549 
39 1 1.5682 9.20543 9.2018 
13 1 6.21968 4.54534 4.48609 
14 1 7.78636 2.99062 2.9934 
15 1 7.06636 3.70547 3.6786 
28 1 10.1059 0.666811 0.665441 
29 1 8.59809 2.17727 2.18346 
30 1 9.30411 1.47085 1.47226 
1 1 6.20241 4.5702 6.1008 
2 1 7.71432 3.04303 7.62145 
3 1 7.0554 3.69311 6.82139 
40 1 10.0471 0.732264 10.0305 
41 1 8.49888 2.27556 8.50777 
42 1 9.20211 1.5613 9.2091 
49 2 5.9866 4.95794 7.82333 
50 3 6.00565 5.03426 8.74399 
7 1 6.16344 6.19297 4.5863 
8 1 7.69429 7.69186 3.07872 
9 1 6.97546 6.99113 3.78202 
43 1 10.0396 10.0324 0.730606 
44 1 8.5014 8.50308 2.26782 
45 1 9.21154 9.20421 1.55817 
22 1 6.24263 6.25234 6.19797 
23 1 7.76544 7.77354 7.7654 
24 1 7.06734 7.07082 7.04556 
34 1 10.1029 10.0958 10.092 
35 1 8.58121 8.57828 8.58431 
36 1 9.29151 9.28647 9.28932 
ITEM: TIMESTEP
50
ITEM: NUMBER OF ATOMS
50
ITEM: BOX BOUNDS pp pp pp
0.0000000000000000e+00 1.1000000000000000e+01
0.0000000000000000e+00 1.1002000000000001e+01
0.0000000000000000e+00 1.1000000000000000e+01
ITEM: ATOMS id type x y z 
10 1 4.57901 4.60532 4.59544 
11 1 3.08002 3.08017 3.08284 
12 1 3.78098 3.79421 3.79063 
46 1 0.743963 0.733365 0.727548 
47 1 2.27065 2.26879 2.27017 
48 1 1.56752 1.5616 1.55967 
19 1 4.54842 4.53369 6.22195 
20 1 3.00644 3.01104 7.7656 
21 1 3.71607 3.71169 7.05556 
31 1 0.681067 0.67216 10.0895 
32 1 2.19602 2.195 8.58284 
33 1 1.48828 1.48375 9.28664 
16 1 4.5181 6.2418 4.53806 
17 1 2.99665 7.78052 2.99731 
18 1 3.69836 7.07119 3.70786 
25 1 0.677779 10.0977 0.666205 
26 1 2.18665 8.59085 2.18665 
27 1 1.48019 9.29625 1.47508 
4 1 4.61158 6.16714 6.17915 
5 1 3.08742 7.6817 7.68435 
6 1 3.79915 6.97436 6.98067 
37 1 0.739927 10.0362 10.0287 
38 1 2.27315 8.49517 8.49518 
39 1 1.56749 9.2044 9.20103 
13 1 6.22051 4.54563 4.48543 
14 1 7.78336 2.9932 2.99425 
15 1 7.06404 3.70787 3.68057 
28 1 10.106 0.667243 0.664416 
29 1 8.59753 2.17813 2.18442 
30 1 9.30299 1.47164 1.47354 
1 1 6.20099 4.57401 6.10873 
2 1 7.72191 3.03695 7.61612 
3 1 7.05841 3.68996 6.82139 
40 1 10.0428 0.731317 10.029 
41 1 8.49647 2.27189 8.50791 
42 1 9.20725 1.56403 9.20905 
49 2 5.98532 4.95478 7.83148 
50 3 5.99896 5.04091 8.75501 
7 1 6.16203 6.19025 4.58248 
8 1 7.69249 7.69263 3.07885 
9 1 6.97633 6.98954 3.7823 
43 1 10.0402 10.0313 0.728342 
44 1 8.50307 8.50239 2.26676 
45 1 9.21097 9.2068 1.55826 
22 1 6.24474 6.25025 6.1975 
23 1 7.76574 7.77199 7.76428 
24 1 7.06598 7.07178 7.04354 
34 1 10.1024 10.0952 10.0905 
35 1 8.58086 8.57846 8.5848 
36 1 9.29181 9.28678 9.28838 
ITEM: TIMESTEP
60
ITEM: NUMBER OF ATOMS
50
ITEM: BOX BOUNDS pp pp pp
0.0000000000000000e+00 1.1000000000000000e+01
0.0000000000000000e+00 1.1002000000000001e+01
0.0000000000000000e+00 1.1000000000000000e+01
ITEM: ATOMS id type x y z 
10 1 4.58014 4.60521 4.59459 
11 1 3.07925 3.08054 3.08311 
12 1 3.78157 3.79377 3.79032 
46 1 0.74368 0.733554 0.726651 
47 1 2.27066 2.26848 2.27012 
48 1 1.56747 1.5617 1.55938 
19 1 4.54912 4.53362 6.222 
20 1 3.00688 3.01109 7.76554 
21 1 3.71653 3.71167 7.05527 
31 1 0.681358 0.672269 10.0888 
32 1 2.19622 2.19544 8.58243 
33 1 1.48853 1.48396 9.28609 
16 1 4.51796 6.24222 4.53861 
17 1 2.99629 7.78082 2.99727 
18 1 3.69787 7.07131 3.70798 
25 1 0.677538 10.098 0.665525 
26 1 2.18614 8.59122 2.18661 
27 1 1.48051 9.29634 1.47392 
4 1 4.6118 6.16728 6.17881 
5 1 3.08785 7.68143 7.68434 
6 1 3.7995 6.97385 6.98082 
37 1 0.739797 10.0365 10.0277 
38 1 2.27349 8.49485 8.49506 
39 1 1.56767 9.20426 9.20036 
13 1 6.22024 4.54601 4.48632 
14 1 7.78238 2.99404 2.99399 
15 1 7.06339 3.70833 3.68086 
28 1 10.1058 0.667448 0.664774 
29 1 8.59726 2.17823 2.18538 
30 1 9.30246 1.47267 1.4733 
1 1 6.20107 4.57544 6.11326 
2 1 7.72507 3.03323 7.61159 
3 1 7.05962 3.68946 6.82107 
40 1 10.0427 0.731666 10.0294 
41 1 8.49668 2.27152 8.50821 
42 1 9.20811 1.56294 9.20822 
49 2 5.98468 4.95294 7.8376 
50 3 5.99442 5.04523 8.76189 
7 1 6.16198 6.18904 4.581 
8 1 7.69229 7.69312 3.07886 
9 1 6.97609 6.98932 3.78152 
43 1 10.04 10.0318 0.727498 
44 1 8.50347 8.50258 2.26671 
45 1 9.21116 9.20681 1.55782 
22 1 6.24545 6.24907 6.1975 
23 1 7.76552 7.77167 7.76363 
24 1 7.06619 7.0715 7.04252 
34 1 10.1023 10.0949 10.0896 
35 1 8.58039 8.57811 8.58444 
36 1 9.29141 9.28668 9.28776 
ITEM: TIMESTEP
70
ITEM: NUMBER OF ATOMS
50
ITEM: BOX BOUNDS pp pp pp
0.0000000000000000e+00 1.1000000000000000e+01
0.0000000000000000e+00 1.1002000000000001e+01
0.0000000000000000e+00 1.1000000000000000e+01
ITEM: ATOMS id type x y z 
10 1 4.58878 4.60443 4.58898 
11 1 3.07523 3.08142 3.08508 
12 1 3.78276 3.79347 3.78806 
46 1 0.74184 0.735396 0.721085 
47 1 2.27027 2.26625 2.26937 
48 1 1.56677 1.56192 1.55676 
19 1 4.553 4.5333 6.22269 
20 1 3.01102 3.01198 7.76524 
21 1 3.71957 3.71073 7.05189 
31 1 0.685253 0.673007 10.0838 
32 1 2.19776 2.19901 8.57926 
33 1 1.49062 1.48554 9.28153 
16 1 4.51653 6.24409 4.54068 
17 1 2.99306 7.78193 2.99817 
18 1 3.69544 7.07357 3.70873 
25 1 0.677043 10.1003 0.657164 
26 1 2.18457 8.59345 2.18318 
27 1 1.47861 9.29798 1.47007 
4 1 4.61264 6.1677 6.17464 
5 1 3.09133 7.67843 7.68595 
6 1 3.80249 6.9716 6.9805 
37 1 0.739126 10.0376 10.0194 
38 1 2.27631 8.4927 8.49372 
39 1 1.56829 9.20299 9.19561 
13 1 6.21942 4.54753 4.4938 
14 1 7.77498 3.00006 2.99158 
15 1 7.05795 3.71232 3.68329 
28 1 10.1041 0.670719 0.667115 
29 1 8.59423 2.18178 2.18939 
30 1 9.2995 1.47615 1.47742 
1 1 6.20198 4.58424 6.14879 
2 1 7.75165 3.00382 7.57473 
3 1 7.06925 3.68562 6.8205 
40 1 10.0442 0.730802 10.0286 
41 1 8.50111 2.26382 8.50146 
42 1 9.20948 1.56131 9.21149 
49 2 5.97995 4.93983 7.88665 
50 3 5.95592 5.07968 8.81427 
7 1 6.16015 6.18044 4.56936 
8 1 7.69104 7.69654 3.07744 
9 1 6.97445 6.98932 3.7756 
43 1 10.039 10.0346 0.721045 
44 1 8.50678 8.50406 2.26552 
45 1 9.21325 9.20823 1.55541 
22 1 6.25081 6.24267 6.19609 
23 1 7.76616 7.7721 7.75634 
24 1 7.06697 7.06604 7.04047 
34 1 10.1018 10.0912 10.084 
35 1 8.57616 8.57662 8.58118 
36 1 9.2894 9.28464 9.28288 
ITEM: TIMESTEP
80
ITEM: NUMBER OF ATOMS
50
ITEM: BOX BOUNDS pp pp pp
0.0000000000000000e+00 1.1000000000000000e+01
0.0000000000000000e+00 1.1002000000000001e+01
0.0000000000000000e+00 1.1000000000000000e+01
ITEM: ATOMS id type x y z 
10 1 4.58885 4.60447 4.58863 
11 1 3.07522 3.08146 3.08513 
12 1 3.78286 3.79351 3.78805 
46 1 0.741911 0.735391 0.721138 
47 1 2.2702 2.26626 2.26935 
48 1 1.56668 1.56184 1.55672 
19 1 4.55245 4.5328 6.22206 
20 1 3.01068 3.01143 7.76436 
21 1 3.72044 3.71165 7.05341 
31 1 0.685282 0.672843 10.0835 
32 1 2.19762 2.19892 8.57891 
33 1 1.49085 1.48572 9.28205 
16 1 4.51694 6.244 4.54025 
17 1 2.99294 7.78215 2.99823 
18 1 3.69507 7.07354 3.7086 
25 1 0.676773 10.1002 0.657305 
26 1 2.1841 8.59353 2.18317 
27 1 1.4792 9.29815 1.46953 
4 1 4.61246 6.16795 6.17458 
5 1 3.09178 7.67782 7.68626 
6 1 3.80238 6.97217 6.97979 
37 1 0.739035 10.0374 10.0193 
38 1 2.27619 8.49247 8.49363 
39 1 1.56865 9.2033 9.19566 
13 1 6.2193 4.54747 4.49434 
14 1 7.77433 3.00024 2.99156 
15 1 7.05817 3.7128 3.68365 
28 1 10.1039 0.670864 0.667278 
29 1 8.59402 2.18209 2.18911 
30 1 9.29965 1.47585 1.47799 
1 1 6.20211 4.58408 6.14939 
2 1 7.75255 3.00248 7.57344 
3 1 7.06959 3.68585 6.82083 
40 1 10.0441 0.731015 10.0294 
41 1 8.50169 2.2635 8.50109 
42 1 9.20971 1.5606 9.21085 
49 2 5.97978 4.93996 7.88794 
50 3 5.95423 5.08061 8.81518 
7 1 6.15977 6.18078 4.56945 
8 1 7.69072 7.6972 3.07742 
9 1 6.97488 6.98814 3.77507 
43 1 10.0394 10.0345 0.721296 
44 1 8.50736 8.5041 2.26572 
45 1 9.21257 9.20858 1.5548 
22 1 6.25035 6.24219 6.19702 
23 1 7.76585 7.77149 7.75725 
24 1 7.06786 7.06718 7.03835 
34 1 10.102 10.0912 10.0839 
35 1 8.57624 8.5768 8.58078 
36 1 9.28924 9.28452 9.28326 
ITEM: TIMESTEP
90
ITEM: NUMBER OF ATOMS
50
ITEM: BOX BOUNDS pp pp pp
0.0000000000000000e+00 1.1000000000000000e+01
0.0000000000000000e+00 1.1002000000000001e+01
0.0000000000000000e+00 1.1000000000000000e+01
ITEM: ATOMS id type x y z 
10 1 4.58885 4.60446 4.58854 
11 1 3.07521 3.08148 3.08515 
12 1 3.78288 3.79349 3.788 
46 1 0.741866 0.735508 0.721106 
47 1 2.27007 2.26638 2.26928 
48 1 1.56682 1.56158 1.55681 
19 1 4.5523 4.53266 6.22188 
20 1 3.01061 3.01124 7.76405 
21 1 3.72071 3.71202 7.05392 
31 1 0.685365 0.672845 10.0835 
32 1 2.19761 2.19891 8.57888 
33 1 1.49086 1.48573 9.28206 
16 1 4.51705 6.24399 4.5401 
17 1 2.99287 7.78217 2.99828 
18 1 3.695 7.0736 3.70854 
25 1 0.676824 10.1002 0.657285 
26 1 2.1841 8.59355 2.1831 
27 1 1.47915 9.29819 1.46949 
4 1 4.61241 6.16804 6.17444 
5 1 3.09182 7.67775 7.68631 
6 1 3.80248 6.97218 6.97972 
37 1 0.73898 10.0373 10.0192 
38 1 2.27615 8.49234 8.49356 
39 1 1.56886 9.20343 9.19569 
13 1 6.21935 4.54751 4.49457 
14 1 7.77421 3.00032 2.99154 
15 1 7.05809 3.7129 3.68375 
28 1 10.1039 0.670884 0.66746 
29 1 8.59397 2.18214 2.18913 
30 1 9.29962 1.47589 1.47802 
1 1 6.20211 4.58407 6.14967 
2 1 7.7529 3.00202 7.57297 
3 1 7.06971 3.6859 6.82095 
40 1 10.0441 0.731082 10.0297 
41 1 8.50183 2.26337 8.50091 
42 1 9.20987 1.56036 9.21064 
49 2 5.97971 4.94001 7.88836 
50 3 5.9536 5.08095 8.81553 
7 1 6.15977 6.18075 4.56945 
8 1 7.69067 7.69718 3.07737 
9 1 6.97487 6.98812 3.77503 
43 1 10.0394 10.0346 0.721327 
44 1 8.50736 8.50416 2.26574 
45 1 9.21262 9.20857 1.55475 
22 1 6.25033 6.24224 6.19693 
23 1 7.76589 7.7715 7.75706 
24 1 7.06779 7.0671 7.03843 
34 1 10.1019 10.0911 10.0838 
35 1 8.57625 8.57688 8.58071 
36 1 9.28923 9.28447 9.2833 
ITEM: TIMESTEP
100
ITEM: NUMBER OF ATOMS
50
ITEM: BOX BOUNDS pp pp pp
0.0000000000000000e+00 1.1000000000000000e+01
0.0000000000000000e+00 1.1002000000000001e+01
0.0000000000000000e+00 1.1000000000000000e+01
ITEM: ATOMS id type x y z 
10 1 4.58885 4.60445 4.58851 
11 1 3.07521 3.08146 3.08514 
12 1 3.78286 3.79352 3.78799 
46 1 0.741921 0.735436 0.721136 
47 1 2.2701 2.2663 2.26931 
48 1 1.56673 1.56172 1.55674 
19 1 4.55231 4.53271 6.22196 
20 1 3.01067 3.01128 7.76409 
21 1 3.72069 3.71198 7.05379 
31 1 0.685385 0.672828 10.0835 
32 1 2.1976 2.19892 8.57886 
33 1 1.49088 1.48572 9.28205 
16 1 4.51709 6.24398 4.54003 
17 1 2.99281 7.78221 2.99829 
18 1 3.695 7.07361 3.70852 
25 1 0.67684 10.1002 0.657253 
26 1 2.18408 8.59357 2.18307 
27 1 1.47914 9.29821 1.46945 
4 1 4.6124 6.16808 6.17437 
5 1 3.09187 7.67771 7.68632 
6 1 3.8025 6.97218 6.9797 
37 1 0.739038 10.0373 10.0192 
38 1 2.27623 8.49238 8.49357 
39 1 1.56875 9.20332 9.19566 
13 1 6.21938 4.54751 4.49468 
14 1 7.77413 3.00037 2.99153 
15 1 7.05808 3.71291 3.68378 
28 1 10.1039 0.670898 0.667539 
29 1 8.59394 2.18217 2.18913 
30 1 9.29959 1.47592 1.47805 
1 1 6.2021 4.58406 6.14984 
2 1 7.75308 3.00179 7.5727 
3 1 7.06977 3.68592 6.82103 
40 1 10.0441 0.731104 10.0298 
41 1 8.50192 2.26328 8.50082 
42 1 9.20995 1.56025 9.21053 
49 2 5.97967 4.94003 7.88858 
50 3 5.95327 5.08113 8.81571 
7 1 6.15977 6.18075 4.56944 
8 1 7.69065 7.69717 3.07734 
9 1 6.97485 6.98812 3.775 
43 1 10.0394 10.0345 0.721311 
44 1 8.50737 8.50417 2.26571 
45 1 9.21262 9.20861 1.55478 
22 1 6.25031 6.24225 6.19692 
23 1 7.7659 7.77149 7.75701 
24 1 7.06779 7.06709 7.0384 
34 1 10.102 10.0911 10.0839 
35 1 8.57625 8.57687 8.58071 
36 1 9.28924 9.28452 9.28324 
ITEM: TIMESTEP
107
ITEM: NUMBER OF ATOMS
50
ITEM: BOX BOUNDS pp pp pp
0.0000000000000000e+00 1.1000000000000000e+01
0.0000000000000000e+00 1.1002000000000001e+01
0.0000000000000000e+00 1.1000000000000000e+01
ITEM: ATOMS id type x y z 
10 1 4.58885 4.60445 4.58851 
11 1 3.0752 3.08147 3.08514 
12 1 3.78287 3.7935 3.788 
46 1 0.741922 0.73544 0.721135 
47 1 2.2701 2.26631 2.26931 
48 1 1.56673 1.56171 1.55674 
19 1 4.55231 4.5327 6.22195 
20 1 3.01066 3.01127 7.76407 
21 1 3.7207 3.712 7.05382 
31 1 0.685385 0.672828 10.0835 
32 1 2.1976 2.19892 8.57885 
33 1 1.49088 1.48572 9.28205 
16 1 4.5171 6.24398 4.54002 
17 1 2.99281 7.78221 2.99829 
18 1 3.695 7.0736 3.70851 
25 1 0.676841 10.1002 0.657253 
26 1 2.18408 8.59357 2.18307 
27 1 1.47914 9.2982 1.46944 
4 1 4.61239 6.16808 6.17436 
5 1 3.09187 7.67771 7.68632 
6 1 3.8025 6.97218 6.9797 
37 1 0.739026 10.0373 10.0192 
38 1 2.27621 8.49237 8.49356 
39 1 1.56878 9.20334 9.19566 
13 1 6.21938 4.54752 4.49468 
14 1 7.77412 3.00038 2.99152 
15 1 7.05809 3.71291 3.6838 
28 1 10.1039 0.6709 0.667543 
29 1 8.59393 2.18217 2.18913 
30 1 9.29959 1.47592 1.47805 
1 1 6.20209 4.58406 6.14986 
2 1 7.7531 3.00176 7.57268 
3 1 7.06978 3.68592 6.82104 
40 1 10.0441 0.731106 10.0298 
41 1 8.50193 2.26327 8.50081 
42 1 9.20996 1.56023 9.21052 
49 2 5.97967 4.94004 7.8886 
50 3 5.95324 5.08115 8.81573 
7 1 6.15977 6.18074 4.56944 
8 1 7.69065 7.69716 3.07733 
9 1 6.97485 6.98812 3.775 
43 1 10.0394 10.0345 0.721308 
44 1 8.50737 8.50416 2.26571 
45 1 9.21261 9.20863 1.55479 
22 1 6.25031 6.24225 6.19692 
23 1 7.76591 7.77149 7.75701 
24 1 7.06779 7.06709 7.03839 
34 1 10.102 10.091 10.0839 
35 1 8.57623 8.57688 8.58072 
36 1 9.28927 9.28452 9.28321 
ITEM: TIMESTEP
109
ITEM: NUMBER OF ATOMS
50
ITEM: BOX BOUNDS pp pp pp
0.0000000000000000e+00 1.1000000000000000e+01
0.0000000000000000e+00 1.1002000000000001e+01
0.0000000000000000e+00 1.1000000000000000e+01
ITEM: ATOMS id type x y z 
10 1 4.58885 4.60445 4.58851 
11 1 3.0752 3.08147 3.08514 
12 1 3.78287 3.7935 3.788 
46 1 0.741921 0.73544 0.721135 
47 1 2.2701 2.26631 2.26931 
48 1 1.56673 1.56171 1.55674 
19 1 4.55231 4.5327 6.22195 
20 1 3.01066 3.01127 7.76407 
21 1 3.7207 3.712 7.05382 
31 1 0.685386 0.672828 10.0835 
32 1 2.1976 2.19892 8.57885 
33 1 1.49088 1.48572 9.28205 
16 1 4.5171 6.24398 4.54002 
17 1 2.99281 7.78221 2.99829 
18 1 3.69499 7.0736 3.70851 
25 1 0.676841 10.1002 0.657252 
26 1 2.18408 8.59357 2.18307 
27 1 1.47914 9.29821 1.46944 
4 1 4.61239 6.16808 6.17436 
5 1 3.09187 7.67771 7.68632 
6 1 3.8025 6.97218 6.9797 
37 1 0.739026 10.0373 10.0192 
38 1 2.27621 8.49237 8.49356 
39 1 1.56878 9.20334 9.19566 
13 1 6.21938 4.54752 4.49468 
14 1 7.77412 3.00038 2.99152 
15 1 7.05809 3.71291 3.6838 
28 1 10.1039 0.6709 0.667543 
29 1 8.59393 2.18217 2.18913 
30 1 9.29959 1.47592 1.47806 
1 1 6.20209 4.58406 6.14986 
2 1 7.7531 3.00176 7.57268 
3 1 7.06978 3.68592 6.82104 
40 1 10.0441 0.731106 10.0298 
41 1 8.50193 2.26327 8.50081 
42 1 9.20996 1.56023 9.21052 
49 2 5.97967 4.94004 7.8886 
50 3 5.95324 5.08115 8.81573 
7 1 6.15977 6.18074 4.56944 
8 1 7.69065 7.69716 3.07733 
9 1 6.97485 6.98813 3.775 
43 1 10.0394 10.0345 0.721308 
44 1 8.50737 8.50416 2.26571 
45 1 9.21261 9.20863 1.55479 
22 1 6.25031 6.24225 6.19692 
23 1 7.76591 7.77149 7.75701 
24 1 7.06779 7.06709 7.03839 
34 1 10.102 10.091 10.0839 
35 1 8.57624 8.57688 8.58072 
36 1 9.28927 9.28452 9.28322 
ITEM: TIMESTEP
110
ITEM: NUMBER OF ATOMS
50
ITEM: BOX BOUNDS pp pp pp
-5.4346892322327915e-04 1.1000543468923222e+01
-5.4687109501569560e-04 1.1002546871095017e+01
-5.5000000000000003e-04 1.1000550000000000e+01
ITEM: ATOMS id type x y z 
10 1 4.58876 4.60436 4.58842 
11 1 3.07496 3.08123 3.0849 
12 1 3.7827 3.79333 3.78783 
46 1 0.741451 0.734967 0.720657 
47 1 2.26978 2.26599 2.26899 
48 1 1.56635 1.56132 1.55635 
19 1 4.55221 4.5326 6.22202 
20 1 3.01042 3.01102 7.7643 
21 1 3.72052 3.71182 7.05397 
31 1 0.684911 0.672347 10.084 
32 1 2.19727 2.19859 8.57916 
33 1 1.49048 1.48532 9.28243 
16 1 4.517 6.24405 4.53993 
17 1 2.99256 7.78244 2.99804 
18 1 3.69482 7.07376 3.70833 
25 1 0.676365 10.1006 0.656768 
26 1 2.18375 8.59388 2.18274 
27 1 1.47875 9.29858 1.46904 
4 1 4.61231 6.16815 6.17443 
5 1 3.09164 7.67793 7.68654 
6 1 3.80233 6.97232 6.97985 
37 1 0.738555 10.0377 10.0196 
38 1 2.2759 8.49267 8.49386 
39 1 1.56839 9.20371 9.19603 
13 1 6.21945 4.54742 4.49458 
14 1 7.77435 3.00013 2.99127 
15 1 7.05824 3.71273 3.68362 
28 1 10.1044 0.670419 0.667061 
29 1 8.59424 2.18184 2.1888 
30 1 9.29997 1.47552 1.47765 
1 1 6.20216 4.58397 6.14993 
2 1 7.75333 3.00151 7.57288 
3 1 7.06994 3.68574 6.82117 
40 1 10.0445 0.730632 10.0303 
41 1 8.50223 2.26295 8.50111 
42 1 9.21033 1.55984 9.21089 
49 2 5.97971 4.93998 7.88884 
50 3 5.95328 5.08111 8.81606 
7 1 6.15984 6.18081 4.56935 
8 1 7.69087 7.69738 3.07709 
9 1 6.975 6.98827 3.77483 
43 1 10.0399 10.035 0.72083 
44 1 8.50767 8.50446 2.26538 
45 1 9.21298 9.20899 1.55439 
22 1 6.25038 6.24233 6.19699 
23 1 7.76613 7.77172 7.75723 
24 1 7.06794 7.06724 7.03855 
34 1 10.1024 10.0915 10.0843 
35 1 8.57654 8.57718 8.58103 
36 1 9.28965 9.28489 9.28359 
ITEM: TIMESTEP
120
ITEM: NUMBER OF ATOMS
50
ITEM: BOX BOUNDS pp pp pp
-4.5336682978945114e-03 1.1004533668297894e+01
-5.3072552805153040e-03 1.1007307255280518e+01
-5.1682577156424584e-03 1.1005168257715646e+01
ITEM: ATOMS id type x y z 
10 1 4.58879 4.60422 4.58819 
11 1 3.07345 3.07932 3.08298 
12 1 3.78112 3.79163 3.78631 
46 1 0.737491 0.730309 0.716139 
47 1 2.26717 2.2629 2.26602 
48 1 1.56312 1.5576 1.55265 
19 1 4.55199 4.53231 6.22218 
20 1 3.00892 3.00914 7.76596 
21 1 3.71953 3.71059 7.05487 
31 1 0.680726 0.667541 10.0885 
32 1 2.19464 2.19558 8.58188 
33 1 1.48789 1.482 9.28547 
16 1 4.51683 6.24416 4.53956 
17 1 2.99095 7.78414 2.99621 
18 1 3.69389 7.07482 3.70718 
25 1 0.672228 10.1052 0.652007 
26 1 2.18115 8.59669 2.1797 
27 1 1.47605 9.30178 1.46594 
4 1 4.61219 6.1681 6.17426 
5 1 3.09002 7.67957 7.68818 
6 1 3.80103 6.97389 6.98132 
37 1 0.734554 10.0422 10.0239 
38 1 2.27327 8.4955 8.49663 
39 1 1.56525 9.2073 9.1995 
13 1 6.21949 4.54706 4.49434 
14 1 7.77568 2.99821 2.98942 
15 1 7.05905 3.7116 3.68242 
28 1 10.1083 0.665629 0.662325 
29 1 8.5966 2.17883 2.18577 
30 1 9.30259 1.47221 1.47462 
1 1 6.20208 4.58372 6.14993 
2 1 7.75488 2.9994 7.57428 
3 1 7.0713 3.68399 6.82255 
40 1 10.0483 0.72599 10.0347 
41 1 8.50474 2.25981 8.50383 
42 1 9.21345 1.55599 9.21431 
49 2 5.98003 4.93956 7.89097 
50 3 5.95341 5.08086 8.81896 
7 1 6.15969 6.18074 4.56916 
8 1 7.69224 7.69905 3.07516 
9 1 6.97631 6.98984 3.77327 
43 1 10.0437 10.0395 0.716289 
44 1 8.51009 8.50736 2.26239 
45 1 9.2161 9.21251 1.55073 
22 1 6.25034 6.24251 6.19714 
23 1 7.76749 7.77344 7.75886 
24 1 7.06882 7.06822 7.03942 
34 1 10.1065 10.0961 10.0888 
35 1 8.57902 8.58 8.58374 
36 1 9.29208 9.28803 9.28662 
ITEM: TIMESTEP
130
ITEM: NUMBER OF ATOMS
50
ITEM: BOX BOUNDS pp pp pp
-7.7870629651330490e-03 1.1007787062965134e+01
-1.0054379902296361e-02 1.1012054379902297e+01
-6.7025262356082372e-03 1.1006702526235610e+01
ITEM: ATOMS id type x y z 
10 1 4.58964 4.60476 4.58915 
11 1 3.07238 3.07758 3.08256 
12 1 3.7796 3.78968 3.78548 
46 1 0.733509 0.725102 0.713633 
47 1 2.26409 2.25908 2.26397 
48 1 1.56066 1.55386 1.5514 
19 1 4.55237 4.5327 6.22117 
20 1 3.00855 3.00804 7.7654 
21 1 3.71884 3.7094 7.05515 
31 1 0.676621 0.661972 10.0911 
32 1 2.19238 2.19236 8.58305 
33 1 1.48588 1.47901 9.28606 
16 1 4.51761 6.24366 4.54029 
17 1 2.99055 7.78511 2.99665 
18 1 3.6929 7.07584 3.70687 
25 1 0.668079 10.1105 0.649302 
26 1 2.17884 8.59974 2.17843 
27 1 1.47408 9.30458 1.46513 
4 1 4.61306 6.16753 6.173 
5 1 3.08915 7.68115 7.68856 
6 1 3.79932 6.97543 6.982 
37 1 0.730611 10.0473 10.0264 
38 1 2.27033 8.49918 8.4986 
39 1 1.5626 9.21073 9.20069 
13 1 6.21887 4.54746 4.4954 
14 1 7.77585 2.99729 2.98973 
15 1 7.05959 3.71027 3.6823 
28 1 10.1123 0.660114 0.659733 
29 1 8.59864 2.17564 2.1845 
30 1 9.30449 1.4693 1.47399 
1 1 6.20126 4.58409 6.14936 
2 1 7.75618 2.99722 7.57415 
3 1 7.07275 3.68205 6.82356 
40 1 10.0521 0.720728 10.0373 
41 1 8.50784 2.2557 8.50552 
42 1 9.21604 1.55214 9.21541 
49 2 5.98024 4.93919 7.89174 
50 3 5.95312 5.08079 8.82012 
7 1 6.1589 6.18005 4.57045 
8 1 7.69323 7.70067 3.07488 
9 1 6.97749 6.99143 3.77206 
43 1 10.0475 10.0446 0.713837 
44 1 8.513 8.51112 2.26043 
45 1 9.21848 9.2159 1.5493 
22 1 6.24952 6.24208 6.19624 
23 1 7.76781 7.77431 7.75825 
24 1 7.0694 7.06924 7.03959 
34 1 10.1105 10.1014 10.0914 
35 1 8.58115 8.58307 8.58487 
36 1 9.29396 9.2908 9.28724 
ITEM: TIMESTEP
140
ITEM: NUMBER OF ATOMS
50
ITEM: BOX BOUNDS pp pp pp
-1.1486205737092338e-02 1.1011486205737095e+01
-1.4657731052537610e-02 1.1016657731052538e+01
-7.9721919186899731e-03 1.1007972191918689e+01
ITEM: ATOMS id type x y z 
10 1 4.59014 4.60501 4.58998 
11 1 3.07094 3.07581 3.08233 
12 1 3.7782 3.78789 3.78453 
46 1 0.729329 0.720023 0.711526 
47 1 2.261 2.25541 2.26229 
48 1 1.55772 1.55042 1.55025 
19 1 4.55266 4.53303 6.22035 
20 1 3.00797 3.00689 7.76496 
21 1 3.71778 3.7082 7.05519 
31 1 0.672432 0.656882 10.0932 
32 1 2.1899 2.18933 8.58402 
33 1 1.48354 1.47598 9.28649 
16 1 4.51812 6.24317 4.54091 
17 1 2.98969 7.7861 2.99707 
18 1 3.6919 7.077 3.70659 
25 1 0.663825 10.1154 0.647147 
26 1 2.17633 8.60265 2.17737 
27 1 1.47172 9.30735 1.46447 
4 1 4.61333 6.16711 6.17187 
5 1 3.08777 7.68262 7.68877 
6 1 3.798 6.97708 6.98278 
37 1 0.726371 10.0521 10.0283 
38 1 2.26722 8.50263 8.50021 
39 1 1.55982 9.21399 9.20174 
13 1 6.21834 4.54774 4.49647 
14 1 7.77623 2.99626 2.99009 
15 1 7.06034 3.70916 3.68223 
28 1 10.1165 0.655071 0.657819 
29 1 8.60103 2.1727 2.18355 
30 1 9.30641 1.46629 1.47332 
1 1 6.2008 4.58415 6.14921 
2 1 7.75775 2.99502 7.57401 
3 1 7.07425 3.68024 6.82447 
40 1 10.0562 0.715733 10.0396 
41 1 8.51104 2.25178 8.50682 
42 1 9.21889 1.54845 9.2163 
49 2 5.9805 4.93882 7.89228 
50 3 5.95281 5.08075 8.8211 
7 1 6.15834 6.17944 4.57124 
8 1 7.69432 7.7022 3.07441 
9 1 6.979 6.99309 3.77144 
43 1 10.0516 10.0494 0.711686 
44 1 8.51597 8.51456 2.25869 
45 1 9.22118 9.21931 1.54826 
22 1 6.2489 6.24169 6.19546 
23 1 7.76847 7.77519 7.75769 
24 1 7.07012 7.0704 7.03967 
34 1 10.1146 10.1062 10.0936 
35 1 8.58347 8.58596 8.58582 
36 1 9.2962 9.29361 9.28767 
ITEM: TIMESTEP
150
ITEM: NUMBER OF ATOMS
50
ITEM: BOX BOUNDS pp pp pp
-1.4529139159742847e-02 1.1014529139159746e+01
-1.8120298960748110e-02 1.1020120298960748e+01
-9.4413014318755675e-03 1.1009441301431874e+01
ITEM: ATOMS id type x y z 
10 1 4.59033 4.60503 4.59041 
11 1 3.06967 3.07445 3.08193 
12 1 3.77716 3.78654 3.78361 
46 1 0.725972 0.716258 0.709535 
47 1 2.25854 2.25274 2.26077 
48 1 1.55539 1.54778 1.54905 
19 1 4.55281 4.53326 6.21978 
20 1 3.00735 3.00594 7.76484 
21 1 3.71696 3.70739 7.05542 
31 1 0.669216 0.653076 10.095 
32 1 2.18791 2.18695 8.58489 
33 1 1.48156 1.47392 9.2874 
16 1 4.51839 6.24281 4.54123 
17 1 2.98881 7.78689 2.99712 
18 1 3.69112 7.07794 3.70613 
25 1 0.660583 10.1191 0.645235 
26 1 2.17436 8.60489 2.17631 
27 1 1.46964 9.30932 1.46353 
4 1 4.61347 6.1669 6.17135 
5 1 3.08672 7.68375 7.6893 
6 1 3.79672 6.97834 6.98325 
37 1 0.722982 10.0557 10.0302 
38 1 2.26479 8.50517 8.50163 
39 1 1.55756 9.21643 9.20288 
13 1 6.218 4.54794 4.49719 
14 1 7.77663 2.99549 2.9901 
15 1 7.06098 3.70831 3.68202 
28 1 10.1197 0.651364 0.656025 