ITEM: TIMESTEP
0
ITEM: NUMBER OF ATOMS
130
ITEM: BOX BOUNDS xy xz yz pp pp pp
0.0000000000000000e+00 2.3654499999999999e+01 7.8845000000000001e+00
0.0000000000000000e+00 1.3658086643083999e+01 0.0000000000000000e+00
0.0000000000000000e+00 2.5747000000000000e+01 0.0000000000000000e+00
ITEM: ATOMS id type x y z 
18 1 10.522 6.683 2.644 
28 1 5.247 4.273 12.803 
31 1 9.65 6.514 0.446 
62 1 9.171 5.15 12.405 
91 1 9.65 6.514 11.889 
92 1 10.81 6.18 11.007 
106 1 10.522 6.683 9.691 
127 1 10.81 6.18 1.328 
4 1 4.402 5.735 13.319 
5 1 3.307 5.568 14.201 
43 1 4.549 6.796 15.517 
52 1 9.172 5.15 25.677 
66 1 4.402 5.735 24.762 
67 1 5.003 6.76 23.881 
88 1 5.247 4.273 25.278 
107 1 3.307 5.568 23.881 
116 1 4.549 6.796 22.565 
117 1 5.003 6.76 14.201 
11 1 11.272 7.494 3.321 
12 1 10.477 8.871 4.018 
14 1 9.018 11.397 0.446 
15 1 10.114 11.565 1.328 
16 1 8.412 9.024 0.654 
19 1 10.477 8.871 5.569 
29 1 10.927 10.156 3.321 
32 1 8.77 7.648 1.328 
35 1 12.036 9.594 2.644 
45 1 9.231 8.963 3.321 
47 1 12.762 8.702 0.446 
49 1 11.224 11 0.654 
51 1 8.872 10.337 2.644 
53 1 11.272 7.494 9.014 
54 1 10.477 8.871 8.317 
56 1 9.018 11.397 11.889 
57 1 8.418 10.372 11.007 
58 1 11.224 11 11.681 
60 1 12.255 7.901 9.691 
61 1 10.477 8.871 6.766 
73 1 9.231 8.963 9.014 
75 1 12.762 8.702 11.889 
76 1 12.202 10.061 11.007 
79 1 9.224 7.617 9.691 
80 1 8.174 12.859 12.405 
89 1 10.927 10.156 9.014 
93 1 8.412 9.024 11.681 
95 1 9.951 11.095 9.691 
105 1 10.114 11.565 11.007 
109 1 8.77 7.648 11.007 
110 1 12.036 9.594 9.691 
114 1 8.872 10.337 9.691 
119 1 8.418 10.372 1.328 
120 1 12.255 7.901 2.644 
123 1 12.202 10.061 1.328 
124 1 9.224 7.617 2.644 
128 1 9.951 11.095 2.644 
6 1 5.009 8.108 13.527 
13 1 9.663 10.28 25.128 
17 1 9.204 8.965 25.162 
30 1 10.016 7.556 25.128 
34 1 11.289 7.464 25.162 
36 1 8.174 12.859 25.677 
46 1 11.752 8.777 25.128 
50 1 10.937 10.184 25.162 
55 1 9.663 10.28 12.954 
59 1 10.937 10.184 12.919 
74 1 11.752 8.777 12.954 
78 1 11.289 7.464 12.919 
90 1 10.016 7.556 12.954 
94 1 9.204 8.965 12.919 
101 1 5.009 8.108 24.555 
129 2 6.359 8.108 13.527 
130 3 7.335 8.108 13.527 
33 1 11.795 6.589 0.654 
77 1 11.795 6.589 11.681 
41 1 17.967 6.132 13.527 
68 1 17.967 6.132 24.554 
103 1 19.24 6.037 22.565 
126 1 19.24 6.037 15.517 
3 1 19.528 6.852 12.254 
7 1 19.987 8.167 12.289 
10 1 15.106 8.528 12.804 
22 1 19.175 9.576 12.254 
26 1 17.902 9.668 12.289 
38 1 17.439 8.356 12.254 
42 1 18.254 6.949 12.289 
44 1 20.019 11.982 12.804 
48 1 12.546 7.4 1.328 
65 1 19.528 6.852 0.081 
69 1 18.254 6.949 0.046 
82 1 17.439 8.356 0.081 
86 1 17.902 9.668 0.046 
96 1 14.084 8.604 12.405 
98 1 19.175 9.576 0.081 
102 1 19.987 8.167 0.046 
113 1 12.546 7.4 11.007 
1 1 17.919 9.638 16.194 
2 1 18.714 8.261 16.892 
8 1 18.669 10.449 15.517 
9 1 18.714 8.261 18.442 
20 1 14.084 8.604 25.677 
21 1 18.264 6.977 16.194 
23 1 19.541 10.618 13.32 
24 1 20.421 9.484 14.201 
25 1 17.396 10.544 13.527 
27 1 17.155 7.538 15.517 
37 1 19.96 8.169 16.194 
39 1 16.429 8.43 13.319 
40 1 16.644 9.732 14.201 
63 1 17.919 9.638 21.888 
64 1 18.714 8.261 21.19 
70 1 16.936 9.231 22.565 
71 1 18.714 8.261 19.64 
72 1 20.019 11.982 25.278 
81 1 19.96 8.169 21.888 
83 1 16.429 8.43 24.762 
84 1 16.989 7.071 23.881 
85 1 17.396 10.544 24.555 
87 1 19.967 9.515 22.565 
97 1 18.263 6.977 21.888 
99 1 19.541 10.618 24.762 
100 1 18.38 10.953 23.881 
104 1 15.106 8.528 25.278 
108 1 18.669 10.449 22.565 
111 1 20.421 9.484 23.881 
112 1 17.155 7.538 22.565 
115 1 16.644 9.732 23.881 
118 1 16.936 9.231 15.517 
121 1 16.989 7.071 14.201 
122 1 19.967 9.515 15.517 
125 1 18.38 10.953 14.201 
ITEM: TIMESTEP
10
ITEM: NUMBER OF ATOMS
130
ITEM: BOX BOUNDS xy xz yz pp pp pp
0.0000000000000000e+00 2.3654499999999999e+01 7.8845000000000001e+00
0.0000000000000000e+00 1.3658086643083999e+01 0.0000000000000000e+00
0.0000000000000000e+00 2.5747000000000000e+01 0.0000000000000000e+00
ITEM: ATOMS id type x y z 
18 1 10.388 6.75207 2.64761 
28 1 5.17921 4.40759 12.8432 
31 1 9.4791 6.46263 0.431406 
62 1 9.15422 5.20862 12.3922 
91 1 9.48062 6.48493 11.9132 
92 1 10.8267 6.17126 10.9776 
106 1 10.3905 6.74857 9.69128 
127 1 10.8283 6.16917 1.35617 
4 1 4.43389 5.74621 13.2815 
5 1 3.19216 5.58556 14.1896 
43 1 4.57858 6.91379 15.5293 
52 1 9.15378 5.20066 25.6881 
66 1 4.43647 5.74133 24.8284 
67 1 5.08141 6.85654 23.8894 
88 1 5.17564 4.41608 25.2335 
107 1 3.19605 5.57153 23.9053 
116 1 4.58717 6.93707 22.5613 
117 1 5.05458 6.8072 14.1856 
11 1 11.3292 7.55907 3.33105 
12 1 10.4866 8.86337 4.07841 
14 1 8.99177 11.387 0.385442 
15 1 10.2189 11.5593 1.30557 
16 1 8.42039 8.9367 0.681007 
19 1 10.4746 8.87031 5.5572 
29 1 10.9569 10.1345 3.33606 
32 1 8.77586 7.69767 1.27803 
35 1 12.0297 9.58163 2.60587 
45 1 9.22917 8.93913 3.27751 
47 1 12.7341 8.75774 0.525668 
49 1 11.2777 10.929 0.671996 
51 1 8.8355 10.1981 2.64556 
53 1 11.3288 7.55655 9.00296 
54 1 10.4868 8.86707 8.25685 
56 1 8.99451 11.393 11.9391 
57 1 8.35105 10.28 11.0276 
58 1 11.3041 10.9414 11.669 
60 1 12.2516 7.99097 9.64108 
61 1 10.4747 8.87102 6.77904 
73 1 9.2268 8.94348 9.06077 
75 1 12.7288 8.76346 11.8066 
76 1 12.2209 10.0474 11.0142 
79 1 9.2528 7.63916 9.74247 
80 1 8.24796 12.7097 12.3588 
89 1 10.9559 10.1315 9.00063 
93 1 8.43148 8.92292 11.6663 
95 1 10.0259 11.0909 9.66454 
105 1 10.2032 11.5569 11.0303 
109 1 8.76045 7.70061 11.0351 
110 1 12.0299 9.58327 9.73593 
114 1 8.83775 10.197 9.69104 
119 1 8.3442 10.2828 1.31865 
120 1 12.2481 7.99217 2.70034 
123 1 12.2177 10.0621 1.3135 
124 1 9.25218 7.64362 2.59164 
128 1 10.0282 11.0873 2.67235 
6 1 5.1342 8.18819 13.5482 
13 1 9.58793 10.3592 25.1184 
17 1 9.20637 8.99735 25.1558 
30 1 9.95466 7.65175 25.1189 
34 1 11.3279 7.47518 25.1267 
36 1 8.24618 12.7144 25.7222 
46 1 11.6894 8.79065 25.1057 
50 1 10.9558 10.121 25.1681 
55 1 9.62382 10.2736 12.9796 
59 1 10.9996 10.1266 12.8956 
74 1 11.6818 8.84292 12.9726 
78 1 11.2889 7.50103 12.9535 
90 1 9.93773 7.6986 12.9682 
94 1 9.21399 8.93911 12.8859 
101 1 4.99386 8.21462 24.5108 
129 2 6.311 8.13278 13.5072 
130 3 7.31574 8.09264 13.5407 
33 1 11.7678 6.55571 0.66605 
77 1 11.7622 6.56584 11.6728 
41 1 17.9039 6.20324 13.5604 
68 1 17.9034 6.21426 24.5366 
103 1 19.1625 6.04419 22.5286 
126 1 19.143 6.0446 15.5391 
3 1 19.6002 6.81535 12.2549 
7 1 19.9648 8.15122 12.2884 
10 1 15.1244 8.48806 12.8242 
22 1 19.2586 9.4704 12.2376 
26 1 17.865 9.63364 12.2659 
38 1 17.4904 8.33541 12.2358 
42 1 18.2145 7.02326 12.2876 
44 1 20.0364 11.9259 12.8189 
48 1 12.5902 7.51213 1.3726 
65 1 19.6026 6.76308 0.0908791 
69 1 18.2318 7.01721 0.0329861 
82 1 17.5011 8.3495 0.0992109 
86 1 17.8769 9.64358 0.0690317 
96 1 14.0552 8.64304 12.3821 
98 1 19.2243 9.49345 0.0792576 
102 1 19.9785 8.1436 0.0582628 
113 1 12.5862 7.51293 10.9627 
1 1 17.9447 9.61259 16.2828 
2 1 18.7104 8.27074 16.9437 
8 1 18.79 10.411 15.5241 
9 1 18.7166 8.26152 18.4273 
20 1 14.0587 8.64391 25.7007 
21 1 18.2428 6.99519 16.2012 
23 1 19.7135 10.6637 13.3173 
24 1 20.3758 9.47886 14.1502 
25 1 17.4234 10.5692 13.5235 
27 1 17.1563 7.55308 15.4698 
37 1 19.9566 8.1708 16.1552 
39 1 16.4623 8.35827 13.3955 
40 1 16.5918 9.62773 14.254 
63 1 17.8471 9.56172 21.8988 
64 1 18.7015 8.27851 21.1322 
70 1 16.9673 9.15078 22.4899 
71 1 18.7164 8.26131 19.644 
72 1 20.0371 11.9311 25.2668 
81 1 19.965 8.19057 21.9359 
83 1 16.4626 8.36813 24.6857 
84 1 16.9821 7.07017 23.9041 
85 1 17.4301 10.5735 24.5501 
87 1 19.9573 9.48186 22.6461 
97 1 18.2335 6.99396 21.8735 
99 1 19.7115 10.6564 24.779 
100 1 18.3581 10.9635 23.8604 
104 1 15.1296 8.48766 25.2556 
108 1 18.7939 10.3794 22.5516 
111 1 20.4043 9.41689 23.9197 
112 1 17.1548 7.5493 22.6085 
115 1 16.5981 9.62261 23.8362 
118 1 16.8519 9.08453 15.5035 
121 1 16.9883 7.07092 14.1851 
122 1 19.9792 9.47751 15.4606 
125 1 18.3623 10.9732 14.2146 
ITEM: TIMESTEP
20
ITEM: NUMBER OF ATOMS
130
ITEM: BOX BOUNDS xy xz yz pp pp pp
0.0000000000000000e+00 2.3654499999999999e+01 7.8845000000000001e+00
0.0000000000000000e+00 1.3658086643083999e+01 0.0000000000000000e+00
0.0000000000000000e+00 2.5747000000000000e+01 0.0000000000000000e+00
ITEM: ATOMS id type x y z 
18 1 10.389 6.75177 2.64383 
28 1 5.16307 4.44192 12.8531 
31 1 9.46818 6.48248 0.426708 
62 1 9.14698 5.23315 12.3858 
91 1 9.46552 6.49351 11.9084 
92 1 10.8198 6.17781 10.9826 
106 1 10.3916 6.74622 9.69176 
127 1 10.8203 6.17606 1.35626 
4 1 4.43704 5.76224 13.2883 
5 1 3.19295 5.59319 14.2019 
43 1 4.56848 6.91999 15.5052 
52 1 9.14589 5.221 25.6934 
66 1 4.43397 5.76508 24.8131 
67 1 5.05354 6.89313 23.8967 
88 1 5.15651 4.45567 25.2229 
107 1 3.20517 5.59972 23.8828 
116 1 4.57263 6.93556 22.5862 
117 1 5.04059 6.81778 14.1959 
11 1 11.3234 7.5622 3.34371 
12 1 10.4829 8.8635 4.0826 
14 1 8.98818 11.3652 0.397515 
15 1 10.2168 11.5347 1.32657 
16 1 8.42733 8.94491 0.699435 
19 1 10.4738 8.87015 5.56005 
29 1 10.9447 10.1434 3.3303 
32 1 8.77179 7.70851 1.27169 
35 1 12.0364 9.59544 2.59073 
45 1 9.23176 8.94191 3.27072 
47 1 12.7132 8.77562 0.531138 
49 1 11.2972 10.9177 0.67665 
51 1 8.84881 10.1964 2.62263 
53 1 11.3253 7.56151 8.99098 
54 1 10.4811 8.86548 8.25341 
56 1 8.98948 11.3645 11.9225 
57 1 8.37862 10.2646 11.0336 
58 1 11.3214 10.9366 11.6699 
60 1 12.2628 8.00479 9.6343 
61 1 10.4738 8.87097 6.77606 
73 1 9.22951 8.94394 9.06655 
75 1 12.7195 8.7769 11.7967 
76 1 12.227 10.0482 11.0134 
79 1 9.23137 7.65013 9.76315 
80 1 8.27273 12.6599 12.3443 
89 1 10.9437 10.1439 9.00582 
93 1 8.41196 8.92958 11.6352 
95 1 10.0238 11.064 9.68247 
105 1 10.1979 11.5362 11.0175 
109 1 8.76217 7.6932 11.0419 
110 1 12.0368 9.59354 9.74086 
114 1 8.8506 10.1988 9.71452 
119 1 8.3685 10.2416 1.30971 
120 1 12.2624 8.00714 2.70163 
123 1 12.2164 10.0567 1.31808 
124 1 9.23249 7.65372 2.56354 
128 1 10.0282 11.0619 2.65066 
6 1 5.15936 8.17396 13.5436 
13 1 9.58557 10.3453 25.1231 
17 1 9.20669 8.97919 25.1641 
30 1 9.95004 7.67499 25.1258 
34 1 11.3 7.48338 25.125 
36 1 8.26311 12.6789 25.7318 
46 1 11.6832 8.80661 25.1171 
50 1 10.9618 10.1115 25.1654 
55 1 9.62413 10.2804 12.9845 
59 1 10.9958 10.1294 12.8886 
74 1 11.681 8.84286 12.9758 
78 1 11.2809 7.50958 12.9466 
90 1 9.93603 7.69385 12.9754 
94 1 9.20913 8.94394 12.8897 
101 1 4.98984 8.18413 24.5098 
129 2 6.31029 8.13949 13.5039 
130 3 7.30939 8.08995 13.5439 
33 1 11.7602 6.56444 0.676004 
77 1 11.7484 6.57842 11.6712 
41 1 17.8861 6.20994 13.5498 
68 1 17.8935 6.21465 24.5341 
103 1 19.1628 6.06935 22.5573 
126 1 19.1434 6.06244 15.5348 
3 1 19.5974 6.82735 12.2579 
7 1 19.9734 8.14382 12.2882 
10 1 15.1436 8.47833 12.8351 
22 1 19.2738 9.45554 12.2563 
26 1 17.8796 9.63247 12.2746 
38 1 17.4959 8.32772 12.2301 
42 1 18.2199 7.02183 12.2852 
44 1 20.0484 11.9241 12.8181 
48 1 12.582 7.52194 1.37499 
65 1 19.6077 6.78553 0.0840392 
69 1 18.2303 7.02118 0.0405389 
82 1 17.5017 8.3257 0.0908654 
86 1 17.8948 9.64826 0.0766151 
96 1 14.0368 8.65331 12.3722 
98 1 19.2421 9.46253 0.0791654 
102 1 19.9792 8.15529 0.0439868 
113 1 12.5809 7.52197 10.9628 
1 1 17.9537 9.58828 16.2642 
2 1 18.6973 8.29419 16.9383 
8 1 18.7847 10.3889 15.5301 
9 1 18.7173 8.26203 18.4324 
20 1 14.0396 8.65372 25.7102 
21 1 18.2444 6.99249 16.201 
23 1 19.7228 10.6695 13.3141 
24 1 20.3749 9.48463 14.129 
25 1 17.4357 10.559 13.5353 
27 1 17.1469 7.55609 15.4697 
37 1 19.9658 8.17839 16.1422 
39 1 16.4674 8.34663 13.4044 
40 1 16.5943 9.61464 14.2592 
63 1 17.8712 9.56641 21.8662 
64 1 18.7077 8.27096 21.1287 
70 1 16.9287 9.12414 22.5101 
71 1 18.7173 8.26153 19.645 
72 1 20.0451 11.9118 25.2621 
81 1 19.9602 8.18939 21.9376 
83 1 16.4781 8.35639 24.6786 
84 1 16.9732 7.07913 23.8931 
85 1 17.432 10.5651 24.5352 
87 1 19.9609 9.47712 22.6467 
97 1 18.2451 6.9898 21.8793 
99 1 19.7206 10.6468 24.7878 
100 1 18.3678 10.9558 23.8529 
104 1 15.1512 8.47748 25.2446 
108 1 18.8008 10.3829 22.5658 
111 1 20.4211 9.42016 23.9314 
112 1 17.1533 7.53793 22.6176 
115 1 16.6092 9.60991 23.8332 
118 1 16.8752 9.07937 15.5224 
121 1 16.9749 7.07225 14.1886 
122 1 19.9676 9.46909 15.4582 
125 1 18.3591 10.9589 14.2236 
ITEM: TIMESTEP
30
ITEM: NUMBER OF ATOMS
130
ITEM: BOX BOUNDS xy xz yz pp pp pp
0.0000000000000000e+00 2.3654499999999999e+01 7.8845000000000001e+00
0.0000000000000000e+00 1.3658086643083999e+01 0.0000000000000000e+00
0.0000000000000000e+00 2.5747000000000000e+01 0.0000000000000000e+00
ITEM: ATOMS id type x y z 
18 1 10.3874 6.7695 2.6428 
28 1 5.12871 4.52135 12.8756 
31 1 9.42738 6.51974 0.413798 
62 1 9.10777 5.25931 12.3831 
91 1 9.42008 6.52414 11.9126 
92 1 10.8062 6.19777 10.9734 
106 1 10.3891 6.765 9.69125 
127 1 10.805 6.19323 1.36631 
4 1 4.43398 5.77377 13.3005 
5 1 3.15895 5.63334 14.2073 
43 1 4.55453 6.9419 15.4841 
52 1 9.10991 5.25483 25.6981 
66 1 4.43843 5.79544 24.8055 
67 1 5.06357 6.9416 23.8966 
88 1 5.1218 4.53781 25.2015 
107 1 3.17703 5.64595 23.8802 
116 1 4.56065 6.95333 22.5988 
117 1 5.05009 6.8583 14.2073 
11 1 11.325 7.58031 3.35707 
12 1 10.4833 8.85596 4.09586 
14 1 8.98422 11.338 0.404827 
15 1 10.2433 11.4885 1.3285 
16 1 8.39777 8.92527 0.702062 
19 1 10.4706 8.86968 5.55978 
29 1 10.9487 10.1334 3.3404 
32 1 8.71836 7.68432 1.27249 
35 1 12.0541 9.6138 2.60813 
45 1 9.22783 8.93662 3.26575 
47 1 12.6838 8.80264 0.539503 
49 1 11.3286 10.9178 0.667368 
51 1 8.85957 10.1771 2.60959 
53 1 11.3252 7.57994 8.97766 
54 1 10.4804 8.86014 8.24322 
56 1 8.99272 11.3229 11.933 
57 1 8.36473 10.2122 11.0279 
58 1 11.3548 10.9453 11.6772 
60 1 12.267 8.02784 9.61147 
61 1 10.4697 8.87025 6.77792 
73 1 9.22632 8.93864 9.07351 
75 1 12.6976 8.80549 11.7843 
76 1 12.265 10.0672 11.001 
79 1 9.21581 7.65086 9.77322 
80 1 8.31515 12.5628 12.3173 
89 1 10.9459 10.1351 8.99658 
93 1 8.3671 8.91585 11.6335 
95 1 10.0349 11.0563 9.68662 
105 1 10.2327 11.4909 11.0124 
109 1 8.72465 7.66379 11.0555 
110 1 12.0539 9.61536 9.72607 
114 1 8.86079 10.1831 9.72332 
119 1 8.35752 10.1893 1.31149 
120 1 12.2661 8.03268 2.72363 
123 1 12.2544 10.0707 1.32794 
124 1 9.21725 7.65652 2.55134 
128 1 10.0347 11.0533 2.65122 
6 1 5.20597 8.18596 13.5404 
13 1 9.58694 10.319 25.0915 
17 1 9.20626 8.96684 25.1409 
30 1 9.9357 7.69552 25.099 
34 1 11.2688 7.49332 25.1299 
36 1 8.29939 12.5937 25.7543 
46 1 11.6895 8.8214 25.1209 
50 1 10.9579 10.1147 25.1575 
55 1 9.62854 10.263 13.0112 
59 1 10.9929 10.1319 12.8828 
74 1 11.6757 8.8503 12.9811 
78 1 11.2639 7.52266 12.9469 
90 1 9.92167 7.7162 13.0006 
94 1 9.19318 8.94981 12.8898 
101 1 5.0208 8.20597 24.5057 
129 2 6.32479 8.16437 13.4919 
130 3 7.29737 8.08123 13.5541 
33 1 11.7361 6.60185 0.685939 
77 1 11.7247 6.61772 11.6621 
41 1 17.8546 6.21715 13.5388 
68 1 17.862 6.21512 24.5418 
103 1 19.1574 6.07891 22.5572 
126 1 19.1263 6.07273 15.5375 
3 1 19.599 6.8354 12.233 
7 1 19.9964 8.14043 12.2847 
10 1 15.1423 8.46124 12.8409 
22 1 19.2937 9.42949 12.2929 
26 1 17.9153 9.6314 12.2845 
38 1 17.5131 8.32223 12.233 
42 1 18.2233 7.02732 12.2763 
44 1 20.0838 11.9071 12.8197 
48 1 12.5626 7.55497 1.38546 
65 1 19.6018 6.81619 0.115319 
69 1 18.2349 7.01325 0.0510666 
82 1 17.5054 8.31582 0.0892148 
86 1 17.9238 9.63874 0.0819201 
96 1 14.0443 8.67034 12.3687 
98 1 19.2513 9.43614 0.104846 
102 1 19.9859 8.16544 0.0688569 
113 1 12.5619 7.55163 10.9478 
1 1 17.9599 9.56009 16.2877 
2 1 18.6869 8.3246 16.9426 
8 1 18.8124 10.3692 15.5293 
9 1 18.7183 8.26637 18.4339 
20 1 14.0467 8.66734 25.7118 
21 1 18.2449 7.01132 16.2042 
23 1 19.753 10.662 13.3144 
24 1 20.3846 9.49535 14.0894 
25 1 17.4527 10.5197 13.5605 
27 1 17.1215 7.5396 15.4855 
37 1 19.9741 8.1916 16.1171 
39 1 16.491 8.31733 13.4094 
40 1 16.6013 9.57257 14.2666 
63 1 17.8687 9.54923 21.8521 
64 1 18.7079 8.27715 21.1208 
70 1 16.9256 9.09948 22.4869 
71 1 18.7216 8.26036 19.646 
72 1 20.08 11.8755 25.2571 
81 1 19.9641 8.19542 21.9412 
83 1 16.5047 8.3309 24.6666 
84 1 16.9346 7.06052 23.8809 
85 1 17.4541 10.5306 24.5195 
87 1 19.9732 9.47777 22.6561 
97 1 18.2417 6.99884 21.8678 
99 1 19.7647 10.6104 24.7956 
100 1 18.3843 10.9396 23.8442 
104 1 15.1429 8.4634 25.2437 
108 1 18.8059 10.3627 22.5668 
111 1 20.472 9.44864 23.9381 
112 1 17.1345 7.51907 22.6016 
115 1 16.6278 9.57733 23.8244 
118 1 16.8723 9.05078 15.5429 
121 1 16.9329 7.05489 14.1922 
122 1 19.9703 9.45323 15.4112 
125 1 18.3773 10.9323 14.2361 
ITEM: TIMESTEP
40
ITEM: NUMBER OF ATOMS
130
ITEM: BOX BOUNDS xy xz yz pp pp pp
0.0000000000000000e+00 2.3654499999999999e+01 7.8845000000000001e+00
0.0000000000000000e+00 1.3658086643083999e+01 0.0000000000000000e+00
0.0000000000000000e+00 2.5747000000000000e+01 0.0000000000000000e+00
ITEM: ATOMS id type x y z 
18 1 10.3774 6.78829 2.64678 
28 1 5.11213 4.56716 12.8897 
31 1 9.39676 6.54592 0.409351 
62 1 9.06484 5.27455 12.3827 
91 1 9.39602 6.54745 11.9214 
92 1 10.786 6.22179 10.9734 
106 1 10.3806 6.78384 9.68665 
127 1 10.787 6.21397 1.36625 
4 1 4.42393 5.80381 13.31 
5 1 3.13742 5.65997 14.2086 
43 1 4.54514 6.94539 15.4748 
52 1 9.06875 5.27201 25.6978 
66 1 4.43186 5.83243 24.8031 
67 1 5.06787 6.97107 23.8977 
88 1 5.10426 4.59055 25.1875 
107 1 3.16127 5.67347 23.8824 
116 1 4.56037 6.96212 22.6047 
117 1 5.05493 6.87575 14.2051 
11 1 11.3267 7.59191 3.36722 
12 1 10.486 8.84299 4.09831 
14 1 8.99014 11.2985 0.406232 
15 1 10.2595 11.459 1.32605 
16 1 8.37513 8.90176 0.68306 
19 1 10.4671 8.86788 5.56039 
29 1 10.9512 10.1276 3.34382 
32 1 8.67761 7.66467 1.26749 
35 1 12.0702 9.63119 2.62017 
45 1 9.22971 8.92906 3.26341 
47 1 12.6942 8.82448 0.54327 
49 1 11.3494 10.9066 0.660131 
51 1 8.86202 10.1678 2.60349 
53 1 11.3266 7.59076 8.96769 
54 1 10.4823 8.84784 8.24145 
56 1 9.00931 11.2735 11.9357 
57 1 8.35793 10.177 11.0207 
58 1 11.38 10.9408 11.6816 
60 1 12.2703 8.05069 9.59397 
61 1 10.4659 8.86896 6.77846 
73 1 9.22867 8.93153 9.07684 
75 1 12.7008 8.82678 11.7813 
76 1 12.2964 10.0837 10.9896 
79 1 9.20229 7.64868 9.78075 
80 1 8.32906 12.5174 12.3081 
89 1 10.9491 10.1301 8.99313 
93 1 8.33633 8.894 11.6466 
95 1 10.0407 11.0473 9.68752 
105 1 10.2542 11.4632 11.0122 
109 1 8.68102 7.64503 11.0556 
110 1 12.071 9.63257 9.71458 
114 1 8.86119 10.1743 9.73039 
119 1 8.35426 10.1609 1.31094 
120 1 12.2689 8.05519 2.73907 
123 1 12.2842 10.0832 1.33625 
124 1 9.20285 7.65393 2.54796 
128 1 10.0393 11.0414 2.65212 
6 1 5.22716 8.1946 13.526 
13 1 9.58223 10.3189 25.0669 
17 1 9.19355 8.97224 25.1367 
30 1 9.92403 7.69738 25.0813 
34 1 11.2651 7.50183 25.1258 
36 1 8.31728 12.5406 25.7686 
46 1 11.6851 8.81878 25.121 
50 1 10.9519 10.1094 25.1599 
55 1 9.63139 10.2528 13.0174 
59 1 10.9986 10.137 12.8854 
74 1 11.6736 8.85468 12.9784 
78 1 11.2518 7.53064 12.9498 
90 1 9.91175 7.72425 13.0171 
94 1 9.16931 8.94833 12.8944 
101 1 5.04364 8.22932 24.5267 
129 2 6.34399 8.18399 13.4818 
130 3 7.30737 8.07229 13.5649 
33 1 11.7166 6.63092 0.693656 
77 1 11.7071 6.64605 11.6544 
41 1 17.8332 6.22782 13.5264 
68 1 17.8411 6.22684 24.5493 
103 1 19.1522 6.09058 22.5573 
126 1 19.1162 6.08158 15.5391 
3 1 19.6058 6.83254 12.2097 
7 1 20.0088 8.13213 12.2791 
10 1 15.1407 8.4498 12.8407 
22 1 19.3063 9.4257 12.2876 
26 1 17.9255 9.63189 12.2869 
38 1 17.5157 8.32732 12.2394 
42 1 18.2327 7.02845 12.2813 
44 1 20.1164 11.8941 12.819 
48 1 12.5469 7.59164 1.39203 
65 1 19.6102 6.81171 0.139938 
69 1 18.2381 7.02476 0.0493708 
82 1 17.507 8.31315 0.0882856 
86 1 17.9244 9.63471 0.0807189 
96 1 14.049 8.678 12.3662 
98 1 19.2662 9.43385 0.121591 
102 1 19.9961 8.16148 0.0738629 
113 1 12.5467 7.58819 10.9418 
1 1 17.9523 9.56358 16.291 
2 1 18.6953 8.33715 16.9483 
8 1 18.815 10.3587 15.5397 
9 1 18.7206 8.27193 18.433 
20 1 14.0487 8.67665 25.714 
21 1 18.2389 7.02385 16.2046 
23 1 19.772 10.6561 13.3096 
24 1 20.4304 9.51038 14.0809 
25 1 17.4712 10.4871 13.5761 
27 1 17.0984 7.51841 15.4975 
37 1 19.9733 8.19573 16.1113 
39 1 16.4906 8.29208 13.408 
40 1 16.6111 9.53158 14.2761 
63 1 17.8655 9.53899 21.843 
64 1 18.7036 8.29025 21.1195 
70 1 16.9224 9.07662 22.472 
71 1 18.7251 8.26034 19.6456 
72 1 20.1216 11.8608 25.2586 
81 1 19.9624 8.20238 21.9459 
83 1 16.4965 8.30854 24.6658 
84 1 16.9053 7.04895 23.8733 
85 1 17.4749 10.5011 24.5167 
87 1 19.9901 9.479 22.6611 
97 1 18.2396 7.00539 21.8654 
99 1 19.7934 10.5843 24.8015 
100 1 18.4027 10.9178 23.8422 
104 1 15.1414 8.45428 25.2413 
108 1 18.8136 10.3457 22.5631 
111 1 20.5137 9.46742 23.9404 
112 1 17.1185 7.50065 22.5898 
115 1 16.6443 9.54083 23.816 
118 1 16.8706 9.02955 15.5594 
121 1 16.8945 7.04471 14.195 
122 1 19.9812 9.45232 15.3965 
125 1 18.4006 10.9129 14.2368 
ITEM: TIMESTEP
50
ITEM: NUMBER OF ATOMS
130
ITEM: BOX BOUNDS xy xz yz pp pp pp
0.0000000000000000e+00 2.3654499999999999e+01 7.8845000000000001e+00
0.0000000000000000e+00 1.3658086643083999e+01 0.0000000000000000e+00
0.0000000000000000e+00 2.5747000000000000e+01 0.0000000000000000e+00
ITEM: ATOMS id type x y z 
18 1 10.3638 6.81634 2.6436 
28 1 5.09901 4.62035 12.9071 
31 1 9.35034 6.57893 0.394309 
62 1 8.97551 5.30017 12.3844 
91 1 9.34585 6.57498 11.9335 
92 1 10.7475 6.272 10.975 
106 1 10.3665 6.81245 9.68895 
127 1 10.7435 6.26655 1.36355 
4 1 4.39604 5.86001 13.3136 
5 1 3.09884 5.69634 14.2089 
43 1 4.53687 6.95987 15.4624 
52 1 8.98164 5.30138 25.6973 
66 1 4.41417 5.89792 24.8021 
67 1 5.08031 7.02942 23.9077 
88 1 5.09094 4.65739 25.169 
107 1 3.13019 5.71253 23.8844 
116 1 4.56215 6.98284 22.6116 
117 1 5.05655 6.91512 14.2068 
11 1 11.3296 7.60553 3.38054 
12 1 10.4957 8.82639 4.10191 
14 1 9.00822 11.2334 0.405023 
15 1 10.2895 11.4188 1.32578 
16 1 8.33385 8.87275 0.663532 
19 1 10.4603 8.8618 5.56045 
29 1 10.9564 10.1133 3.34892 
32 1 8.60789 7.63365 1.27142 
35 1 12.1013 9.66362 2.64114 
45 1 9.22754 8.92309 3.25663 
47 1 12.683 8.86718 0.545175 
49 1 11.3741 10.8841 0.655557 
51 1 8.86115 10.1466 2.59842 
53 1 11.3328 7.60304 8.9545 
54 1 10.4915 8.83147 8.23778 
56 1 9.0268 11.2091 11.9269 
57 1 8.34772 10.1241 11.0359 
58 1 11.4192 10.9297 11.6883 
60 1 12.2723 8.09052 9.57104 
61 1 10.4586 8.86398 6.77892 
73 1 9.22676 8.92677 9.08394 
75 1 12.7037 8.87647 11.7771 
76 1 12.3567 10.1119 10.9685 
79 1 9.16648 7.64315 9.78886 
80 1 8.34864 12.4404 12.2972 
89 1 10.9542 10.118 8.99025 
93 1 8.2784 8.8591 11.6576 
95 1 10.0432 11.0265 9.69316 
105 1 10.2839 11.4211 11.0186 
109 1 8.61091 7.61306 11.0619 
110 1 12.1044 9.66291 9.69124 
114 1 8.86334 10.1581 9.72816 
119 1 8.3404 10.0996 1.3013 
120 1 12.2688 8.09289 2.76191 
123 1 12.3362 10.1138 1.35646 
124 1 9.16154 7.65176 2.53322 
128 1 10.042 11.0194 2.6445 
6 1 5.27061 8.21148 13.5028 
13 1 9.57041 10.3072 25.0355 
17 1 9.18279 8.96221 25.1224 
30 1 9.9184 7.7073 25.0441 
34 1 11.2435 7.49744 25.1284 
36 1 8.33013 12.4744 25.787 
46 1 11.6853 8.82818 25.1241 
50 1 10.9401 10.0978 25.1495 
55 1 9.63485 10.2266 13.0248 
59 1 11.0132 10.1485 12.8918 
74 1 11.6694 8.85904 12.9753 
78 1 11.24 7.54119 12.949 
90 1 9.89431 7.7413 13.0444 
94 1 9.13649 8.93535 12.9026 
101 1 5.08794 8.26089 24.545 
129 2 6.37904 8.21022 13.463 
130 3 7.33671 8.05142 13.5941 
33 1 11.69 6.68694 0.709933 
77 1 11.6793 6.70535 11.6423 
41 1 17.7982 6.24856 13.5233 
68 1 17.8177 6.24858 24.5536 
103 1 19.1509 6.11475 22.5655 
126 1 19.0969 6.10142 15.5361 
3 1 19.6151 6.83172 12.1828 
7 1 20.0325 8.12806 12.2567 
10 1 15.1399 8.42251 12.8346 
22 1 19.3289 9.40718 12.2985 
26 1 17.9517 9.63515 12.2996 
38 1 17.5281 8.32484 12.252 
42 1 18.2407 7.03545 12.2744 
44 1 20.1904 11.8984 12.8047 
48 1 12.5192 7.63212 1.40882 
65 1 19.6155 6.82871 0.178602 
69 1 18.2526 7.02947 0.0581902 
82 1 17.501 8.31016 0.084416 
86 1 17.9497 9.62492 0.0892087 
96 1 14.0583 8.69095 12.3631 
98 1 19.2728 9.42874 0.163545 
102 1 20.0115 8.16737 0.0845516 
113 1 12.5171 7.63723 10.9268 
1 1 17.9475 9.54534 16.3051 
2 1 18.6898 8.35995 16.9433 
8 1 18.8374 10.339 15.5408 
9 1 18.7299 8.28121 18.4345 
20 1 14.0564 8.69575 25.7143 
21 1 18.2331 7.04496 16.2104 
23 1 19.8141 10.6523 13.3059 
24 1 20.4811 9.52504 14.0623 
25 1 17.4974 10.428 13.6007 
27 1 17.0551 7.49173 15.5185 
37 1 19.9774 8.2037 16.094 
39 1 16.491 8.25282 13.4103 
40 1 16.629 9.47736 14.2832 
63 1 17.8624 9.52334 21.8286 
64 1 18.6969 8.30454 21.1171 
70 1 16.9218 9.03843 22.446 
71 1 18.7293 8.26599 19.646 
72 1 20.208 11.8312 25.2598 
81 1 19.9627 8.20958 21.9509 
83 1 16.5064 8.26533 24.6629 
84 1 16.8532 7.01699 23.8528 
85 1 17.4972 10.4487 24.4939 
87 1 20.028 9.48391 22.674 
97 1 18.2331 7.01906 21.8599 
99 1 19.8456 10.5574 24.8123 
100 1 18.446 10.8678 23.8465 
104 1 15.1334 8.43622 25.2416 
108 1 18.8312 10.3143 22.564 
111 1 20.5849 9.49727 23.941 
112 1 17.0867 7.46819 22.5693 
115 1 16.6708 9.50038 23.8038 
118 1 16.8719 8.98578 15.5892 
121 1 16.83 7.02189 14.2034 
122 1 19.9986 9.45494 15.371 
125 1 18.4331 10.8791 14.2438 
ITEM: TIMESTEP
60
ITEM: NUMBER OF ATOMS
130
ITEM: BOX BOUNDS xy xz yz pp pp pp
0.0000000000000000e+00 2.3654499999999999e+01 7.8845000000000001e+00
0.0000000000000000e+00 1.3658086643083999e+01 0.0000000000000000e+00
0.0000000000000000e+00 2.5747000000000000e+01 0.0000000000000000e+00
ITEM: ATOMS id type x y z 
18 1 10.3536 6.82532 2.64768 
28 1 5.10113 4.62418 12.9092 
31 1 9.34171 6.57979 0.391554 
62 1 8.95115 5.30626 12.386 
91 1 9.34066 6.57558 11.9364 
92 1 10.736 6.28133 10.9825 
106 1 10.3592 6.82079 9.68583 
127 1 10.7335 6.27425 1.35788 
4 1 4.39672 5.86017 13.3164 
5 1 3.09527 5.703 14.2078 
43 1 4.53913 6.95806 15.4595 
52 1 8.95693 5.30658 25.6957 
66 1 4.41345 5.90347 24.8036 
67 1 5.08213 7.03239 23.9074 
88 1 5.09423 4.66429 25.167 
107 1 3.13491 5.72102 23.8867 
116 1 4.5673 6.98449 22.6178 
117 1 5.05561 6.92333 14.1995 
11 1 11.3291 7.60677 3.37924 
12 1 10.4936 8.82324 4.10083 
14 1 9.00669 11.2279 0.405664 
15 1 10.2882 11.4107 1.32223 
16 1 8.3276 8.86183 0.65683 
19 1 10.4587 8.85939 5.56092 
29 1 10.9563 10.112 3.34597 
32 1 8.59669 7.63297 1.26602 
35 1 12.1074 9.66741 2.64453 
45 1 9.22874 8.91967 3.25755 
47 1 12.6944 8.87051 0.547836 
49 1 11.3777 10.8799 0.653259 
51 1 8.85615 10.1458 2.59172 
53 1 11.3317 7.60462 8.95533 
54 1 10.4896 8.82839 8.2394 
56 1 9.02933 11.2013 11.9289 
57 1 8.34313 10.1161 11.0263 
58 1 11.426 10.9285 11.6861 
60 1 12.2722 8.09671 9.56684 
61 1 10.4569 8.86157 6.77917 
73 1 9.22908 8.92243 9.08306 
75 1 12.7076 8.87925 11.7747 
76 1 12.3633 10.1205 10.9637 
79 1 9.15782 7.64356 9.79091 
80 1 8.34374 12.4371 12.2999 
89 1 10.9557 10.1161 8.99223 
93 1 8.27079 8.85202 11.6639 
95 1 10.0444 11.0213 9.6953 
105 1 10.2892 11.4155 11.0173 
109 1 8.60019 7.61178 11.0579 
110 1 12.1111 9.66854 9.68855 
114 1 8.85723 10.1552 9.73829 
119 1 8.33997 10.0979 1.30264 
120 1 12.2692 8.09983 2.76502 
123 1 12.3408 10.1163 1.35778 
124 1 9.15542 7.65034 2.53715 
128 1 10.0406 11.0143 2.64459 
6 1 5.272 8.21567 13.4933 
13 1 9.57043 10.3016 25.0349 
17 1 9.1748 8.96205 25.1181 
30 1 9.91305 7.70222 25.0406 
34 1 11.2525 7.50316 25.1215 
36 1 8.32621 12.4687 25.7886 
46 1 11.6808 8.82035 25.124 
50 1 10.9397 10.097 25.1493 
55 1 9.63751 10.221 13.0245 
59 1 11.0148 10.1473 12.8941 
74 1 11.6678 8.86086 12.9742 
78 1 11.2364 7.54246 12.9541 
90 1 9.89589 7.7387 13.0448 
94 1 9.13058 8.93342 12.9003 
101 1 5.09391 8.27012 24.5516 
129 2 6.39115 8.21086 13.4606 
130 3 7.34304 8.04343 13.6059 
33 1 11.6848 6.69114 0.711335 
77 1 11.6739 6.71123 11.6394 
41 1 17.7933 6.25207 13.5192 
68 1 17.8122 6.25125 24.556 
103 1 19.1506 6.11762 22.5664 
126 1 19.0978 6.10366 15.5347 
3 1 19.617 6.83501 12.1753 
7 1 20.0321 8.12768 12.2555 
10 1 15.1382 8.41783 12.8324 
22 1 19.3341 9.40775 12.2976 
26 1 17.955 9.63116 12.2978 
38 1 17.5303 8.32793 12.2513 
42 1 18.2447 7.03746 12.2778 
44 1 20.2097 11.8904 12.8035 
48 1 12.5187 7.64964 1.40777 
65 1 19.6195 6.82926 0.175761 
69 1 18.2514 7.03786 0.0603542 
82 1 17.5109 8.31088 0.0852699 
86 1 17.9391 9.62895 0.0874355 
96 1 14.0581 8.69143 12.3597 
98 1 19.2778 9.42952 0.165936 
102 1 20.0151 8.17077 0.0902224 
113 1 12.5165 7.65269 10.928 
1 1 17.9464 9.55425 16.2986 
2 1 18.6949 8.35916 16.9488 
8 1 18.8328 10.3337 15.5474 
9 1 18.7319 8.28393 18.4339 
20 1 14.0556 8.69623 25.7151 
21 1 18.2282 7.04586 16.206 
23 1 19.821 10.6603 13.3018 
24 1 20.494 9.52886 14.0622 
25 1 17.5028 10.4249 13.6031 
27 1 17.05 7.48241 15.5226 
37 1 19.9729 8.2036 16.0953 
39 1 16.4857 8.24842 13.4132 
40 1 16.6307 9.46948 14.2902 
63 1 17.8632 9.52287 21.8308 
64 1 18.6965 8.30726 21.1178 
70 1 16.9215 9.03228 22.4451 
71 1 18.7313 8.26869 19.6442 
72 1 20.2329 11.8259 25.2611 
81 1 19.9625 8.21234 21.9519 
83 1 16.4958 8.26104 24.6612 
84 1 16.8482 7.01701 23.8516 
85 1 17.5055 10.4418 24.4979 
87 1 20.0367 9.48307 22.6729 
97 1 18.2348 7.02145 21.8638 
99 1 19.85 10.5535 24.8168 
100 1 18.4574 10.8589 23.8513 
104 1 15.134 8.43567 25.2407 
108 1 18.838 10.3066 22.5621 
111 1 20.595 9.49971 23.9435 
112 1 17.0806 7.46341 22.566 
115 1 16.6718 9.48318 23.802 
118 1 16.87 8.98452 15.5886 
121 1 16.8245 7.01605 14.2098 
122 1 20.0078 9.45369 15.3694 
125 1 18.4425 10.8742 14.2396 
ITEM: TIMESTEP
70
ITEM: NUMBER OF ATOMS
130
ITEM: BOX BOUNDS xy xz yz pp pp pp
0.0000000000000000e+00 2.3654499999999999e+01 7.8845000000000001e+00
0.0000000000000000e+00 1.3658086643083999e+01 0.0000000000000000e+00
0.0000000000000000e+00 2.5747000000000000e+01 0.0000000000000000e+00
ITEM: ATOMS id type x y z 
18 1 10.3451 6.83422 2.64637 
28 1 5.104 4.6313 12.9131 
31 1 9.32989 6.58331 0.386234 
62 1 8.9123 5.31473 12.3896 
91 1 9.32887 6.57815 11.9386 
92 1 10.7202 6.29595 10.9883 
106 1 10.3517 6.82912 9.68731 
127 1 10.719 6.28909 1.35248 
4 1 4.39546 5.86618 13.3137 
5 1 3.09161 5.7101 14.2044 
43 1 4.54048 6.96065 15.4549 
52 1 8.9177 5.31411 25.6924 
66 1 4.41861 5.91091 24.8045 
67 1 5.08714 7.04362 23.9118 
88 1 5.10183 4.67117 25.1653 
107 1 3.1308 5.73065 23.8908 
116 1 4.57197 6.98787 22.6228 
117 1 5.05335 6.93272 14.1915 
11 1 11.3268 7.60935 3.37742 
12 1 10.4921 8.82123 4.10032 
14 1 9.00285 11.2211 0.406302 
15 1 10.2876 11.4006 1.31871 
16 1 8.31892 8.8546 0.648767 
19 1 10.4562 8.85543 5.56095 
29 1 10.9554 10.1079 3.34411 
32 1 8.58287 7.63013 1.26305 