ITEM: TIMESTEP
0
ITEM: NUMBER OF ATOMS
49
ITEM: BOX BOUNDS pp pp pp
0.0000000000000000e+00 1.1000000000000000e+01
0.0000000000000000e+00 1.1002000000000001e+01
0.0000000000000000e+00 1.1000000000000000e+01
ITEM: ATOMS id type x y z 
10 1 4.603 4.603 4.603 
11 1 3.085 3.085 3.085 
12 1 3.796 3.796 3.796 
46 1 0.726 0.725 0.725 
47 1 2.26 2.259 2.26 
48 1 1.551 1.55 1.55 
19 1 4.546 4.545 6.226 
20 1 3.013 3.013 7.764 
21 1 3.721 3.721 7.053 
31 1 0.668 0.667 10.103 
32 1 2.187 2.187 8.589 
33 1 1.476 1.475 9.298 
16 1 4.546 6.225 4.546 
17 1 3.013 7.765 3.013 
18 1 3.721 7.053 3.722 
25 1 0.668 10.103 0.668 
26 1 2.188 8.589 2.188 
27 1 1.476 9.298 1.476 
4 1 4.608 6.169 6.169 
5 1 3.086 7.684 7.684 
6 1 3.799 6.974 6.974 
37 1 0.729 10.046 10.046 
38 1 2.259 8.509 8.508 
39 1 1.552 9.219 9.219 
13 1 6.225 4.546 4.546 
14 1 7.764 3.013 3.013 
15 1 7.053 3.721 3.722 
28 1 10.102 0.667 0.668 
29 1 8.589 2.187 2.188 
30 1 9.298 1.475 1.476 
1 1 6.168 4.608 6.169 
2 1 7.684 3.086 7.684 
3 1 6.974 3.799 6.974 
40 1 10.045 0.728 10.046 
41 1 8.508 2.259 8.508 
42 1 9.218 1.551 9.218 
7 1 6.169 6.169 4.608 
8 1 7.684 7.684 3.086 
9 1 6.974 6.974 3.799 
43 1 10.046 10.047 0.729 
44 1 8.508 8.509 2.259 
45 1 9.219 9.219 1.552 
22 1 6.229 6.229 6.229 
23 1 7.764 7.765 7.765 
24 1 7.055 7.056 7.055 
34 1 10.108 10.108 10.107 
35 1 8.59 8.59 8.59 
36 1 9.301 9.301 9.3 
49 2 6.717 6.629 8.002 
ITEM: TIMESTEP
10
ITEM: NUMBER OF ATOMS
49
ITEM: BOX BOUNDS pp pp pp
0.0000000000000000e+00 1.1000000000000000e+01
0.0000000000000000e+00 1.1002000000000001e+01
0.0000000000000000e+00 1.1000000000000000e+01
ITEM: ATOMS id type x y z 
10 1 4.60354 4.60347 4.60148 
11 1 3.08532 3.08489 3.08591 
12 1 3.7966 3.79714 3.79566 
46 1 0.725752 0.724943 0.724951 
47 1 2.2621 2.26083 2.26237 
48 1 1.55204 1.55183 1.55036 
19 1 4.54483 4.54331 6.22761 
20 1 3.00986 3.00865 7.76768 
21 1 3.7179 3.71934 7.05466 
31 1 0.660648 0.663178 10.1029 
32 1 2.1844 2.18608 8.59053 
33 1 1.47603 1.47253 9.29958 
16 1 4.53405 6.22438 4.54223 
17 1 3.01184 7.76722 3.01101 
18 1 3.71718 7.05331 3.71948 
25 1 0.664438 10.1035 0.663823 
26 1 2.1866 8.59192 2.18674 
27 1 1.47348 9.2979 1.47367 
4 1 4.59571 6.16299 6.16144 
5 1 3.08656 7.68637 7.68617 
6 1 3.79339 6.97256 6.97264 
37 1 0.73724 10.0493 10.0476 
38 1 2.25644 8.51113 8.50921 
39 1 1.55399 9.21888 9.22081 
13 1 6.22421 4.53428 4.54198 
14 1 7.76726 3.011 3.00997 
15 1 7.05332 3.7172 3.72033 
28 1 10.1013 0.662512 0.661238 
29 1 8.59007 2.18467 2.18634 
30 1 9.30025 1.4749 1.4746 
1 1 6.1622 4.59582 6.16239 
2 1 7.68624 3.08654 7.68713 
3 1 6.97219 3.79246 6.97094 
40 1 10.0478 0.735614 10.049 
41 1 8.5129 2.25294 8.51322 
42 1 9.21855 1.55489 9.21755 
7 1 6.16789 6.16832 4.59895 
8 1 7.68865 7.68867 3.08386 
9 1 6.97574 6.97584 3.79075 
43 1 10.0476 10.0497 0.737718 
44 1 8.51015 8.51181 2.25546 
45 1 9.22102 9.21967 1.55381 
22 1 6.23383 6.23696 6.17533 
23 1 7.81712 7.82551 7.72958 
24 1 7.03708 7.03316 7.10025 
34 1 10.1063 10.1071 10.1061 
35 1 8.60572 8.60726 8.59319 
36 1 9.32332 9.32398 9.31998 
49 2 6.6684 6.57347 8.05974 
ITEM: TIMESTEP
20
ITEM: NUMBER OF ATOMS
49
ITEM: BOX BOUNDS pp pp pp
0.0000000000000000e+00 1.1000000000000000e+01
0.0000000000000000e+00 1.1002000000000001e+01
0.0000000000000000e+00 1.1000000000000000e+01
ITEM: ATOMS id type x y z 
10 1 4.60416 4.60421 4.59893 
11 1 3.08503 3.08453 3.08662 
12 1 3.79744 3.79789 3.79465 
46 1 0.728607 0.727843 0.726757 
47 1 2.26239 2.26151 2.26132 
48 1 1.55115 1.55041 1.55195 
19 1 4.54403 4.54409 6.23153 
20 1 3.00762 3.00875 7.76738 
21 1 3.72007 3.71764 7.05691 
31 1 0.663386 0.663258 10.1041 
32 1 2.18572 2.18378 8.59233 
33 1 1.47078 1.47356 9.29899 
16 1 4.52202 6.22179 4.54065 
17 1 3.01073 7.76967 3.00859 
18 1 3.71332 7.05246 3.71955 
25 1 0.66618 10.1029 0.664312 
26 1 2.18484 8.59109 2.18563 
27 1 1.47505 9.30188 1.47322 
4 1 4.60186 6.16349 6.15992 
5 1 3.08677 7.68231 7.68235 
6 1 3.79847 6.97284 6.97194 
37 1 0.739119 10.0486 10.0493 
38 1 2.25837 8.5081 8.50882 
39 1 1.55707 9.2209 9.21841 
13 1 6.2222 4.52241 4.54107 
14 1 7.76968 3.0099 3.00817 
15 1 7.05215 3.71337 3.71957 
28 1 10.1034 0.666458 0.662282 
29 1 8.59246 2.18556 2.18612 
30 1 9.29803 1.472 1.47268 
1 1 6.16286 4.60142 6.15976 
2 1 7.68226 3.08677 7.68206 
3 1 6.97139 3.79784 6.97188 
40 1 10.0488 0.737353 10.0493 
41 1 8.51093 2.25539 8.51043 
42 1 9.2185 1.5575 9.21923 
7 1 6.1743 6.17487 4.60334 
8 1 7.68803 7.6882 3.07977 
9 1 6.97982 6.97995 3.79274 
43 1 10.0491 10.049 0.739625 
44 1 8.51072 8.50998 2.25602 
45 1 9.22041 9.2232 1.55539 
22 1 6.20537 6.21024 6.1359 
23 1 7.82945 7.83727 7.73863 
24 1 7.04984 7.04346 7.1456 
34 1 10.1102 10.1114 10.112 
35 1 8.60468 8.60841 8.57332 
36 1 9.31791 9.31831 9.30892 
49 2 6.6624 6.56614 8.07998 
ITEM: TIMESTEP
30
ITEM: NUMBER OF ATOMS
49
ITEM: BOX BOUNDS pp pp pp
0.0000000000000000e+00 1.1000000000000000e+01
0.0000000000000000e+00 1.1002000000000001e+01
0.0000000000000000e+00 1.1000000000000000e+01
ITEM: ATOMS id type x y z 
10 1 4.60786 4.60835 4.59718 
11 1 3.08496 3.08465 3.08678 
12 1 3.79736 3.79729 3.79337 
46 1 0.72994 0.728446 0.728602 
47 1 2.26204 2.26088 2.26163 
48 1 1.55182 1.55177 1.55214 
19 1 4.53885 4.53688 6.23342 
20 1 3.00988 3.00967 7.76724 
21 1 3.71879 3.71808 7.05544 
31 1 0.664432 0.664377 10.1048 
32 1 2.18381 2.18489 8.59091 
33 1 1.47403 1.47171 9.30065 
16 1 4.50682 6.21195 4.53313 
17 1 3.00991 7.77207 3.00822 
18 1 3.70732 7.04847 3.71736 
25 1 0.671356 10.106 0.663693 
26 1 2.18591 8.59207 2.18552 
27 1 1.47466 9.30148 1.4725 
4 1 4.60599 6.16309 6.15721 
5 1 3.08863 7.68155 7.68221 
6 1 3.79741 6.9725 6.96975 
37 1 0.7405 10.0492 10.0488 
38 1 2.26103 8.50784 8.50684 
39 1 1.55755 9.21939 9.22037 
13 1 6.21289 4.50749 4.53475 
14 1 7.77158 3.00976 3.00808 
15 1 7.0487 3.70712 3.71786 
28 1 10.1045 0.669761 0.664115 
29 1 8.59122 2.18443 2.18603 
30 1 9.30156 1.47542 1.47157 
1 1 6.16135 4.60541 6.15606 
2 1 7.68081 3.08886 7.68158 
3 1 6.97143 3.7971 6.96913 
40 1 10.0479 0.739431 10.0489 
41 1 8.50633 2.26135 8.50634 
42 1 9.21957 1.55723 9.21982 
7 1 6.1776 6.17777 4.59672 
8 1 7.69105 7.69079 3.07722 
9 1 6.98065 6.98147 3.7902 
43 1 10.0485 10.0497 0.740751 
44 1 8.51008 8.51121 2.25712 
45 1 9.22485 9.2243 1.55233 
22 1 6.18578 6.19113 6.126 
23 1 7.83589 7.84365 7.7437 
24 1 7.05457 7.0451 7.18455 
34 1 10.1096 10.108 10.1099 
35 1 8.61894 8.62347 8.56916 
36 1 9.32335 9.32542 9.30587 
49 2 6.6594 6.56203 8.1025 
ITEM: TIMESTEP
40
ITEM: NUMBER OF ATOMS
49
ITEM: BOX BOUNDS pp pp pp
0.0000000000000000e+00 1.1000000000000000e+01
0.0000000000000000e+00 1.1002000000000001e+01
0.0000000000000000e+00 1.1000000000000000e+01
ITEM: ATOMS id type x y z 
10 1 4.60456 4.60481 4.59017 
11 1 3.08395 3.08158 3.08501 
12 1 3.79427 3.79834 3.78938 
46 1 0.730346 0.731805 0.731383 
47 1 2.26027 2.2623 2.26376 
48 1 1.55578 1.5495 1.55103 
19 1 4.53199 4.52906 6.23212 
20 1 3.00867 3.00864 7.76867 
21 1 3.71703 3.71552 7.05569 
31 1 0.669711 0.664917 10.1027 
32 1 2.19008 2.18304 8.59233 
33 1 1.46475 1.47761 9.29527 
16 1 4.50135 6.19896 4.51778 
17 1 3.00485 7.77509 3.00848 
18 1 3.69558 7.03783 3.70899 
25 1 0.673912 10.1066 0.663368 
26 1 2.18458 8.59483 2.18504 
27 1 1.47936 9.30618 1.46791 
4 1 4.60859 6.15736 6.15231 
5 1 3.08946 7.68094 7.67851 
6 1 3.80262 6.97122 6.97135 
37 1 0.745435 10.047 10.0501 
38 1 2.26222 8.50467 8.50926 
39 1 1.56357 9.22499 9.21678 
13 1 6.20203 4.50207 4.52053 
14 1 7.77557 3.00407 3.00802 
15 1 7.03757 3.69642 3.71048 
28 1 10.1088 0.67917 0.658969 
29 1 8.59833 2.19068 2.18226 
30 1 9.29738 1.46564 1.47268 
1 1 6.15465 4.60783 6.15059 
2 1 7.68028 3.08986 7.67782 
3 1 6.9695 3.80179 6.97002 
40 1 10.0493 0.745363 10.0485 
41 1 8.5077 2.2624 8.50695 
42 1 9.21803 1.56242 9.22096 
7 1 6.17277 6.1736 4.60262 
8 1 7.69019 7.69031 3.07773 
9 1 6.98124 6.98167 3.79074 
43 1 10.0534 10.0503 0.738781 
44 1 8.51468 8.51051 2.25416 
45 1 9.22303 9.23203 1.55663 
22 1 6.18193 6.18784 6.12016 
23 1 7.84361 7.85166 7.74737 
24 1 7.05046 7.03502 7.24128 
34 1 10.118 10.1187 10.1217 
35 1 8.63319 8.64004 8.54796 
36 1 9.33791 9.34126 9.29441 
49 2 6.64658 6.54658 8.14935 
ITEM: TIMESTEP
50
ITEM: NUMBER OF ATOMS
49
ITEM: BOX BOUNDS pp pp pp
0.0000000000000000e+00 1.1000000000000000e+01
0.0000000000000000e+00 1.1002000000000001e+01
0.0000000000000000e+00 1.1000000000000000e+01
ITEM: ATOMS id type x y z 
10 1 4.60523 4.60735 4.58753 
11 1 3.08039 3.08154 3.08287 
12 1 3.795 3.79369 3.78775 
46 1 0.732915 0.731594 0.729488 
47 1 2.26192 2.25993 2.2625 
48 1 1.55127 1.5512 1.55167 
19 1 4.53489 4.53233 6.23392 
20 1 3.00961 3.0082 7.76907 
21 1 3.71799 3.71601 7.05406 
31 1 0.665079 0.665269 10.1003 
32 1 2.18496 2.18606 8.59052 
33 1 1.47264 1.47294 9.29814 
16 1 4.49939 6.19872 4.51832 
17 1 3.00247 7.76963 3.00822 
18 1 3.69951 7.03852 3.71131 
25 1 0.675115 10.1078 0.660031 
26 1 2.1882 8.59627 2.18472 
27 1 1.47619 9.30415 1.47099 
4 1 4.61528 6.1568 6.15241 
5 1 3.0936 7.67791 7.67832 
6 1 3.80245 6.97001 6.96626 
37 1 0.748753 10.0531 10.0491 
38 1 2.26465 8.5064 8.50622 
39 1 1.56424 9.22017 9.21861 
13 1 6.20111 4.50051 4.52141 
14 1 7.76981 3.00366 3.00782 
15 1 7.03953 3.69995 3.71288 
28 1 10.1067 0.674305 0.658791 
29 1 8.59492 2.18606 2.18516 
30 1 9.30299 1.47544 1.47043 
1 1 6.15399 4.61349 6.14988 
2 1 7.6774 3.09411 7.67699 
3 1 6.96857 3.80169 6.96486 
40 1 10.051 0.748038 10.0502 
41 1 8.50511 2.26471 8.50628 
42 1 9.21898 1.56438 9.21801 
7 1 6.17405 6.17438 4.6038 
8 1 7.68918 7.68878 3.07889 
9 1 6.97993 6.97985 3.7928 
43 1 10.0523 10.0532 0.741038 
44 1 8.51286 8.51378 2.25628 
45 1 9.22616 9.22721 1.5542 
22 1 6.18014 6.18645 6.12921 
23 1 7.84095 7.84831 7.74437 
24 1 7.04425 7.02758 7.2482 
34 1 10.1168 10.1166 10.1186 
35 1 8.63951 8.64746 8.54385 
36 1 9.34057 9.34471 9.2912 
49 2 6.64046 6.53969 8.16047 
ITEM: TIMESTEP
60
ITEM: NUMBER OF ATOMS
49
ITEM: BOX BOUNDS pp pp pp
0.0000000000000000e+00 1.1000000000000000e+01
0.0000000000000000e+00 1.1002000000000001e+01
0.0000000000000000e+00 1.1000000000000000e+01
ITEM: ATOMS id type x y z 
10 1 4.60318 4.60443 4.58233 
11 1 3.08084 3.07846 3.08245 
12 1 3.79207 3.79681 3.78473 
46 1 0.731383 0.730128 0.729112 
47 1 2.25839 2.25805 2.26063 
48 1 1.55019 1.54764 1.54911 
19 1 4.53422 4.53121 6.23261 
20 1 3.01034 3.00889 7.76626 
21 1 3.71991 3.71868 7.05554 
31 1 0.665266 0.664438 10.0966 
32 1 2.18757 2.18621 8.58956 
33 1 1.47161 1.47541 9.2961 
16 1 4.5071 6.19672 4.51662 
17 1 3.00023 7.76565 3.00772 
18 1 3.69865 7.03659 3.7094 
25 1 0.671747 10.1064 0.661744 
26 1 2.18141 8.5952 2.18872 
27 1 1.48806 9.30905 1.46271 
4 1 4.61774 6.15509 6.15211 
5 1 3.09382 7.67749 7.67584 
6 1 3.80681 6.96932 6.96761 
37 1 0.750931 10.0535 10.0484 
38 1 2.2673 8.50638 8.50503 
39 1 1.56784 9.21904 9.21918 
13 1 6.20021 4.50848 4.51864 
14 1 7.76612 2.99981 3.00683 
15 1 7.03824 3.69925 3.71231 
28 1 10.1055 0.675941 0.658127 
29 1 8.59569 2.18546 2.18584 
30 1 9.30417 1.47834 1.46808 
1 1 6.15133 4.61678 6.15146 
2 1 7.67576 3.0957 7.67652 
3 1 6.96886 3.80331 6.96169 
40 1 10.0507 0.750964 10.0494 
41 1 8.50444 2.2674 8.5062 
42 1 9.21985 1.56776 9.21696 
7 1 6.17331 6.17324 4.61446 
8 1 7.68658 7.68591 3.08028 
9 1 6.98005 6.98141 3.79858 
43 1 10.0527 10.0533 0.738953 
44 1 8.51096 8.5122 2.25889 
45 1 9.2249 9.22446 1.55645 
22 1 6.1871 6.19383 6.12827 
23 1 7.84017 7.8467 7.74652 
24 1 7.03707 7.01701 7.27494 
34 1 10.1226 10.1217 10.1193 
35 1 8.64579 8.6542 8.52629 
36 1 9.34258 9.3508 9.27898 
49 2 6.62753 6.52525 8.18407 
ITEM: TIMESTEP
70
ITEM: NUMBER OF ATOMS
49
ITEM: BOX BOUNDS pp pp pp
0.0000000000000000e+00 1.1000000000000000e+01
0.0000000000000000e+00 1.1002000000000001e+01
0.0000000000000000e+00 1.1000000000000000e+01
ITEM: ATOMS id type x y z 
10 1 4.60384 4.60702 4.58171 
11 1 3.07855 3.07922 3.08137 
12 1 3.79397 3.79322 3.78375 
46 1 0.731353 0.729711 0.728532 
47 1 2.25938 2.25786 2.26094 
48 1 1.54921 1.54858 1.54985 
19 1 4.53578 4.53304 6.23266 
20 1 3.0106 3.00961 7.76755 
21 1 3.71972 3.71756 7.05344 
31 1 0.664475 0.664833 10.0949 
32 1 2.18642 2.18718 8.58905 
33 1 1.47392 1.47362 9.29631 
16 1 4.50407 6.19654 4.51622 
17 1 2.99924 7.76476 3.00804 
18 1 3.69922 7.03556 3.70974 
25 1 0.672752 10.107 0.659425 
26 1 2.1854 8.59609 2.18659 
27 1 1.48252 9.30636 1.46668 
4 1 4.62117 6.15546 6.15274 
5 1 3.09571 7.67739 7.67582 
6 1 3.80585 6.96834 6.96618 
37 1 0.751363 10.0535 10.0484 
38 1 2.26795 8.50576 8.50588 
39 1 1.56799 9.22021 9.21736 
13 1 6.20012 4.50551 4.51941 
14 1 7.76507 2.99987 3.00845 
15 1 7.03678 3.70022 3.7109 
28 1 10.1054 0.674794 0.657264 
29 1 8.59551 2.18656 2.18546 
30 1 9.30327 1.47704 1.46942 
1 1 6.15215 4.61858 6.1493 
2 1 7.67627 3.096 7.67418 
3 1 6.96655 3.80496 6.96418 
40 1 10.0516 0.751507 10.0488 
41 1 8.5046 2.26852 8.50527 
42 1 9.21843 1.56854 9.2174 
7 1 6.17531 6.17507 4.6138 
8 1 7.68749 7.68765 3.08054 
9 1 6.98055 6.98055 3.79752 
43 1 10.0526 10.053 0.738718 
44 1 8.51277 8.51364 2.25767 
45 1 9.2257 9.22571 1.55449 
22 1 6.18554 6.19232 6.13555 
23 1 7.83962 7.84591 7.74643 
24 1 7.03418 7.01324 7.28082 
34 1 10.1212 10.1208 10.1177 
35 1 8.64812 8.65793 8.52328 
36 1 9.3455 9.35223 9.2788 
49 2 6.62415 6.52151 8.18961 
ITEM: TIMESTEP
80
ITEM: NUMBER OF ATOMS
49
ITEM: BOX BOUNDS pp pp pp
0.0000000000000000e+00 1.1000000000000000e+01
0.0000000000000000e+00 1.1002000000000001e+01
0.0000000000000000e+00 1.1000000000000000e+01
ITEM: ATOMS id type x y z 
10 1 4.60446 4.60716 4.58096 
11 1 3.07899 3.07854 3.08119 
12 1 3.79295 3.79421 3.78326 
46 1 0.730847 0.729725 0.728547 
47 1 2.25882 2.2577 2.26095 
48 1 1.54945 1.54816 1.54952 
19 1 4.53574 4.53295 6.23216 
20 1 3.01084 3.00979 7.76727 
21 1 3.72008 3.71808 7.05335 
31 1 0.664613 0.664815 10.0944 
32 1 2.18708 2.18737 8.58937 
33 1 1.47318 1.47358 9.29498 
16 1 4.50448 6.19614 4.51591 
17 1 2.99906 7.7642 3.00812 
18 1 3.69918 7.03489 3.70967 
25 1 0.673771 10.1071 0.658574 
26 1 2.18723 8.59659 2.18541 
27 1 1.47913 9.30502 1.46876 
4 1 4.62205 6.15538 6.15284 
5 1 3.0959 7.67719 7.67565 
6 1 3.80664 6.9685 6.96623 
37 1 0.751633 10.0537 10.0478 
38 1 2.26847 8.50576 8.50564 
39 1 1.56844 9.22006 9.21724 
13 1 6.19979 4.50593 4.51899 
14 1 7.76455 2.99964 3.00829 
15 1 7.03653 3.70022 3.71095 
28 1 10.105 0.674013 0.657148 
29 1 8.5954 2.18635 2.18564 
30 1 9.30305 1.47728 1.46912 
1 1 6.15208 4.61942 6.14945 
2 1 7.6761 3.09631 7.67398 
3 1 6.96643 3.8055 6.96411 
40 1 10.0519 0.751853 10.0487 
41 1 8.50463 2.26896 8.50511 
42 1 9.21843 1.56901 9.2173 
7 1 6.17592 6.17579 4.61499 
8 1 7.68757 7.6878 3.08069 
9 1 6.98094 6.98086 3.79814 
43 1 10.0527 10.0531 0.737897 
44 1 8.51314 8.51377 2.25741 
45 1 9.22581 9.22614 1.55415 
22 1 6.18573 6.19263 6.13646 
23 1 7.83928 7.84544 7.74679 
24 1 7.03244 7.01081 7.28581 
34 1 10.1208 10.1213 10.117 
35 1 8.64927 8.66014 8.52055 
36 1 9.34705 9.35253 9.27749 
49 2 6.62153 6.51861 8.19395 
ITEM: TIMESTEP
90
ITEM: NUMBER OF ATOMS
49
ITEM: BOX BOUNDS pp pp pp
0.0000000000000000e+00 1.1000000000000000e+01
0.0000000000000000e+00 1.1002000000000001e+01
0.0000000000000000e+00 1.1000000000000000e+01
ITEM: ATOMS id type x y z 
10 1 4.60624 4.61057 4.57419 
11 1 3.07806 3.07752 3.0787 
12 1 3.79161 3.79305 3.78079 
46 1 0.728709 0.727377 0.727204 
47 1 2.25642 2.25525 2.25953 
48 1 1.54707 1.54594 1.54812 
19 1 4.53676 4.53372 6.22955 
20 1 3.013 3.01183 7.76608 
21 1 3.72189 3.71994 7.05163 
31 1 0.663386 0.664175 10.089 
32 1 2.18864 2.18855 8.58752 
33 1 1.47423 1.47464 9.29211 
16 1 4.5078 6.19445 4.51331 
17 1 2.99903 7.76029 3.00624 
18 1 3.6989 7.0322 3.70933 
25 1 0.6749 10.1066 0.656257 
26 1 2.1896 8.59577 2.18328 
27 1 1.47074 9.30176 1.47459 
4 1 4.62847 6.15483 6.15416 
5 1 3.09864 7.6765 7.67444 
6 1 3.81117 6.9681 6.96658 
37 1 0.754126 10.0551 10.0453 
38 1 2.27176 8.50562 8.5048 
39 1 1.57138 9.22058 9.21551 
13 1 6.1994 4.5102 4.5172 
14 1 7.76115 2.9986 3.0084 
15 1 7.03295 3.70015 3.70968 
28 1 10.1031 0.671763 0.656572 
29 1 8.59433 2.18587 2.18537 
30 1 9.30145 1.47624 1.46937 
1 1 6.15082 4.62501 6.14966 
2 1 7.67506 3.09893 7.67265 
3 1 6.96576 3.80921 6.96369 
40 1 10.0534 0.754907 10.0466 
41 1 8.50453 2.27228 8.50407 
42 1 9.21867 1.57277 9.2158 
7 1 6.18101 6.18021 4.62393 
8 1 7.68891 7.6893 3.08175 
9 1 6.9843 6.98393 3.80277 
43 1 10.0521 10.0532 0.73242 
44 1 8.51447 8.51479 2.25664 
45 1 9.22589 9.22653 1.5517 
22 1 6.18887 6.19626 6.14415 
23 1 7.83575 7.84069 7.75015 
24 1 7.02019 6.99347 7.32415 
34 1 10.1221 10.1235 10.112 
35 1 8.65867 8.6715 8.49968 
36 1 9.35235 9.36005 9.26427 
49 2 6.60127 6.49621 8.22707 
ITEM: TIMESTEP
100
ITEM: NUMBER OF ATOMS
49
ITEM: BOX BOUNDS pp pp pp
0.0000000000000000e+00 1.1000000000000000e+01
0.0000000000000000e+00 1.1002000000000001e+01
0.0000000000000000e+00 1.1000000000000000e+01
ITEM: ATOMS id type x y z 
10 1 4.60635 4.61075 4.57331 
11 1 3.07746 3.07689 3.0792 
12 1 3.79225 3.79396 3.77851 
46 1 0.728337 0.726661 0.727169 
47 1 2.25608 2.255 2.25933 
48 1 1.54688 1.54539 1.548 
19 1 4.53702 4.53401 6.22932 
20 1 3.01329 3.01207 7.76605 
21 1 3.72216 3.7201 7.05125 
31 1 0.663501 0.664009 10.0881 
32 1 2.18898 2.189 8.58748 
33 1 1.4741 1.47434 9.29111 
16 1 4.50833 6.19469 4.51383 
17 1 2.99868 7.75972 3.00664 
18 1 3.70065 7.03181 3.70787 
25 1 0.672321 10.106 0.657807 
26 1 2.18536 8.59451 2.18592 
27 1 1.4767 9.30274 1.46986 
4 1 4.62949 6.15495 6.15409 
5 1 3.09925 7.67658 7.67451 
6 1 3.81163 6.96819 6.96682 
37 1 0.754064 10.0556 10.0454 
38 1 2.27203 8.50608 8.50487 
39 1 1.57147 9.22077 9.21542 
13 1 6.19906 4.51105 4.51684 
14 1 7.75975 2.99818 3.00816 
15 1 7.03393 3.7013 3.71002 
28 1 10.1029 0.672094 0.656606 
29 1 8.59375 2.18543 2.18573 
30 1 9.30112 1.47646 1.46898 
1 1 6.15093 4.6257 6.14942 
2 1 7.67498 3.09952 7.67252 
3 1 6.9657 3.80971 6.96365 
40 1 10.0537 0.755185 10.0462 
41 1 8.50465 2.27299 8.50417 
42 1 9.21894 1.57276 9.21529 
7 1 6.18198 6.18088 4.62573 
8 1 7.68923 7.68952 3.08253 
9 1 6.9847 6.98438 3.80367 
43 1 10.0515 10.0527 0.73163 
44 1 8.5144 8.51474 2.25668 
45 1 9.22552 9.22623 1.55122 
22 1 6.18992 6.1974 6.14558 
23 1 7.83461 7.83921 7.75138 
24 1 7.01806 6.99055 7.33033 
34 1 10.1232 10.1246 10.1097 
35 1 8.65916 8.67252 8.49644 
36 1 9.35319 9.36079 9.26104 
49 2 6.59771 6.49229 8.23258 
ITEM: TIMESTEP
110
ITEM: NUMBER OF ATOMS
49
ITEM: BOX BOUNDS pp pp pp
0.0000000000000000e+00 1.1000000000000000e+01
0.0000000000000000e+00 1.1002000000000001e+01
0.0000000000000000e+00 1.1000000000000000e+01
ITEM: ATOMS id type x y z 
10 1 4.60637 4.61084 4.57303 
11 1 3.07735 3.07673 3.0793 
12 1 3.79243 3.79429 3.77781 
46 1 0.728134 0.726447 0.727207 
47 1 2.25597 2.25482 2.25929 
48 1 1.54672 1.54529 1.54799 
19 1 4.53712 4.5341 6.22925 
20 1 3.01347 3.01228 7.76601 
21 1 3.72223 3.72009 7.05109 
31 1 0.663713 0.664134 10.088 
32 1 2.18917 2.18908 8.58751 
33 1 1.47392 1.47431 9.29067 
16 1 4.5086 6.19477 4.51386 
17 1 2.99856 7.75951 3.0068 
18 1 3.70091 7.03164 3.70755 
25 1 0.67219 10.106 0.657921 
26 1 2.18529 8.59442 2.18581 
27 1 1.47648 9.30263 1.46987 
4 1 4.62979 6.15501 6.15411 
5 1 3.09938 7.6766 7.6745 
6 1 3.8119 6.96824 6.96693 
37 1 0.753963 10.0556 10.0452 
38 1 2.27212 8.50606 8.50474 
39 1 1.5718 9.22086 9.2154 
13 1 6.1991 4.51124 4.51688 
14 1 7.75957 2.99796 3.00819 
15 1 7.03393 3.70179 3.70984 
28 1 10.103 0.671935 0.656548 
29 1 8.59361 2.18542 2.18565 
30 1 9.3009 1.47617 1.46915 
1 1 6.15092 4.62597 6.14938 
2 1 7.67495 3.09967 7.67245 
3 1 6.96568 3.80997 6.96369 
40 1 10.0537 0.755184 10.0461 
41 1 8.50461 2.27312 8.50408 
42 1 9.21905 1.57307 9.21518 
7 1 6.18232 6.18111 4.6263 
8 1 7.68935 7.68956 3.08269 
9 1 6.98487 6.98467 3.80411 
43 1 10.0515 10.0527 0.73125 
44 1 8.5145 8.51484 2.25652 
45 1 9.2256 9.22635 1.55094 
22 1 6.19015 6.19759 6.14605 
23 1 7.83421 7.83873 7.75177 
24 1 7.01725 6.98947 7.33228 
34 1 10.1233 10.1247 10.1092 
35 1 8.6595 8.67289 8.49545 
36 1 9.35336 9.36113 9.26021 
49 2 6.59657 6.49103 8.23433 
ITEM: TIMESTEP
120
ITEM: NUMBER OF ATOMS
49
ITEM: BOX BOUNDS pp pp pp
0.0000000000000000e+00 1.1000000000000000e+01
0.0000000000000000e+00 1.1002000000000001e+01
0.0000000000000000e+00 1.1000000000000000e+01
ITEM: ATOMS id type x y z 
10 1 4.61479 4.62448 4.55011 
11 1 3.07766 3.07661 3.07091 
12 1 3.79247 3.79652 3.76615 
46 1 0.719735 0.71763 0.727373 
47 1 2.2513 2.24768 2.25685 
48 1 1.53666 1.53954 1.55066 
19 1 4.54207 4.53927 6.21922 
20 1 3.02147 3.01881 7.76109 
21 1 3.72817 3.72933 7.04798 
31 1 0.666142 0.66406 10.0753 
32 1 2.19526 2.19224 8.57979 
33 1 1.47638 1.47803 9.2799 
16 1 4.52595 6.19725 4.5103 
17 1 2.99589 7.74971 3.00525 
18 1 3.70319 7.02337 3.70277 
25 1 0.664368 10.1027 0.659048 
26 1 2.18079 8.58591 2.18354 
27 1 1.47219 9.29745 1.47121 
4 1 4.64744 6.15519 6.15846 
5 1 3.10994 7.67709 7.6752 
6 1 3.82362 6.97029 6.96835 
37 1 0.75264 10.0593 10.0351 
38 1 2.28093 8.50967 8.50381 
39 1 1.57593 9.22242 9.20869 
13 1 6.20276 4.52893 4.51268 
14 1 7.75213 2.99818 3.00715 
15 1 7.02804 3.70696 3.7059 
28 1 10.1003 0.66391 0.657235 
29 1 8.58507 2.17808 2.18498 
30 1 9.2936 1.47076 1.46854 
1 1 6.14806 4.64029 6.15071 
2 1 7.67462 3.10892 7.67049 
3 1 6.96581 3.81956 6.96238 
40 1 10.0575 0.756672 10.037 
41 1 8.50727 2.28264 8.50022 
42 1 9.21901 1.58192 9.21365 
7 1 6.2023 6.19667 4.658 
8 1 7.69892 7.69705 3.0919 
9 1 6.99773 6.99825 3.82211 
43 1 10.0488 10.0526 0.712244 
44 1 8.51772 8.51864 2.25242 
45 1 9.22348 9.22562 1.53592 
22 1 6.20011 6.21002 6.17629 
23 1 7.81097 7.81038 7.77811 
24 1 6.97764 6.93591 7.43824 
34 1 10.1314 10.1354 10.0735 
35 1 8.67232 8.6894 8.44349 
36 1 9.36377 9.37551 9.20872 
49 2 6.53469 6.42313 8.3291 
ITEM: TIMESTEP
130
ITEM: NUMBER OF ATOMS
49
ITEM: BOX BOUNDS pp pp pp
0.0000000000000000e+00 1.1000000000000000e+01
0.0000000000000000e+00 1.1002000000000001e+01
0.0000000000000000e+00 1.1000000000000000e+01
ITEM: ATOMS id type x y z 
10 1 4.61524 4.62454 4.55043 
11 1 3.07724 3.07631 3.07233 
12 1 3.79432 3.79811 3.76315 
46 1 0.719136 0.717431 0.727563 
47 1 2.25017 2.24807 2.25779 
48 1 1.53857 1.53897 1.54936 
19 1 4.54198 4.53932 6.22019 
20 1 3.02145 3.01967 7.76194 
21 1 3.72851 3.72802 7.04603 
31 1 0.665501 0.664885 10.0754 
32 1 2.19427 2.19256 8.5796 
33 1 1.47779 1.47686 9.28072 
16 1 4.52568 6.19733 4.50941 
17 1 2.99586 7.7483 3.00509 
18 1 3.7049 7.02485 3.70331 
25 1 0.663315 10.1031 0.659808 
26 1 2.18048 8.5867 2.18341 
27 1 1.47046 9.29628 1.47055 
4 1 4.64686 6.15592 6.15818 
5 1 3.10971 7.67764 7.67499 
6 1 3.82447 6.97019 6.96948 
37 1 0.752084 10.0595 10.0346 
38 1 2.28112 8.50894 8.50316 
39 1 1.57619 9.22352 9.20892 
13 1 6.20245 4.52951 4.51288 
14 1 7.75072 2.99786 3.0071 
15 1 7.02981 3.70843 3.70617 
28 1 10.0996 0.663063 0.657268 
29 1 8.58476 2.17853 2.18435 
30 1 9.29345 1.46943 1.46988 
1 1 6.1486 4.63992 6.15002 
2 1 7.67487 3.10889 7.66985 
3 1 6.96552 3.82041 6.96322 
40 1 10.0574 0.756837 10.0369 
41 1 8.50692 2.2832 8.50141 
42 1 9.22003 1.58113 9.21152 
7 1 6.20268 6.19759 4.65844 
8 1 7.6982 7.69777 3.09236 
9 1 6.99965 6.99759 3.82365 
43 1 10.0486 10.0518 0.710851 
44 1 8.51806 8.51894 2.25067 
45 1 9.22444 9.22658 1.53706 
22 1 6.20094 6.2096 6.17572 
23 1 7.81028 7.80908 7.78074 
24 1 6.97667 6.93504 7.43933 
34 1 10.131 10.1353 10.0713 
35 1 8.6715 8.68846 8.44373 
36 1 9.36347 9.37549 9.20827 
49 2 6.53411 6.42249 8.32992 
ITEM: TIMESTEP
140
ITEM: NUMBER OF ATOMS
49
ITEM: BOX BOUNDS pp pp pp
0.0000000000000000e+00 1.1000000000000000e+01
0.0000000000000000e+00 1.1002000000000001e+01
0.0000000000000000e+00 1.1000000000000000e+01
ITEM: ATOMS id type x y z 
10 1 4.61597 4.62529 4.5498 
11 1 3.0774 3.0765 3.07258 
12 1 3.79507 3.79929 3.76165 
46 1 0.718966 0.717145 0.727438 
47 1 2.24937 2.24816 2.25848 
48 1 1.53983 1.5384 1.54862 
19 1 4.5421 4.53992 6.22043 
20 1 3.02145 3.02018 7.76204 
21 1 3.7288 3.7271 7.04492 
31 1 0.665504 0.665129 10.0761 
32 1 2.19425 2.19272 8.57979 
33 1 1.47797 1.47678 9.28077 
16 1 4.5258 6.19733 4.50941 
17 1 2.9957 7.74743 3.0045 
18 1 3.70647 7.02674 3.70368 
25 1 0.661893 10.1031 0.660093 
26 1 2.17957 8.58613 2.1831 
27 1 1.46965 9.29615 1.47064 
4 1 4.64656 6.15593 6.15812 
5 1 3.1101 7.67794 7.67524 
6 1 3.82475 6.97037 6.9697 
37 1 0.751687 10.06 10.0338 
38 1 2.2811 8.50911 8.50302 
39 1 1.57623 9.22407 9.20868 
13 1 6.20287 4.53019 4.51274 
14 1 7.74994 2.9977 3.0066 
15 1 7.03122 3.70952 3.70664 
28 1 10.099 0.661969 0.657719 
29 1 8.58428 2.17819 2.18424 
30 1 9.29309 1.46885 1.47009 
1 1 6.14851 4.63953 6.14994 
2 1 7.67508 3.10919 7.66999 
3 1 6.9656 3.82074 6.96349 
40 1 10.0574 0.756886 10.0365 
41 1 8.50667 2.28379 8.5023 
42 1 9.22125 1.58017 9.20923 
7 1 6.20368 6.19857 4.65921 
8 1 7.69879 7.69856 3.09289 
9 1 7.00078 6.99804 3.82443 
43 1 10.0484 10.0512 0.709635 
44 1 8.51781 8.51897 2.24996 
45 1 9.2252 9.22702 1.53781 
22 1 6.20137 6.20966 6.17602 
23 1 7.80897 7.8071 7.7839 
24 1 6.97519 6.93357 7.44098 
34 1 10.1311 10.1357 10.0682 
35 1 8.67039 8.68722 8.4443 
36 1 9.36313 9.37531 9.20743 
49 2 6.53311 6.42143 8.3313 
ITEM: TIMESTEP
150
ITEM: NUMBER OF ATOMS
49
ITEM: BOX BOUNDS pp pp pp
0.0000000000000000e+00 1.1000000000000000e+01
0.0000000000000000e+00 1.1002000000000001e+01
0.0000000000000000e+00 1.1000000000000000e+01
ITEM: ATOMS id type x y z 
10 1 4.61627 4.62572 4.54932 
11 1 3.07746 3.07677 3.07244 
12 1 3.79529 3.7994 3.76147 
46 1 0.719049 0.717023 0.727274 
47 1 2.24931 2.2481 2.25852 
48 1 1.53987 1.53827 1.54869 
19 1 4.54219 4.53998 6.22035 
20 1 3.0215 3.02014 7.76185 
21 1 3.72884 3.72715 7.04486 
31 1 0.665597 0.665194 10.0763 
32 1 2.1943 2.19271 8.57978 
33 1 1.478 1.47699 9.28094 
16 1 4.52596 6.19754 4.50949 
17 1 2.99575 7.74734 3.00431 
18 1 3.70682 7.02718 3.70368 
25 1 0.66149 10.1032 0.66029 
26 1 2.1793 8.586 2.18302 
27 1 1.46915 9.2958 1.4706 
4 1 4.64651 6.15594 6.15808 
5 1 3.11029 7.6781 7.6753 
6 1 3.8248 6.97033 6.96981 
37 1 0.751608 10.0602 10.0335 
38 1 2.2812 8.50923 8.50304 
39 1 1.57609 9.22419 9.20842 
13 1 6.20326 4.53048 4.51286 
14 1 7.74993 2.99771 3.00664 
15 1 7.03132 3.70983 3.70639 
28 1 10.0988 0.661602 0.657881 
29 1 8.58413 2.17803 2.18419 
30 1 9.29286 1.46854 1.4701 
1 1 6.14847 4.63945 6.14994 
2 1 7.67519 3.10942 7.67014 
3 1 6.96555 3.82069 6.96352 
40 1 10.0575 0.756725 10.0361 
41 1 8.50679 2.28384 8.50219 
42 1 9.22138 1.58012 9.20906 
7 1 6.20418 6.19886 4.65956 
8 1 7.69913 7.69878 3.09311 
9 1 7.001 6.99839 3.82467 
43 1 10.0484 10.051 0.709367 
44 1 8.51784 8.519 2.24992 
45 1 9.22527 9.22712 1.5378 
22 1 6.20147 6.20971 6.17619 
23 1 7.80837 7.80628 7.78499 
24 1 6.97459 6.93294 7.44164 
34 1 10.1312 10.136 10.067 
35 1 8.66999 8.68675 8.44459 
36 1 9.363 9.37523 9.20704 
49 2 6.53266 6.42095 8.33192 
ITEM: TIMESTEP
160
ITEM: NUMBER OF ATOMS
49
ITEM: BOX BOUNDS pp pp pp
0.0000000000000000e+00 1.1000000000000000e+01
0.0000000000000000e+00 1.1002000000000001e+01
0.0000000000000000e+00 1.1000000000000000e+01
ITEM: ATOMS id type x y z 
10 1 4.62013 4.62986 4.5445 
11 1 3.07863 3.07907 3.07119 
12 1 3.7972 3.80204 3.75898 
46 1 0.71993 0.715488 0.725781 
47 1 2.24927 2.24698 2.25897 
48 1 1.53945 1.53808 1.54956 
19 1 4.54335 4.54065 6.2189 
20 1 3.02196 3.01959 7.75994 
21 1 3.72947 3.72819 7.04393 
31 1 0.666765 0.666802 10.079 
32 1 2.19468 2.19341 8.57969 
33 1 1.47924 1.47813 9.28215 
16 1 4.52889 6.20061 4.51005 
17 1 2.99808 7.74778 3.00256 
18 1 3.70707 7.02939 3.70332 
25 1 0.656267 10.1021 0.661491 
26 1 2.17532 8.5823 2.18104 
27 1 1.46584 9.29619 1.47234 
4 1 4.64476 6.15475 6.15769 
5 1 3.11112 7.6787 7.67578 
6 1 3.82757 6.972 6.97133 
37 1 0.749826 10.0612 10.0294 
38 1 2.28173 8.51021 8.50243 
39 1 1.57607 9.22601 9.20683 
13 1 6.20641 4.53418 4.51322 
14 1 7.75031 2.99818 3.00548 
15 1 7.03211 3.7121 3.70587 
28 1 10.0972 0.656975 0.659439 
29 1 8.58233 2.17579 2.1838 
30 1 9.29096 1.46569 1.46983 
1 1 6.14743 4.63806 6.14986 
2 1 7.67597 3.11137 7.67151 
3 1 6.96557 3.82102 6.964 
40 1 10.0586 0.754863 10.0318 
41 1 8.50842 2.28459 8.50035 
42 1 9.222 1.57958 9.2081 
7 1 6.20888 6.20255 4.66286 
8 1 7.70172 7.70198 3.09534 
9 1 7.00538 7.00073 3.82772 
43 1 10.0485 10.0506 0.707105 
44 1 8.51861 8.51989 2.24961 
45 1 9.22579 9.22772 1.53719 
22 1 6.20248 6.2105 6.17864 
23 1 7.80189 7.7977 7.79649 
24 1 6.96766 6.92549 7.44895 
34 1 10.1333 10.1395 10.0542 
35 1 8.66533 8.68125 8.44759 
36 1 9.3621 9.37477 9.20301 
49 2 6.52744 6.41542 8.33917 
ITEM: TIMESTEP
170
ITEM: NUMBER OF ATOMS
49
ITEM: BOX BOUNDS pp pp pp
0.0000000000000000e+00 1.1000000000000000e+01
0.0000000000000000e+00 1.1002000000000001e+01
0.0000000000000000e+00 1.1000000000000000e+01
ITEM: ATOMS id type x y z 
10 1 4.62547 4.63706 4.53727 
11 1 3.0803 3.0819 3.06976 
12 1 3.80039 3.80652 3.75368 
46 1 0.719448 0.71487 0.724541 
47 1 2.24872 2.24668 2.26081 
48 1 1.54122 1.53736 1.54958 
19 1 4.54421 4.5421 6.21729 
20 1 3.02264 3.02051 7.75792 
21 1 3.73056 3.72722 7.04106 
31 1 0.670844 0.669499 10.0833 
32 1 2.19573 2.19423 8.5791 
33 1 1.48127 1.48078 9.28418 
16 1 4.53114 6.20372 4.51122 
17 1 2.9984 7.7481 3.00069 
18 1 3.71128 7.03164 3.70147 
25 1 0.65041 10.1022 0.664165 
26 1 2.17114 8.58002 2.18049 
27 1 1.45999 9.29184 1.47134 
4 1 4.645 6.15459 6.15758 
5 1 3.11482 7.68099 7.6776 
6 1 3.82733 6.97197 6.97143 
37 1 0.747545 10.0624 10.024 
38 1 2.28334 8.51272 8.50156 
39 1 1.57424 9.22693 9.20389 
13 1 6.20967 4.53879 4.51208 
14 1 7.75006 2.9994 3.00382 
15 1 7.03513 3.7138 3.70462 
28 1 10.095 0.650798 0.66073 
29 1 8.57988 2.1724 2.18222 
30 1 9.28871 1.46068 1.47045 
1 1 6.14598 4.63661 6.15011 
2 1 7.67718 3.11395 7.67257 
3 1 6.96506 3.82181 6.96475 
40 1 10.0576 0.752665 10.0282 
41 1 8.50976 2.28614 8.49935 
42 1 9.22444 1.57911 9.2036 
7 1 6.2165 6.20677 4.66821 
8 1 7.70709 7.70503 3.09889 
9 1 7.00879 7.00662 3.83276 
43 1 10.0484 10.0515 0.705888 
44 1 8.51998 8.52146 2.24999 
45 1 9.22636 9.22856 1.53573 
22 1 6.20313 6.2113 6.18284 
23 1 7.79175 7.78525 7.81154 