 # C1
  
          40  atoms
           1  atom types
 
      0.000000000000       9.605800000000  xlo xhi
      0.000000000000       9.605800000000  ylo yhi
      0.000000000000       9.605800000000  zlo zhi
 
Masses
 
            1   12.01100000             # C
 
Atoms # charge
 
         1    1   0.000000        1.200725000000       1.200725000000       1.200725000000
         2    1   0.000000        0.348306308000       0.348306308000       0.348306308000
         3    1   0.000000        2.053143692000       2.053143692000       0.348306308000
         4    1   0.000000        0.348306308000       2.053143692000       2.053143692000
         5    1   0.000000        2.053143692000       0.348306308000       2.053143692000
         6    1   0.000000        8.405075000000       8.405075000000       8.405075000000
         7    1   0.000000        9.257493692000       9.257493692000       9.257493692000
         8    1   0.000000        7.552656308000       7.552656308000       9.257493692000
         9    1   0.000000        7.552656308000       9.257493692000       7.552656308000
        10    1   0.000000        9.257493692000       7.552656308000       7.552656308000
        11    1   0.000000        3.602175000000       3.602175000000       8.405075000000
        12    1   0.000000        2.749756308000       2.749756308000       9.257493692000
        13    1   0.000000        4.454593692000       4.454593692000       9.257493692000
        14    1   0.000000        4.454593692000       2.749756308000       7.552656308000
        15    1   0.000000        2.749756308000       4.454593692000       7.552656308000
        16    1   0.000000        3.602175000000       8.405075000000       3.602175000000
        17    1   0.000000        2.749756308000       9.257493692000       2.749756308000
        18    1   0.000000        4.454593692000       7.552656308000       2.749756308000
        19    1   0.000000        4.454593692000       9.257493692000       4.454593692000
        20    1   0.000000        2.749756308000       7.552656308000       4.454593692000
        21    1   0.000000        6.003625000000       6.003625000000       1.200725000000
        22    1   0.000000        5.151206308000       6.856043692000       2.053143692000
        23    1   0.000000        6.856043692000       5.151206308000       2.053143692000
        24    1   0.000000        5.151206308000       5.151206308000       0.348306308000
        25    1   0.000000        6.856043692000       6.856043692000       0.348306308000
        26    1   0.000000        8.405075000000       3.602175000000       3.602175000000
        27    1   0.000000        9.257493692000       2.749756308000       2.749756308000
        28    1   0.000000        7.552656308000       4.454593692000       2.749756308000
        29    1   0.000000        7.552656308000       2.749756308000       4.454593692000
        30    1   0.000000        9.257493692000       4.454593692000       4.454593692000
        31    1   0.000000        1.200725000000       6.003625000000       6.003625000000
        32    1   0.000000        0.348306308000       5.151206308000       5.151206308000
        33    1   0.000000        2.053143692000       6.856043692000       5.151206308000
        34    1   0.000000        0.348306308000       6.856043692000       6.856043692000
        35    1   0.000000        2.053143692000       5.151206308000       6.856043692000
        36    1   0.000000        6.003625000000       1.200725000000       6.003625000000
        37    1   0.000000        6.856043692000       0.348306308000       6.856043692000
        38    1   0.000000        5.151206308000       0.348306308000       5.151206308000
        39    1   0.000000        5.151206308000       2.053143692000       6.856043692000
        40    1   0.000000        6.856043692000       2.053143692000       5.151206308000
