ITEM: TIMESTEP
0
ITEM: NUMBER OF ATOMS
40
ITEM: BOX BOUNDS pp pp pp
0.0000000000000000e+00 9.6058000000000003e+00
0.0000000000000000e+00 9.6058000000000003e+00
0.0000000000000000e+00 9.6058000000000003e+00
ITEM: ATOMS id type x y z 
1 1 1.20073 1.20073 1.20073 
2 1 0.348306 0.348306 0.348306 
3 1 2.05314 2.05314 0.348306 
4 1 0.348306 2.05314 2.05314 
5 1 2.05314 0.348306 2.05314 
11 1 3.60217 3.60217 8.40508 
12 1 2.74976 2.74976 9.25749 
13 1 4.45459 4.45459 9.25749 
14 1 4.45459 2.74976 7.55266 
15 1 2.74976 4.45459 7.55266 
16 1 3.60217 8.40508 3.60217 
17 1 2.74976 9.25749 2.74976 
18 1 4.45459 7.55266 2.74976 
19 1 4.45459 9.25749 4.45459 
20 1 2.74976 7.55266 4.45459 
31 1 1.20073 6.00363 6.00363 
32 1 0.348306 5.15121 5.15121 
33 1 2.05314 6.85604 5.15121 
34 1 0.348306 6.85604 6.85604 
35 1 2.05314 5.15121 6.85604 
26 1 8.40508 3.60217 3.60217 
27 1 9.25749 2.74976 2.74976 
28 1 7.55266 4.45459 2.74976 
29 1 7.55266 2.74976 4.45459 
30 1 9.25749 4.45459 4.45459 
36 1 6.00363 1.20073 6.00363 
37 1 6.85604 0.348306 6.85604 
38 1 5.15121 0.348306 5.15121 
39 1 5.15121 2.05314 6.85604 
40 1 6.85604 2.05314 5.15121 
21 1 6.00363 6.00363 1.20073 
22 1 5.15121 6.85604 2.05314 
23 1 6.85604 5.15121 2.05314 
24 1 5.15121 5.15121 0.348306 
25 1 6.85604 6.85604 0.348306 
6 1 8.40508 8.40508 8.40508 
7 1 9.25749 9.25749 9.25749 
8 1 7.55266 7.55266 9.25749 
9 1 7.55266 9.25749 7.55266 
10 1 9.25749 7.55266 7.55266 
ITEM: TIMESTEP
10
ITEM: NUMBER OF ATOMS
40
ITEM: BOX BOUNDS pp pp pp
0.0000000000000000e+00 9.6058000000000003e+00
0.0000000000000000e+00 9.6058000000000003e+00
0.0000000000000000e+00 9.6058000000000003e+00
ITEM: ATOMS id type x y z 
1 1 1.20072 1.20072 1.20087 
2 1 0.342318 0.342318 0.340716 
3 1 2.05923 2.05923 0.340884 
4 1 0.340826 2.05916 2.05926 
5 1 2.05916 0.340826 2.05926 
11 1 3.60216 3.60216 8.40492 
12 1 2.74368 2.74368 9.26498 
13 1 4.46057 4.46057 9.26507 
14 1 4.46208 2.74379 7.54653 
15 1 2.74379 4.46208 7.54653 
16 1 3.60214 8.40502 3.60212 
17 1 2.74364 9.26495 2.74374 
18 1 4.46209 7.54655 2.74379 
19 1 4.46064 9.26506 4.46051 
20 1 2.74375 7.54649 4.46213 
31 1 1.20084 6.00359 6.00374 
32 1 0.340668 5.14536 5.1452 
33 1 2.05924 6.86197 5.14369 
34 1 0.340904 6.86218 6.8621 
35 1 2.05928 5.14365 6.86202 
26 1 8.40502 3.60214 3.60212 
27 1 9.26495 2.74364 2.74374 
28 1 7.54655 4.46209 2.74379 
29 1 7.54649 2.74375 4.46213 
30 1 9.26506 4.46064 4.46051 
36 1 6.00359 1.20084 6.00374 
37 1 6.86218 0.340904 6.8621 
38 1 5.14536 0.340668 5.1452 
39 1 5.14365 2.05928 6.86202 
40 1 6.86197 2.05924 5.14369 
21 1 6.00364 6.00364 1.20086 
22 1 5.14367 6.86203 2.05929 
23 1 6.86203 5.14367 2.05929 
24 1 5.14526 5.14526 0.340683 
25 1 6.86214 6.86214 0.340846 
6 1 8.40507 8.40507 8.40489 
7 1 9.26344 9.26344 9.2651 
8 1 7.54657 7.54657 9.2649 
9 1 7.54664 9.265 7.54654 
10 1 9.265 7.54664 7.54654 
ITEM: TIMESTEP
11
ITEM: NUMBER OF ATOMS
40
ITEM: BOX BOUNDS pp pp pp
0.0000000000000000e+00 9.6058000000000003e+00
0.0000000000000000e+00 9.6058000000000003e+00
0.0000000000000000e+00 9.6058000000000003e+00
ITEM: ATOMS id type x y z 
1 1 1.20072 1.20072 1.20087 
2 1 0.342318 0.342318 0.340716 
3 1 2.05923 2.05923 0.340884 
4 1 0.340826 2.05916 2.05926 
5 1 2.05916 0.340826 2.05926 
11 1 3.60216 3.60216 8.40492 
12 1 2.74368 2.74368 9.26498 
13 1 4.46057 4.46057 9.26507 
14 1 4.46208 2.74379 7.54653 
15 1 2.74379 4.46208 7.54653 
16 1 3.60214 8.40502 3.60212 
17 1 2.74364 9.26495 2.74374 
18 1 4.46209 7.54655 2.74379 
19 1 4.46064 9.26506 4.46051 
20 1 2.74375 7.54649 4.46213 
31 1 1.20084 6.00359 6.00374 
32 1 0.340668 5.14536 5.1452 
33 1 2.05924 6.86197 5.14369 
34 1 0.340905 6.86218 6.8621 
35 1 2.05928 5.14365 6.86202 
26 1 8.40502 3.60214 3.60212 
27 1 9.26495 2.74364 2.74374 
28 1 7.54655 4.46209 2.74379 
29 1 7.54649 2.74375 4.46213 
30 1 9.26506 4.46064 4.46051 
36 1 6.00359 1.20084 6.00374 
37 1 6.86218 0.340905 6.8621 
38 1 5.14536 0.340668 5.1452 
39 1 5.14365 2.05928 6.86202 
40 1 6.86197 2.05924 5.14369 
21 1 6.00364 6.00364 1.20087 
22 1 5.14367 6.86203 2.05929 
23 1 6.86203 5.14367 2.05929 
24 1 5.14526 5.14526 0.340683 
25 1 6.86214 6.86214 0.340847 
6 1 8.40507 8.40507 8.40489 
7 1 9.26344 9.26344 9.2651 
8 1 7.54657 7.54657 9.2649 
9 1 7.54664 9.265 7.54654 
10 1 9.265 7.54664 7.54654 
ITEM: TIMESTEP
20
ITEM: NUMBER OF ATOMS
40
ITEM: BOX BOUNDS pp pp pp
-4.3226099999972740e-03 9.6101226100000048e+00
-4.3226099999999993e-03 9.6101226100000048e+00
-4.3220296498435607e-03 9.6101220296498440e+00
ITEM: ATOMS id type x y z 
1 1 1.19748 1.19748 1.19763 
2 1 0.338303 0.338303 0.3367 
3 1 2.05676 2.05676 0.336868 
4 1 0.336809 2.05669 2.05679 
5 1 2.05669 0.336809 2.05679 
11 1 3.60108 3.60108 8.40816 
12 1 2.74183 2.74183 9.269 
13 1 4.46026 4.46026 9.26909 
14 1 4.46177 2.74194 7.54899 
15 1 2.74194 4.46177 7.54899 
16 1 3.60106 8.40826 3.60104 
17 1 2.74179 9.26897 2.74188 
18 1 4.46179 7.54902 2.74193 
19 1 4.46034 9.26908 4.46021 
20 1 2.7419 7.54896 4.46183 
31 1 1.19759 6.00467 6.00482 
32 1 0.336651 5.14567 5.1455 
33 1 2.05677 6.86383 5.14399 
34 1 0.336888 6.86403 6.86396 
35 1 2.05681 5.14395 6.86387 
26 1 8.40826 3.60106 3.60104 
27 1 9.26897 2.74179 2.74188 
28 1 7.54902 4.46179 2.74193 
29 1 7.54896 2.7419 4.46183 
30 1 9.26908 4.46034 4.46021 
36 1 6.00467 1.19759 6.00482 
37 1 6.86403 0.336888 6.86396 
38 1 5.14567 0.336651 5.1455 
39 1 5.14395 2.05681 6.86387 
40 1 6.86383 2.05677 5.14399 
21 1 6.00472 6.00472 1.19762 
22 1 5.14397 6.86388 2.05682 
23 1 6.86388 5.14397 2.05682 
24 1 5.14556 5.14556 0.336667 
25 1 6.864 6.864 0.336831 
6 1 8.40831 8.40831 8.40813 
7 1 9.26745 9.26745 9.26912 
8 1 7.54904 7.54904 9.26891 
9 1 7.54911 9.26901 7.549 
10 1 9.26901 7.54911 7.549 
ITEM: TIMESTEP
30
ITEM: NUMBER OF ATOMS
40
ITEM: BOX BOUNDS pp pp pp
-9.1255099999946118e-03 9.6149255100000097e+00
-9.1255099999999947e-03 9.6149255100000097e+00
-9.1243633347527758e-03 9.6149243633347528e+00
ITEM: ATOMS id type x y z 
1 1 1.19388 1.19388 1.19403 
2 1 0.33384 0.33384 0.332236 
3 1 2.05402 2.05402 0.332404 
4 1 0.332345 2.05395 2.05405 
5 1 2.05395 0.332345 2.05405 
11 1 3.59988 3.59988 8.41176 
12 1 2.73977 2.73977 9.27346 
13 1 4.45992 4.45992 9.27355 
14 1 4.46144 2.73988 7.55173 
15 1 2.73988 4.46144 7.55173 
16 1 3.59986 8.41186 3.59984 
17 1 2.73972 9.27343 2.73982 
18 1 4.46145 7.55176 2.73987 
19 1 4.46 9.27354 4.45987 
20 1 2.73983 7.5517 4.46149 
31 1 1.19399 6.00587 6.00602 
32 1 0.332186 5.14601 5.14584 
33 1 2.05403 6.86589 5.14433 
34 1 0.332423 6.86609 6.86602 
35 1 2.05407 5.14429 6.86593 
26 1 8.41186 3.59986 3.59984 
27 1 9.27343 2.73972 2.73982 
28 1 7.55176 4.46145 2.73987 
29 1 7.5517 2.73983 4.46149 
30 1 9.27354 4.46 4.45987 
36 1 6.00587 1.19399 6.00602 
37 1 6.86609 0.332423 6.86602 
38 1 5.14601 0.332186 5.14584 
39 1 5.14429 2.05407 6.86593 
40 1 6.86589 2.05403 5.14433 
21 1 6.00592 6.00592 1.19402 
22 1 5.14431 6.86595 2.05408 
23 1 6.86595 5.14431 2.05408 
24 1 5.1459 5.1459 0.332203 
25 1 6.86606 6.86606 0.332366 
6 1 8.41192 8.41192 8.41174 
7 1 9.27191 9.27191 9.27358 
8 1 7.55178 7.55178 9.27338 
9 1 7.55185 9.27348 7.55174 
10 1 9.27348 7.55185 7.55174 
ITEM: TIMESTEP
40
ITEM: NUMBER OF ATOMS
40
ITEM: BOX BOUNDS pp pp pp
-1.3928409999992231e-02 9.6197284100000147e+00
-1.3928409999999990e-02 9.6197284100000147e+00
-1.3926756347732249e-02 9.6197267563477347e+00
ITEM: ATOMS id type x y z 
1 1 1.19028 1.19028 1.19043 
2 1 0.329376 0.329376 0.327771 
3 1 2.05128 2.05128 0.32794 
4 1 0.32788 2.05121 2.05131 
5 1 2.05121 0.32788 2.05131 
11 1 3.59868 3.59868 8.41536 
12 1 2.7377 2.7377 9.27793 
13 1 4.45958 4.45958 9.27802 
14 1 4.4611 2.73781 7.55447 
15 1 2.73781 4.4611 7.55447 
16 1 3.59866 8.41546 3.59864 
17 1 2.73766 9.2779 2.73776 
18 1 4.46111 7.5545 2.73781 
19 1 4.45966 9.27801 4.45953 
20 1 2.73777 7.55444 4.46115 
31 1 1.19039 6.00707 6.00722 
32 1 0.327721 5.14634 5.14618 
33 1 2.05129 6.86795 5.14467 
34 1 0.327959 6.86815 6.86808 
35 1 2.05133 5.14463 6.86799 
26 1 8.41546 3.59866 3.59864 
27 1 9.2779 2.73766 2.73776 
28 1 7.5545 4.46111 2.73781 
29 1 7.55444 2.73777 4.46115 
30 1 9.27801 4.45966 4.45953 
36 1 6.00707 1.19039 6.00722 
37 1 6.86815 0.327959 6.86808 
38 1 5.14634 0.327721 5.14618 
39 1 5.14463 2.05133 6.86799 
40 1 6.86795 2.05129 5.14467 
21 1 6.00712 6.00712 1.19042 
22 1 5.14465 6.86801 2.05134 
23 1 6.86801 5.14465 2.05134 
24 1 5.14624 5.14624 0.327738 
25 1 6.86812 6.86812 0.327902 
6 1 8.41552 8.41552 8.41534 
7 1 9.27638 9.27638 9.27805 
8 1 7.55452 7.55452 9.27784 
9 1 7.5546 9.27794 7.55449 
10 1 9.27794 7.5546 7.55449 
ITEM: TIMESTEP
50
ITEM: NUMBER OF ATOMS
40
ITEM: BOX BOUNDS pp pp pp
-1.8731309999989995e-02 9.6245313100000196e+00
-1.8731309999999973e-02 9.6245313100000196e+00
-1.8729180535845106e-02 9.6245291805358502e+00
ITEM: ATOMS id type x y z 
1 1 1.18667 1.18667 1.18682 
2 1 0.324914 0.324914 0.323307 
3 1 2.04854 2.04854 0.323476 
4 1 0.323415 2.04847 2.04857 
5 1 2.04847 0.323415 2.04857 
11 1 3.59748 3.59748 8.41896 
12 1 2.73564 2.73564 9.28239 
13 1 4.45924 4.45924 9.28248 
14 1 4.46076 2.73575 7.55722 
15 1 2.73575 4.46076 7.55722 
16 1 3.59746 8.41907 3.59744 
17 1 2.7356 9.28236 2.7357 
18 1 4.46077 7.55724 2.73575 
19 1 4.45932 9.28247 4.45919 
20 1 2.73571 7.55718 4.46081 
31 1 1.18679 6.00827 6.00842 
32 1 0.323257 5.14668 5.14652 
33 1 2.04855 6.87001 5.14501 
34 1 0.323494 6.87022 6.87014 
35 1 2.04858 5.14497 6.87005 
26 1 8.41907 3.59746 3.59744 
27 1 9.28236 2.7356 2.7357 
28 1 7.55724 4.46077 2.73575 
29 1 7.55718 2.73571 4.46081 
30 1 9.28247 4.45932 4.45919 
36 1 6.00827 1.18679 6.00842 
37 1 6.87022 0.323494 6.87014 
38 1 5.14668 0.323257 5.14652 
39 1 5.14497 2.04858 6.87005 
40 1 6.87001 2.04855 5.14501 
21 1 6.00832 6.00832 1.18682 
22 1 5.14499 6.87007 2.0486 
23 1 6.87007 5.14499 2.0486 
24 1 5.14658 5.14658 0.323274 
25 1 6.87018 6.87018 0.323438 
6 1 8.41912 8.41912 8.41894 
7 1 9.28084 9.28084 9.28251 
8 1 7.55726 7.55726 9.28231 
9 1 7.55734 9.28241 7.55723 
10 1 9.28241 7.55734 7.55723 
ITEM: TIMESTEP
60
ITEM: NUMBER OF ATOMS
40
ITEM: BOX BOUNDS pp pp pp
-2.3534209999987815e-02 9.6293342100000245e+00
-2.3534209999999951e-02 9.6293342100000245e+00
-2.3531614780312203e-02 9.6293316147803178e+00
ITEM: ATOMS id type x y z 
1 1 1.18307 1.18307 1.18322 
2 1 0.320452 0.320452 0.318844 
3 1 2.0458 2.0458 0.319013 
4 1 0.318952 2.04573 2.04583 
5 1 2.04573 0.318952 2.04583 
11 1 3.59628 3.59628 8.42257 
12 1 2.73358 2.73358 9.28685 
13 1 4.4589 4.4589 9.28694 
14 1 4.46042 2.73369 7.55996 
15 1 2.73369 4.46042 7.55996 
16 1 3.59626 8.42267 3.59623 
17 1 2.73354 9.28682 2.73364 
18 1 4.46043 7.55998 2.73369 
19 1 4.45898 9.28693 4.45884 
20 1 2.73365 7.55993 4.46047 
31 1 1.18319 6.00947 6.00962 
32 1 0.318794 5.14703 5.14686 
33 1 2.0458 6.87207 5.14535 
34 1 0.319031 6.87228 6.8722 
35 1 2.04584 5.14531 6.87211 
26 1 8.42267 3.59626 3.59623 
27 1 9.28682 2.73354 2.73364 
28 1 7.55998 4.46043 2.73369 
29 1 7.55993 2.73365 4.46047 
30 1 9.28693 4.45898 4.45884 
36 1 6.00947 1.18319 6.00962 
37 1 6.87228 0.319031 6.8722 
38 1 5.14703 0.318794 5.14686 
39 1 5.14531 2.04584 6.87211 
40 1 6.87207 2.0458 5.14535 
21 1 6.00952 6.00952 1.18322 
22 1 5.14533 6.87213 2.04586 
23 1 6.87213 5.14533 2.04586 
24 1 5.14692 5.14692 0.318812 
25 1 6.87224 6.87224 0.318976 
6 1 8.42272 8.42272 8.42254 
7 1 9.2853 9.2853 9.28697 
8 1 7.56 7.56 9.28677 
9 1 7.56008 9.28687 7.55997 
10 1 9.28687 7.56008 7.55997 
ITEM: TIMESTEP
70
ITEM: NUMBER OF ATOMS
40
ITEM: BOX BOUNDS pp pp pp
-2.8337109999985621e-02 9.6341371100000295e+00
-2.8337109999999929e-02 9.6341371100000295e+00
-2.8334046273459985e-02 9.6341340462734646e+00
ITEM: ATOMS id type x y z 
1 1 1.17947 1.17947 1.17962 
2 1 0.315992 0.315992 0.314383 
3 1 2.04305 2.04305 0.314553 
4 1 0.314491 2.04298 2.04308 
5 1 2.04298 0.314491 2.04308 
11 1 3.59508 3.59508 8.42617 
12 1 2.73152 2.73152 9.29131 
13 1 4.45856 4.45856 9.29141 
14 1 4.46008 2.73163 7.5627 
15 1 2.73163 4.46008 7.5627 
16 1 3.59506 8.42627 3.59503 
17 1 2.73148 9.29129 2.73158 
18 1 4.46009 7.56273 2.73163 
19 1 4.45863 9.2914 4.4585 
20 1 2.73159 7.56267 4.46013 
31 1 1.17958 6.01067 6.01082 
32 1 0.314332 5.14737 5.14721 
33 1 2.04306 6.87413 5.14569 
34 1 0.31457 6.87433 6.87426 
35 1 2.0431 5.14565 6.87417 
26 1 8.42627 3.59506 3.59503 
27 1 9.29129 2.73148 2.73158 
28 1 7.56273 4.46009 2.73163 
29 1 7.56267 2.73159 4.46013 
30 1 9.2914 4.45863 4.4585 
36 1 6.01067 1.17958 6.01082 
37 1 6.87433 0.31457 6.87426 
38 1 5.14737 0.314332 5.14721 
39 1 5.14565 2.0431 6.87417 
40 1 6.87413 2.04306 5.14569 
21 1 6.01072 6.01072 1.17962 
22 1 5.14567 6.87419 2.04311 
23 1 6.87419 5.14567 2.04311 
24 1 5.14727 5.14727 0.314351 
25 1 6.8743 6.8743 0.314515 
6 1 8.42632 8.42632 8.42614 
7 1 9.28976 9.28976 9.29144 
8 1 7.56275 7.56275 9.29123 
9 1 7.56282 9.29133 7.56271 
10 1 9.29133 7.56282 7.56271 
ITEM: TIMESTEP
80
ITEM: NUMBER OF ATOMS
40
ITEM: BOX BOUNDS pp pp pp
-3.3140009999983372e-02 9.6389400100000344e+00
-3.3140009999999921e-02 9.6389400100000344e+00
-3.3136468026639561e-02 9.6389364680266407e+00
ITEM: ATOMS id type x y z 
1 1 1.17587 1.17587 1.17602 
2 1 0.311534 0.311534 0.309924 
3 1 2.04031 2.04031 0.310093 
4 1 0.310031 2.04024 2.04034 
5 1 2.04024 0.310031 2.04034 
11 1 3.59388 3.59388 8.42977 
12 1 2.72947 2.72947 9.29577 
13 1 4.45821 4.45821 9.29587 
14 1 4.45974 2.72958 7.56545 
15 1 2.72958 4.45974 7.56545 
16 1 3.59386 8.42987 3.59383 
17 1 2.72942 9.29575 2.72952 
18 1 4.45975 7.56547 2.72957 
19 1 4.45829 9.29586 4.45816 
20 1 2.72953 7.56542 4.45979 
31 1 1.17598 6.01187 6.01202 
32 1 0.309872 5.14771 5.14755 
33 1 2.04031 6.87619 5.14603 
34 1 0.31011 6.87639 6.87632 
35 1 2.04035 5.14599 6.87623 
26 1 8.42987 3.59386 3.59383 
27 1 9.29575 2.72942 2.72952 
28 1 7.56547 4.45975 2.72957 
29 1 7.56542 2.72953 4.45979 
30 1 9.29586 4.45829 4.45816 
36 1 6.01187 1.17598 6.01202 
37 1 6.87639 0.31011 6.87632 
38 1 5.14771 0.309872 5.14755 
39 1 5.14599 2.04035 6.87623 
40 1 6.87619 2.04031 5.14603 
21 1 6.01192 6.01192 1.17601 
22 1 5.14601 6.87624 2.04037 
23 1 6.87624 5.14601 2.04037 
24 1 5.14761 5.14761 0.309891 
25 1 6.87636 6.87636 0.310055 
6 1 8.42993 8.42993 8.42974 
7 1 9.29422 9.29422 9.2959 
8 1 7.56549 7.56549 9.29569 
9 1 7.56557 9.29579 7.56546 
10 1 9.29579 7.56557 7.56546 
ITEM: TIMESTEP
90
ITEM: NUMBER OF ATOMS
40
ITEM: BOX BOUNDS pp pp pp
-3.7942909999981046e-02 9.6437429100000394e+00
-3.7942909999999934e-02 9.6437429100000394e+00
-3.7938876675030278e-02 9.6437388766750320e+00
ITEM: ATOMS id type x y z 
1 1 1.17227 1.17227 1.17242 
2 1 0.307076 0.307076 0.305465 
3 1 2.03756 2.03756 0.305634 
4 1 0.305572 2.03749 2.03759 
5 1 2.03749 0.305572 2.03759 
11 1 3.59268 3.59268 8.43337 
12 1 2.72741 2.72741 9.30023 
13 1 4.45787 4.45787 9.30032 
14 1 4.45939 2.72752 7.56819 
15 1 2.72752 4.45939 7.56819 
16 1 3.59266 8.43347 3.59263 
17 1 2.72737 9.30021 2.72747 
18 1 4.45941 7.56822 2.72752 
19 1 4.45794 9.30032 4.45781 
20 1 2.72748 7.56816 4.45944 
31 1 1.17238 6.01307 6.01322 
32 1 0.305413 5.14806 5.1479 
33 1 2.03757 6.87824 5.14637 
34 1 0.305651 6.87845 6.87837 
35 1 2.03761 5.14633 6.87829 
26 1 8.43347 3.59266 3.59263 
27 1 9.30021 2.72737 2.72747 
28 1 7.56822 4.45941 2.72752 
29 1 7.56816 2.72748 4.45944 
30 1 9.30032 4.45794 4.45781 
36 1 6.01307 1.17238 6.01322 
37 1 6.87845 0.305651 6.87837 
38 1 5.14806 0.305413 5.1479 
39 1 5.14633 2.03761 6.87829 
40 1 6.87824 2.03757 5.14637 
21 1 6.01312 6.01312 1.17241 
22 1 5.14636 6.8783 2.03762 
23 1 6.8783 5.14636 2.03762 
24 1 5.14796 5.14796 0.305432 
25 1 6.87841 6.87841 0.305597 
6 1 8.43353 8.43353 8.43335 
7 1 9.29868 9.29868 9.30035 
8 1 7.56824 7.56824 9.30015 
9 1 7.56832 9.30025 7.5682 
10 1 9.30025 7.56832 7.5682 
ITEM: TIMESTEP
100
ITEM: NUMBER OF ATOMS
40
ITEM: BOX BOUNDS pp pp pp
-4.2745809999978658e-02 9.6485458100000443e+00
-4.2745809999999947e-02 9.6485458100000443e+00
-4.2741271267261065e-02 9.6485412712672591e+00
ITEM: ATOMS id type x y z 
1 1 1.16866 1.16866 1.16882 
2 1 0.302619 0.302619 0.301007 
3 1 2.03481 2.03481 0.301177 
4 1 0.301113 2.03474 2.03484 
5 1 2.03474 0.301113 2.03484 
11 1 3.59148 3.59148 8.43697 
12 1 2.72536 2.72536 9.30469 
13 1 4.45752 4.45752 9.30478 
14 1 4.45905 2.72547 7.57094 
15 1 2.72547 4.45905 7.57094 
16 1 3.59145 8.43708 3.59143 
17 1 2.72531 9.30466 2.72541 
18 1 4.45906 7.57097 2.72546 
19 1 4.4576 9.30477 4.45747 
20 1 2.72542 7.57091 4.4591 
31 1 1.16878 6.01427 6.01442 
32 1 0.300954 5.14841 5.14824 
33 1 2.03482 6.8803 5.14672 
34 1 0.301193 6.8805 6.88043 
35 1 2.03486 5.14668 6.88034 
26 1 8.43708 3.59145 3.59143 
27 1 9.30466 2.72531 2.72541 
28 1 7.57097 4.45906 2.72546 
29 1 7.57091 2.72542 4.4591 
30 1 9.30477 4.4576 4.45747 
36 1 6.01427 1.16878 6.01442 
37 1 6.8805 0.301193 6.88043 
38 1 5.14841 0.300954 5.14824 
39 1 5.14668 2.03486 6.88034 
40 1 6.8803 2.03482 5.14672 
21 1 6.01432 6.01432 1.16881 
22 1 5.1467 6.88036 2.03487 
23 1 6.88036 5.1467 2.03487 
24 1 5.1483 5.1483 0.300974 
25 1 6.88047 6.88047 0.301139 
6 1 8.43713 8.43713 8.43695 
7 1 9.30314 9.30314 9.30481 
8 1 7.57099 7.57099 9.30461 
9 1 7.57106 9.30471 7.57095 
10 1 9.30471 7.57106 7.57095 
ITEM: TIMESTEP
110
ITEM: NUMBER OF ATOMS
40
ITEM: BOX BOUNDS pp pp pp
-4.7548709999976194e-02 9.6533487100000492e+00
-4.7548709999999897e-02 9.6533487100000492e+00
-4.7543652718087290e-02 9.6533436527180854e+00
ITEM: ATOMS id type x y z 
1 1 1.16506 1.16506 1.16521 
2 1 0.298163 0.298163 0.29655 
3 1 2.03206 2.03206 0.296719 
4 1 0.296655 2.032 2.0321 
5 1 2.032 0.296655 2.0321 
11 1 3.59028 3.59028 8.44057 
12 1 2.7233 2.7233 9.30915 
13 1 4.45717 4.45717 9.30924 
14 1 4.4587 2.72341 7.57369 
15 1 2.72341 4.4587 7.57369 
16 1 3.59025 8.44068 3.59023 
17 1 2.72326 9.30912 2.72336 
18 1 4.45872 7.57371 2.72341 
19 1 4.45725 9.30923 4.45712 
20 1 2.72337 7.57366 4.45875 
31 1 1.16518 6.01547 6.01563 
32 1 0.296496 5.14875 5.14859 
33 1 2.03207 6.88235 5.14706 
34 1 0.296735 6.88256 6.88248 
35 1 2.03211 5.14702 6.8824 
26 1 8.44068 3.59025 3.59023 
27 1 9.30912 2.72326 2.72336 
28 1 7.57371 4.45872 2.72341 
29 1 7.57366 2.72337 4.45875 
30 1 9.30923 4.45725 4.45712 
36 1 6.01547 1.16518 6.01563 
37 1 6.88256 0.296735 6.88248 
38 1 5.14875 0.296496 5.14859 
39 1 5.14702 2.03211 6.8824 
40 1 6.88235 2.03207 5.14706 
21 1 6.01553 6.01553 1.16521 
22 1 5.14705 6.88241 2.03213 
23 1 6.88241 5.14705 2.03213 
24 1 5.14865 5.14865 0.296517 
25 1 6.88253 6.88253 0.296682 
6 1 8.44073 8.44073 8.44055 
7 1 9.30759 9.30759 9.30927 
8 1 7.57373 7.57373 9.30906 
9 1 7.57381 9.30917 7.5737 
10 1 9.30917 7.57381 7.5737 
ITEM: TIMESTEP
120
ITEM: NUMBER OF ATOMS
40
ITEM: BOX BOUNDS pp pp pp
-5.2351609999973681e-02 9.6581516100000542e+00
-5.2351609999999840e-02 9.6581516100000542e+00
-5.2346023611632181e-02 9.6581460236116321e+00
ITEM: ATOMS id type x y z 
1 1 1.16146 1.16146 1.16161 
2 1 0.293706 0.293706 0.292092 
3 1 2.02932 2.02932 0.292262 
4 1 0.292197 2.02925 2.02935 
5 1 2.02925 0.292197 2.02935 
11 1 3.58907 3.58907 8.44418 
12 1 2.72125 2.72125 9.31361 
13 1 4.45683 4.45683 9.3137 
14 1 4.45836 2.72136 7.57643 
15 1 2.72136 4.45836 7.57643 
16 1 3.58905 8.44428 3.58903 
17 1 2.7212 9.31358 2.7213 
18 1 4.45837 7.57646 2.72135 
19 1 4.45691 9.31369 4.45677 
20 1 2.72131 7.57641 4.45841 
31 1 1.16157 6.01667 6.01683 
32 1 0.292038 5.1491 5.14894 
33 1 2.02933 6.88441 5.14741 
34 1 0.292277 6.88461 6.88454 
35 1 2.02936 5.14737 6.88445 
26 1 8.44428 3.58905 3.58903 
27 1 9.31358 2.7212 2.7213 
28 1 7.57646 4.45837 2.72135 
29 1 7.57641 2.72131 4.45841 
30 1 9.31369 4.45691 4.45677 
36 1 6.01667 1.16157 6.01683 
37 1 6.88461 0.292277 6.88454 
38 1 5.1491 0.292038 5.14894 
39 1 5.14737 2.02936 6.88445 
40 1 6.88441 2.02933 5.14741 
21 1 6.01673 6.01673 1.16161 
22 1 5.14739 6.88447 2.02938 
23 1 6.88447 5.14739 2.02938 
24 1 5.149 5.149 0.292059 
25 1 6.88458 6.88458 0.292224 
6 1 8.44434 8.44434 8.44415 
7 1 9.31205 9.31205 9.31373 
8 1 7.57648 7.57648 9.31352 
9 1 7.57656 9.31363 7.57645 
10 1 9.31363 7.57656 7.57645 
ITEM: TIMESTEP
130
ITEM: NUMBER OF ATOMS
40
ITEM: BOX BOUNDS pp pp pp
-5.7154509999971126e-02 9.6629545100000591e+00
-5.7154509999999784e-02 9.6629545100000591e+00
-5.7148388213160560e-02 9.6629483882131595e+00
ITEM: ATOMS id type x y z 
1 1 1.15786 1.15786 1.15801 
2 1 0.289249 0.289249 0.287634 
3 1 2.02657 2.02657 0.287804 
4 1 0.287739 2.0265 2.0266 
5 1 2.0265 0.287739 2.0266 
11 1 3.58787 3.58787 8.44778 
12 1 2.71919 2.71919 9.31806 
13 1 4.45648 4.45648 9.31815 
14 1 4.45801 2.7193 7.57918 
15 1 2.7193 4.45801 7.57918 
16 1 3.58785 8.44788 3.58783 
17 1 2.71915 9.31804 2.71924 
18 1 4.45803 7.57921 2.7193 
19 1 4.45656 9.31815 4.45643 
20 1 2.71926 7.57915 4.45806 
31 1 1.15797 6.01787 6.01803 
32 1 0.28758 5.14944 5.14928 
33 1 2.02658 6.88646 5.14775 
34 1 0.287819 6.88667 6.88659 
35 1 2.02662 5.14771 6.88651 
26 1 8.44788 3.58785 3.58783 
27 1 9.31804 2.71915 2.71924 
28 1 7.57921 4.45803 2.7193 
29 1 7.57915 2.71926 4.45806 
30 1 9.31815 4.45656 4.45643 
36 1 6.01787 1.15797 6.01803 
37 1 6.88667 0.287819 6.88659 
38 1 5.14944 0.28758 5.14928 
39 1 5.14771 2.02662 6.88651 
40 1 6.88646 2.02658 5.14775 
21 1 6.01793 6.01793 1.15801 
22 1 5.14774 6.88652 2.02663 
23 1 6.88652 5.14774 2.02663 
24 1 5.14934 5.14934 0.287601 
25 1 6.88664 6.88664 0.287767 
6 1 8.44794 8.44794 8.44775 
7 1 9.31651 9.31651 9.31819 
8 1 7.57923 7.57923 9.31798 
9 1 7.57931 9.31808 7.57919 
10 1 9.31808 7.57931 7.57919 
ITEM: TIMESTEP
140
ITEM: NUMBER OF ATOMS
40
ITEM: BOX BOUNDS pp pp pp
-6.1957409999968571e-02 9.6677574100000641e+00
-6.1957409999999727e-02 9.6677574100000641e+00
-6.1950752611173020e-02 9.6677507526111714e+00
ITEM: ATOMS id type x y z 
1 1 1.15425 1.15425 1.15441 
2 1 0.284791 0.284791 0.283175 
3 1 2.02382 2.02382 0.283346 
4 1 0.28328 2.02375 2.02386 
5 1 2.02375 0.28328 2.02386 
11 1 3.58667 3.58667 8.45138 
12 1 2.71713 2.71713 9.32252 
13 1 4.45614 4.45614 9.32261 
14 1 4.45767 2.71724 7.58193 
15 1 2.71724 4.45767 7.58193 
16 1 3.58665 8.45149 3.58663 
17 1 2.71709 9.3225 2.71719 
18 1 4.45768 7.58195 2.71724 
19 1 4.45622 9.32261 4.45608 
20 1 2.7172 7.5819 4.45772 
31 1 1.15437 6.01908 6.01923 
32 1 0.28312 5.14979 5.14963 
33 1 2.02383 6.88852 5.1481 
34 1 0.28336 6.88873 6.88865 
35 1 2.02387 5.14806 6.88856 
26 1 8.45149 3.58665 3.58663 
27 1 9.3225 2.71709 2.71719 
28 1 7.58195 4.45768 2.71724 
29 1 7.5819 2.7172 4.45772 
30 1 9.32261 4.45622 4.45608 
36 1 6.01908 1.15437 6.01923 
37 1 6.88873 0.28336 6.88865 
38 1 5.14979 0.28312 5.14963 
39 1 5.14806 2.02387 6.88856 
40 1 6.88852 2.02383 5.1481 
21 1 6.01913 6.01913 1.1544 
22 1 5.14808 6.88858 2.02389 
23 1 6.88858 5.14808 2.02389 
24 1 5.14969 5.14969 0.283142 
25 1 6.88869 6.88869 0.283308 
6 1 8.45154 8.45154 8.45135 
7 1 9.32096 9.32096 9.32264 
8 1 7.58197 7.58197 9.32244 
9 1 7.58205 9.32254 7.58194 
10 1 9.32254 7.58205 7.58194 
ITEM: TIMESTEP
150
ITEM: NUMBER OF ATOMS
40
ITEM: BOX BOUNDS pp pp pp
-6.6760309999966017e-02 9.6725603100000690e+00
-6.6760309999999670e-02 9.6725603100000690e+00
-6.6753124969089750e-02 9.6725531249690899e+00
ITEM: ATOMS id type x y z 
1 1 1.15065 1.15065 1.15081 
2 1 0.280331 0.280331 0.278714 
3 1 2.02108 2.02108 0.278885 
4 1 0.278819 2.02101 2.02111 
5 1 2.02101 0.278819 2.02111 
11 1 3.58547 3.58547 8.45498 
12 1 2.71507 2.71507 9.32698 
13 1 4.45579 4.45579 9.32707 
14 1 4.45733 2.71519 7.58467 
15 1 2.71519 4.45733 7.58467 
16 1 3.58545 8.45509 3.58543 
17 1 2.71503 9.32696 2.71513 
18 1 4.45734 7.5847 2.71518 
19 1 4.45587 9.32707 4.45574 
20 1 2.71514 7.58464 4.45738 
31 1 1.15077 6.02028 6.02043 
32 1 0.278659 5.15013 5.14997 
33 1 2.02109 6.89058 5.14844 
34 1 0.278899 6.89078 6.89071 
35 1 2.02113 5.1484 6.89062 
26 1 8.45509 3.58545 3.58543 
27 1 9.32696 2.71503 2.71513 
28 1 7.5847 4.45734 2.71518 
29 1 7.58464 2.71514 4.45738 
30 1 9.32707 4.45587 4.45574 
36 1 6.02028 1.15077 6.02043 
37 1 6.89078 0.278899 6.89071 
38 1 5.15013 0.278659 5.14997 
39 1 5.1484 2.02113 6.89062 
40 1 6.89058 2.02109 5.14844 
21 1 6.02033 6.02033 1.1508 
22 1 5.14842 6.89064 2.02114 
23 1 6.89064 5.14842 2.02114 
24 1 5.15003 5.15003 0.278681 
25 1 6.89075 6.89075 0.278848 
6 1 8.45514 8.45514 8.45496 
7 1 9.32542 9.32542 9.32711 
8 1 7.58472 7.58472 9.3269 
9 1 7.5848 9.327 7.58468 
10 1 9.327 7.5848 7.58468 
ITEM: TIMESTEP
160
ITEM: NUMBER OF ATOMS
40
ITEM: BOX BOUNDS pp pp pp
-7.1563209999963573e-02 9.6773632100000739e+00
-7.1563209999999614e-02 9.6773632100000739e+00
-7.1555515902860536e-02 9.6773555159028586e+00
ITEM: ATOMS id type x y z 
1 1 1.14705 1.14705 1.1472 
2 1 0.275868 0.275868 0.274252 
3 1 2.01834 2.01834 0.274423 
4 1 0.274356 2.01827 2.01837 
5 1 2.01827 0.274356 2.01837 
11 1 3.58427 3.58427 8.45859 
12 1 2.71301 2.71301 9.33144 
13 1 4.45545 4.45545 9.33154 
14 1 4.45699 2.71312 7.58741 
15 1 2.71312 4.45699 7.58741 
16 1 3.58425 8.45869 3.58423 
17 1 2.71297 9.33142 2.71307 
18 1 4.457 7.58744 2.71312 
19 1 4.45553 9.33153 4.4554 
20 1 2.71308 7.58739 4.45704 
31 1 1.14716 6.02148 6.02163 
32 1 0.274195 5.15047 5.15031 
33 1 2.01835 6.89264 5.14878 
34 1 0.274437 6.89285 6.89277 
35 1 2.01838 5.14874 6.89268 
26 1 8.45869 3.58425 3.58423 
27 1 9.33142 2.71297 2.71307 
28 1 7.58744 4.457 2.71312 
29 1 7.58739 2.71308 4.45704 
30 1 9.33153 4.45553 4.4554 
36 1 6.02148 1.14716 6.02163 
37 1 6.89285 0.274437 6.89277 
38 1 5.15047 0.274195 5.15031 
39 1 5.14874 2.01838 6.89268 
40 1 6.89264 2.01835 5.14878 
21 1 6.02153 6.02153 1.1472 
22 1 5.14876 6.8927 2.0184 
23 1 6.8927 5.14876 2.0184 
24 1 5.15037 5.15037 0.274218 
25 1 6.89281 6.89281 0.274385 
6 1 8.45874 8.45874 8.45856 
7 1 9.32989 9.32989 9.33157 
8 1 7.58746 7.58746 9.33136 
9 1 7.58754 9.33147 7.58742 
10 1 9.33147 7.58754 7.58742 
ITEM: TIMESTEP
170
ITEM: NUMBER OF ATOMS
40
ITEM: BOX BOUNDS pp pp pp
-7.6366109999961254e-02 9.6821661100000789e+00
-7.6366109999999557e-02 9.6821661100000789e+00
-7.6357939045471376e-02 9.6821579390454691e+00
ITEM: ATOMS id type x y z 
1 1 1.14345 1.14345 1.1436 
2 1 0.271402 0.271402 0.269785 
3 1 2.0156 2.0156 0.269957 
4 1 0.26989 2.01553 2.01563 
5 1 2.01553 0.26989 2.01563 
11 1 3.58307 3.58307 8.46219 
12 1 2.71095 2.71095 9.33591 
13 1 4.45512 4.45512 9.336 
14 1 4.45665 2.71106 7.59015 
15 1 2.71106 4.45665 7.59015 
16 1 3.58305 8.46229 3.58303 
17 1 2.71091 9.33589 2.71101 
18 1 4.45666 7.59018 2.71106 
19 1 4.4552 9.336 4.45506 
20 1 2.71102 7.59012 4.4567 
31 1 1.14356 6.02268 6.02283 
32 1 0.269729 5.15081 5.15065 
33 1 2.01561 6.8947 5.14911 
34 1 0.26997 6.89491 6.89483 
35 1 2.01564 5.14908 6.89475 
26 1 8.46229 3.58305 3.58303 
27 1 9.33589 2.71091 2.71101 
28 1 7.59018 4.45666 2.71106 
29 1 7.59012 2.71102 4.4567 
30 1 9.336 4.4552 4.45506 
36 1 6.02268 1.14356 6.02283 
37 1 6.89491 0.26997 6.89483 
38 1 5.15081 0.269729 5.15065 
39 1 5.14908 2.01564 6.89475 
40 1 6.8947 2.01561 5.14911 
21 1 6.02273 6.02273 1.1436 
22 1 5.1491 6.89476 2.01566 
23 1 6.89476 5.1491 2.01566 
24 1 5.15071 5.15071 0.269752 
25 1 6.89488 6.89488 0.269919 
6 1 8.46235 8.46235 8.46216 
7 1 9.33435 9.33435 9.33603 
8 1 7.5902 7.5902 9.33582 
9 1 7.59028 9.33593 7.59016 
10 1 9.33593 7.59028 7.59016 
ITEM: TIMESTEP
180
ITEM: NUMBER OF ATOMS
40
ITEM: BOX BOUNDS pp pp pp
-8.1169009999959157e-02 9.6869690100000838e+00
-8.1169009999999500e-02 9.6869690100000838e+00
-8.1160411924398018e-02 9.6869604119243942e+00
ITEM: ATOMS id type x y z 
1 1 1.13984 1.13984 1.14 
2 1 0.266931 0.266931 0.265315 
3 1 2.01286 2.01286 0.265487 
4 1 0.265419 2.0128 2.0129 
5 1 2.0128 0.265419 2.0129 
11 1 3.58187 3.58187 8.46579 
12 1 2.70888 2.70888 9.34038 
13 1 4.45479 4.45479 9.34047 
14 1 4.45632 2.70899 7.59289 
15 1 2.70899 4.45632 7.59289 
16 1 3.58185 8.4659 3.58183 
17 1 2.70884 9.34036 2.70894 
18 1 4.45633 7.59291 2.70899 
19 1 4.45486 9.34047 4.45473 
20 1 2.70895 7.59286 4.45637 
31 1 1.13996 6.02388 6.02403 
32 1 0.265258 5.15114 5.15098 
33 1 2.01287 6.89677 5.14945 
34 1 0.2655 6.89698 6.8969 
35 1 2.01291 5.14941 6.89681 
26 1 8.4659 3.58185 3.58183 
27 1 9.34036 2.70884 2.70894 
28 1 7.59291 4.45633 2.70899 
29 1 7.59286 2.70895 4.45637 
30 1 9.34047 4.45486 4.45473 
36 1 6.02388 1.13996 6.02403 
37 1 6.89698 0.2655 6.8969 
38 1 5.15114 0.265258 5.15098 
39 1 5.14941 2.01291 6.89681 
40 1 6.89677 2.01287 5.14945 
21 1 6.02393 6.02393 1.13999 
22 1 5.14943 6.89683 2.01293 
23 1 6.89683 5.14943 2.01293 
24 1 5.15104 5.15104 0.265282 
25 1 6.89695 6.89695 0.265449 
6 1 8.46595 8.46595 8.46576 
7 1 9.33882 9.33882 9.3405 
8 1 7.59293 7.59293 9.34029 
9 1 7.59301 9.3404 7.5929 
10 1 9.3404 7.59301 7.5929 
ITEM: TIMESTEP
190
ITEM: NUMBER OF ATOMS
40
ITEM: BOX BOUNDS pp pp pp
-8.5971909999957380e-02 9.6917719100000888e+00
-8.5971909999999443e-02 9.6917719100000888e+00
-8.5962957384015812e-02 9.6917629573840109e+00
ITEM: ATOMS id type x y z 
1 1 1.13624 1.13624 1.1364 
2 1 0.262455 0.262455 0.260839 
3 1 2.01014 2.01014 0.261011 
4 1 0.260943 2.01007 2.01017 
5 1 2.01007 0.260943 2.01017 
11 1 3.58067 3.58067 8.46939 
12 1 2.7068 2.7068 9.34486 
13 1 4.45446 4.45446 9.34495 
14 1 4.45599 2.70692 7.59561 
15 1 2.70692 4.45599 7.59561 
16 1 3.58065 8.4695 3.58063 
17 1 2.70676 9.34483 2.70686 
18 1 4.45601 7.59564 2.70692 
19 1 4.45454 9.34495 4.4544 
20 1 2.70687 7.59559 4.45604 
31 1 1.13635 6.02508 6.02523 
32 1 0.260781 5.15147 5.1513 
33 1 2.01015 6.89885 5.14977 
34 1 0.261024 6.89905 6.89898 
35 1 2.01018 5.14974 6.89889 
26 1 8.4695 3.58065 3.58063 
27 1 9.34483 2.70676 2.70686 
28 1 7.59564 4.45601 2.70692 
29 1 7.59559 2.70687 4.45604 
30 1 9.34495 4.45454 4.4544 
36 1 6.02508 1.13635 6.02523 
37 1 6.89905 0.261024 6.89898 
38 1 5.15147 0.260781 5.1513 
39 1 5.14974 2.01018 6.89889 
40 1 6.89885 2.01015 5.14977 
21 1 6.02513 6.02513 1.13639 
22 1 5.14976 6.89891 2.0102 
23 1 6.89891 5.14976 2.0102 
24 1 5.15136 5.15136 0.260805 
25 1 6.89902 6.89902 0.260973 
6 1 8.46955 8.46955 8.46937 
7 1 9.3433 9.3433 9.34498 
8 1 7.59566 7.59566 9.34477 
9 1 7.59574 9.34488 7.59562 
10 1 9.34488 7.59574 7.59562 