LAMMPS (3 Mar 2020)
Reading data file ...
  orthogonal box = (0 0 0) to (9.6058 9.6058 9.6058)
  2 by 2 by 2 MPI processor grid
  reading atoms ...
  40 atoms
  read_data CPU = 0.00988009 secs
WARNING: Using 'neigh_modify every 1 delay 0 check yes' setting during minimization (../min.cpp:190)
WARNING: Total cutoff < 2*bond cutoff. May need to use an increased neighbor list skin. (../pair_reaxc.cpp:413)
Neighbor list info ...
  update every 1 steps, delay 0 steps, check yes
  max neighbors/atom: 2000, page size: 100000
  master list distance cutoff = 9.5
  ghost atom cutoff = 9.5
  binsize = 4.75, bins = 3 3 3
  2 neighbor lists, perpetual/occasional/extra = 2 0 0
  (1) pair reax/c, perpetual
      attributes: half, newton off, ghost
      pair build: half/bin/newtoff/ghost
      stencil: half/ghost/bin/3d/newtoff
      bin: standard
  (2) fix qeq/reax, perpetual, copy from (1)
      attributes: half, newton off, ghost
      pair build: copy
      stencil: none
      bin: none
Setting up cg style minimization ...
  Unit style    : real
  Current step  : 0
Per MPI rank memory allocation (min/avg/max) = 19.17 | 19.17 | 19.17 Mbytes
Step Temp E_pair E_mol TotEng Press 
       0            0   -7151.3595            0   -7151.3595    252275.57 
      10            0   -7175.3153            0   -7175.3153    227205.44 
Loop time of 0.912058 on 8 procs for 10 steps with 40 atoms

99.8% CPU use with 8 MPI tasks x no OpenMP threads

Minimization stats:
  Stopping criterion = energy tolerance
  Energy initial, next-to-last, final = 
        -7151.35948752     -7175.31528328      -7175.3152854
  Force two-norm initial, final = 586.756 1.51644
  Force max component initial, final = 64.7569 0.36093
  Final line search alpha, max atom move = 0.000536843 0.000193763
  Iterations, force evaluations = 10 85

MPI task timing breakdown:
Section |  min time  |  avg time  |  max time  |%varavg| %total
---------------------------------------------------------------
Pair    | 0.7264     | 0.75136    | 0.77168    |   1.5 | 82.38
Neigh   | 0          | 0          | 0          |   0.0 |  0.00
Comm    | 0.016431   | 0.036931   | 0.06188    |   6.9 |  4.05
Output  | 0          | 0          | 0          |   0.0 |  0.00
Modify  | 0.11957    | 0.11966    | 0.11982    |   0.0 | 13.12
Other   |            | 0.004111   |            |       |  0.45

Nlocal:    5 ave 5 max 5 min
Histogram: 8 0 0 0 0 0 0 0 0 0
Nghost:    620 ave 620 max 620 min
Histogram: 8 0 0 0 0 0 0 0 0 0
Neighs:    806 ave 806 max 806 min
Histogram: 8 0 0 0 0 0 0 0 0 0

Total # of neighbors = 6448
Ave neighs/atom = 161.2
Neighbor list builds = 0
Dangerous builds = 0
WARNING: Using 'neigh_modify every 1 delay 0 check yes' setting during minimization (../min.cpp:190)
WARNING: Total cutoff < 2*bond cutoff. May need to use an increased neighbor list skin. (../pair_reaxc.cpp:413)
Setting up cg style minimization ...
  Unit style    : real
  Current step  : 10
Per MPI rank memory allocation (min/avg/max) = 19.17 | 19.17 | 19.17 Mbytes
Step Temp E_pair E_mol TotEng Press 
      10            0   -7175.3153            0   -7175.3153    227205.44 
      11            0   -7175.3153            0   -7175.3153     227204.2 
Loop time of 0.1582 on 8 procs for 1 steps with 40 atoms

99.8% CPU use with 8 MPI tasks x no OpenMP threads

Minimization stats:
  Stopping criterion = energy tolerance
  Energy initial, next-to-last, final = 
         -7175.3152854      -7175.3152854     -7175.31528825
  Force two-norm initial, final = 1.51644 1.49421
  Force max component initial, final = 0.36093 0.357011
  Final line search alpha, max atom move = 0.000541136 0.000193192
  Iterations, force evaluations = 1 14

MPI task timing breakdown:
Section |  min time  |  avg time  |  max time  |%varavg| %total
---------------------------------------------------------------
Pair    | 0.12746    | 0.13025    | 0.13296    |   0.5 | 82.33
Neigh   | 0          | 0          | 0          |   0.0 |  0.00
Comm    | 0.0024654  | 0.0051781  | 0.0079564  |   2.6 |  3.27
Output  | 0          | 0          | 0          |   0.0 |  0.00
Modify  | 0.021852   | 0.021873   | 0.021888   |   0.0 | 13.83
Other   |            | 0.0009018  |            |       |  0.57

Nlocal:    5 ave 5 max 5 min
Histogram: 8 0 0 0 0 0 0 0 0 0
Nghost:    620 ave 620 max 620 min
Histogram: 8 0 0 0 0 0 0 0 0 0
Neighs:    806 ave 806 max 806 min
Histogram: 8 0 0 0 0 0 0 0 0 0

Total # of neighbors = 6448
Ave neighs/atom = 161.2
Neighbor list builds = 0
Dangerous builds = 0
WARNING: Using 'neigh_modify every 1 delay 0 check yes' setting during minimization (../min.cpp:190)
WARNING: Total cutoff < 2*bond cutoff. May need to use an increased neighbor list skin. (../pair_reaxc.cpp:413)
Setting up cg style minimization ...
  Unit style    : real
  Current step  : 11
WARNING: Energy due to 3 extra global DOFs will be included in minimizer energies
Per MPI rank memory allocation (min/avg/max) = 19.17 | 19.17 | 19.17 Mbytes
Step Temp E_pair E_mol TotEng Press Volume 
      11            0   -7175.3153            0   -7175.3153     227204.2    886.34055 
     333            0   -7394.7256            0   -7394.7256   0.73199638    969.72118 
Loop time of 3.85132 on 8 procs for 322 steps with 40 atoms

99.5% CPU use with 8 MPI tasks x no OpenMP threads

Minimization stats:
  Stopping criterion = energy tolerance
  Energy initial, next-to-last, final = 
        -7175.31528825     -7394.72552558     -7394.72556088
  Force two-norm initial, final = 5086.9 11.8483
  Force max component initial, final = 2937.06 2.85933
  Final line search alpha, max atom move = 1.4719e-06 4.20864e-06
  Iterations, force evaluations = 322 434

MPI task timing breakdown:
Section |  min time  |  avg time  |  max time  |%varavg| %total
---------------------------------------------------------------
Pair    | 3.1771     | 3.2534     | 3.3244     |   2.8 | 84.47
Neigh   | 0          | 0          | 0          |   0.0 |  0.00
Comm    | 0.078132   | 0.14951    | 0.22518    |  13.0 |  3.88
Output  | 0.0029728  | 0.0041599  | 0.0058997  |   1.5 |  0.11
Modify  | 0.39776    | 0.398      | 0.39888    |   0.1 | 10.33
Other   |            | 0.04625    |            |       |  1.20

Nlocal:    5 ave 5 max 5 min
Histogram: 8 0 0 0 0 0 0 0 0 0
Nghost:    620 ave 620 max 620 min
Histogram: 8 0 0 0 0 0 0 0 0 0
Neighs:    806 ave 806 max 806 min
Histogram: 8 0 0 0 0 0 0 0 0 0

Total # of neighbors = 6448
Ave neighs/atom = 161.2
Neighbor list builds = 0
Dangerous builds = 0
WARNING: Using 'neigh_modify every 1 delay 0 check yes' setting during minimization (../min.cpp:190)
WARNING: Total cutoff < 2*bond cutoff. May need to use an increased neighbor list skin. (../pair_reaxc.cpp:413)
Setting up cg style minimization ...
  Unit style    : real
  Current step  : 333
Per MPI rank memory allocation (min/avg/max) = 19.17 | 19.17 | 19.17 Mbytes
Step Temp E_pair E_mol TotEng Press 
     333            0   -7394.7256            0   -7394.7256   0.73199634 
     334            0   -7394.7256            0   -7394.7256   0.75820552 
Loop time of 0.135109 on 8 procs for 1 steps with 40 atoms

99.6% CPU use with 8 MPI tasks x no OpenMP threads

Minimization stats:
  Stopping criterion = energy tolerance
  Energy initial, next-to-last, final = 
        -7394.72556088     -7394.72556088     -7394.72557614
  Force two-norm initial, final = 11.8482 9.64838
  Force max component initial, final = 2.85933 2.42841
  Final line search alpha, max atom move = 1.0673e-06 2.59184e-06
  Iterations, force evaluations = 1 20

MPI task timing breakdown:
Section |  min time  |  avg time  |  max time  |%varavg| %total
---------------------------------------------------------------
Pair    | 0.10229    | 0.10542    | 0.10835    |   0.6 | 78.03
Neigh   | 0          | 0          | 0          |   0.0 |  0.00
Comm    | 0.0026306  | 0.0055741  | 0.0086819  |   2.5 |  4.13
Output  | 0          | 0          | 0          |   0.0 |  0.00
Modify  | 0.023167   | 0.023198   | 0.023216   |   0.0 | 17.17
Other   |            | 0.0009125  |            |       |  0.68

Nlocal:    5 ave 5 max 5 min
Histogram: 8 0 0 0 0 0 0 0 0 0
Nghost:    484 ave 484 max 484 min
Histogram: 8 0 0 0 0 0 0 0 0 0
Neighs:    722 ave 722 max 722 min
Histogram: 8 0 0 0 0 0 0 0 0 0

Total # of neighbors = 5776
Ave neighs/atom = 144.4
Neighbor list builds = 0
Dangerous builds = 0
WARNING: Using 'neigh_modify every 1 delay 0 check yes' setting during minimization (../min.cpp:190)
WARNING: Total cutoff < 2*bond cutoff. May need to use an increased neighbor list skin. (../pair_reaxc.cpp:413)
Setting up cg style minimization ...
  Unit style    : real
  Current step  : 334
WARNING: Energy due to 3 extra global DOFs will be included in minimizer energies
Per MPI rank memory allocation (min/avg/max) = 19.17 | 19.17 | 19.17 Mbytes
Step Temp E_pair E_mol TotEng Press Volume 
     334            0   -7394.7256            0   -7394.7256   0.75820547    969.72118 
     335            0   -7394.7256            0   -7394.7256   0.82616786    969.72121 
Loop time of 0.09861 on 8 procs for 1 steps with 40 atoms

99.8% CPU use with 8 MPI tasks x no OpenMP threads

Minimization stats:
  Stopping criterion = energy tolerance
  Energy initial, next-to-last, final = 
        -7394.72557614     -7394.72557614     -7394.72562358
  Force two-norm initial, final = 9.64856 11.9521
  Force max component initial, final = 2.42841 2.92272
  Final line search alpha, max atom move = 8.60942e-07 2.51629e-06
  Iterations, force evaluations = 1 15

MPI task timing breakdown:
Section |  min time  |  avg time  |  max time  |%varavg| %total
---------------------------------------------------------------
Pair    | 0.077216   | 0.079227   | 0.081131   |   0.5 | 80.34
Neigh   | 0          | 0          | 0          |   0.0 |  0.00
Comm    | 0.0018807  | 0.003824   | 0.0058498  |   2.2 |  3.88
Output  | 0          | 0          | 0          |   0.0 |  0.00
Modify  | 0.014165   | 0.014178   | 0.014213   |   0.0 | 14.38
Other   |            | 0.001381   |            |       |  1.40

Nlocal:    5 ave 5 max 5 min
Histogram: 8 0 0 0 0 0 0 0 0 0
Nghost:    484 ave 484 max 484 min
Histogram: 8 0 0 0 0 0 0 0 0 0
Neighs:    722 ave 722 max 722 min
Histogram: 8 0 0 0 0 0 0 0 0 0

Total # of neighbors = 5776
Ave neighs/atom = 144.4
Neighbor list builds = 0
Dangerous builds = 0
WARNING: Using 'neigh_modify every 1 delay 0 check yes' setting during minimization (../min.cpp:190)
WARNING: Total cutoff < 2*bond cutoff. May need to use an increased neighbor list skin. (../pair_reaxc.cpp:413)
Setting up cg style minimization ...
  Unit style    : real
  Current step  : 335
Per MPI rank memory allocation (min/avg/max) = 19.17 | 19.17 | 19.17 Mbytes
Step Temp E_pair E_mol TotEng Press 
     335            0   -7394.7256            0   -7394.7256   0.82616791 
     336            0   -7394.7256            0   -7394.7256   0.85324812 
Loop time of 0.165808 on 8 procs for 1 steps with 40 atoms

99.4% CPU use with 8 MPI tasks x no OpenMP threads

Minimization stats:
  Stopping criterion = energy tolerance
  Energy initial, next-to-last, final = 
        -7394.72562358     -7394.72562358     -7394.72563681
  Force two-norm initial, final = 11.9519 11.3855
  Force max component initial, final = 2.92272 3.17203
  Final line search alpha, max atom move = 2.61038e-07 8.28019e-07
  Iterations, force evaluations = 1 25

MPI task timing breakdown:
Section |  min time  |  avg time  |  max time  |%varavg| %total
---------------------------------------------------------------
Pair    | 0.12673    | 0.13009    | 0.13333    |   0.6 | 78.46
Neigh   | 0          | 0          | 0          |   0.0 |  0.00
Comm    | 0.003253   | 0.0065012  | 0.0098395  |   2.7 |  3.92
Output  | 0          | 0          | 0          |   0.0 |  0.00
Modify  | 0.028142   | 0.02816    | 0.028203   |   0.0 | 16.98
Other   |            | 0.001059   |            |       |  0.64

Nlocal:    5 ave 5 max 5 min
Histogram: 8 0 0 0 0 0 0 0 0 0
Nghost:    484 ave 484 max 484 min
Histogram: 8 0 0 0 0 0 0 0 0 0
Neighs:    722 ave 722 max 722 min
Histogram: 8 0 0 0 0 0 0 0 0 0

Total # of neighbors = 5776
Ave neighs/atom = 144.4
Neighbor list builds = 0
Dangerous builds = 0
WARNING: Total cutoff < 2*bond cutoff. May need to use an increased neighbor list skin. (../pair_reaxc.cpp:413)
Setting up Verlet run ...
  Unit style    : real
  Current step  : 0
  Time step     : 0.25
Per MPI rank memory allocation (min/avg/max) = 18.04 | 18.04 | 18.04 Mbytes
Step Temp TotEng KinEng PotEng Press 
       0          300   -7359.8502    34.875478   -7394.7256    1644.8695 
     200    276.82993   -7344.9782    32.181921   -7377.1602    20508.032 
     400     347.9698   -7322.6891    40.452043   -7363.1412    10345.431 
     600    350.38095   -7313.5731    40.732343   -7354.3054   -27000.309 
     800    234.53959    -7330.358      27.2656   -7357.6236   -31112.386 
    1000    260.99067   -7322.2337    30.340581   -7352.5743   -12374.445 
    1200    298.11485   -7319.7522    34.656326   -7354.4085    10463.828 
    1400    290.59226   -7332.4755    33.781813   -7366.2573   -1032.8436 
    1600    302.32201   -7327.1249    35.145415   -7362.2703    12647.354 
    1800    421.03169   -7319.4115    48.945604   -7368.3571    21594.618 
    2000    278.27166   -7324.9758    32.349524   -7357.3254    17734.218 
    2200    286.66347   -7335.3843    33.325084   -7368.7094     5414.889 
    2400    356.63646   -7320.1218    41.459556   -7361.5813   -19099.399 
    2600     329.4199   -7323.0371    38.295588   -7361.3327   -9515.4965 
    2800    254.79793   -7334.7287    29.620665   -7364.3493   -7149.9569 
    3000    219.29956   -7323.6791    25.493923    -7349.173    -8559.424 
    3200    250.45099   -7322.9546    29.115326   -7352.0699     13536.92 
    3400    264.40975   -7333.8565    30.738055   -7364.5946    1685.6886 
    3600    324.84485   -7321.3566    37.763731   -7359.1204    13512.375 
    3800    344.08991   -7320.7852       40.001   -7360.7862    3225.2648 
    4000    321.85011   -7332.3089    37.415587   -7369.7245   -19170.618 
    4200    312.97099   -7317.3996    36.383376   -7353.7829     39345.24 
    4400    299.30423   -7321.3941    34.794593   -7356.1887    3186.4046 
    4600    277.98416   -7329.4641    32.316102   -7361.7802    -29994.15 
    4800    289.42848   -7310.6911    33.646522   -7344.3376    4501.2759 
    5000    346.14816   -7323.8894    40.240275   -7364.1297    2712.8152 
    5200    295.58885   -7326.5431    34.362675   -7360.9057    -12800.67 
    5400    355.38667   -7306.2981    41.314267   -7347.6124    12412.695 
    5600     356.5275   -7320.0182     41.44689   -7361.4651    15991.338 
    5800    288.52791   -7324.8979    33.541829   -7358.4398    10565.144 
    6000    328.06548   -7323.1973    38.138134   -7361.3354    16703.491 
    6200    354.90042   -7319.8903    41.257739   -7361.1481    10886.186 
    6400    255.23693   -7329.2896    29.671699   -7358.9613    4953.5471 
    6600    275.43865   -7330.3125    32.020181   -7362.3327   -21952.572 
    6800     354.8521   -7315.6931    41.252121   -7356.9452    631.44113 
    7000    274.82858   -7325.5655     31.94926   -7357.5148    1490.6316 
    7200    269.47565   -7338.7124    31.326974   -7370.0393    13103.077 
    7400    318.54123    -7326.931    37.030925   -7363.9619   -7508.1865 
    7600    306.53184   -7318.5844    35.634815   -7354.2192   -11699.501 
    7800    391.56266   -7314.3682    45.519782    -7359.888   -8384.9483 
    8000    292.58882   -7331.0907    34.013916   -7365.1046    25759.204 
    8200    308.00455   -7324.0274    35.806019   -7359.8334    8337.1367 
    8400    353.01003   -7317.2085    41.037978   -7358.2465   -26057.542 
    8600    253.43912   -7330.9301    29.462701   -7360.3928     2279.426 
    8800    284.78749   -7328.7539    33.106999   -7361.8609    -10384.36 
    9000    361.18015    -7317.548    41.987768   -7359.5358    6918.8645 
    9200    414.12449   -7319.3286    48.142631   -7367.4713    15582.921 
    9400    275.44464   -7333.7678    32.020878   -7365.7887    -236.9436 
    9600    358.99985   -7314.2407    41.734304    -7355.975   -1747.1715 
    9800    351.76868   -7320.2321    40.893669   -7361.1257   -2939.4302 
   10000    271.50417   -7330.9347    31.562792   -7362.4975   -6218.7757 
   10200    291.31552   -7316.5921    33.865893    -7350.458    196.76559 
   10400    291.68822   -7318.0287     33.90922   -7351.9379    -13397.26 
   10600    317.87041   -7324.5113    36.952941   -7361.4642    2789.5746 
   10800    255.42921   -7333.3878    29.694052   -7363.0819    8256.2415 
   11000    241.29034   -7331.4205    28.050386   -7359.4709   -8126.6215 
   11200    289.91972    -7320.275    33.703629   -7353.9787   -1404.3124 
   11400    295.96117   -7327.5569    34.405957   -7361.9629   -10101.377 
   11600    224.52338   -7330.4562    26.101201   -7356.5574    8345.2685 
   11800    300.55528   -7320.2469     34.94003   -7355.1869    10694.177 
   12000    296.69297   -7327.8262     34.49103   -7362.3172   -2846.9787 
   12200    229.53003   -7332.2454    26.683231   -7358.9287    10895.738 
   12400    377.82806     -7316.64    43.923114   -7360.5631    3788.7599 
   12600    299.66543   -7323.9191    34.836583   -7358.7557   -7723.9422 
   12800    217.36813   -7338.7878    25.269391   -7364.0571    17612.897 
   13000    304.43384   -7331.2609    35.390919   -7366.6519    22084.268 
   13200     342.3708   -7318.9128    39.801151    -7358.714   -1734.5859 
   13400    281.79606   -7323.2996     32.75924   -7356.0588   -3106.4496 
   13600    268.09152   -7334.4647    31.166066   -7365.6308    -22078.93 
   13800    280.89754   -7318.7213    32.654786   -7351.3761   -6409.4405 
   14000    273.27269   -7322.7207    31.768386    -7354.489    20936.641 
   14200    280.45737   -7331.8822    32.603616   -7364.4858    10208.809 
   14400    339.77403    -7309.601    39.499271   -7349.1003    1154.7876 
   14600    295.34025   -7323.4957    34.333774   -7357.8294   -5600.2865 
   14800    300.24103   -7325.5566    34.903497   -7360.4601    10526.473 
   15000    399.77416   -7308.3275    46.474383   -7354.8019   -4635.9585 
   15200    301.78987    -7326.489    35.083553   -7361.5726    1762.4497 
   15400    293.98847     -7319.89    34.176628   -7354.0667    23126.389 
   15600    304.56627   -7316.7373    35.406314   -7352.1436    13981.937 
   15800    240.40609   -7330.2612    27.947591   -7358.2088   -18773.361 
   16000    270.23673    -7317.472     31.41545   -7348.8874   -34754.572 
   16200    299.99421   -7320.0367    34.874805   -7354.9115   -14642.636 
   16400    293.04746   -7325.7461    34.067234   -7359.8133    797.43527 
   16600    274.02239   -7321.1764    31.855538    -7353.032    16805.322 
   16800    375.53297   -7315.1874    43.656305   -7358.8437    542.52595 
   17000    282.03673   -7328.3239    32.787219   -7361.1112   -36196.759 
   17200    349.59915   -7318.3697    40.641457   -7359.0112    14426.082 
   17400     311.8998    -7323.525    36.258849   -7359.7838    18796.256 
   17600    273.73378   -7331.8591    31.821987   -7363.6811   -9949.5531 
   17800    266.06131   -7318.8115    30.930051   -7349.7416   -7770.7312 
   18000     284.6683   -7326.7083    33.093143   -7359.8014   -22638.073 
   18200      270.347   -7333.0222    31.428269   -7364.4505    8739.2344 
   18400     303.1122   -7323.0805    35.237276   -7358.3177    30533.578 
   18600    378.09576   -7316.0725    43.954234   -7360.0267   -16027.264 
   18800    328.93757   -7311.5263    38.239516   -7349.7658    -12261.51 
   19000    252.53111   -7328.9744    29.357144   -7358.3315   -20385.253 
   19200    310.66819   -7320.1029    36.115672   -7356.2186   -576.45537 
   19400    307.96036   -7315.4298    35.800882   -7351.2307    2240.5845 
   19600    302.70689   -7325.1507    35.190158   -7360.3409   -4192.9416 
   19800    275.49315   -7325.8957    32.026517   -7357.9222     9736.689 
   20000    326.69292   -7311.9223    37.978572   -7349.9008   -13190.119 
   20200    282.97681    -7327.712    32.896504   -7360.6085   -764.20403 
   20400    335.11552   -7322.7656    38.957713   -7361.7234    1419.4834 
   20600    320.83855   -7306.3494    37.297992   -7343.6474    28662.246 
   20800    330.92821   -7321.0267    38.470932   -7359.4976   -13966.138 
   21000     262.6578   -7326.8137    30.534387   -7357.3481    -23165.83 
   21200    284.56331   -7316.6434    33.080937   -7349.7243    15819.414 
   21400    291.56122    -7316.536    33.894456   -7350.4305   -3893.0744 
   21600    266.63138   -7328.6324    30.996322   -7359.6287   -24832.444 
   21800    306.05021   -7318.0816    35.578824   -7353.6604   -31170.801 
   22000    325.77782   -7318.1918    37.872191    -7356.064    5207.5875 
   22200    271.19831   -7327.6752    31.527235   -7359.2024    15321.529 
   22400    373.40367   -7316.2315    43.408771   -7359.6403   -9813.3165 
   22600     307.2429   -7328.9094    35.717476   -7364.6269    5964.0778 
   22800    236.83897   -7327.9841    27.532907    -7355.517    11894.496 
   23000    332.60358   -7324.6209    38.665696   -7363.2866   -3606.2699 
   23200    278.33451   -7318.9698    32.356829   -7351.3266   -8055.6719 
   23400     252.5469   -7317.3054    29.358979   -7346.6644    -15636.88 
   23600    266.21296   -7332.0841    30.947681   -7363.0318    5462.2985 
   23800    271.23822   -7324.4034    31.531875   -7355.9352     3992.806 
   24000    320.34144   -7319.4874    37.240203   -7356.7276    12904.563 
   24200    321.11275   -7323.8253    37.329868   -7361.1551    19574.649 
   24400    258.21381   -7333.1876    30.017767   -7363.2054   -10931.864 
   24600    331.78566   -7324.9891    38.570611   -7363.5597    1177.7635 
   24800    342.61728   -7318.1494    39.829804   -7357.9792    28313.245 
   25000    240.81256   -7331.5525    27.994844   -7359.5473   -624.61759 
   25200    283.57088    -7323.748    32.965566   -7356.7136   -27301.336 
   25400    249.88841   -7317.9719    29.049925   -7347.0218   -2962.5591 
   25600    243.97548   -7329.2534    28.362538   -7357.6159   -16888.755 
   25800    339.52214   -7319.7324    39.469989   -7359.2024   -25300.397 
   26000     295.4876   -7318.0176    34.350904   -7352.3685    17137.319 
   26200    297.23422   -7328.4765    34.553951   -7363.0305    35577.329 
   26400    425.73289   -7311.4343    49.492126   -7360.9264    7543.9971 
   26600    284.42846   -7321.9393    33.065261   -7355.0046     32594.77 
   26800    304.69497   -7326.1656    35.421275   -7361.5869   -13846.188 
   27000    307.53523   -7310.1332     35.75146   -7345.8846    -11507.23 
   27200    297.67318   -7320.5018    34.604981   -7355.1068   -37837.311 
   27400    319.86637   -7323.1971    37.184975   -7360.3821   -5919.6742 
   27600    357.60804   -7306.0945    41.572504    -7347.667    18474.931 
   27800    306.30052   -7325.4357    35.607923   -7361.0436    -9091.881 
   28000    342.52615   -7320.0791     39.81921   -7359.8983    14528.579 
   28200    322.51939   -7315.1792    37.493392   -7352.6726   -130.95376 
   28400    287.60859   -7330.5914    33.434956   -7364.0264    17488.616 
   28600    323.20092   -7317.7473    37.572621   -7355.3199    5055.0415 
   28800    283.10873   -7320.8508     32.91184   -7353.7627    8793.0682 
   29000     301.4318   -7324.6967    35.041926   -7359.7386   -1351.3538 
   29200    311.53819   -7318.8104     36.21681   -7355.0272   -7877.7541 
   29400      317.947   -7316.5207    36.961845   -7353.4825   -1451.4176 
   29600    283.68672   -7327.4535    32.979033   -7360.4325   -5484.6018 
   29800    310.88691   -7316.6849    36.141098    -7352.826    128.11138 
   30000    289.28981     -7317.84    33.630401   -7351.4704    9858.0307 
   30200     241.4481   -7327.0213    28.068726     -7355.09   -6669.4821 
   30400    288.17199   -7316.6032    33.500453   -7350.1036   -34098.725 
   30600    261.81321   -7321.4658    30.436203    -7351.902    7672.3312 
   30800    260.08172   -7330.7362    30.234914   -7360.9711    24348.991 
   31000    240.02711   -7322.2582    27.903534   -7350.1618    10178.551 
   31200    299.31444   -7323.3138     34.79578   -7358.1096   -8943.1806 
   31400    263.57299   -7327.2925    30.640779   -7357.9333    3016.4792 
   31600    238.17595   -7333.6801    27.688333   -7361.3684    4360.0308 
   31800        287.7   -7319.0547    33.445583   -7352.5003   -1723.5167 
   32000    250.18232   -7325.2604    29.084093   -7354.3445   -12405.068 
   32200    251.86508   -7335.1584    29.279717   -7364.4381    -8823.161 
   32400    259.77671   -7317.6215    30.199456   -7347.8209   -15572.281 
   32600     293.4727   -7327.3222    34.116669   -7361.4388    -14283.66 
   32800    268.65684    -7323.157    31.231786   -7354.3888    13708.794 
   33000    358.17556   -7314.1311    41.638479   -7355.7696    1714.6364 
   33200    276.29959   -7323.8613    32.120267   -7355.9815   -4393.7677 
   33400    321.07129   -7321.2804    37.325049   -7358.6055   -7992.2022 
   33600    359.82417   -7318.2475    41.830133   -7360.0776    2071.1797 
   33800    225.93717   -7329.9263    26.265555   -7356.1919   -9790.7236 
   34000    355.81919   -7314.3184    41.364547   -7355.6829   -10835.023 
   34200    349.32225   -7323.2744    40.609268   -7363.8837    1569.3096 
   34400    257.45421   -7325.8978    29.929462   -7355.8272    6911.8428 
   34600    363.64387   -7316.1028    42.274178    -7358.377   -4203.7581 
   34800    309.38944   -7309.3481    35.967015   -7345.3151   -3530.8654 
   35000    271.36151   -7326.5695    31.546208   -7358.1157    17505.561 
   35200    317.93484   -7319.1398    36.960431   -7356.1002   -6399.7594 
   35400    344.48038     -7318.41    40.046393   -7358.4564    2270.3331 
   35600    268.67021   -7329.4187     31.23334    -7360.652    11883.699 
   35800    371.40257   -7318.1572     43.17614   -7361.3333    6734.3751 
   36000    268.11719    -7334.332    31.169051    -7365.501   -21541.607 
   36200    241.59119   -7328.4646    28.085361     -7356.55   -10334.667 
   36400    321.75622   -7319.0065    37.404672   -7356.4112   -10773.906 
   36600    244.42663   -7330.6984    28.414985   -7359.1134    11927.685 
   36800    254.94588   -7328.0676    29.637865   -7357.7055    23681.336 
   37000    291.58156   -7320.9839    33.896821   -7354.8808    1040.9607 
   37200    285.41759   -7327.1709     33.18025   -7360.3512   -27349.276 
   37400    199.81954   -7337.6485     23.22934   -7360.8778    6825.6796 
   37600    309.87219   -7321.1982    36.023136   -7357.2214    20541.825 
   37800    305.19767   -7323.5075    35.479716   -7358.9872    -4285.963 
   38000    248.40943   -7336.0834    28.877992   -7364.9614   -523.57923 
   38200    288.46815   -7321.6203    33.534881   -7355.1552    929.01332 
   38400    282.64535   -7323.1404    32.857971   -7355.9983   -4813.9159 
   38600    278.40431   -7332.1794    32.364944   -7364.5443   -11302.019 
   38800    341.46197   -7324.2508    39.695498   -7363.9463     -18722.4 
   39000    292.26245    -7320.211    33.975975   -7354.1869   -4489.8566 
   39200    245.77226   -7333.1204    28.571416   -7361.6919    15140.309 
   39400    353.73477    -7320.866    41.122231   -7361.9883   -5614.3864 
   39600    338.27101    -7320.784    39.324543   -7360.1086    1223.4559 
   39800    281.16928   -7326.6873    32.686377   -7359.3736    10312.781 
   40000    312.83631   -7311.3134    36.367719   -7347.6811    8225.2014 
   40200    272.94439   -7326.5715     31.73022   -7358.3017   -33914.165 
   40400    305.11617    -7319.381    35.470241   -7354.8513   -35104.008 
   40600    316.55193   -7319.5964    36.799665    -7356.396    15592.813 
   40800    292.01941   -7332.0404    33.947721   -7365.9881    19920.742 
   41000    276.82966   -7319.3567    32.181889   -7351.5386    6159.4579 
   41200    320.89706   -7320.6843    37.304794   -7357.9891   -5382.1482 
   41400    227.68573   -7335.1934    26.468829   -7361.6622   -2039.6566 
   41600    338.29076   -7321.4142    39.326839    -7360.741    9393.1289 
   41800     252.9907   -7319.9376    29.410572   -7349.3482   -2626.1617 
   42000    279.62824   -7336.3928    32.507228   -7368.9001   -15328.345 
   42200    251.08256   -7325.9138    29.188747   -7355.1026   -22303.949 
   42400     228.9319   -7322.1955    26.613698   -7348.8092   -9618.3713 
   42600    323.10154   -7311.7391    37.561069   -7349.3002    3967.7787 
   42800    266.46148   -7320.9342    30.976571   -7351.9107    16073.325 
   43000     330.2434   -7327.7333    38.391321   -7366.1246    3055.1829 
   43200    294.18586   -7313.8346    34.199575   -7348.0342    3921.0072 
   43400    318.50873   -7324.0532    37.027147   -7361.0804   -3211.1596 
   43600    275.19264   -7326.6127    31.991582   -7358.6042   -25131.544 
   43800    310.59527   -7316.8203    36.107194   -7352.9275   -10195.775 
   44000    270.79302   -7326.9697     31.48012   -7358.4498    16430.697 
   44200    272.43303   -7328.1047    31.670774   -7359.7754    12640.638 
   44400    330.28423   -7315.5378    38.396068   -7353.9338   -297.73359 
   44600    292.31977    -7322.334    33.982639   -7356.3166    1107.3294 
   44800    209.30572   -7326.6563    24.332123   -7350.9884    2843.5319 
   45000    254.89977   -7333.2655    29.632504    -7362.898   -16353.401 
   45200    319.50614    -7322.482    37.143097   -7359.6251   -974.41815 
   45400    286.90036   -7320.0593    33.352624   -7353.4119    3001.3331 
   45600    269.09469   -7337.0234    31.282686    -7368.306    11001.327 
   45800    271.29067   -7333.1525    31.537972   -7364.6905    4774.2433 
   46000    300.55826   -7321.5979    34.940376   -7356.5383   -17240.417 
   46200    329.36974   -7319.7758    38.289757   -7358.0656   -8923.0824 
   46400    243.84122   -7335.3396     28.34693   -7363.6865   -19856.235 
   46600    259.08732      -7326.3    30.119314   -7356.4193   -3401.3498 
   46800    325.38626   -7322.3064    37.826671   -7360.1331    8423.3572 
   47000    290.55286   -7320.1663    33.777232   -7353.9435    5559.0831 
   47200    325.11815   -7322.6776    37.795503   -7360.4731     10450.98 
   47400    272.57964   -7331.5187    31.687817   -7363.2066    -12208.58 
   47600    333.08153   -7314.5565    38.721258   -7353.2777     11986.54 
   47800    286.53469   -7326.3536    33.310114   -7359.6638    4297.8278 
   48000    277.84766   -7328.1374    32.300232   -7360.4376    8385.4966 
   48200    318.24235   -7313.8359     36.99618    -7350.832    18227.077 
   48400    282.59367   -7327.5318    32.851963   -7360.3838   -16960.705 
   48600    326.79674   -7322.8197    37.990641   -7360.8103   -13174.306 
   48800    313.86653   -7316.0901    36.487484   -7352.5776    8553.1681 
   49000    282.45835   -7326.4017    32.836233    -7359.238    13401.883 
   49200    276.53333   -7324.9824     32.14744   -7357.1298    18896.042 
   49400    284.71323      -7325.3    33.098367   -7358.3984    881.97993 
   49600    334.08811   -7316.0601    38.838274   -7354.8984   -6963.1478 
   49800    361.58167   -7317.2484    42.034445   -7359.2828    1420.4889 
   50000    282.75406   -7327.7681     32.87061   -7360.6387   -6315.5555 
   50200    349.95705   -7318.5408    40.683064   -7359.2239    2215.0148 
   50400    315.62385   -7311.5829    36.691775   -7348.2746    4875.7967 
   50600    262.04721   -7329.9572    30.463406   -7360.4206   -26326.065 
   50800    270.35949   -7321.7625    31.429721   -7353.1922   -15372.246 
   51000    376.27737    -7305.392    43.742843   -7349.1348    11036.987 
   51200    304.33999   -7323.2372    35.380009   -7358.6173    9621.5621 
   51400     278.3444   -7328.5895     32.35798   -7360.9475   -5093.3048 
   51600    366.03453   -7315.0964    42.552096   -7357.6485   -572.14368 
   51800    291.99915   -7323.8353    33.945366   -7357.7806   -2845.6573 
   52000    304.25217   -7327.6441    35.369799   -7363.0139   -3984.3807 
   52200    340.16293   -7316.9384    39.544483   -7356.4829    20244.914 
   52400    239.52759   -7334.0204    27.845464   -7361.8659    23546.075 
   52600       312.61   -7324.1562     36.34141   -7360.4976    13814.277 
   52800    314.86506   -7324.7195    36.603564   -7361.3231   -9343.7345 
   53000    227.29091   -7338.6163     26.42293   -7365.0393   -28837.267 
   53200    283.19803    -7324.969    32.922222   -7357.8912   -24758.898 
   53400    303.82096   -7325.9322     35.31967   -7361.2519    20513.826 
   53600    254.31268   -7322.5194    29.564254   -7352.0836    54425.769 
   53800    387.72603    -7311.081    45.073768   -7356.1548    6187.6882 
   54000    367.64135   -7323.0103    42.738893   -7365.7492   -895.52727 
   54200    281.54281   -7327.4815      32.7298   -7360.2113    9568.0113 
   54400    314.31257   -7313.2593    36.539337   -7349.7987   -10632.804 
   54600    324.60813   -7326.6077    37.736212   -7364.3439   -30151.973 
   54800    232.44995   -7326.7894    27.022677   -7353.8121    1733.3216 
   55000    282.54727   -7319.0097     32.84657   -7351.8562    14193.521 
   55200    228.22076   -7333.8727    26.531027   -7360.4038   -1999.5031 
   55400     290.6054   -7327.5166    33.783341   -7361.2999   -6681.8392 
   55600    341.45854   -7318.5285    39.695099   -7358.2236   -1263.6402 
   55800    288.84637   -7328.5272    33.578851    -7362.106    16497.691 
   56000    311.28782   -7331.2858    36.187705   -7367.4735   -63.545354 
   56200    335.54629   -7321.6388    39.007791   -7360.6466   -9483.2346 
   56400    336.54637    -7320.609    39.124051    -7359.733    10197.476 
   56600    261.87861   -7329.7421    30.443805   -7360.1859   -1567.8539 
   56800    281.87211   -7329.6573    32.768082   -7362.4254    13206.354 
   57000    308.75387   -7317.8551    35.893129   -7353.7482    18233.534 
   57200    304.05831   -7325.1919    35.347263   -7360.5392   -20174.341 
   57400    244.13938   -7337.2595    28.381591   -7365.6411   -11070.141 
   57600    285.20257   -7326.4795    33.155252   -7359.6348    13439.846 
   57800    312.53784   -7318.6953    36.333021   -7355.0283    12878.444 
   58000      323.731   -7327.6934    37.634245   -7365.3276    2669.9153 
   58200    301.87583   -7333.0171    35.093546   -7368.1106   -7228.1749 
   58400    295.29994   -7320.7094    34.329088   -7355.0385    1433.7358 
   58600    321.04201   -7318.7948    37.321645   -7356.1164   -3242.8686 
   58800    274.93783   -7334.4485    31.961961   -7366.4104    6830.4607 
   59000    327.21937   -7322.9226    38.039772   -7360.9623   -5170.4436 
   59200    249.09017   -7320.9132    28.957129   -7349.8703    15164.657 
   59400    340.31045   -7317.2195    39.561632   -7356.7812   -4156.1378 
   59600    271.78229   -7333.3561    31.595124   -7364.9512    4063.7802 
   59800    300.48938   -7322.4048    34.932369   -7357.3372   -9774.2972 
   60000     298.5019   -7319.8749    34.701321   -7354.5762   -1160.9509 
   60200    282.61775   -7328.4845    32.854763   -7361.3392    19771.684 
   60400    259.24841   -7330.5321     30.13804   -7360.6702    29800.303 
   60600    346.10812   -7316.6781     40.23562   -7356.9137    824.09913 
   60800    287.42043   -7325.8324    33.413082   -7359.2455    -7830.071 
   61000    253.82728    -7332.035    29.507826   -7361.5428   -9105.9339 
   61200    321.96025   -7325.9895    37.428392   -7363.4179   -3561.9752 
   61400     326.3129   -7315.3071    37.934395   -7353.2415   -6658.8167 
   61600    277.08631   -7331.4485    32.211725   -7363.6603    -1878.293 
   61800    306.27178   -7328.3892    35.604582   -7363.9938   -4357.1967 
   62000    298.99769   -7316.6487    34.758958   -7351.4076   -8053.5594 
   62200    264.94805    -7330.564    30.800633   -7361.3646    14739.684 
   62400    268.45324   -7329.6317    31.208117   -7360.8398    10013.266 
   62600    331.58219   -7321.4368    38.546958   -7359.9838   -6208.7763 
   62800    279.23739   -7321.2988    32.461791   -7353.7606    1664.5859 
   63000     345.6751    -7321.618    40.185281   -7361.8033    9870.7213 
   63200    258.68573   -7337.0781    30.072628   -7367.1508    3061.8446 
   63400    306.31803   -7322.0943    35.609958   -7357.7042   -3190.4503 
   63600    360.47396   -7315.8777    41.905672   -7357.7834     5225.817 
   63800     274.3344   -7331.6701     31.89181   -7363.5619   -20925.983 
   64000    256.20762   -7323.2849    29.784544   -7353.0695   -3347.5279 
   64200    333.04427   -7317.1976    38.716926   -7355.9145    3933.4207 
   64400    298.40699   -7324.5314    34.690287   -7359.2217    8851.5808 
   64600    263.41205   -7337.0829     30.62207   -7367.7049   -5118.4098 
   64800    300.57126   -7317.5828    34.941888   -7352.5247   -1861.0349 
   65000    308.83282   -7321.7245    35.902306   -7357.6268    5461.5897 
   65200    303.35953   -7329.1104    35.266029   -7364.3765   -6435.4928 
   65400    371.98926   -7310.5174    43.244344   -7353.7618   -334.16735 
   65600    247.21351   -7321.7275    28.738964   -7350.4664    35698.049 
   65800     282.1466    -7324.191    32.799991    -7356.991    14365.017 
   66000     321.3813   -7328.0657    37.361088   -7365.4268   -28779.354 
   66200    294.09259   -7325.5319    34.188732   -7359.7206   -20679.143 
   66400    339.64472   -7316.6598    39.484239    -7356.144   -5517.2136 
   66600    282.22273   -7334.9714    32.808841   -7367.7802   -2105.7698 
   66800    288.17369   -7326.9714     33.50065    -7360.472    15959.177 
   67000    294.19862   -7316.8022    34.201058   -7351.0033   -12985.438 
   67200    248.46822   -7330.6071    28.884826    -7359.492   -34419.915 
   67400    213.98455    -7329.139    24.876044   -7354.0151   -9738.6461 
   67600    285.92145   -7320.8951    33.238823    -7354.134    11945.934 
   67800    275.73366   -7322.3833    32.054477   -7354.4378    10994.049 
   68000    327.53559   -7314.4173    38.076534   -7352.4938    2326.3734 
   68200    286.39311   -7329.1948    33.293654   -7362.4885   -6429.4453 
   68400    302.17304   -7319.9133    35.128097   -7355.0414    5044.5097 
   68600    319.34085   -7317.4767    37.123883   -7354.6006    11119.933 
   68800     226.6061   -7332.9052    26.343319   -7359.2485   -2768.3065 
   69000    250.99784   -7320.3392    29.178899   -7349.5181    -10746.21 
   69200    293.41061   -7323.4121    34.109451   -7357.5215   -16345.375 
   69400    229.93759   -7330.9254    26.730611    -7357.656   -8040.4909 
   69600    282.80703   -7321.7832    32.876768     -7354.66   -29889.944 
   69800    294.89026   -7325.5843    34.281462   -7359.8658   -7951.1428 
   70000    231.92847   -7332.0665    26.962054   -7359.0285     15948.85 
   70200    324.54591   -7320.2535    37.728979   -7357.9825   -2885.2175 
   70400    265.74265   -7326.5574    30.893006   -7357.4504   -9137.1117 
   70600    306.70074   -7319.6169     35.65445   -7355.2713   -911.67836 
   70800    338.84098   -7319.3218    39.390803   -7358.7126   -4636.6376 
   71000    282.84448   -7327.7089    32.881121     -7360.59     4302.125 
   71200    316.66181   -7316.4589    36.812439   -7353.2714     10054.66 
   71400    402.13096   -7306.3402    46.748364   -7353.0885     11709.75 
   71600    295.89707   -7326.1901    34.398505   -7360.5886    9213.5837 
   71800    316.36699   -7323.3927    36.778167   -7360.1708   -13690.579 
   72000    305.79066   -7316.4187    35.548651   -7351.9674   -19280.685 
   72200    257.95867   -7331.1164    29.988106   -7361.1045   -14452.068 
   72400    304.56839   -7318.5846     35.40656   -7353.9911   -9400.5742 
   72600    285.87075    -7328.278     33.23293   -7361.5109   -1494.5696 
   72800     246.6103   -7334.2587    28.668841   -7362.9276    3205.7318 
   73000    309.40436   -7320.3474    35.968749   -7356.3162    14196.865 
   73200    247.18783   -7328.1083    28.735979   -7356.8443     19053.62 
   73400    299.14586   -7323.0466    34.776182   -7357.8227   -28386.698 
   73600    316.27271   -7317.3232    36.767207   -7354.0904   -18483.457 
   73800    248.11399   -7330.2399    28.843646   -7359.0836    13111.749 
   74000     277.1815   -7324.3688    32.222791   -7356.5916   -11246.143 
   74200    306.80993   -7317.1776    35.667143   -7352.8447     10584.45 
   74400     272.6037   -7325.6527    31.690614   -7357.3433    19469.435 
   74600    280.39668   -7329.3037    32.596561   -7361.9003    13004.479 
   74800    363.00186   -7314.8101    42.199545   -7357.0097    5506.4247 
   75000    246.16692   -7330.3705    28.617296   -7358.9878    396.93211 
   75200    269.52483   -7323.6832     31.33269   -7355.0159    7062.5416 
   75400    253.59893   -7323.3863     29.48128   -7352.8676   -19389.708 
   75600    205.78727   -7340.8183    23.923098   -7364.7414   -116.26146 
   75800     286.6232   -7326.6195    33.320403   -7359.9399    8189.6849 
   76000    293.87887   -7324.8218    34.163887   -7358.9857    7966.6215 
   76200    196.23564   -7329.3266    22.812705   -7352.1393    5258.4889 
   76400     317.4931   -7316.2757    36.909079   -7353.1848    -17690.85 
   76600    247.05687   -7330.4915    28.720754   -7359.2122   -5917.9998 
   76800    256.53488   -7325.2157    29.822588   -7355.0383    17077.407 
   77000    320.81147   -7317.7197    37.294844   -7355.0146    11404.525 
   77200    281.69282   -7328.3467    32.747238   -7361.0939    942.80327 
   77400     311.2608   -7325.7599    36.184563   -7361.9444   -7733.3313 
   77600    319.55025   -7320.4217    37.148225   -7357.5699   -9251.6612 
   77800    268.59556    -7322.828    31.224661   -7354.0527   -9008.1767 
   78000    259.42407   -7331.5108    30.158461   -7361.6692    11418.932 
   78200    309.22472   -7315.9722    35.947866   -7351.9201     20473.18 
   78400    242.52821   -7323.6796    28.194291   -7351.8738    10884.208 
   78600    281.61681   -7324.1645    32.738403   -7356.9029    15870.366 
   78800    325.18582    -7314.836    37.803369   -7352.6394    14050.818 
   79000    324.39233   -7321.0706    37.711125   -7358.7817   -10736.101 
   79200    303.11831   -7326.0488    35.237986   -7361.2868   -23946.744 
   79400    400.01876   -7306.4475    46.502817   -7352.9503   -11304.917 
   79600    331.06063   -7323.6123    38.486325   -7362.0987    -920.1302 
   79800    357.53948   -7319.9205    41.564534    -7361.485   -5209.2742 
   80000    336.57675   -7324.8429    39.127583   -7363.9705    13586.922 
   80200    252.88746   -7330.6361     29.39857   -7360.0347    50297.689 
   80400    328.33516   -7318.5502    38.169486   -7356.7197    31210.817 
   80600    288.42528   -7325.6671    33.529898    -7359.197   -9746.4784 
   80800     247.4745   -7333.5916    28.769304   -7362.3609   -27336.638 
   81000    337.08025   -7315.8312    39.186115   -7355.0173   -4491.0337 
   81200    273.07033   -7326.4347    31.744861   -7358.1795    5424.7876 
   81400    313.12861    -7328.257    36.401699   -7364.6587    3628.0571 
   81600    311.84399   -7314.1931    36.252361   -7350.4455    15201.413 
   81800    272.23692   -7328.2118    31.647976   -7359.8598    12990.972 
   82000    280.41908   -7324.3734    32.599165   -7356.9725   -38834.033 
   82200    256.54386   -7325.7897    29.823632   -7355.6133   -26735.236 
   82400    228.64686   -7334.6589    26.580562   -7361.2394    4042.7935 
   82600    321.57445   -7319.8465    37.383542   -7357.2301    3637.4742 
   82800    280.86258   -7327.7427    32.650722   -7360.3934    19574.436 
   83000     234.8061   -7319.8707    27.296583   -7347.1673    8843.8959 
   83200    369.85526   -7317.9697    42.996262    -7360.966   -7023.9566 
   83400    262.58992   -7331.0799    30.526497   -7361.6064   -9916.4123 
   83600    322.42588   -7315.8443    37.482522   -7353.3268    16165.792 
   83800    340.95584   -7320.2611     39.63666   -7359.8977    5258.8925 
   84000    255.11643   -7325.2418    29.657691   -7354.8995   -9351.8216 
   84200    277.78754   -7328.1097    32.293243   -7360.4029    -320.0435 
   84400    238.73995   -7330.0016    27.753899   -7357.7555   -6931.4348 
   84600    317.49509   -7317.6125     36.90931   -7354.5218   -16665.245 
   84800    226.53005    -7330.669    26.334478   -7357.0035    7426.9772 
   85000    282.44664   -7328.7621    32.834871   -7361.5969    21640.869 
   85200    320.07768   -7322.0882     37.20954   -7359.2977   -3446.0743 
   85400    352.33364    -7322.456    40.959346   -7363.4153   -13697.061 
   85600    302.35407   -7323.8432    35.149143   -7358.9924    12816.168 
   85800    251.17371   -7325.7462    29.199344   -7354.9455    13508.486 
   86000    277.30468   -7323.9331    32.237111   -7356.1702   -23090.249 
   86200    277.44025   -7314.3163     32.25287   -7346.5692   -10842.425 
   86400    274.09307   -7331.1233    31.863756    -7362.987    12312.909 
   86600    260.69056    -7323.393    30.305692   -7353.6987    15806.591 
   86800     324.4271   -7317.2261    37.715167   -7354.9413   -3383.0529 
   87000    246.83034   -7331.7746     28.69442    -7360.469    1662.9663 
   87200    378.73042   -7318.3656    44.028014   -7362.3936   -712.28981 
   87400    321.99563    -7321.963    37.432505   -7359.3955   -3360.7511 
   87600    278.97896   -7322.4591    32.431748   -7354.8908   -14630.879 
   87800    286.92927   -7322.5643    33.355984   -7355.9203   -5148.9943 
   88000    224.51032   -7334.3938    26.099682   -7360.4935    -3942.128 
   88200     322.4916   -7320.5137    37.490162   -7358.0039    20009.961 
   88400    284.82831   -7322.0337    33.111745   -7355.1455    20260.395 
   88600    296.37025   -7335.1798    34.453513   -7369.6333    2326.5898 
   88800    263.02727   -7333.0895    30.577338   -7363.6668   -13381.102 
   89000    311.92302   -7323.8244    36.261548    -7360.086    3096.9119 
   89200    312.47057    -7316.482    36.325201   -7352.8072   -1263.8536 
   89400    325.01249   -7328.5649     37.78322   -7366.3481   -4959.6024 
   89600    260.31113   -7328.0768    30.261584   -7358.3384   -3517.4245 
   89800    343.93419   -7315.2768    39.982898   -7355.2597   -14734.329 
   90000     275.7576   -7322.2249     32.05726   -7354.2822    188.81409 
   90200    255.02876   -7329.2904      29.6475   -7358.9379    12831.359 
   90400    259.57762   -7336.4656    30.176311   -7366.6419   -23093.041 
   90600     296.9649   -7320.7068    34.522643   -7355.2295   -115.20332 
   90800    334.13761   -7319.3546    38.844029   -7358.1986    8212.2601 
   91000    260.53943   -7333.9415    30.288124   -7364.2296    13023.029 
   91200     306.6078   -7321.8034    35.643645    -7357.447     16820.71 
   91400    269.10589   -7321.5786    31.283988   -7352.8626   -16892.434 
   91600    312.53662   -7324.1199    36.332879   -7360.4528   -23997.745 
   91800    236.64806   -7334.4921    27.510714   -7362.0028   -3633.8612 
   92000    291.66542   -7319.5254    33.906569   -7353.4319    19131.861 
   92200    274.27574   -7320.8527    31.884991   -7352.7377   -18510.652 
   92400    231.90067   -7337.1622    26.958822    -7364.121   -16433.097 
   92600    328.34053   -7322.5227    38.170109   -7360.6928    1433.1918 
   92800    288.26755   -7318.6122    33.511562   -7352.1237     22903.68 
   93000    288.52453   -7327.5538    33.541435   -7361.0952    21741.657 
   93200    292.82277   -7332.8172    34.041113   -7366.8583    724.85782 
   93400    323.58686   -7318.4395    37.617488    -7356.057   -18462.618 
   93600    328.70702   -7316.2711    38.212714   -7354.4838   -17813.462 
   93800    274.87255   -7331.4358    31.954372   -7363.3902    8425.6151 
   94000    303.66078   -7328.7621    35.301049   -7364.0632    6920.6184 
   94200    331.97342   -7311.7838    38.592439   -7350.3763   -8265.5941 
   94400    287.63113   -7320.9375    33.437577   -7354.3751    14925.896 
   94600    271.92101   -7331.4047     31.61125   -7363.0159    24663.522 
   94800    208.19885   -7344.5907    24.203448   -7368.7942   -8264.0835 
   95000    277.47813   -7327.4927    32.257275     -7359.75    -14929.54 
   95200     363.2506   -7316.3292    42.228461   -7358.5576   -12420.279 
   95400    331.35843   -7329.3828    38.520945   -7367.9038   -4528.3889 
   95600    335.00105   -7316.3696    38.944406    -7355.314    4928.9424 
   95800    341.54399   -7320.3857    39.705033   -7360.0908     802.6198 
   96000    233.47826   -7328.9716     27.14222   -7356.1138   -21135.095 
   96200    374.91938   -7312.7235    43.584974   -7356.3084   -1653.0849 
   96400    302.20067   -7318.1111    35.131308   -7353.2424    15504.499 
   96600    272.40184   -7328.0742    31.667148   -7359.7414    9757.9302 
   96800    264.66518   -7326.7841    30.767749   -7357.5519   -11846.101 
   97000    302.51232   -7315.4601    35.167539   -7350.6276   -382.48716 
   97200    313.82846   -7329.0622    36.483058   -7365.5453    -4365.165 
   97400    334.80594   -7325.9903    38.921723    -7364.912    9372.2138 
   97600    372.35119   -7322.6238    43.286419   -7365.9102    6471.5329 
   97800    327.64185   -7321.9238    38.088886   -7360.0127   -8831.7353 
   98000    372.24171   -7312.8611    43.273691   -7356.1348   -4693.7925 
   98200    229.60922   -7330.1933    26.692437   -7356.8857    6052.8684 
   98400    235.62608    -7324.845    27.391906   -7352.2369   -4315.4114 
   98600    317.22433   -7322.8265    36.877834   -7359.7043    -6522.696 
   98800    281.78316   -7328.2883    32.757741   -7361.0461    15281.433 
   99000    286.56888   -7330.6342    33.314089   -7363.9483    7784.6932 
   99200    362.23228   -7317.5972    42.110079   -7359.7072   -5621.4754 
   99400    286.30476   -7326.8145    33.283385   -7360.0979   -19884.505 
   99600    268.27745   -7337.2992     31.18768   -7368.4869    344.36389 
   99800       357.18   -7324.2111    41.522743   -7365.7338   -3628.9664 
  100000    316.88262   -7323.4959    36.838109    -7360.334    8176.9634 
  100200    416.00683   -7306.7458    48.361457   -7355.1072    22683.364 
  100400     325.5106   -7321.2152    37.841125   -7359.0563    26234.531 
  100600    342.73304   -7328.1484    39.843262   -7367.9916    1686.5198 
  100800    368.86207   -7311.7126    42.880803   -7354.5934    2297.3847 
  101000    321.74682   -7320.5686     37.40358   -7357.9722    10179.944 
  101200    360.18318   -7326.5792    41.871869   -7368.4511   -1594.9663 
  101400    307.20924   -7322.5646    35.713563   -7358.2782    2625.7748 
  101600    385.02103   -7302.6114    44.759308   -7347.3707   -5736.7479 
  101800    279.31209   -7321.7818    32.470475   -7354.2523   -19431.057 
  102000    295.62069   -7327.2953    34.366376   -7361.6617   -3767.8514 
  102200    261.26654   -7329.7285    30.372651   -7360.1012    15034.792 
  102400    315.15453   -7315.1181    36.637216   -7351.7553    18183.396 
  102600    295.93755    -7326.611    34.403212   -7361.0142    7526.9907 
  102800    317.32121    -7327.121    36.889095   -7364.0101   -22669.206 
  103000    333.77627   -7316.8325    38.802023   -7355.6345   -2747.4172 
  103200    310.55477   -7325.5881    36.102486   -7361.6906   -16594.158 
  103400    285.78761   -7329.6279    33.223264   -7362.8512    -101.9506 
  103600    340.00715   -7317.9508    39.526372   -7357.4772    21369.733 
  103800    301.80223   -7320.9197     35.08499   -7356.0047    14268.741 
  104000    299.64035   -7321.4086    34.833667   -7356.2422   -16782.673 
  104200    274.88665   -7332.4531     31.95601   -7364.4091   -4729.4391 
  104400    270.10533   -7326.7517    31.400174   -7358.1519    -9229.874 
  104600    307.99702   -7317.9161    35.805144   -7353.7213   -16422.848 
  104800    309.88564   -7328.0484    36.024699   -7364.0731   -15662.545 
  105000    217.15023   -7334.9327     25.24406   -7360.1768    22611.455 
  105200    322.58378   -7318.0986    37.500877   -7355.5995    17438.833 
  105400      333.187   -7321.7358    38.733519   -7360.4693   -357.79417 
  105600    275.75532   -7334.1977    32.056994   -7366.2547   -8971.7697 
  105800    293.32043   -7315.7477    34.098967   -7349.8467    27380.445 
  106000    260.16221   -7323.8298    30.244271   -7354.0741    15853.307 
  106200    272.75382    -7329.519    31.708065   -7361.2271   -469.22731 
  106400    256.96294   -7327.9898     29.87235   -7357.8622    14638.998 
  106600    273.93324   -7319.3042    31.845175   -7351.1494    8373.0753 
  106800    310.00849   -7314.6925     36.03898   -7350.7315   -7651.2186 
  107000    250.91637   -7330.6572    29.169428   -7359.8267   -18865.616 
  107200    297.35654   -7323.4904    34.568171   -7358.0586   -4269.9865 
  107400    333.05335   -7313.5468    38.717982   -7352.2648   -2230.0695 
  107600    244.45348   -7331.7282    28.418106   -7360.1463    10339.508 
  107800    317.46758   -7324.2082    36.906111   -7361.1143    23489.623 
  108000    294.67091     -7317.79    34.255962    -7352.046    6109.4059 
  108200     294.5287   -7314.0165     34.23943   -7348.2559   -8711.4329 
  108400    253.63024   -7330.8432    29.484919   -7360.3281    -12257.59 
  108600    222.39782    -7330.623    25.854101   -7356.4771   -22436.013 
  108800    285.45395   -7315.3018    33.184476   -7348.4863   -22834.957 
  109000    309.85559   -7320.2953    36.021205   -7356.3165    3019.5868 
  109200    284.64631   -7333.3192    33.090587   -7366.4098    29559.321 
  109400    281.35845   -7327.6631    32.708368   -7360.3715    17889.754 
  109600    379.74308   -7315.3909    44.145738   -7359.5367   -56.672762 
  109800    239.57769   -7329.2511    27.851288   -7357.1024    15626.439 
  110000    251.93318   -7330.9228    29.287634   -7360.2105   -19003.621 
  110200    237.42954   -7317.8833    27.601562   -7345.4848    -26873.79 
  110400    278.20433   -7317.5869    32.341696   -7349.9286   -28804.371 
  110600    286.28111    -7326.593    33.280634   -7359.8737   -3066.9019 
  110800    281.85362   -7327.3944    32.765932   -7360.1603    4637.6665 
  111000    306.38049   -7313.2191     35.61722   -7348.8363    19054.896 
  111200    259.82702   -7325.3003    30.205305   -7355.5056    15846.144 
  111400     243.3476   -7332.5518    28.289546   -7360.8414    -1589.525 
  111600    289.85312   -7319.5907    33.695887   -7353.2866   -11538.122 
  111800    284.75609    -7319.654    33.103348   -7352.7574   -41236.507 
  112000    238.77294   -7333.0794    27.757735   -7360.8371    10829.975 
  112200    294.87523   -7325.4387    34.279714   -7359.7184    18831.096 
  112400    300.29813   -7322.1238    34.910136   -7357.0339    6592.6515 
  112600    332.29865   -7321.4344    38.630247   -7360.0647    -2621.797 
  112800    246.78172   -7327.2273    28.688767    -7355.916    7917.9191 
  113000    249.76884   -7329.9475    29.036025   -7358.9835    7345.1005 
  113200    323.33029   -7315.6899    37.587661   -7353.2775   -25005.616 
  113400    284.52479    -7329.107     33.07646   -7362.1834   -20350.407 
  113600    230.78232   -7327.7489    26.828812   -7354.5777    9050.5872 
  113800    277.99632   -7321.5176    32.317514   -7353.8351    10939.285 
  114000    276.17268   -7323.1697    32.105514   -7355.2752    23777.873 
  114200    258.82485    -7332.378    30.088801   -7362.4668   -798.25077 
  114400     302.4062   -7320.4186    35.155202   -7355.5738   -15722.453 
  114600    262.40097   -7322.2572    30.504531   -7352.7617   -300.98066 
  114800    252.22628   -7330.5276    29.321707   -7359.8493   -1844.1289 
  115000    270.64878    -7320.864    31.463351   -7352.3274   -12889.517 
  115200    289.78674   -7324.7519     33.68817     -7358.44    6438.5245 
  115400    308.97027   -7318.9472    35.918286   -7354.8655   -6164.1276 
  115600    349.73827   -7314.3297     40.65763   -7354.9873   -5720.7024 
  115800    235.41904   -7330.5777    27.367838   -7357.9455    8733.4532 
  116000    295.64307   -7319.8197    34.368978   -7354.1887    3457.1714 
  116200    278.21968   -7322.7185    32.343481    -7355.062     7322.608 
  116400    286.53015   -7327.4485    33.309586    -7360.758   -12382.945 
  116600    317.52149   -7313.7423    36.912379   -7350.6547   -20615.852 
  116800    268.99002   -7322.4448    31.270518   -7353.7153    1498.1402 
  117000    274.57857   -7327.5736    31.920196   -7359.4938    8008.8195 
  117200    298.54345   -7317.2305    34.706152   -7351.9366   -12317.087 
  117400    343.90655   -7318.0222    39.979684   -7358.0019   -36063.942 
  117600    253.72868   -7325.9621    29.496363   -7355.4585    7462.4508 
  117800    310.46699   -7320.5029    36.092281   -7356.5952    11106.688 
  118000    286.23438   -7325.4689    33.275203   -7358.7441    1506.8675 
  118200    280.85972   -7329.2419    32.650389   -7361.8923   -9431.6946 
  118400    338.71178   -7315.1904    39.375784   -7354.5662   -30802.164 
  118600    228.54112   -7326.5332    26.568269   -7353.1015   -2623.1144 
  118800    243.86764   -7325.1286    28.350001   -7353.4786   -8640.7451 
  119000    231.71941    -7324.707     26.93775   -7351.6448   -11352.734 
  119200    206.11416   -7339.2222    23.961099   -7363.1833   -13928.997 
  119400    264.40508   -7326.8313    30.737512   -7357.5688    17373.771 
  119600    291.80003   -7319.7846    33.922218   -7353.7068    46002.365 
  119800    269.87342   -7327.9803    31.373214   -7359.3535     15832.03 
  120000    297.88411   -7326.0261    34.629502   -7360.6556    791.68092 
  120200    334.79289   -7317.8057    38.920207   -7356.7259    -15951.26 
  120400    258.56445   -7323.6231    30.058529   -7353.6816   -2246.7943 
  120600    268.77896   -7321.1437    31.245981   -7352.3897   -19734.575 
  120800    228.00342    -7337.159     26.50576   -7363.6648   -27818.134 
  121000    287.43771   -7325.0862    33.415092   -7358.5013    14565.892 
  121200    385.12159   -7318.6358    44.770998   -7363.4068    13886.331 
  121400    250.11538   -7334.8995    29.076311   -7363.9758    11975.573 
  121600    307.60514   -7329.5936    35.759588   -7365.3532    8477.3927 
  121800    354.12362   -7321.8877    41.167435   -7363.0552    21225.505 
  122000    357.19974   -7316.2958    41.525038   -7357.8208    7388.1759 
  122200    321.27514    -7319.384    37.348746   -7356.7327    4575.5823 
  122400    259.87942   -7328.6932    30.211396   -7358.9046   -13495.298 
  122600    307.76304   -7314.2282    35.777943   -7350.0061   -16752.086 
  122800    287.48386   -7320.4931    33.420457   -7353.9136   -6323.9174 
  123000    308.85464   -7326.0061    35.904844   -7361.9109    -20939.05 
  123200    338.07811   -7311.8963    39.302118   -7351.1984    16482.847 
  123400    319.38037   -7324.1852    37.128476   -7361.3137    4362.8259 
  123600    257.04996   -7325.0435    29.882467   -7354.9259   -5050.5579 
  123800    323.22638   -7312.5673    37.575581   -7350.1429    3432.4449 
  124000    289.99883   -7322.3087    33.712825   -7356.0215   -4418.1056 
  124200    292.16673   -7325.4507    33.964848   -7359.4155   -20822.359 
  124400    348.97893   -7313.3962    40.569357   -7353.9656    3861.5532 
  124600    281.77024   -7325.3674    32.756239   -7358.1237    13905.859 
  124800    345.73328   -7323.4844    40.192044   -7363.6764     9593.792 
  125000    338.33916   -7316.4247    39.332466   -7355.7571   -10251.703 
  125200    253.61649    -7330.687    29.483321   -7360.1703   -2639.8396 
  125400    290.95781   -7317.0973    33.824309   -7350.9216    2430.3581 
  125600    318.74721   -7326.8098    37.054871   -7363.8647   -8213.6404 
  125800    315.24436   -7327.5461    36.647659   -7364.1938   -14896.375 
  126000    352.06372   -7318.0572    40.927968   -7358.9851   -1320.7108 
  126200    275.03365   -7328.6394      31.9731   -7360.6125   -239.35502 
  126400    243.23677   -7329.4661    28.276661   -7357.7427    6465.9059 
  126600    267.09766   -7320.6014    31.050528   -7351.6519    6494.7157 
  126800    314.32711    -7325.037    36.541027    -7361.578   -3039.0018 
  127000    266.66701   -7336.3928    31.000464   -7367.3933    25206.051 
  127200    294.76628   -7324.7866    34.267049   -7359.0537    18685.819 
  127400    332.04562   -7321.7268    38.600832   -7360.3276   -20222.151 
  127600    276.43152   -7328.6943    32.135604   -7360.8299   -7263.0924 
  127800    348.08689   -7328.8513    40.465656   -7369.3169   -12483.389 
  128000    296.53059   -7317.6411    34.472154   -7352.1132   -13541.834 
  128200    235.78438   -7325.4941     27.41031   -7352.9044   -6793.2837 
  128400    251.06385   -7338.2074    29.186573   -7367.3939   -12335.374 
  128600    333.18744   -7325.1327    38.733571   -7363.8663    10080.318 
  128800    309.10047   -7319.1205    35.933422   -7355.0539    21673.454 
  129000    402.03739   -7300.6718    46.737486   -7347.4093    17794.184 
  129200    350.83718   -7321.1285     40.78538   -7361.9139   -3747.7251 
  129400    271.76293   -7329.4173    31.592873   -7361.0102   -31796.063 
  129600    297.19321   -7315.2879    34.549184   -7349.8371    17888.155 
  129800    314.33856    -7326.275    36.542358   -7362.8173    15305.838 
  130000    291.32244   -7326.9987    33.866697   -7360.8654   -17267.165 
  130200    289.89765   -7318.0937    33.701064   -7351.7948   -1308.7206 
  130400     310.2723   -7312.4504    36.069649     -7348.52   -14010.479 
  130600     289.9272   -7329.0472    33.704498   -7362.7517   -16327.375 
  130800    262.36997   -7318.9298    30.500926   -7349.4307    3710.9141 
  131000    292.50764   -7319.4423    34.004479   -7353.4468    33298.769 
  131200    303.34463    -7323.492    35.264296   -7358.7563    27020.022 
  131400    341.48376   -7320.3942    39.698031   -7360.0922    7159.9351 
  131600    339.26732    -7318.934    39.440367   -7358.3744    -18024.56 
  131800    241.08549   -7330.7631    28.026572   -7358.7897   -21517.795 
  132000    337.02216   -7314.0894    39.179362   -7353.2688    -1230.975 
  132200     263.5112   -7322.7265    30.633596     -7353.36    4380.3372 
  132400    289.29061   -7324.5691    33.630494   -7358.1996   -11681.392 
  132600    378.35605   -7304.9431    43.984493   -7348.9276    38910.836 
  132800    337.28241   -7318.5962    39.209617   -7357.8058    18586.196 
  133000    306.04427   -7323.8184    35.578134   -7359.3966   -301.31109 
  133200    336.04004    -7329.013     39.06519   -7368.0782   -29613.584 
  133400     305.2191    -7330.414    35.482206   -7365.8962    9.7572645 
  133600    339.92994   -7315.4048    39.517397   -7354.9222    23023.883 
  133800    312.51309   -7323.5234    36.330144   -7359.8535    25028.096 
  134000    237.45226    -7339.884    27.604203   -7367.4882    3337.6653 
  134200    246.15709     -7330.65    28.616154   -7359.2662   -9976.9795 
  134400    303.33183   -7317.3528    35.262809   -7352.6156    5243.3417 
  134600    248.11146   -7326.4757    28.843352   -7355.3191   -2330.6184 
  134800     232.9829   -7331.5081    27.084633   -7358.5927    8106.0056 
  135000    310.09113   -7322.7679    36.048588   -7358.8165    33697.329 
  135200    374.08922   -7319.1567    43.488467   -7362.6452   -9549.1655 
  135400    366.01145   -7311.0786    42.549414    -7353.628   -25471.628 
  135600     287.2936    -7327.273    33.398339   -7360.6714   -19722.143 
  135800     298.6704    -7319.954    34.720909   -7354.6749   -17004.137 
  136000    339.40761   -7316.4353    39.456675   -7355.8919    8841.8924 
  136200    284.00048   -7327.6595    33.015508    -7360.675    16875.668 
  136400    346.91995    -7320.825    40.329997    -7361.155    4083.6999 
  136600     305.8904   -7322.7526    35.560246   -7358.3128    7301.8973 
  136800    260.35129   -7332.6022    30.266252   -7362.8684   -5283.4755 
  137000    301.68142    -7315.717    35.070945    -7350.788   -1213.9985 
  137200    302.28272   -7321.5118    35.140848   -7356.6526   -23493.562 
  137400    284.43763   -7320.9847    33.066328    -7354.051   -2201.3091 
  137600    306.53394   -7315.6275    35.635059   -7351.2626    5586.3955 
  137800    246.67975   -7330.2496    28.676913   -7358.9265   -7157.7403 
  138000    307.89164   -7316.3958    35.792893   -7352.1887   -14353.894 
  138200    295.62882   -7321.6612    34.367321   -7356.0285    5116.3541 
  138400     239.4562   -7328.2006    27.837164   -7356.0377    5577.7828 
  138600    365.00433   -7309.6477    42.432334     -7352.08    12235.043 
  138800    313.09108   -7322.7372    36.397337   -7359.1345    19114.635 
  139000    306.21265   -7325.9945    35.597708   -7361.5922    24469.907 
  139200    329.59488   -7312.3666    38.315929   -7350.6826   -13545.322 
  139400    324.61109   -7321.6668    37.736556   -7359.4033   -23327.201 
  139600    292.59257   -7324.4433    34.014352   -7358.4577    200.80235 
  139800    325.63229   -7324.5453    37.855272   -7362.4006   -2397.2245 
  140000     285.8689    -7327.664    33.232714   -7360.8967    1795.7364 
  140200    320.09498   -7312.3578    37.211551   -7349.5693    38157.485 
  140400    305.43221   -7325.3316    35.506981   -7360.8386    8304.3576 
  140600     328.3682   -7323.8649    38.173326   -7362.0382     -33804.9 
  140800    346.63334   -7314.5012    40.296678   -7354.7979    4984.3467 
  141000    290.09553   -7322.4155    33.724067   -7356.1396     11820.15 
  141200    304.01466   -7327.6531    35.342188   -7362.9952    7639.2698 
  141400    325.64345    -7312.088    37.856569   -7349.9445    5311.3937 
  141600    304.76233   -7324.6737    35.429106   -7360.1028   -4606.8833 
  141800    291.75439   -7324.0858    33.916912   -7358.0028   -9006.7067 
  142000    358.43889   -7316.9462    41.669091   -7358.6153   -10282.858 
  142200    237.34431   -7331.1168    27.591654   -7358.7085    7901.4454 
  142400    363.43992   -7317.7621    42.250469   -7360.0125    100.48323 
  142600    269.68662   -7325.0898    31.351499   -7356.4413    16490.193 
  142800    256.72882   -7325.7682    29.845134   -7355.6133    -11260.39 
  143000    314.54191   -7320.0979    36.565998   -7356.6639   -36486.862 
  143200      244.414   -7327.5344    28.413517   -7355.9479   -13085.944 
  143400    231.06188   -7337.6459    26.861311   -7364.5072    33917.708 
  143600    297.58188   -7322.0259    34.594368   -7356.6202    13202.567 
  143800    327.72641   -7322.4526    38.098717   -7360.5513   -5285.1776 
  144000    244.30602   -7332.2453    28.400964   -7360.6463   -7192.7545 
  144200     378.1654   -7316.7206     43.96233    -7360.683    73.688003 
  144400    274.31045   -7325.7228    31.889026   -7357.6118    9549.6858 
  144600    250.87932   -7327.7483     29.16512   -7356.9134    9376.3195 
  144800    269.48079   -7323.6158     31.32757   -7354.9433   -34146.352 
  145000    227.11618   -7326.2393    26.402618    -7352.642   -19808.604 
  145200    214.93538   -7333.0301     24.98658   -7358.0166    18098.135 
  145400    307.14287   -7318.4265    35.705847   -7354.1323   -8263.6021 
  145600    304.30294   -7326.3576    35.375702   -7361.7333   -9964.9555 
  145800    238.47749   -7339.9478    27.723388   -7367.6712   -2784.0734 
  146000     313.3854   -7323.7298    36.431552   -7360.1614    8666.5161 
  146200     315.9071   -7321.4632    36.724704   -7358.1879    20360.245 
  146400     366.3164   -7312.7904    42.584865   -7355.3753   -2736.3433 
  146600    287.90252   -7328.8568    33.469126   -7362.3259   -8187.5422 
  146800     261.6929   -7328.5433    30.422217   -7358.9655    22265.252 
  147000    286.22663   -7316.6368    33.274302   -7349.9111    18071.659 
  147200    278.59965   -7323.5142    32.387652   -7355.9019   -11552.581 
  147400    250.36286   -7335.9604    29.105081   -7365.0655   -27978.361 
  147600    324.82692    -7323.497    37.761646   -7361.2586   -7122.7269 
  147800    326.09897   -7317.0119    37.909525   -7354.9214    15487.993 
  148000    306.65374   -7330.5319    35.648985   -7366.1809     24014.62 
  148200    316.51039   -7329.3433    36.794837   -7366.1381   -1111.3319 
  148400    267.68544   -7318.4599    31.118859   -7349.5788    5338.0439 
  148600    356.03336   -7319.0015    41.389445    -7360.391   -34571.894 
  148800    249.95161   -7335.5167    29.057273    -7364.574   -11107.691 
  149000    276.63332   -7328.7968    32.159064   -7360.9559     18905.47 
  149200    301.64945   -7319.9767    35.067229   -7355.0439     17408.03 
  149400     280.2251   -7323.8763    32.576614   -7356.4529   -1354.1042 
  149600    229.71002   -7334.8485    26.704155   -7361.5527   -16832.119 
  149800    237.49372   -7322.5573    27.609023   -7350.1663   -1526.3096 
  150000    310.89068   -7321.6686    36.141536   -7357.8101   -16376.389 
  150200    267.49944   -7326.3309    31.097235   -7357.4281    28890.066 
  150400    282.58446   -7332.2226    32.850893   -7365.0735    9715.0414 
  150600     275.0662   -7316.5365    31.976883   -7348.5134   -5583.3576 
  150800    327.90218   -7322.1442    38.119151   -7360.2633   -32435.544 
  151000    288.76242   -7324.7394    33.569091   -7358.3085    7311.8585 
  151200    289.33249   -7324.3997    33.635362   -7358.0351    906.81563 
  151400    322.28443   -7315.1731    37.466079   -7352.6391   -17156.641 
  151600    307.70332   -7324.5897       35.771   -7360.3607    24836.731 
  151800    234.27265   -7328.9899    27.234569   -7356.2245    308.53843 
  152000    314.23914   -7311.1161      36.5308   -7347.6469   -13321.464 
  152200    292.53181   -7321.7394    34.007288   -7355.7467   -2350.7427 
  152400    247.30787    -7327.108    28.749934    -7355.858    25340.234 
  152600    231.03077   -7339.8424    26.857695      -7366.7   -4127.3121 
  152800    284.53675   -7325.6659     33.07785   -7358.7438    16254.847 
  153000    323.49755   -7319.9121    37.607105   -7357.5192    9208.8827 
  153200    258.95976   -7327.6328    30.104484   -7357.7373   -2130.9366 
  153400    231.20973   -7332.6357    26.878499   -7359.5142    808.61719 
  153600    276.65041   -7318.9115    32.161051   -7351.0725   -9250.9069 
  153800    267.72002   -7326.4003    31.122878   -7357.5231   -9390.3004 
  154000    259.53826   -7337.2252    30.171736    -7367.397    17830.151 
  154200    314.66891   -7321.3739    36.580762   -7357.9547    8493.2485 
  154400    274.39308   -7320.8741    31.898632   -7352.7727     10367.43 
  154600    262.88176   -7335.2347    30.560423   -7365.7951   -4241.5755 
  154800       284.25   -7326.4842    33.044515   -7359.5287    8997.5993 
  155000     311.3167   -7322.2344    36.191062   -7358.4254   -5125.9409 
  155200    316.45537   -7315.8109     36.78844   -7352.5994    14901.195 
  155400      324.066   -7319.3386    37.673189   -7357.0118    11241.877 
  155600    283.75788   -7328.7986    32.987305   -7361.7859    9466.5308 
  155800    284.92192   -7316.0852    33.122627   -7349.2078    12339.699 
  156000    300.82711   -7321.6945    34.971631   -7356.6662   -10130.099 
  156200     276.9696   -7327.3772    32.198157   -7359.5754   -3038.7691 
  156400     289.2973   -7318.5537    33.631272    -7352.185   -24449.664 
  156600    316.37672   -7315.0662    36.779297   -7351.8455    8555.7085 
  156800     265.2643   -7328.5047    30.837397   -7359.3421    5757.4599 
  157000    285.80789   -7321.0372    33.225623   -7354.2628    5648.0111 
  157200    301.33634   -7313.0995    35.030829   -7348.1303    -8869.126 
  157400    296.98228   -7329.2133    34.524663    -7363.738   -9529.5706 
  157600    322.73716   -7325.1063    37.518709    -7362.625     16958.02 
  157800    345.81724    -7312.178    40.201804   -7352.3798    17064.033 
  158000    274.49157   -7321.1462    31.910082   -7353.0563   -3746.1039 
  158200    268.26091   -7326.1117    31.185758   -7357.2975   -24232.585 
  158400    203.81103   -7341.5643    23.693357   -7365.2577   -14719.331 
  158600    253.98489     -7328.73    29.526148   -7358.2562   -2963.0198 
  158800    308.43105   -7318.9723    35.855601   -7354.8279    3462.5763 
  159000    268.34589   -7332.7792    31.195637   -7363.9748    5196.9143 
  159200    295.57689   -7327.9577    34.361283    -7362.319   -1641.0639 
  159400    300.53125   -7323.3939    34.937236   -7358.3311    1057.4704 
  159600    328.84449   -7324.1619    38.228695   -7362.3906   -5843.8466 
  159800    257.04795   -7329.4509    29.882233   -7359.3331     3209.533 
  160000    369.29786   -7316.3175    42.931464    -7359.249    13326.902 
  160200    241.28794   -7329.0095    28.050107   -7357.0596    30586.373 
  160400    253.29585   -7326.5055    29.446046   -7355.9516   -12412.328 
  160600    274.98889   -7317.2408    31.967896   -7349.2087   -37320.381 
  160800    272.88436   -7326.0717    31.723242   -7357.7949   -14217.057 
  161000      275.106   -7324.1097     31.98151   -7356.0912   -327.40436 
  161200    300.75648   -7321.1374    34.963419   -7356.1009   -4390.1149 
  161400    284.45928   -7333.0369    33.068844   -7366.1057    17668.016 
  161600     326.3509   -7318.5813    37.938811   -7356.5201    -4162.403 
  161800    314.09009   -7323.8525    36.513473    -7360.366    4828.9747 
  162000      263.984   -7327.5883    30.688561   -7358.2769    6795.9926 
  162200    370.76725    -7310.392    43.102283   -7353.4943    5700.6939 
  162400    267.06083   -7327.4316    31.046246   -7358.4779   -2431.1111 
  162600     308.7124   -7323.9779    35.888307   -7359.8662   -10617.049 
  162800    275.87964   -7311.5636    32.071447   -7343.6351    25024.564 
  163000    295.17612   -7323.2422    34.314694   -7357.5569    10386.842 
  163200    298.38997   -7323.7645    34.688309   -7358.4528    2609.4572 
  163400    322.90034   -7325.8494    37.537678   -7363.3871    1783.1936 
  163600    313.76723   -7324.5721     36.47594    -7361.048    6653.9636 
  163800    357.29871   -7314.4051    41.536544   -7355.9416    13726.756 
  164000    246.97942   -7333.1888     28.71175   -7361.9006   -19984.401 
  164200    293.62683   -7323.6114    34.134587    -7357.746   -25275.933 
  164400    231.98389   -7318.8499    26.968496   -7345.8184   -3588.7361 
  164600    225.32627   -7335.6311    26.194537   -7361.8257    544.78428 
  164800     285.5794   -7326.5403     33.19906   -7359.7393   -12357.644 
  165000    338.50526   -7321.7396    39.351775   -7361.0914   -6834.5248 
  165200    300.23064   -7329.5384     34.90229   -7364.4407    20696.505 
  165400    332.06619   -7325.7671    38.603223   -7364.3704    21354.311 
  165600    307.91637   -7319.3931    35.795768   -7355.1888    16673.721 
  165800    223.70579    -7323.638    26.006155   -7349.6442    26641.725 
  166000    316.76652   -7321.5023    36.824613   -7358.3269   -8279.8466 
  166200    217.38751   -7338.3027    25.271644   -7363.5743   -7466.6058 
  166400    270.69922   -7326.4756    31.469216   -7357.9449   -3210.2818 
  166600    284.55954    -7320.681      33.0805   -7353.7615   -14846.969 
  166800    254.96974   -7330.2273    29.640639    -7359.868   -1652.5402 
  167000    287.75318   -7329.9067    33.451766   -7363.3584    10713.875 
  167200     325.6547    -7321.763    37.857877   -7359.6209     23765.71 
  167400    309.15377   -7323.5002    35.939618   -7359.4398    8825.6627 
  167600    262.93862   -7329.9932    30.567033   -7360.5603    3122.3074 
  167800    277.10072   -7321.3784    32.213399   -7353.5918   -3889.1137 
  168000    315.07031   -7316.4318    36.627425   -7353.0592   -26480.356 
  168200     236.3039   -7331.0139    27.470704   -7358.4846   -9597.7022 
  168400     314.9653   -7323.9334    36.615218   -7360.5487    27836.116 
  168600    294.45385   -7318.8768    34.230729   -7353.1075    7459.2396 
  168800    240.18147   -7332.6192    27.921478   -7360.5407    1805.2269 
  169000    331.87407   -7317.7808    38.580889   -7356.3617    13606.596 
  169200    300.14123   -7323.7764    34.891896   -7358.6683    7437.1065 
  169400    275.77704    -7322.529     32.05952   -7354.5886   -9910.0775 
  169600    341.03657   -7311.6493    39.646045   -7351.2954   -13158.416 
  169800    292.61753   -7328.3346    34.017254   -7362.3519   -4925.9471 
  170000    289.48696   -7320.6985     33.65332   -7354.3518    914.50989 
  170200    327.29009   -7316.2944    38.047994   -7354.3424    6000.6081 
  170400    283.10935   -7328.1349    32.911913   -7361.0468   -14388.531 
  170600    333.98714   -7319.8495    38.826536   -7358.6761     1291.851 
  170800    336.02043   -7315.3322     39.06291   -7354.3951    3079.1998 
  171000    300.87941    -7326.967    34.977711   -7361.9447    19313.128 
  171200    354.44965   -7318.3753    41.205336   -7359.5807    12775.222 
  171400    372.14989   -7314.4943    43.263017   -7357.7573   -15111.238 
  171600    321.71333   -7323.4268    37.399687   -7360.8265    11673.685 
  171800    296.94963   -7325.8287    34.520867   -7360.3496    7352.9754 
  172000    335.96586   -7317.5628    39.056566   -7356.6193   -4429.3146 
  172200    312.80522    -7325.897    36.364104   -7362.2611   -16410.142 
  172400    266.34287   -7328.1215    30.962782   -7359.0843   -29823.231 
  172600    329.05052    -7318.054    38.252647   -7356.3067   -213.16981 
  172800     278.8636   -7322.8392    32.418337   -7355.2575    29222.171 
  173000    384.60381   -7318.3921    44.710805   -7363.1029    19051.393 
  173200    363.77747   -7321.1499     42.28971   -7363.4396   -16369.603 
  173400    280.77306   -7329.5752    32.640315   -7362.2155   -12928.505 
  173600    361.04512   -7317.6767     41.97207   -7359.6488    10011.422 
  173800    301.30712   -7323.3067    35.027432   -7358.3341    3738.9302 
  174000    265.22809   -7327.1202    30.833188   -7357.9534   -13140.303 
  174200    327.77103   -7310.8265    38.103904   -7348.9304   -4104.1609 
  174400    312.51576    -7326.193    36.330455   -7362.5235    13468.347 
  174600    305.41926   -7324.1737    35.505475   -7359.6792    16249.832 
  174800    431.53342   -7305.6282    50.166447   -7355.7946    12714.123 
  175000    331.72285   -7324.9167    38.563309     -7363.48   -13884.985 
  175200    325.69187   -7324.8403    37.862198   -7362.7025    5968.8326 
  175400    366.74621   -7312.9796    42.634831   -7355.6144    10546.644 
  175600    278.60999   -7328.9309    32.388855   -7361.3198    8974.4066 
  175800    283.61891   -7324.9453     32.97115   -7357.9164    7647.3712 
  176000    303.77052   -7321.0763    35.313806   -7356.3901   -20851.661 
  176200    228.10091   -7334.4533    26.517094   -7360.9704   -13733.595 
  176400    283.28573    -7319.439    32.932417   -7352.3714   -39559.942 
  176600    305.89142   -7325.2792    35.560365   -7360.8395   -27917.531 
  176800    243.05248   -7334.7745    28.255238   -7363.0297    3413.0173 
  177000    355.54612   -7317.1323    41.332802   -7358.4651    4115.4094 
  177200    287.51472   -7329.7091    33.424044   -7363.1332    19524.964 
  177400    288.15937   -7320.1455    33.498986   -7353.6445    15278.274 
  177600    331.39282   -7319.2176    38.524943   -7357.7426   -21144.976 
  177800    291.49085   -7328.6006    33.886275   -7362.4869   -19595.759 
  178000    273.72389    -7325.352    31.820838   -7357.1729   -4504.6702 
  178200    337.53599   -7322.7064    39.239097   -7361.9455   -2217.8669 
  178400    340.67788   -7319.6927    39.604346   -7359.2971   -6739.9326 
  178600    313.36588   -7325.2682    36.429282   -7361.6975    14391.134 
  178800    306.26458   -7331.5721    35.603745   -7367.1758    9332.9199 
  179000    334.24623   -7314.1882    38.856656   -7353.0449     -11130.9 
  179200     269.2392   -7324.3872    31.299486   -7355.6867    12930.307 
  179400    270.19525   -7325.5568    31.410628   -7356.9674    8514.4235 
  179600    276.08476   -7324.0877    32.095293    -7356.183   -7048.5798 
[...]
  950000    318.03447    -7319.037    36.972014    -7356.009    22841.445 
  950200     313.4821   -7323.9745    36.442793   -7360.4173    -1674.738 
  950400    232.38529   -7334.0471     27.01516   -7361.0623    6893.9852 
  950600    283.05156   -7321.6558    32.905194    -7354.561   -14098.404 
  950800    313.45047   -7324.2517    36.439116   -7360.6908   -21174.769 
  951000    240.52423   -7333.9628    27.961324   -7361.9241    18189.541 
  951200    288.13964    -7322.296    33.496691   -7355.7927   -7201.1738 
  951400    292.34573   -7325.2384    33.985656   -7359.2241   -6263.1176 
  951600    263.95705   -7335.2747    30.685427   -7365.9601   -326.84228 
  951800    304.76146   -7320.2993    35.429004   -7355.7283   -30767.267 
  952000    275.60333   -7323.6089    32.039326   -7355.6482    5728.6876 
  952200    255.84914   -7337.1934    29.742869   -7366.9362    7252.0165 
  952400    278.11762   -7327.3186    32.331616   -7359.6502    29945.116 
  952600    279.67843   -7320.6808    32.513063   -7353.1939    4506.7884 
  952800    296.55057   -7324.0751    34.474476   -7358.5496    -14886.05 
  953000    269.23777    -7331.439     31.29932   -7362.7383   -19153.454 
  953200    307.16154    -7323.013    35.708017    -7358.721   -6184.5164 
  953400    306.32846   -7314.7877    35.611171   -7350.3988    10009.364 
  953600    245.58832   -7332.8035    28.550033   -7361.3535   -3849.2591 
  953800    286.61057   -7326.0601    33.318935    -7359.379    7831.3747 
  954000     333.4148   -7309.4972    38.760001   -7348.2572   -5860.7837 
  954200    331.40456   -7304.7132    38.526308   -7343.2395   -7847.0503 
  954400    278.57018   -7326.5747    32.384227    -7358.959   -6141.7412 
  954600    264.80192    -7333.083    30.783645   -7363.8666    5770.5713 
  954800    290.57159   -7316.2559     33.77941   -7350.0353    6152.6809 
  955000    333.59464   -7320.8364    38.780908   -7359.6173    4935.0616 
  955200    260.46362   -7332.2146     30.27931   -7362.4939    8249.8737 
  955400    295.57851   -7325.2768    34.361472   -7359.6382   -23055.953 
  955600     276.2053   -7319.9129    32.109306   -7352.0222    131.17243 
  955800    268.77319   -7324.7839    31.245312   -7356.0293   -11613.345 
  956000     294.2315   -7328.2317    34.204881   -7362.4366   -1717.8875 
  956200    262.48531   -7319.9786    30.514335    -7350.493     15124.32 
  956400    318.83284   -7317.3585    37.064826   -7354.4233    20057.661 
  956600    270.17694   -7331.2864      31.4085   -7362.6949   -4378.0735 
  956800    340.28432   -7318.7991    39.558594   -7358.3577   -17455.242 
  957000    325.70655   -7319.5471    37.863905    -7357.411   -10604.746 
  957200    347.21634   -7326.1578    40.364452   -7366.5223    1391.7405 
  957400    271.92142    -7320.526    31.611298   -7352.1373    7754.6528 
  957600    360.66604   -7314.9602    41.928002   -7356.8882   -6574.6844 
  957800    248.23844   -7327.6156    28.858114   -7356.4737    -25768.06 
  958000     296.1976   -7324.9146    34.433442   -7359.3481   -11316.021 
  958200    303.64213    -7322.419    35.298881   -7357.7179   -7594.0303 
  958400    299.84257     -7322.83    34.857176   -7357.6872    27069.433 
  958600    289.21185    -7325.592    33.621338   -7359.2133   -20123.203 
  958800    290.60902   -7328.2256    33.783761   -7362.0094   -643.00819 
  959000    291.44436   -7313.9305    33.880871   -7347.8113     7841.665 
  959200     251.3725   -7326.5373    29.222453   -7355.7597    -23884.64 
  959400    262.36987   -7327.6949    30.500915   -7358.1958   -5550.2944 
  959600    282.49326   -7318.7139    32.840291   -7351.5541    15140.422 
  959800    337.14618   -7323.1801     39.19378   -7362.3739    14688.718 
  960000    295.25085   -7330.9663    34.323381   -7365.2897    4993.9648 
  960200    344.85031   -7315.3523    40.089398   -7355.4417   -1418.0441 
  960400    329.53237    -7321.431    38.308662   -7359.7397    12305.062 
  960600     306.5527   -7325.0325    35.637239   -7360.6697    19952.771 
  960800     268.7677   -7335.5218    31.244673   -7366.7665    27400.341 
  961000    258.92702   -7323.1575    30.100678   -7353.2582    10144.457 
  961200    298.94965   -7317.2465    34.753373   -7351.9999   -49697.787 
  961400     191.9668   -7332.8583    22.316446   -7355.1748   -20460.011 
  961600    251.03112   -7325.4998    29.182768   -7354.6826    21533.041 
  961800    300.36325   -7316.9607    34.917706   -7351.8784    23039.664 
  962000    233.75773   -7327.6743    27.174708    -7354.849    14950.856 
  962200    279.94035   -7330.0285    32.543512    -7362.572     -10165.5 
  962400    288.69962   -7317.4019    33.561791   -7350.9637   -7948.4024 
  962600    305.83145   -7324.0233    35.553393   -7359.5767   -6788.4074 
  962800     300.9174   -7329.9055    34.982127   -7364.8876   -22279.154 
  963000    346.44744   -7322.5524    40.275067   -7362.8275   -14291.524 
  963200    323.57688   -7321.6833    37.616327   -7359.2996    15794.327 
  963400    349.06885   -7319.6477     40.57981   -7360.2276    11499.384 
  963600    276.60175   -7331.4675    32.155393   -7363.6229     2767.733 
  963800    279.75201   -7324.2657    32.521617   -7356.7873    3894.0195 
  964000      318.953   -7319.2637    37.078794   -7356.3425    1222.1229 
  964200    228.39762    -7330.497    26.551587   -7357.0486    11868.242 
  964400    302.46824   -7325.3518    35.162415   -7360.5142   -19651.066 
  964600    386.26454   -7313.2124    44.903868   -7358.1163   -26365.967 
  964800    309.84309   -7328.2517    36.019752   -7364.2714    11018.198 
  965000    342.47656   -7326.2625    39.813445    -7366.076    17038.022 
  965200    327.99526   -7322.5388    38.129971   -7360.6688   -3142.5774 
  965400     312.9296    -7315.695    36.378565   -7352.0735   -6603.5844 
  965600    283.54682   -7317.4965    32.962769   -7350.4593    6894.3008 
  965800    223.44468    -7328.966      25.9758   -7354.9418    -20485.85 
  966000    404.78919   -7312.9791    47.057388   -7360.0365   -24147.663 
  966200    254.07171   -7317.5785     29.53624   -7347.1147    37056.574 
  966400    336.97531   -7324.4264    39.173917   -7363.6003    13446.338 
  966600    290.28027   -7324.3735    33.745543    -7358.119   -2788.2441 
  966800    320.28972   -7318.4617    37.234189   -7355.6959   -21822.809 
  967000     254.5839   -7326.4514    29.595783   -7356.0471   -2909.1612 
  967200    270.55306   -7329.2328    31.452224   -7360.6851    12549.203 
  967400    396.57736   -7315.8032     46.10275   -7361.9059   -3369.4744 
  967600    257.70415   -7326.9408    29.958517   -7356.8993   -9204.8847 
  967800    305.65378   -7324.9054    35.532738   -7360.4382   -2357.8325 
  968000    250.99195   -7324.3314    29.178214   -7353.5097    13214.374 
  968200    261.57512   -7331.5038    30.408524   -7361.9123    -822.6625 
  968400    248.94009   -7320.6274    28.939682    -7349.567   -21991.966 
  968600    309.99143   -7321.2839    36.036997   -7357.3209   -3639.9788 
  968800    239.87386   -7327.9984    27.885718   -7355.8842   -828.95467 
  969000    336.06215   -7322.8853    39.067759   -7361.9531     2289.835 
  969200    336.10519   -7319.0426    39.072763   -7358.1154   -4979.7581 
  969400    267.26115   -7333.6308    31.069534   -7364.7003    12691.814 
  969600    259.35158   -7321.6266    30.150034   -7351.7766   -9552.5946 
  969800    326.10899   -7322.1052    37.910689   -7360.0159    -14646.32 
  970000    274.76482     -7331.57    31.941848   -7363.5119   -23116.088 
  970200    288.70341   -7331.2249    33.562231   -7364.7871    29875.454 
  970400    327.84649   -7317.3876    38.112677   -7355.5003    44562.706 
  970600    270.26701    -7327.378     31.41897    -7358.797   -1760.6533 
  970800    271.44591   -7330.8647    31.556019   -7362.4207   -19138.209 
  971000    332.99172    -7320.209    38.710818   -7358.9198    312.83404 
  971200    284.50424   -7328.3026     33.07407   -7361.3766   -1474.4028 
  971400    290.91365   -7321.8372    33.819175   -7355.6564    9203.6332 
  971600    344.68228   -7318.1942    40.069864   -7358.2641   -1475.9056 
  971800     257.3395   -7328.2345    29.916127   -7358.1507    9607.8374 
  972000    319.56846   -7320.2525    37.150343   -7357.4028   -11076.929 
  972200    338.95393   -7322.2125    39.403934   -7361.6164   -17763.738 
  972400    275.47212   -7331.0034    32.024073   -7363.0275    11470.522 
  972600    344.42546   -7317.6132    40.040008   -7357.6532    3293.1056 
  972800    320.85091   -7322.7825    37.299429   -7360.0819    19795.627 
  973000    289.39728   -7324.5913    33.642894   -7358.2342   -11424.201 
  973200    352.43426   -7321.0708    40.971043   -7362.0419   -19910.546 
  973400    342.17784    -7309.163    39.778719   -7348.9417   -14547.152 
  973600    259.06223   -7325.6312    30.116397   -7355.7476   -5489.2282 
  973800     283.4969   -7322.1463    32.956966   -7355.1032    3709.0924 
  974000    369.81704   -7315.5463    42.991819   -7358.5381    8721.6922 
  974200    283.13834   -7330.4845    32.915283   -7363.3998   -9826.5927 
  974400    341.54091   -7320.0048    39.704675   -7359.7094   -4794.1534 
  974600    274.09734   -7320.6177    31.864252    -7352.482   -5117.2017 
  974800    220.00539   -7329.3998    25.575977   -7354.9758     4360.237 
  975000    296.64324   -7318.0404    34.485249   -7352.5256   -8919.9228 
  975200     240.9626   -7333.7355    28.012286   -7361.7478   -7261.2025 
  975400    284.82298   -7326.1537    33.111125   -7359.2649    5916.5972 
  975600    316.14718    -7321.215    36.752613   -7357.9676    7635.9336 
  975800     230.0779   -7328.2705    26.746922   -7355.0174   -7936.3732 
  976000    252.44061    -7326.565    29.346622   -7355.9116   -6628.6274 
  976200    261.84343   -7318.3621    30.439716   -7348.8018    3391.2822 
  976400     299.8149   -7332.0169     34.85396   -7366.8709   -12679.316 
  976600    266.04425   -7325.9609    30.928067    -7356.889    4300.1344 
  976800    299.37176   -7323.6383    34.802444   -7358.4408    18403.311 
  977000     300.2622    -7325.648    34.905958   -7360.5539    17696.758 
  977200     352.6256   -7321.2672    40.993288   -7362.2605   -1865.2676 
  977400    351.67394   -7314.1362    40.882656   -7355.0189     9358.652 
  977600    251.34923   -7331.5563    29.219748    -7360.776    8860.2818 
  977800    352.59611   -7324.9911    40.989859    -7365.981   -29334.333 
  978000    348.09712   -7318.4365    40.466844   -7358.9034    -17412.56 
  978200    292.03925   -7334.0708    33.950027   -7368.0209    -10250.82 
  978400    340.73915   -7324.1288    39.611468   -7363.7403   -6415.5856 
  978600    298.64506   -7320.7853    34.717964   -7355.5033     14540.51 
  978800    294.19288   -7330.8929    34.200391   -7365.0933    32090.193 
  979000     341.4534   -7328.7228    39.694501   -7368.4173    13442.707 
  979200     342.5496   -7320.1808    39.821937   -7360.0028    -4115.875 
  979400    299.65582   -7322.1673    34.835466   -7357.0028    8986.1812 
  979600    281.19561   -7326.0596    32.689438    -7358.749    18590.471 
  979800    240.32399   -7330.1044    27.938047   -7358.0425   -16128.346 
  980000    352.56708   -7313.7323    40.986484   -7354.7188    -26683.72 
  980200      320.176   -7318.4084     37.22097   -7355.6294   -29035.447 
  980400    302.15749   -7326.2178     35.12629   -7361.3441   -22622.049 
  980600    233.96596   -7323.7099    27.198915   -7350.9088    24417.833 
  980800     315.9901   -7320.6401    36.734353   -7357.3745     15448.66 
  981000    292.78631   -7325.9063    34.036874   -7359.9432   -11977.376 
  981200    210.68395   -7338.1166    24.492344    -7362.609   -22064.277 
  981400    282.16171   -7324.2829    32.801748   -7357.0847   -1721.5037 
  981600    308.38761   -7323.7521    35.850551   -7359.6026    5795.2674 
  981800     274.1015   -7330.1494    31.864735   -7362.0141    20450.259 
  982000    261.35237   -7329.3284    30.382629    -7359.711    23514.612 
  982200    327.86578   -7319.5163    38.114919   -7357.6313    9649.8735 
  982400    222.65672    -7332.099    25.884198   -7357.9832   -3351.5773 
  982600     326.8151   -7322.9451    37.992776   -7360.9378   -10707.137 
  982800    258.30163   -7321.3047    30.027976   -7351.3327   -26476.352 
  983000    222.01739   -7331.5664    25.809875   -7357.3763    16242.827 
  983200    276.15681    -7318.411    32.103669   -7350.5147    669.62472 
  983400    282.13033   -7320.4014      32.7981   -7353.1995   -3207.3142 
  983600    268.61351   -7326.2641    31.226748   -7357.4908   -13381.101 
  983800     344.5953    -7320.402    40.059752   -7360.4617    4000.2273 
  984000    339.94536   -7310.9548    39.519189    -7350.474    12597.218 
  984200    330.79761   -7326.2952    38.455749   -7364.7509    6600.3721 
  984400    296.17185   -7323.3844    34.430449   -7357.8149   -2827.0919 
  984600    314.13813   -7311.6193    36.519057   -7348.1384   -6341.7438 
  984800    282.38876   -7324.7967    32.828143   -7357.6248   -19471.252 
  985000    317.66793   -7322.8098    36.929403   -7359.7392   -12830.987 
  985200    364.75934    -7317.062    42.403854   -7359.4659    15686.849 
  985400    314.03485   -7328.5934    36.507051   -7365.1004    6834.2343 
  985600    378.61287   -7320.6789    44.014349   -7364.6932    13928.466 
  985800    315.62389   -7317.8309     36.69178   -7354.5227    27755.748 
  986000     302.5262   -7324.2741    35.169153   -7359.4432    4351.7875 
  986200    374.59088   -7313.7294    43.546787   -7357.2762   -11739.352 
  986400    293.07487   -7329.4436    34.070421    -7363.514   -11947.198 
  986600    345.43188   -7325.0418    40.157006   -7365.1988     17130.03 
  986800    359.93972   -7317.0853    41.843566   -7358.9289   -2855.4565 
  987000    363.31541   -7324.0248    42.235995   -7366.2608   -5911.8788 
  987200    352.80193   -7322.9992    41.013786    -7364.013    1908.0683 
  987400    363.44791   -7308.1461    42.251398   -7350.3975    16911.714 
  987600    387.82091   -7323.0357    45.084798   -7368.1205    1507.9074 
  987800    304.94126   -7324.8202    35.449907   -7360.2701    21021.889 
  988000    345.49627   -7310.5246    40.164491   -7350.6891    6231.3703 
  988200    301.96473   -7325.8954    35.103881   -7360.9993   -15289.213 
  988400    284.25058   -7325.3187    33.044582   -7358.3632   -119.60593 
  988600    363.72328   -7312.1724     42.28341   -7354.4558    12278.502 
  988800    321.58778   -7322.6639    37.385091    -7360.049   -10329.812 
  989000    246.71865    -7328.225    28.681436   -7356.9064    11314.127 
  989200    319.46825   -7312.5122    37.138692   -7349.6509    -9141.025 
  989400    316.24838   -7320.6842    36.764378   -7357.4486    19144.937 
  989600    269.15129   -7328.5897    31.289266    -7359.879    4025.1639 
  989800    335.76337   -7315.6254    39.033027   -7354.6584   -780.81717 
  990000    278.59147   -7322.7519    32.386702   -7355.1386   -11008.938 
  990200    273.35078   -7327.4214    31.777463   -7359.1988   -22620.993 
  990400    356.57166   -7317.8163    41.452024   -7359.2683   -5690.3958 
  990600    221.64383   -7334.5584    25.766448   -7360.3249    19860.129 
  990800    337.02307   -7320.5992    39.179468   -7359.7787     869.9972 
  991000    308.96593    -7323.912    35.917781   -7359.8298   -2815.8039 
  991200    249.97266    -7332.407     29.05972   -7361.4667   -10964.424 
  991400    347.80934   -7312.5968     40.43339   -7353.0302   -6010.5258 
  991600    265.91371   -7328.3043    30.912892   -7359.2172    6447.7236 
  991800    324.78385   -7325.5689     37.75664   -7363.3255   -17464.711 
  992000    378.65767   -7314.1096    44.019558   -7358.1291   -20228.629 
  992200    313.07246   -7322.5087    36.395171   -7358.9039    29047.794 
  992400    333.52229   -7325.3793    38.772498   -7364.1518    1628.3269 
  992600    294.61221   -7320.2123    34.249138   -7354.4615   -15408.938 
  992800    306.82625   -7318.0576     35.66904   -7353.7267    10212.607 
  993000    289.04035   -7330.8617    33.601401   -7364.4631   -33248.371 
  993200    335.71813   -7318.8957    39.027767   -7357.9235   -17268.386 
  993400    319.75724   -7315.7814    37.172288   -7352.9537    11022.145 
  993600     241.8319   -7328.2097    28.113343    -7356.323    7672.1742 
  993800    383.18064   -7321.3874     44.54536   -7365.9328   -11343.007 
  994000    341.60629   -7314.7996    39.712275   -7354.5119     9515.392 
  994200    297.52004   -7327.8238    34.587178    -7362.411   -8072.5518 
  994400    323.10376   -7319.0983    37.561327   -7356.6596   -27276.066 
  994600    260.07152   -7325.6429    30.233729   -7355.8767   -16904.154 
  994800     274.1018   -7328.6409    31.864771   -7360.5057    1045.1294 
  995000    322.58004   -7318.8349    37.500443   -7356.3353    7139.8194 
  995200     323.5022   -7324.8746    37.607646   -7362.4822    12068.345 
  995400    278.50903   -7322.0821    32.377118   -7354.4592    511.20804 
  995600     377.3187   -7320.7454      43.8639   -7364.6093   -32828.683 
  995800    285.62932   -7326.1807    33.204863   -7359.3855   -1260.8815 
  996000      318.129   -7318.6355    36.983003   -7355.6185    8426.5428 
  996200     319.4931    -7315.582    37.141582   -7352.7236    2993.9608 
  996400    269.70797   -7328.8521    31.353981   -7360.2061    22840.075 
  996600    335.18935   -7318.4249    38.966295   -7357.3912   -4969.9355 
  996800     272.7594   -7314.5837    31.708715   -7346.2924   -13417.713 
  997000    302.93474    -7324.906    35.216646   -7360.1226    11605.081 
  997200    244.73417   -7331.1782    28.450737   -7359.6289   -8941.8598 
  997400    375.81581   -7312.7515    43.689186   -7356.4407   -18052.281 
  997600    332.55457   -7322.3889    38.659998   -7361.0489    3171.6228 
  997800    240.89645   -7327.5163    28.004595   -7355.5209    1775.4182 
  998000    351.36691   -7320.9258    40.846962   -7361.7727    14654.455 
  998200    366.21881   -7305.7643     42.57352   -7348.3378   -14180.216 
  998400    338.33436   -7322.4654    39.331908   -7361.7973    11704.907 
  998600    275.94296   -7326.6037    32.078809   -7358.6825    27741.452 
  998800    374.18573   -7311.1668    43.499687   -7354.6664    2689.0215 
  999000    334.46087   -7320.1229    38.881608   -7359.0045   -23603.783 
  999200    282.23774   -7323.0147    32.810587   -7355.8253   -2562.2342 
  999400    309.60295   -7325.9119    35.991836   -7361.9038    3798.0263 
  999600    268.27291   -7328.4536    31.187153   -7359.6408   -4583.7826 
  999800    385.32618   -7314.1644    44.794782   -7358.9592   -18890.006 
 1000000     296.5529   -7328.2624    34.474747   -7362.7372     9223.758 
Loop time of 6537.08 on 8 procs for 1000000 steps with 40 atoms

Performance: 3.304 ns/day, 7.263 hours/ns, 152.973 timesteps/s
99.4% CPU use with 8 MPI tasks x no OpenMP threads

MPI task timing breakdown:
Section |  min time  |  avg time  |  max time  |%varavg| %total
---------------------------------------------------------------
Pair    | 5225.1     | 5362.8     | 5527       | 128.2 | 82.04
Neigh   | 0          | 0          | 0          |   0.0 |  0.00
Comm    | 100.96     | 266.64     | 403.76     | 575.3 |  4.08
Output  | 0.44504    | 0.47172    | 0.5984     |   7.0 |  0.01
Modify  | 888.75     | 890.57     | 891.98     |   4.2 | 13.62
Other   |            | 16.58      |            |       |  0.25

Nlocal:    5 ave 5 max 5 min
Histogram: 8 0 0 0 0 0 0 0 0 0
Nghost:    484 ave 484 max 484 min
Histogram: 8 0 0 0 0 0 0 0 0 0
Neighs:    722 ave 722 max 722 min
Histogram: 8 0 0 0 0 0 0 0 0 0

Total # of neighbors = 5776
Ave neighs/atom = 144.4
Neighbor list builds = 0
Dangerous builds = 0

Please see the log.cite file for references relevant to this simulation

Total wall time: 1:49:02
