ITEM: TIMESTEP
0
ITEM: NUMBER OF ATOMS
201
ITEM: BOX BOUNDS pp pp pp
0.0000000000000000e+00 1.6114000000000001e+01
0.0000000000000000e+00 1.6113000000000000e+01
0.0000000000000000e+00 1.6111999999999998e+01
ITEM: ATOMS id type x y z 
5 1 5.384 5.384 5.384 
65 1 5.66 6.662 2.461 
66 1 5.336 7.323 3.711 
68 1 4.865 6.606 4.866 
79 1 5.364 7.322 1.219 
89 1 6.662 2.461 5.66 
90 1 7.323 3.711 5.336 
92 1 6.606 4.866 4.866 
101 1 7.322 1.219 5.364 
109 1 2.461 5.66 6.662 
110 1 3.71 5.336 7.323 
112 1 4.865 4.866 6.606 
121 1 1.218 5.364 7.322 
129 1 6.662 5.66 2.461 
130 1 7.323 5.336 3.711 
137 1 7.322 5.364 1.219 
141 1 2.461 6.662 5.66 
142 1 3.71 7.323 5.336 
149 1 1.218 7.322 5.364 
153 1 5.66 2.461 6.662 
154 1 5.336 3.711 7.323 
161 1 5.364 1.219 7.322 
7 1 6.662 5.66 13.616 
8 1 7.323 5.336 12.366 
10 1 6.606 4.866 11.211 
21 1 7.322 5.364 14.858 
32 1 1.218 7.322 10.713 
40 1 2.461 6.662 10.417 
41 1 3.71 7.323 10.741 
43 1 4.865 6.606 11.211 
47 1 5.364 1.219 8.755 
55 1 5.66 2.461 9.415 
56 1 5.336 3.711 8.754 
58 1 4.865 4.866 9.471 
64 1 5.629 6.643 16.094 
75 1 5.384 5.384 10.693 
118 1 6.643 5.629 16.094 
168 1 5.66 6.662 13.616 
169 1 5.336 7.323 12.366 
176 1 5.364 7.322 14.858 
182 1 7.322 1.219 10.713 
186 1 6.662 2.461 10.417 
187 1 7.323 3.711 10.741 
191 1 1.218 5.364 8.755 
195 1 2.461 5.66 9.415 
196 1 3.71 5.336 8.754 
9 1 7.322 10.713 1.219 
19 1 6.662 10.417 2.461 
20 1 7.323 10.741 3.711 
22 1 6.606 11.211 4.866 
27 1 1.218 8.755 5.364 
35 1 2.461 9.415 5.66 
36 1 3.71 8.754 5.336 
38 1 4.865 9.471 4.866 
44 1 6.643 16.095 5.63 
50 1 5.66 13.616 6.662 
51 1 5.336 12.366 7.323 
53 1 4.865 11.211 6.606 
62 1 5.364 14.858 7.322 
76 1 5.629 16.095 6.643 
81 1 5.384 10.693 5.384 
167 1 5.364 8.755 1.219 
171 1 5.66 9.415 2.461 
172 1 5.336 8.754 3.711 
180 1 6.662 13.616 5.66 
181 1 7.323 12.366 5.336 
188 1 7.322 14.858 5.364 
194 1 1.218 10.713 7.322 
198 1 2.461 10.417 6.662 
199 1 3.71 10.741 7.323 
17 1 5.384 10.693 10.693 
39 1 6.643 16.095 10.448 
49 1 5.629 9.434 16.095 
73 1 5.364 8.755 14.858 
82 1 5.629 16.095 9.434 
83 1 5.66 9.415 13.616 
84 1 5.336 8.754 12.366 
86 1 4.865 9.471 11.211 
91 1 7.322 14.858 10.713 
99 1 6.662 13.616 10.417 
100 1 7.323 12.366 10.741 
102 1 6.606 11.211 11.211 
113 1 6.643 10.448 16.094 
114 1 2.461 10.417 9.415 
115 1 3.71 10.741 8.754 
117 1 4.865 11.211 9.471 
126 1 1.218 10.713 8.755 
131 1 7.322 10.713 14.858 
135 1 6.662 10.417 13.616 
136 1 7.323 10.741 12.366 
144 1 2.461 9.415 10.417 
145 1 3.71 8.754 10.741 
152 1 1.218 8.755 10.713 
158 1 5.364 14.858 8.755 
162 1 5.66 13.616 9.415 
163 1 5.336 12.366 8.754 
3 1 8.755 5.364 1.219 
13 1 9.415 5.66 2.461 
14 1 8.754 5.336 3.711 
16 1 9.471 4.866 4.866 
24 1 16.095 5.629 6.643 
30 1 13.616 6.662 5.66 
31 1 12.367 7.323 5.336 
33 1 11.212 6.606 4.866 
42 1 14.859 7.322 5.364 
52 1 10.713 1.219 7.322 
60 1 10.417 2.461 6.662 
61 1 10.741 3.711 7.323 
63 1 11.212 4.866 6.606 
87 1 10.693 5.384 5.384 
98 1 16.095 6.643 5.63 
170 1 10.713 7.322 1.219 
174 1 10.417 6.662 2.461 
175 1 10.741 7.323 3.711 
179 1 8.755 1.219 5.364 
183 1 9.415 2.461 5.66 
184 1 8.754 3.711 5.336 
192 1 13.616 5.66 6.662 
193 1 12.367 5.336 7.323 
200 1 14.859 5.364 7.322 
6 1 16.096 5.629 9.434 
23 1 10.693 5.384 10.693 
59 1 10.448 6.643 16.095 
67 1 10.713 7.322 14.858 
77 1 10.417 6.662 13.616 
78 1 10.741 7.323 12.366 
80 1 11.212 6.606 11.211 
93 1 16.096 6.643 10.448 
94 1 9.415 2.461 10.417 
95 1 8.754 3.711 10.741 
97 1 9.471 4.866 11.211 
106 1 8.755 1.219 10.713 
116 1 14.859 5.364 8.755 
123 1 9.434 5.629 16.094 
124 1 13.616 5.66 9.415 
125 1 12.367 5.336 8.754 
127 1 11.212 4.866 9.471 
134 1 8.755 5.364 14.858 
138 1 9.415 5.66 13.616 
139 1 8.754 5.336 12.366 
143 1 14.859 7.322 10.713 
147 1 13.616 6.662 10.417 
148 1 12.367 7.323 10.741 
156 1 10.417 2.461 9.415 
157 1 10.741 3.711 8.754 
164 1 10.713 1.219 8.755 
201 2 16.096 4.279 9.434 
11 1 10.693 10.693 5.384 
18 1 16.096 10.448 6.643 
29 1 9.434 16.095 5.63 
70 1 10.448 16.095 6.643 
71 1 10.417 9.415 2.461 
72 1 10.741 8.754 3.711 
74 1 11.212 9.471 4.866 
85 1 10.713 8.755 1.219 
96 1 8.755 14.858 5.364 
103 1 16.095 9.434 5.63 
104 1 9.415 13.616 5.66 
105 1 8.754 12.366 5.336 
107 1 9.471 11.211 4.866 
111 1 14.859 10.713 7.322 
119 1 13.616 10.417 6.662 
120 1 12.367 10.741 7.323 
122 1 11.212 11.211 6.606 
132 1 9.415 10.417 2.461 
133 1 8.754 10.741 3.711 
140 1 8.755 10.713 1.219 
146 1 14.859 8.755 5.364 
150 1 13.616 9.415 5.66 
151 1 12.367 8.754 5.336 
155 1 10.713 14.858 7.322 
159 1 10.417 13.616 6.662 
160 1 10.741 12.366 7.323 
1 1 9.415 10.417 13.616 
2 1 8.754 10.741 12.366 
4 1 9.471 11.211 11.211 
12 1 16.096 10.448 9.434 
15 1 8.755 10.713 14.858 
25 1 13.616 9.415 10.417 
26 1 12.367 8.754 10.741 
28 1 11.212 9.471 11.211 
34 1 9.434 16.095 10.448 
37 1 14.859 8.755 10.713 
45 1 10.417 13.616 9.415 
46 1 10.741 12.366 8.754 
48 1 11.212 11.211 9.471 
54 1 10.448 9.434 16.094 
57 1 10.713 14.858 8.755 
69 1 10.693 10.693 10.693 
88 1 10.448 16.095 9.434 
108 1 16.096 9.434 10.448 
128 1 9.434 10.448 16.094 
165 1 10.417 9.415 13.616 
166 1 10.741 8.754 12.366 
173 1 10.713 8.755 14.858 
177 1 9.415 13.616 10.417 
178 1 8.754 12.366 10.741 
185 1 8.755 14.858 10.713 
189 1 13.616 10.417 9.415 
190 1 12.367 10.741 8.754 
197 1 14.859 10.713 8.755 
ITEM: TIMESTEP
10
ITEM: NUMBER OF ATOMS
201
ITEM: BOX BOUNDS pp pp pp
0.0000000000000000e+00 1.6114000000000001e+01
0.0000000000000000e+00 1.6113000000000000e+01
0.0000000000000000e+00 1.6111999999999998e+01
ITEM: ATOMS id type x y z 
5 1 5.38451 5.38443 5.38122 
65 1 5.65914 6.66136 2.46058 
66 1 5.3372 7.32318 3.71065 
68 1 4.86773 6.6057 4.86493 
79 1 5.36267 7.32219 1.21895 
89 1 6.6619 2.4605 5.6589 
90 1 7.32337 3.71021 5.33692 
92 1 6.6067 4.86584 4.86593 
101 1 7.32215 1.21857 5.36316 
109 1 2.46637 5.66044 6.65325 
110 1 3.71401 5.33581 7.3206 
112 1 4.86536 4.86577 6.60686 
121 1 1.22113 5.36993 7.299 
129 1 6.66131 5.65907 2.46074 
130 1 7.32322 5.33686 3.71058 
137 1 7.32205 5.36265 1.21899 
141 1 2.46205 6.666 5.65151 
142 1 3.7118 7.32478 5.33617 
149 1 1.21814 7.32434 5.35945 
153 1 5.65911 2.46051 6.66141 
154 1 5.33727 3.70935 7.32251 
161 1 5.36298 1.21823 7.32182 
7 1 6.66092 5.65888 13.6168 
8 1 7.32312 5.33718 12.3667 
10 1 6.60793 4.86522 11.2116 
21 1 7.32209 5.36233 14.8583 
32 1 1.2184 7.32703 10.7238 
40 1 2.46795 6.65916 10.4219 
41 1 3.71657 7.32592 10.7413 
43 1 4.86745 6.60759 11.2122 
47 1 5.36275 1.21813 8.75478 
55 1 5.65943 2.45866 9.41632 
56 1 5.33865 3.70949 8.75349 
58 1 4.87275 4.8634 9.47235 
64 1 5.62814 6.6421 16.0947 
75 1 5.38452 5.38214 10.6944 
118 1 6.64195 5.62819 16.0946 
168 1 5.6591 6.661 13.6173 
169 1 5.33831 7.32378 12.3674 
176 1 5.36242 7.32233 14.8583 
182 1 7.32216 1.21821 10.7143 
186 1 6.66121 2.45988 10.4181 
187 1 7.32325 3.71006 10.7398 
191 1 1.25093 5.29817 8.74289 
195 1 2.48532 5.66647 9.43192 
196 1 3.71875 5.34216 8.75332 
9 1 7.32211 10.7141 1.21903 
19 1 6.66173 10.4179 2.46098 
20 1 7.32304 10.7403 3.71082 
22 1 6.60668 11.2112 4.86603 
27 1 1.21838 8.75842 5.36269 
35 1 2.46005 9.41616 5.65891 
36 1 3.71064 8.7562 5.33658 
38 1 4.86571 9.47087 4.86575 
44 1 6.64277 16.0949 5.62907 
50 1 5.65942 13.6162 6.66159 
51 1 5.33663 12.3662 7.32284 
53 1 4.8653 11.2113 6.60679 
62 1 5.36313 14.8581 7.32201 
76 1 5.6285 16.0948 6.64255 
81 1 5.38401 10.694 5.38377 
167 1 5.36286 8.75509 1.21912 
171 1 5.65928 9.41567 2.46092 
172 1 5.33687 8.75431 3.71071 
180 1 6.66168 13.6162 5.65938 
181 1 7.32303 12.3664 5.33675 
188 1 7.32213 14.8582 5.36332 
194 1 1.21835 10.7142 7.32217 
198 1 2.46034 10.4186 6.66218 
199 1 3.71032 10.7405 7.32307 
17 1 5.38372 10.6941 10.693 
39 1 6.64229 16.0947 10.4485 
49 1 5.6283 9.43485 16.0947 
73 1 5.36282 8.75542 14.8582 
82 1 5.6285 16.0945 9.43465 
83 1 5.65907 9.4158 13.6165 
84 1 5.33693 8.75536 12.366 
86 1 4.86748 9.47179 11.2123 
91 1 7.32213 14.8582 10.714 
99 1 6.66137 13.6164 10.4176 
100 1 7.32301 12.3664 10.7402 
102 1 6.60673 11.2112 11.2109 
113 1 6.64237 10.4487 16.0946 
114 1 2.46036 10.4197 9.41444 
115 1 3.71126 10.7409 8.75291 
117 1 4.86544 11.2115 9.46995 
126 1 1.21881 10.7149 8.75319 
131 1 7.32209 10.7143 14.858 
135 1 6.66158 10.418 13.6162 
136 1 7.32304 10.7402 12.3662 
144 1 2.46293 9.4204 10.4175 
145 1 3.71158 8.75622 10.7403 
152 1 1.22012 8.76413 10.7173 
158 1 5.36307 14.8581 8.75486 
162 1 5.65926 13.6163 9.41532 
163 1 5.33664 12.366 8.75399 
3 1 8.75491 5.36263 1.219 
13 1 9.41569 5.65907 2.46075 
14 1 8.7538 5.33684 3.71064 
16 1 9.47041 4.86588 4.86597 
24 1 16.0955 5.61942 6.62407 
30 1 13.6148 6.66608 5.65142 
31 1 12.3651 7.32474 5.33615 
33 1 11.2092 6.60562 4.865 
42 1 14.8587 7.32443 5.35935 
52 1 10.714 1.21831 7.32181 
60 1 10.4179 2.46059 6.66148 
61 1 10.7397 3.7093 7.32258 
63 1 11.2117 4.86581 6.60688 
87 1 10.6925 5.3845 5.38119 
98 1 16.0954 6.64536 5.62107 
170 1 10.7144 7.32227 1.21907 
174 1 10.4179 6.66139 2.46063 
175 1 10.7398 7.32317 3.71078 
179 1 8.75485 1.21857 5.36316 
183 1 9.41516 2.4605 5.65895 
184 1 8.75366 3.71025 5.33691 
192 1 13.6103 5.66035 6.65327 
193 1 12.3628 5.33575 7.3207 
200 1 14.8558 5.36977 7.29898 
6 1 16.0957 5.65679 9.43095 
23 1 10.6925 5.38198 10.694 
59 1 10.4489 6.64208 16.095 
67 1 10.7146 7.32221 14.8583 
77 1 10.4179 6.66101 13.6173 
78 1 10.7387 7.32381 12.3675 
80 1 11.2099 6.60773 11.212 
93 1 16.0957 6.68643 10.5054 
94 1 9.41586 2.45988 10.418 
95 1 8.75381 3.71012 10.7398 
97 1 9.4692 4.86527 11.2115 
106 1 8.75484 1.21823 10.7143 
116 1 14.8259 5.29833 8.74328 
123 1 9.43505 5.62818 16.0946 
124 1 13.5916 5.66653 9.43183 
125 1 12.3583 5.34209 8.75353 
127 1 11.2043 4.86336 9.47238 
134 1 8.75492 5.36234 14.8583 
138 1 9.41615 5.65893 13.6168 
139 1 8.75392 5.33715 12.3666 
143 1 14.8589 7.32695 10.7237 
147 1 13.6087 6.65915 10.4218 
148 1 12.3603 7.326 10.7415 
156 1 10.4176 2.45872 9.41626 
157 1 10.7385 3.70974 8.75363 
164 1 10.7142 1.21823 8.75483 
201 2 16.0961 4.22507 9.45015 
11 1 10.693 10.694 5.38378 
18 1 16.0955 10.4496 6.64325 
29 1 9.43423 16.0949 5.62907 
70 1 10.4485 16.0948 6.64254 
71 1 10.4177 9.41569 2.4609 
72 1 10.7402 8.75435 3.7107 
74 1 11.2113 9.47083 4.86569 
85 1 10.7141 8.75519 1.21902 
96 1 8.75485 14.8582 5.36331 
103 1 16.0953 9.43522 5.62842 
104 1 9.41532 13.6162 5.65937 
105 1 8.75395 12.3664 5.33675 
107 1 9.47032 11.2112 4.86603 
111 1 14.8588 10.7141 7.32229 
119 1 13.6168 10.4186 6.6623 
120 1 12.3667 10.7406 7.32312 
122 1 11.2118 11.2113 6.60684 
132 1 9.41528 10.4179 2.46098 
133 1 8.75395 10.7403 3.71082 
140 1 8.75489 10.7141 1.21901 
146 1 14.8584 8.75847 5.36267 
150 1 13.6169 9.41618 5.65894 
151 1 12.3663 8.75621 5.33658 
155 1 10.7139 14.8581 7.322 
159 1 10.4176 13.6162 6.66159 
160 1 10.7404 12.3662 7.32285 
1 1 9.41541 10.418 13.6162 
2 1 8.75396 10.7402 12.3662 
4 1 9.47033 11.2112 11.2109 
12 1 16.0955 10.4504 9.43413 
15 1 8.75489 10.7143 14.858 
25 1 13.6141 9.42039 10.4173 
26 1 12.3656 8.75596 10.7403 
28 1 11.2095 9.4718 11.2123 
34 1 9.43471 16.0948 10.4485 
37 1 14.8568 8.76427 10.7172 
45 1 10.4178 13.6162 9.41532 
46 1 10.7404 12.366 8.75401 
48 1 11.2116 11.2115 9.46997 
54 1 10.4487 9.43485 16.0944 
57 1 10.7139 14.8581 8.75486 
69 1 10.6933 10.6939 10.693 
88 1 10.4485 16.0945 9.43465 
108 1 16.0958 9.44049 10.4486 
128 1 9.43463 10.4487 16.0945 
165 1 10.4179 9.41574 13.6163 
166 1 10.7401 8.75539 12.3658 
173 1 10.7142 8.75534 14.8581 
177 1 9.41563 13.6164 10.4176 
178 1 8.75398 12.3663 10.7402 
185 1 8.75485 14.8582 10.714 
189 1 13.6168 10.4195 9.41454 
190 1 12.3657 10.7409 8.75287 
197 1 14.8584 10.7148 8.75312 
ITEM: TIMESTEP
20
ITEM: NUMBER OF ATOMS
201
ITEM: BOX BOUNDS pp pp pp
0.0000000000000000e+00 1.6114000000000001e+01
0.0000000000000000e+00 1.6113000000000000e+01
0.0000000000000000e+00 1.6111999999999998e+01
ITEM: ATOMS id type x y z 
5 1 5.38474 5.3838 5.38289 
65 1 5.65988 6.66135 2.46025 
66 1 5.33797 7.32359 3.70995 
68 1 4.86848 6.60597 4.86535 
79 1 5.36292 7.32238 1.21918 
89 1 6.66214 2.4607 5.65935 
90 1 7.32308 3.71046 5.33656 
92 1 6.60702 4.86574 4.86565 
101 1 7.32189 1.21874 5.36343 
109 1 2.46237 5.66184 6.65213 
110 1 3.71199 5.33579 7.32148 
112 1 4.86429 4.86635 6.60686 
121 1 1.22187 5.38013 7.29691 
129 1 6.66183 5.65932 2.46085 
130 1 7.32332 5.33649 3.71071 
137 1 7.32213 5.36298 1.2192 
141 1 2.46087 6.6675 5.64783 
142 1 3.71347 7.3258 5.3346 
149 1 1.21628 7.32458 5.35728 
153 1 5.65939 2.4604 6.66135 
154 1 5.33613 3.7102 7.32273 
161 1 5.36329 1.21854 7.32173 
7 1 6.6614 5.65873 13.6175 
8 1 7.32339 5.33738 12.368 
10 1 6.60893 4.86465 11.2124 
21 1 7.32203 5.36246 14.8586 
32 1 1.21834 7.3292 10.7262 
40 1 2.46715 6.65811 10.4173 
41 1 3.71572 7.32574 10.7396 
43 1 4.86995 6.60793 11.2129 
47 1 5.36266 1.21737 8.75431 
55 1 5.65963 2.45862 9.4158 
56 1 5.3401 3.70828 8.7531 
58 1 4.87628 4.86379 9.47189 
64 1 5.62848 6.6424 16.0946 
75 1 5.38594 5.3829 10.6958 
118 1 6.64231 5.6285 16.0949 
168 1 5.65925 6.66145 13.6176 
169 1 5.33918 7.32386 12.3679 
176 1 5.36263 7.32243 14.859 
182 1 7.32226 1.21779 10.7145 
186 1 6.66145 2.45932 10.4183 
187 1 7.32363 3.70925 10.7398 
191 1 1.2577 5.25204 8.74372 
195 1 2.49181 5.67031 9.42781 
196 1 3.7247 5.35153 8.75483 
9 1 7.32208 10.7138 1.21916 
19 1 6.66204 10.4177 2.46093 
20 1 7.32326 10.7404 3.71071 
22 1 6.6072 11.2114 4.86586 
27 1 1.21864 8.75749 5.3611 
35 1 2.46104 9.41779 5.65889 
36 1 3.71183 8.75635 5.33627 
38 1 4.86695 9.47158 4.86519 
44 1 6.64308 16.0949 5.6291 
50 1 5.65961 13.6165 6.66166 
51 1 5.33678 12.3664 7.32282 
53 1 4.86684 11.2119 6.60592 
62 1 5.36334 14.858 7.32202 
76 1 5.62873 16.0948 6.64261 
81 1 5.38449 10.6943 5.38407 
167 1 5.36321 8.75499 1.21908 
171 1 5.6595 9.41547 2.4609 
172 1 5.33707 8.75413 3.71035 
180 1 6.66198 13.6163 5.65953 
181 1 7.32324 12.3665 5.33669 
188 1 7.322 14.8583 5.36354 
194 1 1.21845 10.7157 7.32165 
198 1 2.46126 10.4186 6.66103 
199 1 3.71082 10.7405 7.32209 
17 1 5.3847 10.6947 10.6932 
39 1 6.64236 16.0944 10.4483 
49 1 5.62868 9.43478 16.095 
73 1 5.36294 8.75505 14.8583 
82 1 5.62875 16.0943 9.43454 
83 1 5.65958 9.41633 13.6171 
84 1 5.33767 8.75452 12.3673 
86 1 4.86699 9.47207 11.2114 
91 1 7.3222 14.8579 10.7138 
99 1 6.66173 13.6164 10.4175 
100 1 7.32324 12.3667 10.7402 
102 1 6.60761 11.2116 11.2113 
113 1 6.64264 10.4484 16.0946 
114 1 2.46057 10.4217 9.41366 
115 1 3.71173 10.741 8.7534 
117 1 4.86631 11.2116 9.47002 
126 1 1.21837 10.7157 8.75512 
131 1 7.32213 10.7141 14.8581 
135 1 6.66189 10.4179 13.6163 
136 1 7.32335 10.7403 12.3663 
144 1 2.46285 9.42036 10.4195 
145 1 3.71292 8.75646 10.7406 
152 1 1.22105 8.76625 10.7183 
158 1 5.36307 14.858 8.75459 
162 1 5.65972 13.6163 9.41546 
163 1 5.33723 12.367 8.75338 
3 1 8.75487 5.36298 1.2192 
13 1 9.41513 5.65931 2.46088 
14 1 8.75367 5.3365 3.71067 
16 1 9.46991 4.86572 4.86561 
24 1 16.0957 5.61755 6.62726 
30 1 13.616 6.66747 5.64788 
31 1 12.3636 7.32576 5.33467 
33 1 11.2085 6.60601 4.86534 
42 1 14.8605 7.32451 5.35722 
52 1 10.7137 1.2185 7.32173 
60 1 10.4176 2.46033 6.66134 
61 1 10.7408 3.71017 7.32275 
63 1 11.2127 4.86638 6.6069 
87 1 10.6923 5.38378 5.38288 
98 1 16.0955 6.64411 5.62021 
170 1 10.7141 7.32247 1.21923 
174 1 10.4171 6.6614 2.46029 
175 1 10.739 7.32366 3.70994 
179 1 8.75511 1.21873 5.36343 
183 1 9.41483 2.46072 5.65933 
184 1 8.7539 3.7104 5.33658 
192 1 13.6142 5.66192 6.65195 
193 1 12.365 5.33583 7.32156 
200 1 14.855 5.38 7.2965 
6 1 16.0957 5.66202 9.44535 
23 1 10.6911 5.38289 10.6958 
59 1 10.4485 6.64245 16.0946 
67 1 10.7143 7.32234 14.8591 
77 1 10.4178 6.66146 13.6177 
78 1 10.7378 7.32387 12.368 
80 1 11.207 6.60789 11.213 
93 1 16.0956 6.67792 10.4957 
94 1 9.4155 2.45935 10.4184 
95 1 8.75339 3.70921 10.7397 
97 1 9.46803 4.86462 11.2124 
106 1 8.75477 1.21777 10.7144 
116 1 14.8194 5.25229 8.74392 
123 1 9.43466 5.62849 16.095 
124 1 13.5848 5.67056 9.42823 
125 1 12.3522 5.35152 8.7547 
127 1 11.2008 4.86382 9.4719 
134 1 8.75503 5.36249 14.8587 
138 1 9.41557 5.65871 13.6175 
139 1 8.75364 5.3374 12.3681 
143 1 14.8586 7.32906 10.7261 
147 1 13.61 6.65827 10.4174 
148 1 12.3616 7.32577 10.7395 
156 1 10.4174 2.45861 9.41582 
157 1 10.7369 3.70826 8.75311 
164 1 10.7143 1.21731 8.75428 
201 2 16.0966 4.24008 9.45953 
11 1 10.6925 10.6943 5.38411 
18 1 16.0956 10.45 6.64201 
29 1 9.43393 16.0949 5.62911 
70 1 10.4483 16.0948 6.64264 
71 1 10.4175 9.4155 2.46084 
72 1 10.7399 8.75415 3.7103 
74 1 11.21 9.47167 4.86516 
85 1 10.7138 8.75505 1.219 
96 1 8.75502 14.8583 5.36355 
103 1 16.0955 9.4378 5.62804 
104 1 9.41502 13.6163 5.65956 
105 1 8.75381 12.3665 5.33668 
107 1 9.46983 11.2114 4.86587 
111 1 14.8586 10.7157 7.32172 
119 1 13.6158 10.4186 6.6611 
120 1 12.3662 10.7405 7.32213 
122 1 11.2102 11.2119 6.6059 
132 1 9.41497 10.4176 2.46094 
133 1 8.7538 10.7404 3.7107 
140 1 8.75495 10.7138 1.21916 
146 1 14.8583 8.75753 5.36105 
150 1 13.6159 9.41788 5.65892 
151 1 12.3651 8.75638 5.33628 
155 1 10.7136 14.858 7.32202 
159 1 10.4174 13.6165 6.66168 
160 1 10.7402 12.3664 7.32281 
1 1 9.41512 10.4179 13.6162 
2 1 8.75365 10.7403 12.3663 
4 1 9.46945 11.2116 11.2113 
12 1 16.0956 10.4523 9.43302 
15 1 8.75486 10.7141 14.8581 
25 1 13.6141 9.42043 10.4194 
26 1 12.3641 8.75654 10.7406 
28 1 11.2101 9.47207 11.2113 
34 1 9.43465 16.0945 10.4482 
37 1 14.8562 8.76627 10.7183 
45 1 10.4173 13.6163 9.41545 
46 1 10.7398 12.367 8.75335 
48 1 11.2107 11.2116 9.47002 
54 1 10.4483 9.43479 16.095 
57 1 10.7139 14.8581 8.75459 
69 1 10.6923 10.6947 10.6932 
88 1 10.4482 16.0942 9.43453 
108 1 16.0956 9.44019 10.4511 
128 1 9.43439 10.4483 16.0945 
165 1 10.4174 9.41634 13.6171 
166 1 10.7393 8.7545 12.3673 
173 1 10.7141 8.75492 14.8582 
177 1 9.4153 13.6164 10.4174 
178 1 8.75376 12.3667 10.7402 
185 1 8.75483 14.8579 10.7138 
189 1 13.6165 10.4217 9.41351 
190 1 12.3655 10.741 8.75346 
197 1 14.8587 10.7156 8.75521 
ITEM: TIMESTEP
30
ITEM: NUMBER OF ATOMS
201
ITEM: BOX BOUNDS pp pp pp
0.0000000000000000e+00 1.6114000000000001e+01
0.0000000000000000e+00 1.6113000000000000e+01
0.0000000000000000e+00 1.6111999999999998e+01
ITEM: ATOMS id type x y z 
5 1 5.38436 5.38497 5.38433 
65 1 5.66023 6.66168 2.46075 
66 1 5.33819 7.32307 3.71135 
68 1 4.86935 6.606 4.86572 
79 1 5.36323 7.3222 1.21926 
89 1 6.66236 2.46147 5.66042 
90 1 7.32293 3.7107 5.33636 
92 1 6.60605 4.86601 4.86659 
101 1 7.32195 1.21944 5.36418 
109 1 2.45787 5.66883 6.65666 
110 1 3.70932 5.33796 7.32151 
112 1 4.86129 4.86653 6.60749 
121 1 1.22147 5.38495 7.3093 
129 1 6.66248 5.65922 2.46171 
130 1 7.32305 5.33605 3.71153 
137 1 7.32197 5.36296 1.21973 
141 1 2.46039 6.66758 5.64746 
142 1 3.7115 7.32592 5.33323 
149 1 1.21499 7.32436 5.35592 
153 1 5.65942 2.46206 6.66225 
154 1 5.33395 3.71078 7.32334 
161 1 5.36374 1.21917 7.32155 
7 1 6.6612 5.65921 13.6177 
8 1 7.32313 5.33686 12.3684 
10 1 6.60897 4.8644 11.2131 
21 1 7.32207 5.36251 14.8591 
32 1 1.21729 7.3289 10.7219 
40 1 2.46523 6.65947 10.4071 
41 1 3.71514 7.32432 10.7376 
43 1 4.86821 6.60894 11.2114 
47 1 5.36307 1.21801 8.75416 
55 1 5.66027 2.4594 9.41476 
56 1 5.3395 3.71006 8.75368 
58 1 4.8783 4.86718 9.47064 
64 1 5.6285 6.64278 16.095 
75 1 5.38708 5.38415 10.6949 
118 1 6.64247 5.62859 16.0952 
168 1 5.65945 6.66226 13.617 
169 1 5.33839 7.32396 12.3666 
176 1 5.36283 7.32245 14.8585 
182 1 7.32225 1.21764 10.7146 
186 1 6.66112 2.45921 10.4177 
187 1 7.32322 3.70914 10.7403 
191 1 1.25617 5.21296 8.75325 
195 1 2.48692 5.66864 9.41978 
196 1 3.72957 5.36172 8.7536 
9 1 7.32235 10.7138 1.21929 
19 1 6.66186 10.4172 2.46096 
20 1 7.32318 10.7405 3.71104 
22 1 6.60733 11.2115 4.86594 
27 1 1.21814 8.75882 5.36183 
35 1 2.46031 9.41676 5.65881 
36 1 3.71202 8.75708 5.33545 
38 1 4.8661 9.47128 4.8658 
44 1 6.64333 16.0953 5.6293 
50 1 5.6599 13.6166 6.66175 
51 1 5.33663 12.3662 7.32272 
53 1 4.86672 11.2118 6.60603 
62 1 5.36357 14.8582 7.32175 
76 1 5.62919 16.0953 6.64271 
81 1 5.38487 10.6943 5.38453 
167 1 5.36323 8.75487 1.21925 
171 1 5.65986 9.41534 2.46128 
172 1 5.33722 8.75381 3.71043 
180 1 6.66204 13.6165 5.6599 
181 1 7.32307 12.3666 5.33662 
188 1 7.32209 14.8585 5.36377 
194 1 1.21853 10.7151 7.32141 
198 1 2.46097 10.4185 6.66189 
199 1 3.71058 10.7408 7.32183 
17 1 5.3847 10.6936 10.6929 
39 1 6.64222 16.0944 10.4481 
49 1 5.62899 9.4347 16.0947 
73 1 5.36307 8.75515 14.8584 
82 1 5.62878 16.0944 9.43405 
83 1 5.65975 9.41604 13.6165 
84 1 5.33743 8.75474 12.367 
86 1 4.8669 9.47157 11.2112 
91 1 7.32215 14.8578 10.7139 
99 1 6.66182 13.616 10.4174 
100 1 7.32326 12.3665 10.7403 
102 1 6.60701 11.2113 11.2111 
113 1 6.6426 10.4481 16.0947 
114 1 2.46122 10.4207 9.41408 
115 1 3.71154 10.7413 8.7533 
117 1 4.86649 11.2112 9.46993 
126 1 1.2187 10.7152 8.75503 
131 1 7.32227 10.714 14.858 
135 1 6.66203 10.4177 13.6161 
136 1 7.32334 10.7405 12.3663 
144 1 2.46381 9.42045 10.4188 
145 1 3.712 8.75474 10.7403 
152 1 1.22101 8.76613 10.7184 
158 1 5.36309 14.8581 8.75436 
162 1 5.65972 13.6159 9.41503 
163 1 5.33723 12.3666 8.75343 
3 1 8.75503 5.36296 1.21973 
13 1 9.4145 5.65922 2.46172 
14 1 8.75391 5.33607 3.7115 
16 1 9.4708 4.86595 4.86654 
24 1 16.0963 5.62617 6.63815 
30 1 13.6165 6.66751 5.64765 
31 1 12.3658 7.32573 5.33337 
33 1 11.2076 6.6061 4.86571 
42 1 14.8617 7.32413 5.35597 
52 1 10.7132 1.21914 7.32149 
60 1 10.4176 2.4619 6.66221 
61 1 10.743 3.71073 7.32334 
63 1 11.2159 4.86666 6.6076 
87 1 10.6926 5.38492 5.3843 
98 1 16.0955 6.64257 5.6233 
170 1 10.7138 7.32225 1.21925 
174 1 10.4167 6.66172 2.46074 
175 1 10.7387 7.32315 3.71127 
179 1 8.75504 1.21941 5.36418 
183 1 9.41463 2.46148 5.6604 
184 1 8.75403 3.71067 5.33637 
192 1 13.618 5.66921 6.65612 
193 1 12.3678 5.33805 7.32156 
200 1 14.8553 5.38474 7.30881 
6 1 16.0953 5.67303 9.42741 
23 1 10.6899 5.38403 10.6949 
59 1 10.4485 6.64281 16.095 
67 1 10.7142 7.3224 14.8586 
77 1 10.4175 6.66218 13.6172 
78 1 10.7385 7.32406 12.3668 
80 1 11.2089 6.60892 11.2114 
93 1 16.0955 6.67696 10.4861 
94 1 9.41581 2.45919 10.4178 
95 1 8.75373 3.70909 10.7403 
97 1 9.46791 4.86433 11.2131 
106 1 8.75475 1.21763 10.7146 
116 1 14.8209 5.21377 8.75368 
123 1 9.43453 5.6286 16.0952 
124 1 13.5896 5.66896 9.42029 
125 1 12.3471 5.36166 8.75318 
127 1 11.1988 4.86718 9.47049 
134 1 8.75498 5.36254 14.8591 
138 1 9.41578 5.65919 13.6178 
139 1 8.75381 5.3369 12.3685 
143 1 14.8595 7.32864 10.7218 
147 1 13.612 6.65998 10.4075 
148 1 12.3625 7.32431 10.7375 
156 1 10.4168 2.45942 9.4148 
157 1 10.7375 3.71003 8.75376 
164 1 10.714 1.21789 8.75412 
201 2 16.0976 4.24081 9.4647 
11 1 10.6921 10.6943 5.38455 
18 1 16.0955 10.4501 6.64325 
29 1 9.43368 16.0953 5.62931 
70 1 10.4478 16.0953 6.64272 
71 1 10.4172 9.41536 2.46122 
72 1 10.7398 8.75385 3.71039 
74 1 11.2107 9.47145 4.86576 
85 1 10.7138 8.7549 1.21917 
96 1 8.75493 14.8585 5.36378 
103 1 16.0956 9.43721 5.62788 
104 1 9.41497 13.6165 5.65992 
105 1 8.75394 12.3666 5.33662 
107 1 9.46972 11.2115 4.86593 
111 1 14.8585 10.715 7.32142 
119 1 13.616 10.4185 6.66196 
120 1 12.3664 10.7408 7.32188 
122 1 11.2103 11.2118 6.60599 
132 1 9.4151 10.4173 2.46093 
133 1 8.7539 10.7406 3.71104 
140 1 8.7547 10.7137 1.21932 
146 1 14.8588 8.75881 5.36178 
150 1 13.6167 9.41688 5.65885 
151 1 12.3649 8.75711 5.3355 
155 1 10.7134 14.8582 7.32174 
159 1 10.4171 13.6166 6.66176 
160 1 10.7404 12.3662 7.32272 
1 1 9.41495 10.4177 13.6161 
2 1 8.75364 10.7404 12.3663 
4 1 9.47004 11.2112 11.211 
12 1 16.0956 10.4506 9.43397 
15 1 8.7547 10.714 14.858 
25 1 13.6131 9.42059 10.4187 
26 1 12.3651 8.75471 10.7402 
28 1 11.2101 9.47162 11.2111 
34 1 9.4348 16.0944 10.4481 
37 1 14.8562 8.76603 10.7185 
45 1 10.4173 13.6159 9.41502 
46 1 10.7398 12.3666 8.75343 
48 1 11.2106 11.2112 9.46995 
54 1 10.448 9.43464 16.0947 
57 1 10.7139 14.8581 8.75438 
69 1 10.6923 10.6937 10.6928 
88 1 10.4482 16.0943 9.43402 
108 1 16.0957 9.44018 10.4507 
128 1 9.43441 10.4481 16.0947 
165 1 10.4173 9.41601 13.6164 
166 1 10.7395 8.7548 12.367 
173 1 10.7139 8.75509 14.8585 
177 1 9.41519 13.616 10.4174 
178 1 8.75372 12.3665 10.7403 
185 1 8.75484 14.8578 10.7139 
189 1 13.6158 10.4208 9.41399 
190 1 12.3656 10.7413 8.75335 
197 1 14.8583 10.7151 8.75511 
ITEM: TIMESTEP
40
ITEM: NUMBER OF ATOMS
201
ITEM: BOX BOUNDS pp pp pp
0.0000000000000000e+00 1.6114000000000001e+01
0.0000000000000000e+00 1.6113000000000000e+01
0.0000000000000000e+00 1.6111999999999998e+01
ITEM: ATOMS id type x y z 
5 1 5.38402 5.3848 5.38534 
65 1 5.66048 6.66174 2.46106 
66 1 5.33851 7.32299 3.71134 
68 1 4.86826 6.60657 4.86653 
79 1 5.36333 7.32209 1.2194 
89 1 6.66205 2.46167 5.661 
90 1 7.32299 3.71117 5.33645 
92 1 6.60569 4.86627 4.86707 
101 1 7.32216 1.21977 5.36447 
109 1 2.45586 5.67144 6.66042 
110 1 3.70865 5.33973 7.32182 
112 1 4.85978 4.86683 6.60746 
121 1 1.22119 5.38534 7.31306 
129 1 6.6624 5.65931 2.46191 
130 1 7.32313 5.336 3.71206 
137 1 7.3221 5.36297 1.21983 
141 1 2.45916 6.66801 5.64764 
142 1 3.71121 7.32539 5.33244 
149 1 1.2151 7.32447 5.35549 
153 1 5.65926 2.46261 6.66273 
154 1 5.33282 3.71127 7.32378 
161 1 5.36385 1.21951 7.32167 
7 1 6.66107 5.65964 13.6178 
8 1 7.32334 5.3365 12.3685 
10 1 6.60878 4.86431 11.2132 
21 1 7.32205 5.36272 14.8591 
32 1 1.21976 7.33019 10.7186 
40 1 2.46455 6.66017 10.4022 
41 1 3.71429 7.32401 10.7363 
43 1 4.86712 6.60904 11.2106 
47 1 5.36343 1.21842 8.7543 
55 1 5.66048 2.46009 9.41437 
56 1 5.33874 3.71092 8.75379 
58 1 4.87882 4.86881 9.46979 
64 1 5.62871 6.64276 16.0948 
75 1 5.38752 5.38502 10.6946 
118 1 6.64243 5.62875 16.0953 
168 1 5.65962 6.66251 13.6164 
169 1 5.33769 7.32403 12.3663 
176 1 5.36297 7.3224 14.8583 
182 1 7.32214 1.21776 10.7142 
186 1 6.6615 2.45933 10.4174 
187 1 7.32351 3.70887 10.7407 
191 1 1.256 5.19988 8.75753 
195 1 2.48758 5.66705 9.4185 
196 1 3.72887 5.36534 8.75377 
9 1 7.32216 10.7139 1.21921 
19 1 6.66184 10.4173 2.461 
20 1 7.32325 10.7404 3.71087 
22 1 6.60728 11.2115 4.86603 
27 1 1.21793 8.7585 5.36182 
35 1 2.46024 9.41662 5.659 
36 1 3.71086 8.75648 5.33554 
38 1 4.86659 9.47144 4.86556 
44 1 6.64323 16.0956 5.62936 
50 1 5.65973 13.6166 6.66187 
51 1 5.33677 12.3665 7.32302 
53 1 4.86613 11.2116 6.60651 
62 1 5.36356 14.8585 7.32188 
76 1 5.62923 16.0955 6.64286 
81 1 5.38473 10.6937 5.38409 
167 1 5.36326 8.7548 1.21929 
171 1 5.65969 9.41516 2.46111 
172 1 5.33726 8.75375 3.71095 
180 1 6.66198 13.6167 5.65981 
181 1 7.32321 12.3668 5.33676 
188 1 7.32217 14.8587 5.36368 
194 1 1.21863 10.7148 7.32216 
198 1 2.46047 10.4182 6.66176 
199 1 3.7108 10.7409 7.32231 
17 1 5.38447 10.6931 10.6925 
39 1 6.64245 16.0944 10.4479 
49 1 5.62885 9.4345 16.0947 
73 1 5.36316 8.75516 14.8581 
82 1 5.62899 16.0946 9.43388 
83 1 5.65971 9.41576 13.6165 
84 1 5.33712 8.75455 12.3663 
86 1 4.86655 9.47079 11.2111 
91 1 7.32215 14.8579 10.7137 
99 1 6.66183 13.6162 10.4172 
100 1 7.3232 12.3662 10.7403 
102 1 6.6069 11.2112 11.2109 
113 1 6.64267 10.4482 16.0946 
114 1 2.46122 10.4202 9.41436 
115 1 3.71139 10.7413 8.75308 
117 1 4.86673 11.2111 9.47004 
126 1 1.21863 10.7148 8.75479 
131 1 7.32215 10.7141 14.858 
135 1 6.66197 10.4177 13.6161 
136 1 7.32322 10.7405 12.366 
144 1 2.46317 9.41991 10.4187 
145 1 3.71215 8.75342 10.7402 
152 1 1.2211 8.76514 10.718 
158 1 5.36328 14.8581 8.75458 
162 1 5.65989 13.6162 9.41497 
163 1 5.33719 12.3662 8.75371 
3 1 8.75489 5.36297 1.21983 
13 1 9.41458 5.65932 2.46192 
14 1 8.75383 5.336 3.71205 
16 1 9.47125 4.86625 4.86705 
24 1 16.0956 5.62946 6.64575 
30 1 13.6178 6.66802 5.64756 
31 1 12.3657 7.32545 5.33246 
33 1 11.2087 6.60661 4.86654 
42 1 14.8619 7.32448 5.3555 
52 1 10.7132 1.21949 7.32166 
60 1 10.4177 2.46256 6.66272 
61 1 10.7441 3.71123 7.32377 
63 1 11.2171 4.86681 6.60741 
87 1 10.6929 5.38481 5.3853 
98 1 16.0955 6.64343 5.62459 
170 1 10.7137 7.32211 1.21941 
174 1 10.4165 6.66177 2.46106 
175 1 10.7384 7.32303 3.71134 
179 1 8.75483 1.21975 5.36446 
183 1 9.41493 2.46167 5.66098 
184 1 8.75397 3.71115 5.33645 
192 1 13.6209 5.67141 6.66022 
193 1 12.3682 5.33978 7.32179 
200 1 14.8557 5.38534 7.31309 
6 1 16.0949 5.67521 9.41837 
23 1 10.6895 5.38504 10.6947 
59 1 10.4483 6.64276 16.0948 
67 1 10.714 7.32238 14.8583 
77 1 10.4174 6.66248 13.6165 
78 1 10.7393 7.32402 12.3664 
80 1 11.2099 6.60902 11.2107 
93 1 16.0956 6.6748 10.4806 
94 1 9.41549 2.45933 10.4175 
95 1 8.75349 3.70887 10.7407 
97 1 9.46821 4.8643 11.2132 
106 1 8.75485 1.21775 10.7142 
116 1 14.8206 5.20154 8.75706 
123 1 9.43457 5.62876 16.0953 
124 1 13.5894 5.6671 9.41853 
125 1 12.3479 5.36534 8.75369 
127 1 11.1981 4.8688 9.46981 
134 1 8.75496 5.36272 14.8591 
138 1 9.41594 5.65963 13.6178 
139 1 8.75364 5.33651 12.3686 
143 1 14.8573 7.33028 10.7187 
147 1 13.6125 6.66037 10.4025 
148 1 12.3628 7.32405 10.7364 
156 1 10.4165 2.46005 9.4144 
157 1 10.7382 3.71086 8.75378 
164 1 10.7136 1.2184 8.75429 
201 2 16.0984 4.24155 9.46572 
11 1 10.6923 10.6937 5.38411 
18 1 16.0955 10.4501 6.64339 
29 1 9.43376 16.0956 5.62935 
70 1 10.4478 16.0955 6.64285 
71 1 10.4173 9.4152 2.46107 
72 1 10.7397 8.75378 3.71092 
74 1 11.2104 9.47149 4.86554 
85 1 10.7137 8.75482 1.21925 
96 1 8.75483 14.8587 5.36368 
103 1 16.0955 9.43732 5.62811 
104 1 9.41502 13.6167 5.65982 
105 1 8.75378 12.3668 5.33676 
107 1 9.46972 11.2115 4.86603 
111 1 14.8584 10.7148 7.32218 
119 1 13.6166 10.4182 6.66178 
120 1 12.3662 10.741 7.32233 
122 1 11.2109 11.2116 6.60652 
132 1 9.41517 10.4174 2.46098 
133 1 8.75376 10.7404 3.71087 
140 1 8.75485 10.7139 1.2192 
146 1 14.859 8.75848 5.36182 
150 1 13.6168 9.41664 5.65902 
151 1 12.3661 8.75653 5.33557 
155 1 10.7134 14.8585 7.32189 
159 1 10.4173 13.6166 6.66187 
160 1 10.7402 12.3665 7.32303 
1 1 9.41502 10.4177 13.6161 
2 1 8.75379 10.7405 12.366 
4 1 9.47012 11.2111 11.2109 
12 1 16.0956 10.4498 9.43427 
15 1 8.75484 10.7141 14.8579 
25 1 13.6139 9.41995 10.4187 
26 1 12.3649 8.75352 10.7402 
28 1 11.2105 9.4708 11.2111 
34 1 9.43455 16.0944 10.4479 
37 1 14.856 8.76524 10.718 
45 1 10.4171 13.6162 9.41497 