ITEM: TIMESTEP
0
ITEM: NUMBER OF ATOMS
145
ITEM: BOX BOUNDS pp pp pp
0.0000000000000000e+00 2.1884000000000000e+01
0.0000000000000000e+00 2.1885999999999999e+01
0.0000000000000000e+00 2.1885000000000002e+01
ITEM: ATOMS id type x y z 
9 1 8.524 12.547 12.547 
10 1 1.604 19.466 19.466 
11 1 1.605 19.466 12.547 
12 1 8.524 12.547 19.466 
13 1 1.605 12.547 19.466 
14 1 8.524 19.467 12.547 
15 1 8.524 19.467 19.466 
16 1 1.605 12.547 12.547 
25 1 10.105 10.965 10.965 
26 1 0.023 21.047 21.049 
27 1 0.023 21.047 10.964 
28 1 10.106 10.965 21.047 
29 1 0.023 10.966 21.048 
30 1 10.106 21.049 10.966 
31 1 10.106 21.048 21.049 
32 1 0.024 10.965 10.965 
57 1 5.811 12.218 12.218 
58 1 4.317 19.796 19.795 
59 1 4.318 19.795 12.218 
60 1 5.811 12.219 19.795 
61 1 4.318 12.218 19.795 
62 1 5.811 19.795 12.218 
63 1 5.811 19.796 19.795 
64 1 4.318 12.218 12.218 
65 1 8.853 15.26 12.218 
66 1 1.276 16.754 19.795 
67 1 8.853 16.754 19.795 
68 1 1.276 15.26 12.218 
69 1 1.276 16.754 12.218 
70 1 8.853 15.26 19.796 
71 1 1.276 15.26 19.795 
72 1 8.853 16.753 12.218 
73 1 8.853 12.219 15.26 
74 1 1.276 19.795 16.753 
75 1 1.276 12.218 16.754 
76 1 8.853 19.796 15.26 
77 1 8.853 19.796 16.753 
78 1 1.276 12.218 15.26 
79 1 1.276 19.795 15.26 
80 1 8.853 12.219 16.754 
105 1 7.01 12.317 12.317 
106 1 3.118 19.696 19.696 
107 1 3.119 19.696 12.317 
108 1 7.011 12.317 19.696 
109 1 3.119 12.317 19.696 
110 1 7.01 19.696 12.317 
111 1 7.01 19.697 19.696 
112 1 3.118 12.317 12.317 
113 1 8.754 14.061 12.317 
114 1 1.375 17.953 19.696 
115 1 8.754 17.953 19.696 
116 1 1.375 14.061 12.317 
117 1 1.375 17.953 12.317 
118 1 8.754 14.061 19.696 
119 1 1.375 14.061 19.696 
120 1 8.754 17.953 12.317 
121 1 8.754 12.317 14.061 
122 1 1.375 19.696 17.952 
123 1 1.375 12.317 17.953 
124 1 8.754 19.697 14.061 
125 1 8.754 19.697 17.952 
126 1 1.375 12.317 14.061 
127 1 1.375 19.696 14.061 
128 1 8.754 12.318 17.953 
137 1 9.407 11.664 11.664 
138 1 0.721 20.349 20.35 
139 1 0.721 20.349 11.663 
140 1 9.408 11.664 20.349 
141 1 0.721 11.664 20.35 
142 1 9.407 20.35 11.664 
143 1 9.407 20.35 20.35 
144 1 0.722 11.664 11.663 
1 1 19.466 1.604 1.604 
2 1 12.547 8.524 8.524 
3 1 12.546 8.524 1.604 
4 1 19.466 1.605 8.524 
5 1 12.547 1.604 8.524 
6 1 19.466 8.524 1.605 
7 1 19.466 8.524 8.524 
8 1 12.547 1.604 1.605 
17 1 21.048 0.023 0.022 
18 1 10.965 10.106 10.106 
19 1 10.965 10.106 0.024 
20 1 21.048 0.024 10.107 
21 1 10.965 0.022 10.105 
22 1 21.048 10.105 0.023 
23 1 21.047 10.106 10.106 
24 1 10.965 0.023 0.022 
33 1 16.753 1.275 1.276 
34 1 15.26 8.853 8.853 
35 1 15.26 8.852 1.276 
36 1 16.753 1.275 8.853 
37 1 15.26 1.275 8.853 
38 1 16.753 8.852 1.276 
39 1 16.753 8.853 8.853 
40 1 15.26 1.275 1.276 
41 1 19.795 4.317 1.276 
42 1 12.218 5.811 8.853 
43 1 19.795 5.811 8.853 
44 1 12.218 4.317 1.276 
45 1 12.218 5.811 1.275 
46 1 19.795 4.317 8.853 
47 1 12.218 4.317 8.853 
48 1 19.795 5.811 1.276 
49 1 19.795 1.275 4.317 
50 1 12.218 8.852 5.811 
51 1 12.218 1.276 5.811 
52 1 19.795 8.853 4.318 
53 1 19.795 8.853 5.811 
54 1 12.218 1.275 4.318 
55 1 12.218 8.852 4.317 
56 1 19.795 1.275 5.811 
81 1 17.952 1.374 1.375 
82 1 14.061 8.754 8.754 
83 1 14.06 8.753 1.375 
84 1 17.952 1.374 8.754 
85 1 14.06 1.374 8.754 
86 1 17.952 8.754 1.375 
87 1 17.952 8.754 8.754 
88 1 14.061 1.374 1.375 
89 1 19.696 3.118 1.375 
90 1 12.317 7.01 8.754 
91 1 19.696 7.01 8.754 
92 1 12.317 3.118 1.375 
93 1 12.317 7.01 1.374 
94 1 19.695 3.118 8.754 
95 1 12.317 3.118 8.754 
96 1 19.696 7.01 1.375 
97 1 19.696 1.374 3.118 
98 1 12.317 8.754 7.01 
99 1 12.317 1.375 7.01 
100 1 19.696 8.754 3.118 
101 1 19.696 8.754 7.01 
102 1 12.317 1.374 3.119 
103 1 12.317 8.753 3.118 
104 1 19.696 1.374 7.01 
129 1 20.35 0.722 0.721 
130 1 11.664 9.407 9.407 
131 1 11.663 9.407 0.722 
132 1 20.35 0.722 9.408 
133 1 11.663 0.72 9.407 
134 1 20.35 9.407 0.721 
135 1 20.349 9.407 9.407 
136 1 11.664 0.721 0.721 
145 2 19.336 0.947 0.344 
ITEM: TIMESTEP
10
ITEM: NUMBER OF ATOMS
145
ITEM: BOX BOUNDS pp pp pp
0.0000000000000000e+00 2.1884000000000000e+01
0.0000000000000000e+00 2.1885999999999999e+01
0.0000000000000000e+00 2.1885000000000002e+01
ITEM: ATOMS id type x y z 
9 1 8.51175 12.5588 12.5584 
10 1 1.60624 19.4674 19.4645 
11 1 1.61701 19.4552 12.5586 
12 1 8.51448 12.5597 19.4553 
13 1 1.61624 12.5592 19.4544 
14 1 8.5121 19.4569 12.5591 
15 1 8.51249 19.4549 19.4546 
16 1 1.61573 12.5591 12.5587 
25 1 10.1066 10.9636 10.9636 
26 1 0.0335086 21.037 21.0412 
27 1 0.0218746 21.0485 10.963 
28 1 10.107 10.964 21.0484 
29 1 0.0222566 10.9649 21.0486 
30 1 10.1065 21.0497 10.965 
31 1 10.1069 21.0489 21.0495 
32 1 0.0222186 10.9639 10.9634 
57 1 5.81775 12.2202 12.2203 
58 1 4.30872 19.7935 19.7929 
59 1 4.31065 19.7928 12.2201 
60 1 5.81585 12.2207 19.7927 
61 1 4.31048 12.2204 19.7927 
62 1 5.81728 19.7929 12.2201 
63 1 5.81624 19.7941 19.7931 
64 1 4.30978 12.2204 12.2204 
65 1 8.85081 15.254 12.2202 
66 1 1.27764 16.7553 19.7935 
67 1 8.85093 16.7591 19.7932 
68 1 1.27805 15.2547 12.2201 
69 1 1.27792 16.758 12.2199 
70 1 8.85098 15.2536 19.7935 
71 1 1.27792 15.2526 19.793 
72 1 8.85066 16.7606 12.2203 
73 1 8.85109 12.2206 15.2544 
74 1 1.27815 19.7928 16.7604 
75 1 1.27797 12.22 16.7592 
76 1 8.85088 19.7939 15.2532 
77 1 8.85114 19.7941 16.7573 
78 1 1.27803 12.22 15.2547 
79 1 1.27809 19.7929 15.2519 
80 1 8.85151 12.2205 16.7554 
105 1 7.00382 12.3164 12.3165 
106 1 3.1274 19.6974 19.6968 
107 1 3.12423 19.6963 12.3168 
108 1 7.00375 12.3168 19.697 
109 1 3.12648 12.3163 19.6967 
110 1 7.00512 19.6968 12.3166 
111 1 7.00809 19.697 19.696 
112 1 3.12774 12.3161 12.3161 
113 1 8.7546 14.0668 12.3165 
114 1 1.37413 17.9486 19.6966 
115 1 8.75408 17.9499 19.696 
116 1 1.37448 14.065 12.3166 
117 1 1.3749 17.9494 12.3169 
118 1 8.75422 14.0655 19.6967 
119 1 1.37485 14.0638 19.696 
120 1 8.75505 17.9426 12.3159 
121 1 8.75406 12.3173 14.0628 
122 1 1.3739 19.697 17.9431 
123 1 1.37479 12.317 17.9494 
124 1 8.75435 19.6977 14.0657 
125 1 8.75399 19.697 17.9503 
126 1 1.37449 12.3166 14.0646 
127 1 1.3748 19.6962 14.0657 
128 1 8.75403 12.3181 17.9536 
137 1 9.41187 11.6593 11.6586 
138 1 0.728726 20.3404 20.3433 
139 1 0.716702 20.3536 11.6589 
140 1 9.41325 11.6589 20.3548 
141 1 0.716711 11.6593 20.3551 
142 1 9.41248 20.3556 11.6586 
143 1 9.41134 20.3547 20.3545 
144 1 0.717127 11.6588 11.6587 
1 1 19.4456 1.74181 1.78712 
2 1 12.5592 8.51201 8.51219 
3 1 12.5572 8.51197 1.61565 
4 1 19.4542 1.61589 8.51661 
5 1 12.558 1.61553 8.51264 
6 1 19.4562 8.51541 1.61628 
7 1 19.4536 8.51233 8.51241 
8 1 12.5567 1.61527 1.61591 
17 1 21.0888 -0.0176436 0.00718217 
18 1 10.9637 10.1073 10.107 
19 1 10.9635 10.1075 0.0222355 
20 1 21.0498 0.0217511 10.1083 
21 1 10.9637 0.0208474 10.1065 
22 1 21.0499 10.1066 0.0210947 
23 1 21.0483 10.107 10.107 
24 1 10.963 0.0205094 0.0198754 
33 1 16.7228 1.26874 1.27034 
34 1 15.2534 8.85092 8.85091 
35 1 15.2519 8.8498 1.27823 
36 1 16.7555 1.27653 8.85113 
37 1 15.2509 1.27725 8.85082 
38 1 16.7514 8.85068 1.27736 
39 1 16.7599 8.85087 8.85092 
40 1 15.23 1.27475 1.27578 
41 1 19.7997 4.35754 1.26828 
42 1 12.2201 5.81687 8.85092 
43 1 19.7932 5.81563 8.85121 
44 1 12.22 4.31312 1.27768 
45 1 12.2199 5.81551 1.27708 
46 1 19.7931 4.3134 8.85124 
47 1 12.22 4.31247 8.85101 
48 1 19.7954 5.83632 1.27617 
49 1 19.7992 1.26568 4.36136 
50 1 12.2201 8.85021 5.81633 
51 1 12.2199 1.2779 5.81619 
52 1 19.793 8.8507 4.31056 
53 1 19.7928 8.85086 5.81801 
54 1 12.2199 1.27693 4.31376 
55 1 12.2199 8.85005 4.31366 
56 1 19.7958 1.27539 5.83568 
81 1 17.9133 1.37095 1.37731 
82 1 14.0645 8.75406 8.75407 
83 1 14.0678 8.754 1.37402 
84 1 17.9481 1.37347 8.75475 
85 1 14.0678 1.37317 8.75479 
86 1 17.9498 8.75444 1.37418 
87 1 17.948 8.75405 8.75423 
88 1 14.0451 1.37509 1.37605 
89 1 19.7081 3.15738 1.37539 
90 1 12.3169 7.00651 8.7541 
91 1 19.6958 7.0086 8.75406 
92 1 12.3162 3.12424 1.3744 
93 1 12.3162 7.0066 1.37352 
94 1 19.6961 3.12282 8.75445 
95 1 12.3164 3.12198 8.75445 
96 1 19.6955 7.02365 1.37549 
97 1 19.711 1.35065 3.15525 
98 1 12.3168 8.75389 7.00694 
99 1 12.3165 1.37448 7.00636 
100 1 19.6974 8.7555 3.12859 
101 1 19.6964 8.75455 7.00464 
102 1 12.3162 1.37324 3.12506 
103 1 12.3164 8.75343 3.1212 
104 1 19.6954 1.37517 7.02521 
129 1 20.4267 0.674514 0.64174 
130 1 11.6588 9.41173 9.41227 
131 1 11.6581 9.41173 0.716719 
132 1 20.3553 0.716358 9.41391 
133 1 11.6584 0.715273 9.41168 
134 1 20.3553 9.41321 0.715758 
135 1 20.3544 9.41257 9.4122 
136 1 11.6584 0.71555 0.715842 
145 2 19.2958 0.839171 0.15939 
ITEM: TIMESTEP
20
ITEM: NUMBER OF ATOMS
145
ITEM: BOX BOUNDS pp pp pp
0.0000000000000000e+00 2.1884000000000000e+01
0.0000000000000000e+00 2.1885999999999999e+01
0.0000000000000000e+00 2.1885000000000002e+01
ITEM: ATOMS id type x y z 
9 1 8.51082 12.5602 12.5601 
10 1 1.61222 19.4596 19.458 
11 1 1.6182 19.4528 12.5584 
12 1 8.5114 12.5605 19.4536 
13 1 1.61812 12.5587 19.4529 
14 1 8.51051 19.4537 12.5605 
15 1 8.51268 19.4535 19.4527 
16 1 1.61795 12.5604 12.5602 
25 1 10.1055 10.9651 10.9649 
26 1 0.035768 21.025 21.0398 
27 1 0.0239102 21.0465 10.9655 
28 1 10.1066 10.9648 21.048 
29 1 0.0237307 10.9662 21.0476 
30 1 10.1058 21.0489 10.9654 
31 1 10.1051 21.0477 21.0479 
32 1 0.0236985 10.9652 10.9649 
57 1 5.81586 12.2205 12.2206 
58 1 4.31397 19.7934 19.7928 
59 1 4.31365 19.7924 12.2205 
60 1 5.81587 12.221 19.7924 
61 1 4.31276 12.2206 19.7925 
62 1 5.81666 19.7923 12.2206 
63 1 5.81687 19.7937 19.7927 
64 1 4.3136 12.2205 12.2205 
65 1 8.85055 15.2547 12.2206 
66 1 1.27844 16.7593 19.7926 
67 1 8.85033 16.7577 19.7926 
68 1 1.2787 15.255 12.2206 
69 1 1.27859 16.7586 12.2207 
70 1 8.85045 15.2568 19.793 
71 1 1.27818 15.2533 19.7928 
72 1 8.85051 16.7579 12.2205 
73 1 8.85029 12.2214 15.2535 
74 1 1.27823 19.7927 16.756 
75 1 1.27855 12.2206 16.7578 
76 1 8.85032 19.7934 15.2544 
77 1 8.85028 19.7934 16.7586 
78 1 1.2787 12.2206 15.2553 
79 1 1.27828 19.7927 15.2531 
80 1 8.85029 12.2217 16.7602 
105 1 7.0065 12.3176 12.3177 
106 1 3.12472 19.6971 19.696 
107 1 3.12339 19.6953 12.3177 
108 1 7.00715 12.3182 19.696 
109 1 3.12319 12.3175 19.6955 
110 1 7.00547 19.6959 12.3178 
111 1 7.00723 19.6965 19.6954 
112 1 3.12212 12.3177 12.3176 
113 1 8.75334 14.0644 12.3177 
114 1 1.37427 17.9431 19.6965 
115 1 8.75353 17.9479 19.6953 
116 1 1.37531 14.0658 12.3175 
117 1 1.37572 17.9468 12.3176 
118 1 8.75344 14.0648 19.6961 
119 1 1.37551 14.0628 19.6952 
120 1 8.75339 17.9487 12.3176 
121 1 8.75331 12.318 14.0666 
122 1 1.37468 19.6968 17.9458 
123 1 1.37547 12.3178 17.9475 
124 1 8.75319 19.6967 14.0657 
125 1 8.75352 19.6964 17.9464 
126 1 1.37529 12.3176 14.0657 
127 1 1.37566 19.6955 14.0636 
128 1 8.75395 12.3185 17.9454 
137 1 9.41058 11.6601 11.6596 
138 1 0.739611 20.3285 20.3325 
139 1 0.718874 20.352 11.6605 
140 1 9.4112 11.661 20.3531 
141 1 0.718734 11.6617 20.3523 
142 1 9.41058 20.3543 11.6607 
143 1 9.4096 20.3524 20.3524 
144 1 0.71797 11.6604 11.66 
1 1 19.4172 1.73048 1.74935 
2 1 12.5602 8.51055 8.51076 
3 1 12.5591 8.51013 1.61737 
4 1 19.4534 1.61655 8.51305 
5 1 12.5593 1.61748 8.51094 
6 1 19.4525 8.51685 1.6167 
7 1 19.4529 8.51113 8.51103 
8 1 12.5493 1.61817 1.61882 
17 1 21.1219 -0.0108812 0.00931194 
18 1 10.965 10.1058 10.1058 
19 1 10.9647 10.1059 0.0232673 
20 1 21.0505 0.0210865 10.1085 
21 1 10.9649 0.0216703 10.1055 
22 1 21.0504 10.1071 0.0207025 
23 1 21.0479 10.1063 10.1061 
24 1 10.9637 0.0206007 0.0204348 
33 1 16.7431 1.2699 1.27033 
34 1 15.2552 8.85038 8.85038 
35 1 15.2519 8.84973 1.27831 
36 1 16.7558 1.2768 8.85085 
37 1 15.253 1.27727 8.85069 
38 1 16.7592 8.84988 1.27812 
39 1 16.7571 8.8504 8.85045 
40 1 15.2375 1.27341 1.27485 
41 1 19.8004 4.35338 1.26435 
42 1 12.2207 5.81609 8.8503 
43 1 19.7926 5.81773 8.85061 
44 1 12.2207 4.31198 1.27795 
45 1 12.2204 5.81727 1.27759 
46 1 19.7929 4.3159 8.85092 
47 1 12.2207 4.31237 8.85035 
48 1 19.7964 5.83703 1.27485 
49 1 19.8013 1.25708 4.3673 
50 1 12.2208 8.84958 5.81626 
51 1 12.2203 1.27827 5.81743 
52 1 19.7933 8.85095 4.31681 
53 1 19.7927 8.8507 5.81773 
54 1 12.2205 1.27717 4.31313 
55 1 12.2206 8.84936 4.31312 
56 1 19.7973 1.27438 5.84018 
81 1 17.9286 1.38568 1.39665 
82 1 14.0652 8.75309 8.75316 
83 1 14.063 8.7526 1.37534 
84 1 17.9442 1.37367 8.75481 
85 1 14.0631 1.37461 8.75341 
86 1 17.9419 8.75458 1.37416 
87 1 17.9474 8.75323 8.7534 
88 1 14.047 1.37486 1.37589 
89 1 19.7049 3.15572 1.3911 
90 1 12.3179 7.00514 8.75319 
91 1 19.695 7.00651 8.75329 
92 1 12.3158 3.12859 1.37466 
93 1 12.3171 7.00664 1.37453 
94 1 19.6959 3.12623 8.75454 
95 1 12.3172 3.12378 8.75355 
96 1 19.6951 7.02816 1.37677 
97 1 19.711 1.36065 3.16519 
98 1 12.3177 8.75296 7.00507 
99 1 12.3175 1.37559 7.00745 
100 1 19.697 8.75492 3.1256 
101 1 19.6952 8.75335 7.00783 
102 1 12.3159 1.37359 3.12836 
103 1 12.317 8.75266 3.12379 
104 1 19.6938 1.37774 7.03608 
129 1 20.343 0.700916 0.640198 
130 1 11.66 9.41086 9.41091 
131 1 11.6591 9.41101 0.717824 
132 1 20.3546 0.716645 9.41432 
133 1 11.6592 0.716712 9.41071 
134 1 20.3547 9.41272 0.716386 
135 1 20.3526 9.41111 9.41105 
136 1 11.6577 0.716107 0.716168 
145 2 19.3183 0.828822 0.154549 
ITEM: TIMESTEP
30
ITEM: NUMBER OF ATOMS
145
ITEM: BOX BOUNDS pp pp pp
0.0000000000000000e+00 2.1884000000000000e+01
0.0000000000000000e+00 2.1885999999999999e+01
0.0000000000000000e+00 2.1885000000000002e+01
ITEM: ATOMS id type x y z 
9 1 8.50979 12.5608 12.5605 
10 1 1.61937 19.4526 19.4502 
11 1 1.61934 19.4518 12.5592 
12 1 8.51059 12.562 19.4526 
13 1 1.61886 12.5589 19.4519 
14 1 8.50981 19.4526 12.5612 
15 1 8.51141 19.452 19.4518 
16 1 1.61885 12.5614 12.5614 
25 1 10.1054 10.9651 10.9648 
26 1 0.0323107 21.035 21.0496 
27 1 0.0245321 21.0462 10.9663 
28 1 10.1057 10.9659 21.0472 
29 1 0.0246021 10.9672 21.0467 
30 1 10.1053 21.0487 10.9659 
31 1 10.104 21.047 21.047 
32 1 0.0235948 10.9655 10.9652 
57 1 5.81618 12.221 12.2211 
58 1 4.31392 19.7932 19.7926 
59 1 4.31391 19.7921 12.221 
60 1 5.81674 12.2216 19.7919 
61 1 4.31415 12.2211 19.7922 
62 1 5.81601 19.792 12.221 
63 1 5.81928 19.7934 19.7923 
64 1 4.31256 12.2211 12.2211 
65 1 8.85001 15.2551 12.2211 
66 1 1.27829 16.7556 19.7928 
67 1 8.84987 16.7585 19.7922 
68 1 1.27897 15.2554 12.221 
69 1 1.2789 16.7579 12.221 
70 1 8.84996 15.2549 19.7925 
71 1 1.27844 15.2518 19.7925 
72 1 8.84989 16.7586 12.2211 
73 1 8.85009 12.2216 15.2559 
74 1 1.27841 19.7926 16.7563 
75 1 1.27878 12.221 16.757 
76 1 8.84997 19.7931 15.2555 
77 1 8.84997 19.7931 16.7572 
78 1 1.279 12.2209 15.2553 
79 1 1.27852 19.7924 15.2519 
80 1 8.85018 12.2219 16.7575 
105 1 7.00399 12.3184 12.3184 
106 1 3.1265 19.6964 19.6954 
107 1 3.12431 19.6945 12.3184 
108 1 7.00461 12.3189 19.6951 
109 1 3.12506 12.3181 19.6948 
110 1 7.00555 19.6949 12.3187 
111 1 7.00771 19.6955 19.6945 
112 1 3.12476 12.3185 12.3184 
113 1 8.75266 14.0669 12.3183 
114 1 1.37538 17.9456 19.6954 
115 1 8.75269 17.9474 19.6944 
116 1 1.37639 14.0651 12.3185 
117 1 1.37659 17.9468 12.3183 
118 1 8.75255 14.0659 19.6952 
119 1 1.37625 14.0632 19.6946 
120 1 8.75264 17.946 12.3184 
121 1 8.75232 12.319 14.0647 
122 1 1.37531 19.6961 17.9439 
123 1 1.37638 12.3184 17.9474 
124 1 8.75224 19.6956 14.0649 
125 1 8.75265 19.6953 17.9475 
126 1 1.37638 12.3186 14.065 
127 1 1.37652 19.6946 14.0627 
128 1 8.75269 12.3196 17.9486 
137 1 9.41075 11.6601 11.66 
138 1 0.732528 20.3324 20.3401 
139 1 0.719914 20.3509 11.661 
140 1 9.41164 11.66 20.3538 
141 1 0.718859 11.6613 20.3522 
142 1 9.4108 20.354 11.6605 
143 1 9.41052 20.3528 20.3527 
144 1 0.718323 11.6602 11.6599 
1 1 19.4146 1.72103 1.75111 
2 1 12.5613 8.50973 8.5097 
3 1 12.5587 8.51045 1.61907 
4 1 19.452 1.61876 8.51957 
5 1 12.5593 1.61876 8.51085 
6 1 19.4528 8.51734 1.61922 
7 1 19.4516 8.51068 8.51105 
8 1 12.5493 1.61907 1.61983 
17 1 21.1333 -0.01003 0.0185399 
18 1 10.9651 10.1056 10.1055 
19 1 10.9645 10.1063 0.0230012 
20 1 21.0505 0.0208604 10.109 
21 1 10.9645 0.0215725 10.1056 
22 1 21.0505 10.1071 0.0205975 
23 1 21.0475 10.1058 10.1059 
24 1 10.9639 0.0203823 0.0204668 
33 1 16.7462 1.27107 1.27315 
34 1 15.2542 8.84992 8.84992 
35 1 15.2532 8.84953 1.27853 
36 1 16.7531 1.27677 8.85091 
37 1 15.2525 1.27745 8.85044 
38 1 16.752 8.84998 1.27773 
39 1 16.7572 8.85001 8.8501 
40 1 15.244 1.27395 1.27486 
41 1 19.8027 4.34899 1.26543 
42 1 12.2211 5.8157 8.84994 
43 1 19.7924 5.81894 8.85044 
44 1 12.2208 4.31695 1.27757 
45 1 12.2205 5.81666 1.27776 
46 1 19.7929 4.31644 8.85088 
47 1 12.2211 4.31247 8.84996 
48 1 19.7963 5.83377 1.2733 
49 1 19.8035 1.2552 4.36028 
50 1 12.2211 8.84924 5.81616 
51 1 12.2206 1.27846 5.81706 
52 1 19.793 8.85031 4.31385 
53 1 19.7924 8.85042 5.81863 
54 1 12.2208 1.27695 4.31667 
55 1 12.221 8.84901 4.31272 
56 1 19.7976 1.2724 5.83827 
81 1 17.934 1.39428 1.40355 
82 1 14.0657 8.7522 8.75226 
83 1 14.0633 8.75191 1.37601 
84 1 17.9432 1.37394 8.75452 
85 1 14.0629 1.37543 8.75261 
86 1 17.9449 8.75416 1.37486 
87 1 17.9469 8.75247 8.75256 
88 1 14.0568 1.37441 1.37557 
89 1 19.6988 3.15876 1.39843 
90 1 12.3188 7.00542 8.75225 
91 1 19.6942 7.00769 8.75239 
92 1 12.3162 3.12399 1.37591 
93 1 12.3179 7.00702 1.37536 
94 1 19.6955 3.12735 8.75428 
95 1 12.318 3.12458 8.75278 
96 1 19.6944 7.02832 1.37744 
97 1 19.706 1.37014 3.16542 
98 1 12.3187 8.75195 7.00574 
99 1 12.3182 1.37637 7.00762 
100 1 19.6964 8.75501 3.12951 
101 1 19.6944 8.75261 7.00733 
102 1 12.3161 1.37476 3.12539 
103 1 12.3178 8.75182 3.12447 
104 1 19.694 1.37837 7.03528 
129 1 20.3233 0.695956 0.619865 
130 1 11.66 9.4108 9.41108 
131 1 11.659 9.41071 0.717545 
132 1 20.356 0.715282 9.415 
133 1 11.6596 0.716693 9.41086 
134 1 20.3552 9.41417 0.715495 
135 1 20.3534 9.41194 9.41137 
136 1 11.6566 0.71608 0.716051 
145 2 19.3123 0.823975 0.141766 
ITEM: TIMESTEP
40
ITEM: NUMBER OF ATOMS
145
ITEM: BOX BOUNDS pp pp pp
0.0000000000000000e+00 2.1884000000000000e+01
0.0000000000000000e+00 2.1885999999999999e+01
0.0000000000000000e+00 2.1885000000000002e+01
ITEM: ATOMS id type x y z 
9 1 8.50872 12.5626 12.5615 
10 1 1.61855 19.4512 19.4515 
11 1 1.62085 19.4503 12.5594 
12 1 8.50888 12.5617 19.4521 
13 1 1.62136 12.5596 19.4506 
14 1 8.5094 19.4509 12.5617 
15 1 8.51169 19.4513 19.4507 
16 1 1.62036 12.5616 12.5613 
25 1 10.1052 10.9657 10.9654 
26 1 0.0423086 21.0341 21.0535 
27 1 0.0252447 21.0455 10.9673 
28 1 10.1056 10.9658 21.0477 
29 1 0.0247145 10.9674 21.0468 
30 1 10.1051 21.0482 10.9661 
31 1 10.1045 21.0475 21.0476 
32 1 0.02408 10.9658 10.9655 
57 1 5.81637 12.2216 12.2217 
58 1 4.31786 19.7932 19.7924 
59 1 4.31457 19.7916 12.2216 
60 1 5.81732 12.2221 19.7915 
61 1 4.31344 12.2217 19.7917 
62 1 5.81642 19.7915 12.2217 
63 1 5.81773 19.7929 19.7919 
64 1 4.31262 12.2216 12.2216 
65 1 8.84943 15.2544 12.2216 
66 1 1.27854 16.7536 19.7925 
67 1 8.84925 16.7566 19.7916 
68 1 1.2796 15.2553 12.2216 
69 1 1.27938 16.7562 12.2216 
70 1 8.84924 15.2563 19.7919 
71 1 1.27888 15.2527 19.792 
72 1 8.84939 16.7588 12.2216 
73 1 8.84925 12.2224 15.2558 
74 1 1.2785 19.7926 16.7524 
75 1 1.27932 12.2217 16.7563 
76 1 8.8492 19.7925 15.2552 
77 1 8.84928 19.7925 16.7565 
78 1 1.27962 12.2216 15.2554 
79 1 1.27896 19.792 15.2526 
80 1 8.84937 12.2227 16.7573 
105 1 7.00611 12.32 12.3201 
106 1 3.13018 19.695 19.694 
107 1 3.12528 19.6932 12.3194 
108 1 7.00696 12.3206 19.6933 
109 1 3.12389 12.3194 19.6932 
110 1 7.00566 19.6934 12.3201 
111 1 7.00668 19.6944 19.6934 
112 1 3.12317 12.3201 12.32 
113 1 8.75095 14.0647 12.32 
114 1 1.37693 17.9414 19.6937 
115 1 8.75168 17.9454 19.6933 
116 1 1.37769 14.0662 12.3199 
117 1 1.37783 17.9456 12.3194 
118 1 8.75144 14.0672 19.6939 
119 1 1.37747 14.0633 19.6933 
120 1 8.75095 17.9483 12.3201 
121 1 8.75098 12.3203 14.0663 
122 1 1.37652 19.6947 17.9403 
123 1 1.37766 12.3194 17.946 
124 1 8.75093 19.6942 14.0661 
125 1 8.75167 19.6941 17.9454 
126 1 1.37769 12.3199 14.0663 
127 1 1.37759 19.6934 14.0638 
128 1 8.75155 12.3208 17.9461 
137 1 9.4102 11.6601 11.66 
138 1 0.732854 20.3317 20.3392 
139 1 0.721102 20.3503 11.6616 
140 1 9.41086 11.6612 20.3523 
141 1 0.720471 11.6622 20.3505 
142 1 9.41007 20.3537 11.6608 
143 1 9.41006 20.3519 20.3514 
144 1 0.718703 11.661 11.6608 
1 1 19.4174 1.70709 1.73006 
2 1 12.5614 8.50929 8.51 
3 1 12.5602 8.50969 1.61931 
4 1 19.4501 1.61936 8.51842 
5 1 12.5597 1.6194 8.51081 
6 1 19.4499 8.51759 1.62019 
7 1 19.451 8.51177 8.51105 
8 1 12.5581 1.62027 1.62095 
17 1 21.1469 -0.00295837 0.0397331 
18 1 10.9654 10.1053 10.1055 
19 1 10.9646 10.1062 0.0225524 
20 1 21.0513 0.0194998 10.1095 
21 1 10.9647 0.0214161 10.1057 
22 1 21.0508 10.1075 0.0199164 
23 1 21.0482 10.1064 10.1061 
24 1 10.9646 0.0209209 0.0210209 
33 1 16.7492 1.27471 1.27596 
34 1 15.2556 8.84934 8.84938 
35 1 15.2506 8.84907 1.27873 
36 1 16.7539 1.2766 8.85013 
37 1 15.251 1.27773 8.85013 
38 1 16.755 8.84946 1.27794 
39 1 16.7558 8.84946 8.84949 
40 1 15.249 1.27395 1.27547 
41 1 19.8046 4.35038 1.26642 
42 1 12.2217 5.81537 8.84931 
43 1 19.7921 5.81795 8.85008 
44 1 12.2217 4.3135 1.27844 
45 1 12.2213 5.81665 1.27816 
46 1 19.793 4.31872 8.85016 
47 1 12.2215 4.31436 8.84949 
48 1 19.7971 5.83375 1.27191 
49 1 19.8082 1.25283 4.36751 
50 1 12.2217 8.84863 5.81514 
51 1 12.2213 1.27872 5.81597 
52 1 19.7931 8.85018 4.31737 
53 1 19.7922 8.84997 5.81828 
54 1 12.2216 1.27779 4.31408 
55 1 12.2215 8.84845 4.31479 
56 1 19.7979 1.27029 5.84284 
81 1 17.9364 1.40354 1.41536 
82 1 14.066 8.75094 8.75096 
83 1 14.0609 8.75057 1.37771 
84 1 17.9425 1.37531 8.75469 
85 1 14.0613 1.37689 8.7514 
86 1 17.9457 8.75344 1.37638 
87 1 17.945 8.75154 8.75169 
88 1 14.058 1.37628 1.37712 
89 1 19.6918 3.1569 1.40884 
90 1 12.3201 7.00476 8.75096 
91 1 19.6932 7.00737 8.75164 
92 1 12.3169 3.12457 1.37766 
93 1 12.3189 7.00588 1.37679 
94 1 19.6945 3.12872 8.75484 
95 1 12.3192 3.12449 8.75161 
96 1 19.6928 7.02819 1.37821 
97 1 19.7005 1.37906 3.16731 
98 1 12.3199 8.75073 7.00447 
99 1 12.3191 1.37756 7.00666 
100 1 19.695 8.75412 3.12628 
101 1 19.6932 8.75167 7.00766 
102 1 12.3168 1.37661 3.1251 
103 1 12.3189 8.75067 3.12499 
104 1 19.6927 1.37962 7.0358 
129 1 20.2939 0.69312 0.598556 
130 1 11.66 9.4108 9.41046 
131 1 11.659 9.41077 0.718308 
132 1 20.3557 0.715892 9.41621 
133 1 11.6591 0.717041 9.4111 
134 1 20.3546 9.41426 0.716792 
135 1 20.3527 9.41149 9.41133 
136 1 11.6565 0.717688 0.717885 
145 2 19.2916 0.824902 0.125387 
ITEM: TIMESTEP
50
ITEM: NUMBER OF ATOMS
145
ITEM: BOX BOUNDS pp pp pp
0.0000000000000000e+00 2.1884000000000000e+01
0.0000000000000000e+00 2.1885999999999999e+01
0.0000000000000000e+00 2.1885000000000002e+01
ITEM: ATOMS id type x y z 
9 1 8.50928 12.5609 12.5621 
10 1 1.6218 19.4483 19.4475 
11 1 1.62179 19.4494 12.56 
12 1 8.5103 12.563 19.4507 
13 1 1.62089 12.56 19.4494 
14 1 8.50926 19.452 12.5622 
15 1 8.51098 19.45 19.4495 
16 1 1.61948 12.5623 12.5623 
25 1 10.1049 10.9656 10.9654 
26 1 0.0451893 21.0418 21.0653 
27 1 0.025745 21.0456 10.9676 
28 1 10.1062 10.9656 21.0479 
29 1 0.0238466 10.9667 21.0472 
30 1 10.1048 21.0484 10.9662 
31 1 10.1055 21.0486 21.0483 
32 1 0.0235303 10.9657 10.9654 
57 1 5.8145 12.2222 12.2223 
58 1 4.31492 19.793 19.7921 
59 1 4.31535 19.7912 12.222 
60 1 5.81548 12.2227 19.791 
61 1 4.31575 12.2223 19.7912 
62 1 5.81609 19.7911 12.2222 
63 1 5.82052 19.7927 19.7918 
64 1 4.31461 12.2222 12.2222 
65 1 8.84881 15.2573 12.2222 
66 1 1.27882 16.7551 19.7922 
67 1 8.84882 16.7577 19.7913 
68 1 1.27993 15.2547 12.2221 
69 1 1.27972 16.7563 12.222 
70 1 8.84891 15.2551 19.7915 
71 1 1.27902 15.2514 19.7918 
72 1 8.84875 16.7562 12.2223 
73 1 8.84875 12.2229 15.2554 
74 1 1.27874 19.7925 16.7553 
75 1 1.27966 12.2221 16.7564 
76 1 8.84873 19.7921 15.2552 
77 1 8.84883 19.7921 16.7568 
78 1 1.27996 12.2221 15.2548 
79 1 1.27904 19.792 15.2504 
80 1 8.84897 12.2232 16.7575 
105 1 7.00367 12.3206 12.3207 
106 1 3.12658 19.693 19.6923 
107 1 3.12575 19.6922 12.3201 
108 1 7.00444 12.3211 19.6927 
109 1 3.12714 12.3199 19.6926 
110 1 7.00557 19.6924 12.3209 
111 1 7.01002 19.6931 19.6922 
112 1 3.12559 12.3207 12.3206 
113 1 8.75051 14.0676 12.3204 
114 1 1.37869 17.9438 19.692 
115 1 8.75062 17.9472 19.692 
116 1 1.37884 14.0652 12.3208 
117 1 1.37888 17.9458 12.3202 
118 1 8.75021 14.0652 19.6927 
119 1 1.37856 14.0621 19.6924 
120 1 8.75042 17.9453 12.3207 
121 1 8.75001 12.3212 14.066 
122 1 1.37816 19.6927 17.944 
123 1 1.37872 12.3202 17.9461 
124 1 8.75005 19.6931 14.0655 
125 1 8.75072 19.693 17.9464 
126 1 1.37884 12.3209 14.0653 
127 1 1.37874 19.6923 14.0611 
128 1 8.75037 12.3218 17.9473 
137 1 9.4107 11.6604 11.6599 
138 1 0.728711 20.336 20.3448 
139 1 0.721441 20.3491 11.6619 
140 1 9.40976 11.6615 20.3521 
141 1 0.722102 11.6629 20.3496 
142 1 9.41043 20.3531 11.6607 
143 1 9.40984 20.3509 20.3512 
144 1 0.719666 11.6611 11.6609 
1 1 19.4208 1.70734 1.7391 
2 1 12.5618 8.50905 8.50878 
3 1 12.5576 8.50935 1.62063 
4 1 19.4504 1.62132 8.52398 
5 1 12.5581 1.62006 8.50984 
6 1 19.4512 8.51784 1.62012 
7 1 19.45 8.51115 8.51129 
8 1 12.5587 1.61947 1.62006 
17 1 21.1578 -0.00473647 0.0455785 
18 1 10.9651 10.1057 10.1054 
19 1 10.9639 10.1065 0.0222158 
20 1 21.0516 0.0193993 10.1095 
21 1 10.9648 0.0212351 10.1058 
22 1 21.0513 10.1079 0.0197598 
23 1 21.0489 10.1067 10.1065 
24 1 10.9643 0.0214927 0.0217013 
33 1 16.7495 1.27802 1.28043 
34 1 15.2544 8.8489 8.84889 
35 1 15.254 8.8485 1.27921 
36 1 16.7515 1.27688 8.84998 
37 1 15.252 1.27794 8.84962 
38 1 16.7532 8.84881 1.27853 
39 1 16.7563 8.84901 8.84914 
40 1 15.2545 1.27471 1.27589 
41 1 19.8044 4.34715 1.26974 
42 1 12.2222 5.81578 8.84878 
43 1 19.792 5.81994 8.84969 
44 1 12.2217 4.31403 1.27937 
45 1 12.222 5.81571 1.27863 
46 1 19.7928 4.3174 8.8501 
47 1 12.222 4.31409 8.84904 
48 1 19.7975 5.83352 1.2713 
49 1 19.8092 1.25367 4.36327 
50 1 12.2222 8.84818 5.81615 
51 1 12.222 1.27914 5.81604 
52 1 19.7929 8.8499 4.31868 
53 1 19.7919 8.8495 5.81774 
54 1 12.2216 1.27874 4.3142 
55 1 12.2219 8.84806 4.31409 
56 1 19.7991 1.26876 5.84216 
81 1 17.9375 1.40944 1.42096 
82 1 14.0648 8.7499 8.74999 
83 1 14.0642 8.75041 1.37793 
84 1 17.9408 1.37571 8.7548 
85 1 14.062 1.37752 8.75104 
86 1 17.9401 8.75368 1.37666 
87 1 17.9462 8.75074 8.75078 
88 1 14.0655 1.37655 1.37756 
89 1 19.6873 3.15559 1.41423 
90 1 12.321 7.00516 8.75006 
91 1 19.6921 7.00971 8.75082 
92 1 12.3184 3.12491 1.37832 
93 1 12.3195 7.00434 1.37748 
94 1 19.6938 3.12834 8.7547 
95 1 12.3199 3.12462 8.7508 
96 1 19.692 7.02446 1.37808 
97 1 19.6967 1.38498 3.16336 
98 1 12.321 8.74962 7.00601 
99 1 12.3197 1.3783 7.00532 
100 1 19.6941 8.75387 3.12681 
101 1 19.6924 8.7511 7.00775 
102 1 12.3183 1.37733 3.12515 
103 1 12.3198 8.74971 3.12407 
104 1 19.6924 1.37903 7.034 
129 1 20.2852 0.683286 0.579176 
130 1 11.6599 9.41077 9.41114 
131 1 11.6602 9.41043 0.718586 
132 1 20.3547 0.716197 9.41636 
133 1 11.6588 0.717345 9.41133 
134 1 20.3532 9.41415 0.717597 
135 1 20.352 9.41157 9.41128 
136 1 11.6583 0.718646 0.718891 
145 2 19.2701 0.822752 0.104366 
ITEM: TIMESTEP
60
ITEM: NUMBER OF ATOMS
145
ITEM: BOX BOUNDS pp pp pp
0.0000000000000000e+00 2.1884000000000000e+01
0.0000000000000000e+00 2.1885999999999999e+01
0.0000000000000000e+00 2.1885000000000002e+01
ITEM: ATOMS id type x y z 
9 1 8.50883 12.5622 12.5617 
10 1 1.62014 19.4493 19.4491 
11 1 1.62228 19.4489 12.5593 
12 1 8.50944 12.5622 19.4511 
13 1 1.62195 12.5597 19.4494 
14 1 8.50935 19.4509 12.562 
15 1 8.51253 19.4502 19.4497 
16 1 1.62044 12.5619 12.5619 
25 1 10.1051 10.9656 10.9653 
26 1 0.0513368 21.0416 21.0678 
27 1 0.0259416 21.0453 10.9678 
28 1 10.1055 10.9661 21.0475 
29 1 0.0252514 10.9678 21.0461 
30 1 10.1049 21.0482 10.966 
31 1 10.1048 21.0477 21.0476 
32 1 0.0241843 10.9661 10.9658 
57 1 5.81518 12.2224 12.2225 
58 1 4.31697 19.7927 19.7918 
59 1 4.31523 19.791 12.2223 
60 1 5.81627 12.2229 19.7908 
61 1 4.31528 12.2224 19.7911 
62 1 5.81631 19.7908 12.2225 
63 1 5.81815 19.7925 19.7915 
64 1 4.31387 12.2225 12.2225 
65 1 8.84852 15.2556 12.2225 
66 1 1.27913 16.754 19.7919 
67 1 8.84847 16.7569 19.7909 
68 1 1.28022 15.255 12.2224 
69 1 1.27998 16.756 12.2223 
70 1 8.84854 15.2561 19.7912 
71 1 1.2793 15.2521 19.7916 
72 1 8.8485 16.7575 12.2225 
73 1 8.84842 12.2232 15.2562 
74 1 1.279 19.7922 16.7533 
75 1 1.27995 12.2224 16.756 
76 1 8.84839 19.7918 15.2553 
77 1 8.8485 19.7918 16.7564 
78 1 1.28026 12.2224 15.2551 
79 1 1.27932 19.7917 15.2519 
80 1 8.84861 12.2235 16.7568 
105 1 7.00535 12.3213 12.3214 
106 1 3.12893 19.6925 19.6918 
107 1 3.12639 19.6917 12.3204 
108 1 7.00627 12.3218 19.692 
109 1 3.12552 12.3205 19.6918 
110 1 7.0059 19.6919 12.3214 
111 1 7.00814 19.6931 19.6921 
112 1 3.12453 12.3213 12.3213 
113 1 8.74976 14.0659 12.3212 
114 1 1.37917 17.9419 19.6914 
115 1 8.75049 17.9457 19.6917 
116 1 1.37921 14.0656 12.3213 
117 1 1.37935 17.9448 12.3205 
118 1 8.75 14.0663 19.6924 
119 1 1.3789 14.0631 19.692 
120 1 8.74976 17.9468 12.3213 
121 1 8.74959 12.3216 14.0659 
122 1 1.37849 19.6923 17.9417 
123 1 1.37916 12.3206 17.9453 
124 1 8.74961 19.6927 14.0659 
125 1 8.75055 19.6925 17.9454 
126 1 1.37922 12.3213 14.0658 
127 1 1.37887 19.6921 14.0633 
128 1 8.75005 12.3222 17.9466 
137 1 9.4103 11.6604 11.6603 
138 1 0.73032 20.3352 20.3445 
139 1 0.721299 20.3497 11.6615 
140 1 9.41087 11.6608 20.3527 
141 1 0.7202 11.6611 20.3509 
142 1 9.41027 20.3533 11.6609 
143 1 9.41145 20.3527 20.3525 
144 1 0.718899 11.6607 11.6606 
1 1 19.422 1.70101 1.72946 
2 1 12.5614 8.50914 8.5094 
3 1 12.5592 8.50913 1.61969 
4 1 19.4495 1.62047 8.52228 
5 1 12.5586 1.62006 8.51002 
6 1 19.4502 8.51703 1.62082 
7 1 19.4501 8.5121 8.5112 
8 1 12.5618 1.61962 1.62006 
17 1 21.161 -0.00222399 0.0526591 
18 1 10.9652 10.1056 10.1056 
19 1 10.9648 10.1059 0.0228204 
20 1 21.0515 0.0193807 10.1093 
21 1 10.9649 0.0214566 10.1059 
22 1 21.0504 10.1073 0.0203728 
23 1 21.0484 10.1063 10.1062 
24 1 10.9647 0.0223596 0.022598 
33 1 16.7502 1.28003 1.28232 
34 1 15.255 8.84855 8.84857 
35 1 15.2515 8.84826 1.27938 