ITEM: TIMESTEP
0
ITEM: NUMBER OF ATOMS
57
ITEM: BOX BOUNDS pp pp pp
0.0000000000000000e+00 3.2808000000000000e+01
0.0000000000000000e+00 1.7780000000000001e+01
0.0000000000000000e+00 2.4729999999999999e+00
ITEM: ATOMS id type x y z 
13 1 7.043 0.849 2.464 
29 1 7.397 1.432 1.228 
37 1 8.035 2.733 1.228 
1 1 6.173 17.398 2.464 
5 1 5.371 17.398 1.228 
9 1 3.973 17.398 1.228 
16 1 7.043 16.167 2.464 
32 1 7.397 15.584 1.228 
40 1 8.035 14.283 1.228 
45 1 3.236 17.398 2.464 
49 1 1.81 17.398 2.464 
53 1 1.083 17.398 1.228 
57 2 1.091 16.296 1.224 
4 1 10.968 8.508 2.464 
8 1 11.771 8.508 1.228 
12 1 13.168 8.508 1.228 
18 1 10.098 7.277 2.464 
21 1 8.308 3.392 2.464 
26 1 8.833 4.734 2.464 
34 1 9.745 6.694 1.228 
42 1 9.106 5.393 1.228 
48 1 13.906 8.508 2.464 
52 1 15.331 8.508 2.464 
56 1 16.058 8.508 1.228 
19 1 10.098 9.739 2.464 
24 1 8.308 13.624 2.464 
27 1 8.833 12.282 2.464 
35 1 9.745 10.322 1.228 
43 1 9.106 11.623 1.228 
3 1 22.577 8.508 2.464 
7 1 21.775 8.508 1.228 
11 1 20.377 8.508 1.228 
20 1 23.447 7.277 2.464 
36 1 23.801 6.694 1.228 
44 1 24.439 5.393 1.228 
47 1 19.64 8.508 2.464 
51 1 18.214 8.508 2.464 
55 1 17.487 8.508 1.228 
17 1 23.447 9.739 2.464 
33 1 23.801 10.322 1.228 
41 1 24.439 11.623 1.228 
15 1 26.502 0.849 2.464 
23 1 25.237 3.392 2.464 
28 1 24.712 4.734 2.464 
31 1 26.149 1.432 1.228 
39 1 25.511 2.733 1.228 
2 1 27.373 17.398 2.464 
6 1 28.175 17.398 1.228 
10 1 29.572 17.398 1.228 
14 1 26.502 16.167 2.464 
22 1 25.237 13.624 2.464 
25 1 24.712 12.282 2.464 
30 1 26.149 15.584 1.228 
38 1 25.511 14.283 1.228 
46 1 30.31 17.398 2.464 
50 1 31.735 17.398 2.464 
54 1 32.462 17.398 1.228 
ITEM: TIMESTEP
10
ITEM: NUMBER OF ATOMS
57
ITEM: BOX BOUNDS pp pp pp
0.0000000000000000e+00 3.2808000000000000e+01
0.0000000000000000e+00 1.7780000000000001e+01
0.0000000000000000e+00 2.4729999999999999e+00
ITEM: ATOMS id type x y z 
13 1 7.08087 0.826692 2.46428 
29 1 7.44157 1.43744 1.22778 
37 1 8.05229 2.68917 1.22773 
1 1 6.14561 17.3982 2.46422 
5 1 5.32801 17.3959 1.22766 
9 1 3.93587 17.3876 1.22776 
16 1 7.08105 16.1893 2.46428 
32 1 7.44163 15.5785 1.22778 
40 1 8.0523 14.3268 1.22773 
45 1 3.17941 17.4082 2.46431 
49 1 1.77503 17.6795 2.4645 
53 1 1.0923 17.2469 1.2278 
57 2 1.03916 16.0751 1.22331 
4 1 10.9626 8.508 2.46422 
8 1 11.797 8.508 1.22768 
12 1 13.211 8.508 1.22774 
18 1 10.047 7.29265 2.46428 
21 1 8.30989 3.36321 2.46425 
26 1 8.82802 4.7553 2.46424 
34 1 9.69305 6.67657 1.22779 
42 1 9.08851 5.43693 1.22773 
48 1 13.9038 8.508 2.46427 
52 1 15.309 8.508 2.46427 
56 1 16.0445 8.508 1.22772 
19 1 10.047 9.72335 2.46428 
24 1 8.30989 13.6528 2.46425 
27 1 8.82803 12.2607 2.46424 
35 1 9.69305 10.3394 1.22779 
43 1 9.08852 11.5791 1.22773 
3 1 22.5822 8.508 2.46422 
7 1 21.7511 8.508 1.22768 
11 1 20.3474 8.508 1.22774 
20 1 23.4954 7.2955 2.46428 
36 1 23.8523 6.67748 1.22779 
44 1 24.4582 5.43212 1.22773 
47 1 19.6489 8.508 2.46427 
51 1 18.2338 8.508 2.46427 
55 1 17.4909 8.508 1.22772 
17 1 23.4954 9.7205 2.46428 
33 1 23.8523 10.3385 1.22779 
41 1 24.4582 11.5839 1.22773 
15 1 26.4653 0.821667 2.46429 
23 1 25.2336 3.3674 2.46424 
28 1 24.7174 4.75316 2.46424 
31 1 26.106 1.43437 1.22779 
39 1 25.4931 2.69207 1.22773 
2 1 27.4005 17.398 2.46422 
6 1 28.2063 17.398 1.22765 
10 1 29.5977 17.3978 1.22776 
14 1 26.4653 16.1943 2.46429 
22 1 25.2336 13.6486 2.46424 
25 1 24.7174 12.2628 2.46424 
30 1 26.106 15.5816 1.22779 
38 1 25.4931 14.3239 1.22773 
46 1 30.3246 17.3965 2.46426 
50 1 31.8052 17.4056 2.46442 
54 1 32.5251 17.485 1.22794 
ITEM: TIMESTEP
20
ITEM: NUMBER OF ATOMS
57
ITEM: BOX BOUNDS pp pp pp
0.0000000000000000e+00 3.2808000000000000e+01
0.0000000000000000e+00 1.7780000000000001e+01
0.0000000000000000e+00 2.4729999999999999e+00
ITEM: ATOMS id type x y z 
13 1 7.08592 0.829189 2.46427 
29 1 7.45783 1.42427 1.22777 
37 1 8.06706 2.68051 1.22774 
1 1 6.14162 17.3985 2.46421 
5 1 5.33021 17.3899 1.22772 
9 1 3.92053 17.3712 1.22778 
16 1 7.0875 16.1868 2.46427 
32 1 7.45814 15.5915 1.22777 
40 1 8.06714 14.3353 1.22774 
45 1 3.14266 17.4394 2.46428 
49 1 1.74934 17.7155 2.46394 
53 1 1.1508 17.1723 1.22708 
57 2 1.07456 16.0516 1.22444 
4 1 10.9668 8.50798 2.46422 
8 1 11.7724 8.508 1.22772 
12 1 13.1978 8.508 1.22775 
18 1 10.0372 7.29367 2.46427 
21 1 8.31904 3.3618 2.46425 
26 1 8.81815 4.75472 2.46425 
34 1 9.67461 6.68862 1.22777 
42 1 9.07021 5.43581 1.22774 
48 1 13.9218 8.508 2.46425 
52 1 15.293 8.508 2.46425 
56 1 16.0391 8.508 1.22775 
19 1 10.0372 9.72232 2.46427 
24 1 8.31906 13.6541 2.46425 
27 1 8.81823 12.2611 2.46425 
35 1 9.67461 10.3274 1.22777 
43 1 9.07024 11.5801 1.22774 
3 1 22.58 8.508 2.46423 
7 1 21.7739 8.508 1.22771 
11 1 20.3498 8.508 1.22775 
20 1 23.513 7.28881 2.46427 
36 1 23.8717 6.68832 1.22777 
44 1 24.4743 5.43725 1.22774 
47 1 19.627 8.508 2.46425 
51 1 18.2421 8.508 2.46425 
55 1 17.4964 8.508 1.22775 
17 1 23.513 9.72719 2.46427 
33 1 23.8717 10.3277 1.22777 
41 1 24.4743 11.5788 1.22774 
15 1 26.4469 0.834653 2.46427 
23 1 25.2251 3.36376 2.46425 
28 1 24.7265 4.75495 2.46425 
31 1 26.0836 1.42981 1.22777 
39 1 25.479 2.68116 1.22774 
2 1 27.3854 17.398 2.46422 
6 1 28.2088 17.398 1.22771 
10 1 29.607 17.3965 1.22776 
14 1 26.4469 16.1813 2.46427 
22 1 25.2251 13.6522 2.46425 
25 1 24.7265 12.2611 2.46425 
30 1 26.0836 15.5862 1.22777 
38 1 25.479 14.3348 1.22774 
46 1 30.3435 17.3945 2.46427 
50 1 31.8091 17.4264 2.46449 
54 1 32.5359 17.5212 1.22799 
ITEM: TIMESTEP
30
ITEM: NUMBER OF ATOMS
57
ITEM: BOX BOUNDS pp pp pp
0.0000000000000000e+00 3.2808000000000000e+01
0.0000000000000000e+00 1.7780000000000001e+01
0.0000000000000000e+00 2.4729999999999999e+00
ITEM: ATOMS id type x y z 
13 1 7.07705 0.820164 2.46426 
29 1 7.46586 1.40991 1.22776 
37 1 8.08018 2.67243 1.22775 
1 1 6.1308 17.3984 2.46422 
5 1 5.33035 17.3839 1.22773 
9 1 3.90943 17.3635 1.22775 
16 1 7.08116 16.1962 2.46426 
32 1 7.46707 15.6053 1.22776 
40 1 8.08039 14.3431 1.22775 
45 1 3.14568 17.4645 2.46424 
49 1 1.75844 17.7169 2.4636 
53 1 1.16679 17.1579 1.22691 
57 2 1.11506 16.0137 1.22505 
4 1 10.9609 8.50791 2.46423 
8 1 11.7641 8.50798 1.22773 
12 1 13.1878 8.508 1.22775 
18 1 10.0299 7.29561 2.46426 
21 1 8.32523 3.35621 2.46425 
26 1 8.80929 4.75243 2.46425 
34 1 9.65831 6.69367 1.22776 
42 1 9.05492 5.43731 1.22775 
48 1 13.9299 8.508 2.46425 
52 1 15.2969 8.508 2.46425 
56 1 16.0347 8.508 1.22775 
19 1 10.0299 9.72033 2.46426 
24 1 8.32532 13.6595 2.46425 
27 1 8.80949 12.263 2.46425 
35 1 9.65833 10.3222 1.22776 
43 1 9.05503 11.5783 1.22775 
3 1 22.5865 8.508 2.46423 
7 1 21.7836 8.508 1.22773 
11 1 20.3612 8.508 1.22775 
20 1 23.5177 7.29586 2.46426 
36 1 23.8887 6.69318 1.22776 
44 1 24.4893 5.44095 1.22775 
47 1 19.6107 8.508 2.46425 
51 1 18.2395 8.508 2.46425 
55 1 17.5032 8.508 1.22775 
17 1 23.5177 9.72014 2.46426 
33 1 23.8887 10.3228 1.22776 
41 1 24.4893 11.5751 1.22775 
15 1 26.4493 0.824304 2.46426 
23 1 25.2187 3.35847 2.46425 
28 1 24.7339 4.75693 2.46425 
31 1 26.0693 1.42227 1.22777 
39 1 25.4641 2.67601 1.22775 
2 1 27.3839 17.3981 2.46423 
6 1 28.2123 17.3976 1.22773 
10 1 29.6051 17.3942 1.22777 
14 1 26.4492 16.1917 2.46426 
22 1 25.2187 13.6575 2.46425 
25 1 24.7339 12.2591 2.46425 
30 1 26.0693 15.5938 1.22777 
38 1 25.4641 14.34 1.22775 
46 1 30.3478 17.3928 2.46427 
50 1 31.806 17.4442 2.46447 
54 1 32.522 17.5486 1.22795 
ITEM: TIMESTEP
40
ITEM: NUMBER OF ATOMS
57
ITEM: BOX BOUNDS pp pp pp
0.0000000000000000e+00 3.2808000000000000e+01
0.0000000000000000e+00 1.7780000000000001e+01
0.0000000000000000e+00 2.4729999999999999e+00
ITEM: ATOMS id type x y z 
13 1 7.06792 0.815513 2.46425 
29 1 7.48215 1.39083 1.22776 
37 1 8.10708 2.65507 1.22775 
1 1 6.12114 17.3975 2.46424 
5 1 5.32292 17.3715 1.22773 
9 1 3.89877 17.3557 1.22766 
16 1 7.07937 16.2028 2.46425 
32 1 7.48676 15.6232 1.22776 
40 1 8.10771 14.3594 1.22775 
45 1 3.14421 17.5034 2.46414 
49 1 1.75664 17.7031 2.46336 
53 1 1.15729 17.1356 1.22681 
57 2 1.17488 15.9938 1.22582 
4 1 10.9455 8.5076 2.46424 
8 1 11.7426 8.50785 1.22774 
12 1 13.1681 8.50802 1.22775 
18 1 10.0118 7.29501 2.46425 
21 1 8.33908 3.345 2.46425 
26 1 8.7919 4.74959 2.46425 
34 1 9.62869 6.70291 1.22776 
42 1 9.02398 5.44025 1.22775 
48 1 13.9411 8.50801 2.46425 
52 1 15.2991 8.508 2.46425 
56 1 16.0317 8.508 1.22775 
19 1 10.0119 9.7206 2.46425 
24 1 8.33933 13.6699 2.46425 
27 1 8.79242 12.2645 2.46425 
35 1 9.62877 10.3126 1.22776 
43 1 9.02435 11.5745 1.22775 
3 1 22.5949 8.50801 2.46424 
7 1 21.8063 8.508 1.22774 
11 1 20.3783 8.508 1.22775 
20 1 23.5311 7.30057 2.46425 
36 1 23.9173 6.70732 1.22776 
44 1 24.5208 5.44611 1.22775 
47 1 19.601 8.508 2.46425 
51 1 18.2422 8.508 2.46425 
55 1 17.5074 8.508 1.22775 
17 1 23.5311 9.71545 2.46425 
33 1 23.9173 10.3087 1.22776 
41 1 24.5208 11.5699 1.22775 
15 1 26.4482 0.818751 2.46425 
23 1 25.2032 3.35186 2.46425 
28 1 24.7507 4.75756 2.46425 
31 1 26.0477 1.40227 1.22776 
39 1 25.4346 2.66333 1.22775 
2 1 27.3889 17.3982 2.46424 
6 1 28.2202 17.3965 1.22775 
10 1 29.609 17.3875 1.22779 
14 1 26.4479 16.1973 2.46425 
22 1 25.2032 13.6642 2.46425 
25 1 24.7507 12.2584 2.46425 
30 1 26.0477 15.6138 1.22776 
38 1 25.4346 14.3527 1.22775 
46 1 30.3433 17.3892 2.46428 
50 1 31.8082 17.4835 2.46434 
54 1 32.5285 17.5632 1.22781 
ITEM: TIMESTEP
50
ITEM: NUMBER OF ATOMS
57
ITEM: BOX BOUNDS pp pp pp
0.0000000000000000e+00 3.2808000000000000e+01
0.0000000000000000e+00 1.7780000000000001e+01
0.0000000000000000e+00 2.4729999999999999e+00
ITEM: ATOMS id type x y z 
13 1 7.05457 0.823161 2.46425 
29 1 7.51446 1.34175 1.22774 
37 1 8.18983 2.61278 1.22775 
1 1 6.11457 17.3917 2.46423 
5 1 5.27968 17.337 1.22772 
9 1 3.90191 17.3631 1.22742 
16 1 7.09512 16.2024 2.46425 
32 1 7.53654 15.6699 1.22774 
40 1 8.19254 14.3972 1.22775 
45 1 3.16237 17.5813 2.46393 
49 1 1.71124 17.6867 2.46348 
53 1 1.16157 17.1005 1.22689 
57 2 1.26664 15.9552 1.22699 
4 1 10.9146 8.50623 2.46426 
8 1 11.7117 8.507 1.22775 
12 1 13.141 8.50813 1.22775 
18 1 9.97237 7.30353 2.46425 
21 1 8.38781 3.31923 2.46426 
26 1 8.73935 4.73835 2.46426 
34 1 9.55562 6.73212 1.22774 
42 1 8.93442 5.44821 1.22775 
48 1 13.8985 8.50808 2.46425 
52 1 15.2986 8.50801 2.46424 
56 1 16.0227 8.508 1.22775 
19 1 9.97283 9.71029 2.46425 
24 1 8.38826 13.6922 2.46426 
27 1 8.74096 12.2699 2.46426 
35 1 9.55591 10.2815 1.22774 
43 1 8.93581 11.5624 1.22775 
3 1 22.6196 8.508 2.46427 
7 1 21.8222 8.50801 1.22774 
11 1 20.3891 8.508 1.22775 
20 1 23.5727 7.29811 2.46425 
36 1 23.9975 6.73678 1.22774 
44 1 24.6107 5.46897 1.22775 
47 1 19.6258 8.508 2.46425 
51 1 18.2612 8.508 2.46424 
55 1 17.4989 8.508 1.22775 
17 1 23.5727 9.71792 2.46425 
33 1 23.9975 10.2792 1.22774 
41 1 24.6106 11.547 1.22775 
15 1 26.4406 0.819976 2.46426 
23 1 25.154 3.32819 2.46426 
28 1 24.8025 4.75937 2.46426 
31 1 25.9911 1.35774 1.22774 
39 1 25.3485 2.6223 1.22775 
2 1 27.4053 17.3987 2.46428 
6 1 28.2086 17.3897 1.22776 
10 1 29.6284 17.3647 1.22776 
14 1 26.4382 16.1968 2.46426 
22 1 25.154 13.6878 2.46426 
25 1 24.8025 12.2565 2.46426 
30 1 25.9906 15.6581 1.22774 
38 1 25.3485 14.3935 1.22775 
46 1 30.3881 17.3948 2.46428 
50 1 31.803 17.5771 2.46392 
54 1 32.5279 17.5568 1.22735 
ITEM: TIMESTEP
60
ITEM: NUMBER OF ATOMS
57
ITEM: BOX BOUNDS pp pp pp
0.0000000000000000e+00 3.2808000000000000e+01
0.0000000000000000e+00 1.7780000000000001e+01
0.0000000000000000e+00 2.4729999999999999e+00
ITEM: ATOMS id type x y z 
13 1 7.03694 0.812957 2.46424 
29 1 7.5241 1.32264 1.22774 
37 1 8.23283 2.59122 1.22775 
1 1 6.10181 17.3911 2.46421 
5 1 5.29641 17.3218 1.2277 
9 1 3.88975 17.3796 1.22736 
16 1 7.09112 16.2194 2.46424 
32 1 7.55726 15.6944 1.22774 
40 1 8.24123 14.4142 1.22775 
45 1 3.1461 17.6152 2.46385 
49 1 1.72903 17.6735 2.46353 
53 1 1.16187 17.0888 1.22704 
57 2 1.28525 15.9512 1.22727 
4 1 10.8953 8.50497 2.46426 
8 1 11.7187 8.5065 1.22776 
12 1 13.1111 8.50817 1.22775 
18 1 9.95521 7.3057 2.46425 
21 1 8.41297 3.31342 2.46425 
26 1 8.71297 4.72215 2.46425 
34 1 9.52794 6.7504 1.22775 
42 1 8.88685 5.45141 1.22775 
48 1 13.8794 8.50818 2.46425 
52 1 15.3128 8.50803 2.46425 
56 1 16.0326 8.50799 1.22775 
19 1 9.95582 9.70728 2.46425 
24 1 8.41539 13.6907 2.46425 
27 1 8.71494 12.279 2.46425 
35 1 9.52668 10.2644 1.22775 
43 1 8.89168 11.5505 1.22775 
3 1 22.6391 8.50817 2.46426 
7 1 21.8207 8.50804 1.22776 
11 1 20.4254 8.508 1.22775 
20 1 23.5819 7.30948 2.46425 
36 1 24.0218 6.75906 1.22775 
44 1 24.6567 5.47682 1.22775 
47 1 19.654 8.508 2.46425 
51 1 18.2294 8.508 2.46425 
55 1 17.504 8.508 1.22775 
17 1 23.582 9.70672 2.46425 
33 1 24.022 10.2574 1.22775 
41 1 24.6564 11.539 1.22775 
15 1 26.4477 0.806042 2.46425 
23 1 25.1266 3.33296 2.46425 
28 1 24.8295 4.74755 2.46425 
31 1 25.9778 1.32801 1.22775 
39 1 25.3001 2.61025 1.22775 
2 1 27.407 17.3986 2.46427 
6 1 28.2259 17.3848 1.22777 
10 1 29.6255 17.355 1.22775 
14 1 26.4429 16.2111 2.46425 
22 1 25.1268 13.6833 2.46425 
25 1 24.8292 12.2673 2.46425 
30 1 25.9764 15.6874 1.22775 
38 1 25.3003 14.4054 1.22775 
46 1 30.3688 17.4024 2.46424 
50 1 31.8086 17.6093 2.46377 
54 1 32.5313 17.543 1.22725 
ITEM: TIMESTEP
70
ITEM: NUMBER OF ATOMS
57
ITEM: BOX BOUNDS pp pp pp
0.0000000000000000e+00 3.2808000000000000e+01
0.0000000000000000e+00 1.7780000000000001e+01
0.0000000000000000e+00 2.4729999999999999e+00
ITEM: ATOMS id type x y z 
13 1 7.03428 0.816451 2.46424 
29 1 7.52612 1.32215 1.22774 
37 1 8.26054 2.57697 1.22775 
1 1 6.10644 17.3866 2.4642 
5 1 5.29772 17.3139 1.22769 
9 1 3.89113 17.3977 1.22736 
16 1 7.10027 16.222 2.46423 
32 1 7.57307 15.6974 1.22774 
40 1 8.27323 14.4313 1.22775 
45 1 3.14757 17.6332 2.46385 
49 1 1.73273 17.6754 2.46362 
53 1 1.16893 17.0852 1.22713 
57 2 1.27481 15.9493 1.2272 
4 1 10.8835 8.5001 2.46425 
8 1 11.7113 8.50407 1.22775 
12 1 13.1043 8.50832 1.22775 
18 1 9.94352 7.30052 2.46425 
21 1 8.43137 3.30367 2.46425 
26 1 8.69799 4.72029 2.46425 
34 1 9.50757 6.74708 1.22775 
42 1 8.85527 5.45312 1.22775 
48 1 13.8589 8.50844 2.46425 
52 1 15.3038 8.50807 2.46425 
56 1 16.0446 8.50797 1.22775 
19 1 9.94756 9.70365 2.46425 
24 1 8.43317 13.7015 2.46425 
27 1 8.69821 12.2788 2.46425 
35 1 9.51138 10.2545 1.22775 
43 1 8.8504 11.5554 1.22775 
3 1 22.645 8.50654 2.46425 
7 1 21.8135 8.50791 1.22775 
11 1 20.4247 8.50798 1.22775 
20 1 23.589 7.31014 2.46425 
36 1 24.0405 6.76994 1.22775 
44 1 24.7076 5.46399 1.22775 
47 1 19.6783 8.50799 2.46425 
51 1 18.2242 8.508 2.46425 
55 1 17.4911 8.50799 1.22775 
17 1 23.5885 9.70502 2.46425 
33 1 24.0406 10.2451 1.22775 
41 1 24.7079 11.5512 1.22775 
15 1 26.4496 0.806838 2.46425 
23 1 25.1072 3.3266 2.46425 
28 1 24.8491 4.74172 2.46425 
31 1 25.9655 1.32341 1.22775 
39 1 25.2649 2.59046 1.22775 
2 1 27.4058 17.3993 2.46426 
6 1 28.2272 17.3788 1.22776 
10 1 29.6272 17.3511 1.22772 
14 1 26.4419 16.2122 2.46425 
22 1 25.1069 13.6875 2.46425 
25 1 24.8498 12.2757 2.46425 
30 1 25.963 15.6936 1.22775 
38 1 25.2634 14.4239 1.22775 
46 1 30.3744 17.4138 2.4642 
50 1 31.8141 17.618 2.46377 
54 1 32.5316 17.5265 1.22727 
ITEM: TIMESTEP
80
ITEM: NUMBER OF ATOMS
57
ITEM: BOX BOUNDS pp pp pp
0.0000000000000000e+00 3.2808000000000000e+01
0.0000000000000000e+00 1.7780000000000001e+01
0.0000000000000000e+00 2.4729999999999999e+00
ITEM: ATOMS id type x y z 
13 1 7.03647 0.817905 2.46423 
29 1 7.52454 1.32468 1.22774 
37 1 8.26678 2.57525 1.22775 
1 1 6.1103 17.386 2.46419 
5 1 5.30052 17.3125 1.22768 
9 1 3.8966 17.4082 1.22736 
16 1 7.10637 16.2218 2.46423 
32 1 7.57687 15.6994 1.22774 
40 1 8.28499 14.4282 1.22775 
45 1 3.15111 17.6392 2.46386 
49 1 1.73374 17.6709 2.46365 
53 1 1.16571 17.0869 1.22715 
57 2 1.27341 15.9488 1.22719 
4 1 10.8801 8.50021 2.46425 
8 1 11.7052 8.50327 1.22775 
12 1 13.1011 8.50829 1.22775 
18 1 9.93833 7.30082 2.46425 
21 1 8.43909 3.3003 2.46425 
26 1 8.69243 4.72179 2.46425 
34 1 9.50471 6.7476 1.22775 
42 1 8.84728 5.45012 1.22775 
48 1 13.8565 8.50863 2.46425 
52 1 15.3007 8.50812 2.46425 
56 1 16.0421 8.50796 1.22775 
19 1 9.94162 9.7037 2.46425 
24 1 8.44208 13.7007 2.46425 
27 1 8.69118 12.2788 2.46425 
35 1 9.50725 10.2557 1.22775 
43 1 8.84515 11.5501 1.22775 
3 1 22.6518 8.50721 2.46425 
7 1 21.8267 8.50785 1.22775 
11 1 20.4301 8.508 1.22775 
20 1 23.596 7.30989 2.46425 
36 1 24.0432 6.76703 1.22775 
44 1 24.7095 5.47336 1.22775 
47 1 19.6757 8.50799 2.46425 
51 1 18.2316 8.508 2.46425 
55 1 17.4891 8.50798 1.22775 
17 1 23.5957 9.70532 2.46425 
33 1 24.0431 10.2482 1.22775 
41 1 24.7096 11.5415 1.22775 
15 1 26.4465 0.806813 2.46425 
23 1 25.0997 3.32046 2.46425 
28 1 24.8565 4.74312 2.46425 
31 1 25.9664 1.32319 1.22775 
39 1 25.2564 2.59299 1.22775 
2 1 27.4031 17.3986 2.46426 
6 1 28.2242 17.3762 1.22776 
10 1 29.6239 17.3525 1.2277 
14 1 26.4373 16.2126 2.46425 
22 1 25.0994 13.6943 2.46425 
25 1 24.8566 12.2715 2.46425 
30 1 25.9624 15.6934 1.22775 
38 1 25.2548 14.422 1.22775 
46 1 30.3691 17.4198 2.46419 
50 1 31.8119 17.6168 2.46378 
54 1 32.5294 17.5217 1.22727 
ITEM: TIMESTEP
90
ITEM: NUMBER OF ATOMS
57
ITEM: BOX BOUNDS pp pp pp
0.0000000000000000e+00 3.2808000000000000e+01
0.0000000000000000e+00 1.7780000000000001e+01
0.0000000000000000e+00 2.4729999999999999e+00
ITEM: ATOMS id type x y z 
13 1 7.04367 0.819279 2.46423 
29 1 7.51811 1.33496 1.22773 
37 1 8.29299 2.56934 1.22775 
1 1 6.12723 17.3753 2.46416 
5 1 5.31368 17.3086 1.22765 
9 1 3.91902 17.4597 1.22738 
16 1 7.13217 16.2218 2.46422 
32 1 7.59928 15.6948 1.22773 
40 1 8.32356 14.4314 1.22775 
45 1 3.16352 17.6624 2.46387 
49 1 1.74549 17.6484 2.46374 
53 1 1.15788 17.0888 1.22723 
57 2 1.26717 15.9484 1.22716 
4 1 10.8742 8.49729 2.46425 
8 1 11.693 8.49965 1.22775 
12 1 13.0963 8.5079 1.22775 
18 1 9.91947 7.30347 2.46425 
21 1 8.47173 3.291 2.46425 
26 1 8.67005 4.72539 2.46425 
34 1 9.49209 6.74678 1.22775 
42 1 8.82215 5.45165 1.22775 
48 1 13.8556 8.50943 2.46425 
52 1 15.2964 8.50842 2.46425 
56 1 16.0435 8.50796 1.22775 
19 1 9.92288 9.69657 2.46425 
24 1 8.47803 13.7039 2.46425 
27 1 8.66493 12.2684 2.46425 
35 1 9.49518 10.2511 1.22775 
43 1 8.81705 11.5427 1.22775 
3 1 22.6571 8.50664 2.46425 
7 1 21.8385 8.50726 1.22775 
11 1 20.4355 8.50803 1.22775 
20 1 23.6171 7.31338 2.46425 
36 1 24.0528 6.76551 1.22775 
44 1 24.7359 5.47658 1.22775 
47 1 19.6764 8.50804 2.46425 
51 1 18.2355 8.50799 2.46425 
55 1 17.488 8.50793 1.22775 
17 1 23.6165 9.70067 2.46425 
33 1 24.0523 10.2482 1.22775 
41 1 24.7368 11.5362 1.22775 
15 1 26.4341 0.807723 2.46425 
23 1 25.0656 3.31315 2.46425 
28 1 24.8849 4.74945 2.46425 
31 1 25.9636 1.33066 1.22775 
39 1 25.2264 2.58682 1.22775 
2 1 27.3897 17.3967 2.46425 
6 1 28.2087 17.3656 1.22774 
10 1 29.6118 17.362 1.22764 
14 1 26.4179 16.2135 2.46425 
22 1 25.0645 13.7 2.46425 
25 1 24.8853 12.2636 2.46425 
30 1 25.9527 15.6868 1.22775 
38 1 25.2218 14.4268 1.22775 
46 1 30.3575 17.447 2.46412 
50 1 31.8028 17.6072 2.46382 
54 1 32.5159 17.5055 1.22732 
ITEM: TIMESTEP
100
ITEM: NUMBER OF ATOMS
57
ITEM: BOX BOUNDS pp pp pp
0.0000000000000000e+00 3.2808000000000000e+01
0.0000000000000000e+00 1.7780000000000001e+01
0.0000000000000000e+00 2.4729999999999999e+00
ITEM: ATOMS id type x y z 
13 1 7.06001 0.817221 2.46421 
29 1 7.50949 1.35 1.22771 
37 1 8.29577 2.57578 1.22774 
1 1 6.15146 17.3595 2.46413 
5 1 5.33632 17.3269 1.22762 
9 1 3.95069 17.5415 1.22741 
16 1 7.16388 16.2176 2.46421 
32 1 7.62437 15.6838 1.22771 
40 1 8.34868 14.4213 1.22774 
45 1 3.1807 17.676 2.46391 
49 1 1.76694 17.6081 2.46378 
53 1 1.14502 17.0893 1.22727 
57 2 1.25238 15.9503 1.22722 
4 1 10.8805 8.49478 2.46425 
8 1 11.7037 8.49721 1.22775 
12 1 13.0998 8.50649 1.22775 
18 1 9.91648 7.30994 2.46425 
21 1 8.49332 3.29379 2.46424 
26 1 8.66404 4.73003 2.46425 
34 1 9.4893 6.75089 1.22775 
42 1 8.82327 5.45587 1.22775 
48 1 13.8581 8.50974 2.46425 
52 1 15.2996 8.50928 2.46425 
56 1 16.0435 8.5082 1.22775 
19 1 9.92131 9.68278 2.46425 
24 1 8.50789 13.6943 2.46424 
27 1 8.65277 12.2552 2.46425 
35 1 9.49176 10.2411 1.22775 
43 1 8.8138 11.53 1.22775 
3 1 22.6526 8.5048 2.46425 
7 1 21.8299 8.5061 1.22775 
11 1 20.432 8.50785 1.22775 
20 1 23.6166 7.3253 2.46425 
36 1 24.0545 6.76745 1.22775 
44 1 24.7367 5.48103 1.22775 
47 1 19.6755 8.50823 2.46425 
51 1 18.2325 8.50799 2.46425 
55 1 17.4892 8.50781 1.22775 
17 1 23.6153 9.68623 2.46425 
33 1 24.0538 10.2431 1.22775 
41 1 24.739 11.5276 1.22775 
15 1 26.4186 0.809987 2.46425 
23 1 25.0435 3.3162 2.46425 
28 1 24.896 4.75558 2.46425 
31 1 25.9657 1.34336 1.22775 
39 1 25.2166 2.59242 1.22775 
2 1 27.3702 17.3907 2.46422 
6 1 28.1885 17.3606 1.22771 
10 1 29.5906 17.4006 1.22758 
14 1 26.3914 16.2122 2.46425 
22 1 25.0393 13.6933 2.46425 
25 1 24.8983 12.2534 2.46425 
30 1 25.9402 15.6756 1.22775 
38 1 25.2042 14.4187 1.22775 
46 1 30.3371 17.4791 2.46407 
50 1 31.7895 17.5664 2.46388 
54 1 32.4999 17.4952 1.22737 
ITEM: TIMESTEP
110
ITEM: NUMBER OF ATOMS
57
ITEM: BOX BOUNDS pp pp pp
0.0000000000000000e+00 3.2808000000000000e+01
0.0000000000000000e+00 1.7780000000000001e+01
0.0000000000000000e+00 2.4729999999999999e+00
ITEM: ATOMS id type x y z 
13 1 7.06081 0.814992 2.4642 
29 1 7.51236 1.34657 1.22771 
37 1 8.30042 2.57415 1.22774 
1 1 6.15387 17.3553 2.46413 
5 1 5.33794 17.3354 1.22762 
9 1 3.95525 17.5618 1.22743 
16 1 7.16744 16.2156 2.4642 
32 1 7.63288 15.6857 1.2277 
40 1 8.36107 14.4234 1.22774 
45 1 3.18346 17.6887 2.46392 
49 1 1.77185 17.5989 2.4638 
53 1 1.14495 17.0849 1.22729 
57 2 1.24201 15.944 1.22724 
4 1 10.8767 8.49446 2.46425 
8 1 11.696 8.49587 1.22775 
12 1 13.0975 8.5063 1.22775 
18 1 9.91526 7.30593 2.46425 
21 1 8.49486 3.29055 2.46424 
26 1 8.66641 4.72943 2.46425 
34 1 9.48325 6.75171 1.22775 
42 1 8.81329 5.4562 1.22775 
48 1 13.8581 8.50978 2.46425 
52 1 15.2972 8.5096 2.46425 
56 1 16.0467 8.50847 1.22775 
19 1 9.91907 9.68646 2.46425 
24 1 8.51333 13.6963 2.46424 
27 1 8.65298 12.2542 2.46425 
35 1 9.48479 10.239 1.22775 
43 1 8.80142 11.5272 1.22775 
3 1 22.6575 8.50422 2.46425 
7 1 21.8397 8.50527 1.22775 
11 1 20.4347 8.50778 1.22775 
20 1 23.618 7.32024 2.46425 
36 1 24.0596 6.76849 1.22775 
44 1 24.7469 5.48182 1.22775 
47 1 19.6758 8.5083 2.46425 
51 1 18.2359 8.50801 2.46425 
55 1 17.4872 8.50781 1.22775 
17 1 23.6167 9.69002 2.46425 
33 1 24.059 10.241 1.22775 
41 1 24.7503 11.5251 1.22775 
15 1 26.419 0.810248 2.46424 
23 1 25.0416 3.31382 2.46425 
28 1 24.8944 4.75475 2.46425 
31 1 25.9638 1.34118 1.22775 
39 1 25.2113 2.58941 1.22775 
2 1 27.3671 17.3876 2.46421 
6 1 28.1866 17.3645 1.2277 
10 1 29.5876 17.4165 1.22758 
14 1 26.3872 16.2112 2.46424 
22 1 25.0356 13.6943 2.46425 
25 1 24.8975 12.2524 2.46425 
30 1 25.9319 15.6779 1.22775 
38 1 25.1946 14.4207 1.22775 
46 1 30.3348 17.4894 2.46407 
50 1 31.789 17.5577 2.4639 
54 1 32.4976 17.4833 1.22739 
ITEM: TIMESTEP
120
ITEM: NUMBER OF ATOMS
57
ITEM: BOX BOUNDS pp pp pp
0.0000000000000000e+00 3.2808000000000000e+01
0.0000000000000000e+00 1.7780000000000001e+01
0.0000000000000000e+00 2.4729999999999999e+00
ITEM: ATOMS id type x y z 
13 1 7.07491 0.806363 2.46418 
29 1 7.51868 1.34285 1.22769 
37 1 8.29859 2.57456 1.22773 
1 1 6.16429 17.3462 2.46412 
5 1 5.34536 17.3573 1.22761 
9 1 3.96612 17.6139 1.22746 
16 1 7.17901 16.2097 2.46418 
32 1 7.64735 15.6842 1.22769 
40 1 8.37557 14.4233 1.22773 
45 1 3.18901 17.7148 2.46394 
49 1 1.78706 17.5639 2.46385 
53 1 1.14401 17.0766 1.22735 
57 2 1.2219 15.9305 1.22729 
4 1 10.8758 8.49468 2.46425 
8 1 11.6933 8.49505 1.22775 
12 1 13.0978 8.50523 1.22775 
18 1 9.91153 7.30738 2.46425 
21 1 8.49717 3.29095 2.46423 
26 1 8.66919 4.72865 2.46425 
34 1 9.47917 6.75432 1.22775 
42 1 8.81063 5.45754 1.22775 
48 1 13.8545 8.50941 2.46425 
52 1 15.2977 8.51036 2.46425 
56 1 16.0427 8.50932 1.22775 
19 1 9.91174 9.68649 2.46425 
24 1 8.52767 13.6944 2.46423 
27 1 8.65242 12.2526 2.46425 
35 1 9.47733 10.2343 1.22775 
43 1 8.79337 11.5223 1.22775 
3 1 22.6544 8.50337 2.46425 
7 1 21.8386 8.50372 1.22775 
11 1 20.4375 8.50733 1.22775 
20 1 23.6294 7.30996 2.46425 
36 1 24.0634 6.7705 1.22775 
44 1 24.7501 5.48305 1.22775 
47 1 19.6789 8.50836 2.46425 
51 1 18.2363 8.50809 2.46425 
55 1 17.4907 8.508 1.22775 
17 1 23.6284 9.69791 2.46425 
33 1 24.0635 10.2362 1.22775 
41 1 24.756 11.52 1.22775 
15 1 26.4128 0.805494 2.46423 
23 1 25.0374 3.31177 2.46425 
28 1 24.8931 4.75415 2.46425 
31 1 25.9604 1.34275 1.22773 
39 1 25.2101 2.59044 1.22775 
2 1 27.3596 17.3804 2.46419 
6 1 28.1769 17.3734 1.22768 
10 1 29.5791 17.4569 1.22756 
14 1 26.3738 16.2113 2.46423 
22 1 25.0264 13.693 2.46425 
25 1 24.8982 12.2497 2.46425 
30 1 25.9151 15.6767 1.22773 
38 1 25.1839 14.4184 1.22775 
46 1 30.3347 17.5176 2.46405 
50 1 31.7833 17.5325 2.46393 
54 1 32.4861 17.4562 1.22742 
ITEM: TIMESTEP
130
ITEM: NUMBER OF ATOMS
57
ITEM: BOX BOUNDS pp pp pp
0.0000000000000000e+00 3.2808000000000000e+01
0.0000000000000000e+00 1.7780000000000001e+01
0.0000000000000000e+00 2.4729999999999999e+00
ITEM: ATOMS id type x y z 
13 1 7.07507 0.805295 2.46418 
29 1 7.51931 1.34229 1.22769 
37 1 8.29909 2.57546 1.22773 
1 1 6.16184 17.3462 2.46412 
5 1 5.34473 17.3586 1.22761 
9 1 3.96743 17.6157 1.22746 
16 1 7.17793 16.2104 2.46418 
32 1 7.64741 15.6844 1.22769 
40 1 8.3769 14.4224 1.22773 
45 1 3.19081 17.7154 2.46395 
49 1 1.78846 17.5635 2.46386 
53 1 1.14189 17.0742 1.22735 
57 2 1.22124 15.93 1.22729 
4 1 10.8762 8.49503 2.46425 
8 1 11.6943 8.49521 1.22775 
12 1 13.0973 8.5052 1.22775 
18 1 9.9118 7.30789 2.46425 
21 1 8.49697 3.29087 2.46423 
26 1 8.66932 4.72952 2.46425 
34 1 9.47899 6.75422 1.22775 
42 1 8.81101 5.45731 1.22775 
48 1 13.8569 8.50935 2.46425 
52 1 15.2975 8.51039 2.46425 
56 1 16.045 8.50937 1.22775 
19 1 9.91271 9.68489 2.46425 
24 1 8.52816 13.6946 2.46423 
27 1 8.65252 12.2519 2.46424 
35 1 9.47672 10.2346 1.22775 
43 1 8.79302 11.5227 1.22775 
3 1 22.6576 8.50323 2.46425 
7 1 21.8408 8.5037 1.22775 
11 1 20.4359 8.50729 1.22775 
20 1 23.6247 7.31668 2.46425 
36 1 24.0641 6.76943 1.22775 
44 1 24.7508 5.48227 1.22775 
47 1 19.677 8.50834 2.46425 
51 1 18.2365 8.50811 2.46425 
55 1 17.4886 8.50804 1.22775 
17 1 23.6237 9.69108 2.46425 
33 1 24.0643 10.2371 1.22775 
41 1 24.757 11.5207 1.22775 
15 1 26.4124 0.805448 2.46423 
23 1 25.0371 3.31295 2.46425 
28 1 24.893 4.75396 2.46425 
31 1 25.9615 1.34053 1.22773 
39 1 25.2098 2.59043 1.22775 
2 1 27.3608 17.3801 2.46419 
6 1 28.1782 17.3739 1.22768 
10 1 29.5794 17.4586 1.22756 
14 1 26.3736 16.2115 2.46423 
22 1 25.0259 13.6919 2.46425 
25 1 24.8983 12.2497 2.46425 
30 1 25.916 15.6787 1.22773 
38 1 25.1829 14.4183 1.22775 
46 1 30.3305 17.5189 2.46405 
50 1 31.7832 17.5316 2.46393 
54 1 32.4879 17.4547 1.22742 
ITEM: TIMESTEP
131
ITEM: NUMBER OF ATOMS
57
ITEM: BOX BOUNDS pp pp pp
0.0000000000000000e+00 3.2808000000000000e+01
0.0000000000000000e+00 1.7780000000000001e+01
0.0000000000000000e+00 2.4729999999999999e+00
ITEM: ATOMS id type x y z 
13 1 7.07507 0.805295 2.46418 
29 1 7.51931 1.34229 1.22769 
37 1 8.29909 2.57546 1.22773 
1 1 6.16184 17.3462 2.46412 
5 1 5.34473 17.3586 1.22761 
9 1 3.96744 17.6157 1.22746 
16 1 7.17793 16.2104 2.46418 
32 1 7.64741 15.6844 1.22769 
40 1 8.3769 14.4224 1.22773 
45 1 3.19081 17.7154 2.46395 
49 1 1.78846 17.5635 2.46386 
53 1 1.14189 17.0742 1.22735 
57 2 1.22124 15.93 1.22729 
4 1 10.8762 8.49503 2.46425 
8 1 11.6943 8.49521 1.22775 
12 1 13.0973 8.5052 1.22775 
18 1 9.9118 7.30789 2.46425 
21 1 8.49697 3.29087 2.46423 
26 1 8.66932 4.72952 2.46425 
34 1 9.47899 6.75422 1.22775 
42 1 8.81101 5.45731 1.22775 
48 1 13.8569 8.50935 2.46425 
52 1 15.2975 8.51039 2.46425 
56 1 16.045 8.50937 1.22775 
19 1 9.91271 9.68489 2.46425 
24 1 8.52816 13.6946 2.46423 
27 1 8.65252 12.2519 2.46424 
35 1 9.47672 10.2346 1.22775 
43 1 8.79302 11.5227 1.22775 
3 1 22.6576 8.50323 2.46425 
7 1 21.8408 8.5037 1.22775 
11 1 20.4359 8.50729 1.22775 
20 1 23.6247 7.31668 2.46425 
36 1 24.0641 6.76943 1.22775 
44 1 24.7508 5.48227 1.22775 
47 1 19.677 8.50834 2.46425 
51 1 18.2365 8.50811 2.46425 
55 1 17.4886 8.50804 1.22775 
17 1 23.6237 9.69108 2.46425 
33 1 24.0643 10.2371 1.22775 
41 1 24.757 11.5207 1.22775 
15 1 26.4124 0.805448 2.46423 
23 1 25.0371 3.31295 2.46425 
28 1 24.893 4.75396 2.46425 
31 1 25.9615 1.34053 1.22773 
39 1 25.2098 2.59043 1.22775 
2 1 27.3608 17.3801 2.46419 
6 1 28.1782 17.3739 1.22768 
10 1 29.5794 17.4586 1.22756 
14 1 26.3736 16.2115 2.46423 
22 1 25.0259 13.6919 2.46425 
25 1 24.8983 12.2497 2.46425 
30 1 25.916 15.6787 1.22773 
38 1 25.1829 14.4183 1.22775 
46 1 30.3305 17.5189 2.46405 
50 1 31.7832 17.5316 2.46393 
54 1 32.4879 17.4547 1.22742 
ITEM: TIMESTEP
132
ITEM: NUMBER OF ATOMS
57
ITEM: BOX BOUNDS pp pp pp
0.0000000000000000e+00 3.2808000000000000e+01
0.0000000000000000e+00 1.7780000000000001e+01
0.0000000000000000e+00 2.4729999999999999e+00
ITEM: ATOMS id type x y z 
13 1 7.07507 0.805295 2.46418 
29 1 7.51931 1.34229 1.22769 
1 1 6.16184 17.3462 2.46412 
5 1 5.34473 17.3586 1.22761 
9 1 3.96744 17.6157 1.22746 
16 1 7.17793 16.2104 2.46418 
32 1 7.64741 15.6844 1.22769 
57 2 1.22124 15.93 1.22729 
45 1 3.1908 17.7154 2.46395 
49 1 1.78846 17.5635 2.46386 
53 1 1.14189 17.0742 1.22735 
4 1 10.8762 8.49503 2.46425 
8 1 11.6943 8.49521 1.22775 
12 1 13.0973 8.5052 1.22775 
18 1 9.9118 7.30789 2.46425 
21 1 8.49697 3.29087 2.46423 
26 1 8.66932 4.72952 2.46425 
34 1 9.47899 6.75422 1.22775 
42 1 8.81101 5.45731 1.22775 
48 1 13.8569 8.50935 2.46425 
52 1 15.2975 8.51039 2.46425 
56 1 16.045 8.50937 1.22775 
37 1 8.29909 2.57546 1.22773 
19 1 9.91271 9.68489 2.46425 
24 1 8.52816 13.6946 2.46423 
27 1 8.65252 12.2519 2.46424 
35 1 9.47672 10.2346 1.22775 
43 1 8.79302 11.5227 1.22775 
40 1 8.3769 14.4224 1.22773 
3 1 22.6576 8.50323 2.46425 
7 1 21.8408 8.5037 1.22775 
11 1 20.4359 8.50729 1.22775 
20 1 23.6247 7.31668 2.46425 
36 1 24.0641 6.76943 1.22775 
55 1 17.4886 8.50804 1.22775 
47 1 19.677 8.50834 2.46425 
51 1 18.2365 8.50811 2.46425 
17 1 23.6237 9.69108 2.46425 
33 1 24.0643 10.2371 1.22775 
15 1 26.4124 0.805448 2.46423 
23 1 25.0371 3.31295 2.46425 
28 1 24.893 4.75396 2.46425 