LAMMPS (3 Mar 2020)
Reading data file ...
  orthogonal box = (0 0 0) to (32.808 17.78 2.473)
  4 by 2 by 1 MPI processor grid
  reading atoms ...
  57 atoms
  read_data CPU = 0.00772905 secs
WARNING: Changed valency_val to valency_boc for X (../reaxc_ffield.cpp:315)
WARNING: Using 'neigh_modify every 1 delay 0 check yes' setting during minimization (../min.cpp:190)
Neighbor list info ...
  update every 1 steps, delay 0 steps, check yes
  max neighbors/atom: 2000, page size: 100000
  master list distance cutoff = 12
  ghost atom cutoff = 12
  binsize = 6, bins = 6 3 1
  2 neighbor lists, perpetual/occasional/extra = 2 0 0
  (1) pair reax/c, perpetual
      attributes: half, newton off, ghost
      pair build: half/bin/newtoff/ghost
      stencil: half/ghost/bin/3d/newtoff
      bin: standard
  (2) fix qeq/reax, perpetual, copy from (1)
      attributes: half, newton off, ghost
      pair build: copy
      stencil: none
      bin: none
Setting up cg style minimization ...
  Unit style    : real
  Current step  : 0
Per MPI rank memory allocation (min/avg/max) = 28.39 | 28.58 | 28.77 Mbytes
Step Temp E_pair E_mol TotEng Press 
       0            0   -10778.491            0   -10778.491    606350.07 
     131            0   -11088.228            0   -11088.228    128281.24 
Loop time of 24.0091 on 8 procs for 131 steps with 57 atoms

99.9% CPU use with 8 MPI tasks x no OpenMP threads

Minimization stats:
  Stopping criterion = energy tolerance
  Energy initial, next-to-last, final = 
        -10778.4906962      -11088.227964     -11088.2280588
  Force two-norm initial, final = 463.726 34.5971
  Force max component initial, final = 211.165 13.458
  Final line search alpha, max atom move = 0.000231538 0.00311605
  Iterations, force evaluations = 131 724

MPI task timing breakdown:
Section |  min time  |  avg time  |  max time  |%varavg| %total
---------------------------------------------------------------
Pair    | 20.686     | 21.348     | 21.747     |   8.4 | 88.91
Neigh   | 0          | 0          | 0          |   0.0 |  0.00
Comm    | 0.22948    | 0.6284     | 1.2883     |  48.7 |  2.62
Output  | 0.0017125  | 0.0024291  | 0.0033869  |   1.0 |  0.01
Modify  | 1.9931     | 1.9939     | 1.9958     |   0.1 |  8.30
Other   |            | 0.03682    |            |       |  0.15

Nlocal:    7.125 ave 11 max 3 min
Histogram: 2 0 2 0 0 0 0 1 1 2
Nghost:    1117.88 ave 1131 max 1104 min
Histogram: 2 0 2 0 0 0 0 2 0 2
Neighs:    1974.12 ave 3052 max 847 min
Histogram: 2 0 2 0 0 0 0 1 1 2

Total # of neighbors = 15793
Ave neighs/atom = 277.07
Neighbor list builds = 0
Dangerous builds = 0
WARNING: Using 'neigh_modify every 1 delay 0 check yes' setting during minimization (../min.cpp:190)
Setting up cg style minimization ...
  Unit style    : real
  Current step  : 131
Per MPI rank memory allocation (min/avg/max) = 28.39 | 28.58 | 28.77 Mbytes
Step Temp E_pair E_mol TotEng Press 
     131            0   -11088.228            0   -11088.228    128281.25 
     132            0   -11088.228            0   -11088.228    128281.93 
Loop time of 0.293911 on 8 procs for 1 steps with 57 atoms

99.7% CPU use with 8 MPI tasks x no OpenMP threads

Minimization stats:
  Stopping criterion = energy tolerance
  Energy initial, next-to-last, final = 
        -11088.2280558     -11088.2280558     -11088.2281275
  Force two-norm initial, final = 34.5971 34.5357
  Force max component initial, final = 13.458 13.4292
  Final line search alpha, max atom move = 0.000232204 0.00311831
  Iterations, force evaluations = 1 8

MPI task timing breakdown:
Section |  min time  |  avg time  |  max time  |%varavg| %total
---------------------------------------------------------------
Pair    | 0.25371    | 0.26205    | 0.26733    |   1.0 | 89.16
Neigh   | 0          | 0          | 0          |   0.0 |  0.00
Comm    | 0.002657   | 0.0079604  | 0.016318   |   5.5 |  2.71
Output  | 0          | 0          | 0          |   0.0 |  0.00
Modify  | 0.023173   | 0.023181   | 0.0232     |   0.0 |  7.89
Other   |            | 0.0007191  |            |       |  0.24

Nlocal:    7.125 ave 12 max 2 min
Histogram: 2 0 0 0 2 0 1 1 0 2
Nghost:    1117.88 ave 1130 max 1105 min
Histogram: 2 0 2 0 0 0 0 2 0 2
Neighs:    1968 ave 3333 max 554 min
Histogram: 2 0 0 0 2 1 1 0 0 2

Total # of neighbors = 15744
Ave neighs/atom = 276.211
Neighbor list builds = 0
Dangerous builds = 0
WARNING: Using 'neigh_modify every 1 delay 0 check yes' setting during minimization (../min.cpp:190)
Setting up cg style minimization ...
  Unit style    : real
  Current step  : 132
WARNING: Energy due to 3 extra global DOFs will be included in minimizer energies
Per MPI rank memory allocation (min/avg/max) = 28.39 | 28.58 | 28.77 Mbytes
Step Temp E_pair E_mol TotEng Press Volume 
     132            0   -11088.228            0   -11088.228    128281.94    1442.5658 
    2326            0   -11136.087            0   -11136.087   -382.00937    1471.3678 
Loop time of 103.762 on 8 procs for 2194 steps with 57 atoms

99.8% CPU use with 8 MPI tasks x no OpenMP threads

Minimization stats:
  Stopping criterion = energy tolerance
  Energy initial, next-to-last, final = 
        -11088.2281246     -11136.0870978     -11136.0871963
  Force two-norm initial, final = 5013.55 20.5786
  Force max component initial, final = 4167.74 17.0787
  Final line search alpha, max atom move = 6.25811e-06 0.000106881
  Iterations, force evaluations = 2194 3279

MPI task timing breakdown:
Section |  min time  |  avg time  |  max time  |%varavg| %total
---------------------------------------------------------------
Pair    | 92.456     | 95.418     | 97.516     |  18.6 | 91.96
Neigh   | 0          | 0          | 0          |   0.0 |  0.00
Comm    | 0.78345    | 2.8772     | 5.8345     | 106.7 |  2.77
Output  | 0.02534    | 0.031023   | 0.043198   |   3.0 |  0.03
Modify  | 4.9997     | 5.0034     | 5.0113     |   0.1 |  4.82
Other   |            | 0.4327     |            |       |  0.42

Nlocal:    7.125 ave 12 max 2 min
Histogram: 2 0 0 0 2 0 1 1 0 2
Nghost:    1117.88 ave 1130 max 1105 min
Histogram: 2 0 2 0 0 0 0 2 0 2
Neighs:    1968 ave 3333 max 554 min
Histogram: 2 0 0 0 2 1 1 0 0 2

Total # of neighbors = 15744
Ave neighs/atom = 276.211
Neighbor list builds = 0
Dangerous builds = 0
WARNING: Using 'neigh_modify every 1 delay 0 check yes' setting during minimization (../min.cpp:190)
Setting up cg style minimization ...
  Unit style    : real
  Current step  : 2326
Per MPI rank memory allocation (min/avg/max) = 28.39 | 28.58 | 28.77 Mbytes
Step Temp E_pair E_mol TotEng Press 
    2326            0   -11136.087            0   -11136.087   -382.00448 
    2352            0   -11136.674            0   -11136.674     13044.35 
Loop time of 5.44151 on 8 procs for 26 steps with 57 atoms

99.8% CPU use with 8 MPI tasks x no OpenMP threads

Minimization stats:
  Stopping criterion = energy tolerance
  Energy initial, next-to-last, final = 
        -11136.0871946     -11136.6743885     -11136.6744782
  Force two-norm initial, final = 9.84392 25.1422
  Force max component initial, final = 2.31654 14.835
  Final line search alpha, max atom move = 0.000209568 0.00310893
  Iterations, force evaluations = 26 167

MPI task timing breakdown:
Section |  min time  |  avg time  |  max time  |%varavg| %total
---------------------------------------------------------------
Pair    | 4.7208     | 4.8554     | 4.9557     |   4.0 | 89.23
Neigh   | 0          | 0          | 0          |   0.0 |  0.00
Comm    | 0.042328   | 0.14247    | 0.27678    |  23.3 |  2.62
Output  | 0.00051967 | 0.00058481 | 0.00077144 |   0.0 |  0.01
Modify  | 0.43461    | 0.43475    | 0.43529    |   0.0 |  7.99
Other   |            | 0.008312   |            |       |  0.15

Nlocal:    7.125 ave 11 max 3 min
Histogram: 2 0 2 0 0 0 0 1 1 2
Nghost:    1117.88 ave 1131 max 1104 min
Histogram: 2 0 2 0 0 0 0 2 0 2
Neighs:    1939.38 ave 3008 max 825 min
Histogram: 2 0 2 0 0 0 0 1 1 2

Total # of neighbors = 15515
Ave neighs/atom = 272.193
Neighbor list builds = 0
Dangerous builds = 0
WARNING: Using 'neigh_modify every 1 delay 0 check yes' setting during minimization (../min.cpp:190)
Setting up cg style minimization ...
  Unit style    : real
  Current step  : 2352
WARNING: Energy due to 3 extra global DOFs will be included in minimizer energies
Per MPI rank memory allocation (min/avg/max) = 28.39 | 28.58 | 28.77 Mbytes
Step Temp E_pair E_mol TotEng Press Volume 
    2352            0   -11136.674            0   -11136.674    13044.356    1471.3678 
    2459            0   -11137.037            0   -11137.037    405.02235    1472.5504 
Loop time of 6.24604 on 8 procs for 107 steps with 57 atoms

99.9% CPU use with 8 MPI tasks x no OpenMP threads

Minimization stats:
  Stopping criterion = energy tolerance
  Energy initial, next-to-last, final = 
        -11136.6744764      -11137.036964     -11137.0370548
  Force two-norm initial, final = 510.6 19.134
  Force max component initial, final = 407.816 14.8761
  Final line search alpha, max atom move = 9.37504e-06 0.000139464
  Iterations, force evaluations = 107 198

MPI task timing breakdown:
Section |  min time  |  avg time  |  max time  |%varavg| %total
---------------------------------------------------------------
Pair    | 5.5818     | 5.7576     | 5.8756     |   4.4 | 92.18
Neigh   | 0          | 0          | 0          |   0.0 |  0.00
Comm    | 0.045212   | 0.16318    | 0.33821    |  25.9 |  2.61
Output  | 0.0012104  | 0.0013886  | 0.0019002  |   0.6 |  0.02
Modify  | 0.29877    | 0.29897    | 0.29943    |   0.0 |  4.79
Other   |            | 0.02485    |            |       |  0.40

Nlocal:    7.125 ave 11 max 3 min
Histogram: 2 0 2 0 0 0 0 1 1 2
Nghost:    1117.88 ave 1131 max 1104 min
Histogram: 2 0 2 0 0 0 0 2 0 2
Neighs:    1937.38 ave 3004 max 825 min
Histogram: 2 0 2 0 0 0 0 1 1 2

Total # of neighbors = 15499
Ave neighs/atom = 271.912
Neighbor list builds = 0
Dangerous builds = 0
WARNING: Using 'neigh_modify every 1 delay 0 check yes' setting during minimization (../min.cpp:190)
Setting up cg style minimization ...
  Unit style    : real
  Current step  : 2459
Per MPI rank memory allocation (min/avg/max) = 28.39 | 28.58 | 28.77 Mbytes
Step Temp E_pair E_mol TotEng Press 
    2459            0   -11137.037            0   -11137.037    405.02513 
    2502            0   -11137.393            0   -11137.393    12905.934 
Loop time of 9.41081 on 8 procs for 43 steps with 57 atoms

99.8% CPU use with 8 MPI tasks x no OpenMP threads

Minimization stats:
  Stopping criterion = energy tolerance
  Energy initial, next-to-last, final = 
        -11137.0370542     -11137.3929025     -11137.3929519
  Force two-norm initial, final = 9.05662 5.66365
  Force max component initial, final = 2.67085 2.08301
  Final line search alpha, max atom move = 0.00250071 0.00520902
  Iterations, force evaluations = 43 289

MPI task timing breakdown:
Section |  min time  |  avg time  |  max time  |%varavg| %total
---------------------------------------------------------------
Pair    | 8.1549     | 8.3905     | 8.5809     |   5.1 | 89.16
Neigh   | 0          | 0          | 0          |   0.0 |  0.00
Comm    | 0.069736   | 0.25972    | 0.49416    |  29.0 |  2.76
Output  | 0.00054656 | 0.00063731 | 0.00089659 |   0.0 |  0.01
Modify  | 0.74582    | 0.74614    | 0.74691    |   0.0 |  7.93
Other   |            | 0.0138     |            |       |  0.15

Nlocal:    7.125 ave 11 max 3 min
Histogram: 2 0 2 0 0 0 0 1 1 2
Nghost:    1117.88 ave 1131 max 1104 min
Histogram: 2 0 2 0 0 0 0 2 0 2
Neighs:    1935.88 ave 3000 max 825 min
Histogram: 2 0 2 0 0 0 0 1 1 2

Total # of neighbors = 15487
Ave neighs/atom = 271.702
Neighbor list builds = 0
Dangerous builds = 0
Setting up Verlet run ...
  Unit style    : real
  Current step  : 0
  Time step     : 0.25
Per MPI rank memory allocation (min/avg/max) = 27.26 | 27.45 | 27.64 Mbytes
Step Temp TotEng KinEng PotEng Press 
       0          300   -11087.315    50.077609   -11137.393    14460.495 
     200    200.24078   -11067.511    33.425264   -11100.936   -6245.7707 
     400    367.56027   -11036.749    61.355132   -11098.104   -28252.018 
     600     270.8445   -11038.146    45.210817   -11083.357   -20679.399 
     800    388.97064   -11031.513    64.929065   -11096.442   -56370.132 
    1000    232.49864   -11043.614     38.80992   -11082.424    73061.575 
    1200    362.72126   -11033.666    60.547378   -11094.213   -7138.7473 
    1400    263.50843    -11047.43     43.98624   -11091.416   -37241.458 
    1600    344.15995   -11044.614    57.449024   -11102.063    89081.808 
    1800    300.35354   -11029.181    50.136624   -11079.318   -56224.365 
    2000     329.7428   -11028.099    55.042437   -11083.141     4801.335 
    2200     281.9223   -11037.717    47.059982   -11084.777    45162.045 
    2400     335.2543   -11027.244    55.962445   -11083.207    11959.609 
    2600    278.62412   -11046.495    46.509433   -11093.004    5211.6768 
    2800     345.8294   -11043.253    57.727698    -11100.98    7343.3169 
    3000    261.10262   -11057.388    43.584649   -11100.973    56237.153 
    3200    360.11491   -11039.407    60.112312   -11099.519    42839.544 
    3400    269.17459   -11039.438    44.932067    -11084.37   -16572.187 
    3600    260.73661   -11056.821    43.523553   -11100.345   -49726.132 
    3800    251.03042   -11046.058    41.903344   -11087.961   -17519.158 
    4000     313.5962   -11035.192    52.347159   -11087.539   -27479.342 
    4200    335.25074    -11021.23    55.961851   -11077.191   -37060.747 
    4400    299.00568   -11035.352    49.911631   -11085.264   -23095.321 
    4600    270.18049   -11041.972    45.099976   -11087.072   -24863.399 
    4800    298.04957   -11051.247    49.752032   -11100.999    33033.371 
    5000    305.75477   -11044.918    51.038226   -11095.956   -6287.1441 
    5200    298.09155    -11040.73     49.75904   -11090.489     6885.742 
    5400    288.13396   -11038.401    48.096866   -11086.498    97315.726 
    5600     324.8994   -11029.532     54.23395   -11083.766    1521.6229 
    5800    289.61539    -11045.58    48.344154   -11093.924    4324.8164 
    6000    334.10592   -11041.032    55.770752   -11096.802   -46165.274 
    6200    288.12629   -11054.549    48.095586   -11102.644   -5599.6244 
    6400    259.20996   -11036.981    43.268716    -11080.25    68397.679 
    6600    335.83508   -11037.606    56.059393   -11093.665    -41130.17 
    6800    332.75058   -11031.926    55.544511    -11087.47   -25168.899 
    7000    256.71998   -11041.704    42.853076   -11084.558   -44562.961 
    7200      291.156   -11046.169    48.601321    -11094.77   -28658.206 
    7400    258.40793    -11053.84    43.134838   -11096.975    61967.059 
    7600    293.57934   -11039.901    49.005839   -11088.907    2326.0674 
    7800     269.4767    -11042.96    44.982496   -11087.942    3449.9049 
    8000    369.37379   -11027.149    61.657854   -11088.806    11494.201 
    8200     302.0081   -11044.881    50.412811   -11095.293   -62271.345 
    8400    289.24555   -11041.219    48.282418   -11089.501    17379.115 
    8600    281.47093   -11042.901    46.984637   -11089.886   -14816.803 
    8800    333.31666   -11032.411    55.639004    -11088.05    5067.3766 
    9000    261.85362   -11046.015    43.710011   -11089.725   -15194.439 
    9200    352.40676   -11037.755    58.825626   -11096.581   -27006.593 
    9400    248.66614   -11057.679    41.508686   -11099.188    17835.426 
    9600    312.00114   -11042.922    52.080904   -11095.003   -30292.892 
    9800    312.32436   -11030.941    52.134857   -11083.076   -71407.381 
   10000     253.0653   -11052.268    42.243018   -11094.511   -13852.861 
   10200    285.24552   -11042.807    47.614712   -11090.421    1163.7417 
   10400    280.47177   -11044.863    46.817852   -11091.681     8843.457 
   10600    286.16056   -11051.021    47.767456   -11098.788   -3927.3896 
   10800    287.82357    -11040.07    48.045055   -11088.115    37809.033 
   11000    340.61364   -11023.297    56.857055   -11080.155   -35647.824 
   11200    287.82599   -11041.081    48.045457   -11089.126    28637.876 
   11400    318.86732   -11038.772    53.227043   -11091.999   -44537.705 
   11600    282.93158   -11039.369    47.228457   -11086.597    58851.604 
   11800    269.14938   -11052.054    44.927858   -11096.982   -79330.304 
   12000    327.19556   -11045.303    54.617238    -11099.92    31564.926 
   12200    301.23825   -11036.399    50.284305   -11086.683   -8559.3784 
   12400    260.04591   -11055.054    43.408258   -11098.462    56932.496 
   12600     257.2349   -11042.041     42.93903    -11084.98   -39499.584 
   12800    275.24102   -11035.566    45.944707   -11081.511    13869.573 
   13000    388.43836   -11023.296    64.840214   -11088.136    17708.332 
   13200    296.57891   -11041.285    49.506541   -11090.791    72169.029 
   13400    334.49743   -11040.358    55.836105   -11096.194   -39878.177 
   13600    289.90613   -11020.354    48.392686   -11068.747    27490.323 
   13800    310.02963   -11036.037    51.751809   -11087.789   -5115.9745 
   14000    275.16744   -11046.425    45.932425   -11092.358    37080.665 
   14200    350.02699   -11031.977    58.428383   -11090.405    2535.8406 
   14400    297.13595   -11042.805    49.599527   -11092.405   -19028.538 
   14600    295.85059   -11042.644    49.384968   -11092.029   -24459.758 
   14800    328.04367   -11032.015    54.758809   -11086.774   -59344.005 
   15000    245.85122   -11046.859    41.038804   -11087.898   -71502.475 
   15200    279.52266   -11039.898    46.659422   -11086.557   -38348.689 
   15400    302.62335   -11027.226    50.515512   -11077.742   -3514.7528 
   15600     278.4947   -11043.822    46.487829   -11090.309    1239.7784 
   15800    284.84247   -11042.593    47.547433   -11090.141    16735.088 
   16000    311.84178   -11039.729    52.054302   -11091.784   -26984.478 
   16200    288.43451   -11045.226    48.147036   -11093.373   -32825.906 
   16400    270.11049   -11052.611    45.088292   -11097.699    -38217.11 
   16600    315.75307    -11036.67    52.707195   -11089.377    4450.8122 
   16800    333.41252    -11040.49    55.655006   -11096.145    31981.077 
   17000    251.21975   -11052.269    41.934948   -11094.204    15865.938 
   17200    299.34741   -11038.026    49.968675   -11087.994   -47471.427 
   17400     325.6601    -11029.37    54.360931   -11083.731   -9841.4194 
   17600    294.68701     -11046.3    49.190737   -11095.491   -2355.4253 
   17800     315.6121   -11039.426    52.683665   -11092.109    -85499.26 
   18000    301.57401   -11037.463     50.34035   -11087.803    14483.658 
   18200    251.04853   -11055.518    41.906367   -11097.425    23709.481 
   18400    260.45624   -11044.477    43.476752   -11087.954   -46494.649 
   18600    328.19201   -11031.748     54.78357   -11086.532   -16112.587 
   18800    305.79771   -11049.606    51.045393   -11100.651   -3867.4709 
   19000    273.46141   -11042.953    45.647645   -11088.601   -16854.883 
   19200    299.68762   -11038.413    50.025465   -11088.438     18011.18 
   19400    267.50581    -11054.87    44.653504   -11099.524   -18267.842 
   19600    310.93662   -11039.003    51.903209   -11090.906   -3516.7453 
   19800    312.60561   -11034.883    52.181805   -11087.065   -17747.007 
   20000    289.38199   -11049.235    48.305194    -11097.54   -13866.567 
   20200     296.3392   -11046.686    49.466528   -11096.153   -55186.191 
   20400     315.5889     -11039.1    52.679792    -11091.78    38302.592 
   20600    264.66646   -11048.378    44.179546   -11092.558   -695.73775 
   20800    299.57381   -11054.861    50.006468   -11104.867   -15255.098 
   21000    257.66564   -11034.059     43.01093    -11077.07    25815.449 
   21200    323.12368    -11039.59    53.937538   -11093.528    46737.832 
   21400    275.69048   -11046.251    46.019733   -11092.271   -68450.553 
   21600    319.54574   -11038.751    53.340289   -11092.092    27124.022 
   21800    284.65296   -11040.674    47.515799    -11088.19   -18463.166 
   22000    336.98508   -11032.897    56.251356   -11089.148    3253.0866 
   22200    219.11123   -11042.474    36.575222   -11079.049   -20396.289 
   22400    380.55191   -11029.099    63.523765   -11092.623    22076.203 
   22600    282.62693   -11029.985    47.177603   -11077.162    4133.5012 
   22800     315.1397   -11033.899    52.604809   -11086.504    46520.568 
   23000    294.57716   -11042.127    49.172399     -11091.3   -29339.487 
   23200    321.35884   -11042.192    53.642942   -11095.835   -23531.472 
   23400    284.48412   -11035.733    47.487616   -11083.221    -27816.15 
   23600    286.07807   -11045.052    47.753686   -11092.805   -39615.162 
   23800    248.22251   -11047.944    41.434633   -11089.379    -28139.21 
   24000    284.38336   -11030.758    47.470796   -11078.228    6941.8195 
   24200    262.52876   -11041.766    43.822709   -11085.588   -71213.989 
   24400    283.07111   -11030.624    47.251747   -11077.876    -17894.94 
   24600    305.68228   -11024.639    51.026125   -11075.665   -49550.669 
   24800    256.46023   -11041.314    42.809717   -11084.123   -33427.396 
   25000    310.13632   -11033.395    51.769617   -11085.164    23959.526 
   25200    296.00708   -11048.805    49.411089   -11098.216   -33237.178 
   25400    307.58996   -11043.239    51.344566   -11094.584   -23577.427 
   25600    292.52195   -11046.704    48.829333   -11095.534   -23663.988 
   25800    249.91984   -11048.845    41.717961   -11090.563   -910.25993 
   26000    313.81162   -11038.097    52.383119    -11090.48    38060.539 
   26200    313.93646   -11022.091    52.403958   -11074.495    19939.401 
   26400    286.36165   -11039.201    47.801022   -11087.002    13109.762 
   26600    330.54701   -11031.491    55.176679   -11086.667    26760.677 
   26800    320.40629   -11037.549    53.483936   -11091.033   -47813.022 
   27000      289.395    -11045.19    48.307365   -11093.498   -1800.9259 
   27200     342.1132   -11035.025     57.10737   -11092.132   -42178.076 
   27400    327.48586    -11027.28    54.665696   -11081.946   -17888.097 
   27600    262.73485   -11046.776     43.85711   -11090.633    -22551.98 
   27800     311.7269   -11036.861    52.035126   -11088.896    43175.666 
   28000    315.27601   -11032.459    52.627563   -11085.087    54232.281 
   28200    295.15408   -11035.973    49.268701   -11085.242   -21685.592 
   28400    370.06994   -11031.495     61.77406    -11093.27    14180.227 
   28600    294.53099   -11044.833    49.164692   -11093.998   -5183.8219 
   28800    305.42093   -11044.104    50.982499   -11095.087   -29796.899 
   29000    277.40389   -11027.496    46.305745   -11073.802   -9933.0245 
   29200    290.46275   -11044.108    48.485599   -11092.593    61102.264 
   29400    310.46289   -11043.085    51.824131   -11094.909   -660.20412 
   29600    345.40829   -11031.234    57.657405   -11088.891    108801.41 
   29800    286.70628   -11034.838     47.85855   -11082.697    27539.345 
   30000    296.27902     -11046.3    49.456484   -11095.756   -10974.399 
   30200    266.07212   -11030.192    44.414185   -11074.607   -16357.694 
   30400    295.44358   -11028.489    49.317026   -11077.806    14170.177 
   30600    223.28076   -11045.071    37.271223   -11082.342    54516.294 
   30800     302.1801   -11039.903    50.441522   -11090.344   -40205.195 
   31000    324.38282     -11037.3    54.147719   -11091.447   -28093.619 
   31200    262.29125    -11050.88    43.783062   -11094.663   -10391.532 
   31400     328.9854   -11032.996    54.916006   -11087.912    11328.176 
   31600    325.75127   -11037.602    54.376148   -11091.978   -23109.613 
   31800    306.49537   -11036.613    51.161851   -11087.774   -6333.3772 
   32000    345.32148     -11021.7    57.642914   -11079.343   -32796.115 
   32200    277.10197   -11041.638    46.255347   -11087.893    -32090.75 
   32400    314.93667    -11043.22    52.570918   -11095.791   -13475.425 
   32600    396.95043   -11024.776    66.261094   -11091.037   -66121.859 
   32800    269.13206   -11036.819    44.924967   -11081.744    36768.933 
   33000    296.97835    -11039.65    49.573219   -11089.223    49034.475 
   33200    352.87117    -11020.89    58.903149   -11079.793   -14486.359 
   33400    268.76308   -11034.911    44.863375   -11079.775   -48396.192 
   33600     269.5021   -11044.195    44.986736   -11089.182    727.10252 
   33800    280.63204   -11033.769    46.844606   -11080.614    28909.439 
   34000    303.40148    -11034.55    50.645402   -11085.195    74712.523 
   34200    281.97953   -11039.682    47.069535   -11086.752   -615.01048 
   34400    322.10011   -11034.056    53.766678   -11087.822   -9135.8691 
   34600    282.04804   -11043.361    47.080971   -11090.442    16681.777 
   34800    271.06655   -11041.439    45.247882   -11086.687    40260.504 
   35000    310.76262   -11025.998    51.874164   -11077.872   -56119.649 
   35200    257.76733   -11048.423    43.027906   -11091.451   -13099.235 
   35400    278.08171   -11040.518    46.418891   -11086.936   -6527.2776 
   35600    307.67884   -11029.604    51.359402   -11080.963    21933.158 
   35800    337.60605   -11039.034    56.355012   -11095.389   -22620.938 
   36000    301.51318   -11038.053    50.330196   -11088.384   -17592.708 
   36200    365.00244   -11022.299    60.928165   -11083.228    54566.935 
   36400    274.49472   -11041.868    45.820131   -11087.689    26044.756 
   36600    305.71431   -11042.219    51.031472    -11093.25   -30257.345 
   36800    322.48223   -11027.627    53.830463   -11081.457    64477.031 
   37000    318.61502   -11040.839    53.184927   -11094.024   -35045.622 
   37200    262.95514   -11037.387    43.893882   -11081.281    48874.205 
   37400    341.94788   -11030.852    57.079774   -11087.932     -6882.62 
   37600    277.63213    -11048.53    46.343844   -11094.874    43288.626 
   37800      257.107   -11040.484    42.917679   -11083.402    28190.057 
   38000    305.84445    -11028.55    51.053196   -11079.603    3832.8167 
   38200    360.51879   -11032.756     60.17973   -11092.936   -30808.682 
   38400    280.21061   -11045.446    46.774258    -11092.22     31445.59 
   38600    381.15678   -11035.851    63.624734   -11099.476    -26704.46 
   38800    305.30673   -11027.902    50.963436   -11078.865     43254.86 
   39000    278.16672   -11044.719     46.43308   -11091.152   -41928.152 
   39200    266.93591   -11034.322    44.558374   -11078.881    95728.914 
   39400    358.55171   -11015.713    59.851374   -11075.564   -38146.581 
   39600    315.86892   -11039.348    52.726534   -11092.075    7651.3929 
   39800    268.03596    -11045.08       44.742   -11089.822     7365.713 
   40000    350.53322   -11033.326    58.512885   -11091.839    22863.488 
   40200    260.58625   -11048.649    43.498455   -11092.148      15049.2 
   40400    329.81813   -11035.971    55.055011   -11091.026   -15163.667 
   40600    287.56749   -11038.194    48.002307   -11086.196   -15782.978 
   40800    293.32187   -11049.161    48.962859   -11098.124    22155.169 
   41000    281.43771   -11043.449    46.979092   -11090.428   -50734.614 
   41200    306.88645   -11039.532    51.227132   -11090.759    5377.7098 
   41400    245.57667   -11046.144    40.992974   -11087.137   -53242.228 
   41600    357.26657   -11029.263    59.636853     -11088.9    -35985.01 
   41800    305.76062   -11041.534    51.039202   -11092.573   -28958.726 
   42000    324.74893   -11041.497    54.208833   -11095.706   -11460.181 
   42200    282.70545   -11041.631    47.190709   -11088.821    3090.5134 
   42400    284.48925   -11041.484    47.488471   -11088.972    37602.253 
   42600    260.64556   -11050.475    43.508354   -11093.983    12463.313 
   42800    348.07731   -11034.995    58.102931   -11093.098   -26358.153 
   43000    265.15394   -11037.942    44.260917   -11082.203   -8754.1217 
   43200     267.3897     -11045.9    44.634123   -11090.534   -31552.728 
   43400    292.74951   -11038.128    48.867318   -11086.995   -18963.869 
   43600    393.58425   -11019.666    65.699194   -11085.366    36601.489 
   43800    309.70211   -11034.361    51.697136   -11086.058   -50307.565 
   44000    299.78998   -11043.059    50.042552   -11093.102   -29419.762 
   44200    294.59936   -11046.016    49.176106   -11095.193   -61475.854 
   44400    350.24888   -11030.292    58.465421   -11088.758   -86.023092 
   44600    289.93975   -11040.953    48.398298   -11089.351    20463.769 
   44800    315.12393   -11037.859    52.602177   -11090.461    1332.5741 
   45000     248.1438   -11054.333    41.421494   -11095.755   -12207.223 
   45200    261.62377   -11044.773    43.671643   -11088.445   -2933.6626 
   45400    306.55151   -11036.663    51.171222   -11087.834   -26355.216 
   45600    252.83187   -11049.256    42.204052    -11091.46    2684.9146 
   45800    246.36422   -11048.779    41.124437   -11089.903   -35760.216 
   46000    288.59529   -11033.001    48.173874   -11081.175   -12638.405 
   46200    283.09537   -11046.495    47.255797   -11093.751    2023.4921 
   46400    257.58537   -11044.274    42.997531   -11087.271   -32206.361 
   46600    320.65086   -11031.733    53.524761   -11085.258   -9663.8002 
   46800    268.70256   -11048.783    44.853273   -11093.636    7304.4684 
   47000    263.23425   -11045.251    43.940473   -11089.191    56580.741 
   47200    293.57639   -11041.526    49.005345   -11090.532    7568.5427 
   47400    323.98999   -11046.433    54.082146   -11100.515    22592.149 
   47600    310.17007   -11028.542    51.775251   -11080.317   -12214.141 
   47800    277.54315    -11036.77    46.328991   -11083.099    -28636.46 
   48000    302.26966   -11041.509    50.456473   -11091.965    2811.6289 
   48200    296.91898   -11036.788    49.563308   -11086.352   -1895.6592 
   48400    332.73526   -11024.356    55.541954   -11079.898    10081.352 
   48600    293.94153   -11038.365    49.066296   -11087.432   -8794.6668 
   48800    290.01158   -11037.346    48.410288   -11085.757    8691.1458 
   49000    254.90187   -11052.533    42.549586   -11095.082    22834.703 
   49200    320.87685   -11043.808    53.562484   -11097.371   -23690.647 
   49400     328.7041   -11030.873    54.869051   -11085.742   -44022.196 
   49600    304.07063   -11047.411    50.757101   -11098.168   -26942.887 
   49800    273.70922   -11048.764    45.689011   -11094.453   -20702.619 
   50000    285.08549   -11038.613    47.587999   -11086.201   -31814.336 
   50200    310.50932   -11036.862    51.831881   -11088.694    9739.6934 
   50400     309.2496   -11031.817    51.621601   -11083.439    48327.087 
   50600    311.73386   -11037.449    52.036288   -11089.485    56984.148 
   50800     268.0825   -11051.454    44.749768   -11096.204    34051.565 
   51000    282.23136   -11035.315    47.111572   -11082.427   -32412.555 
   51200    361.65845   -11035.466    60.369967   -11095.836   -5962.8561 
   51400     307.6794   -11050.419    51.359496   -11101.778   -54567.122 
   51600    298.37874   -11040.673     49.80698    -11090.48   -57348.701 
   51800     296.5396   -11038.412     49.49998   -11087.912   -24295.552 
   52000    378.84029   -11028.419    63.238052   -11091.657   -23724.954 
   52200    340.75112   -11039.372    56.880005   -11096.252    50107.282 
   52400    282.82902   -11046.354    47.211337   -11093.565    34078.338 
   52600    376.66349   -11030.252    62.874689   -11093.127    34295.463 
   52800    287.94104   -11051.606    48.064662   -11099.671    8607.0159 
   53000    309.94841   -11042.707    51.738251   -11094.446   -39365.871 
   53200    323.97137   -11035.271    54.079038    -11089.35    29174.068 
   53400    272.46816   -11049.911    45.481846   -11095.393     8059.629 
   53600    231.56397   -11053.914      38.6539   -11092.568   -61693.589 
   53800    331.49886   -11039.081    55.335568   -11094.416    28768.362 
   54000    297.77776   -11036.729    49.706661   -11086.436   -20010.492 
   54200    266.17434   -11051.304    44.431249   -11095.735    84963.839 
   54400    289.18206    -11034.52     48.27182   -11082.792    -8891.493 
   54600    339.80119   -11034.304    56.721437   -11091.025   -13267.161 
   54800    294.75934   -11050.094     49.20281   -11099.297    19584.251 
   55000    262.15957   -11059.148    43.761081   -11102.909    12302.133 
   55200     250.1106   -11038.706    41.749802   -11080.456   -27083.891 
   55400    316.66042   -11036.376    52.858655   -11089.235    11197.274 
   55600     293.8023   -11036.615    49.043056   -11085.658   -38595.477 
   55800    270.83168   -11049.246    45.208677   -11094.455   -31527.648 
   56000    318.57235   -11036.633    53.177805   -11089.811     31370.66 
   56200    323.97334   -11036.803    54.079367   -11090.882    9772.3727 
   56400    361.96893   -11030.264    60.421795   -11090.686    4889.4258 
   56600    314.68408   -11034.051    52.528754    -11086.58   -2859.4959 
   56800    291.80752   -11042.352    48.710075   -11091.062    15685.053 
   57000    351.47486   -11025.252    58.670068   -11083.922   -23610.594 
   57200    320.09436   -11043.166    53.431867   -11096.598    24820.424 
   57400    259.06581   -11044.085    43.244655   -11087.329   -40360.204 
   57600    311.62617   -11027.342    52.018311    -11079.36    24950.175 
   57800    339.75317   -11040.519    56.713421   -11097.232    -42977.77 
   58000    318.54231   -11040.522     53.17279   -11093.695   -10182.341 
   58200    381.65016   -11025.956    63.707091   -11089.663    10993.192 
   58400    321.11422   -11042.511    53.602108   -11096.113   -31571.679 
   58600    266.64542   -11045.364    44.509884   -11089.874   -28039.819 
   58800    308.95159   -11026.294    51.571857   -11077.866   -4789.6799 
   59000    317.02197   -11036.308    52.919008   -11089.227    18872.681 
   59200    307.29964   -11040.626    51.296104   -11091.922    44060.482 
   59400    357.51065    -11026.19    59.677595   -11085.868    8223.7245 
   59600    279.83789   -11047.174    46.712042   -11093.886   -17178.162 
   59800    292.68117   -11042.758     48.85591   -11091.614    -4831.976 
   60000    272.93244   -11029.998    45.559347   -11075.558    38931.661 
   60200    281.71401   -11045.205    47.025214    -11092.23    61500.255 
   60400    284.59585    -11047.58    47.506266   -11095.087    10585.479 
   60600     323.3013   -11030.611    53.967187   -11084.578     3246.215 
   60800    331.83292   -11042.224     55.39133   -11097.615    33495.362 
   61000    234.65732   -11053.254    39.170258   -11092.425   -4045.2744 
   61200    333.73361   -11034.793    55.708604   -11090.501    1395.4939 
   61400    292.87475   -11040.211    48.888223   -11089.099    -15270.22 
   61600     253.4297   -11056.069    42.303845   -11098.373    68299.546 
   61800     250.2569   -11054.764    41.774223   -11096.538    19394.952 
   62000    280.30173   -11039.228    46.789468   -11086.017    -4022.333 
   62200    277.12392   -11038.514     46.25901   -11084.773    2450.3791 
   62400    296.93099   -11033.273    49.565314   -11082.839   -14597.492 
   62600    279.39986   -11049.376    46.638924   -11096.015    27707.009 
   62800    342.58543   -11035.662    57.186198   -11092.848    4093.9072 
   63000    284.77283   -11029.678    47.535808   -11077.214    27261.854 
   63200    277.14647    -11041.93    46.262775   -11088.192    1515.2316 
   63400    291.06976   -11045.738    48.586926   -11094.325    31068.378 
   63600    325.02063    -11028.86    54.254186   -11083.115    14254.213 
   63800    257.97762   -11045.454    43.063008   -11088.517    17586.583 
   64000    308.36924   -11043.758    51.474647   -11095.233     36694.83 
   64200    327.15387   -11039.359    54.610279   -11093.969    -25453.61 
   64400    282.43754   -11046.862    47.145988   -11094.008    89753.167 
   64600    350.58766   -11040.838    58.521972    -11099.36   -18274.575 
   64800    356.62797   -11027.382    59.530253   -11086.912   -73063.555 
   65000    284.27427   -11048.442    47.452585   -11095.895    -31543.78 
   65200    329.52227   -11036.943    55.005624   -11091.948   -52765.486 
   65400    341.95037   -11035.971    57.080189   -11093.051    52086.978 
   65600    283.45622   -11038.024    47.316032    -11085.34    -3603.733 
   65800      318.406   -11035.522    53.150037   -11088.672    20231.822 
   66000    299.16251   -11045.071     49.93781   -11095.009    21813.781 
   66200    281.80276   -11045.223    47.040027   -11092.263    21599.666 
   66400    362.80496   -11026.616    60.561349   -11087.177    39892.619 
   66600    317.01453   -11038.692    52.917765   -11091.609    9561.5764 
   66800    300.79066   -11041.942     50.20959   -11092.152   -30370.278 
   67000     221.0136   -11046.445    36.892775   -11083.338    8151.8519 
   67200    321.68671   -11030.041    53.697671   -11083.738   -5344.4601 
   67400    292.08522   -11043.677    48.756431   -11092.434    40215.875 
   67600    266.89294   -11039.364    44.551201   -11083.916   -16585.186 
   67800    337.35799   -11031.733    56.313605   -11088.047   -57257.112 
   68000    220.15679   -11051.816    36.749752   -11088.566   -13669.088 
   68200    288.92437   -11038.966    48.228806   -11087.195   -12354.106 
   68400    300.80892   -11035.541    50.212639   -11085.753     46460.81 
   68600    278.82594   -11043.262    46.543122   -11089.805   -41494.339 
   68800    282.05352   -11042.299    47.081886   -11089.381   -25337.872 
   69000    291.21073   -11037.639    48.610456   -11086.249   -6096.1253 
   69200    315.89791    -11032.44    52.731373   -11085.171    10030.259 
   69400    320.09939   -11035.894    53.432706   -11089.327    1589.5145 
   69600    255.65852     -11043.5    42.675892   -11086.176    4649.3976 
   69800    331.05243   -11026.479    55.261047    -11081.74   -30908.113 
   70000    304.11588    -11037.39    50.764653   -11088.155   -1501.9711 
   70200    284.39923   -11051.726    47.473445   -11099.199   -13066.035 
   70400    338.52106   -11034.094     56.50775   -11090.602    12224.566 
   70600    326.86473   -11037.724    54.562013   -11092.286   -10340.391 
   70800     283.4198   -11051.376    47.309952   -11098.686   -26116.484 
   71000    323.45223   -11038.142    53.992382   -11092.134    7440.0606 
   71200    286.29002   -11041.281    47.789065    -11089.07    5932.5657 
   71400     309.9415   -11051.856    51.737097   -11103.593   -14603.156 
   71600    289.60036   -11043.586    48.341646   -11091.928    79640.433 
   71800    307.86717   -11034.209    51.390839     -11085.6    12816.327 
   72000      373.367   -11027.369    62.324422   -11089.693    9679.6758 
   72200    327.59993   -11043.668    54.684737   -11098.353   -11269.527 
   72400    341.65659   -11035.961     57.03115   -11092.992    33984.823 
   72600    293.52989   -11033.519    48.997583   -11082.517   -19277.901 
   72800    313.24278   -11038.815    52.288165   -11091.104   -993.11785 
   73000    288.74545   -11052.042    48.198939   -11100.241    51713.316 
   73200    366.26121   -11029.787    61.138285   -11090.926   -4339.8715 
   73400    328.44487   -11041.667    54.825779   -11096.493    33817.723 
   73600    339.86891    -11039.77     56.73274   -11096.502   -13563.695 
   73800    366.66331   -11018.614    61.205406    -11079.82    26169.336 
   74000    292.87503   -11041.508     48.88827   -11090.397   -1713.3648 
   74200    308.99584   -11036.883    51.579243   -11088.462   -24104.134 
   74400    276.61181   -11037.151    46.173526   -11083.324   -19579.071 
   74600    281.33372   -11043.239    46.961733   -11090.201   -19095.032 
   74800      314.432   -11039.472    52.486675   -11091.959   -5472.9814 
   75000    290.79726   -11035.517    48.541438   -11084.059    -45414.18 
   75200    276.31149   -11050.604    46.123396   -11096.727   -12048.994 
   75400    279.85435   -11038.542    46.714789   -11085.257   -24681.944 
   75600    316.18252    -11035.64    52.778882   -11088.419    3514.4704 
   75800    311.14172   -11035.365    51.937444   -11087.303    88375.766 
   76000    286.67967   -11054.295    47.854108   -11102.149    14939.158 
   76200    254.12879   -11041.792    42.420541   -11084.212    25448.022 
   76400      293.785   -11040.018    49.040168   -11089.058    4868.2081 
   76600    270.69274   -11052.656    45.185485   -11097.841   -29810.728 
   76800    306.36106   -11034.145    51.139431   -11085.284    12097.195 
   77000    301.14853   -11035.548    50.269327   -11085.817   -21184.372 
   77200    292.91879   -11048.445    48.895576   -11097.341   -22890.297 
   77400      334.041   -11026.615    55.759915   -11082.375    9409.5399 
   77600    263.31662   -11043.603    43.954222   -11087.557    30128.475 
   77800     334.6203   -11040.558    55.856614   -11096.415    22685.577 
   78000    325.91504   -11021.091    54.403487   -11075.494   -35266.522 
   78200    294.52372   -11044.139    49.163479   -11093.303    -9728.939 
   78400    337.04777   -11036.052    56.261822   -11092.314   -42975.015 
   78600    346.77786    -11027.52     57.88602   -11085.406     13426.04 
   78800    244.64376   -11048.555    40.837248   -11089.392   -14431.859 
   79000    357.55296   -11034.088    59.684658   -11093.773     -61263.7 
   79200    282.85759   -11043.063    47.216106   -11090.279   -5982.3309 
   79400    319.85178   -11038.692    53.391374   -11092.083    58323.331 
   79600    276.27458   -11045.477    46.117234   -11091.594    85811.835 
   79800    235.65123   -11059.418    39.336167   -11098.754   -17344.399 
   80000    299.12252    -11040.61    49.931136   -11090.541   -52085.975 
   80200    379.52863   -11031.103    63.352955   -11094.456   -12942.789 
   80400    262.32992   -11046.351    43.789518    -11090.14    15661.531 
   80600    320.57368   -11047.346    53.511879   -11100.858    -52509.44 
   80800    265.97048   -11042.808    44.397218   -11087.205    14604.072 
   81000    291.64205   -11034.901    48.682455   -11083.584    18579.698 
   81200    291.63983   -11043.744    48.682084   -11092.427   -16466.099 
   81400    266.29033   -11046.432    44.450609   -11090.883    -5002.754 
   81600     333.6144    -11033.21    55.688704   -11088.899   -58433.586 
   81800    248.60345   -11039.844    41.498221   -11081.342    69890.105 
   82000    242.95029   -11056.287    40.554565   -11096.841    37069.544 
   82200    286.10628    -11048.95    47.758394   -11096.708   -61383.717 
   82400    326.16052   -11031.191    54.444462   -11085.635    10720.237 
   82600    338.19663   -11031.202    56.453595   -11087.656    14192.075 
   82800    291.29396   -11046.696     48.62435    -11095.32   -12738.589 
   83000    305.25263   -11034.742    50.954406   -11085.696   -33041.071 
   83200    330.92692   -11034.172    55.240096   -11089.412    4896.2287 
   83400    283.99306   -11040.026    47.405645   -11087.432    5395.3344 
   83600    252.05319    -11051.41     42.07407   -11093.484   -33991.809 
   83800     294.6481   -11040.967    49.184241   -11090.151    4382.8941 
   84000    326.19679   -11033.342    54.450518   -11087.792   -31604.743 
   84200    253.08147    -11050.23    42.245716   -11092.476   -18033.432 
   84400    303.52932   -11043.003    50.666742    -11093.67   -41074.316 
   84600    322.00383   -11026.303    53.750606   -11080.053   -17516.687 
   84800    379.17015   -11028.868    63.293115   -11092.161   -25277.972 
   85000    306.81724   -11037.782    51.215579   -11088.998    16542.316 
   85200    264.99889   -11046.061    44.235036   -11090.296   -30554.587 
   85400    303.42087   -11041.584    50.648639   -11092.232    18997.469 
   85600    290.49772   -11029.527    48.491438   -11078.018   -3411.6718 
   85800    257.37645   -11048.122    42.962658   -11091.085   -19109.589 
   86000    280.76484    -11039.11    46.866773   -11085.977    -54363.97 
   86200    303.37127   -11033.692     50.64036   -11084.332    38341.765 
   86400    389.81661   -11027.612    65.070278   -11092.682   -51705.497 
   86600     304.2772   -11045.524    50.791582   -11096.316    14732.614 
   86800    365.39393   -11034.052    60.993514   -11095.045   -31829.706 
   87000    294.01991   -11028.813    49.079381   -11077.892    17333.291 
   87200    282.26115    -11046.88    47.116544   -11093.996    26695.024 
   87400    300.22765   -11034.927     50.11561   -11085.043    -1744.514 
   87600     315.7614   -11030.824    52.708587   -11083.532    17937.955 
   87800    281.26966    -11045.25    46.951041   -11092.201    4419.1866 
   88000    352.28758   -11030.174    58.805731    -11088.98    7486.0423 
   88200    272.63643   -11045.645    45.509935   -11091.155   -15991.777 
   88400    288.20645   -11042.598    48.108966   -11090.707   -47634.791 
   88600    325.63921   -11033.537    54.357444   -11087.894    16010.207 
   88800    305.69528   -11052.088    51.028295   -11103.116    24491.837 
   89000    259.25187   -11043.625    43.275713   -11086.901     15753.45 
   89200    351.15683   -11028.143    58.616982    -11086.76    47975.983 
   89400    282.37668   -11041.584    47.135829    -11088.72   -14412.468 
   89600    294.38749   -11044.932    49.140739   -11094.073    18501.422 
   89800    334.74605   -11031.794    55.877607   -11087.672    17658.439 
   90000    284.69982   -11046.331    47.523621   -11093.854    20440.717 
   90200     340.7434   -11029.887    56.878715   -11086.766    1284.2427 
   90400    324.38884   -11026.359    54.148724   -11080.508   -13524.665 
   90600    270.50661   -11047.648    45.154414   -11092.803    11442.148 
   90800    343.90933   -11036.137     57.40719   -11093.544    65785.123 
   91000    320.60533   -11035.384     53.51716   -11088.901   -25059.474 
   91200    288.56204   -11039.826    48.168324   -11087.994   -7692.6096 
   91400    320.07344   -11032.378    53.428375   -11085.806   -51365.006 
   91600    290.02659   -11046.746    48.412794   -11095.159   -53888.656 
   91800    309.77588   -11038.304    51.709451   -11090.014    -22463.92 
   92000    284.68536   -11039.557    47.521208   -11087.079    23972.831 
   92200    315.86922   -11037.571    52.726583   -11090.297   -49589.618 
   92400    224.26865   -11045.906    37.436126   -11083.342   -16201.559 
   92600     335.3959   -11034.435    55.986082   -11090.421    -12810.94 
   92800    346.28231   -11035.482      57.8033   -11093.285    17197.531 
   93000    279.94866   -11043.989    46.730531    -11090.72   -32527.389 
   93200    285.19811   -11044.182    47.606799   -11091.789    9327.1173 
   93400    364.01195   -11030.603    60.762828   -11091.366   -10245.766 
   93600    277.78507   -11043.659    46.369373   -11090.029    13360.827 
   93800    319.57669     -11034.1    53.345454   -11087.445   -11727.546 
   94000    347.15694    -11029.18    57.949299   -11087.129   -1333.9759 
   94200    276.47058   -11045.046    46.149952   -11091.196   -56180.434 
   94400     281.6145   -11038.335    47.008602   -11085.344    17688.591 
   94600    312.07279    -11026.48    52.092864   -11078.573    1286.9676 
   94800    266.32351   -11046.507    44.456148   -11090.963   -19047.701 
   95000    250.72332   -11038.065    41.852081   -11079.918   -15229.288 
   95200    357.25764   -11030.065    59.635361   -11089.701   -41653.527 
   95400    290.39357   -11045.194    48.474052   -11093.668    37497.983 
   95600     335.0938   -11035.785    55.935653    -11091.72   -9095.6022 
   95800    305.35366   -11026.097     50.97127   -11077.068   -46644.769 
   96000    289.11301     -11040.7    48.260294   -11088.961   -38424.936 
   96200    264.45884   -11041.031    44.144888   -11085.175     43452.22 
   96400    330.90542   -11023.063    55.236507   -11078.299    15625.143 
   96600    317.58712   -11037.507    53.013346   -11090.521    11800.313 
   96800    295.07903   -11045.237    49.256174   -11094.493    8709.9513 
   97000    351.64556   -11029.234    58.698563   -11087.933    16747.098 
   97200    296.60386   -11037.572    49.510707   -11087.083    9615.5425 
   97400    322.19585   -11041.784    53.782658   -11095.566   -32966.018 
   97600    375.10751   -11022.468    62.614958   -11085.083    -1127.459 
   97800    316.06177   -11038.348    52.758725   -11091.106    2681.3577 
   98000    284.57802   -11046.514    47.503289   -11094.018   -30870.612 
   98200    309.59772   -11026.079    51.679712   -11077.759    21182.218 
   98400     267.1657   -11042.184    44.596731   -11086.781   -5798.4222 
   98600    268.08499   -11038.779    44.750185   -11083.529    29433.511 
   98800    322.87678    -11027.67    53.896324   -11081.566   -8351.5866 
   99000    321.50388   -11046.116    53.667152   -11099.784    8911.0709 
   99200    296.02668   -11039.701    49.414361   -11089.115   -32569.644 
   99400    340.22486   -11024.253    56.792158   -11081.045   -21155.277 
   99600     285.9377   -11040.549    47.730255   -11088.279   -29110.298 
   99800    288.41752   -11041.562    48.144199   -11089.706    49102.243 
  100000    318.87852    -11028.14    53.228912   -11081.369   -56100.511 
  100200    240.18913   -11049.331    40.093658   -11089.425    -33426.24 
  100400    308.01152   -11036.514    51.414935   -11087.929    23314.635 
  100600    280.29632   -11033.255    46.788564   -11080.044    9853.4467 
  100800    330.00136    -11038.43    55.085598   -11093.515    16959.984 
  101000    257.00073   -11050.991     42.89994   -11093.891   -76760.123 
  101200    301.90536   -11030.676    50.395662   -11081.071   -24197.682 
  101400    296.45555   -11035.896    49.485951   -11085.382   -5113.8911 
  101600    330.60914   -11037.916     55.18705   -11093.103     8122.853 
  101800    248.63513   -11054.056    41.503509    -11095.56   -47121.541 
  102000    329.45207   -11036.887    54.993906   -11091.881   -24629.494 
  102200    312.91907   -11039.525     52.23413   -11091.759    63897.926 
  102400    283.34843    -11054.23     47.29804   -11101.528     -31593.1 
  102600    287.69006   -11038.844    48.022768   -11086.867    6605.7775 
  102800    312.68522     -11033.5    52.195093   -11085.695   -27059.038 
  103000    284.56285   -11047.279    47.500756    -11094.78   -22258.013 
  103200    320.58831   -11047.126     53.51432    -11100.64    11233.868 
  103400      313.735   -11040.511    52.370329   -11092.882   -26642.291 
  103600    294.41796    -11039.04    49.145826   -11088.185    26777.014 
  103800    283.94483    -11040.21    47.397593   -11087.607    1867.9371 
  104000    254.14835   -11046.499    42.423805   -11088.923    80013.519 
  104200    331.35837    -11029.63    55.312116   -11084.942    7503.9057 
  104400    264.51801   -11048.431    44.154765   -11092.586    28463.447 
  104600    264.98904   -11046.984    44.233392   -11091.218    2328.4509 
  104800     308.1305    -11030.22    51.434795   -11081.655    9264.2471 
  105000    308.80139   -11034.155    51.546784   -11085.702   -18225.872 
  105200    287.57476   -11038.006    48.003521    -11086.01    18821.674 
  105400    328.94152   -11035.401    54.908682    -11090.31    12985.802 
  105600    281.31323   -11048.566    46.958314   -11095.524   -27787.614 
  105800    373.25134   -11032.971    62.305115   -11095.276   -10263.737 
  106000    274.88863   -11039.199    45.885885   -11085.085   -16301.364 
  106200    299.50184   -11037.307    49.994454   -11087.302    40722.998 
  106400    294.40417   -11045.281    49.143523   -11094.424    18280.608 
  106600    317.99932   -11038.064    53.082152   -11091.146   -58956.626 
  106800    308.96511   -11042.389    51.574112   -11093.964   -1073.0871 
  107000    316.22883   -11046.526    52.786612   -11099.313    55527.145 
  107200    332.37522   -11027.471    55.481854   -11082.952    34153.187 
  107400    307.98104   -11037.867    51.409847   -11089.276    14315.153 
  107600     250.3456   -11045.443     41.78903   -11087.232   -6331.4514 
  107800    326.25293   -11029.975    54.459888   -11084.435    10093.385 
  108000    298.30543   -11046.712    49.794743   -11096.506   -2546.9481 
  108200    307.39808   -11035.987    51.312536     -11087.3   -27545.912 
  108400    330.02091   -11036.315    55.088859   -11091.404   -53350.714 
  108600    242.87353    -11055.84    40.541752   -11096.382    28975.324 
  108800    272.40722   -11048.154    45.471674   -11093.626    70088.917 
  109000    332.15404   -11035.696    55.444934   -11091.141   -20156.321 
  109200    280.02902   -11043.141    46.743946   -11089.885    35356.384 
  109400     274.2271   -11043.632    45.775458   -11089.408    3610.7804 
  109600    308.24658   -11042.039    51.454172   -11093.494   -10819.547 
  109800    330.93509   -11036.589     55.24146   -11091.831   -26297.237 
  110000     326.2814   -11039.716    54.464641   -11094.181   -44044.317 
  110200     261.4185   -11045.046    43.637378   -11088.683   -40280.756 
  110400    314.68056   -11033.055    52.528166   -11085.583    31885.421 
  110600    291.65977    -11039.93    48.685413   -11088.616    38551.277 
  110800    326.80534    -11046.92      54.5521   -11101.472   -11819.319 
  111000    317.66727    -11034.29    53.026725   -11087.317   -29301.841 
  111200    336.54167   -11034.473     56.17734    -11090.65   -14619.089 
  111400    281.73767   -11044.831    47.029163    -11091.86    -11515.24 
  111600    350.67887   -11032.003    58.537197    -11090.54    4066.6537 
  111800    308.31885   -11026.895    51.466236   -11078.361   -263.75131 
  112000    297.00304   -11045.946     49.57734   -11095.524   -28891.914 
  112200    260.53947   -11049.308    43.490645   -11092.799   -35174.575 
  112400    313.89496   -11028.879     52.39703   -11081.276    63122.894 
  112600    260.86586   -11041.421    43.545128   -11084.966   -10912.498 
  112800     287.9803   -11042.255    48.071216   -11090.327    1102.7995 
  113000    316.80873   -11032.203    52.883412   -11085.086   -10563.953 
  113200    288.32673   -11042.993    48.129044   -11091.122   -331.11182 
  113400    318.36294   -11033.378    53.142849   -11086.521     21389.45 
  113600    325.34289   -11031.545     54.30798   -11085.853   -28086.455 
  113800    286.20864   -11043.919    47.775482   -11091.695   -383.24106 
  114000    330.19309   -11031.782    55.117602     -11086.9   -39389.426 
  114200    319.75398   -11032.414     53.37505   -11085.789   -34352.001 
  114400    279.34958    -11051.99    46.630529   -11098.621    6119.0115 
  114600    263.57127   -11035.403     43.99673     -11079.4    38607.865 
  114800    312.09156   -11036.784    52.095996    -11088.88    39415.578 
  115000    235.93032   -11057.322    39.382754   -11096.705    76442.927 
  115200    326.47061    -11037.15    54.496225   -11091.646   -13409.367 
  115400     305.0144   -11029.158    50.914639   -11080.073    59429.005 
  115600    250.97567   -11046.996    41.894205    -11088.89    34116.982 
  115800    303.90422   -11042.496    50.729322   -11093.225    -66805.18 
  116000    326.46177   -11036.748    54.494749   -11091.243    10046.371 
  116200    297.53082   -11044.033     49.66544   -11093.698      20242.4 
  116400    352.45795   -11038.305    58.834171   -11097.139   -51171.272 
  116600     317.4389   -11031.833    52.988604   -11084.821   -45081.671 
  116800     261.7889   -11049.699    43.699207   -11093.398     10103.78 
  117000    266.96921   -11045.929    44.563932   -11090.493   -11675.802 
  117200    343.56469    -11034.96     57.34966   -11092.309   -11018.876 
  117400    316.47165   -11040.116    52.827145   -11092.943    2180.5775 
  117600    279.72992   -11045.165    46.694018   -11091.859   -34243.757 
  117800    310.44477   -11030.133    51.821105   -11081.954    33925.293 
  118000    305.62492   -11036.214    51.016551    -11087.23   -21120.688 
  118200      271.701   -11046.357    45.353788   -11091.711    -19686.33 
  118400    316.53762   -11049.031    52.838157   -11101.869    4037.3628 
  118600    343.09269   -11032.565    57.270871   -11089.836   -36756.226 
  118800    354.79309   -11032.085    59.223966   -11091.309   -13687.956 
  119000    276.47087   -11052.439    46.150001   -11098.589   -42775.365 
  119200     264.2222   -11038.386    44.105386   -11082.492   -38299.289 
  119400     305.1219   -11037.147    50.932583    -11088.08   -49452.151 
  119600    269.23881   -11043.661    44.942785   -11088.604    40810.858 
  119800    348.84158   -11034.832    58.230507   -11093.062    38272.916 
  120000    217.34634   -11044.216    36.280616   -11080.496    36616.692 
  120200    304.39598   -11048.445    50.811409   -11099.256   -7309.3636 
  120400    313.68276   -11031.532    52.361608   -11083.894    40691.215 
  120600    245.95022    -11050.58    41.055329   -11091.636     16431.84 
  120800    273.86485   -11047.806    45.714989   -11093.521    23920.935 
  121000    338.94943    -11036.41    56.579257   -11092.989   -24693.502 
  121200    272.70415   -11052.889    45.521239    -11098.41   -3352.3456 
  121400    281.22454   -11049.504    46.943508   -11096.448   -47528.072 
  121600    307.63715    -11035.39    51.352442   -11086.743    97511.957 
  121800    332.53218   -11022.991    55.508055   -11078.499     56812.06 
  122000    256.92438   -11039.638    42.887195   -11082.525   -53616.219 
  122200    280.03455   -11036.815    46.744869    -11083.56    51925.637 
  122400    318.57717   -11045.408     53.17861   -11098.587   -24418.412 
  122600    253.81936   -11044.079    42.368888   -11086.448    11854.484 
  122800    316.68256   -11034.814    52.862352   -11087.677    -12973.83 
  123000    253.10031   -11044.365    42.248861   -11086.614    22644.321 
  123200    297.95037   -11050.948    49.735473   -11100.683   -20706.135 
  123400    273.71323   -11030.851    45.689681   -11076.541    45192.131 
  123600    306.62894   -11042.975    51.184147    -11094.16    31233.246 
  123800     273.8662   -11044.085    45.715215     -11089.8   -1764.0377 
  124000    288.90767   -11036.915    48.226017   -11085.141    17267.358 
  124200    280.78931   -11032.203    46.870857   -11079.074   -13457.319 
  124400    310.68351    -11046.67    51.860958   -11098.531    33998.366 
  124600    257.24125   -11047.806    42.940088   -11090.746    -12333.28 
  124800    312.74615   -11033.822    52.205264   -11086.027    39839.457 
  125000    239.84673   -11040.533    40.036502    -11080.57   -17128.991 
  125200    316.10072   -11041.797    52.765227   -11094.562    18615.638 
  125400     287.9617   -11040.438    48.068111   -11088.506    2226.8933 
  125600     315.2307   -11033.602    52.619998   -11086.222    17772.561 
  125800    277.03543   -11044.637     46.24424   -11090.881   -16475.811 
  126000    284.86791   -11044.685     47.55168   -11092.236   -10665.883 
  126200    287.88878   -11030.823    48.055939   -11078.879    8196.0534 
  126400     247.8953   -11046.412    41.380014   -11087.792   -35227.292 
  126600    309.15031   -11038.714    51.605027   -11090.319   -12015.845 
  126800    335.81418   -11032.327    56.055904   -11088.383     80295.03 
  127000    270.83203   -11048.561    45.208734   -11093.769   -22468.317 
  127200    310.00383   -11037.323    51.747501    -11089.07   -30903.245 
  127400    316.07663   -11036.717    52.761206   -11089.478   -7554.5792 
  127600    279.75414   -11040.544    46.698062   -11087.242      5387.61 
  127800    351.05979   -11021.344    58.600783   -11079.945      25792.3 
  128000    339.17687    -11040.73    56.617221   -11097.347     12748.52 
  128200    325.13067   -11037.809    54.272556   -11092.081   -17737.416 
  128400    336.95827   -11020.785    56.246881   -11077.031    37427.272 
  128600     321.1575   -11031.972    53.609332   -11085.582    -1216.474 
  128800    318.35577       -11041    53.141652   -11094.142   -37084.904 
  129000    287.97987   -11044.202    48.071144   -11092.273    14737.355 
  129200    321.66457   -11035.935    53.693976   -11089.629    622.10485 
  129400    345.65447   -11029.181    57.698498    -11086.88    37183.471 
  129600    249.91048   -11045.421    41.716397   -11087.137    39316.204 
  129800    334.39239   -11028.933    55.818571   -11084.752    5218.5088 
  130000    272.27538   -11029.414    45.449666   -11074.864   -54493.659 
  130200    275.85745   -11042.525    46.047605   -11088.572    83827.139 
  130400    290.75121   -11040.406    48.533752    -11088.94    18855.925 
  130600    336.88453   -11025.376    56.234572   -11081.611    53056.886 
  130800    276.63704   -11039.338    46.177738   -11085.516   -17241.215 
  131000     299.5808    -11041.27    50.007634   -11091.278    1379.8422 
  131200    353.67953   -11019.085    59.038083   -11078.123    49789.686 
  131400    305.96547   -11035.592    51.073396   -11086.666     6560.304 
  131600     282.9654   -11040.451    47.234102   -11087.685    7557.8639 
  131800    407.06368   -11021.853    67.949253   -11089.802   -20883.162 
  132000    291.19699   -11041.094    48.608163   -11089.702   -32224.048 
  132200    286.92899   -11040.407    47.895726   -11088.303   -28645.832 
  132400    322.99667   -11025.574    53.916336    -11079.49    11070.505 
  132600    311.91091    -11031.87    52.065842   -11083.936    -8620.689 
  132800    271.79883    -11041.62    45.370119    -11086.99    36864.936 
  133000    264.05394    -11026.68      44.0773   -11070.757   -8747.5023 
  133200    324.33032   -11022.481    54.138956    -11076.62   -51910.993 
  133400     308.9219   -11045.249      51.5669   -11096.816    -31830.12 
  133600    285.35552   -11042.536    47.633073   -11090.169   -31616.792 
  133800    376.61937   -11024.985    62.867325   -11087.852   -7926.3557 
  134000    285.47202   -11035.925    47.652521   -11083.578    7561.5138 
  134200    306.92449   -11038.381    51.233482   -11089.615    43352.598 
  134400    265.05941   -11048.164    44.245138   -11092.409   -4804.6034 
  134600     344.3958   -11031.396    57.488394   -11088.885   -46559.381 
  134800    301.27577    -11036.44    50.290567    -11086.73   -9733.6625 
  135000    275.53015   -11039.021    45.992971   -11085.014   -33339.799 
  135200    275.77154   -11038.091    46.033264   -11084.124   -15062.791 
  135400    315.08288   -11034.868    52.595323   -11087.463   -13022.925 
  135600    248.90931   -11052.067    41.549276   -11093.616    -37999.87 
  135800     326.6818   -11037.555    54.531477   -11092.087    26883.526 
  136000    271.73971   -11041.864    45.360249   -11087.225    52130.763 
  136200    288.90885   -11029.719    48.226215   -11077.945   -62569.343 
  136400    303.30642   -11032.378    50.629534   -11083.007    4454.2572 
  136600    320.74587   -11039.459    53.540621       -11093   -48111.362 
  136800     308.9458   -11038.932     51.57089   -11090.503    20522.465 
  137000    266.86639   -11044.212     44.54677   -11088.759   -7484.3865 
  137200    275.75971   -11044.793    46.031289   -11090.824     46788.17 
  137400    311.22621   -11030.178    51.951548    -11082.13    19837.125 
  137600    290.84144   -11042.775    48.548813   -11091.324   -61542.631 
  137800    266.59571   -11047.268    44.501585   -11091.769   -17880.733 
  138000    364.24029   -11030.094    60.800943   -11090.895   -59762.989 
  138200    320.13583   -11038.869    53.438789   -11092.308    4150.4128 
  138400    298.91689   -11046.582     49.89681   -11096.478   -20911.394 
  138600    334.78362   -11025.952    55.883878   -11081.836   -21112.505 
  138800    296.37799   -11030.739    49.473003   -11080.212   -29090.061 
  139000    292.52816   -11043.165    48.830369   -11091.996   -346.64572 
  139200    347.87913   -11028.901    58.069851   -11086.971   -23124.673 
  139400     303.5881    -11040.63    50.676554   -11091.307   -40740.334 
  139600    367.60982   -11040.682    61.363403   -11102.046     80377.84 
  139800    311.18813   -11030.382    51.945192   -11082.328    22656.402 
  140000    294.46463   -11034.185    49.153615   -11083.338    25103.174 
  140200    247.07532   -11045.201    41.243138   -11086.444   -5459.3967 
  140400    381.97245   -11029.684    63.760889   -11093.445    57874.555 
  140600    306.46953   -11047.995    51.157538   -11099.152    10495.643 
  140800    292.95891   -11040.605    48.902273   -11089.507    57085.824 
  141000    270.70714   -11027.869    45.187887   -11073.057   -28631.327 
  141200    299.38282   -11037.699    49.974586   -11087.673    2975.6328 
  141400    263.82953   -11041.954     44.03984   -11085.993    16019.404 
  141600    342.55254     -11034.2    57.180708   -11091.381   -38591.559 
  141800    408.03441   -11024.645    68.111292   -11092.756    18160.898 
  142000    264.08697   -11042.202    44.082814   -11086.285   -37493.286 
  142200    276.12957   -11033.866    46.093028   -11079.959    46281.425 
  142400    281.90585   -11042.049    47.057236   -11089.106   -41159.348 
  142600     273.3467   -11052.319    45.628497   -11097.947    8718.7174 
  142800    304.84769   -11030.206     50.88681   -11081.093    -19653.72 
  143000    302.51418   -11041.065     50.49729   -11091.562   -27730.913 
  143200    271.46634   -11038.881    45.314617   -11084.195   -54143.067 
  143400    304.76088   -11035.916     50.87232   -11086.788   -8156.3475 
  143600    285.46341   -11042.306    47.651083   -11089.957    19104.725 
  143800    381.52322   -11025.381    63.685902   -11089.067   -5465.1542 
  144000    296.03042   -11042.076    49.414985   -11091.491   -42009.502 
  144200    277.83175   -11039.625    46.377165   -11086.002    21104.305 
  144400    264.54044   -11050.014    44.158508   -11094.172    30603.372 
  144600     306.3916   -11034.175    51.144529   -11085.319    23303.659 
  144800    257.79042   -11046.721    43.031759   -11089.753   -5670.5551 
  145000    262.46434   -11056.776    43.811955   -11100.588   -19281.126 
  145200    294.75455   -11042.481    49.202011   -11091.683    3978.2551 
  145400    313.13342   -11031.301     52.26991   -11083.571   -55330.199 
  145600    275.98996   -11045.437    46.069724   -11091.507    20330.278 
  145800    287.90455   -11045.907    48.058571   -11093.965    13654.666 
  146000    351.55162   -11025.802    58.682882   -11084.485   -22947.379 
  146200    298.85055   -11033.775    49.885736   -11083.661    -14295.18 
  146400    305.56572    -11042.36    51.006668   -11093.367   -26253.614 
  146600    299.35554   -11033.027    49.970033   -11082.997   -23371.855 
  146800    288.71702   -11035.451    48.194194   -11083.645    20398.096 
  147000    305.81762   -11037.754    51.048718   -11088.803    2770.4084 
  147200    363.17368   -11035.601    60.622899   -11096.224    45811.283 
  147400    202.59699   -11048.485    33.818576   -11082.304   -48601.444 
  147600    304.09895   -11037.017    50.761827   -11087.779   -29969.295 
  147800    295.19917   -11031.308    49.276229   -11080.584   -4093.4638 
  148000    346.26921    -11026.59    57.801114   -11084.391    14774.721 
  148200    312.78133   -11040.457    52.211138   -11092.669    41173.258 
  148400    291.01954   -11047.187    48.578541   -11095.765    67314.256 
  148600    260.84457   -11047.916    43.541574   -11091.457   -28539.226 
  148800    286.74806   -11037.574    47.865524   -11085.439    82679.941 
  149000    333.73261   -11035.253    55.708437   -11090.961   -1259.6919 
  149200    286.73207   -11036.185    47.862856   -11084.048    -30278.84 
  149400    313.05658   -11049.805    52.257083   -11102.062   -338.19406 
  149600    328.42568   -11030.905    54.822575   -11085.728   -22103.185 
  149800    332.18495   -11036.161    55.450094   -11091.611   -52598.014 
  150000    229.78735   -11047.168    38.357337   -11085.525    35327.347 
  150200    286.23705    -11036.04    47.780223    -11083.82    1599.6702 
  150400    308.42754   -11037.368    51.484378   -11088.853    5055.0013 
  150600    308.82646   -11046.614    51.550968   -11098.165     11917.76 
  150800    261.32212   -11056.572     43.62129   -11100.193   -950.45379 
  151000    306.02637   -11038.843    51.083563   -11089.926   -757.90522 
  151200    355.43816   -11031.619    59.331643    -11090.95    21675.029 
  151400    297.13626   -11050.081    49.599577    -11099.68   -21386.397 
  151600    302.61914   -11037.673    50.514809   -11088.188   -4456.3023 
  151800    315.21699   -11035.043    52.617711   -11087.661   -23669.619 
  152000      325.469   -11038.087    54.329031   -11092.417    -29228.78 
  152200    323.96905   -11036.206    54.078651   -11090.285    15051.856 
  152400     291.8769   -11033.328    48.721657   -11082.049   -1332.9022 
  152600    248.22801   -11048.679    41.435551   -11090.115   -838.06673 
  152800    254.63056   -11043.524    42.504298   -11086.028    3793.3958 
  153000    369.71164   -11017.523    61.714249   -11079.237   -53685.151 
  153200     331.9736   -11037.162    55.414814   -11092.577    9191.8103 
  153400    290.41979   -11044.043    48.478429   -11092.521     25144.13 
  153600    322.42675   -11027.275    53.821202   -11081.096    27724.255 
  153800    283.03987   -11041.188    47.246532   -11088.435    47612.562 
  154000    272.58021   -11046.013     45.50055   -11091.513    34155.928 
  154200    303.29544   -11035.857    50.627701   -11086.485    33641.676 
  154400    310.64074   -11029.259    51.853819   -11081.113     31316.83 
  154600    316.63788   -11031.504    52.854893   -11084.359   -21894.321 
  154800    281.37608   -11049.046    46.968804   -11096.014    17520.157 
  155000    285.31108   -11043.135    47.625656    -11090.76    43476.168 
  155200    332.81381    -11020.01    55.555067   -11075.565   -6514.7237 
  155400    314.13158   -11035.377    52.436528   -11087.813   -30233.509 
  155600     350.2308   -11039.129    58.462403   -11097.591    25001.351 
  155800    322.37141   -11047.095    53.811965   -11100.907   -48241.978 
  156000    277.16516   -11048.126    46.265894   -11094.392   -34229.286 
  156200    360.07882   -11035.951    60.106288   -11096.057    8899.4624 
  156400    295.77145   -11046.129    49.371756   -11095.501    23413.295 
  156600    241.39536    -11055.81    40.295007   -11096.105   -28349.441 
  156800    305.25991   -11035.689     50.95562   -11086.644   -615.65209 
  157000    356.01239   -11040.825    59.427497   -11100.253   -10891.648 
  157200    235.14603   -11049.933    39.251836   -11089.185    47335.554 
  157400    294.48687   -11041.024    49.157328   -11090.181    21326.347 
  157600    312.25507   -11034.232    52.123291   -11086.355    73634.071 
  157800    330.06579   -11025.907    55.096352   -11081.004    29020.713 
  158000    257.96328   -11045.523    43.060614   -11088.583    24629.476 
  158200    343.83895   -11033.122    57.395441   -11090.518   -35019.515 
  158400    244.58679   -11047.268    40.827738   -11088.096   -11931.759 
  158600    219.99957   -11050.218    36.723509   -11086.942   -30605.586 
  158800    375.09047   -11029.979    62.612113   -11092.591    9454.3875 
  159000    314.22473   -11045.506    52.452077   -11097.958   -45264.613 
  159200     283.4555   -11047.312    47.315913   -11094.628    20268.156 
  159400     349.6061   -11027.373    58.358126   -11085.732   -9864.8419 
  159600    305.50339   -11047.721    50.996264   -11098.717   -9270.4847 
  159800    303.74939   -11039.953    50.703477   -11090.656    1384.3882 
  160000     360.9866   -11031.555    60.257819   -11091.813   -33138.088 
  160200    275.66812   -11034.537    46.016001   -11080.553   -19812.527 
  160400    284.23908   -11045.642    47.446712   -11093.089   -18927.326 
  160600    266.50642   -11043.628    44.486681   -11088.115   -26838.057 
  160800    313.87219   -11033.915    52.393229   -11086.308     7276.136 
  161000    303.36829   -11037.942    50.639861   -11088.582   -27386.291 
  161200    290.54054   -11051.462    48.498585   -11099.961    26642.063 
  161400    310.80992   -11049.087    51.882059   -11100.969    4495.9856 
  161600    304.74299   -11038.845    50.869334   -11089.714   -7275.5427 
  161800    301.20216   -11043.878     50.27828   -11094.156   -34953.381 
  162000    262.59976   -11055.447     43.83456   -11099.282   -37614.455 
  162200    311.80237   -11034.639    52.047724   -11086.687   -6285.8073 
  162400    277.61961   -11040.863    46.341755   -11087.205    18922.592 
  162600    327.98688   -11041.468     54.74933   -11096.217    9358.5855 
  162800    290.60429   -11028.333    48.509227   -11076.843    39839.578 
  163000    273.19763   -11044.223    45.603613   -11089.827   -1741.9494 
  163200    310.62782   -11039.208    51.851661   -11091.059   -120.22069 
  163400    342.08915   -11032.126    57.103355   -11089.229   -148.16712 
  163600    281.28247   -11030.323    46.953179   -11077.276   -12597.587 
  163800    307.37222   -11045.681    51.308219   -11096.989   -33944.396 
  164000    313.68772   -11034.402    52.362436   -11086.765   -9853.0442 
  164200    330.39966   -11022.193    55.152084   -11077.345   -40112.417 
  164400     282.0754   -11032.769    47.085538   -11079.854   -16118.843 
  164600    287.42146   -11044.937    47.977931   -11092.915    31463.114 
  164800    352.35304    -11033.27    58.816659   -11092.086    54716.699 
  165000    303.39581   -11032.175    50.644456    -11082.82   -11423.626 
  165200    311.12678   -11042.441     51.93495   -11094.376    46187.192 
  165400    291.14647    -11044.33     48.59973    -11092.93    27220.572 
  165600     322.7396   -11034.357    53.873424    -11088.23    2314.2484 
  165800    320.93413    -11041.96    53.572046   -11095.532   -45393.563 
  166000    288.55447   -11047.349    48.167059   -11095.516   -60472.401 
  166200    250.38642   -11039.905    41.795844   -11081.701    13285.273 
  166400     350.1505   -11015.244       58.449   -11073.693    27015.719 
  166600    334.99921   -11034.891    55.919864   -11090.811   -18911.303 
  166800    277.28095   -11036.527    46.285223   -11082.813   -9547.2473 
  167000    351.47241   -11024.769     58.66966   -11083.438     29553.62 
  167200    293.04312   -11036.216     48.91633   -11085.132   -23204.977 
  167400    285.47344   -11042.477    47.652758    -11090.13   -42019.268 
  167600    304.49139   -11024.072    50.827336   -11074.899    8267.0563 
  167800    316.24847   -11036.082     52.78989   -11088.872   -77816.946 
  168000    301.90624    -11041.98    50.395809   -11092.376   -58088.842 
  168200    350.82801   -11028.419    58.562094   -11086.981    57719.239 
  168400    259.88416   -11042.669    43.381258    -11086.05   -8789.2222 
  168600    266.24478   -11039.096    44.443006   -11083.539    67977.717 
  168800    281.36224   -11034.261    46.966494   -11081.227    45970.502 
  169000     257.8588   -11051.664    43.043175   -11094.707    4947.4762 
  169200    267.02241   -11035.591    44.572812   -11080.164   -16874.533 
  169400    355.98971   -11032.633    59.423712   -11092.057   -16838.768 
  169600     245.9363   -11052.466    41.053007   -11093.519   -10453.353 
  169800    307.81865   -11039.781    51.382741   -11091.164   -17899.694 
  170000    324.91544     -11032.6    54.236628   -11086.837    735.53784 
  170200    227.08609   -11052.021    37.906429   -11089.928    906.24433 
  170400    257.39034   -11043.963    42.964977   -11086.928   -62852.267 
  170600    248.45915   -11035.925    41.474134   -11077.399   -11921.548 
  170800    308.42332   -11043.298    51.483674   -11094.782    34532.773 
  171000    256.31479   -11052.436    42.785439   -11095.222    34015.258 
  171200    321.63986   -11037.335     53.68985   -11091.025    38400.644 
  171400     341.5494   -11036.511    57.013257   -11093.524    -29640.35 
  171600    294.89154   -11050.841    49.224877   -11100.066    27374.681 
  171800    300.67131   -11033.847    50.189668   -11084.037    3879.6423 
  172000     300.3002   -11034.079     50.12772   -11084.207    31653.706 
  172200    243.60174   -11048.943    40.663309   -11089.606    41168.411 
  172400    333.92493   -11040.814     55.74054   -11096.555    24259.193 
  172600      326.838   -11037.063    54.557551   -11091.621   -29865.862 
  172800    402.18108   -11018.525    67.134222   -11085.659   -35510.994 
  173000    311.08169   -11038.399    51.927424   -11090.326    18095.295 
  173200    257.46212   -11046.826    42.976958   -11089.803   -15899.404 
  173400    280.78772   -11037.885    46.870591   -11084.756   -17367.149 
  173600     274.5304   -11033.912    45.826087   -11079.738    7518.5637 
  173800    257.87467   -11046.198    43.045823   -11089.243   -6760.9735 
  174000    232.66991   -11059.313    38.838509   -11098.152   -15812.159 
  174200    261.62185   -11039.535    43.671322   -11083.206    32455.125 
  174400    299.08082   -11040.938    49.924175   -11090.862    22966.836 
  174600    254.76738   -11051.122    42.527137   -11093.649    6554.9429 
  174800    327.75551    -11031.23    54.710707    -11085.94   -26649.132 
  175000    300.19842   -11035.683     50.11073   -11085.794   -15414.401 
  175200    280.14234    -11051.71    46.762862   -11098.472    21438.704 
  175400    321.01528   -11037.343    53.585593   -11090.928    24496.256 
  175600    278.05747   -11038.962    46.414843   -11085.377    71392.476 
  175800    306.22279   -11034.301     51.11635   -11085.418    105294.76 
  176000    320.89069   -11031.387    53.564796   -11084.952    37628.284 
  176200    238.14695   -11043.696    39.752766   -11083.449   -55020.574 
  176400     312.3826   -11036.209    52.144579   -11088.353    48817.896 
  176600    277.39262   -11018.923    46.303864   -11065.227   -75747.433 
  176800      301.229   -11040.209     50.28276   -11090.492    54502.211 
  177000    285.54437   -11040.915    47.664597    -11088.58    -25473.15 
  177200    402.55765   -11022.646    67.197081   -11089.843    79156.397 
  177400    327.17287   -11038.176     54.61345   -11092.789   -31815.485 
  177600    312.00628   -11041.896    52.081762   -11093.977   -348.87119 
  177800    329.82693    -11029.39     55.05648   -11084.446    7267.0649 
  178000    321.96621   -11029.276    53.744326    -11083.02    21756.703 
  178200    265.87555   -11045.128    44.381373    -11089.51   -2730.1685 
  178400    335.12919    -11031.18    55.941561   -11087.121   -40838.559 
  178600    276.08567   -11046.037      46.0857   -11092.123   -36210.318 
  178800    324.13603       -11039    54.106524   -11093.107   -17827.792 
  179000    345.45455   -11028.412    57.665127   -11086.077   -2372.7351 
  179200    271.94362   -11041.865    45.394287   -11087.259   -6503.5642 
  179400    278.65254   -11045.784    46.514176   -11092.298   -63461.658 
  179600    326.89155   -11025.632    54.566491   -11080.199   -26002.401 
  179800    309.17581   -11036.724    51.609285   -11088.333    1627.8082 
  180000    291.53203   -11039.624     48.66409   -11088.288    75378.931 
  180200     348.4733   -11024.382    58.169032   -11082.551   -50204.575 
  180400    258.15144   -11044.472    43.092023   -11087.564   -39098.958 
  180600    299.42725   -11041.362    49.982002   -11091.344    41638.241 
  180800    304.67443   -11031.049     50.85789   -11081.907    12380.466 
  181000    292.50509   -11039.473    48.826518     -11088.3    36626.645 
  181200    262.85309   -11047.872    43.876848   -11091.749    5677.2701 
[...]
  950000    343.57551   -11032.728    57.351466    -11090.08     34327.86 
  950200    310.19263   -11042.604    51.779017   -11094.383    22421.693 
  950400    291.79259   -11048.938    48.707584   -11097.646   -1564.2389 
  950600    331.69807   -11030.461     55.36882    -11085.83   -15446.128 
  950800     260.6837   -11046.495    43.514722    -11090.01   -32497.893 
  951000    273.26639   -11055.455    45.615092    -11101.07    -35103.97 
  951200    269.58523   -11032.348    45.000612   -11077.349   -50244.515 
  951400    299.59783   -11034.298    50.010476   -11084.309   -22131.312 
  951600    259.56969   -11046.835    43.328765   -11090.164   -1006.7625 
  951800    311.29581    -11038.77    51.963166   -11090.734   -21592.997 
  952000    310.75416   -11042.378    51.872751    -11094.25    10082.449 
  952200    311.79907   -11033.708    52.047173   -11085.755    -38819.67 
  952400    265.77817   -11043.887    44.365117   -11088.252    12623.415 
  952600      283.058   -11051.556    47.249559   -11098.806   -14042.242 
  952800    294.71607   -11039.517    49.195586   -11088.712   -15541.428 
  953000    320.72253   -11033.239    53.536724   -11086.776   -4113.5916 
  953200    269.73681   -11050.469    45.025914   -11095.494   -22779.524 
  953400    299.79457   -11039.552    50.043318   -11089.595    23894.527 
  953600    324.13459   -11034.949    54.106285   -11089.056    -11029.73 
  953800     317.3549   -11043.248    52.974582   -11096.223   -25260.116 
  954000     222.3186   -11060.187    37.110612   -11097.297    11087.614 
  954200    291.18507   -11041.927    48.606174   -11090.533   -31715.837 
  954400    328.91965    -11035.35    54.905033   -11090.255   -2878.5624 
  954600    321.66489   -11052.447    53.694029   -11106.141   -15333.262 
  954800    290.03928   -11040.399    48.414911   -11088.814   -10762.058 
  955000    317.04932   -11040.491    52.923573   -11093.414    10429.972 
  955200    287.56673    -11047.24    48.002181   -11095.242   -16143.594 
  955400    357.08014   -11027.042    59.605732   -11086.648   -175.94596 
  955600    289.90791   -11035.436    48.392982   -11083.829   -34151.587 
  955800    289.53079   -11042.262    48.330032   -11090.592   -14575.481 
  956000    309.43972   -11042.424    51.653338   -11094.077     41990.45 
  956200    364.21317   -11025.263    60.796416    -11086.06   -74719.591 
  956400    319.31206   -11042.389    53.301281    -11095.69   -54234.101 
  956600    304.30746   -11045.932    50.796634   -11096.728   -19425.996 
  956800    318.22929   -11036.061     53.12054   -11089.181    1806.6155 
  957000     436.3392   -11007.423    72.836079   -11080.259    27939.308 
  957200    285.04902   -11034.047    47.581911   -11081.629   -3393.5617 
  957400    271.50798   -11050.761    45.321568   -11096.082    22978.047 
  957600    325.55311    -11038.55    54.343071   -11092.893    25696.798 
  957800    353.65194   -11036.637    59.033478   -11095.671    -53154.33 
  958000    259.38108   -11042.197     43.29728   -11085.494    29584.028 
  958200    339.52969    -11019.25    56.676116   -11075.926   -22776.573 
  958400    292.57874   -11036.822    48.838813   -11085.661   -14198.802 
  958600    291.50404   -11047.463    48.659417   -11096.123    6607.4729 
  958800    246.77989   -11063.946    41.193822   -11105.139    28925.521 
  959000    292.01276   -11049.564    48.744335   -11098.308   -6857.6004 
  959200    299.69876   -11035.568    50.027325   -11085.595   -15875.754 
  959400     270.5534   -11044.846    45.162225   -11090.008   -23759.149 
  959600     294.6667   -11047.429    49.187347   -11096.616   -7950.1359 
  959800    283.09123   -11042.556    47.255107   -11089.811    21192.652 
  960000    357.72382   -11021.867    59.713178    -11081.58   -4666.0465 
  960200    302.66385   -11033.174    50.522273   -11083.697   -78.555532 
  960400    278.90725   -11043.396    46.556694   -11089.953    47100.149 
  960600    268.72202   -11045.461     44.85652   -11090.317   -27556.133 
  960800    283.82676   -11038.831    47.377885   -11086.208    42921.655 
  961000    306.32217   -11036.102     51.13294   -11087.235    66674.867 
  961200    298.09888   -11046.983    49.760264   -11096.743    5407.6296 
  961400    326.41492   -11038.023    54.486928    -11092.51    8739.9811 
  961600    291.13927    -11036.25    48.598528   -11084.848    45048.558 
  961800    260.34491   -11053.258    43.458168   -11096.716   -14406.463 
  962000    273.45763    -11047.83    45.647014   -11093.477     2099.596 
  962200     263.7438   -11036.064     44.02553   -11080.089    21866.045 
  962400    333.91203   -11042.198    55.738387   -11097.937    7334.8573 
  962600    261.83997   -11049.182    43.707732    -11092.89   -9465.7791 
  962800    286.22723   -11033.339    47.778585   -11081.117    8724.9117 
  963000    279.68516   -11047.691    46.686546   -11094.378    14637.175 
  963200    244.51134   -11045.604    40.815144   -11086.419    10872.894 
  963400     320.0311   -11036.999    53.421308    -11090.42   -14987.303 
  963600    278.19521   -11047.174    46.437837   -11093.612    35148.555 
  963800    253.46976    -11056.33    42.310532   -11098.641   -32546.714 
  964000    305.65128   -11041.528    51.020952   -11092.549    26071.939 
  964200    331.44673   -11039.995    55.326866   -11095.322    20598.296 
  964400    285.92165   -11031.787    47.727576   -11079.514     34199.77 
  964600    288.71458   -11037.861    48.193785   -11086.054    4577.5528 
  964800    294.07242   -11044.839    49.088145   -11093.927   -36580.673 
  965000    325.86007   -11036.495    54.394311    -11090.89    25845.179 
  965200    288.27172     -11037.8    48.119861    -11085.92    28844.753 
  965400    248.87328   -11049.504    41.543262   -11091.047    49108.468 
  965600    306.59261    -11031.69    51.178083   -11082.868    60542.178 
  965800    304.74442    -11034.72    50.869574   -11085.589   -1613.4088 
  966000    359.33415    -11039.52    59.981983   -11099.502    4860.6846 
  966200    251.04309     -11045.5    41.905458   -11087.405    3837.7568 
  966400    321.02383   -11038.498    53.587019   -11092.085   -14070.137 
  966600    309.91382   -11029.894    51.732477   -11081.627     41443.41 
  966800    266.23916   -11044.174    44.442068   -11088.616   -12819.386 
  967000    347.27404   -11031.895    57.968844   -11089.864    13071.465 
  967200    319.31915   -11033.511    53.302465   -11086.813    3324.7423 
  967400    333.06936   -11044.716    55.597724   -11100.314    32172.153 
  967600    349.89101   -11033.928    58.405684   -11092.334   -16576.807 
  967800    321.22122   -11025.416    53.619968   -11079.036    4444.1633 
  968000    235.03225   -11047.251    39.232844   -11086.483    -18788.04 
  968200    308.14873   -11036.778    51.437838   -11088.216    17194.752 
  968400    289.32526   -11045.693    48.295724   -11093.989    38449.954 
  968600    262.09511   -11047.735    43.750322   -11091.485    25240.872 
  968800    325.04738   -11031.496    54.258652   -11085.754     14880.71 
  969000    288.86126   -11042.438     48.21827   -11090.656    2747.3474 
  969200    224.76651    -11064.22    37.519231   -11101.739   -11294.006 
  969400    257.12312   -11052.238    42.920371   -11095.159    47460.473 
  969600    301.75251   -11037.269    50.370148   -11087.639    26744.011 
  969800    306.83099   -11037.422    51.217875    -11088.64   -3019.5582 
  970000    309.83461   -11049.507    51.719254   -11101.227    17810.791 
  970200    324.71164   -11038.909    54.202608   -11093.112   -16006.016 
  970400    291.84533   -11028.283    48.716388       -11077     27030.79 
  970600    328.24459   -11032.936    54.792347   -11087.728    17531.681 
  970800    267.00064   -11043.159    44.569179   -11087.728    21848.744 
  971000    291.65991   -11047.055    48.685436   -11095.741    39746.696 
  971200       308.17   -11037.566    51.441389   -11089.008    -44289.91 
  971400    316.14771   -11031.531    52.773071   -11084.304   -23019.131 
  971600    295.24312   -11043.829    49.283564   -11093.112   -6296.3389 
  971800    290.20796   -11039.363    48.443068   -11087.806   -32699.179 
  972000    311.76929   -11035.819    52.042202   -11087.861   -29410.039 
  972200    257.24604   -11053.939    42.940888    -11096.88   -42358.189 
  972400    250.53711   -11038.362    41.820998   -11080.183    49159.003 
  972600    293.63173    -11036.31    49.014583   -11085.324   -25326.132 
  972800    295.71679   -11048.631    49.362632   -11097.994   -45867.368 
  973000    271.82771   -11046.251    45.374939   -11091.626     4090.846 
  973200    289.69756   -11037.087     48.35787   -11085.445    39344.864 
  973400    289.05009   -11047.333    48.249792   -11095.583    21969.639 
  973600    256.14268   -11059.155    42.756709   -11101.912    29961.114 
  973800    266.14615    -11037.24    44.426542   -11081.667    42463.703 
  974000    331.91819   -11031.921    55.405564   -11087.327    67045.057 
  974200    301.44999   -11048.386    50.319649   -11098.706    7600.6712 
  974400    258.29551   -11043.184    43.116072     -11086.3    38058.205 
  974600    269.63141   -11038.892    45.008321     -11083.9   -39491.324 
  974800    349.60587   -11023.913    58.358087   -11082.271   -8911.0043 
  975000    374.49573   -11033.316    62.512836   -11095.829   -5687.6409 
  975200    343.14221   -11041.689    57.279137   -11098.968   -8407.2593 
  975400    334.64221   -11034.655    55.860272   -11090.515   -2713.3781 
  975600     359.5581   -11023.555    60.019367   -11083.574   -22806.962 
  975800    302.99305   -11045.184    50.577224   -11095.761   -38979.232 
  976000    312.83607   -11035.848    52.220275   -11088.069    34814.165 
  976200    328.47445    -11033.06    54.830717   -11087.891   -12554.821 
  976400    320.10369   -11051.266    53.433425     -11104.7   -2026.2506 
  976600    338.54971   -11034.655    56.512533   -11091.167    4393.2854 
  976800    331.97589   -11033.206    55.415195   -11088.621    1223.4889 
  977000    267.36387    -11048.37    44.629812       -11093   -17712.142 
  977200    276.97544   -11036.964    46.234225   -11083.198     15292.52 
  977400    344.25495   -11040.859    57.464883   -11098.324   -11989.027 
  977600    282.94318    -11056.24    47.230393    -11103.47    41421.604 
  977800    286.32357   -11047.991    47.794666   -11095.786    34429.998 
  978000    272.96893   -11033.667    45.565438   -11079.233    23049.792 
  978200    260.14483    -11044.34     43.42477   -11087.765    -10838.07 
  978400    247.91389   -11049.324    41.383116   -11090.707    37187.531 
  978600    304.76281   -11037.341    50.872642   -11088.214   -26705.121 
  978800    340.95502   -11033.836    56.914041    -11090.75   -70076.132 
  979000    283.47032   -11043.973    47.318386   -11091.291     25225.34 
  979200    323.65517   -11038.617    54.026257   -11092.643    9932.1499 
  979400    366.73176   -11027.924    61.216832   -11089.141   -17657.547 
  979600    280.33274   -11040.039    46.794645   -11086.833   -18.530361 
  979800     266.0719   -11038.826    44.414149   -11083.241    136.28999 
  980000    313.92761   -11034.274    52.402481   -11086.677   -4379.4048 
  980200    295.61002   -11041.227     49.34481   -11090.572    45617.353 
  980400    283.61515   -11044.581    47.342562   -11091.924   -74432.391 
  980600    322.77991   -11032.062    53.880154   -11085.942      13242.4 
  980800    277.40816   -11041.192    46.306458   -11087.499    66487.451 
  981000    309.22004   -11048.734    51.616667   -11100.351    18725.298 
  981200    342.28815   -11044.308    57.136573   -11101.445     4624.924 
  981400    325.11874   -11031.961    54.270564   -11086.232   -41647.191 
  981600    288.90544   -11051.288    48.225645   -11099.514    21168.536 
  981800    256.32592   -11049.461    42.787297   -11092.249   -2388.7311 
  982000    292.42473   -11037.152    48.813104   -11085.965    9429.4569 
  982200    301.80277   -11045.031    50.378537    -11095.41    33758.128 
  982400    271.89973   -11050.239    45.386961   -11095.626   -15879.187 
  982600    297.12912   -11037.178    49.598386   -11086.776   -17097.282 
  982800    298.66379   -11040.439    49.854562   -11090.294    -13001.46 
  983000    345.81867   -11026.848    57.725908   -11084.574   -5741.2655 
  983200    287.61246   -11041.011    48.009815   -11089.021   -49562.449 
  983400    298.78104    -11044.92    49.874133   -11094.794    7151.4394 
  983600     344.8253   -11023.763    57.560088   -11081.323    -30910.89 
  983800    326.71136   -11032.683    54.536412    -11087.22   -10216.047 
  984000    293.66193   -11044.766    49.019624   -11093.786   -21222.842 
  984200    302.26852   -11029.421    50.456282   -11079.878   -14511.761 
  984400    261.16663   -11035.992    43.595335   -11079.587    15282.658 
  984600    321.52258   -11042.444    53.670274   -11096.114   -24321.372 
  984800    253.20374   -11045.454    42.266126    -11087.72   -14246.811 
  985000    371.80632   -11026.124    62.063904   -11088.188   -45633.947 
  985200    338.58728   -11038.074    56.518804   -11094.593    42775.571 
  985400    300.11824   -11043.105    50.097346   -11093.202   -12711.468 
  985600    285.32629   -11038.339    47.628194   -11085.968   -18994.548 
  985800    343.81978   -11025.653    57.392242   -11083.045   -3942.8638 
  986000    291.86758   -11042.571    48.720102   -11091.291   -11108.417 
  986200    298.75638   -11037.684    49.870018   -11087.554    14481.549 
  986400    372.94448   -11022.248    62.253893   -11084.502   -45621.595 
  986600    246.80205   -11043.128    41.197521   -11084.326   -81623.505 
  986800    289.20673   -11039.265    48.275938    -11087.54    13749.263 
  987000    312.41303   -11027.028    52.149658   -11079.178   -819.89971 
  987200    262.48046   -11043.484    43.814646   -11087.299   -14944.521 
  987400     324.4396   -11040.395    54.157198   -11094.553   -13880.176 
  987600    355.46388   -11017.389    59.335937   -11076.725    18855.503 
  987800    305.86714    -11035.91    51.056984   -11086.967    48727.068 
  988000    283.83916   -11037.267    47.379954   -11084.646    -28211.21 
  988200     312.9012   -11030.802    52.231146   -11083.033    97885.446 
  988400    260.42603   -11048.011     43.47171   -11091.483   -40100.456 
  988600    319.54616   -11035.753    53.340359   -11089.094     52969.06 
  988800    324.12829   -11035.002    54.105232   -11089.107    8446.4943 
  989000    304.03491   -11044.931    50.751138   -11095.682    7281.4312 
  989200    369.27876   -11028.303     61.64199   -11089.945    39948.853 
  989400    299.99306   -11035.814     50.07645   -11085.891    26920.504 
  989600    262.91174   -11044.254    43.886638   -11088.141    15562.524 
  989800     311.8442   -11031.446    52.054705   -11083.501   -19013.148 
  990000    357.88921   -11024.692    59.740785   -11084.433    65279.794 
  990200    323.98349   -11037.667    54.081061   -11091.748    21156.935 
  990400    324.85637   -11043.338    54.226767   -11097.565   -79280.787 
  990600    307.94784   -11025.781    51.404306   -11077.186   -3461.4117 
  990800    300.18802   -11038.833    50.108994   -11088.942    26277.134 
  991000    290.31995   -11043.859    48.461763    -11092.32   -2193.5906 
  991200    293.97839   -11030.058    49.072449    -11079.13   -11957.591 
  991400    315.51325    -11024.62    52.667164   -11077.287   -42056.431 
  991600    335.18413   -11038.612    55.950732   -11094.563    73508.105 
  991800    278.27139   -11050.073    46.450553   -11096.523    4629.3651 
  992000    270.96403   -11051.961     45.23077   -11097.192   -14221.284 
  992200    322.14448    -11035.47    53.774084   -11089.244   -17180.578 
  992400    300.84765   -11041.001    50.219104    -11091.22   -33301.744 
  992600    268.17545   -11054.667    44.765285   -11099.432    57808.123 
  992800    302.20888   -11032.917    50.446326   -11083.364    53632.903 
  993000    296.28929   -11035.893    49.458197   -11085.351   -80685.733 
  993200     279.5156   -11049.378    46.658244   -11096.036    1902.6599 
  993400    302.58861   -11033.873    50.509713   -11084.383   -1049.3951 
  993600    330.92679   -11032.631    55.240075   -11087.872   -32508.046 
  993800    243.83228   -11044.619    40.701792    -11085.32   -10833.182 
  994000    280.25536   -11035.121    46.781728   -11081.902   -46285.874 
  994200    340.51349   -11024.433    56.840338   -11081.273   -1220.3116 
  994400    303.59629   -11033.082    50.677921    -11083.76   -13434.474 
  994600    289.17078   -11045.669    48.269938   -11093.939    18552.361 
  994800     279.0115   -11045.106    46.574096    -11091.68   -55774.252 
  995000    335.07368   -11030.432    55.932295   -11086.364   -3580.9846 
  995200    291.88455   -11042.749    48.722935   -11091.472   -18407.341 
  995400    316.76006   -11048.346    52.875288   -11101.221    50007.982 
  995600    316.89294   -11039.849    52.897469   -11092.747    19501.939 
  995800     300.9771   -11035.265    50.240712   -11085.506   -45663.139 
  996000    254.21474   -11051.267    42.434888   -11093.702    1005.6095 
  996200    314.34363   -11037.923    52.471925   -11090.394    14606.132 
  996400    312.22654   -11031.875    52.118528   -11083.993    9703.3623 
  996600     240.4773   -11051.871    40.141761   -11092.013    -13981.82 
  996800    284.99285   -11047.582    47.572534   -11095.154     23671.48 
  997000    317.43162   -11034.729    52.987388   -11087.717   -59765.837 
  997200    261.18886   -11046.196    43.599045   -11089.795    -17808.33 
  997400    317.99415   -11047.179    53.081289   -11100.261    18797.781 
  997600    286.94888    -11037.73    47.899046   -11085.629     12449.08 
  997800    293.99294   -11037.511    49.074878   -11086.586     38853.13 
  998000    254.50374   -11054.202    42.483129   -11096.686    30122.323 
  998200     326.5724    -11043.36    54.513216   -11097.874   -7762.2315 
  998400    259.81494   -11038.042    43.369703   -11081.412   -21045.489 
  998600    335.60307   -11031.775    56.020664   -11087.796    47540.903 
  998800    235.18563   -11031.923    39.258447   -11071.182    6666.7941 
  999000    283.59352   -11041.836    47.338951   -11089.175    19088.736 
  999200     370.4395   -11029.666    61.835748   -11091.502     23435.03 
  999400    298.51747   -11029.457    49.830137   -11079.287    43956.452 
  999600    272.86804   -11041.229    45.548596   -11086.777   -5441.8796 
  999800    267.34881   -11040.206    44.627297   -11084.833    37965.188 
 1000000    313.15593   -11023.655    52.273668   -11075.929    65480.037 
Loop time of 31181.2 on 8 procs for 1000000 steps with 57 atoms

Performance: 0.693 ns/day, 34.646 hours/ns, 32.071 timesteps/s
99.8% CPU use with 8 MPI tasks x no OpenMP threads

MPI task timing breakdown:
Section |  min time  |  avg time  |  max time  |%varavg| %total
---------------------------------------------------------------
Pair    | 28623      | 29034      | 29461      | 181.3 | 93.12
Neigh   | 3.1757     | 3.3196     | 3.4998     |   5.5 |  0.01
Comm    | 324.55     | 749.25     | 1159.1     |1123.8 |  2.40
Output  | 0.47863    | 0.51296    | 0.71054    |  10.4 |  0.00
Modify  | 1371.3     | 1373.5     | 1375       |   4.4 |  4.41
Other   |            | 20.16      |            |       |  0.06

Nlocal:    7.125 ave 11 max 4 min
Histogram: 2 1 1 0 1 0 0 0 2 1
Nghost:    1106.88 ave 1119 max 1082 min
Histogram: 1 0 0 0 1 1 0 2 1 2
Neighs:    1947.38 ave 3059 max 1074 min
Histogram: 2 1 1 0 1 0 0 1 1 1

Total # of neighbors = 15579
Ave neighs/atom = 273.316
Neighbor list builds = 330
Dangerous builds = 0

Please see the log.cite file for references relevant to this simulation

Total wall time: 8:42:10
