LAMMPS (3 Mar 2020)
# Alpha
clear
units		real
dimension 3
boundary        p p p
atom_style	charge
newton on
read_data       O_5.lmp
  orthogonal box = (0 0 0) to (21.884 21.886 21.885)
  2 by 2 by 2 MPI processor grid
  reading atoms ...
  145 atoms
  read_data CPU = 0.00410479 secs

timestep 0.25

# ---------- Define Interatomic Potential ---------------------
pair_style      reax/c NULL checkqeq no
pair_coeff      * * ffield.reax C O
fix             2 all qeq/reax 1 0.0 10.0 1.0e-6 reax/c

#------------ Equilibration of the system -------------------------
reset_timestep 0

dump 1 all custom 10 min.lammpstrj id type x y z

minimize 1.0e-8 1.0e-8 100000 100000
WARNING: Using 'neigh_modify every 1 delay 0 check yes' setting during minimization (../min.cpp:190)
WARNING: Total cutoff < 2*bond cutoff. May need to use an increased neighbor list skin. (../pair_reaxc.cpp:413)
Neighbor list info ...
  update every 1 steps, delay 0 steps, check yes
  max neighbors/atom: 2000, page size: 100000
  master list distance cutoff = 9.5
  ghost atom cutoff = 9.5
  binsize = 4.75, bins = 5 5 5
  2 neighbor lists, perpetual/occasional/extra = 2 0 0
  (1) pair reax/c, perpetual
      attributes: half, newton off, ghost
      pair build: half/bin/newtoff/ghost
      stencil: half/ghost/bin/3d/newtoff
      bin: standard
  (2) fix qeq/reax, perpetual, copy from (1)
      attributes: half, newton off, ghost
      pair build: copy
      stencil: none
      bin: none
Per MPI rank memory allocation (min/avg/max) = 12.69 | 13.46 | 15.25 Mbytes
Step Temp E_pair E_mol TotEng Press 
       0            0   -26278.264            0   -26278.264    361.76994 
      60            0   -26348.674            0   -26348.674    1606.1675 
Loop time of 3.06443 on 8 procs for 60 steps with 145 atoms

98.9% CPU use with 8 MPI tasks x no OpenMP threads

Minimization stats:
  Stopping criterion = energy tolerance
  Energy initial, next-to-last, final = 
        -26278.2642172     -26348.6742156     -26348.6743709
  Force two-norm initial, final = 505.051 42.0596
  Force max component initial, final = 245.406 20.8806
  Final line search alpha, max atom move = 1.38713e-05 0.000289642
  Iterations, force evaluations = 60 427

MPI task timing breakdown:
Section |  min time  |  avg time  |  max time  |%varavg| %total
---------------------------------------------------------------
Pair    | 1.0371     | 1.2362     | 1.8375     |  29.7 | 40.34
Neigh   | 0          | 0          | 0          |   0.0 |  0.00
Comm    | 0.021684   | 0.41912    | 0.81963    |  58.7 | 13.68
Output  | 0.0011782  | 0.0013138  | 0.0015496  |   0.3 |  0.04
Modify  | 1.1923     | 1.1929     | 1.1934     |   0.0 | 38.93
Other   |            | 0.2149     |            |       |  7.01

Nlocal:    18.125 ave 72 max 0 min
Histogram: 6 0 0 0 0 0 0 0 0 2
Nghost:    310.375 ave 319 max 306 min
Histogram: 1 4 0 1 0 0 0 1 0 1
Neighs:    599.75 ave 2386 max 0 min
Histogram: 6 0 0 0 0 0 0 0 0 2

Total # of neighbors = 4798
Ave neighs/atom = 33.0897
Neighbor list builds = 0
Dangerous builds = 0

###
min_style cg
minimize 1.0e-8 1.0e-8 100000 100000
WARNING: Using 'neigh_modify every 1 delay 0 check yes' setting during minimization (../min.cpp:190)
WARNING: Total cutoff < 2*bond cutoff. May need to use an increased neighbor list skin. (../pair_reaxc.cpp:413)
Per MPI rank memory allocation (min/avg/max) = 12.69 | 13.46 | 15.25 Mbytes
Step Temp E_pair E_mol TotEng Press 
      60            0   -26348.674            0   -26348.674    1606.1675 
      75            0   -26348.837            0   -26348.837    1837.3453 
Loop time of 0.847026 on 8 procs for 15 steps with 145 atoms

99.0% CPU use with 8 MPI tasks x no OpenMP threads

Minimization stats:
  Stopping criterion = energy tolerance
  Energy initial, next-to-last, final = 
        -26348.6743709     -26348.8367167     -26348.8367566
  Force two-norm initial, final = 42.0596 95.7268
  Force max component initial, final = 20.8806 43.5943
  Final line search alpha, max atom move = 0.000179835 0.00783976
  Iterations, force evaluations = 15 122

MPI task timing breakdown:
Section |  min time  |  avg time  |  max time  |%varavg| %total
---------------------------------------------------------------
Pair    | 0.29748    | 0.35539    | 0.52484    |  15.8 | 41.96
Neigh   | 0          | 0          | 0          |   0.0 |  0.00
Comm    | 0.0063073  | 0.11839    | 0.23241    |  31.5 | 13.98
Output  | 0.00027293 | 0.00030157 | 0.00034697 |   0.0 |  0.04
Modify  | 0.3122     | 0.31237    | 0.3125     |   0.0 | 36.88
Other   |            | 0.06057    |            |       |  7.15

Nlocal:    18.125 ave 72 max 0 min
Histogram: 6 0 0 0 0 0 0 0 0 2
Nghost:    310.375 ave 319 max 305 min
Histogram: 1 0 4 1 0 0 0 0 1 1
Neighs:    601.5 ave 2364 max 0 min
Histogram: 6 0 0 0 0 0 0 0 0 2

Total # of neighbors = 4812
Ave neighs/atom = 33.1862
Neighbor list builds = 0
Dangerous builds = 0

###
fix 1 all box/relax aniso 0.0
min_style cg
minimize 1.0e-8 1.0e-8 100000 100000
WARNING: Using 'neigh_modify every 1 delay 0 check yes' setting during minimization (../min.cpp:190)
WARNING: Total cutoff < 2*bond cutoff. May need to use an increased neighbor list skin. (../pair_reaxc.cpp:413)
Per MPI rank memory allocation (min/avg/max) = 12.69 | 13.46 | 15.25 Mbytes
Step Temp E_pair E_mol TotEng Press Volume 
      75            0   -26348.837            0   -26348.837    1837.3453    10481.891 
     183            0   -26349.657            0   -26349.657   -24.776332    10496.563 
Loop time of 1.14275 on 8 procs for 108 steps with 145 atoms

98.9% CPU use with 8 MPI tasks x no OpenMP threads

Minimization stats:
  Stopping criterion = energy tolerance
  Energy initial, next-to-last, final = 
        -26348.8367566     -26349.6565611     -26349.6567022
  Force two-norm initial, final = 497.216 20.214
  Force max component initial, final = 311.195 7.92609
  Final line search alpha, max atom move = 1.03703e-05 8.21958e-05
  Iterations, force evaluations = 108 193

MPI task timing breakdown:
Section |  min time  |  avg time  |  max time  |%varavg| %total
---------------------------------------------------------------
Pair    | 0.45792    | 0.54991    | 0.81738    |  20.0 | 48.12
Neigh   | 0          | 0          | 0          |   0.0 |  0.00
Comm    | 0.0092379  | 0.18682    | 0.36592    |  39.5 | 16.35
Output  | 0.0025717  | 0.0028716  | 0.0033451  |   0.4 |  0.25
Modify  | 0.30054    | 0.30088    | 0.30112    |   0.0 | 26.33
Other   |            | 0.1023     |            |       |  8.95

Nlocal:    18.125 ave 72 max 0 min
Histogram: 6 0 0 0 0 0 0 0 0 2
Nghost:    310.375 ave 319 max 305 min
Histogram: 1 0 4 1 0 0 0 0 1 1
Neighs:    601.25 ave 2363 max 0 min
Histogram: 6 0 0 0 0 0 0 0 0 2

Total # of neighbors = 4810
Ave neighs/atom = 33.1724
Neighbor list builds = 0
Dangerous builds = 0

unfix 1
###
min_style cg
minimize 1.0e-8 1.0e-8 100000 100000
WARNING: Using 'neigh_modify every 1 delay 0 check yes' setting during minimization (../min.cpp:190)
WARNING: Total cutoff < 2*bond cutoff. May need to use an increased neighbor list skin. (../pair_reaxc.cpp:413)
Per MPI rank memory allocation (min/avg/max) = 12.69 | 13.46 | 15.25 Mbytes
Step Temp E_pair E_mol TotEng Press 
     183            0   -26349.657            0   -26349.657   -24.776332 
     186            0    -26349.66            0    -26349.66    31.734934 
Loop time of 0.237263 on 8 procs for 3 steps with 145 atoms

99.0% CPU use with 8 MPI tasks x no OpenMP threads

Minimization stats:
  Stopping criterion = energy tolerance
  Energy initial, next-to-last, final = 
        -26349.6567022     -26349.6597091     -26349.6597767
  Force two-norm initial, final = 18.8859 19.1825
  Force max component initial, final = 7.92609 6.75057
  Final line search alpha, max atom move = 0.000214673 0.00144916
  Iterations, force evaluations = 3 34

MPI task timing breakdown:
Section |  min time  |  avg time  |  max time  |%varavg| %total
---------------------------------------------------------------
Pair    | 0.083515   | 0.10011    | 0.14874    |   8.5 | 42.19
Neigh   | 0          | 0          | 0          |   0.0 |  0.00
Comm    | 0.0015909  | 0.033785   | 0.066416   |  17.0 | 14.24
Output  | 0          | 0          | 0          |   0.0 |  0.00
Modify  | 0.085809   | 0.085877   | 0.08593    |   0.0 | 36.19
Other   |            | 0.01749    |            |       |  7.37

Nlocal:    18.125 ave 72 max 0 min
Histogram: 6 0 0 0 0 0 0 0 0 2
Nghost:    310.375 ave 319 max 305 min
Histogram: 1 0 4 1 0 0 0 0 1 1
Neighs:    600.875 ave 2362 max 0 min
Histogram: 6 0 0 0 0 0 0 0 0 2

Total # of neighbors = 4807
Ave neighs/atom = 33.1517
Neighbor list builds = 0
Dangerous builds = 0

###
fix 1 all box/relax aniso 0.0
min_style cg
minimize 1.0e-8 1.0e-8 100000 100000
WARNING: Using 'neigh_modify every 1 delay 0 check yes' setting during minimization (../min.cpp:190)
WARNING: Total cutoff < 2*bond cutoff. May need to use an increased neighbor list skin. (../pair_reaxc.cpp:413)
Per MPI rank memory allocation (min/avg/max) = 12.69 | 13.46 | 15.25 Mbytes
Step Temp E_pair E_mol TotEng Press Volume 
     186            0    -26349.66            0    -26349.66    31.734934    10496.563 
     188            0   -26349.661            0   -26349.661    112.06432    10496.069 
Loop time of 0.0298177 on 8 procs for 2 steps with 145 atoms

98.9% CPU use with 8 MPI tasks x no OpenMP threads

Minimization stats:
  Stopping criterion = energy tolerance
  Energy initial, next-to-last, final = 
        -26349.6597767     -26349.6606172     -26349.6606219
  Force two-norm initial, final = 21.6735 37.3675
  Force max component initial, final = 9.39307 24.1622
  Final line search alpha, max atom move = 1.60382e-05 0.000387518
  Iterations, force evaluations = 2 4

MPI task timing breakdown:
Section |  min time  |  avg time  |  max time  |%varavg| %total
---------------------------------------------------------------
Pair    | 0.011552   | 0.013904   | 0.020878   |   3.2 | 46.63
Neigh   | 0          | 0          | 0          |   0.0 |  0.00
Comm    | 0.00024178 | 0.0048537  | 0.009508   |   6.3 | 16.28
Output  | 0          | 0          | 0          |   0.0 |  0.00
Modify  | 0.0080714  | 0.0080773  | 0.0080792  |   0.0 | 27.09
Other   |            | 0.002982   |            |       | 10.00

Nlocal:    18.125 ave 72 max 0 min
Histogram: 6 0 0 0 0 0 0 0 0 2
Nghost:    310.375 ave 319 max 305 min
Histogram: 1 0 4 1 0 0 0 0 1 1
Neighs:    600.875 ave 2362 max 0 min
Histogram: 6 0 0 0 0 0 0 0 0 2

Total # of neighbors = 4807
Ave neighs/atom = 33.1517
Neighbor list builds = 0
Dangerous builds = 0

unfix 1
###
min_style cg
minimize 1.0e-8 1.0e-8 100000 100000
WARNING: Using 'neigh_modify every 1 delay 0 check yes' setting during minimization (../min.cpp:190)
WARNING: Total cutoff < 2*bond cutoff. May need to use an increased neighbor list skin. (../pair_reaxc.cpp:413)
Per MPI rank memory allocation (min/avg/max) = 12.69 | 13.46 | 15.25 Mbytes
Step Temp E_pair E_mol TotEng Press 
     188            0   -26349.661            0   -26349.661    112.06432 
     192            0   -26349.664            0   -26349.664    105.49489 
Loop time of 0.366791 on 8 procs for 4 steps with 145 atoms

99.0% CPU use with 8 MPI tasks x no OpenMP threads

Minimization stats:
  Stopping criterion = energy tolerance
  Energy initial, next-to-last, final = 
        -26349.6606219     -26349.6637485     -26349.6638195
  Force two-norm initial, final = 17.5846 15.7949
  Force max component initial, final = 3.20119 3.11381
  Final line search alpha, max atom move = 4.31637e-05 0.000134403
  Iterations, force evaluations = 4 55

MPI task timing breakdown:
Section |  min time  |  avg time  |  max time  |%varavg| %total
---------------------------------------------------------------
Pair    | 0.13393    | 0.1609     | 0.23928    |  11.0 | 43.87
Neigh   | 0          | 0          | 0          |   0.0 |  0.00
Comm    | 0.0027252  | 0.054671   | 0.10635    |  21.6 | 14.91
Output  | 0.00025239 | 0.00026969 | 0.00030999 |   0.0 |  0.07
Modify  | 0.12294    | 0.12302    | 0.12309    |   0.0 | 33.54
Other   |            | 0.02793    |            |       |  7.62

Nlocal:    18.125 ave 72 max 0 min
Histogram: 6 0 0 0 0 0 0 0 0 2
Nghost:    310.375 ave 319 max 305 min
Histogram: 1 0 4 1 0 0 0 0 1 1
Neighs:    600.875 ave 2362 max 0 min
Histogram: 6 0 0 0 0 0 0 0 0 2

Total # of neighbors = 4807
Ave neighs/atom = 33.1517
Neighbor list builds = 0
Dangerous builds = 0

undump 1
#############
#----------- Thermo ------------
reset_timestep 0
thermo  200

thermo_style    custom step temp etotal ke pe press
velocity all create 300 12345 mom yes rot yes
fix 1 all npt temp 300 300 25.0 iso 0.0 0.0 250.0

variable vpe equal pe
variable vtemp equal temp
variable vstep equal step

fix output all print 2500 "${vstep} ${vtemp} ${vpe}" file temp-tpdh-Pt.dat screen no

dump 1 all custom 2500 thermo-tpdh-Pt.lammpstrj id type x y z

run 1000000
WARNING: Total cutoff < 2*bond cutoff. May need to use an increased neighbor list skin. (../pair_reaxc.cpp:413)
Per MPI rank memory allocation (min/avg/max) = 11.56 | 12.34 | 14.12 Mbytes
Step Temp TotEng KinEng PotEng Press 
       0          300   -26220.893    128.77099   -26349.664    666.31584 
     200    219.39252   -26176.226    94.171308   -26270.397    2971.3081 
     400    288.10918   -26111.662    123.66702   -26235.329    5748.7158 
     600    316.17741   -26071.733    135.71493   -26207.448    1700.6822 
     800    274.98787   -26100.691    118.03487   -26218.726    1643.5058 
    1000    305.69317   -26086.777    131.21471   -26217.991   -1240.1372 
    1200    301.15454   -26075.117    129.26656   -26204.383    932.37821 
    1400    347.44101   -26056.252    149.13441   -26205.386    6529.2498 
    1600    289.55127   -26092.551    124.28601   -26216.837    274.33976 
    1800    293.59458   -26102.701    126.02156   -26228.723    4373.1964 
    2000    316.17244   -26074.405     135.7128   -26210.118    6517.0875 
    2200    309.27027   -26100.104    132.75013   -26232.854     5726.408 
    2400    298.63484   -26097.126    128.18502   -26225.311   -551.04469 
    2600    274.40112   -26118.304    117.78302   -26236.087   -1121.8183 
    2800    323.04206   -26095.072    138.66149   -26233.733    5050.8853 
    3000    294.56297   -26094.788    126.43722   -26221.225    3634.6688 
    3200    325.12159   -26072.603     139.5541   -26212.157   -4293.6132 
    3400    278.67967   -26106.548    119.61953   -26226.167   -26.061053 
    3600    314.20518    -26097.33    134.86838   -26232.198   -242.65155 
    3800    304.79624   -26074.244    130.82972   -26205.074    694.82903 
    4000    293.31229   -26106.999    125.90039   -26232.899   -3253.8398 
    4200       315.57   -26085.675    135.45421   -26221.129   -3343.7335 
    4400    308.98881   -26092.119    132.62932   -26224.748     -2755.83 
    4600    259.05584   -26120.661    111.19626   -26231.857    1521.1859 
    4800    269.08772   -26100.525    115.50231   -26216.028    1374.2072 
    5000    321.62842   -26081.916     138.0547   -26219.971   -589.28636 
    5200    303.19515   -26102.764    130.14247   -26232.906    4588.0706 
    5400    311.93744   -26106.326    133.89498   -26240.221    2497.8287 
    5600    307.89914   -26097.165     132.1616   -26229.327    -1764.211 
    5800    294.17805   -26105.354      126.272   -26231.626   -1856.7838 
    6000    292.60727   -26097.233    125.59776    -26222.83    4238.9958 
    6200    276.65345   -26106.096     118.7498   -26224.845    4999.3051 
    6400    326.12012   -26074.707    139.98271    -26214.69    5668.0596 
    6600     298.8186   -26090.984    128.26389   -26219.248   -2667.6083 
    6800    291.86338   -26096.469    125.27846   -26221.747   -3637.3344 
    7000    346.87006   -26060.744    148.88934   -26209.634   -4690.6818 
    7200    305.81282   -26090.731    131.26607   -26221.997    3553.2143 
    7400    283.27991   -26104.857    121.59412   -26226.451   -666.76264 
    7600    324.04745   -26090.144    139.09304   -26229.237     3424.779 
    7800    287.66745   -26102.539    123.47741   -26226.016    1769.2289 
    8000    281.52038   -26109.214    120.83886   -26230.053   -1398.3026 
    8200    301.65672   -26088.134    129.48212   -26217.616   -3519.6108 
    8400    296.14792   -26095.414    127.11754   -26222.532   -8499.7563 
    8600    327.01067   -26084.665    140.36497    -26225.03   -3715.3823 
    8800    281.57613   -26072.693    120.86279   -26193.556    242.66726 
    9000    294.61019    -26106.55    126.45749   -26233.008    2656.8516 
    9200    305.68637   -26095.696    131.21179   -26226.908    4833.4682 
    9400     320.8811   -26079.287    137.73393    -26217.02    2896.7161 
    9600    271.77243   -26112.743    116.65469   -26229.398    66.522051 
    9800    271.80422   -26091.376    116.66833   -26208.045   -1287.5972 
   10000    316.23169   -26080.332    135.73823   -26216.071   -4689.3731 
   10200    289.90198   -26098.731    124.43655   -26223.167   -5037.1113 
   10400    298.38097   -26075.576    128.07605   -26203.652   -2456.9643 
   10600    303.47925   -26095.685    130.26441   -26225.949   -1938.0899 
   10800    275.45938   -26104.976    118.23726   -26223.213   -4991.1466 
   11000    339.28929   -26081.932     145.6354   -26227.568   -6564.8679 
   11200    271.71446   -26115.406     116.6298   -26232.036   -5462.0931 
   11400    320.61021   -26097.996    137.61765   -26235.614   -2469.2411 
   11600    309.36016   -26076.724    132.78872   -26209.512    3023.9192 
   11800    326.93606    -26067.59    140.33294   -26207.923    -2230.022 
   12000    301.15648   -26090.421     129.2674   -26219.688   -549.73873 
   12200    260.95359   -26106.096    112.01084   -26218.107    1736.7986 
   12400    291.19659   -26084.824    124.99225   -26209.816   -6094.0419 
   12600    298.38778   -26097.398    128.07897   -26225.477   -2590.2902 
   12800     273.1818   -26115.954    117.25964   -26233.214   -5011.6504 
   13000    306.86101   -26083.776    131.71599   -26215.492    2306.5841 
   13200    291.97548   -26097.126    125.32657   -26222.452   -2245.4194 
   13400     293.8208   -26109.504    126.11865   -26235.623   -4021.9727 
   13600    316.37267   -26071.866    135.79874   -26207.665   -405.65662 
   13800    303.05413   -26094.632    130.08194   -26224.714   -1489.1752 
   14000    287.68385   -26098.631    123.48445   -26222.116    1120.9223 
   14200    293.52565   -26083.207    125.99197   -26209.199   -734.48636 
   14400    286.45085   -26095.092     122.9552   -26218.048   -3562.1277 
   14600    270.32271   -26101.515    116.03241   -26217.548   -1130.1934 
   14800    314.78292   -26071.031    135.11637   -26206.147   -130.86975 
   15000    276.14832   -26096.034    118.53298   -26214.567   -1319.2572 
   15200    296.66458   -26092.545    127.33931   -26219.885   -492.43846 
   15400    311.62438   -26082.345     133.7606   -26216.106    2201.0917 
   15600    324.90983   -26084.936    139.46321     -26224.4    7.7051454 
   15800    306.33531   -26092.659    131.49034    -26224.15     3932.236 
   16000    308.92166   -26098.742     132.6005   -26231.342    977.83854 
   16200    316.72798   -26078.111    135.95126   -26214.062    887.57305 
   16400    288.33427   -26103.261    123.76363   -26227.025    -1860.864 
   16600    290.56175   -26098.674    124.71975   -26223.393    4296.1073 
   16800    304.42969   -26081.813    130.67238   -26212.486    2292.3724 
   17000    254.60061   -26114.376    109.28391    -26223.66   -743.26771 
   17200    297.47816    -26089.72    127.68853   -26217.409   -1825.9988 
   17400    292.25115   -26094.834     125.4449   -26220.279   -3426.9893 
   17600    288.23873   -26113.495    123.72263   -26237.217   -6121.8282 
   17800    318.48828   -26089.967    136.70684   -26226.674   -1286.0917 
   18000    321.22119   -26075.812     137.8799   -26213.691   -463.21491 
   18200    312.64372   -26106.727    134.19814   -26240.926    -96.32192 
   18400    298.93808   -26097.653    128.31518   -26225.968   -2264.2422 
   18600     283.4136    -26094.82     121.6515   -26216.472   -4219.3852 
   18800    260.60633   -26111.475    111.86179   -26223.337    1470.3993 
   19000    303.38949   -26085.709    130.22589   -26215.934   -802.45842 
   19200    288.84747   -26100.007    123.98392   -26223.991   -3297.4932 
   19400    323.57193   -26096.142    138.88893   -26235.031   -665.77165 
   19600    254.31589   -26100.223     109.1617   -26209.384     7096.749 
   19800    339.10241   -26076.381    145.55518   -26221.936    1362.3427 
   20000    309.88635   -26091.601    133.01458   -26224.616   -2931.2236 
   20200    280.60407   -26103.127    120.44555   -26223.573   -3206.0274 
   20400    320.89518   -26079.642    137.73997   -26217.382    1138.3638 
   20600    271.27247   -26092.199    116.44009   -26208.639   -695.21129 
   20800    243.66101   -26118.547    104.58823   -26223.135   -3163.0022 
   21000    285.67982   -26093.759    122.62425   -26216.383    504.67119 
   21200    310.00799   -26085.737    133.06679   -26218.804    369.17788 
   21400    318.94655   -26110.137    136.90355    -26247.04   -1217.4931 
   21600    283.05508    -26099.87    121.49761   -26221.368    -1958.272 
   21800    335.04659   -26089.935    143.81428   -26233.749    2867.6287 
   22000    277.50166   -26103.009    119.11388   -26222.122    215.11962 
   22200    304.55956   -26098.402    130.72812    -26229.13   -2065.1038 
   22400    311.45549   -26082.907    133.68811   -26216.595   -2641.6753 
   22600    324.99879   -26070.737    139.50139   -26210.238   -9955.4998 
   22800    316.16671   -26089.768    135.71034   -26225.479   -5186.5432 
   23000    296.10388   -26106.757    127.09864   -26233.856    2819.0209 
   23200    322.81682   -26074.411    138.56481   -26212.976    2769.1262 
   23400    299.16814   -26089.238    128.41393   -26217.652    2365.1074 
   23600    274.47941   -26102.987    117.81662   -26220.803   -767.17291 
   23800    302.74798   -26086.947    129.95053   -26216.897   -1556.1861 
   24000    282.26283   -26092.535    121.15755   -26213.693    1939.9825 
   24200    269.73427   -26113.583    115.77983   -26229.362   -1309.4713 
   24400    333.68056    -26086.49    143.22793   -26229.718    6644.3396 
   24600    298.76736   -26089.307     128.2419   -26217.549    4239.9779 
   24800    269.52614   -26116.046     115.6905   -26231.736    3787.4642 
   25000    298.03678    -26094.85    127.92831   -26222.778    1899.9735 
   25200    307.36167   -26100.553    131.93089   -26232.484   -652.11785 
   25400    292.33822   -26100.876    125.48228   -26226.358    6675.3513 
   25600    300.90775   -26084.503    129.16063   -26213.663    1742.7069 
   25800    252.01687    -26108.53    108.17488   -26216.704    4213.0656 
   26000    309.94149    -26077.07    133.03824   -26210.108     3883.341 
   26200    288.41073   -26088.985    123.79645   -26212.781   -4850.4673 
   26400    271.85094   -26120.103    116.68839   -26236.792   -940.81264 
   26600    290.64123   -26098.919    124.75387   -26223.673    781.09184 
   26800    288.35461    -26091.94    123.77237   -26215.713    2896.3178 
   27000    284.43461   -26113.193    122.08976   -26235.283    1377.7587 
   27200     294.3062   -26106.263    126.32701    -26232.59    1864.7716 
   27400    336.55924    -26088.64    144.46356   -26233.103     -1871.68 
   27600    275.19164    -26111.26    118.12234   -26229.383   -1308.3739 
   27800    308.66812   -26085.715    132.49167   -26218.207    6795.5833 
   28000    306.00784   -26101.971    131.34978   -26233.321    3732.2247 
   28200    286.92863   -26102.089    123.16028   -26225.249   -607.04919 
   28400     298.3786   -26085.826    128.07503   -26213.901   -5759.3205 
   28600    295.31606   -26101.412    126.76048   -26228.172    -2072.577 
   28800     282.2383   -26107.078    121.14702   -26228.225    1078.8852 
   29000    287.57002   -26086.813    123.43559   -26210.249    2516.6451 
   29200    284.57642   -26090.938    122.15063   -26213.088   -1185.8613 
   29400    271.46876   -26106.722    116.52434   -26223.246   -934.70351 
   29600    253.97874   -26115.417    109.01698   -26224.434    934.52637 
   29800    317.66783   -26080.943    136.35467   -26217.298    962.81439 
   30000    299.10719   -26087.395    128.38777   -26215.783     689.9668 
   30200    318.47624   -26103.846    136.70167   -26240.548   -5540.2317 
   30400    300.73392   -26105.207    129.08602   -26234.293   -1608.3793 
   30600    320.61119   -26079.116    137.61807   -26216.734   -443.83312 
   30800    295.93839   -26110.146     127.0276   -26237.174    2651.6683 
   31000    273.58214   -26093.789    117.43148    -26211.22    1065.9701 
   31200    298.89607   -26086.635    128.29715   -26214.932    -1279.566 
   31400    314.11659   -26083.394    134.83035   -26218.224   -683.45885 
   31600    308.34897   -26076.562    132.35468   -26208.917   -876.49563 
   31800    302.66846   -26100.244    129.91639   -26230.161    1772.2599 
   32000    330.43979   -26086.452    141.83687   -26228.289     3600.342 
   32200    323.67788   -26073.976    138.93441    -26212.91   -2368.8706 
   32400    302.00487   -26099.384    129.63156   -26229.016   -919.79335 
   32600    309.71679   -26090.755     132.9418   -26223.697   -1888.6398 
   32800    322.96772   -26073.857    138.62958   -26212.487     2839.654 
   33000    287.94741   -26104.993    123.59758   -26228.591    1497.5648 
   33200    271.28644   -26099.896    116.44608   -26216.343   -1607.3685 
   33400    323.86935    -26088.23    139.01659   -26227.246   -1239.1806 
   33600    294.17297   -26089.324    126.26982   -26215.594    5054.8092 
   33800    284.76083   -26115.877    122.22978   -26238.107    6287.0667 
   34000     322.9107   -26089.584    138.60511   -26228.189    3260.2787 
   34200    310.60237   -26104.921    133.32192   -26238.243    1769.6883 
   34400    282.15945   -26101.133    121.11317   -26222.246   -588.73408 
   34600     318.5264   -26082.438     136.7232   -26219.161    2210.2878 
   34800    300.78565   -26101.763    129.10823   -26230.871   -1288.8728 
   35000    339.02228   -26084.599    145.52079    -26230.12   -5443.8838 
   35200    333.53815   -26051.211     143.1668   -26194.378    2485.8656 
   35400    323.24364   -26081.644    138.74802   -26220.392   -368.77837 
   35600    283.25248   -26098.329    121.58234   -26219.912    996.70332 
   35800    325.43592   -26077.502    139.68902   -26217.191   -359.80285 
   36000    344.43678   -26081.319    147.84489   -26229.164    6090.2528 
   36200    284.75848   -26102.959    122.22878   -26225.188    6697.3075 
   36400    318.42827   -26088.629    136.68108    -26225.31    28.593864 
   36600    279.58503   -26117.484    120.00814   -26237.492   -5810.7435 
   36800    295.63548   -26093.692    126.89758    -26220.59   -972.47161 
   37000    323.30578    -26085.14    138.77469   -26223.914   -5432.4911 
   37200    264.89988   -26116.861    113.70474   -26230.566   -2604.4231 
   37400    300.81079   -26100.705    129.11902   -26229.824   -1746.4171 
   37600    292.64859   -26092.276     125.6155   -26217.891    2139.0663 
   37800    293.94545   -26090.632    126.17216   -26216.804    5030.4611 
   38000    297.68261   -26091.582    127.77629   -26219.358   -3211.2571 
   38200    285.02834   -26108.769    122.34461   -26231.114   -3351.7947 
   38400    286.06361    -26096.48    122.78899   -26219.269    265.07317 
   38600    299.28541   -26086.906    128.46427    -26215.37   -2522.2627 
   38800    277.98621   -26102.424    119.32187   -26221.745    247.73533 
   39000    294.78614   -26121.224    126.53301   -26247.757   -334.53166 
   39200    290.48119   -26090.692    124.68517   -26215.377   -3765.7075 
   39400    292.58084   -26080.915    125.58642   -26206.502    -4853.447 
   39600    283.95302    -26085.54    121.88304   -26207.423    250.15375 
   39800    289.67071   -26104.851    124.33728   -26229.188   -2152.1577 
   40000    252.37904   -26114.547    108.33033   -26222.878   -3338.2963 
   40200    302.53283   -26090.105    129.85818   -26219.964   -813.20661 
   40400    305.36992   -26092.258    131.07596   -26223.334     3763.114 
   40600     245.6409   -26118.439    105.43808   -26223.877   -1018.8996 
   40800    289.18101   -26091.818    124.12709   -26215.945    1461.7289 
   41000    276.44245   -26091.654    118.65923   -26210.314    1508.1971 
   41200    339.41123   -26070.158    145.68774   -26215.845    3380.6322 
   41400    304.10985   -26088.713    130.53509   -26219.248   -2618.9565 
   41600    272.50702    -26100.31       116.97    -26217.28   -2336.9835 
   41800    302.18501   -26080.003    129.70888   -26209.711   -1904.1446 
   42000    281.00453   -26110.548    120.61744   -26231.166    973.79823 
   42200    307.13712   -26089.635    131.83451   -26221.469   -655.30508 
   42400    331.89695   -26075.983    142.46233   -26218.445   -6524.8548 
   42600    266.28936   -26111.965    114.30115   -26226.266   -382.98072 
   42800    294.93908   -26092.122    126.59866   -26218.721   -795.14679 
   43000    274.61469   -26087.595    117.87469    -26205.47   -4027.0767 
   43200    282.65682   -26088.365    121.32666   -26209.692   -6852.2109 
   43400    243.45525   -26107.545    104.49992   -26212.045    1025.9388 
   43600    312.57135   -26082.026    134.16708   -26216.193    3485.4036 
   43800    310.99996   -26081.745    133.49258   -26215.238    2303.3207 
   44000    283.65992   -26111.019    121.75723   -26232.776    519.21888 
   44200    290.54745   -26090.335    124.71361   -26215.049   -1084.4441 
   44400    302.21008    -26088.92    129.71964    -26218.64    2106.6735 
   44600     274.5639   -26112.208    117.85289   -26230.061   -2041.1437 
   44800    288.08039   -26096.011    123.65466   -26219.666   -1573.4841 
   45000    279.07032   -26091.104    119.78721   -26210.891    410.44711 
   45200    257.13998   -26115.912     110.3739   -26226.286   -3248.8176 
   45400    307.49632   -26096.611    131.98869     -26228.6    -3598.884 
   45600    300.89705   -26090.877    129.15604   -26220.033   -4665.6358 
   45800    279.98272   -26103.763    120.17884   -26223.942   -1218.3292 
   46000    306.47993   -26072.201    131.55242   -26203.754    407.47377 
   46200    269.53347   -26097.997    115.69364   -26213.691   -63.695095 
   46400    293.48499   -26100.348    125.97451   -26226.323   -1334.7674 
   46600     298.0782   -26099.136    127.94609   -26227.083    52.253754 
   46800    334.54937   -26077.063    143.60085   -26220.664    5176.1409 
   47000    295.75519    -26105.66    126.94897   -26232.609    2444.8311 
   47200    289.87852   -26099.636    124.42648   -26224.063    -278.6994 
   47400    269.10698    -26085.92    115.51058    -26201.43   -1551.0321 
   47600    307.38018   -26074.616    131.93884   -26206.555    667.82832 
   47800    287.24034   -26099.104    123.29408   -26222.398   -1531.0449 
   48000    291.70199   -26106.861    125.20919    -26232.07    482.14953 
   48200    317.61516   -26086.203    136.33207   -26222.535   -817.33629 
   48400    311.50926   -26093.695    133.71119   -26227.406   -643.68226 
   48600    342.18239   -26064.677    146.87722   -26211.554    5995.0857 
   48800    279.78106   -26092.185    120.09228   -26212.277    7945.3775 
   49000    293.86755   -26104.059    126.13872   -26230.198    3302.9274 
   49200    367.15571    -26074.91    157.59669   -26232.507   -2203.2828 
   49400    293.99642   -26089.583    126.19404   -26215.777    658.40785 
   49600    277.30174   -26103.048    119.02807   -26222.076   -661.06464 
   49800    312.88923   -26087.996    134.30352     -26222.3   -2208.7392 
   50000    273.21333   -26113.445    117.27317   -26230.718    1325.2351 
   50200    294.06741   -26099.997    126.22451   -26226.221    1640.0747 
   50400     302.6366   -26086.166    129.90272   -26216.069    1472.0613 
   50600    278.88558   -26114.699    119.70791   -26234.407    1863.5406 
   50800    276.80398   -26109.863    118.81441   -26228.678    1980.7158 
   51000    275.15168   -26097.051    118.10519   -26215.156    1988.5639 
   51200    318.03626   -26079.944    136.51282   -26216.457    3129.2572 
   51400    318.46353   -26082.937    136.69622   -26219.633    2624.5235 
   51600    274.06261   -26107.609    117.63772   -26225.247    5878.5819 
   51800    337.10969   -26081.938    144.69983   -26226.638     73.66835 
   52000    302.45789   -26090.317    129.82601   -26220.143   -1522.0461 
   52200    318.18005    -26091.16    136.57454   -26227.734    430.22045 
   52400    263.52263   -26119.668    113.11357   -26232.782    2033.1534 
   52600    290.44009   -26093.372    124.66753   -26218.039    1064.9175 
   52800    324.58655   -26082.258    139.32444   -26221.583    909.75184 
   53000    303.02688   -26086.544    130.07024   -26216.614    2698.2757 
   53200    282.78209   -26095.805    121.38044   -26217.185    22.802782 
   53400    289.70046   -26106.735    124.35005   -26231.085   -294.67733 
   53600    314.45223   -26081.889    134.97442   -26216.863   -1390.5989 
   53800    289.94363   -26097.054    124.45443   -26221.508    2477.3949 
   54000    293.46592   -26109.718    125.96633   -26235.685   -1012.7794 
   54200    312.75377   -26084.522    134.24538   -26218.767   -1881.0669 
   54400      359.458   -26048.949    154.29255   -26203.241   -1184.3338 
   54600     313.3866   -26089.895    134.51701   -26224.412   -2348.6711 
   54800    262.98439   -26103.192    112.88254   -26216.074   -1120.5773 
   55000    300.82377   -26087.829    129.12459   -26216.954    826.31694 
   55200    279.73965   -26097.014    120.07451   -26217.088    705.04705 
   55400    280.68358   -26112.141    120.47968    -26232.62    893.41813 
   55600    268.84949    -26103.58    115.40005    -26218.98    -3990.826 
   55800    307.85929   -26085.672    132.14449   -26217.816    4512.5876 
   56000    315.76262    -26087.03    135.53689   -26222.567   -707.32074 
   56200    326.92924   -26095.864    140.33001   -26236.194   -2694.0241 
   56400    268.86302   -26107.075    115.40586   -26222.481    5806.6535 
   56600    291.71462   -26077.017    125.21461   -26202.232   -145.83327 
   56800    301.95811   -26095.063    129.61148   -26224.675     1880.901 
   57000    279.80329   -26100.053    120.10183   -26220.154     322.3408 
   57200    306.11221   -26067.758    131.39458   -26199.152   -794.53407 
   57400    304.10088   -26079.459    130.53124    -26209.99   -6857.1519 
   57600    281.35226   -26098.001     120.7667   -26218.768   -279.09717 
   57800     288.7089   -26094.995    123.92444   -26218.919    -1665.969 
   58000    296.33953   -26096.418    127.19979   -26223.618   -1870.1888 
   58200     294.6544   -26116.094    126.47647    -26242.57   -2614.3615 
   58400    291.95331   -26084.677    125.31706   -26209.994   -990.16193 
   58600    304.42851   -26088.217    130.67187   -26218.889    1859.9458 
   58800    294.02274   -26093.554    126.20534   -26219.759   -310.44828 
   59000    354.35516    -26070.07    152.10222   -26222.172   -567.45381 
   59200    277.35959   -26098.031     119.0529   -26217.083   -1940.2025 
   59400    307.04462   -26099.891     131.7948   -26231.686   -447.18471 
   59600    305.94563   -26101.207    131.32308    -26232.53    3017.6313 
   59800    311.46955   -26082.881    133.69414   -26216.576   -314.87632 
   60000    274.33876   -26107.624    117.75625    -26225.38    4286.8193 
   60200    280.59155   -26097.367    120.44018   -26217.807    1520.4534 
   60400     299.1812   -26089.319    128.41953   -26217.738   -753.31726 
   60600    276.34961   -26103.967    118.61938   -26222.586   -240.60692 
   60800    275.89579   -26119.242    118.42458   -26237.667   -117.21083 
   61000    330.73116   -26085.546    141.96194   -26227.508   -1343.5009 
   61200    300.44386   -26106.661    128.96152   -26235.622   -4996.8885 
   61400    305.60747   -26101.549    131.17793   -26232.727    31.764358 
   61600    319.35337   -26091.398    137.07817   -26228.476   -4668.4226 
   61800    335.06535   -26073.287    143.82233   -26217.109   -399.58447 
   62000    276.66078   -26108.498    118.75295   -26227.251    928.74328 
   62200     311.9268   -26085.285    133.89041   -26219.175    2145.0649 
   62400     305.6017   -26089.953    131.17545   -26221.129    2536.5956 
   62600    287.09146   -26108.358    123.23018   -26231.588    5034.5325 
   62800    309.27278   -26082.042    132.75121   -26214.794    680.03368 
   63000    290.86722   -26091.705    124.85087   -26216.556    -2068.723 
   63200    288.08046   -26101.049    123.65469   -26224.704    933.36378 
   63400    271.70043   -26120.884    116.62378   -26237.508    3439.1709 
   63600    276.08142   -26091.679    118.50426   -26210.183     -36.1445 
   63800    279.66802   -26091.775    120.04376   -26211.819     -2473.43 
   64000     312.4488   -26073.389    134.11448   -26207.503    5407.0453 
   64200    240.13335   -26105.049    103.07403   -26208.123    3117.5879 
   64400    275.84167   -26090.924    118.40135   -26209.325    1435.2797 
   64600    319.63866   -26071.704    137.20063   -26208.904    180.88641 
   64800    270.50491   -26108.495    116.11062   -26224.605   -219.91427 
   65000    325.09077   -26080.308    139.54087   -26219.849   -122.24893 
   65200    288.15606   -26094.926    123.68714   -26218.613    0.5141222 
   65400    262.14399   -26100.408    112.52181    -26212.93    506.83415 
   65600    287.50485   -26070.211    123.40762   -26193.619   -3052.4995 
   65800    288.73029   -26098.301    123.93362   -26222.234    204.96241 
   66000    320.81087   -26094.852    137.70378   -26232.556   -720.66193 
   66200    293.05735   -26099.289    125.79096    -26225.08    1059.0285 
   66400    343.68381   -26092.075    147.52169   -26239.597   -466.55167 
   66600     292.1285   -26108.096    125.39226   -26233.488    1356.4052 
   66800    302.73234   -26107.628    129.94381   -26237.571    1276.0085 
   67000    339.82175   -26082.091    145.86395   -26227.955    636.48194 
   67200    292.29407   -26105.355    125.46333   -26230.818    6561.2158 
   67400    342.51289   -26073.014    147.01908   -26220.033    4510.2532 
   67600    288.15113   -26082.408    123.68503   -26206.093    2508.1785 
   67800    302.59446    -26101.01    129.88463   -26230.895   -390.40338 
   68000    309.05558     -26072.7    132.65798   -26205.358    1366.0683 
   68200    307.10796   -26074.307    131.82199   -26206.129    1423.1967 
   68400    312.26881   -26100.169    134.03722   -26234.206    1985.4098 
   68600     291.7177   -26092.128    125.21593   -26217.344    5655.6687 
   68800    310.71066   -26063.258     133.3684   -26196.627    2007.0158 
   69000    309.56578   -26086.257    132.87698   -26219.134    3687.3511 
   69200     309.5389   -26095.556    132.86544   -26228.421    1375.4084 
   69400    298.75318   -26121.371    128.23582   -26249.607    -2184.602 
   69600    295.31611   -26092.077     126.7605   -26218.837   -3747.1757 
   69800    314.91635    -26085.26    135.17364   -26220.434     592.8248 
   70000    289.51805   -26115.561    124.27176   -26239.832   -1277.1052 
   70200    305.58474   -26102.768    131.16817   -26233.936   -2032.3472 
   70400    280.34514   -26095.073    120.33441   -26215.408   -2045.0846 
   70600    294.32761   -26105.992     126.3362   -26232.328    1900.6364 
   70800    269.88314   -26105.328    115.84374   -26221.172   -3614.5441 
   71000    312.42065    -26080.86    134.10239   -26214.963   -1531.0507 
   71200    268.38389   -26108.373     115.2002   -26223.573   -1623.5876 
   71400    267.49244   -26107.244    114.81756   -26222.062   -4597.2682 
   71600    311.74293   -26090.385    133.81149   -26224.196    3844.6794 
   71800    268.14186   -26103.015    115.09631   -26218.111    476.77466 
   72000    265.21303   -26117.401    113.83915    -26231.24   -1437.8717 
   72200    323.03297   -26088.269    138.65759   -26226.927   -3708.1287 
   72400    302.13971   -26104.849    129.68944   -26234.538    1562.4231 
   72600    293.95206   -26094.094      126.175   -26220.269    889.81143 
   72800    336.01386   -26078.084    144.22946   -26222.314    2513.2007 
   73000    277.33719   -26103.803    119.04328   -26222.846    4051.3482 
   73200    291.31062   -26096.075    125.04119   -26221.117    -674.9692 
   73400    339.86217   -26066.399     145.8813    -26212.28    9628.9231 
   73600    295.68874   -26096.684    126.92044   -26223.604    5059.6939 
   73800    281.02197   -26092.962    120.62493   -26213.587   -3477.6033 
   74000    300.06162   -26065.778    128.79744   -26194.575   -7267.4534 
   74200    284.28625   -26100.293    122.02608   -26222.319   -2937.5886 
   74400    281.24732   -26098.147    120.72165   -26218.868    9.1682566 
   74600    308.48649   -26077.764     132.4137   -26210.178    584.75519 
   74800    251.09772    -26109.67    107.78034    -26217.45    2774.2186 
   75000    306.75954   -26094.939    131.67244   -26226.611    421.73785 
   75200    340.75746   -26074.515    146.26559    -26220.78    1436.0259 
   75400    275.50481   -26108.548    118.25676   -26226.805   -2498.2185 
   75600    304.36283   -26085.041    130.64368   -26215.685   -3195.6554 
   75800    274.96144   -26107.458    118.02353   -26225.482    -592.8534 
   76000    305.30902   -26124.712    131.04982   -26255.762    1755.0363 
   76200    300.26552   -26090.125    128.88497    -26219.01   -4828.9292 
   76400    303.70033   -26081.632    130.35931   -26211.992   -7287.8087 
   76600    267.00383   -26112.416    114.60783   -26227.024    1309.1183 
   76800    273.60868   -26097.022    117.44287   -26214.465    2974.4344 
   77000    301.64203     -26086.4    129.47581   -26215.875   -733.51841 
   77200    297.61506   -26104.988    127.74729   -26232.735   -3787.4236 
   77400    297.51653   -26113.211      127.705   -26240.916   -2060.5809 
   77600    318.01952   -26084.197    136.50563   -26220.702   -6884.3072 
   77800    285.53535     -26110.7    122.56224   -26233.262    -453.5113 
   78000    325.38002   -26090.726    139.66503   -26230.391   -4551.4627 
   78200    284.54628   -26091.051    122.13769   -26213.189    3586.3552 
   78400    294.72397   -26089.548    126.50633   -26216.055    2302.1536 
   78600    326.49315   -26079.549    140.14282   -26219.692    2117.9469 
   78800    272.08392   -26101.575    116.78839   -26218.363   -3184.5487 
   79000    320.42203   -26100.654    137.53688   -26238.191    -2225.475 
   79200    317.25479   -26081.331    136.17738   -26217.508    1101.7822 
   79400    273.45143   -26107.831    117.37538   -26225.206   -2414.5997 
   79600     279.7528   -26107.345    120.08016   -26227.426    3266.4723 
   79800    286.53189   -26084.171    122.98999   -26207.161    541.40423 
   80000    289.17218   -26102.568     124.1233   -26226.691   -4582.2504 
   80200    314.08508   -26083.712    134.81683   -26218.529   -4439.1203 
   80400    302.55957   -26084.062    129.86965   -26213.932    -2295.347 
   80600    286.99895   -26108.408    123.19047   -26231.598   -2265.8401 
   80800     300.3951    -26089.64    128.94058   -26218.581   -4380.3266 
   81000    303.72224   -26084.278    130.36872   -26214.647    -4488.222 
   81200    257.43133   -26115.133    110.49896   -26225.632     750.4712 
   81400    299.70259   -26085.401    128.64333   -26214.044    1753.8683 
   81600     327.8701   -26092.453    140.73386   -26233.187   -2214.9381 
   81800    300.80545     -26108.2    129.11672   -26237.317    59.490972 
   82000    339.81968   -26087.406    145.86306   -26233.269   -2174.1234 
   82200    270.94223   -26087.709    116.29833   -26204.007   -4438.9066 
   82400    263.31321   -26115.741    113.02368   -26228.765   -3227.8833 
   82600    310.24931    -26088.58    133.17038    -26221.75    2913.3864 
   82800    283.26965   -26102.039    121.58971   -26223.629   -855.43897 
   83000    293.88454   -26121.928    126.14601   -26248.074    -7499.596 
   83200     276.7028    -26090.37    118.77098   -26209.141    2228.8816 
   83400    294.58211   -26089.958    126.44544   -26216.403   -3255.7417 
   83600     333.4683   -26073.733    143.13681    -26216.87   -2557.8212 
   83800    272.62505   -26101.339    117.02066    -26218.36    1231.8844 
   84000    325.11385   -26088.646    139.55078   -26228.197   -5682.2843 
   84200    251.92085   -26121.882    108.13366   -26230.016   -3034.9842 
   84400     282.4147   -26099.652    121.22274   -26220.875   -2480.3275 
   84600    298.04177   -26096.919    127.93045   -26224.849    50.664328 
   84800     262.6408   -26115.132    112.73505   -26227.867   -571.22171 
   85000    302.68575   -26084.564    129.92382   -26214.488   -2658.0287 
   85200    277.63468   -26095.419    119.17098    -26214.59    1372.1259 
   85400    288.69389   -26103.484      123.918   -26227.402   -1438.4774 
   85600    316.87806   -26083.105    136.01568   -26219.121     403.0177 
   85800     322.2436   -26093.139    138.31876   -26231.458   -154.22806 
   86000    302.79661   -26107.319     129.9714   -26237.291    868.60678 
   86200    320.12709   -26077.803    137.41028   -26215.213    -1520.525 
   86400    283.72632   -26086.271    121.78573   -26208.056    2436.1415 
   86600    276.31584   -26110.038    118.60489   -26228.643    -1688.734 
   86800    324.21452   -26079.046    139.16475   -26218.211    -2082.748 
   87000    304.93717   -26092.507    130.89021   -26223.397    -5999.736 
   87200    279.02047   -26105.672    119.76581   -26225.438    -1612.872 
   87400    327.90492    -26073.54    140.74881   -26214.289     1839.381 
   87600    288.47228   -26094.172    123.82288   -26217.995    442.19577 
   87800    308.85941   -26094.111    132.57378   -26226.685   -2210.7883 
   88000    321.77665   -26083.488    138.11833   -26221.606   -2829.3743 
   88200    294.15056   -26112.302     126.2602   -26238.562   -2381.7163 
   88400    320.57082   -26088.571    137.60074   -26226.172   -1055.5653 
   88600    304.82044   -26090.528     130.8401   -26221.368   -151.13311 
   88800    294.06091   -26095.393    126.22172   -26221.615    469.04809 
   89000    309.02845   -26093.383    132.64634    -26226.03    3680.0161 
   89200    353.29744   -26073.668    151.64821   -26225.316   -1760.5958 
   89400    306.59868   -26087.799    131.60339   -26219.402   -283.90737 
   89600    314.68779   -26094.338    135.07553   -26229.414   -3071.5451 
   89800    319.32034   -26078.725    137.06399   -26215.789   -494.54942 
   90000    279.42913    -26092.69    119.94122   -26212.632   -6.9347927 
   90200     301.8116   -26095.503     129.5486   -26225.051    968.37305 
   90400    317.15454   -26074.229    136.13435   -26210.364   -3370.1768 
   90600    313.73566   -26085.474    134.66684   -26220.141    3162.1466 
   90800    299.09092   -26099.623    128.38078   -26228.004    7786.1381 
   91000    318.81535   -26069.408    136.84723   -26206.255    6135.5448 
   91200    317.57694   -26082.014    136.31566    -26218.33   -6252.3243 
   91400    314.30487   -26098.464    134.91117   -26233.375   -6637.0924 
   91600    334.06266   -26073.543    143.39194   -26216.935    1023.4174 
   91800    312.56674   -26092.757     134.1651   -26226.922    1114.2935 
   92000     270.3266   -26101.015    116.03409   -26217.049    -1398.197 
   92200    306.32151   -26082.541    131.48442   -26214.026   -937.53939 
   92400    283.34937   -26104.198    121.62393   -26225.822    811.36049 
   92600    312.88773   -26095.595    134.30288   -26229.897   -336.76346 
   92800    310.37712   -26085.207    133.22523   -26218.433    228.77122 
   93000    303.77508   -26092.063     130.3914   -26222.454     1504.575 
   93200    303.23943   -26091.242    130.16148   -26221.404   -619.81929 
   93400    327.89617   -26063.253    140.74505   -26203.998   -2224.8135 
   93600    306.42081   -26092.439    131.52704   -26223.966   -3509.5534 
   93800    296.62162   -26105.274    127.32087   -26232.594    133.53807 
   94000    310.21675   -26078.586     133.1564   -26211.743   -35.175264 
   94200    310.30531   -26086.698    133.19441   -26219.893    6908.0068 
   94400    293.64405   -26097.354    126.04279   -26223.397    3789.3317 
   94600    315.13351   -26090.882    135.26685   -26226.148    3089.9085 
   94800    330.56599    -26062.59    141.89104   -26204.481   -1415.7963 
   95000    282.44402   -26100.889    121.23532   -26222.125    2481.8657 
   95200    283.94901   -26095.572    121.88132   -26217.453    -825.5691 
   95400    317.39025   -26079.661    136.23553   -26215.896     1708.492 
   95600    281.81513   -26110.906    120.96538   -26231.871   -408.42888 
   95800    302.94229   -26088.794    130.03393   -26218.828    880.80627 
   96000    297.65686    -26083.27    127.76523   -26211.036   -3144.9532 
   96200    294.63741    -26093.27    126.46917   -26219.739    2993.2238 
   96400    265.27022   -26110.398     113.8637   -26224.262    5243.2997 
   96600    307.68328   -26091.475    132.06894   -26223.544    151.10773 
   96800    290.08647   -26106.807    124.51575   -26231.323    47.008507 
   97000    243.71467   -26124.962    104.61127   -26229.573   -2266.2198 
   97200    329.30484    -26094.57     141.3497    -26235.92       70.682 
   97400    265.29547   -26104.389    113.87454   -26218.263   -948.12486 
   97600    303.14647    -26084.54    130.12158   -26214.662    -2620.829 
   97800    303.63765   -26086.756    130.33241   -26217.089   -4707.5552 
   98000    268.85908   -26105.085    115.40417   -26220.489    -1119.648 
   98200    299.70421   -26090.955    128.64403   -26219.599   -2164.7749 
   98400    285.26742   -26097.777    122.44723   -26220.224    2707.2825 
   98600    316.22983    -26092.91    135.73743   -26228.647   -1852.6114 
   98800    321.08598   -26074.955    137.82187   -26212.777    1887.8347 
   99000     265.7552   -26106.345    114.07187   -26220.417     1005.351 
   99200    303.72882   -26088.185    130.37154   -26218.557   -1834.8544 
   99400    313.31225    -26096.56     134.4851   -26231.045   -206.40427 
   99600     330.5618   -26098.621    141.88924    -26240.51    2928.9981 
   99800    276.82681    -26102.15    118.82421   -26220.974    5968.4047 
  100000    338.71031   -26075.948    145.38688   -26221.335    2867.1888 
  100200    297.25146   -26104.525    127.59122   -26232.116    -4072.631 
  100400    311.86587   -26094.769    133.86426   -26228.633   -3526.5844 
  100600    332.62985   -26067.721    142.77692   -26210.498   -790.94668 
  100800    307.62387   -26088.437    132.04344    -26220.48   -3199.8572 
  101000     291.5024   -26110.214    125.12351   -26235.337   -511.07492 
  101200    312.23767   -26089.825    134.02385   -26223.849   -2114.2118 
  101400    299.61866   -26084.622    128.60731   -26213.229   -3666.0876 
  101600    278.61116   -26100.291    119.59012   -26219.881   -2961.4994 
  101800    295.15365   -26096.601    126.69076   -26223.291    213.74051 
  102000    310.84292   -26092.267    133.42517   -26225.692    2291.0474 
  102200    286.98477   -26118.067    123.18438   -26241.251   -2715.2313 
  102400    294.43125   -26095.505    126.38068   -26221.886    2554.5209 
  102600    285.94059     -26099.4    122.73618   -26222.137    3725.3093 
  102800    270.90297   -26121.258    116.28148   -26237.539   -3620.2315 
  103000    291.26348   -26089.446    125.02096   -26214.467    2803.8859 
  103200    305.46343   -26091.738     131.1161   -26222.854    4785.8983 
  103400    301.48591   -26096.038     129.4088   -26225.447   -291.86215 
  103600    315.40312   -26077.392    135.38258   -26212.775   -1687.3377 
  103800    305.16468   -26086.267    130.98786   -26217.255    396.13467 
  104000    287.57762   -26104.406    123.43885   -26227.845    1302.2118 
  104200    281.71541   -26075.072    120.92258   -26195.995    5702.7526 
  104400    290.28533   -26082.271     124.6011   -26206.872    2663.7888 
  104600    300.86257   -26099.912    129.14124   -26229.053    8480.5945 
  104800    309.28605   -26093.187    132.75691   -26225.943    5731.6722 
  105000    311.11402   -26076.158    133.54154     -26209.7    254.09142 
  105200      306.862   -26106.212    131.71641   -26237.928    151.03767 
  105400    284.19773   -26104.632    121.98808    -26226.62     4598.091 
  105600     308.7096   -26084.024    132.50947   -26216.533    3327.2941 
  105800    293.76807   -26090.154    126.09602    -26216.25   -5215.1699 
  106000    300.99516   -26094.859    129.19816   -26224.057   -3680.2575 
  106200    340.54574   -26065.074    146.17471   -26211.249   -1196.1176 
  106400    297.01673   -26099.803    127.49046   -26227.293   -6898.6481 
  106600    332.26947   -26091.993    142.62223   -26234.615   -1855.5739 
  106800    307.16822   -26088.411    131.84786   -26220.259     1346.411 
  107000    281.22914   -26111.492    120.71385   -26232.206   -1156.4648 
  107200    315.24743   -26092.333    135.31575   -26227.649   -3030.0269 
  107400    304.66845   -26098.388    130.77487   -26229.163    4060.7402 
  107600    304.67855   -26073.594     130.7792   -26204.373    733.97723 
  107800    322.46489   -26087.583    138.41375   -26225.996   -1914.2519 
  108000    284.67262   -26104.243    122.19192   -26226.435   -570.78002 
  108200    310.46917   -26096.853    133.26474   -26230.118    2636.1176 
  108400    305.93386   -26103.568    131.31803   -26234.886    6769.3401 
  108600    340.47676   -26079.889     146.1451   -26226.034    3041.5044 
  108800    302.05545   -26108.392    129.65327   -26238.045   -1042.8801 
  109000    287.22463   -26097.571    123.28734   -26220.859   -1950.5416 
  109200    313.87564   -26082.456    134.72693   -26217.183   -1024.7716 
  109400     259.0119   -26115.187     111.1774   -26226.364    579.19126 
  109600    325.35813   -26087.817    139.65563   -26227.472    2047.4983 
  109800    311.79699   -26080.785    133.83469   -26214.619   -2142.0211 
  110000    238.31557   -26108.723    102.29377   -26211.017    123.06952 
  110200    308.88594   -26089.934    132.58517   -26222.519    744.22075 
  110400    281.98221   -26101.946     121.0371   -26222.983   -305.87307 
  110600    320.71416   -26099.894    137.66227   -26237.556   -1729.4361 
  110800    334.19983   -26084.791    143.45082   -26228.242    5028.7489 
  111000    316.09377   -26098.824    135.67903   -26234.503     1741.075 
  111200      291.532   -26104.638    125.13622   -26229.775    5546.3214 
  111400    303.38225   -26084.456    130.22278   -26214.679    5742.8092 
  111600    282.35721   -26098.292    121.19806    -26219.49   -1768.3293 
  111800     336.7356   -26092.842    144.53926   -26237.382   -1611.5833 
  112000    319.58949   -26065.264    137.17952   -26202.443    439.88996 
  112200    301.55647   -26099.877    129.43909   -26229.316    4703.8491 
  112400    290.96133   -26104.383    124.89127   -26229.275   -322.21492 
  112600     269.3384    -26110.07    115.60991    -26225.68     865.7853 
  112800    309.20475    -26082.25    132.72201   -26214.972    1221.9185 
  113000    307.49651   -26094.877    131.98877   -26226.866   -107.97766 
  113200    264.34307   -26110.372    113.46573   -26223.838    3058.7516 
  113400    290.56206    -26089.82    124.71988    -26214.54    3154.1762 
  113600    326.12971   -26084.953    139.98682    -26224.94   -1007.0791 
  113800    296.54002   -26110.874    127.28584    -26238.16   -2153.9028 
  114000    323.93633   -26083.863    139.04535   -26222.908    2456.0181 
  114200    359.36135   -26048.487    154.25106   -26202.738    3015.0196 
  114400    298.98401   -26081.894    128.33489   -26210.229   -533.40058 
  114600    297.50888   -26104.925    127.70171   -26232.627   -2476.3122 
  114800     293.7604   -26094.267    126.09273    -26220.36    2246.9673 
  115000    320.84799   -26078.489    137.71971   -26216.209    1928.8904 
  115200    290.64058   -26102.461    124.75359   -26227.215    1063.9414 
  115400    316.21452    -26093.65    135.73086   -26229.381   -2076.4588 
  115600    346.19516   -26072.391    148.59965    -26220.99   -1418.4847 
  115800    296.65632   -26091.201    127.33577   -26218.537   -2404.2167 
  116000    300.24395   -26099.124     128.8757       -26228   -2369.3626 
  116200    289.40076   -26121.224    124.22141   -26245.445    5226.3051 
  116400    318.47015   -26085.774    136.69906   -26222.473    2401.5246 
  116600    306.29659   -26083.813    131.47372   -26215.286    2584.9526 
  116800    285.67812   -26113.003    122.62352   -26235.626    2265.6363 
  117000    284.30175   -26111.199    122.03273   -26233.232    2152.3575 
  117200    296.18164   -26095.239    127.13201   -26222.371   -875.74183 
  117400    298.03401    -26090.85    127.92712   -26218.777    2153.5269 
  117600    262.32791   -26121.138    112.60075   -26233.739     1432.738 
  117800    302.44095   -26103.984    129.81874   -26233.802    2092.4373 
  118000    300.92094   -26091.276     129.1663   -26220.442   -3410.8138 
  118200    319.21204   -26070.693    137.01751    -26207.71    4639.5749 
  118400    307.10479   -26091.986    131.82063   -26223.807   -974.12128 
  118600    292.15057   -26097.097    125.40173   -26222.498   -1538.9194 
  118800    333.05202   -26072.157    142.95813   -26215.115    -5802.412 
  119000    285.67745   -26104.879    122.62323   -26227.502   -2889.7128 
  119200     286.7736   -26099.216    123.09374   -26222.309    2385.4041 
  119400    330.12164   -26072.699    141.70031   -26214.399   -743.86267 
  119600    301.43738   -26094.987    129.38797   -26224.375   -2458.6128 
  119800    298.68218   -26100.928    128.20534   -26229.133   -1406.6645 
  120000    345.41326   -26081.931    148.26403   -26230.195    1816.5345 
  120200    262.50141   -26109.819    112.67522   -26222.495    5162.6473 
  120400    317.20601   -26086.887    136.15645   -26223.044     580.8077 
  120600    280.27937   -26095.221    120.30618   -26215.528    3035.6045 
  120800    280.01196   -26094.769     120.1914    -26214.96   -428.38878 
  121000    299.76428   -26092.133    128.66981   -26220.802    5177.9398 
  121200     349.6325   -26068.901    150.07508   -26218.976    3692.0943 
  121400    316.59073   -26092.198    135.89234   -26228.091    264.08621 
  121600    296.16702   -26099.176    127.12574   -26226.301   -3189.0338 
  121800    301.07494   -26079.714     129.2324   -26208.946    298.70402 
  122000    320.66842   -26074.342    137.64264   -26211.984   -3207.8871 
  122200    293.39232    -26103.91    125.93474   -26229.845   -2356.9355 
  122400    330.61863   -26079.174    141.91363   -26221.088    3814.8889 
  122600    313.04644    -26088.39      134.371   -26222.761     195.8606 
  122800    293.42835   -26102.974     125.9502   -26228.925    2519.9372 
  123000    302.66838   -26078.284    129.91636     -26208.2    85.158787 
  123200    315.18761   -26086.101    135.29007   -26221.391   -4730.6282 
  123400    288.70129   -26105.345    123.92117   -26229.266   -493.11047 
  123600    317.70904   -26086.967    136.37236    -26223.34    3137.3696 
  123800    285.47738   -26097.313    122.53735   -26219.851    2934.5726 
  124000    288.56557   -26107.704    123.86292   -26231.567     3013.913 
  124200    314.38646   -26077.644    134.94619    -26212.59    1744.1008 
  124400    297.87248   -26093.482    127.85779   -26221.339    -5211.308 
  124600    305.91308   -26099.786     131.3091   -26231.095   -2890.9719 
  124800    308.24603   -26092.129    132.31049   -26224.439    6258.0387 
  125000    322.52187   -26079.333    138.43821   -26217.772      9939.48 
  125200    305.45796   -26104.831    131.11375   -26235.944    4003.2761 
  125400    318.02941   -26081.957    136.50988   -26218.467    -786.0312 
  125600    324.65979   -26093.516    139.35588   -26232.872   -7813.0517 
  125800    280.41604   -26094.031    120.36484   -26214.396    -978.0412 
  126000    334.67441    -26079.61    143.65452   -26223.265    3713.7043 
  126200    286.71896   -26093.283    123.07029   -26216.353    4738.6509 
  126400    274.39838   -26120.406    117.78184   -26238.187   -1753.6589 
  126600    288.24659   -26110.261      123.726   -26233.987   -5836.9038 
  126800    295.01729   -26088.544    126.63223   -26215.176   -3554.6311 
  127000    292.94757   -26093.128    125.74383   -26218.872   -329.17195 
  127200    269.88921   -26102.092    115.84634   -26217.938   -2971.9543 
  127400    289.29995   -26093.828    124.17814   -26218.006   -342.29766 
  127600    336.53245   -26067.411    144.45206   -26211.864   -87.044194 
  127800    315.87834   -26092.573    135.58656   -26228.159   -1704.4596 
  128000    293.88261   -26108.406    126.14519   -26234.551   -343.01045 
  128200    317.66941   -26097.336    136.35535   -26233.691    2353.0982 
  128400    301.49655   -26088.888    129.41337   -26218.302    645.80111 
  128600    266.16485   -26113.258    114.24771   -26227.506    1465.3174 
  128800     292.4489   -26101.528    125.52979   -26227.058    2191.6149 
  129000    319.71851   -26094.737     137.2349   -26231.972    3133.5655 
  129200    301.81415   -26105.815    129.54969   -26235.365   -1108.3997 
  129400    300.11608   -26088.461    128.82082   -26217.282    310.10311 
  129600     325.6921   -26068.055    139.79899   -26207.854     5460.129 
  129800    298.84656   -26099.468     128.2759   -26227.744    3543.0065 
  130000    293.82475   -26111.663    126.12035   -26237.783    633.49101 
  130200    345.20538   -26077.221     148.1748   -26225.396   -4113.9421 
  130400    299.26048   -26092.177    128.45356    -26220.63    3345.6073 
  130600    273.58408    -26120.51    117.43231   -26237.942    2359.4679 
  130800    285.58908   -26104.108     122.5853   -26226.693    -1259.549 
  131000    315.33011   -26094.609    135.35124    -26229.96    4223.1749 
  131200    298.95791   -26078.477    128.32369     -26206.8   -4515.4308 
  131400    282.57975   -26075.642    121.29359   -26196.936    1837.8796 
  131600    311.18793   -26094.051    133.57326   -26227.624    4021.1339 
  131800    268.55234   -26112.769     115.2725   -26228.042   -3302.3347 
  132000    294.24172   -26091.564    126.29933   -26217.863   -2820.8127 
  132200    326.58107   -26084.103    140.18056   -26224.284    789.66984 
  132400    283.34697   -26112.642     121.6229   -26234.265    2042.7162 
  132600    309.31446   -26099.301     132.7691    -26232.07   -1945.9076 
  132800    332.38647   -26065.429    142.67245   -26208.102   -2741.3705 
  133000    294.18367   -26092.354    126.27441   -26218.629   -982.57021 
  133200    302.79203   -26106.936    129.96943   -26236.905    -547.4606 
  133400    259.09691   -26124.221    111.21389   -26235.435    -2259.084 
  133600    307.01207   -26095.816    131.78083   -26227.596    303.64747 
  133800    279.97408   -26091.571    120.17514   -26211.747    2160.2509 
  134000    350.50845   -26064.662    150.45107   -26215.113   -3230.9063 
  134200    322.33928   -26091.077    138.35983   -26229.437    2842.4852 
  134400    279.32126   -26110.734    119.89492   -26230.629     3448.262 
  134600    312.58722   -26098.417    134.17389   -26232.591   -1879.6434 
  134800    295.22278   -26075.413    126.72044   -26202.134    3235.4446 
  135000    311.56212   -26096.573    133.73388   -26230.307    1547.4608 
  135200    289.15707   -26102.452    124.11681   -26226.569   -740.83974 
  135400    276.31854   -26083.127    118.60604   -26201.733    -2142.397 
  135600    265.69096   -26108.023     114.0443   -26222.067   -3399.2306 
  135800    287.73196   -26091.264     123.5051   -26214.769   -7368.8668 
  136000     296.0359   -26088.416    127.06946   -26215.485   -11824.213 
  136200    267.52433   -26101.089    114.83124    -26215.92   -2787.4712 
  136400    297.14596   -26087.563    127.54594   -26215.109   -1111.2683 
  136600    291.19834   -26094.439      124.993   -26219.432    -7327.289 
  136800    262.60833   -26109.693    112.72112   -26222.414   -3899.0574 
  137000    306.84835   -26084.968    131.71056   -26216.679   -3622.3678 
  137200    298.77534   -26100.371    128.24533   -26228.616   -5519.9494 
  137400    323.92609   -26080.486    139.04095   -26219.527    1024.9469 
  137600    312.76115   -26099.687    134.24855   -26233.936    2630.1029 
  137800     302.4031   -26102.234    129.80249   -26232.036    2805.0407 
  138000    314.03974   -26082.325    134.79737   -26217.122    -7087.293 
  138200    276.29936   -26094.995    118.59781   -26213.593   -947.14055 
  138400    306.73806   -26088.754    131.66322   -26220.417   -604.54877 
  138600     295.1579   -26110.105    126.69259   -26236.797   -1628.6082 
  138800    291.27779   -26104.659     125.0271   -26229.686   -5650.0705 
  139000    305.40372   -26088.321    131.09047   -26219.411    3848.2331 
  139200    288.22596   -26102.836    123.71715   -26226.553    5387.6066 
  139400    278.62343   -26107.216    119.59539   -26226.812   -2456.8413 
  139600    301.23651   -26084.355    129.30175   -26213.657    4112.3887 
  139800    270.28072   -26091.406    116.01439   -26207.421   -5731.6187 
  140000    290.50447   -26106.941    124.69517   -26231.637   -3557.2881 
  140200    275.04941   -26102.621    118.06129   -26220.683   -2972.6173 
  140400    329.08223   -26087.449    141.25415   -26228.704    2019.9328 
  140600    261.11439   -26107.813    112.07986   -26219.893      1794.94 
  140800    347.56402   -26066.239    149.18721   -26215.426    2432.7654 
  141000    283.30919   -26094.367    121.60669   -26215.974    3788.2442 
  141200    289.44078   -26100.168    124.23859   -26224.407   -170.03234 
  141400    331.57257   -26075.388     142.3231   -26217.711    1726.6968 
  141600    290.49908   -26107.906    124.69285   -26232.599    -73.40608 
  141800    284.57014   -26090.931    122.14793   -26213.079    2915.6449 
  142000    316.93449    -26085.22     136.0399    -26221.26    -1298.045 
  142200    310.40715   -26108.491    133.23812    -26241.73    325.85814 
  142400    305.30045   -26098.256    131.04614   -26229.303    5147.2612 
  142600    354.98257   -26075.598    152.37153   -26227.969    5930.1562 
  142800    341.56168   -26068.752    146.61079   -26215.362    931.73884 
  143000     287.4511   -26091.986    123.38455   -26215.371    682.42617 
  143200    289.25279   -26108.774     124.1579   -26232.932    2110.7101 
  143400    299.31627    -26079.19    128.47751   -26207.667    6155.9438 
  143600    294.20832   -26083.504    126.28499   -26209.789    -1848.929 
  143800    307.04204   -26092.611     131.7937   -26224.405    2297.5076 
  144000    282.88319   -26102.916    121.42383    -26224.34    2474.7235 
  144200    297.31754   -26086.783    127.61959   -26214.403   -4414.7331 
  144400    282.59169   -26093.266    121.29871   -26214.564    1747.5516 
  144600    299.59427   -26108.708    128.59684   -26237.305    3372.5498 
  144800    300.15789   -26098.137    128.83876   -26226.975    3606.0795 
  145000    287.40014   -26086.292    123.36267   -26209.655   -881.21114 
  145200    309.57684   -26075.244    132.88172   -26208.126   -4486.0288 
  145400    305.60047   -26103.438    131.17492   -26234.613    -1908.595 
  145600     285.7344   -26097.294    122.64768   -26219.942   -1491.0168 
  145800    312.38275   -26081.643    134.08612   -26215.729   -866.28267 
  146000    297.62183   -26091.246    127.75019   -26218.997    727.28235 
  146200     291.9126   -26092.943    125.29959   -26218.242   -1563.5242 
  146400    349.97162   -26073.215    150.22064   -26223.436    3903.1231 
  146600     276.4713   -26103.889    118.67161   -26222.561    3738.0329 
  146800     300.1841   -26092.074    128.85001   -26220.924   -1263.6597 
  147000    327.34494   -26064.516    140.50844   -26205.024   -359.87918 
  147200    289.83504   -26096.351    124.40782   -26220.759    -5878.138 
  147400     301.7005   -26092.479    129.50091    -26221.98   -1574.2685 
  147600    321.39283   -26086.411    137.95358   -26224.365   -2375.0544 
  147800    306.62644   -26104.002    131.61531   -26235.617   -5812.2908 
  148000    321.21331    -26088.82    137.87652   -26226.696   -2645.8927 
  148200    303.17809   -26079.266    130.13515   -26209.401    4495.9771 
  148400    310.37403   -26109.517    133.22391   -26242.741    1832.6807 
  148600    276.97971   -26103.844    118.88984   -26222.734   -473.04443 
  148800    317.80281   -26079.365    136.41261   -26215.777    4384.9838 
  149000    293.96875   -26107.009    126.18216   -26233.191    6292.3399 
  149200    272.76252   -26108.008    117.07967   -26225.088    3570.5143 
  149400    306.41002   -26084.368    131.52241    -26215.89     4135.285 
  149600    283.02114   -26102.721    121.48305   -26224.204    3734.9702 
  149800    267.47503   -26119.791    114.81008   -26234.601    -1138.967 
  150000    317.93229   -26089.898    136.46819   -26226.366   -2594.1297 
  150200    298.70843   -26099.385    128.21661   -26227.602   -1075.7382 
  150400    275.82971    -26100.29    118.39622   -26218.687   -4701.2818 
  150600    309.81194   -26084.441    132.98264   -26217.424     2144.342 
  150800    267.15462   -26107.106    114.67255   -26221.778   -26.244316 
  151000    337.71595   -26081.812    144.96006   -26226.772    517.09069 
  151200    275.19821   -26091.225    118.12516    -26209.35    1408.6289 
  151400    304.90837   -26105.092    130.87785    -26235.97    1129.9242 
  151600    269.29104   -26116.977    115.58958   -26232.566      5817.51 
  151800    311.15863   -26088.242    133.56069   -26221.803    8256.7521 
  152000    281.63931   -26100.828    120.88991   -26221.718    3459.8251 
  152200    295.57175   -26097.195    126.87023   -26224.065    3138.1283 
  152400    307.72763   -26084.504    132.08798   -26216.592    1341.6789 
  152600    286.81881   -26108.773    123.11314   -26231.886    3483.5193 
  152800    326.47455   -26090.029    140.13484   -26230.164   -774.76207 
  153000    311.24858   -26095.038     133.5993   -26228.638   -2732.6863 
  153200    317.41181   -26081.606    136.24478   -26217.851    1902.1959 
  153400    305.03103   -26066.242     130.9305   -26197.173   -2266.2854 
  153600    297.91497   -26089.982    127.87602   -26217.858    7597.1833 
  153800    284.25626   -26103.847    122.01321    -26225.86    7311.4191 
  154000    313.09762   -26104.467    134.39297    -26238.86    4696.8702 
  154200     313.5656   -26079.645    134.59385   -26214.239    1451.3773 
  154400    297.87808   -26094.233    127.86019   -26222.094   -1742.1345 
  154600    297.50557   -26098.369    127.70029    -26226.07      -2046.7 
  154800     309.8849   -26087.217    133.01395   -26220.231   -1628.9858 
  155000    295.07609    -26119.26    126.65747   -26245.918   -2620.6724 
  155200    289.45655   -26107.182    124.24536   -26231.427     380.9259 
  155400    314.43401   -26092.637     134.9666   -26227.604     612.7113 
  155600    308.92872   -26094.314    132.60353   -26226.918    1059.5352 
  155800    288.50672     -26107.3    123.83766   -26231.138    309.59865 
  156000    290.19268   -26089.346    124.56133   -26213.907    1732.8221 
  156200    313.95797   -26100.748    134.76227    -26235.51   -5023.1568 
  156400    273.56723   -26122.105    117.42508    -26239.53   -3089.8267 
  156600    307.83744   -26093.679    132.13511   -26225.814    4448.5522 
  156800    304.41767   -26087.458    130.66722   -26218.125    896.75728 
  157000    293.64993   -26111.082    126.04531   -26237.127   -5664.6572 
  157200    310.74215    -26078.77    133.38192   -26212.151    -661.9671 
  157400    316.09111   -26095.118    135.67789   -26230.796   -184.76457 
  157600    272.53635   -26105.534    116.98259   -26222.516    1781.0994 
  157800    311.57985   -26086.407    133.74149   -26220.149     1355.624 
  158000     304.4919   -26078.987    130.69908   -26209.686   -3835.3963 
  158200    299.14499   -26095.681    128.40399   -26224.085   -3544.4632 
  158400     314.7341   -26080.453    135.09541   -26215.549   -389.48683 
  158600    276.18991   -26093.553    118.55083   -26212.104    277.77018 
  158800    277.20969   -26101.014    118.98856   -26220.003    -844.2662 
  159000    338.71908   -26071.474    145.39064   -26216.865   -86.257339 
  159200    300.36139   -26089.977    128.92611   -26218.904   -3772.2761 
  159400    274.64421   -26110.175    117.88736   -26228.062    4572.2502 
  159600    302.79601   -26097.359    129.97115   -26227.331    5786.9534 
  159800    302.95539   -26083.613    130.03955   -26213.653    2360.5354 
  160000    280.11541   -26113.098     120.2358   -26233.334    2402.5007 
  160200    312.20798   -26098.094    134.01111   -26232.105   -1475.5543 
  160400    312.19301    -26093.91    134.00468   -26227.914   -3068.7976 
  160600    302.72624   -26086.986     129.9412   -26216.927   -7510.9005 
  160800    322.90475   -26094.755    138.60255   -26233.358    304.36317 
  161000    279.11999   -26117.313    119.80853   -26237.122   -1730.7553 
  161200    311.21391   -26088.446    133.58442    -26222.03    4950.7891 
  161400    321.10087   -26088.923    137.82826   -26226.751    5654.3752 
  161600    267.72851   -26111.625    114.91889   -26226.544   -391.66599 
  161800    304.10298   -26102.958    130.53214    -26233.49   -3862.9464 
  162000    323.06818   -26089.022     138.6727   -26227.695    1037.8214 
  162200    282.14627   -26104.359    121.10752   -26225.466    3695.1615 
  162400    288.32146   -26105.377    123.75814   -26229.135   -526.31546 
  162600    328.55523   -26084.509    141.02795   -26225.537    2431.2147 
  162800    300.76531   -26104.845    129.09949   -26233.944     3016.255 
  163000    290.51251   -26102.869    124.69862   -26227.567    4255.2742 
  163200    328.35431   -26082.836     140.9417   -26223.777    5255.8957 
  163400    283.98979   -26112.286    121.89883   -26234.184   -355.83264 
  163600      290.805   -26096.626    124.82416    -26221.45    1475.2534 
  163800     342.2812   -26080.044    146.91963   -26226.963   -3164.8889 
  164000    309.75868   -26101.066    132.95978   -26234.025    -2232.203 
  164200    300.54196   -26103.567    129.00362   -26232.571   -6.2145167 
  164400     320.0619   -26085.091     137.3823   -26222.473     1529.482 
  164600    287.22572   -26115.358     123.2878   -26238.645    1802.3257 
  164800    283.37752   -26100.694    121.63602    -26222.33   -760.20667 
  165000    314.96066   -26082.734    135.19266   -26217.927    -904.6684 
  165200    335.68458   -26057.392    144.08812    -26201.48    402.47481 
  165400    321.66323   -26096.201    138.06965   -26234.271    6541.7587 
  165600    287.83287   -26104.194    123.54842   -26227.743    4345.3092 
  165800    304.28419   -26079.273    130.60992   -26209.883    4912.0132 
  166000    321.99631   -26093.439    138.21262   -26231.651   -4273.5714 
  166200    279.26887    -26116.76    119.87243   -26236.632    587.95192 
  166400    307.78327   -26094.421    132.11186   -26226.533    1084.8883 
  166600    305.64487   -26088.124    131.19398   -26219.318   -1440.8291 
  166800    266.36252   -26112.828    114.33255   -26227.161   -4904.8705 
  167000    306.83407   -26096.783    131.70443   -26228.487   -2966.7627 
  167200    308.39701   -26095.203     132.3753   -26227.578    2589.4753 
  167400    304.67131   -26089.952    130.77609   -26220.728    6307.7738 
  167600    262.59803   -26096.245     112.7167   -26208.962    2897.6623 
  167800    275.57949   -26101.262    118.28882   -26219.551   -363.66472 
  168000    324.39301   -26078.667    139.24137   -26217.908    6029.4753 
  168200    285.97647   -26112.132    122.75158   -26234.884   -3421.6702 
  168400    301.16994   -26094.185    129.27317   -26223.458   -1274.6227 
  168600    267.10896   -26114.656    114.65295   -26229.309    4452.6163 
  168800    299.36531   -26100.291    128.49856   -26228.789    -950.9366 
  169000    324.84364   -26082.632    139.43479   -26222.067   -2029.3212 
  169200    310.78736   -26080.621    133.40132   -26214.022    3896.3699 
  169400    269.73549   -26107.555    115.78036   -26223.335    2796.3172 
  169600    287.96952   -26099.773    123.60707    -26223.38   -2456.2381 
  169800    285.91072   -26088.604    122.72336   -26211.327    -12915.08 
  170000    318.36069   -26103.919    136.65208   -26240.571    500.76389 
  170200    305.92599   -26087.945    131.31465   -26219.259     3386.598 
  170400    312.46849   -26087.018    134.12293   -26221.141   -251.80558 
  170600    271.24803    -26103.34    116.42959    -26219.77    138.50343 
  170800    335.70503   -26087.118     144.0969   -26231.215   -2965.8937 
  171000    298.74473   -26093.623    128.23219   -26221.855   -1689.8026 
  171200    314.26142   -26094.991    134.89252   -26229.884    3372.2881 
  171400    301.79244   -26091.074    129.54037   -26220.615    1369.7063 
  171600    286.87121   -26093.627    123.13564   -26216.763    1209.0498 
  171800    279.83069   -26102.065    120.11359   -26222.178    2342.6463 
  172000    291.32045   -26103.903    125.04541   -26228.948   -2314.6348 
  172200    321.75447   -26078.366    138.10881   -26216.475   -1894.3512 
  172400    266.02753   -26109.692    114.18877   -26223.881    1697.4801 
  172600    292.22225    -26112.19     125.4325   -26237.622    2736.8188 
  172800    304.28275   -26094.406    130.60931   -26225.015   -1142.0959 
  173000     318.6356    -26085.35    136.77008    -26222.12    2891.2217 
  173200    281.47094   -26113.827    120.81764   -26234.645    1256.9163 
  173400    312.72699   -26099.621    134.23389   -26233.855    820.87013 
  173600    327.39791   -26100.052    140.53118   -26240.583    1554.3209 
  173800    302.09842   -26080.555    129.67171   -26210.227   -3865.9913 
  174000    329.43785   -26081.516     141.4068   -26222.923    846.21303 
  174200     292.7548   -26098.278    125.66109   -26223.939    3164.1417 
  174400    331.19028   -26080.322    142.15901   -26222.481    4414.5464 
  174600     324.5987   -26074.564    139.32966   -26213.894   -1077.3408 
  174800    322.35217   -26096.642    138.36537   -26235.007    1940.1381 
  175000    285.70836   -26112.991     122.6365   -26235.627     1630.087 
  175200    321.78758    -26082.87    138.12302   -26220.993   -1180.5072 
  175400     307.2657    -26085.22     131.8897    -26217.11    7379.0704 
  175600    294.01539   -26114.437    126.20218   -26240.639    2860.6789 
  175800    308.19591   -26096.541    132.28898    -26228.83    1571.9004 
  176000    323.15618   -26091.915    138.71048   -26230.626    1463.8335 
  176200      290.093   -26116.332    124.51855    -26240.85   -1575.3446 
  176400     309.6583   -26096.678    132.91669   -26229.594    7451.5823 
  176600    314.67761   -26086.093    135.07116   -26221.165    1873.4694 
  176800    257.59233   -26120.415    110.56807   -26230.983   -1203.1246 
  177000    281.42556   -26096.214    120.79816   -26217.012    6882.9965 
  177200    315.66902   -26088.643    135.49671    -26224.14    4815.2296 
  177400    269.38422   -26119.023    115.62958   -26234.653   -1164.0288 
  177600    297.71042   -26095.422    127.78822    -26223.21    2735.4095 
  177800    312.66385   -26086.042    134.20678   -26220.249    2232.3975 
[...]
  950000      309.006   -26095.885     132.6367   -26228.522    1292.1687 
  950200    305.98108   -26100.615    131.33829   -26231.953   -2790.5511 
  950400    320.03623   -26079.227    137.37128   -26216.598   -519.29723 
  950600    275.67278   -26110.843    118.32886   -26229.172   -2687.0961 
  950800    292.39464   -26098.302     125.5065   -26223.809    -4213.081 
  951000    332.81643   -26082.087    142.85701   -26224.944   -3375.7405 
  951200    304.85824   -26094.906    130.85633   -26225.762   -1591.8864 
  951400    271.28928    -26120.63     116.4473   -26237.078   -2245.1526 
  951600    281.73523   -26098.935    120.93109   -26219.866   -3249.1668 
  951800    289.29833    -26094.17    124.17745   -26218.348   -4092.7041 
  952000    332.50339   -26074.639    142.72264   -26217.362   -6440.4393 
  952200     306.5714   -26095.474    131.59168   -26227.065    1491.2187 
  952400      307.552   -26103.088    132.01259     -26235.1   -2017.4009 
  952600    312.49987   -26084.679     134.1364   -26218.815    839.47676 
  952800    281.83198   -26075.428    120.97262     -26196.4   -2446.2943 
  953000    309.14156   -26103.486    132.69489    -26236.18    2745.5885 
  953200    277.39074   -26101.013    119.06627    -26220.08    284.12217 
  953400    321.70977    -26083.26    138.08962   -26221.349    2082.4096 
  953600    296.61085   -26102.135    127.31625   -26229.452     3732.524 
  953800    284.96906   -26109.886    122.31916   -26232.206    735.17962 
  954000     304.2032   -26088.702    130.57516   -26219.277    5194.7927 
  954200      259.108   -26107.412    111.21865   -26218.631   -964.89487 
  954400    309.78777   -26106.682    132.97226   -26239.654    761.30242 
  954600    332.93019   -26092.573    142.90584   -26235.479   -4046.8887 
  954800    318.99206   -26094.947    136.92308    -26231.87   -70.736332 
  955000    338.02733   -26088.889    145.09372   -26233.982    1886.6009 
  955200    270.20909   -26098.492    115.98364   -26214.476    2198.6727 
  955400    288.45992   -26088.708    123.81757   -26212.526    1920.8948 
  955600    271.87191   -26102.375    116.69739   -26219.072   -4026.3701 
  955800    317.34766   -26099.442    136.21724   -26235.659    2274.6578 
  956000    301.88991   -26087.273    129.58221   -26216.855    -4774.168 
  956200    275.92942   -26109.229    118.43902   -26227.668     4274.158 
  956400    314.04937   -26090.268     134.8015   -26225.069    3287.2397 
  956600    317.34308   -26080.938    136.21528   -26217.154   -4098.5386 
  956800    298.11568   -26110.192    127.96218   -26238.154   -1120.5104 
  957000    301.20896   -26108.335    129.28993   -26237.625    2155.8724 
  957200    292.34325   -26091.121    125.48444   -26216.605   -3663.6739 
  957400    301.17088   -26105.949    129.27358   -26235.222    576.23263 
  957600    312.66447   -26100.926    134.20705   -26235.133   -617.28893 
  957800     312.3513   -26085.379    134.07263   -26219.451    5339.8419 
  958000    283.90798   -26106.791    121.86371   -26228.655    6537.8004 
  958200    313.79686   -26087.663    134.69311   -26222.356    4240.9489 
  958400    293.83742   -26088.726    126.12579   -26214.852    4597.0495 
  958600     285.7973   -26113.145    122.67468    -26235.82   -594.53251 
  958800    258.78234   -26121.117    111.07886   -26232.196   -5231.4306 
  959000    285.46039    -26095.99    122.53006    -26218.52   -3935.4298 
  959200    294.95797   -26087.246    126.60677   -26213.852     5327.048 
  959400    246.87982   -26109.976    105.96987   -26215.946    2885.1854 
  959600    322.27659   -26087.939    138.33292   -26226.272   -1349.4808 
  959800    298.12934   -26090.426    127.96804   -26218.394    2653.6357 
  960000    264.19477   -26113.487    113.40208   -26226.889   -284.76757 
  960200     331.3622   -26085.755     142.2328   -26227.988   -525.63389 
  960400    294.92076    -26102.59     126.5908   -26229.181   -2857.8275 
  960600     318.1123   -26081.696    136.54546   -26218.242   -4304.8948 
  960800    307.01327   -26093.095    131.78135   -26224.876   -2047.4888 
  961000    306.05566   -26111.668     131.3703   -26243.038   -4702.7335 
  961200    296.21398    -26096.69     127.1459   -26223.835   -734.00849 
  961400    331.50501   -26078.256     142.2941    -26220.55   -1180.4411 
  961600     302.3218   -26105.622     129.7676   -26235.389     2799.452 
  961800    277.86129   -26103.925    119.26825   -26223.193   -5961.5927 
  962000    308.86208   -26092.446    132.57492   -26225.021    1179.7351 
  962200    301.71638   -26093.931    129.50773   -26223.439    2409.8699 
  962400    279.14287   -26110.363    119.81835   -26230.182   -1259.3048 
  962600    307.77863   -26092.832    132.10987   -26224.942   -2606.3114 
  962800    284.44214   -26105.983    122.09299   -26228.076   -3447.3716 
  963000    285.70578   -26102.104    122.63539   -26224.739    1520.3199 
  963200    346.34791   -26073.993    148.66522   -26222.658    3410.7474 
  963400     300.7839   -26098.853    129.10747   -26227.961    4823.7044 
  963600    287.68624   -26105.703    123.48548   -26229.189    3161.5119 
  963800    344.48403   -26080.871    147.86517   -26228.736    631.86389 
  964000    295.30639   -26097.916    126.75632   -26224.672    -1983.582 
  964200    312.52625   -26090.762    134.14772    -26224.91    3058.9451 
  964400    340.23323   -26088.417    146.04057   -26234.458    1747.2177 
  964600    293.01788   -26100.374    125.77401   -26226.148     2841.505 
  964800    336.03783   -26081.876    144.23975   -26226.116   -649.26326 
  965000    323.91602   -26083.407    139.03662   -26222.443   -1728.8288 
  965200    282.30543   -26106.497    121.17584   -26227.673    -2532.335 
  965400    314.90644   -26081.137    135.16938   -26216.307    861.11765 
  965600    265.51801   -26089.892    113.97006   -26203.862    1225.2057 
  965800    303.42477   -26093.174    130.24103   -26223.415    617.58276 
  966000    277.42594   -26118.909    119.08138   -26237.991    -233.6337 
  966200    325.81259   -26088.961     139.8507   -26228.811   -78.500217 
  966400    304.33394   -26103.134    130.63128   -26233.765    4010.9681 
  966600    327.06825   -26090.087    140.38968   -26230.476    5520.9307 
  966800    304.80056   -26089.682    130.83157   -26220.513    4149.3827 
  967000    304.36126   -26101.282      130.643   -26231.925    883.59473 
  967200    311.12036   -26065.081    133.54426   -26198.625    3989.9074 
  967400    322.43171   -26087.788    138.39951   -26226.188    1661.1758 
  967600    302.97577   -26096.897     130.0483   -26226.946    4031.5203 
  967800    330.74452   -26079.078    141.96767   -26221.046    2218.8354 
  968000    261.46642   -26105.578    112.23097   -26217.808   -4.1111624 
  968200    278.72985    -26084.82    119.64107   -26204.461    2868.5685 
  968400    366.90797   -26059.007    157.49035   -26216.497   -4651.3789 
  968600    306.34171   -26096.563    131.49309   -26228.056   -3668.5989 
  968800    305.40908   -26090.447    131.09277    -26221.54    2051.4426 
  969000    307.67078   -26098.333    132.06357   -26230.396    4508.9463 
  969200    260.58396   -26121.595    111.85218   -26233.448    2557.0006 
  969400    303.53583   -26089.878     130.2887   -26220.167   -821.55636 
  969600      329.678   -26080.104    141.50988   -26221.614    886.08058 
  969800    291.08149   -26110.212    124.94284   -26235.155     3373.254 
  970000    291.06255   -26096.021    124.93471   -26220.956   -1053.5304 
  970200    285.07391   -26084.399    122.36417   -26206.763    2319.0876 
  970400    321.53692   -26094.145    138.01543    -26232.16   -875.83743 
  970600    268.55722   -26107.403     115.2746   -26222.677    410.33597 
  970800    310.92976   -26083.369    133.46245   -26216.831   -1964.7686 
  971000    265.81438   -26108.371    114.09727   -26222.468   -3187.8028 
  971200    309.38878   -26102.337      132.801   -26235.138   -115.81073 
  971400    278.35937   -26100.786    119.48204   -26220.268    864.71764 
  971600    318.25298    -26077.96    136.60584   -26214.566   -167.97837 
  971800    294.64824       -26099    126.47382   -26225.474    2739.8669 
  972000    288.27824   -26108.823    123.73958   -26232.563   -5600.3501 
  972200    333.43105   -26079.591    143.12082   -26222.712   -540.31482 
  972400    279.13914    -26103.87    119.81675   -26223.687    3119.1606 
  972600    289.24459   -26085.133    124.15438   -26209.287    1311.8378 
  972800     286.1817   -26091.369    122.83967   -26214.208    3250.0875 
  973000    294.76943   -26101.802    126.52584   -26228.328   -1166.2117 
  973200    310.00198   -26075.601    133.06421   -26208.666   -2979.1084 
  973400    308.48974   -26096.031     132.4151   -26228.446    929.00085 
  973600    292.62475   -26099.111    125.60527   -26224.716    4541.2827 
  973800     312.1948   -26080.586    134.00545   -26214.591    5558.2646 
  974000     344.0692   -26069.899    147.68711   -26217.586   -2051.8939 
  974200    272.70749   -26092.666    117.05605   -26209.722   -550.30196 
  974400    258.90139   -26101.864    111.12997   -26212.994    608.22786 
  974600    297.51726   -26080.512    127.70531   -26208.218     5331.022 
  974800    288.11927   -26098.175    123.67135   -26221.846   -3123.9578 
  975000    285.22352   -26117.057    122.42839   -26239.485   -1042.3719 
  975200    300.71928   -26108.416    129.07974   -26237.496    1184.4422 
  975400    298.63616   -26090.733    128.18558   -26218.918    1778.5951 
  975600    343.37821   -26073.908    147.39051   -26221.298    3409.5397 
  975800    294.10881   -26103.003    126.24228   -26229.245   -357.44838 
  976000    317.49007   -26099.121    136.27837     -26235.4   -2956.4775 
  976200    312.70249    -26086.45    134.22337   -26220.673   -5464.2427 
  976400    315.25125   -26085.918    135.31739   -26221.235   -2091.3965 
  976600    272.32782   -26110.598    116.89308   -26227.491     3611.836 
  976800    254.15105   -26102.218    109.09094   -26211.309    -968.3839 
  977000    302.80596   -26084.498    129.97541   -26214.473    5426.4976 
  977200    284.66974   -26102.227    122.19068   -26224.417   -3654.6168 
  977400    267.37006   -26104.745    114.76503    -26219.51    144.64544 
  977600    297.44499   -26087.617    127.67429   -26215.291   -4671.2355 
  977800    285.97866   -26092.876    122.75252   -26215.628   -2982.5944 
  978000    307.60311    -26098.27    132.03453   -26230.304   -18.229709 
  978200    299.43328   -26081.055    128.52774   -26209.583   -2305.3829 
  978400    286.12991   -26100.765    122.81744   -26223.583   -3304.3156 
  978600    288.14003    -26099.02    123.68026     -26222.7   -2390.9165 
  978800    312.36796   -26089.577    134.07978   -26223.657    2857.5311 
  979000    284.17829    -26109.71    121.97974    -26231.69    2510.9937 
  979200    349.20752   -26078.207    149.89266     -26228.1   -3718.5764 
  979400    297.39868   -26092.766    127.65441    -26220.42   -102.21852 
  979600    299.66194   -26104.242    128.62589   -26232.868    3055.2299 
  979800    278.46998   -26100.878    119.52952   -26220.407    2104.6968 
  980000    315.22945   -26084.278    135.30803   -26219.586    592.89801 
  980200    300.75718   -26091.635      129.096   -26220.731   -1742.7467 
  980400    269.85341   -26108.787    115.83097   -26224.618   -2226.0438 
  980600    319.38105   -26076.882    137.09005   -26213.972   -1187.5467 
  980800    339.31682   -26071.934    145.64721   -26217.581    1853.4529 
  981000    296.97802   -26106.018    127.47385   -26233.492    285.54467 
  981200    338.46692    -26084.27    145.28241   -26229.552    1637.0548 
  981400    308.74185    -26096.05    132.52331   -26228.573    1325.3161 
  981600    284.28804   -26117.495    122.02685   -26239.522    405.63216 
  981800    255.09341    -26108.75    109.49544   -26218.245    783.81094 
  982000    327.49446   -26088.446    140.57262   -26229.019   -2908.5397 
  982200    310.81284   -26103.667    133.41226   -26237.079     1064.744 
  982400    262.96947   -26119.496    112.87613   -26232.372    2037.4951 
  982600    301.01383   -26087.603    129.20617    -26216.81    -270.1686 
  982800    298.56039    -26093.56    128.15306   -26221.713    -5724.797 
  983000    290.46114   -26108.151    124.67657   -26232.828   -2177.1124 
  983200     309.5127   -26090.982    132.85419   -26223.836    554.58528 
  983400    316.83421    -26085.15    135.99685   -26221.147    1724.9936 
  983600    279.90812   -26110.705    120.14682   -26230.852    4093.5038 
  983800    328.06156   -26086.594    140.81605    -26227.41    726.88213 
  984000    265.13552   -26098.272    113.80588   -26212.078    266.21327 
  984200    273.37267   -26122.806    117.34157   -26240.147   -1754.2501 
  984400    307.93427   -26096.655    132.17667   -26228.832   -964.19319 
  984600    319.60907   -26088.374    137.18793   -26225.562    1428.3846 
  984800     334.4985   -26068.699    143.57901   -26212.278    4601.3915 
  985000    284.38381   -26103.798    122.06795   -26225.866    4472.9191 
  985200    309.67566   -26089.749    132.92414   -26222.673    140.23158 
  985400    328.99905   -26069.046    141.21845   -26210.265     7663.328 
  985600    306.20303    -26095.42    131.43356   -26226.854    2396.9138 
  985800    334.75392   -26084.692    143.68865   -26228.381   -4396.5464 
  986000     296.7069   -26111.812    127.35748    -26239.17   -6270.1098 
  986200    286.90441   -26092.548    123.14989   -26215.698    514.91888 
  986400    291.33475   -26085.475    125.05155   -26210.527    2618.1082 
  986600    270.04434    -26107.84    115.91293   -26223.753   -7525.4742 
  986800     295.6474   -26118.592     126.9027   -26245.495   -4310.4595 
  987000     298.7096   -26095.478    128.21711   -26223.695   -440.04616 
  987200    313.24236   -26081.366     134.4551   -26215.822   -1180.2717 
  987400    289.82571   -26102.251    124.40382   -26226.655   -2124.9734 
  987600    298.14437   -26098.181    127.97449   -26226.155   -574.40504 
  987800    319.65016   -26086.393    137.20556   -26223.599    2013.0421 
  988000    300.33201   -26091.647    128.91351   -26220.561   -268.64203 
  988200    270.30179   -26111.333    116.02343   -26227.357   -5572.7845 
  988400    335.62434   -26091.613    144.06227   -26235.676   -1521.5061 
  988600    302.52844   -26090.017    129.85629   -26219.873   -80.715162 
  988800    272.94258   -26114.777    117.15696   -26231.934     2955.026 
  989000     257.6599   -26111.537    110.59707   -26222.134    7833.1025 
  989200    312.22127   -26091.999    134.01681   -26226.016   -2614.6116 
  989400    314.52765   -26086.578    135.00679   -26221.585    1711.5311 
  989600    286.79197   -26110.675    123.10162   -26233.776   -3008.2532 
  989800    290.46079   -26093.397    124.67642   -26218.073   -1908.0787 
  990000     265.5446   -26098.601    113.98147   -26212.583   -2151.1725 
  990200    296.73131   -26090.835    127.36795   -26218.203   -2930.7424 
  990400    343.32913   -26063.595    147.36945   -26210.964   -703.15433 
  990600    303.55435   -26096.149    130.29665   -26226.446   -5.6186775 
  990800    287.95499   -26106.381    123.60083   -26229.982   -583.07372 
  991000    328.35506     -26076.7    140.94202   -26217.642   -3163.1652 
  991200    300.25512   -26102.128     128.8805   -26231.008   -2117.8873 
  991400    279.60286   -26102.731     120.0158   -26222.747    4250.0381 
  991600    290.45819    -26077.24     124.6753   -26201.915    5975.2778 
  991800    307.38406   -26086.204     131.9405   -26218.145    -727.0982 
  992000    288.37747   -26096.217    123.78218       -26220   -6156.3068 
  992200    292.42689    -26102.99    125.52034    -26228.51    1665.6437 
  992400    315.64113   -26078.037    135.48474   -26213.521      2622.84 
  992600    280.43459   -26093.867    120.37281   -26214.239   -1168.3357 
  992800    294.04007   -26100.707    126.21278   -26226.919   -1693.4128 
  993000    299.09572   -26102.137    128.38284   -26230.519   -635.52734 
  993200    333.11084   -26077.483    142.98338   -26220.466   -2370.0106 
  993400     293.4159   -26091.335    125.94486    -26217.28   -873.20167 
  993600    283.72785   -26111.413    121.78639   -26233.199   -573.98741 
  993800     305.1904   -26089.026     130.9989   -26220.025    1526.3536 
  994000    319.44143   -26090.872    137.11597   -26227.987   -3339.5582 
  994200    298.12077   -26093.479    127.96436   -26221.444   -8040.5318 
  994400    290.98655   -26096.141    124.90209   -26221.043    3363.4138 
  994600    282.15835   -26091.619    121.11271   -26212.732   -3398.9426 
  994800    253.17745    -26107.92    108.67304   -26216.593   -1047.0304 
  995000    298.68302   -26078.251     128.2057   -26206.456    276.31683 
  995200    297.37357   -26085.912    127.64364   -26213.556   -1589.1979 
  995400    308.97014   -26097.589     132.6213    -26230.21     829.4614 
  995600    303.00533   -26097.825    130.06099   -26227.886    180.14503 
  995800    318.64855   -26071.209    136.77563   -26207.985   -1557.4447 
  996000    278.39767   -26101.719    119.49848   -26221.217    -2734.568 
  996200    295.45021   -26093.331    126.81806   -26220.149    656.37179 
  996400    295.29062   -26090.966    126.74955   -26217.715    2489.2473 
  996600    297.86529   -26107.653     127.8547   -26235.508   -6738.1805 
  996800    301.66196   -26086.745    129.48437    -26216.23      154.235 
  997000    313.54261   -26091.688    134.58398   -26226.272     1472.173 
  997200    282.19444   -26109.563     121.1282   -26230.691   -1165.3241 
  997400    260.26794   -26115.113    111.71654    -26226.83    4567.4627 
  997600    304.61803   -26088.271    130.75322   -26219.024    2808.7415 
  997800    303.00763   -26089.024    130.06198   -26219.086     1926.201 
  998000    296.52814    -26086.66    127.28075    -26213.94   -72.206142 
  998200    285.07197   -26097.411    122.36334   -26219.775    966.04526 
  998400    330.79648    -26077.82    141.98997    -26219.81     1183.189 
  998600    264.32895   -26107.645    113.45967   -26221.105    8053.4854 
  998800    345.79845    -26083.93    148.42937   -26232.359   -410.63918 
  999000    267.67767   -26097.904    114.89707   -26212.802   -2257.9543 
  999200    316.26014   -26096.411    135.75044   -26232.161   -2443.7546 
  999400    305.42946   -26093.748    131.10152   -26224.849    1568.6143 
  999600    288.52682   -26091.385    123.84628   -26215.231    -4127.706 
  999800     265.1346   -26106.107    113.80549   -26219.913    1620.1301 
 1000000    297.87794   -26089.731    127.86013   -26217.591   -456.94714 
Loop time of 5938.28 on 8 procs for 1000000 steps with 145 atoms

Performance: 3.637 ns/day, 6.598 hours/ns, 168.399 timesteps/s
98.9% CPU use with 8 MPI tasks x no OpenMP threads

MPI task timing breakdown:
Section |  min time  |  avg time  |  max time  |%varavg| %total
---------------------------------------------------------------
Pair    | 2604.4     | 3078.1     | 4425.6     |1394.6 | 51.83
Neigh   | 0.59072    | 0.61689    | 0.68594    |   4.6 |  0.01
Comm    | 97.521     | 1437       | 1910.4     |2029.5 | 24.20
Output  | 0.29422    | 0.32103    | 0.44477    |   8.4 |  0.01
Modify  | 1407.4     | 1413.6     | 1424.5     |  15.1 | 23.80
Other   |            | 8.674      |            |       |  0.15

Nlocal:    18.125 ave 68 max 1 min
Histogram: 6 0 0 0 0 0 0 0 0 2
Nghost:    332.875 ave 367 max 313 min
Histogram: 1 2 2 0 1 0 1 0 0 1
Neighs:    628.25 ave 2315 max 40 min
Histogram: 6 0 0 0 0 0 0 0 0 2

Total # of neighbors = 5026
Ave neighs/atom = 34.6621
Neighbor list builds = 659
Dangerous builds = 0

unfix 1
unfix output
undump 1

Please see the log.cite file for references relevant to this simulation

Total wall time: 1:39:04
