ITEM: TIMESTEP
0
ITEM: NUMBER OF ATOMS
145
ITEM: BOX BOUNDS pp pp pp
0.0000000000000000e+00 2.1884000000000000e+01
0.0000000000000000e+00 2.1885999999999999e+01
0.0000000000000000e+00 2.1885000000000002e+01
ITEM: ATOMS id type x y z 
145 2 10.603 9.33 8.575 
16 1 1.605 12.547 12.547 
32 1 0.024 10.965 10.965 
64 1 4.318 12.218 12.218 
68 1 1.276 15.26 12.218 
78 1 1.276 12.218 15.26 
112 1 3.118 12.317 12.317 
116 1 1.375 14.061 12.317 
126 1 1.375 12.317 14.061 
144 1 0.722 11.664 11.663 
9 1 8.524 12.547 12.547 
25 1 10.105 10.965 10.965 
57 1 5.811 12.218 12.218 
65 1 8.853 15.26 12.218 
73 1 8.853 12.219 15.26 
105 1 7.01 12.317 12.317 
113 1 8.754 14.061 12.317 
121 1 8.754 12.317 14.061 
137 1 9.407 11.664 11.664 
11 1 1.605 19.466 12.547 
27 1 0.023 21.047 10.964 
59 1 4.318 19.795 12.218 
69 1 1.276 16.754 12.218 
79 1 1.276 19.795 15.26 
107 1 3.119 19.696 12.317 
117 1 1.375 17.953 12.317 
127 1 1.375 19.696 14.061 
139 1 0.721 20.349 11.663 
14 1 8.524 19.467 12.547 
30 1 10.106 21.049 10.966 
62 1 5.811 19.795 12.218 
72 1 8.853 16.753 12.218 
76 1 8.853 19.796 15.26 
110 1 7.01 19.696 12.317 
120 1 8.754 17.953 12.317 
124 1 8.754 19.697 14.061 
142 1 9.407 20.35 11.664 
13 1 1.605 12.547 19.466 
29 1 0.023 10.966 21.048 
61 1 4.318 12.218 19.795 
71 1 1.276 15.26 19.795 
75 1 1.276 12.218 16.754 
109 1 3.119 12.317 19.696 
119 1 1.375 14.061 19.696 
123 1 1.375 12.317 17.953 
141 1 0.721 11.664 20.35 
12 1 8.524 12.547 19.466 
28 1 10.106 10.965 21.047 
60 1 5.811 12.219 19.795 
70 1 8.853 15.26 19.796 
80 1 8.853 12.219 16.754 
108 1 7.011 12.317 19.696 
118 1 8.754 14.061 19.696 
128 1 8.754 12.318 17.953 
140 1 9.408 11.664 20.349 
10 1 1.604 19.466 19.466 
26 1 0.023 21.047 21.049 
58 1 4.317 19.796 19.795 
66 1 1.276 16.754 19.795 
74 1 1.276 19.795 16.753 
106 1 3.118 19.696 19.696 
114 1 1.375 17.953 19.696 
122 1 1.375 19.696 17.952 
138 1 0.721 20.349 20.35 
15 1 8.524 19.467 19.466 
31 1 10.106 21.048 21.049 
63 1 5.811 19.796 19.795 
67 1 8.853 16.754 19.795 
77 1 8.853 19.796 16.753 
111 1 7.01 19.697 19.696 
115 1 8.754 17.953 19.696 
125 1 8.754 19.697 17.952 
143 1 9.407 20.35 20.35 
8 1 12.547 1.604 1.605 
24 1 10.965 0.023 0.022 
40 1 15.26 1.275 1.276 
44 1 12.218 4.317 1.276 
54 1 12.218 1.275 4.318 
88 1 14.061 1.374 1.375 
92 1 12.317 3.118 1.375 
102 1 12.317 1.374 3.119 
136 1 11.664 0.721 0.721 
1 1 19.466 1.604 1.604 
17 1 21.048 0.023 0.022 
33 1 16.753 1.275 1.276 
41 1 19.795 4.317 1.276 
49 1 19.795 1.275 4.317 
81 1 17.952 1.374 1.375 
89 1 19.696 3.118 1.375 
97 1 19.696 1.374 3.118 
129 1 20.35 0.722 0.721 
3 1 12.546 8.524 1.604 
19 1 10.965 10.106 0.024 
35 1 15.26 8.852 1.276 
45 1 12.218 5.811 1.275 
55 1 12.218 8.852 4.317 
83 1 14.06 8.753 1.375 
93 1 12.317 7.01 1.374 
103 1 12.317 8.753 3.118 
131 1 11.663 9.407 0.722 
6 1 19.466 8.524 1.605 
22 1 21.048 10.105 0.023 
38 1 16.753 8.852 1.276 
48 1 19.795 5.811 1.276 
52 1 19.795 8.853 4.318 
86 1 17.952 8.754 1.375 
96 1 19.696 7.01 1.375 
100 1 19.696 8.754 3.118 
134 1 20.35 9.407 0.721 
5 1 12.547 1.604 8.524 
21 1 10.965 0.022 10.105 
37 1 15.26 1.275 8.853 
47 1 12.218 4.317 8.853 
51 1 12.218 1.276 5.811 
85 1 14.06 1.374 8.754 
95 1 12.317 3.118 8.754 
99 1 12.317 1.375 7.01 
133 1 11.663 0.72 9.407 
4 1 19.466 1.605 8.524 
20 1 21.048 0.024 10.107 
36 1 16.753 1.275 8.853 
46 1 19.795 4.317 8.853 
56 1 19.795 1.275 5.811 
84 1 17.952 1.374 8.754 
94 1 19.695 3.118 8.754 
104 1 19.696 1.374 7.01 
132 1 20.35 0.722 9.408 
2 1 12.547 8.524 8.524 
18 1 10.965 10.106 10.106 
34 1 15.26 8.853 8.853 
42 1 12.218 5.811 8.853 
50 1 12.218 8.852 5.811 
82 1 14.061 8.754 8.754 
90 1 12.317 7.01 8.754 
98 1 12.317 8.754 7.01 
130 1 11.664 9.407 9.407 
7 1 19.466 8.524 8.524 
23 1 21.047 10.106 10.106 
39 1 16.753 8.853 8.853 
43 1 19.795 5.811 8.853 
53 1 19.795 8.853 5.811 
87 1 17.952 8.754 8.754 
91 1 19.696 7.01 8.754 
101 1 19.696 8.754 7.01 
135 1 20.349 9.407 9.407 
ITEM: TIMESTEP
10
ITEM: NUMBER OF ATOMS
145
ITEM: BOX BOUNDS pp pp pp
0.0000000000000000e+00 2.1884000000000000e+01
0.0000000000000000e+00 2.1885999999999999e+01
0.0000000000000000e+00 2.1885000000000002e+01
ITEM: ATOMS id type x y z 
145 2 10.5693 9.37905 8.64615 
16 1 1.60498 12.5469 12.5468 
32 1 0.0234306 10.965 10.9644 
64 1 4.3163 12.2187 12.2187 
68 1 1.27656 15.2601 12.2186 
78 1 1.27658 12.2186 15.2601 
112 1 3.11902 12.3174 12.3173 
116 1 1.3754 14.0607 12.3174 
126 1 1.37541 12.3174 14.0606 
144 1 0.72161 11.6633 11.6635 
9 1 8.52711 12.543 12.5431 
25 1 10.1169 10.9675 10.9763 
57 1 5.80943 12.2186 12.2186 
65 1 8.85236 15.2615 12.2187 
73 1 8.85235 12.2194 15.2611 
105 1 7.01106 12.3162 12.3162 
113 1 8.75471 14.0598 12.3163 
121 1 8.75474 12.3165 14.0604 
137 1 9.41429 11.664 11.6692 
11 1 1.60476 19.4665 12.5466 
27 1 0.0231588 21.048 10.9647 
59 1 4.31776 19.7944 12.2185 
69 1 1.27652 16.7536 12.2185 
79 1 1.27652 19.7945 15.2597 
107 1 3.11872 19.6957 12.3173 
117 1 1.37528 17.9526 12.3173 
127 1 1.37529 19.6958 14.0606 
139 1 0.720904 20.349 11.6626 
14 1 8.52433 19.4664 12.5469 
30 1 10.1053 21.0484 10.9662 
62 1 5.81129 19.7944 12.2185 
72 1 8.85225 16.755 12.2187 
76 1 8.85244 19.7955 15.2599 
110 1 7.01023 19.6958 12.3173 
120 1 8.75371 17.9518 12.3173 
124 1 8.75365 19.6965 14.0608 
142 1 9.40849 20.3509 11.6628 
13 1 1.60487 12.5471 19.4666 
29 1 0.0231595 10.9658 21.0484 
61 1 4.31808 12.2187 19.7944 
71 1 1.27656 15.2599 19.7944 
75 1 1.27655 12.2185 16.7537 
109 1 3.11861 12.3174 19.6958 
119 1 1.37539 14.061 19.6957 
123 1 1.37529 12.3173 17.9525 
141 1 0.721024 11.6635 20.3495 
12 1 8.52446 12.5471 19.4662 
28 1 10.1061 10.9648 21.0476 
60 1 5.81147 12.2191 19.7944 
70 1 8.85243 15.2604 19.795 
80 1 8.85239 12.2197 16.7545 
108 1 7.01048 12.3177 19.6958 
118 1 8.75366 14.0611 19.696 
128 1 8.75375 12.3181 17.9523 
140 1 9.40824 11.6638 20.3498 
10 1 1.60433 19.4663 19.4664 
26 1 0.0226007 21.0477 21.049 
58 1 4.3174 19.7952 19.7945 
66 1 1.27652 16.7534 19.7945 
74 1 1.27653 19.7945 16.7532 
106 1 3.11816 19.696 19.6956 
114 1 1.37513 17.9528 19.6957 
122 1 1.37512 19.6957 17.9524 
138 1 0.721564 20.3493 20.3498 
15 1 8.52399 19.4669 19.4664 
31 1 10.1057 21.0482 21.0487 
63 1 5.8109 19.7954 19.7944 
67 1 8.8524 16.7539 19.7946 
77 1 8.85243 19.7954 16.7535 
111 1 7.01016 19.6966 19.6957 
115 1 8.75352 17.9531 19.6956 
125 1 8.75359 19.6966 17.9524 
143 1 9.40754 20.3501 20.3495 
8 1 12.5467 1.60417 1.60469 
24 1 10.9653 0.0227741 0.0222457 
40 1 15.2598 1.27551 1.27659 
44 1 12.2187 4.31729 1.27647 
54 1 12.2186 1.27583 4.3175 
88 1 14.0605 1.37441 1.37532 
92 1 12.3174 3.11838 1.37538 
102 1 12.3173 1.37432 3.11929 
136 1 11.6634 0.720903 0.721501 
1 1 19.4664 1.60429 1.60428 
17 1 21.048 0.0232031 0.0227697 
33 1 16.7533 1.27552 1.27659 
41 1 19.7944 4.31732 1.27661 
49 1 19.7944 1.27552 4.31744 
81 1 17.9523 1.37444 1.37517 
89 1 19.6957 3.11826 1.37519 
97 1 19.6958 1.37439 3.11825 
129 1 20.3494 0.720787 0.720428 
3 1 12.546 8.5241 1.60692 
19 1 10.9654 10.1053 0.0232777 
35 1 15.2592 8.85122 1.27667 
45 1 12.2187 5.81079 1.27574 
55 1 12.2183 8.85166 4.31864 
83 1 14.0603 8.7528 1.3755 
93 1 12.3171 7.01007 1.37469 
103 1 12.3175 8.75267 3.12067 
131 1 11.663 9.40769 0.722606 
6 1 19.466 8.52397 1.60463 
22 1 21.0478 10.1051 0.0230102 
38 1 16.7526 8.85165 1.27666 
48 1 19.7944 5.81086 1.27662 
52 1 19.7944 8.85239 4.31752 
86 1 17.952 8.75328 1.37531 
96 1 19.6956 7.01006 1.37538 
100 1 19.6957 8.75368 3.11911 
134 1 20.3497 9.40724 0.721163 
5 1 12.5463 1.60722 8.52473 
21 1 10.9653 0.021806 10.1051 
37 1 15.2595 1.27555 8.85227 
47 1 12.2186 4.3177 8.85233 
51 1 12.2187 1.27641 5.81126 
85 1 14.06 1.37479 8.75367 
95 1 12.3176 3.12162 8.75346 
99 1 12.3174 1.37563 7.01089 
133 1 11.6632 0.721611 9.40667 
4 1 19.4659 1.6044 8.52408 
20 1 21.0477 0.0233693 10.1062 
36 1 16.753 1.27562 8.85233 
46 1 19.794 4.31763 8.85242 
56 1 19.7944 1.27559 5.81101 
84 1 17.9517 1.37451 8.75362 
94 1 19.6952 3.11861 8.75354 
104 1 19.6956 1.37456 7.01014 
132 1 20.3496 0.722044 9.40795 
2 1 12.6109 8.46065 8.45937 
18 1 10.8385 10.1079 10.0258 
34 1 15.2601 8.85443 8.85478 
42 1 12.2162 5.81182 8.85417 
50 1 12.2176 8.85257 5.81035 
82 1 14.0687 8.7417 8.7432 
90 1 12.3281 7.00236 8.74297 
98 1 12.3351 8.7407 7.00169 
130 1 11.7127 9.43901 9.48507 
7 1 19.4627 8.52428 8.52478 
23 1 21.0471 10.105 10.1051 
39 1 16.7552 8.85242 8.85232 
43 1 19.7944 5.81136 8.85225 
53 1 19.7944 8.85232 5.81106 
87 1 17.9484 8.75335 8.75335 
91 1 19.6953 7.00998 8.75364 
101 1 19.6952 8.75358 7.01069 
135 1 20.3484 9.40805 9.40764 
ITEM: TIMESTEP
20
ITEM: NUMBER OF ATOMS
145
ITEM: BOX BOUNDS pp pp pp
0.0000000000000000e+00 2.1884000000000000e+01
0.0000000000000000e+00 2.1885999999999999e+01
0.0000000000000000e+00 2.1885000000000002e+01
ITEM: ATOMS id type x y z 
145 2 10.5789 9.3948 8.68306 
16 1 1.60455 12.5469 12.5469 
32 1 0.0234857 10.9651 10.9648 
64 1 4.31681 12.2188 12.2188 
68 1 1.27678 15.26 12.2188 
78 1 1.27681 12.2188 15.26 
112 1 3.11775 12.3176 12.3175 
116 1 1.37547 14.0608 12.3175 
126 1 1.37548 12.3175 14.0608 
144 1 0.721831 11.6634 11.6632 
9 1 8.52409 12.548 12.5482 
25 1 10.1072 10.9753 10.982 
57 1 5.81023 12.2186 12.2186 
65 1 8.85229 15.2609 12.2187 
73 1 8.85234 12.2194 15.261 
105 1 7.00941 12.316 12.316 
113 1 8.75478 14.0618 12.3162 
121 1 8.75465 12.3167 14.0618 
137 1 9.41332 11.67 11.6804 
11 1 1.60446 19.4663 12.5465 
27 1 0.0227863 21.0478 10.9646 
59 1 4.31775 19.7942 12.2188 
69 1 1.27674 16.7535 12.2188 
79 1 1.27676 19.7943 15.2597 
107 1 3.11854 19.6956 12.3174 
117 1 1.3754 17.9527 12.3174 
127 1 1.3754 19.6956 14.0605 
139 1 0.721518 20.3497 11.6628 
14 1 8.52442 19.4667 12.5469 
30 1 10.106 21.0487 10.9654 
62 1 5.81124 19.7942 12.2187 
72 1 8.85212 16.7542 12.2189 
76 1 8.85221 19.7953 15.2599 
110 1 7.01043 19.6957 12.3175 
120 1 8.75351 17.9534 12.3176 
124 1 8.75355 19.6963 14.0607 
142 1 9.40755 20.3504 11.6636 
13 1 1.6047 12.547 19.4664 
29 1 0.0229382 10.9655 21.0482 
61 1 4.31787 12.219 19.7942 
71 1 1.27678 15.26 19.7942 
75 1 1.27676 12.2187 16.7535 
109 1 3.11867 12.3176 19.6956 
119 1 1.37551 14.0608 19.6956 
123 1 1.37543 12.3175 17.9527 
141 1 0.721447 11.6637 20.3499 
12 1 8.52453 12.5473 19.4666 
28 1 10.1062 10.9651 21.0478 
60 1 5.8114 12.2192 19.7942 
70 1 8.85219 15.2604 19.7947 
80 1 8.85223 12.2198 16.7542 
108 1 7.01057 12.3179 19.6957 
118 1 8.7536 14.0613 19.696 
128 1 8.75362 12.3183 17.9533 
140 1 9.40784 11.6635 20.3495 
10 1 1.60429 19.4663 19.4665 
26 1 0.0229185 21.0476 21.0487 
58 1 4.31745 19.7949 19.7942 
66 1 1.27671 16.7534 19.7943 
74 1 1.27672 19.7943 16.7532 
106 1 3.11828 19.696 19.6956 
114 1 1.37525 17.9527 19.6956 
122 1 1.37523 19.6956 17.9524 
138 1 0.721237 20.3498 20.3499 
15 1 8.52417 19.4669 19.4664 
31 1 10.1059 21.0482 21.0483 
63 1 5.81099 19.7952 19.7942 
67 1 8.85215 16.7539 19.7944 
77 1 8.8522 19.7952 16.7534 
111 1 7.01018 19.6965 19.6955 
115 1 8.75341 17.9531 19.6955 
125 1 8.75348 19.6965 17.9526 
143 1 9.40706 20.3504 20.35 
8 1 12.5466 1.60419 1.6048 
24 1 10.9652 0.02275 0.0225907 
40 1 15.2597 1.27575 1.27683 
44 1 12.2189 4.31718 1.27661 
54 1 12.2189 1.27601 4.31783 
88 1 14.0605 1.37456 1.37546 
92 1 12.3175 3.118 1.37554 
102 1 12.3175 1.37458 3.11858 
136 1 11.6636 0.720779 0.72118 
1 1 19.4664 1.60428 1.6043 
17 1 21.0479 0.0228532 0.0225032 
33 1 16.7532 1.27574 1.2768 
41 1 19.7942 4.3174 1.27682 
49 1 19.7942 1.27576 4.31744 
81 1 17.9524 1.37459 1.37527 
89 1 19.6955 3.11818 1.3753 
97 1 19.6956 1.37454 3.11825 
129 1 20.3495 0.720919 0.720956 
3 1 12.5461 8.52403 1.60631 
19 1 10.9652 10.1057 0.0231674 
35 1 15.2596 8.85109 1.27675 
45 1 12.2189 5.81057 1.27589 
55 1 12.2172 8.85271 4.31729 
83 1 14.0604 8.75282 1.37577 
93 1 12.3171 7.00973 1.37502 
103 1 12.3177 8.75233 3.11677 
131 1 11.6628 9.40752 0.722239 
6 1 19.4661 8.52399 1.60477 
22 1 21.0479 10.1053 0.0230184 
38 1 16.753 8.85142 1.27686 
48 1 19.7942 5.8109 1.27686 
52 1 19.7942 8.85218 4.31766 
86 1 17.9522 8.75309 1.37546 
96 1 19.6955 7.0101 1.3755 
100 1 19.6955 8.75348 3.11844 
134 1 20.3493 9.4071 0.721185 
5 1 12.5463 1.60639 8.52456 
21 1 10.9652 0.0220126 10.105 
37 1 15.2596 1.27569 8.85207 
47 1 12.2174 4.31782 8.85345 
51 1 12.2189 1.27652 5.81113 
85 1 14.0604 1.37511 8.75368 
95 1 12.318 3.11723 8.75307 
99 1 12.3173 1.37587 7.01033 
133 1 11.663 0.721463 9.40738 
4 1 19.4659 1.6045 8.52415 
20 1 21.0477 0.0234044 10.1062 
36 1 16.753 1.27579 8.85209 
46 1 19.7939 4.31747 8.85215 
56 1 19.7941 1.27584 5.81106 
84 1 17.9522 1.37472 8.75345 
94 1 19.695 3.11823 8.75339 
104 1 19.6954 1.37473 7.01022 
132 1 20.3495 0.721714 9.40769 
2 1 12.6046 8.46925 8.46849 
18 1 10.8081 10.0942 9.98522 
34 1 15.2673 8.8551 8.85586 
42 1 12.215 5.80467 8.85521 
50 1 12.2176 8.8536 5.80412 
82 1 14.07 8.73648 8.73829 
90 1 12.332 7.00191 8.73832 
98 1 12.3397 8.73595 7.00036 
130 1 11.7363 9.42674 9.47492 
7 1 19.464 8.52428 8.52431 
23 1 21.0475 10.1057 10.1054 
39 1 16.7533 8.85372 8.85363 
43 1 19.7943 5.81079 8.8521 
53 1 19.7943 8.85212 5.811 
87 1 17.954 8.75295 8.75294 
91 1 19.695 7.00993 8.75365 
101 1 19.6949 8.75359 7.01015 
135 1 20.3483 9.40756 9.40793 
ITEM: TIMESTEP
30
ITEM: NUMBER OF ATOMS
145
ITEM: BOX BOUNDS pp pp pp
0.0000000000000000e+00 2.1884000000000000e+01
0.0000000000000000e+00 2.1885999999999999e+01
0.0000000000000000e+00 2.1885000000000002e+01
ITEM: ATOMS id type x y z 
145 2 10.5742 9.38987 8.6812 
16 1 1.60417 12.5472 12.5467 
32 1 0.0238525 10.9655 10.9648 
64 1 4.31594 12.219 12.219 
68 1 1.27713 15.2602 12.2191 
78 1 1.27715 12.2191 15.2602 
112 1 3.1169 12.3177 12.3177 
116 1 1.37549 14.0611 12.3177 
126 1 1.37549 12.3177 14.0611 
144 1 0.72159 11.6634 11.6641 
9 1 8.51717 12.5579 12.5594 
25 1 10.0926 10.9792 10.9789 
57 1 5.80915 12.2178 12.2178 
65 1 8.85289 15.2629 12.2177 
73 1 8.85295 12.2185 15.2632 
105 1 7.00779 12.3171 12.3173 
113 1 8.75376 14.0641 12.3178 
121 1 8.75331 12.3186 14.0644 
137 1 9.41971 11.6709 11.6888 
11 1 1.60468 19.4668 12.5467 
27 1 0.0233065 21.0486 10.965 
59 1 4.31758 19.7939 12.2191 
69 1 1.27711 16.7536 12.2191 
79 1 1.27716 19.7939 15.2597 
107 1 3.11837 19.6954 12.3176 
117 1 1.37555 17.9528 12.3175 
127 1 1.37556 19.6954 14.0605 
139 1 0.72102 20.349 11.6626 
14 1 8.52439 19.4671 12.5469 
30 1 10.1057 21.0483 10.9653 
62 1 5.81095 19.7939 12.2191 
72 1 8.85198 16.7555 12.219 
76 1 8.85189 19.7949 15.2602 
110 1 7.01012 19.6957 12.3176 
120 1 8.75329 17.9547 12.3179 
124 1 8.75342 19.6963 14.061 
142 1 9.40737 20.3502 11.6637 
13 1 1.60462 12.547 19.4666 
29 1 0.0230164 10.9655 21.0482 
61 1 4.3177 12.2194 19.7938 
71 1 1.27717 15.26 19.7939 
75 1 1.27713 12.2191 16.7536 
109 1 3.11849 12.3178 19.6955 
119 1 1.37567 14.0608 19.6954 
123 1 1.37561 12.3177 17.9528 
141 1 0.721507 11.6635 20.3498 
12 1 8.52465 12.5476 19.467 
28 1 10.1061 10.9654 21.0475 
60 1 5.81107 12.2195 19.7939 
70 1 8.85187 15.2606 19.7943 
80 1 8.85214 12.2198 16.7554 
108 1 7.01024 12.318 19.6956 
118 1 8.75347 14.0615 19.6959 
128 1 8.75341 12.3185 17.9547 
140 1 9.40728 11.6638 20.3498 
10 1 1.60428 19.4663 19.4665 
26 1 0.0229081 21.0478 21.0486 
58 1 4.31752 19.7945 19.7938 
66 1 1.27708 16.7535 19.7939 
74 1 1.2771 19.7939 16.7532 
106 1 3.1183 19.6958 19.6954 
114 1 1.37547 17.9527 19.6954 
122 1 1.37543 19.6955 17.9524 
138 1 0.721208 20.3497 20.35 
15 1 8.52416 19.4669 19.4666 
31 1 10.1058 21.0482 21.0484 
63 1 5.81093 19.7948 19.7938 
67 1 8.85177 16.7541 19.794 
77 1 8.85183 19.7949 16.7536 
111 1 7.01015 19.6963 19.6953 
115 1 8.75317 17.9533 19.6954 
125 1 8.75327 19.6963 17.9527 
143 1 9.40721 20.3504 20.3498 
8 1 12.5466 1.60407 1.60449 
24 1 10.9652 0.0225281 0.0224929 
40 1 15.2599 1.27615 1.27719 
44 1 12.2193 4.31658 1.27683 
54 1 12.2192 1.27634 4.31732 
88 1 14.0607 1.37469 1.37566 
92 1 12.3178 3.11744 1.37572 
102 1 12.3177 1.37477 3.11814 
136 1 11.6633 0.720827 0.721132 
1 1 19.4663 1.60436 1.60422 
17 1 21.0478 0.0226333 0.0225257 
33 1 16.7532 1.27617 1.27715 
41 1 19.7938 4.31721 1.2772 
49 1 19.7938 1.27618 4.31744 
81 1 17.9525 1.37478 1.37551 
89 1 19.6953 3.11802 1.37557 
97 1 19.6954 1.37474 3.11825 
129 1 20.3498 0.721088 0.721058 
3 1 12.5467 8.52376 1.60422 
19 1 10.9648 10.1063 0.0230263 
35 1 15.2601 8.85102 1.27705 
45 1 12.219 5.80995 1.27624 
55 1 12.2157 8.85434 4.31413 
83 1 14.061 8.75272 1.37573 
93 1 12.3171 7.00909 1.37503 
103 1 12.3169 8.75286 3.11466 
131 1 11.6627 9.40738 0.72105 
6 1 19.4663 8.52406 1.6047 
22 1 21.0479 10.1056 0.0229655 
38 1 16.7535 8.85112 1.27712 
48 1 19.7938 5.8107 1.27725 
52 1 19.794 8.85187 4.31705 
86 1 17.9526 8.75283 1.3756 
96 1 19.6953 7.00988 1.37561 
100 1 19.6953 8.75322 3.11793 
134 1 20.3495 9.40722 0.72109 
5 1 12.5469 1.60439 8.52433 
21 1 10.9649 0.0221306 10.1058 
37 1 15.2601 1.27604 8.85192 
47 1 12.2157 4.31485 8.85505 
51 1 12.2191 1.27679 5.81063 
85 1 14.061 1.37515 8.75355 
95 1 12.3174 3.11534 8.75353 
99 1 12.3174 1.37579 7.00977 
133 1 11.6628 0.720808 9.40749 
4 1 19.466 1.60445 8.52435 
20 1 21.0477 0.0231986 10.1063 
36 1 16.7535 1.27608 8.85175 
46 1 19.7936 4.31689 8.85182 
56 1 19.7937 1.27622 5.81089 
84 1 17.9526 1.37496 8.75318 
94 1 19.6949 3.11772 8.75314 
104 1 19.6953 1.37495 7.01006 
132 1 20.3495 0.720979 9.40738 
2 1 12.5973 8.4814 8.48208 
18 1 10.8052 10.084 9.96819 
34 1 15.2687 8.85247 8.8539 
42 1 12.2163 5.80505 8.85282 
50 1 12.2209 8.85131 5.80449 
82 1 14.0725 8.72998 8.73277 
90 1 12.3365 7.00108 8.734 
98 1 12.3453 8.73141 6.9996 
130 1 11.7476 9.42704 9.47462 
7 1 19.4662 8.5241 8.52381 
23 1 21.0476 10.1064 10.1059 
39 1 16.7567 8.85551 8.85552 
43 1 19.7939 5.8101 8.852 
53 1 19.794 8.85201 5.81037 
87 1 17.9566 8.75347 8.75342 
91 1 19.6951 7.00924 8.75359 
101 1 19.695 8.75349 7.00946 
135 1 20.3495 9.40743 9.40815 
ITEM: TIMESTEP
40
ITEM: NUMBER OF ATOMS
145
ITEM: BOX BOUNDS pp pp pp
0.0000000000000000e+00 2.1884000000000000e+01
0.0000000000000000e+00 2.1885999999999999e+01
0.0000000000000000e+00 2.1885000000000002e+01
ITEM: ATOMS id type x y z 
145 2 10.574 9.38717 8.68098 
16 1 1.60393 12.547 12.5472 
32 1 0.0237756 10.9653 10.9652 
64 1 4.31562 12.2189 12.2188 
68 1 1.27723 15.2604 12.2192 
78 1 1.27726 12.2192 15.2603 
112 1 3.11665 12.3178 12.3178 
116 1 1.37545 14.0612 12.3177 
126 1 1.37547 12.3177 14.0612 
144 1 0.72149 11.6641 11.6637 
9 1 8.51739 12.5591 12.5614 
25 1 10.0893 10.9783 10.9757 
57 1 5.80915 12.2176 12.2174 
65 1 8.85308 15.2635 12.2173 
73 1 8.85314 12.2182 15.264 
105 1 7.00749 12.3181 12.3185 
113 1 8.75299 14.0649 12.3192 
121 1 8.75237 12.3199 14.0653 
137 1 9.41985 11.6718 11.6912 
11 1 1.60448 19.4665 12.5464 
27 1 0.0231716 21.0484 10.9649 
59 1 4.31747 19.7937 12.2192 
69 1 1.27725 16.7537 12.2192 
79 1 1.27729 19.7937 15.2598 
107 1 3.11826 19.6954 12.3177 
117 1 1.37565 17.953 12.3176 
127 1 1.37564 19.6954 14.0606 
139 1 0.721239 20.3496 11.663 
14 1 8.52417 19.4676 12.5471 
30 1 10.1057 21.0485 10.9653 
62 1 5.8108 19.7938 12.2192 
72 1 8.8521 16.756 12.2188 
76 1 8.85179 19.7948 15.2603 
110 1 7.00998 19.6957 12.3177 
120 1 8.75325 17.9552 12.3179 
124 1 8.75338 19.6964 14.0612 
142 1 9.40742 20.3502 11.6636 
13 1 1.6047 12.5468 19.4667 
29 1 0.0232316 10.9653 21.0482 
61 1 4.31756 12.2195 19.7937 
71 1 1.27732 15.2601 19.7937 
75 1 1.27727 12.2193 16.7537 
109 1 3.11836 12.3179 19.6954 
119 1 1.37573 14.0609 19.6954 
123 1 1.37567 12.3177 17.9529 
141 1 0.721221 11.6638 20.3498 
12 1 8.52422 12.5475 19.4674 
28 1 10.1059 10.9653 21.0477 
60 1 5.81093 12.2195 19.7938 
70 1 8.85178 15.261 19.7942 
80 1 8.85228 12.2196 16.756 
108 1 7.01008 12.3181 19.6957 
118 1 8.75347 14.0618 19.696 
128 1 8.75339 12.3186 17.9553 
140 1 9.40754 11.6641 20.35 
10 1 1.60438 19.4666 19.4664 
26 1 0.0230316 21.0481 21.0484 
58 1 4.31745 19.7944 19.7936 
66 1 1.27724 16.7535 19.7937 
74 1 1.27726 19.7937 16.7532 
106 1 3.11825 19.6957 19.6953 
114 1 1.37554 17.9527 19.6953 
122 1 1.37551 19.6954 17.9525 
138 1 0.721027 20.3492 20.3502 
15 1 8.52395 19.4674 19.4664 
31 1 10.1056 21.0488 21.048 
63 1 5.8109 19.7946 19.7936 
67 1 8.85163 16.7542 19.7939 
77 1 8.8517 19.7947 16.7537 
111 1 7.01011 19.6962 19.6953 
115 1 8.7531 17.9534 19.6953 
125 1 8.7532 19.6962 17.9529 
143 1 9.40761 20.3495 20.3504 
8 1 12.5466 1.60392 1.60448 
24 1 10.965 0.0225356 0.0225908 
40 1 15.2599 1.27627 1.27734 
44 1 12.2194 4.31658 1.27694 
54 1 12.2193 1.27646 4.31727 
88 1 14.0607 1.37476 1.37569 
92 1 12.3178 3.1174 1.37568 
102 1 12.3177 1.37482 3.11806 
136 1 11.6636 0.720575 0.720896 
1 1 19.4665 1.60429 1.60437 
17 1 21.048 0.0226194 0.0226618 
33 1 16.7533 1.27631 1.2773 
41 1 19.7936 4.31723 1.27735 
49 1 19.7936 1.27631 4.31738 
81 1 17.9525 1.3749 1.37556 
89 1 19.6952 3.118 1.37563 
97 1 19.6953 1.37487 3.11819 
129 1 20.3494 0.720887 0.720837 
3 1 12.5464 8.52328 1.60362 
19 1 10.9645 10.106 0.0231142 
35 1 15.2603 8.85099 1.27722 
45 1 12.219 5.80986 1.27646 
55 1 12.2156 8.85453 4.31438 
83 1 14.0611 8.75262 1.37557 
93 1 12.3173 7.00906 1.37491 
103 1 12.3163 8.75343 3.11486 
131 1 11.6635 9.40759 0.720586 
6 1 19.4664 8.52388 1.60433 
22 1 21.0478 10.1056 0.0227046 
38 1 16.7535 8.85102 1.27721 
48 1 19.7937 5.8106 1.27737 
52 1 19.7939 8.85179 4.31697 
86 1 17.9528 8.75276 1.37563 
96 1 19.6953 7.00981 1.37567 
100 1 19.6953 8.75315 3.11778 
134 1 20.3497 9.40743 0.721416 
5 1 12.5465 1.60401 8.52394 
21 1 10.9644 0.0224485 10.1056 
37 1 15.2603 1.27624 8.85186 
47 1 12.2153 4.31511 8.85522 
51 1 12.2191 1.27698 5.81055 
85 1 14.0611 1.37502 8.75344 
95 1 12.317 3.11553 8.75405 
99 1 12.3175 1.37563 7.00975 
133 1 11.6639 0.72026 9.40792 
4 1 19.4662 1.60415 8.52402 
20 1 21.0478 0.0229996 10.1061 
36 1 16.7535 1.2762 8.85164 
46 1 19.7935 4.31676 8.85171 
56 1 19.7936 1.27639 5.81089 
84 1 17.9527 1.37498 8.75314 
94 1 19.6949 3.11758 8.75311 
104 1 19.6952 1.37501 7.01004 
132 1 20.3494 0.721043 9.40766 
2 1 12.5979 8.48174 8.48251 
18 1 10.8026 10.0832 9.96545 
34 1 15.2698 8.85059 8.85234 
42 1 12.2175 5.80481 8.85114 
50 1 12.2228 8.84962 5.80435 
82 1 14.0729 8.72848 8.73172 
90 1 12.3376 7.00143 8.73337 
98 1 12.3468 8.73065 7.00001 
130 1 11.747 9.42932 9.47482 
7 1 19.4669 8.52358 8.52412 
23 1 21.0476 10.1062 10.1064 
39 1 16.757 8.85584 8.85593 
43 1 19.7937 5.80999 8.85198 
53 1 19.7938 8.85198 5.81011 
87 1 17.957 8.75403 8.75391 
91 1 19.6953 7.00916 8.75345 
101 1 19.6952 8.75341 7.0093 
135 1 20.3501 9.40786 9.40728 
ITEM: TIMESTEP
50
ITEM: NUMBER OF ATOMS
145
ITEM: BOX BOUNDS pp pp pp
0.0000000000000000e+00 2.1884000000000000e+01
0.0000000000000000e+00 2.1885999999999999e+01
0.0000000000000000e+00 2.1885000000000002e+01
ITEM: ATOMS id type x y z 
145 2 10.574 9.37892 8.67938 
16 1 1.60377 12.5473 12.5472 
32 1 0.0239743 10.9655 10.9652 
64 1 4.31527 12.2185 12.2183 
68 1 1.27749 15.2607 12.2194 
78 1 1.2775 12.2194 15.2606 
112 1 3.11648 12.3178 12.3178 
116 1 1.3753 14.0614 12.318 
126 1 1.37531 12.318 14.0614 
144 1 0.720829 11.6644 11.6645 
9 1 8.51727 12.5615 12.5655 
25 1 10.0804 10.9783 10.9713 
57 1 5.80916 12.2176 12.2173 
65 1 8.85304 15.2651 12.217 
73 1 8.85309 12.2181 15.2663 
105 1 7.00695 12.3203 12.3212 
113 1 8.75178 14.0669 12.322 
121 1 8.75084 12.3227 14.068 
137 1 9.41909 11.6725 11.6938 
11 1 1.60433 19.4675 12.5473 
27 1 0.0231381 21.0493 10.9658 
59 1 4.31721 19.7934 12.2195 
69 1 1.27755 16.7539 12.2195 
79 1 1.27765 19.7934 15.2599 
107 1 3.11799 19.6952 12.3178 
117 1 1.37572 17.9531 12.3177 
127 1 1.37575 19.6953 14.0607 
139 1 0.721184 20.3483 11.6617 
14 1 8.52322 19.4684 12.5466 
30 1 10.1051 21.0485 10.9642 
62 1 5.81051 19.7936 12.2194 
72 1 8.8525 16.7574 12.2181 
76 1 8.85159 19.7945 15.2607 
110 1 7.00969 19.6959 12.3179 
120 1 8.75326 17.9565 12.3179 
124 1 8.75323 19.6965 14.0615 
142 1 9.40854 20.3511 11.6651 
13 1 1.60463 12.5471 19.4671 
29 1 0.0233799 10.9656 21.0487 
61 1 4.31718 12.2197 19.7934 
71 1 1.27766 15.2603 19.7934 
75 1 1.27758 12.2195 16.7539 
109 1 3.118 12.3181 19.6953 
119 1 1.3758 14.0611 19.6953 
123 1 1.37576 12.3179 17.9531 
141 1 0.721059 11.6632 20.349 
12 1 8.52312 12.5476 19.469 
28 1 10.1052 10.9651 21.0489 
60 1 5.8106 12.2197 19.7936 
70 1 8.85162 15.2616 19.7939 
80 1 8.85283 12.2188 16.7579 
108 1 7.00972 12.3183 19.6959 
118 1 8.75335 14.0623 19.6962 
128 1 8.7534 12.3186 17.9571 
140 1 9.40878 11.6642 20.3494 
10 1 1.60422 19.4667 19.4663 
26 1 0.022869 21.0481 21.0482 
58 1 4.31726 19.794 19.7933 
66 1 1.2776 16.7535 19.7934 
74 1 1.27762 19.7934 16.7533 
106 1 3.11808 19.6955 19.6951 
114 1 1.37571 17.9528 19.6952 
122 1 1.37568 19.6952 17.9525 
138 1 0.721363 20.3496 20.3503 
15 1 8.52435 19.4672 19.4665 
31 1 10.1062 21.0483 21.0481 
63 1 5.81079 19.7943 19.7933 
67 1 8.85137 16.7544 19.7936 
77 1 8.85142 19.7945 16.754 
111 1 7.00998 19.696 19.6952 
115 1 8.75293 17.9537 19.6953 
125 1 8.75304 19.6961 17.9532 
143 1 9.40651 20.3508 20.3502 
8 1 12.5466 1.603 1.60491 
24 1 10.965 0.0216414 0.0234181 
40 1 15.2601 1.27662 1.27769 
44 1 12.2196 4.3164 1.27725 
54 1 12.2195 1.27684 4.31708 
88 1 14.0609 1.37486 1.37574 
92 1 12.318 3.11722 1.37561 
102 1 12.3179 1.37491 3.11789 
136 1 11.6636 0.72179 0.719596 
1 1 19.4665 1.60458 1.60375 
17 1 21.0479 0.0229644 0.0220288 
33 1 16.7534 1.2767 1.27764 
41 1 19.7933 4.31708 1.27769 
49 1 19.7933 1.27671 4.31729 
81 1 17.9526 1.37506 1.37573 
89 1 19.6951 3.11784 1.3758 
97 1 19.6951 1.37503 3.11809 
129 1 20.3497 0.719808 0.722013 
3 1 12.546 8.52295 1.60306 
19 1 10.9644 10.1055 0.023081 
35 1 15.2605 8.8508 1.27757 
45 1 12.2192 5.80979 1.27689 
55 1 12.2158 8.85442 4.31435 
83 1 14.0611 8.75238 1.37526 
93 1 12.3176 7.00901 1.37469 
103 1 12.3152 8.75457 3.11464 
131 1 11.6646 9.4076 0.720013 
6 1 19.4662 8.52387 1.60372 
22 1 21.0474 10.1059 0.022357 
38 1 16.7536 8.85082 1.27753 
48 1 19.7933 5.81045 1.27768 
52 1 19.7936 8.85161 4.31668 
86 1 17.9529 8.75258 1.37563 
96 1 19.6952 7.00968 1.37574 
100 1 19.6953 8.753 3.11743 
134 1 20.3505 9.40715 0.721765 
5 1 12.5468 1.60298 8.52376 
21 1 10.9653 0.0218254 10.1055 
37 1 15.2606 1.27662 8.8516 
47 1 12.2148 4.31506 8.85504 
51 1 12.2193 1.27732 5.81059 
85 1 14.0612 1.37482 8.75323 
95 1 12.3158 3.11537 8.75512 
99 1 12.3178 1.37538 7.00977 
133 1 11.663 0.721173 9.40753 
4 1 19.4666 1.60417 8.52417 
20 1 21.0481 0.0230299 10.1062 
36 1 16.7534 1.27659 8.85144 
46 1 19.7932 4.31624 8.85152 
56 1 19.7933 1.27676 5.81069 
84 1 17.9527 1.3749 8.75296 
94 1 19.6949 3.11709 8.75291 
104 1 19.6951 1.37502 7.00988 
132 1 20.3493 0.720373 9.40735 
2 1 12.5991 8.48273 8.48361 
18 1 10.7942 10.083 9.95991 
34 1 15.2717 8.8461 8.84886 
42 1 12.2204 5.80505 8.84755 
50 1 12.2275 8.84589 5.80454 
82 1 14.0745 8.72494 8.72919 
90 1 12.3402 7.00183 8.73152 
98 1 12.3508 8.72843 7.00038 
130 1 11.746 9.43356 9.47342 
7 1 19.4687 8.52279 8.52434 
23 1 21.0483 10.1056 10.1069 
39 1 16.7587 8.8561 8.85644 
43 1 19.7934 5.80968 8.85184 
53 1 19.7935 8.85183 5.80954 
87 1 17.9589 8.75532 8.75514 
91 1 19.6957 7.00884 8.75321 
101 1 19.6958 8.75321 7.00888 
135 1 20.3503 9.40901 9.40656 
ITEM: TIMESTEP
60
ITEM: NUMBER OF ATOMS
145
ITEM: BOX BOUNDS pp pp pp
0.0000000000000000e+00 2.1884000000000000e+01
0.0000000000000000e+00 2.1885999999999999e+01
0.0000000000000000e+00 2.1885000000000002e+01
ITEM: ATOMS id type x y z 
145 2 10.5723 9.36916 8.67618 
16 1 1.60324 12.5476 12.5478 
32 1 0.0237403 10.9656 10.966 
64 1 4.31537 12.2181 12.2178 
68 1 1.27766 15.2609 12.2197 
78 1 1.27768 12.2197 15.2608 
112 1 3.11648 12.3177 12.3176 
116 1 1.37527 14.0617 12.3182 
126 1 1.3753 12.3182 14.0615 
144 1 0.721036 11.6648 11.6646 
9 1 8.51696 12.5637 12.5691 
25 1 10.0714 10.9789 10.9678 
57 1 5.80903 12.2181 12.2178 
65 1 8.85283 15.2668 12.2173 
73 1 8.85287 12.2185 15.269 
105 1 7.00672 12.3223 12.3238 
113 1 8.75083 14.0686 12.3246 
121 1 8.74969 12.3249 14.0706 
137 1 9.41705 11.6722 11.6939 
11 1 1.60425 19.4667 12.5467 
27 1 0.0233833 21.0489 10.9651 
59 1 4.31696 19.7931 12.2196 
69 1 1.27787 16.7542 12.2197 
79 1 1.2779 19.7931 15.2602 
107 1 3.11766 19.6953 12.318 
117 1 1.37589 17.9534 12.3181 
127 1 1.37583 19.6954 14.0608 
139 1 0.720624 20.3488 11.6628 
14 1 8.52368 19.4696 12.5479 
30 1 10.106 21.0488 10.9646 
62 1 5.81001 19.7934 12.2196 
72 1 8.85299 16.7588 12.2173 
76 1 8.85139 19.7943 15.2608 
110 1 7.00935 19.6963 12.318 
120 1 8.75326 17.958 12.3175 
124 1 8.75283 19.6967 14.0616 
142 1 9.40796 20.352 11.6647 
13 1 1.60416 12.547 19.4667 
29 1 0.0230319 10.9652 21.048 
61 1 4.3169 12.2199 19.7932 
71 1 1.27792 15.2604 19.7931 
75 1 1.27785 12.2197 16.754 
109 1 3.11758 12.3182 19.6953 
119 1 1.3759 14.0612 19.6953 
123 1 1.37589 12.3181 17.9532 
141 1 0.721284 11.6636 20.3498 
12 1 8.52369 12.5483 19.4699 
28 1 10.1059 10.9651 21.0491 
60 1 5.80984 12.2198 19.7934 
70 1 8.85157 15.2618 19.7937 
80 1 8.85346 12.2179 16.7601 
108 1 7.00918 12.3185 19.6965 
118 1 8.75301 14.0626 19.6968 
128 1 8.75337 12.3183 17.9594 
140 1 9.40796 11.6635 20.3505 
10 1 1.60423 19.4665 19.4667 
26 1 0.0229756 21.0482 21.0483 
58 1 4.31735 19.7937 19.7929 
66 1 1.27792 16.7537 19.793 
74 1 1.27792 19.793 16.7534 
106 1 3.11809 19.6954 19.695 
114 1 1.37587 17.953 19.695 
122 1 1.37585 19.6951 17.9528 
138 1 0.721136 20.3503 20.3495 
15 1 8.52361 19.4678 19.4669 
31 1 10.1057 21.0485 21.0485 
63 1 5.81054 19.7939 19.793 
67 1 8.85118 16.755 19.7934 
77 1 8.85122 19.7942 16.754 
111 1 7.00982 19.6959 19.6951 
115 1 8.75285 17.9542 19.6952 
125 1 8.75295 19.696 17.9532 
143 1 9.40721 20.3505 20.3501 
8 1 12.5469 1.60357 1.60405 
24 1 10.9655 0.0219203 0.0227245 
40 1 15.2602 1.27699 1.27795 
44 1 12.2198 4.31624 1.27754 
54 1 12.2197 1.27725 4.31731 
88 1 14.0609 1.37483 1.37594 
92 1 12.3182 3.11692 1.37579 
102 1 12.318 1.37486 3.1179 
136 1 11.6632 0.721439 0.720421 
1 1 19.4666 1.60391 1.60439 
17 1 21.0478 0.0223102 0.0225368 
33 1 16.7534 1.27703 1.27798 
41 1 19.793 4.31707 1.27803 
49 1 19.793 1.27708 4.31717 
81 1 17.9527 1.37529 1.37577 
89 1 19.6949 3.11777 1.37581 
97 1 19.6949 1.37533 3.11787 