ITEM: TIMESTEP
0
ITEM: NUMBER OF ATOMS
57
ITEM: BOX BOUNDS pp pp pp
0.0000000000000000e+00 3.2808000000000000e+01
0.0000000000000000e+00 1.7780000000000001e+01
0.0000000000000000e+00 2.4729999999999999e+00
ITEM: ATOMS id type x y z 
13 1 7.043 0.849 2.464 
29 1 7.397 1.432 1.228 
37 1 8.035 2.733 1.228 
57 2 1.81 0.968 2.464 
1 1 6.173 17.398 2.464 
5 1 5.371 17.398 1.228 
9 1 3.973 17.398 1.228 
16 1 7.043 16.167 2.464 
32 1 7.397 15.584 1.228 
40 1 8.035 14.283 1.228 
45 1 3.236 17.398 2.464 
49 1 1.81 17.398 2.464 
53 1 1.083 17.398 1.228 
4 1 10.968 8.508 2.464 
8 1 11.771 8.508 1.228 
12 1 13.168 8.508 1.228 
18 1 10.098 7.277 2.464 
21 1 8.308 3.392 2.464 
26 1 8.833 4.734 2.464 
34 1 9.745 6.694 1.228 
42 1 9.106 5.393 1.228 
48 1 13.906 8.508 2.464 
52 1 15.331 8.508 2.464 
56 1 16.058 8.508 1.228 
19 1 10.098 9.739 2.464 
24 1 8.308 13.624 2.464 
27 1 8.833 12.282 2.464 
35 1 9.745 10.322 1.228 
43 1 9.106 11.623 1.228 
3 1 22.577 8.508 2.464 
7 1 21.775 8.508 1.228 
11 1 20.377 8.508 1.228 
20 1 23.447 7.277 2.464 
36 1 23.801 6.694 1.228 
44 1 24.439 5.393 1.228 
47 1 19.64 8.508 2.464 
51 1 18.214 8.508 2.464 
55 1 17.487 8.508 1.228 
17 1 23.447 9.739 2.464 
33 1 23.801 10.322 1.228 
41 1 24.439 11.623 1.228 
15 1 26.502 0.849 2.464 
23 1 25.237 3.392 2.464 
28 1 24.712 4.734 2.464 
31 1 26.149 1.432 1.228 
39 1 25.511 2.733 1.228 
2 1 27.373 17.398 2.464 
6 1 28.175 17.398 1.228 
10 1 29.572 17.398 1.228 
14 1 26.502 16.167 2.464 
22 1 25.237 13.624 2.464 
25 1 24.712 12.282 2.464 
30 1 26.149 15.584 1.228 
38 1 25.511 14.283 1.228 
46 1 30.31 17.398 2.464 
50 1 31.735 17.398 2.464 
54 1 32.462 17.398 1.228 
ITEM: TIMESTEP
10
ITEM: NUMBER OF ATOMS
57
ITEM: BOX BOUNDS pp pp pp
0.0000000000000000e+00 3.2808000000000000e+01
0.0000000000000000e+00 1.7780000000000001e+01
0.0000000000000000e+00 2.4729999999999999e+00
ITEM: ATOMS id type x y z 
13 1 7.04322 0.797733 2.46417 
29 1 7.41156 1.38074 1.22785 
37 1 8.06757 2.72651 1.22783 
57 2 1.74067 1.38125 2.46405 
1 1 6.10195 17.4081 2.46414 
5 1 5.3564 17.3951 1.22781 
9 1 3.90091 17.3547 1.22787 
16 1 7.05012 16.2177 2.46418 
32 1 7.40904 15.6421 1.22785 
40 1 8.06906 14.2899 1.22783 
45 1 3.15677 17.2244 2.4642 
49 1 1.8358 17.5357 2.46404 
53 1 1.17904 17.0863 1.22786 
4 1 10.9423 8.50777 2.46412 
8 1 11.7661 8.50797 1.22785 
12 1 13.1728 8.508 1.22783 
18 1 10.0512 7.29316 2.46417 
21 1 8.32381 3.39862 2.46417 
26 1 8.8091 4.70738 2.46416 
34 1 9.70139 6.69896 1.22785 
42 1 9.06735 5.39145 1.22783 
48 1 13.8924 8.508 2.46417 
52 1 15.3196 8.508 2.46417 
56 1 16.046 8.508 1.22783 
19 1 10.0512 9.72275 2.46417 
24 1 8.32999 13.6016 2.46416 
27 1 8.81091 12.3038 2.46416 
35 1 9.70103 10.3177 1.22785 
43 1 9.06738 11.6245 1.22783 
3 1 22.6012 8.508 2.46412 
7 1 21.7642 8.508 1.22785 
11 1 20.3518 8.508 1.22783 
20 1 23.5011 7.28889 2.46418 
36 1 23.8598 6.66765 1.22785 
44 1 24.4823 5.37566 1.22783 
47 1 19.669 8.508 2.46417 
51 1 18.2447 8.508 2.46417 
55 1 17.4795 8.508 1.22783 
17 1 23.5011 9.72711 2.46418 
33 1 23.8598 10.3483 1.22785 
41 1 24.4823 11.6403 1.22783 
15 1 26.4658 0.830198 2.46419 
23 1 25.2137 3.41606 2.46416 
28 1 24.7153 4.75968 2.46416 
31 1 26.107 1.4289 1.22785 
39 1 25.4903 2.69404 1.22784 
2 1 27.404 17.398 2.46411 
6 1 28.216 17.3978 1.22782 
10 1 29.6425 17.3979 1.22784 
14 1 26.4658 16.1858 2.46419 
22 1 25.2137 13.5999 2.46416 
25 1 24.7153 12.2563 2.46416 
30 1 26.107 15.5871 1.22785 
38 1 25.4903 14.322 1.22784 
46 1 30.3234 17.4032 2.46418 
50 1 31.7699 17.4124 2.46417 
54 1 32.5692 17.3628 1.22782 
ITEM: TIMESTEP
20
ITEM: NUMBER OF ATOMS
57
ITEM: BOX BOUNDS pp pp pp
0.0000000000000000e+00 3.2808000000000000e+01
0.0000000000000000e+00 1.7780000000000001e+01
0.0000000000000000e+00 2.4729999999999999e+00
ITEM: ATOMS id type x y z 
13 1 7.04151 0.790775 2.46424 
29 1 7.42362 1.38319 1.22778 
37 1 8.07524 2.72654 1.22776 
57 2 1.74375 1.38554 2.46406 
1 1 6.12718 17.4142 2.4642 
5 1 5.34175 17.3998 1.22774 
9 1 3.88365 17.347 1.22779 
16 1 7.05264 16.223 2.46424 
32 1 7.42743 15.6263 1.22778 
40 1 8.07557 14.2907 1.22776 
45 1 3.14354 17.2218 2.46427 
49 1 1.80222 17.5569 2.46418 
53 1 1.15775 17.0717 1.22772 
4 1 10.9522 8.50462 2.4642 
8 1 11.7791 8.50749 1.22775 
12 1 13.1843 8.50803 1.22777 
18 1 10.0471 7.30301 2.46424 
21 1 8.32604 3.39899 2.46423 
26 1 8.7991 4.68571 2.46422 
34 1 9.6921 6.70251 1.22779 
42 1 9.04968 5.37503 1.22776 
48 1 13.8891 8.50801 2.46423 
52 1 15.3139 8.508 2.46423 
56 1 16.0553 8.508 1.22777 
19 1 10.0471 9.71112 2.46424 
24 1 8.32801 13.6121 2.46423 
27 1 8.79892 12.3307 2.46422 
35 1 9.69214 10.3124 1.22779 
43 1 9.04932 11.6399 1.22776 
3 1 22.5979 8.508 2.4642 
7 1 21.7702 8.508 1.22776 
11 1 20.3686 8.508 1.22777 
20 1 23.5044 7.29179 2.46425 
36 1 23.8636 6.67397 1.22778 
44 1 24.4774 5.3982 1.22776 
47 1 19.6804 8.508 2.46423 
51 1 18.2422 8.508 2.46423 
55 1 17.4824 8.508 1.22777 
17 1 23.5044 9.72421 2.46425 
33 1 23.8636 10.342 1.22778 
41 1 24.4774 11.6178 1.22776 
15 1 26.468 0.824525 2.46425 
23 1 25.2216 3.38861 2.46423 
28 1 24.7159 4.76708 2.46422 
31 1 26.1013 1.42797 1.22778 
39 1 25.483 2.695 1.22777 
2 1 27.4056 17.398 2.46419 
6 1 28.2233 17.3976 1.22774 
10 1 29.6251 17.3979 1.22778 
14 1 26.468 16.1915 2.46425 
22 1 25.2216 13.6274 2.46423 
25 1 24.7159 12.2489 2.46422 
30 1 26.1013 15.588 1.22778 
38 1 25.483 14.321 1.22777 
46 1 30.3576 17.4056 2.46424 
50 1 31.8039 17.414 2.46423 
54 1 32.5542 17.3539 1.22776 
ITEM: TIMESTEP
30
ITEM: NUMBER OF ATOMS
57
ITEM: BOX BOUNDS pp pp pp
0.0000000000000000e+00 3.2808000000000000e+01
0.0000000000000000e+00 1.7780000000000001e+01
0.0000000000000000e+00 2.4729999999999999e+00
ITEM: ATOMS id type x y z 
13 1 7.04014 0.789762 2.46427 
29 1 7.43371 1.3782 1.22775 
37 1 8.08228 2.7183 1.22774 
57 2 1.74555 1.38621 2.46407 
1 1 6.11814 17.4241 2.46423 
5 1 5.32995 17.4059 1.22772 
9 1 3.88559 17.3352 1.22777 
16 1 7.05829 16.2216 2.46427 
32 1 7.43878 15.628 1.22776 
40 1 8.08201 14.3024 1.22774 
45 1 3.13552 17.2239 2.46428 
49 1 1.77949 17.5829 2.46422 
53 1 1.16096 17.0515 1.22768 
4 1 10.9579 8.50643 2.46424 
8 1 11.7858 8.50739 1.22772 
12 1 13.1902 8.50811 1.22775 
18 1 10.0376 7.30343 2.46427 
21 1 8.32915 3.39888 2.46426 
26 1 8.7933 4.6772 2.46425 
34 1 9.67776 6.69957 1.22776 
42 1 9.03757 5.37351 1.22773 
48 1 13.8754 8.50804 2.46426 
52 1 15.3007 8.508 2.46426 
56 1 16.0697 8.508 1.22774 
19 1 10.0377 9.71075 2.46427 
24 1 8.33226 13.6089 2.46426 
27 1 8.79397 12.3365 2.46425 
35 1 9.67911 10.3134 1.22776 
43 1 9.03826 11.6385 1.22773 
3 1 22.6017 8.508 2.46424 
7 1 21.7727 8.508 1.22772 
11 1 20.3694 8.508 1.22774 
20 1 23.515 7.2895 2.46427 
36 1 23.8731 6.67543 1.22775 
44 1 24.47 5.43263 1.22774 
47 1 19.6902 8.508 2.46426 
51 1 18.2434 8.508 2.46426 
55 1 17.4884 8.508 1.22774 
17 1 23.515 9.7265 2.46427 
33 1 23.8731 10.3406 1.22775 
41 1 24.47 11.5834 1.22774 
15 1 26.4659 0.825139 2.46427 
23 1 25.2295 3.35732 2.46426 
28 1 24.7232 4.76049 2.46425 
31 1 26.0938 1.42656 1.22776 
39 1 25.4783 2.68764 1.22774 
2 1 27.3986 17.398 2.46422 
6 1 28.2265 17.3972 1.22771 
10 1 29.6186 17.3981 1.22775 
14 1 26.4657 16.1909 2.46427 
22 1 25.2295 13.6587 2.46426 
25 1 24.7232 12.2555 2.46425 
30 1 26.0937 15.5894 1.22776 
38 1 25.4783 14.3283 1.22774 
46 1 30.3698 17.4096 2.46427 
50 1 31.8178 17.4203 2.46425 
54 1 32.5601 17.3423 1.22774 
ITEM: TIMESTEP
40
ITEM: NUMBER OF ATOMS
57
ITEM: BOX BOUNDS pp pp pp
0.0000000000000000e+00 3.2808000000000000e+01
0.0000000000000000e+00 1.7780000000000001e+01
0.0000000000000000e+00 2.4729999999999999e+00
ITEM: ATOMS id type x y z 
13 1 7.03336 0.792104 2.46425 
29 1 7.47815 1.35048 1.22776 
37 1 8.11842 2.67966 1.22775 
57 2 1.73402 1.36034 2.46412 
1 1 6.07515 17.4174 2.46424 
5 1 5.30058 17.4216 1.22775 
9 1 3.85585 17.2718 1.22775 
16 1 7.0646 16.2154 2.46425 
32 1 7.46184 15.6645 1.22776 
40 1 8.11364 14.3576 1.22776 
45 1 3.10561 17.2545 2.46424 
49 1 1.73856 17.6531 2.46421 
53 1 1.1709 17.0343 1.22771 
4 1 10.9501 8.50751 2.46424 
8 1 11.7685 8.50598 1.22776 
12 1 13.1727 8.50828 1.22776 
18 1 10.0089 7.29663 2.46425 
21 1 8.33915 3.37771 2.46424 
26 1 8.78231 4.68863 2.46424 
34 1 9.63723 6.71694 1.22776 
42 1 9.0002 5.40378 1.22776 
48 1 13.8885 8.50829 2.46424 
52 1 15.3701 8.50802 2.46424 
56 1 16.091 8.50799 1.22776 
19 1 10.0101 9.71463 2.46425 
24 1 8.33696 13.6435 2.46424 
27 1 8.78514 12.3174 2.46424 
35 1 9.63967 10.2936 1.22776 
43 1 9.00269 11.5995 1.22776 
3 1 22.6192 8.50797 2.46424 
7 1 21.7938 8.508 1.22775 
11 1 20.396 8.508 1.22775 
20 1 23.5429 7.29927 2.46425 
36 1 23.9103 6.6918 1.22776 
44 1 24.5073 5.43262 1.22776 
47 1 19.6641 8.508 2.46424 
51 1 18.1955 8.508 2.46424 
55 1 17.4544 8.508 1.22776 
17 1 23.5429 9.71671 2.46425 
33 1 23.9103 10.3242 1.22776 
41 1 24.5073 11.5833 1.22776 
15 1 26.4696 0.815876 2.46425 
23 1 25.2154 3.34293 2.46424 
28 1 24.7471 4.7438 2.46424 
31 1 26.0692 1.40089 1.22776 
39 1 25.4564 2.65285 1.22776 
2 1 27.4168 17.3979 2.46423 
6 1 28.2357 17.3945 1.22775 
10 1 29.6364 17.4015 1.22776 
14 1 26.4685 16.2002 2.46425 
22 1 25.2154 13.673 2.46424 
25 1 24.7471 12.272 2.46424 
30 1 26.0687 15.6147 1.22776 
38 1 25.4563 14.363 1.22776 
46 1 30.3908 17.4307 2.46424 
50 1 31.8361 17.4388 2.46423 
54 1 32.5736 17.2862 1.22774 
ITEM: TIMESTEP
50
ITEM: NUMBER OF ATOMS
57
ITEM: BOX BOUNDS pp pp pp
0.0000000000000000e+00 3.2808000000000000e+01
0.0000000000000000e+00 1.7780000000000001e+01
0.0000000000000000e+00 2.4729999999999999e+00
ITEM: ATOMS id type x y z 
13 1 7.04754 0.816572 2.46426 
29 1 7.49172 1.34057 1.22775 
37 1 8.14005 2.65007 1.22775 
57 2 1.71899 1.35504 2.46414 
1 1 6.05932 17.4072 2.46425 
5 1 5.28681 17.4098 1.22774 
9 1 3.84686 17.2427 1.22774 
16 1 7.03797 16.23 2.46426 
32 1 7.47511 15.6749 1.22775 
40 1 8.14292 14.3677 1.22775 
45 1 3.09515 17.2667 2.46424 
49 1 1.73421 17.6749 2.46421 
53 1 1.17175 17.0405 1.22771 
4 1 10.9326 8.50099 2.46425 
8 1 11.7651 8.50429 1.22774 
12 1 13.1545 8.50826 1.22774 
18 1 10.005 7.304 2.46426 
21 1 8.34809 3.3602 2.46425 
26 1 8.77131 4.69846 2.46425 
34 1 9.61503 6.72422 1.22775 
42 1 8.97109 5.40624 1.22774 
48 1 13.9051 8.50866 2.46425 
52 1 15.3572 8.50808 2.46425 
56 1 16.1085 8.50797 1.22775 
19 1 10.0049 9.7061 2.46426 
24 1 8.34976 13.6551 2.46425 
27 1 8.76973 12.3187 2.46425 
35 1 9.61528 10.2883 1.22775 
43 1 8.96948 11.6074 1.22774 
3 1 22.6298 8.50789 2.46425 
7 1 21.7939 8.50797 1.22774 
11 1 20.3995 8.508 1.22774 
20 1 23.5557 7.29713 2.46425 
36 1 23.9329 6.69522 1.22775 
44 1 24.5274 5.43477 1.22775 
47 1 19.6692 8.508 2.46425 
51 1 18.1992 8.508 2.46425 
55 1 17.461 8.50798 1.22775 
17 1 23.5556 9.71878 2.46425 
33 1 23.9329 10.3207 1.22775 
41 1 24.5273 11.5808 1.22775 
15 1 26.4754 0.813591 2.46425 
23 1 25.2057 3.33384 2.46426 
28 1 24.7582 4.74287 2.46425 
31 1 26.0594 1.38494 1.22775 
39 1 25.4337 2.64844 1.22775 
2 1 27.4273 17.3975 2.46425 
6 1 28.2522 17.3923 1.22774 
10 1 29.6471 17.4072 1.22775 
14 1 26.473 16.2026 2.46425 
22 1 25.2056 13.6819 2.46426 
25 1 24.7581 12.2726 2.46425 
30 1 26.0582 15.6303 1.22775 
38 1 25.4335 14.3672 1.22775 
46 1 30.3961 17.4444 2.46425 
50 1 31.8467 17.4342 2.46424 
54 1 32.5755 17.2632 1.22773 
ITEM: TIMESTEP
60
ITEM: NUMBER OF ATOMS
57
ITEM: BOX BOUNDS pp pp pp
0.0000000000000000e+00 3.2808000000000000e+01
0.0000000000000000e+00 1.7780000000000001e+01
0.0000000000000000e+00 2.4729999999999999e+00
ITEM: ATOMS id type x y z 
13 1 7.0382 0.804695 2.46425 
29 1 7.49529 1.3349 1.22775 
37 1 8.15689 2.64478 1.22775 
57 2 1.71247 1.35769 2.46415 
1 1 6.05889 17.4058 2.46425 
5 1 5.2855 17.4057 1.22775 
9 1 3.84006 17.2317 1.22774 
16 1 7.03876 16.2219 2.46425 
32 1 7.47677 15.6802 1.22775 
40 1 8.14915 14.3802 1.22775 
45 1 3.09875 17.2701 2.46424 
49 1 1.73309 17.6845 2.46421 
53 1 1.17725 17.0389 1.22771 
4 1 10.9372 8.50799 2.46425 
8 1 11.7623 8.50533 1.22775 
12 1 13.1588 8.50819 1.22775 
18 1 10.0002 7.30307 2.46425 
21 1 8.35578 3.36002 2.46425 
26 1 8.76307 4.69569 2.46425 
34 1 9.6052 6.72716 1.22775 
42 1 8.96132 5.41551 1.22775 
48 1 13.8925 8.50882 2.46425 
52 1 15.3582 8.50812 2.46425 
56 1 16.0994 8.50795 1.22775 
19 1 9.99941 9.71099 2.46425 
24 1 8.35473 13.6659 2.46425 
27 1 8.76308 12.3168 2.46425 
35 1 9.60562 10.2885 1.22775 
43 1 8.96319 11.5971 1.22775 
3 1 22.6291 8.50785 2.46425 
7 1 21.8012 8.50794 1.22775 
11 1 20.4071 8.508 1.22775 
20 1 23.5583 7.29893 2.46425 
36 1 23.9393 6.70208 1.22775 
44 1 24.5368 5.43597 1.22775 
47 1 19.6702 8.50801 2.46425 
51 1 18.2045 8.508 2.46425 
55 1 17.4644 8.50797 1.22775 
17 1 23.5583 9.71692 2.46425 
33 1 23.9392 10.3137 1.22775 
41 1 24.5366 11.5795 1.22775 
15 1 26.4781 0.812834 2.46425 
23 1 25.1993 3.33359 2.46425 
28 1 24.7634 4.74249 2.46425 
31 1 26.0552 1.37923 1.22775 
39 1 25.4252 2.64101 1.22775 
2 1 27.4306 17.3972 2.46424 
6 1 28.2527 17.3913 1.22775 
10 1 29.6499 17.4106 1.22775 
14 1 26.4748 16.2034 2.46425 
22 1 25.1991 13.682 2.46425 
25 1 24.7633 12.2728 2.46425 
30 1 26.0534 15.6357 1.22775 
38 1 25.4248 14.3745 1.22775 
46 1 30.4007 17.4507 2.46425 
50 1 31.8476 17.4319 2.46423 
54 1 32.5768 17.2535 1.22774 
ITEM: TIMESTEP
70
ITEM: NUMBER OF ATOMS
57
ITEM: BOX BOUNDS pp pp pp
0.0000000000000000e+00 3.2808000000000000e+01
0.0000000000000000e+00 1.7780000000000001e+01
0.0000000000000000e+00 2.4729999999999999e+00
ITEM: ATOMS id type x y z 
13 1 7.02773 0.806154 2.46425 
29 1 7.5196 1.31906 1.22774 
37 1 8.23241 2.58252 1.22775 
57 2 1.66927 1.36615 2.46419 
1 1 6.04579 17.4228 2.46425 
5 1 5.26472 17.3808 1.22774 
9 1 3.83522 17.1598 1.22773 
16 1 7.01907 16.2139 2.46425 
32 1 7.49494 15.7117 1.22775 
40 1 8.21668 14.4472 1.22775 
45 1 3.09729 17.2989 2.46423 
49 1 1.72558 17.7359 2.46421 
53 1 1.19268 17.0525 1.22771 
4 1 10.9107 8.50469 2.46426 
8 1 11.7394 8.5073 1.22775 
12 1 13.1322 8.50769 1.22775 
18 1 9.97602 7.30397 2.46425 
21 1 8.39804 3.30885 2.46425 
26 1 8.72086 4.72783 2.46425 
34 1 9.54998 6.74276 1.22775 
42 1 8.89414 5.44912 1.22775 
48 1 13.8864 8.50963 2.46425 
52 1 15.3335 8.50846 2.46425 
56 1 16.0867 8.50785 1.22775 
19 1 9.97704 9.71056 2.46425 
24 1 8.39529 13.719 2.46425 
27 1 8.72275 12.2913 2.46426 
35 1 9.55104 10.2708 1.22775 
43 1 8.89673 11.5589 1.22775 
3 1 22.6427 8.50746 2.46425 
7 1 21.8185 8.50773 1.22775 
11 1 20.4219 8.50802 1.22774 
20 1 23.5829 7.305 2.46425 
36 1 23.9919 6.73234 1.22775 
44 1 24.6043 5.44224 1.22775 
47 1 19.6823 8.50804 2.46425 
51 1 18.2237 8.508 2.46425 
55 1 17.4811 8.50787 1.22775 
17 1 23.5828 9.71037 2.46425 
33 1 23.9919 10.283 1.22775 
41 1 24.6039 11.5721 1.22775 
15 1 26.495 0.807867 2.46425 
23 1 25.159 3.31454 2.46426 
28 1 24.8014 4.73589 2.46425 
31 1 26.0321 1.33803 1.22775 
39 1 25.3579 2.60961 1.22775 
2 1 27.4515 17.3949 2.46425 
6 1 28.2739 17.3852 1.22775 
10 1 29.6694 17.4369 1.22774 
14 1 26.4856 16.2089 2.46425 
22 1 25.1586 13.7002 2.46426 
25 1 24.8008 12.2775 2.46425 
30 1 26.0255 15.6752 1.22775 
38 1 25.3568 14.4048 1.22775 
46 1 30.4224 17.492 2.46425 
50 1 31.8641 17.4073 2.46423 
54 1 32.5877 17.1889 1.22773 
ITEM: TIMESTEP
80
ITEM: NUMBER OF ATOMS
57
ITEM: BOX BOUNDS pp pp pp
0.0000000000000000e+00 3.2808000000000000e+01
0.0000000000000000e+00 1.7780000000000001e+01
0.0000000000000000e+00 2.4729999999999999e+00
ITEM: ATOMS id type x y z 
13 1 7.03137 0.805595 2.46425 
29 1 7.51616 1.3197 1.22775 
37 1 8.23466 2.58733 1.22775 
57 2 1.66459 1.37213 2.46419 
1 1 6.05458 17.4139 2.46425 
5 1 5.27543 17.3761 1.22775 
9 1 3.83949 17.16 1.22773 
16 1 7.02354 16.2172 2.46425 
32 1 7.49566 15.6984 1.22775 
40 1 8.21728 14.4286 1.22775 
45 1 3.10766 17.2978 2.46423 
49 1 1.72847 17.7337 2.46421 
53 1 1.19591 17.0589 1.22771 
4 1 10.903 8.51078 2.46425 
8 1 11.7305 8.50803 1.22775 
12 1 13.1266 8.50787 1.22775 
18 1 9.97105 7.30464 2.46425 
21 1 8.40624 3.30881 2.46425 
26 1 8.7146 4.72497 2.46425 
34 1 9.54931 6.743 1.22775 
42 1 8.89071 5.44374 1.22775 
48 1 13.8755 8.50947 2.46425 
52 1 15.328 8.50851 2.46425 
56 1 16.0747 8.50786 1.22775 
19 1 9.97022 9.71397 2.46425 
24 1 8.40262 13.7133 2.46425 
27 1 8.71653 12.2982 2.46425 
35 1 9.54891 10.2779 1.22775 
43 1 8.89373 11.5816 1.22775 
3 1 22.6438 8.508 2.46425 
7 1 21.8184 8.50776 1.22775 
11 1 20.4219 8.50802 1.22775 
20 1 23.5846 7.3074 2.46425 
36 1 23.9978 6.73633 1.22775 
44 1 24.6145 5.44901 1.22775 
47 1 19.6795 8.50806 2.46425 
51 1 18.223 8.508 2.46425 
55 1 17.4806 8.50784 1.22775 
17 1 23.5847 9.70847 2.46425 
33 1 23.9981 10.28 1.22775 
41 1 24.6137 11.566 1.22775 
15 1 26.4989 0.804921 2.46425 
23 1 25.1503 3.31956 2.46425 
28 1 24.8086 4.72922 2.46425 
31 1 26.0321 1.32857 1.22775 
39 1 25.3437 2.60492 1.22775 
2 1 27.4566 17.3933 2.46425 
6 1 28.2769 17.3847 1.22775 
10 1 29.673 17.4422 1.22774 
14 1 26.4879 16.211 2.46425 
22 1 25.1503 13.6969 2.46425 
25 1 24.8075 12.282 2.46425 
30 1 26.0234 15.6822 1.22775 
38 1 25.3439 14.4099 1.22775 
46 1 30.424 17.4966 2.46424 
50 1 31.8658 17.4011 2.46423 
54 1 32.5905 17.1819 1.22773 
ITEM: TIMESTEP
90
ITEM: NUMBER OF ATOMS
57
ITEM: BOX BOUNDS pp pp pp
0.0000000000000000e+00 3.2808000000000000e+01
0.0000000000000000e+00 1.7780000000000001e+01
0.0000000000000000e+00 2.4729999999999999e+00
ITEM: ATOMS id type x y z 
13 1 7.03499 0.808511 2.46425 
29 1 7.51672 1.32335 1.22775 
37 1 8.24054 2.58506 1.22775 
57 2 1.65881 1.37705 2.46419 
1 1 6.0594 17.4131 2.46425 
5 1 5.28196 17.3715 1.22775 
9 1 3.84521 17.1569 1.22773 
16 1 7.03016 16.2161 2.46425 
32 1 7.49687 15.6945 1.22775 
40 1 8.22353 14.4318 1.22775 
45 1 3.11482 17.3001 2.46422 
49 1 1.73514 17.7376 2.46421 
53 1 1.20164 17.0635 1.22771 
4 1 10.8947 8.51019 2.46425 
8 1 11.7221 8.50879 1.22775 
12 1 13.1172 8.50802 1.22775 
18 1 9.96301 7.30421 2.46425 
21 1 8.41761 3.3068 2.46425 
26 1 8.7067 4.72441 2.46425 
34 1 9.54408 6.74094 1.22775 
42 1 8.88472 5.44533 1.22775 
48 1 13.8657 8.50926 2.46425 
52 1 15.3185 8.50857 2.46425 
56 1 16.0625 8.50787 1.22775 
19 1 9.96196 9.71575 2.46425 
24 1 8.41284 13.7127 2.46425 
27 1 8.70925 12.3003 2.46425 
35 1 9.54403 10.2798 1.22775 
43 1 8.88838 11.5788 1.22775 
3 1 22.6398 8.50788 2.46425 
7 1 21.8158 8.5079 1.22775 
11 1 20.4211 8.50799 1.22775 
20 1 23.5862 7.31101 2.46425 
36 1 24.0063 6.74716 1.22775 
44 1 24.6393 5.44729 1.22775 
47 1 19.6769 8.50807 2.46425 
51 1 18.2205 8.50799 2.46425 
55 1 17.4796 8.5078 1.22775 
17 1 23.5865 9.70523 2.46425 
33 1 24.0071 10.2697 1.22775 
41 1 24.6363 11.5625 1.22775 
15 1 26.5026 0.804336 2.46425 
23 1 25.1389 3.31678 2.46425 
28 1 24.8202 4.71919 2.46425 
31 1 26.028 1.32199 1.22775 
39 1 25.3219 2.59638 1.22775 
2 1 27.4602 17.394 2.46425 
6 1 28.2824 17.3839 1.22775 
10 1 29.6781 17.4508 1.22774 
14 1 26.4911 16.2135 2.46425 
22 1 25.1376 13.696 2.46425 
25 1 24.8195 12.292 2.46425 
30 1 26.0189 15.6936 1.22775 
38 1 25.319 14.4153 1.22775 
46 1 30.431 17.5051 2.46424 
50 1 31.8702 17.3912 2.46423 
54 1 32.5928 17.1706 1.22773 
ITEM: TIMESTEP
100
ITEM: NUMBER OF ATOMS
57
ITEM: BOX BOUNDS pp pp pp
0.0000000000000000e+00 3.2808000000000000e+01
0.0000000000000000e+00 1.7780000000000001e+01
0.0000000000000000e+00 2.4729999999999999e+00
ITEM: ATOMS id type x y z 
13 1 7.03815 0.813565 2.46425 
29 1 7.52003 1.3278 1.22775 
37 1 8.26066 2.57364 1.22775 
57 2 1.64927 1.38567 2.4642 
1 1 6.0676 17.4134 2.46425 
5 1 5.28985 17.3638 1.22774 
9 1 3.85385 17.1492 1.22772 
16 1 7.04034 16.2153 2.46425 
32 1 7.50272 15.6929 1.22775 
40 1 8.24711 14.4383 1.22775 
45 1 3.12608 17.3067 2.46422 
49 1 1.74236 17.7479 2.46421 
53 1 1.207 17.0753 1.22771 
4 1 10.8755 8.50806 2.46425 
8 1 11.705 8.50961 1.22775 
12 1 13.0972 8.50837 1.22775 
18 1 9.94556 7.30202 2.46425 
21 1 8.43956 3.2973 2.46425 
26 1 8.69229 4.7275 2.46425 
34 1 9.52739 6.73786 1.22775 
42 1 8.86311 5.44906 1.22775 
48 1 13.8494 8.50889 2.46425 
52 1 15.2966 8.50861 2.46425 
56 1 16.0404 8.50789 1.22775 
19 1 9.946 9.71658 2.46425 
24 1 8.43346 13.7169 2.46425 
27 1 8.69472 12.3032 2.46425 
35 1 9.52844 10.2807 1.22775 
43 1 8.86553 11.5765 1.22775 
3 1 22.6538 8.5068 2.46425 
7 1 21.8275 8.5067 1.22775 
11 1 20.4336 8.50813 1.22775 
20 1 23.5956 7.30835 2.46425 
36 1 24.0251 6.75185 1.22775 
44 1 24.6779 5.4465 1.22775 
47 1 19.678 8.50814 2.46425 
51 1 18.234 8.50797 2.46425 
55 1 17.4874 8.50771 1.22775 
17 1 23.5944 9.70361 2.46425 
33 1 24.0236 10.2598 1.22775 
41 1 24.6782 11.563 1.22775 
15 1 26.5027 0.804881 2.46425 
23 1 25.1145 3.30186 2.46425 
28 1 24.8388 4.72133 2.46425 
31 1 26.0244 1.31972 1.22775 
39 1 25.29 2.57892 1.22775 
2 1 27.4607 17.3912 2.46425 
6 1 28.2833 17.3857 1.22775 
10 1 29.6783 17.4708 1.22774 
14 1 26.4886 16.2136 2.46425 
22 1 25.1146 13.718 2.46425 
25 1 24.8366 12.2799 2.46425 
30 1 26.0099 15.6951 1.22775 
38 1 25.2865 14.4401 1.22775 
46 1 30.4355 17.5196 2.46424 
50 1 31.8681 17.3674 2.46423 
54 1 32.5941 17.1468 1.22773 
ITEM: TIMESTEP
110
ITEM: NUMBER OF ATOMS
57
ITEM: BOX BOUNDS pp pp pp
0.0000000000000000e+00 3.2808000000000000e+01
0.0000000000000000e+00 1.7780000000000001e+01
0.0000000000000000e+00 2.4729999999999999e+00
ITEM: ATOMS id type x y z 
13 1 7.03996 0.815988 2.46425 
29 1 7.52162 1.32935 1.22775 
37 1 8.27761 2.5713 1.22775 
57 2 1.64364 1.39427 2.4642 
1 1 6.07528 17.4122 2.46424 
5 1 5.2946 17.3574 1.22774 
9 1 3.8609 17.1471 1.22772 
16 1 7.04805 16.2151 2.46425 
32 1 7.51 15.6907 1.22775 
40 1 8.26196 14.4463 1.22775 
45 1 3.13233 17.3085 2.46422 
49 1 1.74157 17.7511 2.46422 
53 1 1.2037 17.0907 1.22771 
4 1 10.8804 8.50802 2.46425 
8 1 11.6946 8.50956 1.22775 
12 1 13.1028 8.50869 1.22775 
18 1 9.93701 7.30483 2.46425 
21 1 8.45483 3.29494 2.46425 
26 1 8.68323 4.72705 2.46425 
34 1 9.52102 6.74487 1.22775 
42 1 8.84774 5.44832 1.22775 
48 1 13.8658 8.50867 2.46425 
52 1 15.3006 8.50849 2.46425 
56 1 16.0491 8.508 1.22775 
19 1 9.93737 9.71381 2.46425 
24 1 8.44726 13.7235 2.46425 
27 1 8.68729 12.2948 2.46425 
35 1 9.52223 10.2743 1.22775 
43 1 8.85177 11.5737 1.22775 
3 1 22.6544 8.50751 2.46425 
7 1 21.84 8.50627 1.22775 
11 1 20.4337 8.50801 1.22775 
20 1 23.6058 7.30846 2.46425 
36 1 24.026 6.75069 1.22775 
44 1 24.6827 5.44514 1.22775 
47 1 19.6722 8.50828 2.46425 
51 1 18.235 8.50794 2.46425 
55 1 17.4888 8.50772 1.22775 
17 1 23.6059 9.70496 2.46425 
33 1 24.0252 10.2618 1.22775 
41 1 24.6799 11.5579 1.22775 
15 1 26.4957 0.80265 2.46425 
23 1 25.0986 3.29851 2.46425 
28 1 24.8493 4.72498 2.46425 
31 1 26.0272 1.32682 1.22775 
39 1 25.2843 2.57979 1.22775 
2 1 27.453 17.3902 2.46425 
6 1 28.2733 17.3911 1.22775 
10 1 29.6684 17.485 1.22774 
14 1 26.4807 16.2146 2.46425 
22 1 25.0965 13.714 2.46425 
25 1 24.8498 12.2854 2.46425 
30 1 26.0103 15.6901 1.22775 
38 1 25.2774 14.4338 1.22775 
46 1 30.4322 17.5231 2.46424 
50 1 31.8526 17.3471 2.46423 
54 1 32.5879 17.1325 1.22773 
ITEM: TIMESTEP
120
ITEM: NUMBER OF ATOMS
57
ITEM: BOX BOUNDS pp pp pp
0.0000000000000000e+00 3.2808000000000000e+01
0.0000000000000000e+00 1.7780000000000001e+01
0.0000000000000000e+00 2.4729999999999999e+00
ITEM: ATOMS id type x y z 
13 1 7.04002 0.815987 2.46425 
29 1 7.52168 1.32951 1.22775 
37 1 8.27797 2.5721 1.22775 
57 2 1.64354 1.39443 2.4642 
1 1 6.07542 17.412 2.46424 
5 1 5.29481 17.3573 1.22774 
9 1 3.86129 17.1472 1.22772 
16 1 7.04822 16.2151 2.46425 
32 1 7.51001 15.6907 1.22775 
40 1 8.26232 14.4453 1.22775 
45 1 3.13242 17.3085 2.46422 
49 1 1.74144 17.7511 2.46422 
53 1 1.20352 17.0911 1.22771 
4 1 10.8805 8.50845 2.46425 
8 1 11.6952 8.5096 1.22775 
12 1 13.1027 8.50869 1.22775 
18 1 9.93693 7.30489 2.46425 
21 1 8.45503 3.29531 2.46425 
26 1 8.6831 4.72657 2.46425 
34 1 9.52037 6.74405 1.22775 
42 1 8.84768 5.44806 1.22775 
48 1 13.8647 8.50867 2.46425 
52 1 15.2997 8.50849 2.46425 
56 1 16.0484 8.508 1.22775 
19 1 9.93727 9.71386 2.46425 
24 1 8.44737 13.7235 2.46425 
27 1 8.68721 12.2949 2.46425 
35 1 9.52178 10.275 1.22775 
43 1 8.8519 11.5738 1.22775 
3 1 22.6541 8.50648 2.46425 
7 1 21.8393 8.50615 1.22775 
11 1 20.4334 8.50801 1.22775 
20 1 23.6058 7.30828 2.46425 
36 1 24.0263 6.7502 1.22775 
44 1 24.6828 5.44538 1.22775 
47 1 19.6733 8.50829 2.46425 
51 1 18.236 8.50794 2.46425 
55 1 17.4891 8.50772 1.22775 
17 1 23.6059 9.70479 2.46425 
33 1 24.0262 10.2629 1.22775 
41 1 24.6807 11.5596 1.22775 
15 1 26.4956 0.802923 2.46425 
23 1 25.0984 3.29858 2.46425 
28 1 24.8493 4.72511 2.46425 
31 1 26.027 1.32693 1.22775 
39 1 25.2841 2.57978 1.22775 
2 1 27.4533 17.3905 2.46425 
6 1 28.2734 17.3912 1.22775 
10 1 29.6684 17.4852 1.22774 
14 1 26.4807 16.2145 2.46425 
22 1 25.096 13.7124 2.46425 
25 1 24.8499 12.2858 2.46425 
30 1 26.0099 15.6899 1.22775 
38 1 25.2768 14.4332 1.22775 
46 1 30.4321 17.5232 2.46424 
50 1 31.8528 17.3467 2.46423 
54 1 32.5879 17.1323 1.22773 
ITEM: TIMESTEP
130
ITEM: NUMBER OF ATOMS
57
ITEM: BOX BOUNDS pp pp pp
0.0000000000000000e+00 3.2808000000000000e+01
0.0000000000000000e+00 1.7780000000000001e+01
0.0000000000000000e+00 2.4729999999999999e+00
ITEM: ATOMS id type x y z 
13 1 7.04214 0.81698 2.46425 
29 1 7.52191 1.33157 1.22775 
37 1 8.28112 2.5742 1.22775 
57 2 1.64162 1.39801 2.4642 
1 1 6.0799 17.4111 2.46424 
5 1 5.29827 17.3547 1.22774 
9 1 3.86567 17.1484 1.22772 
16 1 7.05219 16.2148 2.46425 
32 1 7.51222 15.6895 1.22775 
40 1 8.26625 14.442 1.22775 
45 1 3.1355 17.3075 2.46422 
49 1 1.74134 17.7528 2.46422 
53 1 1.20115 17.0969 1.22772 
4 1 10.8771 8.50909 2.46425 
8 1 11.6988 8.50953 1.22775 
12 1 13.0994 8.50875 1.22775 
18 1 9.93543 7.30612 2.46425 
21 1 8.45914 3.29652 2.46425 
26 1 8.68135 4.72534 2.46425 
34 1 9.51766 6.74323 1.22775 
42 1 8.84685 5.44934 1.22775 
48 1 13.8577 8.50865 2.46425 
52 1 15.2992 8.50845 2.46425 
56 1 16.0446 8.50802 1.22775 
19 1 9.93586 9.71253 2.46425 
24 1 8.45105 13.7228 2.46425 
27 1 8.68548 12.2949 2.46425 
35 1 9.51922 10.276 1.22775 
43 1 8.85167 11.5717 1.22775 
3 1 22.6565 8.50493 2.46425 
7 1 21.8352 8.50587 1.22775 
11 1 20.4351 8.50797 1.22775 
20 1 23.6067 7.30893 2.46425 
36 1 24.0294 6.7486 1.22775 
44 1 24.6859 5.44789 1.22775 
47 1 19.6772 8.50832 2.46425 
51 1 18.2352 8.50795 2.46425 
55 1 17.4897 8.50772 1.22775 
17 1 23.606 9.70251 2.46425 
33 1 24.0287 10.2624 1.22775 
41 1 24.6868 11.5624 1.22775 
15 1 26.4936 0.804701 2.46425 
23 1 25.0942 3.2981 2.46425 
28 1 24.8516 4.72445 2.46425 
31 1 26.0264 1.32779 1.22775 
39 1 25.2803 2.57864 1.22775 
2 1 27.4522 17.3906 2.46425 
6 1 28.2725 17.3927 1.22775 
10 1 29.6675 17.4898 1.22774 
14 1 26.479 16.2128 2.46425 
22 1 25.0914 13.7116 2.46425 
25 1 24.8524 12.2867 2.46425 
30 1 26.0087 15.6893 1.22775 
38 1 25.2718 14.4334 1.22775 
46 1 30.4297 17.5244 2.46424 
50 1 31.8518 17.3388 2.46423 
54 1 32.5855 17.1272 1.22773 
ITEM: TIMESTEP
140
ITEM: NUMBER OF ATOMS
57
ITEM: BOX BOUNDS pp pp pp
0.0000000000000000e+00 3.2808000000000000e+01
0.0000000000000000e+00 1.7780000000000001e+01
0.0000000000000000e+00 2.4729999999999999e+00
ITEM: ATOMS id type x y z 
13 1 7.06175 0.828887 2.46425 
29 1 7.52874 1.35181 1.22775 
37 1 8.31393 2.57805 1.22775 
57 2 1.62074 1.43455 2.46421 
1 1 6.12038 17.4064 2.46424 
5 1 5.32671 17.3309 1.22774 
9 1 3.90844 17.16 1.22773 
16 1 7.09465 16.2112 2.46425 
32 1 7.54266 15.678 1.22775 
40 1 8.30652 14.437 1.22775 
45 1 3.17184 17.2931 2.46423 
49 1 1.73597 17.7861 2.46422 
53 1 1.18123 17.1521 1.22772 
4 1 10.8764 8.50601 2.46425 
8 1 11.6982 8.50772 1.22775 
12 1 13.0981 8.50915 1.22775 
18 1 9.92116 7.3136 2.46425 
21 1 8.49949 3.29892 2.46425 
26 1 8.66934 4.73302 2.46425 
34 1 9.49768 6.75225 1.22775 
42 1 8.82824 5.4584 1.22775 
48 1 13.8566 8.50865 2.46425 
52 1 15.2992 8.50811 2.46425 
56 1 16.0454 8.50813 1.22775 
19 1 9.92326 9.70099 2.46425 
24 1 8.49067 13.7164 2.46425 
27 1 8.67137 12.2819 2.46425 
35 1 9.50142 10.2627 1.22775 
43 1 8.83289 11.5565 1.22775 
3 1 22.6572 8.50412 2.46425 
7 1 21.8375 8.50468 1.22775 
11 1 20.4358 8.5076 1.22775 
20 1 23.6166 7.3139 2.46425 
36 1 24.0409 6.75354 1.22775 
44 1 24.7111 5.4551 1.22775 
47 1 19.6766 8.50854 2.46425 
51 1 18.2367 8.5081 2.46425 
55 1 17.49 8.50787 1.22775 
17 1 23.616 9.69599 2.46425 
33 1 24.0423 10.2593 1.22775 
41 1 24.7134 11.5579 1.22775 
15 1 26.4756 0.808736 2.46425 
23 1 25.0563 3.29555 2.46425 
28 1 24.8682 4.73156 2.46425 
31 1 26.021 1.34072 1.22775 
39 1 25.2466 2.57974 1.22775 
2 1 27.4265 17.3862 2.46425 
6 1 28.2482 17.4102 1.22775 
10 1 29.6418 17.5349 1.22774 
14 1 26.4629 16.2043 2.46425 
22 1 25.0505 13.7106 2.46425 
25 1 24.8704 12.2772 2.46425 
30 1 25.9982 15.6749 1.22775 
38 1 25.2331 14.4295 1.22775 
46 1 30.4141 17.5329 2.46424 
50 1 31.8141 17.2595 2.46423 
54 1 32.5562 17.0724 1.22773 
ITEM: TIMESTEP
150
ITEM: NUMBER OF ATOMS
57
ITEM: BOX BOUNDS pp pp pp
0.0000000000000000e+00 3.2808000000000000e+01
0.0000000000000000e+00 1.7780000000000001e+01
0.0000000000000000e+00 2.4729999999999999e+00
ITEM: ATOMS id type x y z 
13 1 7.06154 0.827647 2.46425 
29 1 7.52753 1.35021 1.22775 
37 1 8.31379 2.57578 1.22775 
57 2 1.62148 1.43191 2.46422 
1 1 6.11871 17.4055 2.46424 
5 1 5.3221 17.3293 1.22774 
9 1 3.90255 17.1663 1.22773 
16 1 7.09523 16.2127 2.46425 
32 1 7.54317 15.6791 1.22775 
40 1 8.30718 14.4375 1.22775 
45 1 3.17147 17.2941 2.46423 
49 1 1.74058 17.7769 2.46422 
53 1 1.17792 17.1623 1.22772 
4 1 10.8772 8.50612 2.46425 
8 1 11.6979 8.5076 1.22775 
12 1 13.0987 8.50912 1.22775 
18 1 9.92125 7.31362 2.46425 
21 1 8.50002 3.29711 2.46425 
26 1 8.66956 4.73382 2.46425 
34 1 9.49757 6.75367 1.22775 
42 1 8.82731 5.46003 1.22775 
48 1 13.8574 8.50868 2.46425 
52 1 15.2989 8.50813 2.46425 
56 1 16.0453 8.50811 1.22775 
19 1 9.92332 9.70095 2.46425 
24 1 8.4911 13.7174 2.46425 
27 1 8.6716 12.2813 2.46425 
35 1 9.50111 10.2617 1.22775 
43 1 8.83186 11.5561 1.22775 
3 1 22.6588 8.50496 2.46425 
7 1 21.8386 8.50483 1.22775 
11 1 20.4371 8.50758 1.22775 
20 1 23.6168 7.31377 2.46425 
36 1 24.041 6.7535 1.22775 
44 1 24.7102 5.45607 1.22775 
47 1 19.6775 8.50852 2.46425 
51 1 18.2368 8.50812 2.46425 
55 1 17.4899 8.50788 1.22775 
17 1 23.6162 9.69634 2.46425 
33 1 24.0407 10.2565 1.22775 
41 1 24.7121 11.5529 1.22775 
15 1 26.4748 0.808143 2.46425 