
     Program PWSCF v.7.1 starts on 25May2025 at 20:26:12 

     This program is part of the open-source Quantum ESPRESSO suite
     for quantum simulation of materials; please cite
         "P. Giannozzi et al., J. Phys.:Condens. Matter 21 395502 (2009);
         "P. Giannozzi et al., J. Phys.:Condens. Matter 29 465901 (2017);
         "P. Giannozzi et al., J. Chem. Phys. 152 154105 (2020);
          URL http://www.quantum-espresso.org", 
     in publications or presentations arising from this work. More details at
     http://www.quantum-espresso.org/quote

     Parallel version (MPI), running on    16 processors

     MPI processes distributed on     1 nodes
     246229 MiB available memory on the printing compute node when the environment starts

     Reading input from input.pwi
Warning: card &CELL ignored
Warning: card / ignored
Warning: card &FCP ignored
Warning: card / ignored
Warning: card &RISM ignored
Warning: card / ignored

     Current dimensions of program PWSCF are:
     Max number of different atomic species (ntypx) = 10
     Max number of k-points (npk) =  40000
     Max angular momentum in pseudopotentials (lmaxx) =  4
     file C.pbe-n-kjpaw_psl.1.0.0.UPF: wavefunction(s)  2S 2P renormalized
     file O.pbe-n-kjpaw_psl.0.1.UPF: wavefunction(s)  2P renormalized

     IMPORTANT: XC functional enforced from input :
     Exchange-correlation= PBE
                           (   1   4   3   4   0   0   0)
     Any further DFT definition will be discarded
     Please, verify this is what you really want


     gamma-point specific algorithms are used
     Message from routine  set_nelup_neldw :
     BEWARE: non-integer number of up and down electrons!

     R & G space division:  proc/nbgrp/npool/nimage =      16
     Subspace diagonalization in iterative solution of the eigenvalue problem:
     a serial algorithm will be used


     Parallelization info
     --------------------
     sticks:   dense  smooth     PW     G-vecs:    dense   smooth      PW
     Min         696     347     85                55228    19539    2442
     Max         698     350     88                55234    19546    2448
     Sum       11141    5573   1389               883707   312673   39127

     Using Slab Decomposition



     bravais-lattice index     =            0
     lattice parameter (alat)  =      18.7045  a.u.
     unit-cell volume          =    6543.9346 (a.u.)^3
     number of atoms/cell      =           43
     number of atomic types    =            3
     number of electrons       =       173.00 (up:  86.50, down:  86.50)
     number of Kohn-Sham states=          104
     kinetic-energy cutoff     =      50.0000  Ry
     charge density cutoff     =     400.0000  Ry
     scf convergence threshold =      1.0E-06
     mixing beta               =       0.3000
     number of iterations used =            8  plain     mixing
     energy convergence thresh.=      1.0E-04
     force convergence thresh. =      1.0E-03
     Exchange-correlation= PBE
                           (   1   4   3   4   0   0   0)
     nstep                     =         1000


     celldm(1)=  18.704509  celldm(2)=   0.000000  celldm(3)=   0.000000
     celldm(4)=   0.000000  celldm(5)=   0.000000  celldm(6)=   0.000000

     crystal axes: (cart. coord. in units of alat)
               a(1) = (   1.000000   0.000000   0.000000 )  
               a(2) = (   0.000000   1.000000   0.000000 )  
               a(3) = (   0.000000   0.000000   1.000000 )  

     reciprocal axes: (cart. coord. in units 2 pi/alat)
               b(1) = (  1.000000  0.000000  0.000000 )  
               b(2) = (  0.000000  1.000000  0.000000 )  
               b(3) = (  0.000000  0.000000  1.000000 )  


     PseudoPot. # 1 for C  read from file:
     /home/ana.bisette/espresso/pseudo/C.pbe-n-kjpaw_psl.1.0.0.UPF
     MD5 check sum: 5d2aebdfa2cae82b50a7e79e9516da0f
     Pseudo is Projector augmented-wave + core cor, Zval =  4.0
     Generated using "atomic" code by A. Dal Corso  v.5.1
     Shape of augmentation charge: PSQ
     Using radial grid of 1073 points,  4 beta functions with: 
                l(1) =   0
                l(2) =   0
                l(3) =   1
                l(4) =   1
     Q(r) pseudized with 0 coefficients 


     PseudoPot. # 2 for O  read from file:
     /home/ana.bisette/espresso/pseudo/O.pbe-n-kjpaw_psl.0.1.UPF
     MD5 check sum: 0234752ac141de4415c5fc33072bef88
     Pseudo is Projector augmented-wave + core cor, Zval =  6.0
     Generated using "atomic" code by A. Dal Corso  v.5.0.99 svn rev. 10869
     Shape of augmentation charge: BESSEL
     Using radial grid of 1095 points,  4 beta functions with: 
                l(1) =   0
                l(2) =   0
                l(3) =   1
                l(4) =   1
     Q(r) pseudized with 0 coefficients 


     PseudoPot. # 3 for H  read from file:
     /home/ana.bisette/espresso/pseudo/H.pbe-rrkjus_psl.1.0.0.UPF
     MD5 check sum: f52b6d4d1c606e5624b1dc7b2218f220
     Pseudo is Ultrasoft, Zval =  1.0
     Generated using "atomic" code by A. Dal Corso  v.5.1
     Using radial grid of  929 points,  2 beta functions with: 
                l(1) =   0
                l(2) =   0
     Q(r) pseudized with 0 coefficients 


     atomic species   valence    mass     pseudopotential
        C              4.00    12.01100     C ( 1.00)
        O              6.00    15.99900     O ( 1.00)
        H              1.00     1.00800     H ( 1.00)

     Starting magnetic structure 
     atomic species   magnetization
        C            0.000
        O            0.000
        H            0.000

     No symmetry found



   Cartesian axes

     site n.     atom                  positions (alat units)
         1           C   tau(   1) = (   0.1102243   0.1102243   0.1102243  )
         2           C   tau(   2) = (   0.0202061   0.0202061   0.0202061  )
         3           C   tau(   3) = (   0.2002425   0.2002425   0.0202061  )
         4           C   tau(   4) = (   0.0202061   0.2002425   0.2002425  )
         5           C   tau(   5) = (   0.2002425   0.0202061   0.2002425  )
         6           C   tau(   6) = (   0.8602748   0.8602748   0.8602748  )
         7           C   tau(   7) = (   0.9501920   0.9501920   0.9501920  )
         8           C   tau(   8) = (   0.7702566   0.7702566   0.9502930  )
         9           C   tau(   9) = (   0.7702566   0.9502930   0.7702566  )
        10           C   tau(  10) = (   0.9502930   0.7702566   0.7702566  )
        11           C   tau(  11) = (   0.3602748   0.3602748   0.8602748  )
        12           C   tau(  12) = (   0.2702566   0.2702566   0.9502930  )
        13           C   tau(  13) = (   0.4501920   0.4501920   0.9501920  )
        14           C   tau(  14) = (   0.4502930   0.2702566   0.7702566  )
        15           C   tau(  15) = (   0.2702566   0.4502930   0.7702566  )
        16           C   tau(  16) = (   0.3602748   0.8602748   0.3602748  )
        17           C   tau(  17) = (   0.2702566   0.9502930   0.2702566  )
        18           C   tau(  18) = (   0.4502930   0.7702566   0.2702566  )
        19           C   tau(  19) = (   0.4501920   0.9501920   0.4501920  )
        20           C   tau(  20) = (   0.2702566   0.7702566   0.4502930  )
        21           C   tau(  21) = (   0.6102243   0.6102243   0.1102243  )
        22           C   tau(  22) = (   0.5202061   0.7002425   0.2002425  )
        23           C   tau(  23) = (   0.7002425   0.5202061   0.2002425  )
        24           C   tau(  24) = (   0.5202061   0.5202061   0.0202061  )
        25           C   tau(  25) = (   0.7002425   0.7002425   0.0202061  )
        26           C   tau(  26) = (   0.8602748   0.3602748   0.3602748  )
        27           C   tau(  27) = (   0.9502930   0.2702566   0.2702566  )
        28           C   tau(  28) = (   0.7702566   0.4502930   0.2702566  )
        29           C   tau(  29) = (   0.7702566   0.2702566   0.4502930  )
        30           C   tau(  30) = (   0.9501920   0.4501920   0.4501920  )
        31           C   tau(  31) = (   0.1102243   0.6102243   0.6102243  )
        32           C   tau(  32) = (   0.0202061   0.5202061   0.5202061  )
        33           C   tau(  33) = (   0.2002425   0.7002425   0.5202061  )
        34           C   tau(  34) = (   0.0202061   0.7002425   0.7002425  )
        35           C   tau(  35) = (   0.2002425   0.5202061   0.7002425  )
        36           C   tau(  36) = (   0.6102243   0.1102243   0.6102243  )
        37           C   tau(  37) = (   0.7002425   0.0202061   0.7002425  )
        38           C   tau(  38) = (   0.5202061   0.0202061   0.5202061  )
        39           C   tau(  39) = (   0.5202061   0.2002425   0.7002425  )
        40           C   tau(  40) = (   0.7002425   0.2002425   0.5202061  )
        41           O   tau(  41) = (   0.0056577  -0.0159628   0.1514447  )
        42           O   tau(  42) = (  -0.1070923  -0.0356638   0.2529804  )
        43           H   tau(  43) = (  -0.0432411  -0.0311174   0.3278440  )

     number of k points=     1  Gaussian smearing, width (Ry)=  0.0001
                       cart. coord. in units 2pi/alat
        k(    1) = (   0.0000000   0.0000000   0.0000000), wk =   1.0000000

     Dense  grid:   441854 G-vectors     FFT dimensions: ( 120, 120, 120)

     Smooth grid:   156337 G-vectors     FFT dimensions: (  90,  90,  90)

     Estimated max dynamical RAM per process >     115.57 MB

     Estimated total dynamical RAM >       1.81 GB

     Check: negative core charge=   -0.000004
     Generating pointlists ...
     new r_m :   0.0500 (alat units)  0.9352 (a.u.) for type    1
     new r_m :   0.0406 (alat units)  0.7600 (a.u.) for type    2
     new r_m :   0.0406 (alat units)  0.7600 (a.u.) for type    3

     Initial potential from superposition of free atoms

     starting charge     172.9983, renormalised to     173.0000
     Starting wfcs are  169 randomized atomic wfcs
     Checking if some PAW data can be deallocated... 

     total cpu time spent up to now is        1.9 secs

     Self-consistent Calculation

     iteration #  1     ecut=    50.00 Ry     beta= 0.30
     Davidson diagonalization with overlap
     ethr =  1.00E-02,  avg # of iterations =  2.0

     total cpu time spent up to now is        3.6 secs

     total energy              =    -818.48394230 Ry
     estimated scf accuracy    <       5.76053879 Ry

     total magnetization       =    -0.00 Bohr mag/cell
     absolute magnetization    =     0.06 Bohr mag/cell

     iteration #  2     ecut=    50.00 Ry     beta= 0.30
     Davidson diagonalization with overlap
     ethr =  3.33E-03,  avg # of iterations =  1.0

     total cpu time spent up to now is        4.8 secs

     total energy              =    -817.63893728 Ry
     estimated scf accuracy    <       1.74502296 Ry

     total magnetization       =     0.00 Bohr mag/cell
     absolute magnetization    =     0.04 Bohr mag/cell

     iteration #  3     ecut=    50.00 Ry     beta= 0.30
     Davidson diagonalization with overlap
     ethr =  1.01E-03,  avg # of iterations =  2.0

     total cpu time spent up to now is        6.4 secs

     total energy              =    -818.02915062 Ry
     estimated scf accuracy    <       0.12947274 Ry

     total magnetization       =     0.00 Bohr mag/cell
     absolute magnetization    =     0.02 Bohr mag/cell

     iteration #  4     ecut=    50.00 Ry     beta= 0.30
     Davidson diagonalization with overlap
     ethr =  7.48E-05,  avg # of iterations =  2.0

     total cpu time spent up to now is        7.9 secs

     total energy              =    -818.03208478 Ry
     estimated scf accuracy    <       0.03864338 Ry

     total magnetization       =     0.00 Bohr mag/cell
     absolute magnetization    =     0.02 Bohr mag/cell

     iteration #  5     ecut=    50.00 Ry     beta= 0.30
     Davidson diagonalization with overlap
     ethr =  2.23E-05,  avg # of iterations =  3.0

     total cpu time spent up to now is        9.7 secs

     total energy              =    -818.03315884 Ry
     estimated scf accuracy    <       0.05354427 Ry

     total magnetization       =    -0.00 Bohr mag/cell
     absolute magnetization    =     0.01 Bohr mag/cell

     iteration #  6     ecut=    50.00 Ry     beta= 0.30
     Davidson diagonalization with overlap
     ethr =  2.23E-05,  avg # of iterations = 13.0

     total cpu time spent up to now is       11.7 secs

     total energy              =    -818.03523044 Ry
     estimated scf accuracy    <       0.00638060 Ry

     total magnetization       =     0.00 Bohr mag/cell
     absolute magnetization    =     0.01 Bohr mag/cell

     iteration #  7     ecut=    50.00 Ry     beta= 0.30
     Davidson diagonalization with overlap
     ethr =  3.69E-06,  avg # of iterations =  3.0

     total cpu time spent up to now is       13.4 secs

     total energy              =    -818.03789746 Ry
     estimated scf accuracy    <       0.00348236 Ry

     total magnetization       =    -0.00 Bohr mag/cell
     absolute magnetization    =     0.01 Bohr mag/cell

     iteration #  8     ecut=    50.00 Ry     beta= 0.30
     Davidson diagonalization with overlap
     ethr =  2.01E-06,  avg # of iterations =  2.0

     total cpu time spent up to now is       14.8 secs

     total energy              =    -818.03801212 Ry
     estimated scf accuracy    <       0.00040210 Ry

     total magnetization       =     0.00 Bohr mag/cell
     absolute magnetization    =     0.01 Bohr mag/cell

     iteration #  9     ecut=    50.00 Ry     beta= 0.30
     Davidson diagonalization with overlap
     ethr =  2.32E-07,  avg # of iterations =  3.0

     total cpu time spent up to now is       16.5 secs

     total energy              =    -818.03818883 Ry
     estimated scf accuracy    <       0.00006087 Ry

     total magnetization       =     0.00 Bohr mag/cell
     absolute magnetization    =     0.01 Bohr mag/cell

     iteration # 10     ecut=    50.00 Ry     beta= 0.30
     Davidson diagonalization with overlap
     ethr =  3.52E-08,  avg # of iterations =  2.0

     total cpu time spent up to now is       17.9 secs

     total energy              =    -818.03818865 Ry
     estimated scf accuracy    <       0.00001259 Ry

     total magnetization       =    -0.00 Bohr mag/cell
     absolute magnetization    =     0.00 Bohr mag/cell

     iteration # 11     ecut=    50.00 Ry     beta= 0.30
     Davidson diagonalization with overlap
     ethr =  7.27E-09,  avg # of iterations =  3.5

     Magnetic moment per site  (integrated on atomic sphere of radius R)
     atom   1 (R=0.050)  charge=  1.0186  magn= -0.0000
     atom   2 (R=0.050)  charge=  1.1508  magn=  0.0000
     atom   3 (R=0.050)  charge=  1.1195  magn= -0.0000
     atom   4 (R=0.050)  charge=  1.1172  magn= -0.0000
     atom   5 (R=0.050)  charge=  1.1141  magn=  0.0000
     atom   6 (R=0.050)  charge=  1.0111  magn=  0.0000
     atom   7 (R=0.050)  charge=  1.1284  magn= -0.0000
     atom   8 (R=0.050)  charge=  1.1155  magn= -0.0001
     atom   9 (R=0.050)  charge=  1.1150  magn= -0.0000
     atom  10 (R=0.050)  charge=  1.1150  magn=  0.0000
     atom  11 (R=0.050)  charge=  1.0140  magn=  0.0000
     atom  12 (R=0.050)  charge=  1.1179  magn=  0.0000
     atom  13 (R=0.050)  charge=  1.1120  magn=  0.0001
     atom  14 (R=0.050)  charge=  1.1143  magn= -0.0000
     atom  15 (R=0.050)  charge=  1.1143  magn=  0.0000
     atom  16 (R=0.050)  charge=  1.0133  magn= -0.0000
     atom  17 (R=0.050)  charge=  1.1185  magn= -0.0000
     atom  18 (R=0.050)  charge=  1.1146  magn=  0.0000
     atom  19 (R=0.050)  charge=  1.1121  magn=  0.0000
     atom  20 (R=0.050)  charge=  1.1148  magn=  0.0000
     atom  21 (R=0.050)  charge=  1.0134  magn= -0.0000
     atom  22 (R=0.050)  charge=  1.1134  magn=  0.0000
     atom  23 (R=0.050)  charge=  1.1136  magn= -0.0001
     atom  24 (R=0.050)  charge=  1.1143  magn= -0.0001
     atom  25 (R=0.050)  charge=  1.1128  magn=  0.0001
     atom  26 (R=0.050)  charge=  1.0136  magn= -0.0000
     atom  27 (R=0.050)  charge=  1.1166  magn=  0.0000
     atom  28 (R=0.050)  charge=  1.1145  magn=  0.0001
     atom  29 (R=0.050)  charge=  1.1146  magn=  0.0001
     atom  30 (R=0.050)  charge=  1.1120  magn=  0.0000
     atom  31 (R=0.050)  charge=  1.0134  magn=  0.0000
     atom  32 (R=0.050)  charge=  1.1143  magn= -0.0000
     atom  33 (R=0.050)  charge=  1.1140  magn= -0.0000
     atom  34 (R=0.050)  charge=  1.1133  magn= -0.0000
     atom  35 (R=0.050)  charge=  1.1142  magn= -0.0000
     atom  36 (R=0.050)  charge=  1.0134  magn= -0.0000
     atom  37 (R=0.050)  charge=  1.1132  magn=  0.0000
     atom  38 (R=0.050)  charge=  1.1141  magn= -0.0000
     atom  39 (R=0.050)  charge=  1.1140  magn=  0.0000
     atom  40 (R=0.050)  charge=  1.1140  magn= -0.0001
     atom  41 (R=0.041)  charge=  1.9450  magn= -0.0000
     atom  42 (R=0.041)  charge=  1.9028  magn=  0.0000
     atom  43 (R=0.041)  charge=  0.4038  magn= -0.0000

     total cpu time spent up to now is       19.5 secs

     End of self-consistent calculation

 ------ SPIN UP ------------


          k = 0.0000 0.0000 0.0000 ( 19564 PWs)   bands (ev):

   -25.2112 -21.1202 -17.9498 -17.7457 -17.6185 -17.5890 -17.5735 -17.5260
   -17.1148 -16.7230 -15.4149 -15.1577 -15.1209 -15.0999 -15.0836 -15.0646
   -15.0573 -15.0435 -14.8741 -14.3060 -14.0351 -14.0149 -13.9901 -13.9708
   -13.8165 -12.9474 -11.3700 -10.6013 -10.2949 -10.2071 -10.1764 -10.1665
   -10.0828 -10.0637 -10.0475  -9.6784  -9.4280  -9.3501  -9.2302  -9.2283
    -9.2213  -8.8929  -8.8152  -8.7023  -8.6810  -8.6665  -8.6237  -8.4711
    -8.4391  -8.4290  -8.1999  -7.6202  -6.2143  -4.3872  -4.3234  -4.2840
    -4.1997  -4.0210  -4.0088  -3.9552  -3.8837  -3.8748  -3.8396  -3.7103
    -3.6915  -3.6852  -3.6575  -3.6234  -3.5468  -3.4516  -3.4063  -3.2849
    -3.2597  -3.2306  -3.1947  -3.1270  -3.0878  -3.0567  -2.9821  -2.9624
    -2.9030  -2.8125  -2.6998  -2.6459  -2.5838  -1.8262  -0.9581   1.0748
     2.3479   2.3625   2.3870   2.4380   2.4512   2.4692   2.5349   2.5622
     2.6480   2.7400   2.7610   2.8146   2.8656   2.8993   2.9081   2.9519

 ------ SPIN DOWN ----------


          k = 0.0000 0.0000 0.0000 ( 19564 PWs)   bands (ev):

   -25.2112 -21.1201 -17.9499 -17.7457 -17.6185 -17.5890 -17.5735 -17.5259
   -17.1148 -16.7230 -15.4149 -15.1577 -15.1209 -15.0999 -15.0836 -15.0646
   -15.0573 -15.0435 -14.8741 -14.3060 -14.0352 -14.0148 -13.9900 -13.9708
   -13.8165 -12.9475 -11.3700 -10.6013 -10.2949 -10.2071 -10.1764 -10.1665
   -10.0828 -10.0637 -10.0475  -9.6785  -9.4280  -9.3501  -9.2302  -9.2282
    -9.2213  -8.8929  -8.8152  -8.7023  -8.6810  -8.6665  -8.6237  -8.4711
    -8.4391  -8.4290  -8.1999  -7.6201  -6.2142  -4.3872  -4.3234  -4.2840
    -4.1997  -4.0210  -4.0088  -3.9552  -3.8837  -3.8748  -3.8396  -3.7102
    -3.6915  -3.6851  -3.6575  -3.6234  -3.5468  -3.4516  -3.4063  -3.2849
    -3.2596  -3.2306  -3.1947  -3.1269  -3.0878  -3.0567  -2.9821  -2.9624
    -2.9029  -2.8125  -2.6998  -2.6459  -2.5838  -1.8262  -0.9581   1.0748
     2.3479   2.3625   2.3870   2.4380   2.4512   2.4692   2.5349   2.5622
     2.6480   2.7400   2.7610   2.8146   2.8656   2.8993   2.9081   2.9519

     the spin up/dw Fermi energies are    -0.9581   -0.9581 ev

!    total energy              =    -818.03819281 Ry
     estimated scf accuracy    <       0.00000020 Ry
     smearing contrib. (-TS)   =      -0.00005642 Ry
     internal energy E=F+TS    =    -818.03813639 Ry

     The total energy is F=E-TS. E is the sum of the following terms:
     one-electron contribution =    -751.34124760 Ry
     hartree contribution      =     421.45847252 Ry
     xc contribution           =    -196.64606225 Ry
     ewald contribution        =     -25.69749433 Ry
     one-center paw contrib.   =    -265.81180472 Ry

     total magnetization       =    -0.00 Bohr mag/cell
     absolute magnetization    =     0.00 Bohr mag/cell

     convergence has been achieved in  11 iterations

     Forces acting on atoms (cartesian axes, Ry/au):

     atom    1 type  1   force =     0.16579555    0.20193658   -0.03175831
     atom    2 type  1   force =     0.06584637    0.11189690    0.07522165
     atom    3 type  1   force =    -0.03414007   -0.03735031    0.05981641
     atom    4 type  1   force =     0.08103808   -0.01580422   -0.07603091
     atom    5 type  1   force =    -0.02414015    0.08394157   -0.07505700
     atom    6 type  1   force =     0.00562425    0.00856151   -0.00309070
     atom    7 type  1   force =    -0.18290015   -0.15771250   -0.29758452
     atom    8 type  1   force =     0.06021260    0.06020546   -0.05929445
     atom    9 type  1   force =     0.06154460   -0.06143691    0.06082979
     atom   10 type  1   force =    -0.06086697    0.06155954    0.06062902
     atom   11 type  1   force =    -0.00273059   -0.00243038    0.00099003
     atom   12 type  1   force =     0.06775363    0.06761093   -0.07085131
     atom   13 type  1   force =    -0.05709035   -0.05704220   -0.05776865
     atom   14 type  1   force =    -0.05909108    0.05982090    0.05881843
     atom   15 type  1   force =     0.06002504   -0.05896557    0.05860326
     atom   16 type  1   force =    -0.00106717    0.00169540   -0.00226227
     atom   17 type  1   force =     0.07877414   -0.06975866    0.07424219
     atom   18 type  1   force =    -0.05993401    0.05942053    0.05908152
     atom   19 type  1   force =    -0.05746117   -0.05806665   -0.05735684
     atom   20 type  1   force =     0.06047275    0.05907249   -0.05948139
     atom   21 type  1   force =    -0.00035199   -0.00043077    0.00092340
     atom   22 type  1   force =     0.05924416   -0.05903931   -0.05921306
     atom   23 type  1   force =    -0.05917491    0.05956352   -0.05941884
     atom   24 type  1   force =     0.05838094    0.05842322    0.05794791
     atom   25 type  1   force =    -0.06060175   -0.06067299    0.06195302
     atom   26 type  1   force =    -0.00015508   -0.00289759   -0.00194191
     atom   27 type  1   force =    -0.06133569    0.06731330    0.06295654
     atom   28 type  1   force =     0.05936961   -0.05964185    0.05927276
     atom   29 type  1   force =     0.05865724    0.05992797   -0.05864270
     atom   30 type  1   force =    -0.05750874   -0.05738304   -0.05752084
     atom   31 type  1   force =     0.00110949   -0.00157072    0.00002347
     atom   32 type  1   force =     0.05806544    0.05859656    0.05863860
     atom   33 type  1   force =    -0.06100046   -0.06001904    0.06056892
     atom   34 type  1   force =     0.06108312   -0.06090764   -0.06105959
     atom   35 type  1   force =    -0.05985571    0.06018106   -0.05985617
     atom   36 type  1   force =    -0.00104990    0.00162601   -0.00066367
     atom   37 type  1   force =    -0.06113349    0.06117907   -0.06138560
     atom   38 type  1   force =     0.05883248    0.05815961    0.05902304
     atom   39 type  1   force =     0.05999659   -0.05986979   -0.05961851
     atom   40 type  1   force =    -0.05971371   -0.05981528    0.06035150
     atom   41 type  2   force =    -0.09269401   -0.23325862    0.27760037
     atom   42 type  2   force =    -0.06606679   -0.02605231   -0.01179216
     atom   43 type  3   force =    -0.00176216   -0.00056575    0.01415759

     Total force =     0.845208     Total SCF correction =     0.000732

     BFGS Geometry Optimization
     Energy error            =      0.0E+00 Ry
     Gradient error          =      3.0E-01 Ry/Bohr

     number of scf cycles    =   1
     number of bfgs steps    =   0

     energy             new  =    -818.0381928103 Ry

     new trust radius        =       0.3832521901 bohr
     new conv_thr            =       0.0000010000 Ry


ATOMIC_POSITIONS (angstrom)
C             1.1787352275        1.1978602364        1.0741942235
C             0.2348443990        0.2592132887        0.2398055804
C             1.9639338544        1.9622350670        0.2316534796
C             0.2428835069        1.9736367682        1.9417661741
C             1.9692255846        0.2444199633        1.9422815445
C             8.5179762244        8.5195305538        8.5133644707
C             9.3082134085        9.3215421410        9.2475250554
C             7.6558631351        7.6558593562        9.3746227259
C             7.6565680019        9.3734889898        7.6561897399
C             9.3737905883        7.6565759032        7.6560834954
C             3.5645550360        3.5647138984        8.5155239008
C             2.7108536775        2.7107781645        9.3685071003
C             4.4257890871        4.4258145693        9.3744301456
C             4.4257303479        2.7066558549        7.6551253713
C             2.7067638808        4.4257967626        7.6550115093
C             3.5654352802        8.5158971657        3.5648028589
C             2.7166854786        9.3690853082        2.7142872738
C             4.4252842859        7.6554439906        2.7062645915
C             4.4255928591        9.3742724541        4.4256480682
C             2.7070007987        7.6552598146        4.4255238030
C             6.0398137365        6.0397720484        1.0914886447
C             5.1803506594        6.8997577439        1.9506657994
C             6.8996859865        5.1805196593        1.9505569062
C             5.1798938617        5.1799162350        0.2306647130
C             6.8989309337        6.8988932338        0.2327841249
C             8.5149179355        3.5644666589        3.5649723871
C             9.3735425494        2.7106206650        2.7083151668
C             7.6554170433        4.4254388910        2.7063657941
C             7.6550400750        2.7067125155        4.4259676174
C             9.3745676878        4.4256342016        4.4255612806
C             1.0915871152        6.0391688131        6.0400124198
C             0.2307269093        5.1800079645        5.1800302118
C             1.9497199465        6.8992392913        5.1810516930
C             0.2323237963        6.8987690632        6.8986886586
C             1.9503257229        5.1808464455        6.8993254799
C             6.0394444151        1.0918604462        6.0396488027
C             6.8986495517        0.2323745720        6.8985161378
C             5.1801328084        0.2307767384        5.1802336466
C             5.1807488305        1.9503182706        6.8994512411
C             6.8994008652        1.9503471152        5.1809366397
O             0.0069484411       -0.2814351479        1.6458997917
O            -1.0949610392       -0.3667862908        2.4977598584
H            -0.4289324941       -0.3082993843        3.2524918726



     Writing config-only to output data dir ./pwscf.save/
     NEW-OLD atomic charge density approx. for the potential

     Check: negative core charge=   -0.000004
     Generating pointlists ...

     total cpu time spent up to now is       21.6 secs

     Self-consistent Calculation

     iteration #  1     ecut=    50.00 Ry     beta= 0.30
     Davidson diagonalization with overlap
     c_bands:  1 eigenvalues not converged
     c_bands:  1 eigenvalues not converged
     ethr =  1.00E-06,  avg # of iterations = 20.0

     total cpu time spent up to now is       26.3 secs

     total energy              =    -817.71815487 Ry
     estimated scf accuracy    <       0.59296841 Ry

     total magnetization       =     0.00 Bohr mag/cell
     absolute magnetization    =     0.00 Bohr mag/cell

     iteration #  2     ecut=    50.00 Ry     beta= 0.30
     Davidson diagonalization with overlap
     ethr =  3.43E-04,  avg # of iterations =  2.0

     total cpu time spent up to now is       27.8 secs

     total energy              =    -817.74849170 Ry
     estimated scf accuracy    <       0.10729727 Ry

     total magnetization       =    -0.00 Bohr mag/cell
     absolute magnetization    =     0.00 Bohr mag/cell

     iteration #  3     ecut=    50.00 Ry     beta= 0.30
     Davidson diagonalization with overlap
     ethr =  6.20E-05,  avg # of iterations =  2.0

     total cpu time spent up to now is       29.2 secs

     total energy              =    -817.75202288 Ry
     estimated scf accuracy    <       0.03852494 Ry

     total magnetization       =     0.00 Bohr mag/cell
     absolute magnetization    =     0.00 Bohr mag/cell

     iteration #  4     ecut=    50.00 Ry     beta= 0.30
     Davidson diagonalization with overlap
     ethr =  2.23E-05,  avg # of iterations =  8.0

     total cpu time spent up to now is       30.8 secs

     total energy              =    -817.75354471 Ry
     estimated scf accuracy    <       0.01006448 Ry

     total magnetization       =     0.00 Bohr mag/cell
     absolute magnetization    =     0.00 Bohr mag/cell

     iteration #  5     ecut=    50.00 Ry     beta= 0.30
     Davidson diagonalization with overlap
     ethr =  5.82E-06,  avg # of iterations =  2.0

     total cpu time spent up to now is       32.2 secs

     total energy              =    -817.75351666 Ry
     estimated scf accuracy    <       0.00199475 Ry

     total magnetization       =    -0.00 Bohr mag/cell
     absolute magnetization    =     0.00 Bohr mag/cell

     iteration #  6     ecut=    50.00 Ry     beta= 0.30
     Davidson diagonalization with overlap
     ethr =  1.15E-06,  avg # of iterations =  4.0

     total cpu time spent up to now is       33.7 secs

     total energy              =    -817.75373448 Ry
     estimated scf accuracy    <       0.00031170 Ry

     total magnetization       =     0.00 Bohr mag/cell
     absolute magnetization    =     0.00 Bohr mag/cell

     iteration #  7     ecut=    50.00 Ry     beta= 0.30
     Davidson diagonalization with overlap
     ethr =  1.80E-07,  avg # of iterations =  4.0

     total cpu time spent up to now is       35.3 secs

     total energy              =    -817.75377284 Ry
     estimated scf accuracy    <       0.00009244 Ry

     total magnetization       =     0.00 Bohr mag/cell
     absolute magnetization    =     0.00 Bohr mag/cell

     iteration #  8     ecut=    50.00 Ry     beta= 0.30
     Davidson diagonalization with overlap
     ethr =  5.34E-08,  avg # of iterations =  2.0

     total cpu time spent up to now is       36.6 secs

     total energy              =    -817.75377367 Ry
     estimated scf accuracy    <       0.00002533 Ry

     total magnetization       =    -0.00 Bohr mag/cell
     absolute magnetization    =     0.00 Bohr mag/cell

     iteration #  9     ecut=    50.00 Ry     beta= 0.30
     Davidson diagonalization with overlap
     ethr =  1.46E-08,  avg # of iterations =  2.0

     total cpu time spent up to now is       38.2 secs

     total energy              =    -817.75377764 Ry
     estimated scf accuracy    <       0.00000325 Ry

     total magnetization       =    -0.00 Bohr mag/cell
     absolute magnetization    =     0.00 Bohr mag/cell

     iteration # 10     ecut=    50.00 Ry     beta= 0.30
     Davidson diagonalization with overlap
     ethr =  1.88E-09,  avg # of iterations =  4.0

     Magnetic moment per site  (integrated on atomic sphere of radius R)
     atom   1 (R=0.050)  charge=  1.0686  magn=  0.0000
     atom   2 (R=0.050)  charge=  0.9938  magn=  0.0000
     atom   3 (R=0.050)  charge=  1.0970  magn= -0.0000
     atom   4 (R=0.050)  charge=  1.0617  magn= -0.0000
     atom   5 (R=0.050)  charge=  1.0483  magn=  0.0000
     atom   6 (R=0.050)  charge=  1.0946  magn=  0.0000
     atom   7 (R=0.050)  charge=  1.0624  magn= -0.0000
     atom   8 (R=0.050)  charge=  1.0622  magn= -0.0000
     atom   9 (R=0.050)  charge=  1.0625  magn= -0.0000
     atom  10 (R=0.050)  charge=  1.0625  magn=  0.0000
     atom  11 (R=0.050)  charge=  1.0567  magn= -0.0000
     atom  12 (R=0.050)  charge=  1.0691  magn=  0.0000
     atom  13 (R=0.050)  charge=  1.0643  magn=  0.0000
     atom  14 (R=0.050)  charge=  1.0627  magn= -0.0000
     atom  15 (R=0.050)  charge=  1.0627  magn=  0.0000
     atom  16 (R=0.050)  charge=  1.0573  magn= -0.0000
     atom  17 (R=0.050)  charge=  1.0641  magn= -0.0000
     atom  18 (R=0.050)  charge=  1.0628  magn=  0.0000
     atom  19 (R=0.050)  charge=  1.0638  magn=  0.0000
     atom  20 (R=0.050)  charge=  1.0623  magn=  0.0000
     atom  21 (R=0.050)  charge=  1.0548  magn=  0.0000
     atom  22 (R=0.050)  charge=  1.0632  magn= -0.0000
     atom  23 (R=0.050)  charge=  1.0631  magn= -0.0000
     atom  24 (R=0.050)  charge=  1.0634  magn= -0.0000
     atom  25 (R=0.050)  charge=  1.0626  magn=  0.0000
     atom  26 (R=0.050)  charge=  1.0553  magn= -0.0000
     atom  27 (R=0.050)  charge=  1.0644  magn=  0.0000
     atom  28 (R=0.050)  charge=  1.0628  magn=  0.0000
     atom  29 (R=0.050)  charge=  1.0628  magn=  0.0000
     atom  30 (R=0.050)  charge=  1.0639  magn=  0.0000
     atom  31 (R=0.050)  charge=  1.0552  magn=  0.0000
     atom  32 (R=0.050)  charge=  1.0636  magn= -0.0000
     atom  33 (R=0.050)  charge=  1.0635  magn= -0.0000
     atom  34 (R=0.050)  charge=  1.0625  magn= -0.0000
     atom  35 (R=0.050)  charge=  1.0636  magn= -0.0000
     atom  36 (R=0.050)  charge=  1.0551  magn=  0.0000
     atom  37 (R=0.050)  charge=  1.0621  magn=  0.0000
     atom  38 (R=0.050)  charge=  1.0635  magn= -0.0000
     atom  39 (R=0.050)  charge=  1.0634  magn=  0.0000
     atom  40 (R=0.050)  charge=  1.0637  magn= -0.0000
     atom  41 (R=0.041)  charge=  1.9191  magn= -0.0000
     atom  42 (R=0.041)  charge=  1.9038  magn=  0.0000
     atom  43 (R=0.041)  charge=  0.3747  magn= -0.0000

     total cpu time spent up to now is       39.7 secs

     End of self-consistent calculation

 ------ SPIN UP ------------


          k = 0.0000 0.0000 0.0000 ( 19564 PWs)   bands (ev):

   -25.0981 -19.9226 -18.9223 -18.5455 -18.3482 -18.3439 -18.3247 -18.3168
   -18.0480 -17.2268 -14.7125 -14.6838 -14.6500 -14.6454 -14.6404 -14.6328
   -14.6248 -14.6092 -14.3798 -13.7835 -13.7368 -13.7312 -13.7150 -13.7021
   -13.4189 -12.3654 -11.5291 -11.2268 -11.0763 -10.9940 -10.9470 -10.9352
   -10.8777 -10.8719 -10.8541 -10.0723  -9.7950  -9.7463  -9.7161  -9.7120
    -9.6486  -9.3151  -9.0808  -9.0535  -9.0285  -8.9978  -8.9776  -8.8688
    -8.8360  -8.7842  -8.4810  -7.9065  -6.2649  -4.7449  -4.1179  -4.0990
    -3.7966  -3.7743  -3.7666  -3.7272  -3.6500  -3.6328  -3.4404  -3.4143
    -3.4092  -3.3974  -3.3952  -3.3864  -3.3181  -3.1196  -3.0591  -2.9260
    -2.9073  -2.8938  -2.8857  -2.7916  -2.7259  -2.5876  -2.5621  -2.5428
    -2.5283  -2.3123  -2.2192  -2.1167  -2.0675  -1.4407  -0.7879   0.9844
     1.4634   1.5067   1.5301   1.5619   1.6333   1.6531   1.7615   1.9105
     1.9518   2.1137   2.1877   2.2231   2.2948   2.3149   2.5197   2.6520

 ------ SPIN DOWN ----------


          k = 0.0000 0.0000 0.0000 ( 19564 PWs)   bands (ev):

   -25.0981 -19.9226 -18.9223 -18.5455 -18.3482 -18.3439 -18.3247 -18.3168
   -18.0480 -17.2268 -14.7125 -14.6838 -14.6500 -14.6454 -14.6404 -14.6328
   -14.6248 -14.6092 -14.3798 -13.7835 -13.7368 -13.7312 -13.7150 -13.7021
   -13.4189 -12.3654 -11.5291 -11.2268 -11.0763 -10.9940 -10.9470 -10.9352
   -10.8777 -10.8719 -10.8541 -10.0723  -9.7950  -9.7463  -9.7161  -9.7120
    -9.6486  -9.3151  -9.0808  -9.0535  -9.0285  -8.9978  -8.9776  -8.8688
    -8.8360  -8.7842  -8.4810  -7.9065  -6.2649  -4.7450  -4.1179  -4.0990
    -3.7966  -3.7743  -3.7666  -3.7272  -3.6500  -3.6328  -3.4404  -3.4143
    -3.4092  -3.3974  -3.3952  -3.3864  -3.3181  -3.1196  -3.0591  -2.9260
    -2.9073  -2.8938  -2.8857  -2.7916  -2.7259  -2.5876  -2.5621  -2.5428
    -2.5283  -2.3123  -2.2192  -2.1167  -2.0675  -1.4407  -0.7880   0.9844
     1.4634   1.5067   1.5301   1.5619   1.6333   1.6531   1.7615   1.9105
     1.9518   2.1137   2.1877   2.2231   2.2948   2.3149   2.5197   2.6521

     the spin up/dw Fermi energies are    -0.7879   -0.7880 ev

!    total energy              =    -817.75377819 Ry
     estimated scf accuracy    <       0.00000074 Ry
     smearing contrib. (-TS)   =      -0.00005642 Ry
     internal energy E=F+TS    =    -817.75372177 Ry

     The total energy is F=E-TS. E is the sum of the following terms:
     one-electron contribution =    -741.18344767 Ry
     hartree contribution      =     415.31493880 Ry
     xc contribution           =    -195.03281903 Ry
     ewald contribution        =     -31.16360430 Ry
     one-center paw contrib.   =    -265.68878958 Ry

     total magnetization       =    -0.00 Bohr mag/cell
     absolute magnetization    =     0.00 Bohr mag/cell

     convergence has been achieved in  10 iterations

     Forces acting on atoms (cartesian axes, Ry/au):

     atom    1 type  1   force =    -0.01076476   -0.00719926    0.00600540
     atom    2 type  1   force =    -0.24738278   -0.21962250   -0.08178625
     atom    3 type  1   force =     0.24141701    0.24234416   -0.22147978
     atom    4 type  1   force =    -0.13784088    0.18504421    0.15084340
     atom    5 type  1   force =     0.17704674   -0.14777628    0.16092502
     atom    6 type  1   force =    -0.10394630   -0.10268755   -0.10271959
     atom    7 type  1   force =     0.31163385    0.32232855    0.26899216
     atom    8 type  1   force =    -0.17125217   -0.17147006    0.16381387
     atom    9 type  1   force =    -0.17714887    0.16558520   -0.17946267
     atom   10 type  1   force =     0.16578904   -0.17668628   -0.17891302
     atom   11 type  1   force =     0.00525659    0.00492886   -0.00589630
     atom   12 type  1   force =    -0.15810807   -0.15821868    0.16252814
     atom   13 type  1   force =     0.16040924    0.16036835    0.16085253
     atom   14 type  1   force =     0.16479808   -0.16497551   -0.16524831
     atom   15 type  1   force =    -0.16497380    0.16480312   -0.16557174
     atom   16 type  1   force =     0.00703126   -0.00545664    0.00571633
     atom   17 type  1   force =    -0.16171716    0.18446872   -0.17793519
     atom   18 type  1   force =     0.16460211   -0.16480005   -0.16413884
     atom   19 type  1   force =     0.16224919    0.16086249    0.16167949
     atom   20 type  1   force =    -0.16476630   -0.16680643    0.16615875
     atom   21 type  1   force =    -0.00043897    0.00010494    0.00139695
     atom   22 type  1   force =    -0.16451069    0.16390356    0.16446467
     atom   23 type  1   force =     0.16428988   -0.16459796    0.16460471
     atom   24 type  1   force =    -0.16052979   -0.16052807   -0.16091581
     atom   25 type  1   force =     0.16259522    0.16249545   -0.15959244
     atom   26 type  1   force =    -0.00304115    0.00181948    0.00247772
     atom   27 type  1   force =     0.17189773   -0.15830911   -0.16932946
     atom   28 type  1   force =    -0.16443102    0.16398361   -0.16426462
     atom   29 type  1   force =    -0.16535959   -0.16457016    0.16523315
     atom   30 type  1   force =     0.16078705    0.16070503    0.16056277
     atom   31 type  1   force =    -0.00027040   -0.00016764   -0.00045164
     atom   32 type  1   force =    -0.16099011   -0.16131843   -0.16083425
     atom   33 type  1   force =     0.16500701    0.16488035   -0.16496008
     atom   34 type  1   force =    -0.16417168    0.16492031    0.16508185
     atom   35 type  1   force =     0.16568007   -0.16528075    0.16490554
     atom   36 type  1   force =    -0.00043041    0.00067082   -0.00078101
     atom   37 type  1   force =     0.16418459   -0.16327668    0.16396839
     atom   38 type  1   force =    -0.16064656   -0.16092497   -0.16028961
     atom   39 type  1   force =    -0.16496799    0.16545258    0.16487135
     atom   40 type  1   force =     0.16408772    0.16523935   -0.16398528
     atom   41 type  2   force =     0.03555252   -0.10867365   -0.04847378
     atom   42 type  2   force =    -0.04020044   -0.00811645    0.06728283
     atom   43 type  3   force =    -0.06642503   -0.00344601    0.00466465

     Total force =     1.724063     Total SCF correction =     0.001393
     Energy error            =      2.8E-01 Ry
     Gradient error          =      3.2E-01 Ry/Bohr

     number of scf cycles    =   2
     number of bfgs steps    =   1

     energy             old  =    -818.0381928103 Ry
     energy             new  =    -817.7537781919 Ry

     CASE: energy            _new > energy            _old

     new trust radius        =       0.1370589155 bohr
     new conv_thr            =       0.0000010000 Ry


ATOMIC_POSITIONS (angstrom)
C             1.1223759333        1.1292154322        1.0849899065
C             0.2124610783        0.2211758976        0.2142352994
C             1.9755391724        1.9749316509        0.2113199395
C             0.2153360296        1.9790091352        1.9676115511
C             1.9774316046        0.2158854982        1.9677958583
C             8.5160643594        8.5166202198        8.5144151009
C             9.3703871117        9.3751537422        9.3486837005
C             7.6353949166        7.6353935652        9.3947788373
C             7.6356469916        9.3943733899        7.6355117172
C             9.3944812477        7.6356498172        7.6354737220
C             3.5654832510        3.5655400635        8.5151873578
C             2.6878220172        2.6877950121        9.3925917631
C             4.4451959523        4.4452050652        9.3940675874
C             4.4458173252        2.6863207889        7.6351310770
C             2.6863594212        4.4458410765        7.6350903576
C             3.5657980445        8.5153208450        3.5655718776
C             2.6899075899        9.3927985422        2.6890499423
C             4.4456578042        7.6352450218        2.6861808650
C             4.4451257770        9.3940111936        4.4451455210
C             2.6864441479        7.6351791567        4.4457434605
C             6.0399333883        6.0399184798        1.0911747494
C             5.1602116447        6.9198271226        1.9707942413
C             6.9198014606        5.1602720826        1.9707552989
C             5.1600482844        5.1600562855        0.2109663360
C             6.9195314381        6.9195179559        0.2117242816
C             8.5149706520        3.5654516455        3.5656325044
C             9.3943925439        2.6877386871        2.6869141932
C             7.6352353850        4.4457130942        2.6862170572
C             7.6351005733        2.6863410519        4.4459021777
C             9.3941167753        4.4451405620        4.4451144839
C             1.0912099646        6.0397027504        6.0400044416
C             0.2109885787        5.1600890899        5.1600970460
C             1.9704559848        6.9196417132        5.1604623488
C             0.2115596586        6.9194735499        6.9194447956
C             1.9706726229        5.1603889481        6.9196725360
C             6.0398013113        1.0913077134        6.0398744046
C             6.9194308101        0.2115778170        6.9193830985
C             5.1601337366        0.2110063987        5.1601697985
C             5.1603540389        1.9706699578        6.9197175108
C             6.9196994954        1.9706802733        5.1604212034
O             0.0384581473       -0.2021429637        1.5515344060
O            -1.0725027912       -0.3579302629        2.5017683962
H            -0.4283334792       -0.3081070660        3.2476792487



     Writing config-only to output data dir ./pwscf.save/
     NEW-OLD atomic charge density approx. for the potential

     Check: negative core charge=   -0.000004
     Generating pointlists ...

     total cpu time spent up to now is       42.0 secs

     Self-consistent Calculation

     iteration #  1     ecut=    50.00 Ry     beta= 0.30
     Davidson diagonalization with overlap
     c_bands:  1 eigenvalues not converged
     c_bands:  1 eigenvalues not converged
     ethr =  1.00E-06,  avg # of iterations = 20.0

     total cpu time spent up to now is       46.2 secs

     total energy              =    -818.14222472 Ry
     estimated scf accuracy    <       0.21474652 Ry

     total magnetization       =    -0.00 Bohr mag/cell
     absolute magnetization    =     0.00 Bohr mag/cell

     iteration #  2     ecut=    50.00 Ry     beta= 0.30
     Davidson diagonalization with overlap
     ethr =  1.24E-04,  avg # of iterations =  2.0

     total cpu time spent up to now is       47.7 secs

     total energy              =    -818.14683526 Ry
     estimated scf accuracy    <       0.03731043 Ry

     total magnetization       =    -0.00 Bohr mag/cell
     absolute magnetization    =     0.00 Bohr mag/cell

     iteration #  3     ecut=    50.00 Ry     beta= 0.30
     Davidson diagonalization with overlap
     ethr =  2.16E-05,  avg # of iterations =  2.0

     total cpu time spent up to now is       49.2 secs

     total energy              =    -818.15068514 Ry
     estimated scf accuracy    <       0.00739453 Ry

     total magnetization       =     0.00 Bohr mag/cell
     absolute magnetization    =     0.00 Bohr mag/cell

     iteration #  4     ecut=    50.00 Ry     beta= 0.30
     Davidson diagonalization with overlap
     ethr =  4.27E-06,  avg # of iterations = 12.0

     total cpu time spent up to now is       50.9 secs

     total energy              =    -818.15044378 Ry
     estimated scf accuracy    <       0.00237639 Ry

     total magnetization       =    -0.00 Bohr mag/cell
     absolute magnetization    =     0.00 Bohr mag/cell

     iteration #  5     ecut=    50.00 Ry     beta= 0.30
     Davidson diagonalization with overlap
     ethr =  1.37E-06,  avg # of iterations =  2.0

     total cpu time spent up to now is       52.4 secs

     total energy              =    -818.15068905 Ry
     estimated scf accuracy    <       0.00023395 Ry

     total magnetization       =     0.00 Bohr mag/cell
     absolute magnetization    =     0.00 Bohr mag/cell

     iteration #  6     ecut=    50.00 Ry     beta= 0.30
     Davidson diagonalization with overlap
     ethr =  1.35E-07,  avg # of iterations =  4.0

     total cpu time spent up to now is       53.9 secs

     total energy              =    -818.15070362 Ry
     estimated scf accuracy    <       0.00006212 Ry

     total magnetization       =    -0.00 Bohr mag/cell
     absolute magnetization    =     0.00 Bohr mag/cell

     iteration #  7     ecut=    50.00 Ry     beta= 0.30
     Davidson diagonalization with overlap
     ethr =  3.59E-08,  avg # of iterations =  4.0

     total cpu time spent up to now is       55.5 secs

     total energy              =    -818.15071095 Ry
     estimated scf accuracy    <       0.00001540 Ry

     total magnetization       =    -0.00 Bohr mag/cell
     absolute magnetization    =     0.00 Bohr mag/cell

     iteration #  8     ecut=    50.00 Ry     beta= 0.30
     Davidson diagonalization with overlap
     ethr =  8.90E-09,  avg # of iterations =  2.0

     total cpu time spent up to now is       57.0 secs

     total energy              =    -818.15071317 Ry
     estimated scf accuracy    <       0.00000150 Ry

     total magnetization       =    -0.00 Bohr mag/cell
     absolute magnetization    =     0.00 Bohr mag/cell

     iteration #  9     ecut=    50.00 Ry     beta= 0.30
     Davidson diagonalization with overlap
     ethr =  8.69E-10,  avg # of iterations =  4.0

     Magnetic moment per site  (integrated on atomic sphere of radius R)
     atom   1 (R=0.050)  charge=  1.0348  magn=  0.0000
     atom   2 (R=0.050)  charge=  1.0780  magn=  0.0000
     atom   3 (R=0.050)  charge=  1.1059  magn= -0.0000
     atom   4 (R=0.050)  charge=  1.0942  magn= -0.0000
     atom   5 (R=0.050)  charge=  1.0868  magn= -0.0000
     atom   6 (R=0.050)  charge=  1.0362  magn=  0.0000
     atom   7 (R=0.050)  charge=  1.0885  magn= -0.0000
     atom   8 (R=0.050)  charge=  1.0934  magn= -0.0000
     atom   9 (R=0.050)  charge=  1.0931  magn= -0.0000
     atom  10 (R=0.050)  charge=  1.0931  magn=  0.0000
     atom  11 (R=0.050)  charge=  1.0282  magn= -0.0000
     atom  12 (R=0.050)  charge=  1.0976  magn=  0.0000
     atom  13 (R=0.050)  charge=  1.0916  magn=  0.0000
     atom  14 (R=0.050)  charge=  1.0929  magn= -0.0000
     atom  15 (R=0.050)  charge=  1.0928  magn=  0.0000
     atom  16 (R=0.050)  charge=  1.0279  magn= -0.0000
     atom  17 (R=0.050)  charge=  1.0952  magn=  0.0000
     atom  18 (R=0.050)  charge=  1.0931  magn=  0.0000
     atom  19 (R=0.050)  charge=  1.0915  magn=  0.0000
     atom  20 (R=0.050)  charge=  1.0931  magn=  0.0000
     atom  21 (R=0.050)  charge=  1.0273  magn=  0.0000
     atom  22 (R=0.050)  charge=  1.0924  magn= -0.0000
     atom  23 (R=0.050)  charge=  1.0925  magn= -0.0000
     atom  24 (R=0.050)  charge=  1.0933  magn= -0.0000
     atom  25 (R=0.050)  charge=  1.0916  magn=  0.0000
     atom  26 (R=0.050)  charge=  1.0275  magn= -0.0000
     atom  27 (R=0.050)  charge=  1.0949  magn=  0.0000
     atom  28 (R=0.050)  charge=  1.0931  magn=  0.0000
     atom  29 (R=0.050)  charge=  1.0931  magn=  0.0000
     atom  30 (R=0.050)  charge=  1.0915  magn=  0.0000
     atom  31 (R=0.050)  charge=  1.0274  magn=  0.0000
     atom  32 (R=0.050)  charge=  1.0933  magn= -0.0000
     atom  33 (R=0.050)  charge=  1.0928  magn= -0.0000
     atom  34 (R=0.050)  charge=  1.0919  magn= -0.0000
     atom  35 (R=0.050)  charge=  1.0930  magn= -0.0000
     atom  36 (R=0.050)  charge=  1.0273  magn=  0.0000
     atom  37 (R=0.050)  charge=  1.0917  magn=  0.0000
     atom  38 (R=0.050)  charge=  1.0932  magn= -0.0000
     atom  39 (R=0.050)  charge=  1.0929  magn=  0.0000
     atom  40 (R=0.050)  charge=  1.0929  magn= -0.0000
     atom  41 (R=0.041)  charge=  1.9323  magn= -0.0000
     atom  42 (R=0.041)  charge=  1.9025  magn=  0.0000
     atom  43 (R=0.041)  charge=  0.3930  magn= -0.0000

     total cpu time spent up to now is       58.6 secs

     End of self-consistent calculation

 ------ SPIN UP ------------


          k = 0.0000 0.0000 0.0000 ( 19564 PWs)   bands (ev):

   -24.8726 -20.7933 -18.2044 -18.0223 -17.8600 -17.8313 -17.8242 -17.8006
   -17.4447 -16.8571 -15.0925 -14.9708 -14.9349 -14.9243 -14.9065 -14.9029
   -14.8876 -14.8857 -14.6818 -14.1002 -13.9423 -13.9150 -13.8934 -13.8890
   -13.7502 -12.7724 -11.3178 -10.7337 -10.5775 -10.4832 -10.4480 -10.4380
   -10.3664 -10.3518 -10.3390  -9.8926  -9.5258  -9.4882  -9.4357  -9.4184
    -9.4093  -9.0609  -8.9074  -8.8258  -8.8135  -8.8022  -8.7676  -8.6157
    -8.5881  -8.5757  -8.2153  -7.7907  -6.1656  -4.5748  -4.2427  -4.2209
    -4.0246  -3.9183  -3.9098  -3.8721  -3.7878  -3.7740  -3.7017  -3.5888
    -3.5720  -3.5673  -3.5573  -3.5307  -3.4623  -3.3000  -3.2688  -3.1560
    -3.1275  -3.1091  -3.0756  -3.0270  -2.9459  -2.8920  -2.8232  -2.8121
    -2.7583  -2.6279  -2.5032  -2.4841  -2.4053  -1.7053  -0.8811   1.2629
     2.0256   2.0515   2.1124   2.1217   2.1319   2.1836   2.2491   2.3248
     2.4197   2.5039   2.5778   2.6273   2.6446   2.6763   2.7120   2.8631

 ------ SPIN DOWN ----------


          k = 0.0000 0.0000 0.0000 ( 19564 PWs)   bands (ev):

   -24.8726 -20.7933 -18.2044 -18.0223 -17.8600 -17.8313 -17.8242 -17.8006
   -17.4447 -16.8571 -15.0925 -14.9708 -14.9349 -14.9243 -14.9065 -14.9029
   -14.8876 -14.8857 -14.6818 -14.1002 -13.9423 -13.9150 -13.8934 -13.8890
   -13.7502 -12.7724 -11.3178 -10.7337 -10.5775 -10.4832 -10.4480 -10.4380
   -10.3664 -10.3518 -10.3390  -9.8926  -9.5258  -9.4882  -9.4357  -9.4184
    -9.4093  -9.0609  -8.9074  -8.8258  -8.8135  -8.8022  -8.7676  -8.6157
    -8.5881  -8.5757  -8.2153  -7.7907  -6.1656  -4.5748  -4.2427  -4.2209
    -4.0246  -3.9183  -3.9098  -3.8721  -3.7878  -3.7740  -3.7017  -3.5888
    -3.5720  -3.5673  -3.5573  -3.5307  -3.4623  -3.3000  -3.2688  -3.1560
    -3.1275  -3.1091  -3.0756  -3.0270  -2.9459  -2.8920  -2.8232  -2.8121
    -2.7583  -2.6279  -2.5032  -2.4841  -2.4053  -1.7053  -0.8811   1.2629
     2.0256   2.0515   2.1124   2.1217   2.1319   2.1836   2.2491   2.3248
     2.4197   2.5039   2.5778   2.6273   2.6446   2.6763   2.7120   2.8631

     the spin up/dw Fermi energies are    -0.8811   -0.8811 ev

!    total energy              =    -818.15071367 Ry
     estimated scf accuracy    <       0.00000046 Ry
     smearing contrib. (-TS)   =      -0.00005642 Ry
     internal energy E=F+TS    =    -818.15065725 Ry

     The total energy is F=E-TS. E is the sum of the following terms:
     one-electron contribution =    -746.32679890 Ry
     hartree contribution      =     418.54523050 Ry
     xc contribution           =    -195.94490677 Ry
     ewald contribution        =     -28.67347427 Ry
     one-center paw contrib.   =    -265.75070781 Ry

     total magnetization       =    -0.00 Bohr mag/cell
     absolute magnetization    =     0.00 Bohr mag/cell

     convergence has been achieved in   9 iterations

     Forces acting on atoms (cartesian axes, Ry/au):

     atom    1 type  1   force =     0.11314067    0.13887379   -0.04363498
     atom    2 type  1   force =    -0.10720100   -0.06504343   -0.01528132
     atom    3 type  1   force =     0.06742358    0.06673105   -0.04059268
     atom    4 type  1   force =    -0.01099371    0.06968171    0.01882620
     atom    5 type  1   force =     0.06299925   -0.01698846    0.02610882
     atom    6 type  1   force =    -0.01612873   -0.01298162   -0.02536452
     atom    7 type  1   force =     0.04264836    0.05928599   -0.03947654
     atom    8 type  1   force =    -0.03657620   -0.03653882    0.03495515
     atom    9 type  1   force =    -0.03827881    0.03422047   -0.03955061
     atom   10 type  1   force =     0.03465180   -0.03774844   -0.03928245
     atom   11 type  1   force =    -0.00034790   -0.00023063   -0.00116334
     atom   12 type  1   force =    -0.02620725   -0.02642352    0.02503583
     atom   13 type  1   force =     0.03386612    0.03390319    0.03360577
     atom   14 type  1   force =     0.03477744   -0.03445463   -0.03518278
     atom   15 type  1   force =    -0.03433820    0.03490468   -0.03545974
     atom   16 type  1   force =     0.00119234   -0.00001562   -0.00004533
     atom   17 type  1   force =    -0.02436598    0.03735392   -0.03247651
     atom   18 type  1   force =     0.03401656   -0.03448288   -0.03457606
     atom   19 type  1   force =     0.03441284    0.03346947    0.03429712
     atom   20 type  1   force =    -0.03421710   -0.03583383    0.03524365
     atom   21 type  1   force =    -0.00027246   -0.00014584    0.00096987
     atom   22 type  1   force =    -0.03452845    0.03446354    0.03454280
     atom   23 type  1   force =     0.03452356   -0.03438262    0.03448393
     atom   24 type  1   force =    -0.03305831   -0.03303525   -0.03341816
     atom   25 type  1   force =     0.03372949    0.03365386   -0.03182753
     atom   26 type  1   force =    -0.00089425   -0.00134330   -0.00058779
     atom   27 type  1   force =     0.03574482   -0.02873890   -0.03417941
     atom   28 type  1   force =    -0.03447368    0.03405770   -0.03453751
     atom   29 type  1   force =    -0.03530977   -0.03423099    0.03516525
     atom   30 type  1   force =     0.03379886    0.03383710    0.03369907
     atom   31 type  1   force =     0.00064208   -0.00097984    0.00000950
     atom   32 type  1   force =    -0.03342677   -0.03320645   -0.03300380
     atom   33 type  1   force =     0.03391223    0.03450695   -0.03417918
     atom   34 type  1   force =    -0.03424646    0.03451173    0.03456223
     atom   35 type  1   force =     0.03462723   -0.03425109    0.03433709
     atom   36 type  1   force =    -0.00075063    0.00123614   -0.00053167
     atom   37 type  1   force =     0.03430157   -0.03401132    0.03413490
     atom   38 type  1   force =    -0.03292169   -0.03338272   -0.03267803
     atom   39 type  1   force =    -0.03426196    0.03455094    0.03446455
     atom   40 type  1   force =     0.03414058    0.03450046   -0.03372092
     atom   41 type  2   force =    -0.06140586   -0.19450602    0.15144812
     atom   42 type  2   force =    -0.04549342   -0.01874709    0.00706697
     atom   43 type  3   force =    -0.02485078   -0.00203940    0.00779405

     Total force =     0.490549     Total SCF correction =     0.000749
     Energy error            =      1.1E-01 Ry
     Gradient error          =      1.9E-01 Ry/Bohr

     number of scf cycles    =   3
     number of bfgs steps    =   1

     energy             old  =    -818.0381928103 Ry
     energy             new  =    -818.1507136661 Ry

     CASE: energy            _new < energy            _old

     new trust radius        =       0.3570452456 bohr
     new conv_thr            =       0.0000010000 Ry


ATOMIC_POSITIONS (angstrom)
C             1.2067648017        1.2325235554        1.0580766420
C             0.1715220713        0.2089286032        0.2199223148
C             2.0025606509        2.0010523368        0.2019233810
C             0.2241394018        2.0103449592        1.9635177430
C             2.0040380684        0.2222632440        1.9674365957
C             8.5091554059        8.5117655405        8.5014608607
C             9.3592470398        9.3765645183        9.2772794580
C             7.6280333494        7.6280490417        9.4015077661
C             7.6276853079        9.4003677850        7.6268025138
C             9.4007864863        7.6279503118        7.6268606153
C             3.5648350705        3.5650018164        8.5147913017
C             2.6868548397        2.6866970177        9.3924434834
C             4.4517776856        4.4518133687        9.4004031845
C             4.4524948782        2.6799289540        7.6282074307
C             2.6800602947        4.4526028660        7.6279935101
C             3.5661947891        8.5156099354        3.5651537390
C             2.6917703828        9.3988699273        2.6861502718
C             4.4518154498        7.6287692869        2.6796001942
C             4.4519101714        9.4002279336        4.4518915418
C             2.6802826483        7.6279813597        4.4525808615
C             6.0397384412        6.0397717132        1.0918110186
C             5.1536827421        6.9263601168        1.9773356111
C             6.9263400905        5.1538704430        1.9772318411
C             5.1540877748        5.1541144606        0.2047539268
C             6.9254317218        6.9253687583        0.2069913135
C             8.5145058659        3.5642870915        3.5650049599
C             9.4011506644        2.6854554635        2.6812058627
C             7.6287552427        4.4519420102        2.6796887257
C             7.6280865698        2.6800774057        4.4528479994
C             9.4005923656        4.4516568626        4.4515391161
C             1.0917183854        6.0389483085        6.0400131970
C             0.2047925284        5.1540938194        5.1542083131
C             1.9763759191        6.9260244742        5.1543362410
C             0.2054906231        6.9257031210        6.9256724885
C             1.9771428331        5.1541597618        6.9260006741
C             6.0392501963        1.0921972679        6.0394980515
C             6.9255180005        0.2056406515        6.9253445952
C             5.1543191198        0.2048483885        5.1545077784
C             5.1540872454        1.9771003700        6.9261496215
C             6.9259563946        1.9770955207        5.1544813114
O            -0.0078173549       -0.3381594001        1.6742393726
O            -1.1063303932       -0.3716648077        2.5031630239
H            -0.4408037697       -0.3092041628        3.2539715480



     Writing config-only to output data dir ./pwscf.save/
     NEW-OLD atomic charge density approx. for the potential

     Check: negative core charge=   -0.000004
     Generating pointlists ...

     total cpu time spent up to now is       61.0 secs

     Self-consistent Calculation

     iteration #  1     ecut=    50.00 Ry     beta= 0.30
     Davidson diagonalization with overlap
     c_bands:  1 eigenvalues not converged
     c_bands:  1 eigenvalues not converged
     ethr =  1.00E-06,  avg # of iterations = 20.0

     total cpu time spent up to now is       65.0 secs

     total energy              =    -818.23676926 Ry
     estimated scf accuracy    <       0.07355772 Ry

     total magnetization       =    -0.00 Bohr mag/cell
     absolute magnetization    =     0.00 Bohr mag/cell

     iteration #  2     ecut=    50.00 Ry     beta= 0.30
     Davidson diagonalization with overlap
     ethr =  4.25E-05,  avg # of iterations =  4.0

     total cpu time spent up to now is       66.5 secs

     total energy              =    -818.24187156 Ry
     estimated scf accuracy    <       0.01750726 Ry

     total magnetization       =    -0.00 Bohr mag/cell
     absolute magnetization    =     0.00 Bohr mag/cell

     iteration #  3     ecut=    50.00 Ry     beta= 0.30
     Davidson diagonalization with overlap
     ethr =  1.01E-05,  avg # of iterations =  2.0

     total cpu time spent up to now is       67.9 secs

     total energy              =    -818.23652234 Ry
     estimated scf accuracy    <       0.00558094 Ry

     total magnetization       =    -0.00 Bohr mag/cell
     absolute magnetization    =     0.00 Bohr mag/cell

     iteration #  4     ecut=    50.00 Ry     beta= 0.30
     Davidson diagonalization with overlap
     ethr =  3.23E-06,  avg # of iterations =  3.0

     total cpu time spent up to now is       69.3 secs

     total energy              =    -818.23600541 Ry
     estimated scf accuracy    <       0.00128504 Ry

     total magnetization       =     0.00 Bohr mag/cell
     absolute magnetization    =     0.00 Bohr mag/cell

     iteration #  5     ecut=    50.00 Ry     beta= 0.30
     Davidson diagonalization with overlap
     ethr =  7.43E-07,  avg # of iterations =  3.0

     total cpu time spent up to now is       70.7 secs

     total energy              =    -818.23590045 Ry
     estimated scf accuracy    <       0.00025417 Ry

     total magnetization       =    -0.00 Bohr mag/cell
     absolute magnetization    =     0.00 Bohr mag/cell

     iteration #  6     ecut=    50.00 Ry     beta= 0.30
     Davidson diagonalization with overlap
     ethr =  1.47E-07,  avg # of iterations =  5.0

     total cpu time spent up to now is       72.2 secs

     total energy              =    -818.23591865 Ry
     estimated scf accuracy    <       0.00003915 Ry

     total magnetization       =    -0.00 Bohr mag/cell
     absolute magnetization    =     0.00 Bohr mag/cell

     iteration #  7     ecut=    50.00 Ry     beta= 0.30
     Davidson diagonalization with overlap
     ethr =  2.26E-08,  avg # of iterations =  2.0

     total cpu time spent up to now is       73.7 secs

     total energy              =    -818.23592350 Ry
     estimated scf accuracy    <       0.00000747 Ry

     total magnetization       =    -0.00 Bohr mag/cell
     absolute magnetization    =     0.00 Bohr mag/cell

     iteration #  8     ecut=    50.00 Ry     beta= 0.30
     Davidson diagonalization with overlap
     ethr =  4.32E-09,  avg # of iterations =  4.0

     total cpu time spent up to now is       75.2 secs

     total energy              =    -818.23592495 Ry
     estimated scf accuracy    <       0.00000159 Ry

     total magnetization       =    -0.00 Bohr mag/cell
     absolute magnetization    =     0.00 Bohr mag/cell

     iteration #  9     ecut=    50.00 Ry     beta= 0.30
     Davidson diagonalization with overlap
     ethr =  9.17E-10,  avg # of iterations =  4.0

     Magnetic moment per site  (integrated on atomic sphere of radius R)
     atom   1 (R=0.050)  charge=  1.0290  magn=  0.0000
     atom   2 (R=0.050)  charge=  1.0273  magn= -0.0000
     atom   3 (R=0.050)  charge=  1.1516  magn= -0.0000
     atom   4 (R=0.050)  charge=  1.0996  magn= -0.0000
     atom   5 (R=0.050)  charge=  1.0860  magn= -0.0000
     atom   6 (R=0.050)  charge=  1.0399  magn=  0.0000
     atom   7 (R=0.050)  charge=  1.0831  magn= -0.0000
     atom   8 (R=0.050)  charge=  1.1041  magn= -0.0000
     atom   9 (R=0.050)  charge=  1.1069  magn= -0.0000
     atom  10 (R=0.050)  charge=  1.1066  magn=  0.0000
     atom  11 (R=0.050)  charge=  1.0220  magn= -0.0000
     atom  12 (R=0.050)  charge=  1.1199  magn=  0.0000
     atom  13 (R=0.050)  charge=  1.1029  magn=  0.0000
     atom  14 (R=0.050)  charge=  1.1049  magn= -0.0000
     atom  15 (R=0.050)  charge=  1.1049  magn=  0.0000
     atom  16 (R=0.050)  charge=  1.0211  magn= -0.0000
     atom  17 (R=0.050)  charge=  1.1038  magn=  0.0000
     atom  18 (R=0.050)  charge=  1.1048  magn=  0.0000
     atom  19 (R=0.050)  charge=  1.1024  magn=  0.0000
     atom  20 (R=0.050)  charge=  1.1043  magn=  0.0000
     atom  21 (R=0.050)  charge=  1.0197  magn=  0.0000
     atom  22 (R=0.050)  charge=  1.1038  magn= -0.0000
     atom  23 (R=0.050)  charge=  1.1037  magn= -0.0000
     atom  24 (R=0.050)  charge=  1.1044  magn= -0.0000
     atom  25 (R=0.050)  charge=  1.1030  magn=  0.0000
     atom  26 (R=0.050)  charge=  1.0198  magn= -0.0000
     atom  27 (R=0.050)  charge=  1.1043  magn=  0.0000
     atom  28 (R=0.050)  charge=  1.1047  magn=  0.0000
     atom  29 (R=0.050)  charge=  1.1047  magn=  0.0000
     atom  30 (R=0.050)  charge=  1.1022  magn=  0.0000
     atom  31 (R=0.050)  charge=  1.0198  magn=  0.0000
     atom  32 (R=0.050)  charge=  1.1048  magn= -0.0000
     atom  33 (R=0.050)  charge=  1.1041  magn= -0.0000
     atom  34 (R=0.050)  charge=  1.1043  magn= -0.0000
     atom  35 (R=0.050)  charge=  1.1042  magn= -0.0000
     atom  36 (R=0.050)  charge=  1.0198  magn=  0.0000
     atom  37 (R=0.050)  charge=  1.1039  magn=  0.0000
     atom  38 (R=0.050)  charge=  1.1046  magn= -0.0000
     atom  39 (R=0.050)  charge=  1.1041  magn=  0.0000
     atom  40 (R=0.050)  charge=  1.1043  magn= -0.0000
     atom  41 (R=0.041)  charge=  1.9162  magn= -0.0000
     atom  42 (R=0.041)  charge=  1.9059  magn=  0.0000
     atom  43 (R=0.041)  charge=  0.3768  magn= -0.0000

     total cpu time spent up to now is       76.8 secs

     End of self-consistent calculation

 ------ SPIN UP ------------


          k = 0.0000 0.0000 0.0000 ( 19564 PWs)   bands (ev):

   -25.0713 -19.0643 -18.1276 -17.9568 -17.7471 -17.7321 -17.6989 -17.6976
   -17.3017 -16.8036 -15.1105 -15.0679 -15.0354 -15.0251 -15.0210 -15.0039
   -14.9970 -14.9731 -14.7202 -14.0163 -13.9930 -13.9806 -13.9515 -13.9506
   -13.8129 -12.8266 -10.9682 -10.4891 -10.4159 -10.3372 -10.2909 -10.2506
   -10.2156 -10.2055 -10.1934  -9.6921  -9.4152  -9.3666  -9.3298  -9.3187
    -9.2520  -9.0130  -8.7778  -8.7578  -8.7356  -8.7061  -8.6644  -8.5635
    -8.5236  -8.4741  -8.3509  -7.6105  -6.1345  -4.7020  -4.3084  -4.2761
    -4.0034  -3.9727  -3.9569  -3.9350  -3.8684  -3.8545  -3.6973  -3.6833
    -3.6604  -3.6453  -3.6330  -3.6203  -3.5600  -3.3879  -3.3304  -3.2100
    -3.1950  -3.1863  -3.1738  -3.0979  -3.0543  -2.9503  -2.9287  -2.9167
    -2.9003  -2.7031  -2.6503  -2.5852  -2.5268  -1.2311  -0.8506   1.8306
     2.0430   2.1787   2.2732   2.2922   2.3157   2.3386   2.3955   2.4351
     2.4669   2.6124   2.6725   2.6995   2.7541   2.7740   2.7925   2.9523

 ------ SPIN DOWN ----------


          k = 0.0000 0.0000 0.0000 ( 19564 PWs)   bands (ev):

   -25.0713 -19.0643 -18.1276 -17.9568 -17.7471 -17.7321 -17.6989 -17.6976
   -17.3017 -16.8036 -15.1105 -15.0679 -15.0354 -15.0251 -15.0210 -15.0039
   -14.9970 -14.9731 -14.7202 -14.0163 -13.9930 -13.9806 -13.9515 -13.9506
   -13.8129 -12.8266 -10.9682 -10.4891 -10.4159 -10.3372 -10.2909 -10.2506
   -10.2156 -10.2055 -10.1934  -9.6921  -9.4152  -9.3666  -9.3298  -9.3187
    -9.2520  -9.0130  -8.7778  -8.7578  -8.7356  -8.7061  -8.6644  -8.5635
    -8.5236  -8.4741  -8.3509  -7.6105  -6.1345  -4.7020  -4.3084  -4.2761
    -4.0034  -3.9727  -3.9569  -3.9350  -3.8684  -3.8545  -3.6973  -3.6833
    -3.6604  -3.6453  -3.6330  -3.6203  -3.5600  -3.3879  -3.3304  -3.2100
    -3.1950  -3.1863  -3.1738  -3.0979  -3.0543  -2.9503  -2.9287  -2.9167
    -2.9003  -2.7031  -2.6503  -2.5852  -2.5268  -1.2311  -0.8506   1.8306
     2.0430   2.1787   2.2732   2.2922   2.3157   2.3386   2.3955   2.4351
     2.4669   2.6124   2.6725   2.6995   2.7541   2.7740   2.7925   2.9523

     the spin up/dw Fermi energies are    -0.8506   -0.8506 ev

!    total energy              =    -818.23592548 Ry
     estimated scf accuracy    <       0.00000020 Ry
     smearing contrib. (-TS)   =      -0.00005642 Ry
     internal energy E=F+TS    =    -818.23586906 Ry

     The total energy is F=E-TS. E is the sum of the following terms:
     one-electron contribution =    -738.24490721 Ry
     hartree contribution      =     414.81723735 Ry
     xc contribution           =    -196.15914212 Ry
     ewald contribution        =     -32.88177813 Ry
     one-center paw contrib.   =    -265.76727896 Ry

     total magnetization       =    -0.00 Bohr mag/cell
     absolute magnetization    =     0.00 Bohr mag/cell

     convergence has been achieved in   9 iterations

     Forces acting on atoms (cartesian axes, Ry/au):

     atom    1 type  1   force =    -0.05341082   -0.05742519    0.04056020
     atom    2 type  1   force =    -0.08972989   -0.07594662    0.02268879
     atom    3 type  1   force =     0.02501234    0.02901639   -0.00569803
     atom    4 type  1   force =     0.04395917    0.01377009   -0.02912433
     atom    5 type  1   force =     0.00746257    0.03522237   -0.02080238
     atom    6 type  1   force =    -0.03433756   -0.03406051   -0.03947467
     atom    7 type  1   force =     0.11038634    0.12485560    0.07944246
     atom    8 type  1   force =     0.01150362    0.01154673   -0.01707826
     atom    9 type  1   force =     0.00608140   -0.01962154    0.00508932
     atom   10 type  1   force =    -0.02008768    0.00887048    0.00752221
     atom   11 type  1   force =     0.00547843    0.00481493   -0.00634609
     atom   12 type  1   force =     0.05416361    0.05380854   -0.05535044
     atom   13 type  1   force =    -0.01692472   -0.01686452   -0.01680004
     atom   14 type  1   force =    -0.01714432    0.01729667    0.01663489
     atom   15 type  1   force =     0.01721875   -0.01716073    0.01662990
     atom   16 type  1   force =     0.00319818   -0.00368715    0.00248080
     atom   17 type  1   force =     0.01118035    0.00655570   -0.00056492
     atom   18 type  1   force =    -0.01679252    0.01645825    0.01735396
     atom   19 type  1   force =    -0.01527298   -0.01642286   -0.01531359
     atom   20 type  1   force =     0.01714377    0.01588380   -0.01610373
     atom   21 type  1   force =     0.00037802    0.00070985    0.00157746
     atom   22 type  1   force =     0.01694315   -0.01754999   -0.01700288
     atom   23 type  1   force =    -0.01718643    0.01675358   -0.01677707
     atom   24 type  1   force =     0.01678546    0.01676555    0.01688072
     atom   25 type  1   force =    -0.01617893   -0.01609534    0.01781962
     atom   26 type  1   force =    -0.00264174    0.00089972    0.00151696
     atom   27 type  1   force =    -0.00632505    0.01280870    0.00788107
     atom   28 type  1   force =     0.01669791   -0.01741102    0.01706424
     atom   29 type  1   force =     0.01658782    0.01706219   -0.01674614
     atom   30 type  1   force =    -0.01680298   -0.01688695   -0.01671798
     atom   31 type  1   force =    -0.00023061    0.00084635    0.00027484
     atom   32 type  1   force =     0.01663819    0.01618103    0.01669083
     atom   33 type  1   force =    -0.01689218   -0.01685592    0.01676473
     atom   34 type  1   force =     0.01974738   -0.01949050   -0.01917438
     atom   35 type  1   force =    -0.01690993    0.01688208   -0.01722168
     atom   36 type  1   force =     0.00072885    0.00007866    0.00040603
     atom   37 type  1   force =    -0.01932814    0.01966755   -0.01928687
     atom   38 type  1   force =     0.01616491    0.01652879    0.01655651
     atom   39 type  1   force =     0.01700440   -0.01687984   -0.01724733
     atom   40 type  1   force =    -0.01735414   -0.01648106    0.01731873
     atom   41 type  2   force =     0.06487308   -0.08911637   -0.07346600
     atom   42 type  2   force =    -0.05239867   -0.00676217    0.08377153
     atom   43 type  3   force =    -0.06938840    0.00143466    0.01337102

     Total force =     0.357790     Total SCF correction =     0.000682
     Energy error            =      8.5E-02 Ry
     Gradient error          =      1.2E-01 Ry/Bohr

     number of scf cycles    =   4
     number of bfgs steps    =   2

     energy             old  =    -818.1507136661 Ry
     energy             new  =    -818.2359254827 Ry

     CASE: energy            _new < energy            _old

     new trust radius        =       0.1973724648 bohr
     new conv_thr            =       0.0000010000 Ry


ATOMIC_POSITIONS (angstrom)
C             1.2191536060        1.2514164502        1.0648490992
C             0.1097895717        0.1664375802        0.2322521736
C             2.0272298928        2.0272090269        0.1941670040
C             0.2477759682        2.0315570974        1.9489368079
C             2.0202044616        0.2406582082        1.9584666772
C             8.4898468650        8.4935077837        8.4770443199
C             9.4077697508        9.4373816594        9.2846734820
C             7.6292467234        7.6292905563        9.3973874080
C             7.6260729889        9.3947443478        7.6243876860
C             9.3950834658        7.6277613760        7.6256282013
C             3.5671223837        3.5670271166        8.5116336813
C             2.7108618703        2.7104791516        9.3674003860
C             4.4476338559        4.4477094278        9.3962110521
C             4.4483173143        2.6843019041        7.6320359367
C             2.6844376066        4.4484553705        7.6317416001
C             3.5678847804        8.5140036774        3.5661438091
C             2.6969060454        9.4055974068        2.6836415905
C             4.4475700261        7.6327167554        2.6839208208
C             4.4486359459        9.3961600271        4.4485792347
C             2.6846836909        7.6313286336        4.4489680173
C             6.0398282639        6.0400397679        1.0928323434
C             5.1578338306        6.9219253016        1.9731620828
C             6.9220791773        5.1579885068        1.9731359609
C             5.1584404439        5.1584660339        0.2090389256
C             6.9213607736        6.9213146222        0.2123552995
C             8.5130585477        3.5641993704        3.5654438843
C             9.4020861521        2.6895577843        2.6814659148
C             7.6328131025        4.4474376588        2.6838962384
C             7.6318529657        2.6843993631        4.4489757968
C             9.3964609420        4.4475037031        4.4474237626
C             1.0918342355        6.0390107333        6.0401452400
C             0.2089705609        5.1581456578        5.1585471567
C             1.9719861089        6.9218553505        5.1585757404
C             0.2111422745        6.9202439974        6.9203618299
C             1.9729872734        5.1584106772        6.9216334700
C             6.0393462265        1.0926287420        6.0395202036
C             6.9200710379        0.2113153217        6.9198613795
C             5.1584447460        0.2089919591        5.1588849171
C             5.1583799431        1.9729404822        6.9218160165
C             6.9214924859        1.9731139899        5.1590686769
O             0.0020150465       -0.4402897234        1.6937709148
O            -1.1457417382       -0.3809039155        2.5430441143
H            -0.4789692141       -0.3090389414        3.2629711433



     Writing config-only to output data dir ./pwscf.save/
     NEW-OLD atomic charge density approx. for the potential

     Check: negative core charge=   -0.000004
     Generating pointlists ...

     total cpu time spent up to now is       79.1 secs

     Self-consistent Calculation

     iteration #  1     ecut=    50.00 Ry     beta= 0.30
     Davidson diagonalization with overlap
     ethr =  1.00E-06,  avg # of iterations = 18.0

     total cpu time spent up to now is       82.8 secs

     total energy              =    -818.27348348 Ry
     estimated scf accuracy    <       0.05647938 Ry

     total magnetization       =    -0.00 Bohr mag/cell
     absolute magnetization    =     0.00 Bohr mag/cell

     iteration #  2     ecut=    50.00 Ry     beta= 0.30
     Davidson diagonalization with overlap
     ethr =  3.26E-05,  avg # of iterations =  2.0

     total cpu time spent up to now is       84.3 secs

     total energy              =    -818.27695838 Ry
     estimated scf accuracy    <       0.01008617 Ry

     total magnetization       =    -0.00 Bohr mag/cell
     absolute magnetization    =     0.00 Bohr mag/cell

     iteration #  3     ecut=    50.00 Ry     beta= 0.30
     Davidson diagonalization with overlap
     ethr =  5.83E-06,  avg # of iterations =  4.0

     total cpu time spent up to now is       85.7 secs

     total energy              =    -818.27625382 Ry
     estimated scf accuracy    <       0.00326281 Ry

     total magnetization       =     0.00 Bohr mag/cell
     absolute magnetization    =     0.00 Bohr mag/cell

     iteration #  4     ecut=    50.00 Ry     beta= 0.30
     Davidson diagonalization with overlap
     ethr =  1.89E-06,  avg # of iterations =  5.0

     total cpu time spent up to now is       87.3 secs

     total energy              =    -818.27611706 Ry
     estimated scf accuracy    <       0.00071099 Ry

     total magnetization       =    -0.00 Bohr mag/cell
     absolute magnetization    =     0.00 Bohr mag/cell

     iteration #  5     ecut=    50.00 Ry     beta= 0.30
     Davidson diagonalization with overlap
     ethr =  4.11E-07,  avg # of iterations =  5.0

     total cpu time spent up to now is       88.8 secs

     total energy              =    -818.27613183 Ry
     estimated scf accuracy    <       0.00012233 Ry

     total magnetization       =     0.00 Bohr mag/cell
     absolute magnetization    =     0.00 Bohr mag/cell

     iteration #  6     ecut=    50.00 Ry     beta= 0.30
     Davidson diagonalization with overlap
     ethr =  7.07E-08,  avg # of iterations =  2.0

     total cpu time spent up to now is       90.2 secs

     total energy              =    -818.27613297 Ry
     estimated scf accuracy    <       0.00002040 Ry

     total magnetization       =     0.00 Bohr mag/cell
     absolute magnetization    =     0.00 Bohr mag/cell

     iteration #  7     ecut=    50.00 Ry     beta= 0.30
     Davidson diagonalization with overlap
     ethr =  1.18E-08,  avg # of iterations =  4.0

     total cpu time spent up to now is       91.8 secs

     total energy              =    -818.27613608 Ry
     estimated scf accuracy    <       0.00000313 Ry

     total magnetization       =     0.00 Bohr mag/cell
     absolute magnetization    =     0.00 Bohr mag/cell

     iteration #  8     ecut=    50.00 Ry     beta= 0.30
     Davidson diagonalization with overlap
     ethr =  1.81E-09,  avg # of iterations =  4.0

     Magnetic moment per site  (integrated on atomic sphere of radius R)
     atom   1 (R=0.050)  charge=  1.0210  magn=  0.0000
     atom   2 (R=0.050)  charge=  1.0787  magn= -0.0000
     atom   3 (R=0.050)  charge=  1.1376  magn= -0.0000
     atom   4 (R=0.050)  charge=  1.0939  magn= -0.0000
     atom   5 (R=0.050)  charge=  1.0833  magn= -0.0000
     atom   6 (R=0.050)  charge=  1.0251  magn=  0.0000
     atom   7 (R=0.050)  charge=  1.1183  magn= -0.0000
     atom   8 (R=0.050)  charge=  1.0979  magn= -0.0000
     atom   9 (R=0.050)  charge=  1.1029  magn= -0.0000
     atom  10 (R=0.050)  charge=  1.1016  magn=  0.0000
     atom  11 (R=0.050)  charge=  1.0353  magn= -0.0000
     atom  12 (R=0.050)  charge=  1.1224  magn=  0.0000
[...]
     absolute magnetization    =     0.02 Bohr mag/cell

     iteration #  5     ecut=    50.00 Ry     beta= 0.30
     Davidson diagonalization with overlap
     ethr =  1.55E-05,  avg # of iterations =  3.0

     total cpu time spent up to now is      654.7 secs

     total energy              =    -818.43219635 Ry
     estimated scf accuracy    <       0.01926354 Ry

     total magnetization       =    -0.00 Bohr mag/cell
     absolute magnetization    =     0.01 Bohr mag/cell

     iteration #  6     ecut=    50.00 Ry     beta= 0.30
     Davidson diagonalization with overlap
     ethr =  1.11E-05,  avg # of iterations =  2.0

     total cpu time spent up to now is      656.1 secs

     total energy              =    -818.42128088 Ry
     estimated scf accuracy    <       0.01251732 Ry

     total magnetization       =    -0.00 Bohr mag/cell
     absolute magnetization    =     0.01 Bohr mag/cell

     iteration #  7     ecut=    50.00 Ry     beta= 0.30
     Davidson diagonalization with overlap
     ethr =  7.24E-06,  avg # of iterations =  3.0

     total cpu time spent up to now is      657.8 secs

     total energy              =    -818.42570985 Ry
     estimated scf accuracy    <       0.01076484 Ry

     total magnetization       =     0.00 Bohr mag/cell
     absolute magnetization    =     0.01 Bohr mag/cell

     iteration #  8     ecut=    50.00 Ry     beta= 0.30
     Davidson diagonalization with overlap
     ethr =  6.22E-06,  avg # of iterations =  2.0

     total cpu time spent up to now is      659.2 secs

     total energy              =    -818.42542945 Ry
     estimated scf accuracy    <       0.00190633 Ry

     total magnetization       =    -0.00 Bohr mag/cell
     absolute magnetization    =     0.01 Bohr mag/cell

     iteration #  9     ecut=    50.00 Ry     beta= 0.30
     Davidson diagonalization with overlap
     ethr =  1.10E-06,  avg # of iterations = 14.0

     total cpu time spent up to now is      661.3 secs

     total energy              =    -818.42595756 Ry
     estimated scf accuracy    <       0.00002486 Ry

     total magnetization       =    -0.00 Bohr mag/cell
     absolute magnetization    =     0.01 Bohr mag/cell

     iteration # 10     ecut=    50.00 Ry     beta= 0.30
     Davidson diagonalization with overlap
     ethr =  1.44E-08,  avg # of iterations =  5.0

     total cpu time spent up to now is      663.1 secs

     total energy              =    -818.42586823 Ry
     estimated scf accuracy    <       0.00011418 Ry

     total magnetization       =     0.00 Bohr mag/cell
     absolute magnetization    =     0.00 Bohr mag/cell

     iteration # 11     ecut=    50.00 Ry     beta= 0.30
     Davidson diagonalization with overlap
     ethr =  1.44E-08,  avg # of iterations =  4.0

     total cpu time spent up to now is      664.8 secs

     total energy              =    -818.42585102 Ry
     estimated scf accuracy    <       0.00000058 Ry

     total magnetization       =    -0.00 Bohr mag/cell
     absolute magnetization    =     0.00 Bohr mag/cell

     iteration # 12     ecut=    50.00 Ry     beta= 0.30
     Davidson diagonalization with overlap
     ethr =  3.34E-10,  avg # of iterations =  5.0

     total cpu time spent up to now is      666.8 secs

     total energy              =    -818.42584781 Ry
     estimated scf accuracy    <       0.00000101 Ry

     total magnetization       =    -0.00 Bohr mag/cell
     absolute magnetization    =     0.00 Bohr mag/cell

     iteration # 13     ecut=    50.00 Ry     beta= 0.30
     Davidson diagonalization with overlap
     ethr =  3.34E-10,  avg # of iterations =  3.0

     total cpu time spent up to now is      668.5 secs

     total energy              =    -818.42584467 Ry
     estimated scf accuracy    <       0.00000003 Ry

     total magnetization       =     0.00 Bohr mag/cell
     absolute magnetization    =     0.00 Bohr mag/cell

     iteration # 14     ecut=    50.00 Ry     beta= 0.30
     Davidson diagonalization with overlap
     ethr =  1.95E-11,  avg # of iterations =  4.0

     total cpu time spent up to now is      670.2 secs

     total energy              =    -818.42584313 Ry
     estimated scf accuracy    <       0.00000010 Ry

     total magnetization       =    -0.00 Bohr mag/cell
     absolute magnetization    =     0.00 Bohr mag/cell

     iteration # 15     ecut=    50.00 Ry     beta= 0.30
     Davidson diagonalization with overlap
     ethr =  1.95E-11,  avg # of iterations =  3.0

     total cpu time spent up to now is      671.9 secs

     total energy              =    -818.42584338 Ry
     estimated scf accuracy    <       0.00000001 Ry

     total magnetization       =    -0.00 Bohr mag/cell
     absolute magnetization    =     0.00 Bohr mag/cell

     iteration # 16     ecut=    50.00 Ry     beta= 0.30
     Davidson diagonalization with overlap
     ethr =  6.86E-12,  avg # of iterations =  2.0

     total cpu time spent up to now is      673.3 secs

     total energy              =    -818.42584394 Ry
     estimated scf accuracy    <       0.00000001 Ry

     total magnetization       =    -0.00 Bohr mag/cell
     absolute magnetization    =     0.00 Bohr mag/cell

     iteration # 17     ecut=    50.00 Ry     beta= 0.30
     Davidson diagonalization with overlap
     ethr =  6.19E-12,  avg # of iterations =  2.0

     Magnetic moment per site  (integrated on atomic sphere of radius R)
     atom   1 (R=0.050)  charge=  1.0184  magn=  0.0000
     atom   2 (R=0.050)  charge=  1.0587  magn= -0.0000
     atom   3 (R=0.050)  charge=  1.0955  magn=  0.0000
     atom   4 (R=0.050)  charge=  1.1022  magn=  0.0000
     atom   5 (R=0.050)  charge=  1.1031  magn= -0.0000
     atom   6 (R=0.050)  charge=  1.0203  magn= -0.0000
     atom   7 (R=0.050)  charge=  1.0566  magn=  0.0000
     atom   8 (R=0.050)  charge=  1.0956  magn=  0.0000
     atom   9 (R=0.050)  charge=  1.1018  magn= -0.0000
     atom  10 (R=0.050)  charge=  1.1001  magn= -0.0000
     atom  11 (R=0.050)  charge=  1.0176  magn=  0.0000
     atom  12 (R=0.050)  charge=  1.0938  magn= -0.0000
     atom  13 (R=0.050)  charge=  1.0973  magn= -0.0000
     atom  14 (R=0.050)  charge=  1.1006  magn= -0.0000
     atom  15 (R=0.050)  charge=  1.1001  magn=  0.0000
     atom  16 (R=0.050)  charge=  1.0242  magn= -0.0000
     atom  17 (R=0.050)  charge=  1.1021  magn=  0.0000
     atom  18 (R=0.050)  charge=  1.1014  magn=  0.0000
     atom  19 (R=0.050)  charge=  1.1022  magn= -0.0000
     atom  20 (R=0.050)  charge=  1.1000  magn=  0.0000
     atom  21 (R=0.050)  charge=  1.0188  magn=  0.0000
     atom  22 (R=0.050)  charge=  1.1008  magn= -0.0000
     atom  23 (R=0.050)  charge=  1.1000  magn= -0.0000
     atom  24 (R=0.050)  charge=  1.0974  magn=  0.0000
     atom  25 (R=0.050)  charge=  1.0965  magn= -0.0000
     atom  26 (R=0.050)  charge=  1.0221  magn= -0.0000
     atom  27 (R=0.050)  charge=  1.1015  magn= -0.0000
     atom  28 (R=0.050)  charge=  1.1007  magn=  0.0000
     atom  29 (R=0.050)  charge=  1.1005  magn=  0.0000
     atom  30 (R=0.050)  charge=  1.1008  magn= -0.0000
     atom  31 (R=0.050)  charge=  1.0225  magn= -0.0000
     atom  32 (R=0.050)  charge=  1.1010  magn=  0.0000
     atom  33 (R=0.050)  charge=  1.1007  magn= -0.0000
     atom  34 (R=0.050)  charge=  1.1013  magn=  0.0000
     atom  35 (R=0.050)  charge=  1.0998  magn= -0.0000
     atom  36 (R=0.050)  charge=  1.0231  magn= -0.0000
     atom  37 (R=0.050)  charge=  1.1025  magn=  0.0000
     atom  38 (R=0.050)  charge=  1.1021  magn=  0.0000
     atom  39 (R=0.050)  charge=  1.1010  magn=  0.0000
     atom  40 (R=0.050)  charge=  1.1001  magn= -0.0000
     atom  41 (R=0.040)  charge=  1.8172  magn=  0.0000
     atom  42 (R=0.040)  charge=  1.8241  magn= -0.0000
     atom  43 (R=0.040)  charge=  0.3812  magn=  0.0000

     total cpu time spent up to now is      674.6 secs

     End of self-consistent calculation

 ------ SPIN UP ------------


          k = 0.0000 0.0000 0.0000 ( 19564 PWs)   bands (ev):

   -24.2668 -19.6354 -18.0840 -17.7921 -17.7824 -17.7486 -17.7165 -17.6849
   -17.4332 -17.1256 -15.0514 -15.0197 -15.0062 -14.9972 -14.9940 -14.9807
   -14.9736 -14.9500 -14.8097 -13.9796 -13.9630 -13.9540 -13.9260 -13.9078
   -13.8377 -12.7614 -10.7944 -10.4167 -10.3718 -10.3463 -10.2780 -10.2585
   -10.2534 -10.2348 -10.1457  -9.6714  -9.4027  -9.3505  -9.3347  -9.2632
    -9.2007  -9.1269  -8.7887  -8.7435  -8.7405  -8.7234  -8.6137  -8.6054
    -8.5429  -8.4858  -8.0579  -7.6741  -6.5851  -4.4606  -4.3038  -4.1666
    -3.9645  -3.9599  -3.9473  -3.9115  -3.8470  -3.8051  -3.7056  -3.6558
    -3.6468  -3.6163  -3.6040  -3.5985  -3.5791  -3.4329  -3.3291  -3.2628
    -3.1890  -3.1824  -3.1557  -3.1068  -3.0476  -2.9357  -2.9094  -2.8960
    -2.8809  -2.8242  -2.6804  -2.6456  -2.5521  -2.5427  -1.1693   1.4460
     2.0695   2.1720   2.2087   2.2217   2.2411   2.2561   2.3223   2.3880
     2.4607   2.5035   2.5544   2.6412   2.7115   2.7317   2.7474   2.8311

 ------ SPIN DOWN ----------


          k = 0.0000 0.0000 0.0000 ( 19564 PWs)   bands (ev):

   -24.2668 -19.6354 -18.0840 -17.7921 -17.7824 -17.7486 -17.7165 -17.6849
   -17.4332 -17.1256 -15.0514 -15.0197 -15.0062 -14.9972 -14.9940 -14.9807
   -14.9736 -14.9500 -14.8097 -13.9796 -13.9630 -13.9540 -13.9260 -13.9078
   -13.8377 -12.7614 -10.7944 -10.4167 -10.3718 -10.3463 -10.2780 -10.2585
   -10.2534 -10.2348 -10.1457  -9.6714  -9.4027  -9.3505  -9.3347  -9.2632
    -9.2007  -9.1269  -8.7887  -8.7435  -8.7406  -8.7234  -8.6137  -8.6054
    -8.5429  -8.4858  -8.0579  -7.6741  -6.5852  -4.4606  -4.3038  -4.1666
    -3.9645  -3.9598  -3.9473  -3.9115  -3.8470  -3.8051  -3.7056  -3.6558
    -3.6468  -3.6163  -3.6040  -3.5985  -3.5791  -3.4329  -3.3291  -3.2628
    -3.1890  -3.1824  -3.1557  -3.1068  -3.0476  -2.9357  -2.9094  -2.8959
    -2.8809  -2.8242  -2.6804  -2.6456  -2.5522  -2.5427  -1.1692   1.4460
     2.0695   2.1720   2.2087   2.2217   2.2411   2.2561   2.3223   2.3880
     2.4607   2.5035   2.5544   2.6412   2.7115   2.7318   2.7474   2.8312

     the spin up/dw Fermi energies are    -1.1693   -1.1692 ev

!    total energy              =    -818.42584442 Ry
     estimated scf accuracy    <          1.9E-09 Ry
     smearing contrib. (-TS)   =      -0.00005642 Ry
     internal energy E=F+TS    =    -818.42578800 Ry

     The total energy is F=E-TS. E is the sum of the following terms:
     one-electron contribution =    -722.57896009 Ry
     hartree contribution      =     406.68740541 Ry
     xc contribution           =    -195.79014238 Ry
     ewald contribution        =     -40.98964509 Ry
     one-center paw contrib.   =    -265.75444586 Ry

     total magnetization       =    -0.00 Bohr mag/cell
     absolute magnetization    =     0.00 Bohr mag/cell

     convergence has been achieved in  17 iterations

     Forces acting on atoms (cartesian axes, Ry/au):

     atom    1 type  1   force =    -0.00038968   -0.00040228   -0.00056099
     atom    2 type  1   force =     0.00020844   -0.00034968   -0.00007007
     atom    3 type  1   force =     0.00017448    0.00022839   -0.00029104
     atom    4 type  1   force =     0.00012497    0.00008505   -0.00076918
     atom    5 type  1   force =     0.00013390    0.00022106   -0.00071771
     atom    6 type  1   force =    -0.00000628    0.00000490    0.00009179
     atom    7 type  1   force =     0.00028214    0.00013532    0.00036780
     atom    8 type  1   force =     0.00019208    0.00023453    0.00022604
     atom    9 type  1   force =     0.00046738   -0.00011827    0.00076030
     atom   10 type  1   force =     0.00030000   -0.00004305    0.00018466
     atom   11 type  1   force =     0.00013366    0.00018359   -0.00010670
     atom   12 type  1   force =     0.00008993    0.00010890   -0.00016549
     atom   13 type  1   force =    -0.00014439   -0.00004566   -0.00003859
     atom   14 type  1   force =    -0.00036739    0.00044597    0.00048582
     atom   15 type  1   force =     0.00010823    0.00013499    0.00029564
     atom   16 type  1   force =    -0.00006303    0.00003035    0.00003406
     atom   17 type  1   force =     0.00002325   -0.00027418    0.00002001
     atom   18 type  1   force =    -0.00013127   -0.00007678   -0.00021358
     atom   19 type  1   force =    -0.00000245    0.00031360    0.00047851
     atom   20 type  1   force =    -0.00069116   -0.00027296    0.00022022
     atom   21 type  1   force =     0.00003251    0.00007773   -0.00002040
     atom   22 type  1   force =     0.00010118    0.00004338    0.00022094
     atom   23 type  1   force =     0.00025276   -0.00013431    0.00034961
     atom   24 type  1   force =     0.00014536    0.00006997    0.00053624
     atom   25 type  1   force =    -0.00011004   -0.00003471   -0.00016419
     atom   26 type  1   force =    -0.00013125   -0.00014220    0.00017184
     atom   27 type  1   force =    -0.00035715    0.00005517    0.00014636
     atom   28 type  1   force =    -0.00015654    0.00023065   -0.00047740
     atom   29 type  1   force =     0.00041740    0.00000158   -0.00049633
     atom   30 type  1   force =     0.00042794    0.00014844    0.00049237
     atom   31 type  1   force =    -0.00013177    0.00002205    0.00003385
     atom   32 type  1   force =    -0.00020152   -0.00049468   -0.00021414
     atom   33 type  1   force =     0.00011512    0.00027151   -0.00045525
     atom   34 type  1   force =    -0.00026033    0.00000088    0.00013845
     atom   35 type  1   force =    -0.00038942    0.00036308   -0.00024653
     atom   36 type  1   force =     0.00003962   -0.00002787    0.00019662
     atom   37 type  1   force =    -0.00029996    0.00052210   -0.00003067
     atom   38 type  1   force =    -0.00026575   -0.00008814   -0.00003175
     atom   39 type  1   force =     0.00049634   -0.00062666   -0.00051704
     atom   40 type  1   force =    -0.00083197   -0.00047341    0.00051378
     atom   41 type  2   force =     0.00053685   -0.00011872   -0.00012015
     atom   42 type  2   force =    -0.00018248   -0.00095656    0.00024821
     atom   43 type  3   force =     0.00031032    0.00074693   -0.00050589

     Total force =     0.003645     Total SCF correction =     0.000067
     Energy error            =      2.0E-05 Ry
     Gradient error          =      9.6E-04 Ry/Bohr

     bfgs converged in  44 scf cycles and  40 bfgs steps
     (criteria: energy <  1.0E-04 Ry, force <  1.0E-03 Ry/Bohr)

     End of BFGS Geometry Optimization

     Final energy             =    -818.4258444238 Ry

     File ./pwscf.bfgs deleted, as requested
Begin final coordinates

ATOMIC_POSITIONS (angstrom)
C             1.0888981727        1.0772231808        1.1614963803
C             0.0688251007       -0.0777602989        0.5454144405
C             1.9040259342        1.9086689038        0.1757669658
C             0.2369839721        2.0105879947        2.0129507662
C             2.0327377956        0.2715248832        2.0399833447
C             8.5366024438        8.5643074932        8.4690285505
C             9.4495589044        9.5388775782        9.2586667106
C             7.6522922891        7.6771226579        9.3618056240
C             7.6473936951        9.4375365077        7.5860328085
C             9.4258618096        7.6763138606        7.6007549453
C             3.5294777609        3.5424486496        8.5360338114
C             2.6276863408        2.6361558067        9.3998063803
C             4.4204285680        4.4340435741        9.4200902462
C             4.4285811051        2.6811170342        7.6431901235
C             2.6614576432        4.4393418423        7.6478364106
C             3.6261762677        8.5340145946        3.5740289185
C             2.7429615512        9.4401991027        2.7194004005
C             4.4923617757        7.6552243002        2.6681670801
C             4.5089322163        9.4177193543        4.4506200978
C             2.7423691043        7.6473260705        4.4579858378
C             6.0522097348        6.0680034514        1.0442111448
C             5.1798398467        6.9530509687        1.9392822690
C             6.9442519637        5.1953164448        1.9323154297
C             5.1495401380        5.1643474094        0.1837839599
C             6.9344548844        6.9594056119        0.1539676097
C             8.5306021070        3.6338182698        3.5544718977
C             9.4263456142        2.7432965284        2.6916057074
C             7.6499935112        4.5042911542        2.6546504328
C             7.6421403263        2.7529132969        4.4399681124
C             9.4126033786        4.5161698265        4.4386525442
C             1.1277599458        6.0692738707        6.0393826147
C             0.2346069265        5.2056323632        5.1474317851
C             2.0308484013        6.9438563568        5.1629058737
C             0.2460579383        6.9653860114        6.9109063496
C             1.9844679076        5.1649318902        6.9318038550
C             6.0569040993        1.1529571175        6.0286702037
C             6.9450277643        0.2665230571        6.8978598336
C             5.1928904731        0.2563657861        5.1460136302
C             5.1560131668        2.0118167566        6.9220832617
C             6.9358397269        2.0477771726        5.1480633482
O            -0.2206938432       -1.0518936962        1.5182795322
O            -1.1823258374       -0.5591643726        2.5413804760
H            -0.5689906250       -0.1790683660        3.2072502856
End final coordinates



     Writing all to output data dir ./pwscf.save/

     init_run     :      1.65s CPU      1.73s WALL (       1 calls)
     electrons    :    552.81s CPU    582.65s WALL (      45 calls)
     update_pot   :     27.46s CPU     27.90s WALL (      43 calls)
     forces       :     32.98s CPU     34.96s WALL (      45 calls)

     Called by init_run:
     wfcinit      :      0.44s CPU      0.45s WALL (       1 calls)
     potinit      :      1.24s CPU      1.29s WALL (       2 calls)
     hinit0       :      0.41s CPU      0.43s WALL (       1 calls)

     Called by electrons:
     c_bands      :    304.02s CPU    314.87s WALL (     365 calls)
     sum_band     :     74.21s CPU     77.34s WALL (     365 calls)
     v_of_rho     :     63.57s CPU     65.97s WALL (     399 calls)
     newd         :     27.93s CPU     28.93s WALL (     399 calls)
     PAW_pot      :    103.37s CPU    104.03s WALL (     442 calls)
     mix_rho      :      5.31s CPU      5.85s WALL (     365 calls)

     Called by c_bands:
     init_us_2    :      4.06s CPU      4.16s WALL (    1638 calls)
     init_us_2:cp :      4.05s CPU      4.16s WALL (    1638 calls)
     regterg      :    297.40s CPU    308.04s WALL (     730 calls)

     Called by *egterg:
     rdiaghg      :     24.02s CPU     24.19s WALL (    3027 calls)
     h_psi        :    180.06s CPU    189.23s WALL (    3139 calls)
     s_psi        :     25.67s CPU     25.88s WALL (    3139 calls)
     g_psi        :      0.59s CPU      0.60s WALL (    2407 calls)

     Called by h_psi:
     h_psi:calbec :     24.66s CPU     25.19s WALL (    3139 calls)
     vloc_psi     :    128.58s CPU    137.00s WALL (    3139 calls)
     add_vuspsi   :     25.54s CPU     25.75s WALL (    3139 calls)

     General routines
     calbec       :     38.46s CPU     39.26s WALL (    4315 calls)
     fft          :     22.48s CPU     25.82s WALL (    8802 calls)
     ffts         :      1.57s CPU      1.78s WALL (    1528 calls)
     fftw         :    135.40s CPU    144.31s WALL (  238396 calls)
     interpolate  :      3.44s CPU      3.89s WALL (     798 calls)

     Parallel routines

     PWSCF        :  10m36.87s CPU  11m16.77s WALL


   This run was terminated on:  20:37:29  25May2025            

=------------------------------------------------------------------------------=
   JOB DONE.
=------------------------------------------------------------------------------=
