ITEM: TIMESTEP
0
ITEM: NUMBER OF ATOMS
50
ITEM: BOX BOUNDS pp pp pp
0.0000000000000000e+00 1.1000000000000000e+01
0.0000000000000000e+00 1.1002000000000001e+01
0.0000000000000000e+00 1.1000000000000000e+01
ITEM: ATOMS id type x y z 
10 1 4.603 4.603 4.603 
11 1 3.085 3.085 3.085 
12 1 3.796 3.796 3.796 
46 1 0.726 0.725 0.725 
47 1 2.26 2.259 2.26 
48 1 1.551 1.55 1.55 
49 2 0.539 0.602 2.065 
50 3 0.539 0.602 3.041 
19 1 4.546 4.545 6.226 
20 1 3.013 3.013 7.764 
21 1 3.721 3.721 7.053 
31 1 0.668 0.667 10.103 
32 1 2.187 2.187 8.589 
33 1 1.476 1.475 9.298 
16 1 4.546 6.225 4.546 
17 1 3.013 7.765 3.013 
18 1 3.721 7.053 3.722 
25 1 0.668 10.103 0.668 
26 1 2.188 8.589 2.188 
27 1 1.476 9.298 1.476 
4 1 4.608 6.169 6.169 
5 1 3.086 7.684 7.684 
6 1 3.799 6.974 6.974 
37 1 0.729 10.046 10.046 
38 1 2.259 8.509 8.508 
39 1 1.552 9.219 9.219 
13 1 6.225 4.546 4.546 
14 1 7.764 3.013 3.013 
15 1 7.053 3.721 3.722 
28 1 10.102 0.667 0.668 
29 1 8.589 2.187 2.188 
30 1 9.298 1.475 1.476 
1 1 6.168 4.608 6.169 
2 1 7.684 3.086 7.684 
3 1 6.974 3.799 6.974 
40 1 10.045 0.728 10.046 
41 1 8.508 2.259 8.508 
42 1 9.218 1.551 9.218 
7 1 6.169 6.169 4.608 
8 1 7.684 7.684 3.086 
9 1 6.974 6.974 3.799 
43 1 10.046 10.047 0.729 
44 1 8.508 8.509 2.259 
45 1 9.219 9.219 1.552 
22 1 6.229 6.229 6.229 
23 1 7.764 7.765 7.765 
24 1 7.055 7.056 7.055 
34 1 10.108 10.108 10.107 
35 1 8.59 8.59 8.59 
36 1 9.301 9.301 9.3 
ITEM: TIMESTEP
10
ITEM: NUMBER OF ATOMS
50
ITEM: BOX BOUNDS pp pp pp
0.0000000000000000e+00 1.1000000000000000e+01
0.0000000000000000e+00 1.1002000000000001e+01
0.0000000000000000e+00 1.1000000000000000e+01
ITEM: ATOMS id type x y z 
10 1 4.58996 4.58826 4.59106 
11 1 3.10797 3.10553 3.1106 
12 1 3.81371 3.81675 3.81245 
46 1 0.738263 0.738884 0.701223 
47 1 2.27529 2.27353 2.26443 
48 1 1.63929 1.63079 1.43299 
49 2 0.480393 0.53848 2.17811 
50 3 0.494918 0.565261 3.10639 
19 1 4.53579 4.53671 6.23993 
20 1 3.00722 3.00857 7.76759 
21 1 3.71467 3.71225 7.06254 
31 1 0.684217 0.682183 10.0589 
32 1 2.2016 2.20137 8.57633 
33 1 1.49159 1.49083 9.281 
16 1 4.53718 6.23999 4.53591 
17 1 3.00898 7.76915 3.00816 
18 1 3.7117 7.06257 3.71429 
25 1 0.681459 10.049 0.67104 
26 1 2.20178 8.58299 2.20435 
27 1 1.48703 9.27246 1.48146 
4 1 4.60055 6.17508 6.17509 
5 1 3.08633 7.68642 7.68554 
6 1 3.78804 6.97951 6.98065 
37 1 0.739242 10.032 10.0339 
38 1 2.2663 8.50213 8.50119 
39 1 1.56156 9.20901 9.20923 
13 1 6.24007 4.53759 4.53614 
14 1 7.76851 3.00892 3.00881 
15 1 7.06189 3.71155 3.71379 
28 1 10.0437 0.679474 0.667746 
29 1 8.5828 2.20166 2.20355 
30 1 9.27184 1.48538 1.48213 
1 1 6.17266 4.59919 6.17531 
2 1 7.6835 3.08533 7.68643 
3 1 6.98395 3.79047 6.97847 
40 1 10.0306 0.738274 10.0335 
41 1 8.50108 2.26639 8.50043 
42 1 9.20789 1.56102 9.20894 
7 1 6.17506 6.17438 4.60057 
8 1 7.68645 7.6869 3.08564 
9 1 6.98161 6.98106 3.78674 
43 1 10.0361 10.0374 0.737827 
44 1 8.50502 8.50537 2.26282 
45 1 9.21023 9.21123 1.56049 
22 1 6.23846 6.23859 6.23886 
23 1 7.77068 7.77144 7.77209 
24 1 7.06596 7.06701 7.06492 
34 1 10.0903 10.0888 10.0952 
35 1 8.58678 8.58589 8.5854 
36 1 9.28987 9.29193 9.29181 
ITEM: TIMESTEP
20
ITEM: NUMBER OF ATOMS
50
ITEM: BOX BOUNDS pp pp pp
0.0000000000000000e+00 1.1000000000000000e+01
0.0000000000000000e+00 1.1002000000000001e+01
0.0000000000000000e+00 1.1000000000000000e+01
ITEM: ATOMS id type x y z 
10 1 4.60153 4.60049 4.60243 
11 1 3.10323 3.10026 3.11045 
12 1 3.80856 3.80924 3.81113 
46 1 0.802434 0.796044 0.566656 
47 1 2.28364 2.2827 2.24518 
48 1 1.65365 1.64396 1.40496 
49 2 0.451414 0.512926 2.36159 
50 3 0.46297 0.537871 3.20129 
19 1 4.53842 4.54073 6.24139 
20 1 3.00886 3.01099 7.76527 
21 1 3.71974 3.71615 7.06074 
31 1 0.679221 0.676345 10.0198 
32 1 2.20982 2.20964 8.58027 
33 1 1.48755 1.48639 9.25755 
16 1 4.54081 6.2428 4.53786 
17 1 3.00713 7.77191 3.00567 
18 1 3.71363 7.06264 3.71773 
25 1 0.666165 10.0379 0.663243 
26 1 2.20153 8.5852 2.20731 
27 1 1.4866 9.26588 1.47463 
4 1 4.60086 6.18107 6.17976 
5 1 3.08446 7.68944 7.68668 
6 1 3.78925 6.97658 6.98098 
37 1 0.735204 10.0068 10.0234 
38 1 2.27207 8.4955 8.49423 
39 1 1.56503 9.20601 9.20713 
13 1 6.24336 4.54091 4.5371 
14 1 7.77026 3.00856 3.00751 
15 1 7.06301 3.71158 3.71633 
28 1 10.0294 0.665695 0.65667 
29 1 8.58151 2.20329 2.20167 
30 1 9.27101 1.48183 1.48392 
1 1 6.17687 4.59827 6.18029 
2 1 7.68474 3.08188 7.68835 
3 1 6.9846 3.79468 6.97755 
40 1 10.0054 0.734563 10.0224 
41 1 8.49452 2.27246 8.49306 
42 1 9.20357 1.56506 9.20618 
7 1 6.18137 6.18155 4.60036 
8 1 7.68936 7.69046 3.08303 
9 1 6.98232 6.98055 3.78558 
43 1 10.0379 10.0382 0.737172 
44 1 8.50435 8.50322 2.26312 
45 1 9.21073 9.21439 1.56114 
22 1 6.23917 6.23943 6.2394 
23 1 7.77301 7.7737 7.77488 
24 1 7.06648 7.06734 7.06397 
34 1 10.0926 10.0862 10.1012 
35 1 8.58551 8.58055 8.58262 
36 1 9.28518 9.29516 9.29123 
ITEM: TIMESTEP
30
ITEM: NUMBER OF ATOMS
50
ITEM: BOX BOUNDS pp pp pp
0.0000000000000000e+00 1.1000000000000000e+01
0.0000000000000000e+00 1.1002000000000001e+01
0.0000000000000000e+00 1.1000000000000000e+01
ITEM: ATOMS id type x y z 
10 1 4.60527 4.60517 4.59707 
11 1 3.08456 3.08289 3.09372 
12 1 3.79605 3.79524 3.79823 
46 1 0.792826 0.786119 0.582364 
47 1 2.29213 2.28952 2.23155 
48 1 1.66068 1.65158 1.40334 
49 2 0.436419 0.498827 2.37733 
50 3 0.452881 0.529412 3.26657 
19 1 4.54078 4.54176 6.23971 
20 1 3.01008 3.01102 7.76571 
21 1 3.7185 3.71714 7.06163 
31 1 0.670342 0.668548 10.0186 
32 1 2.21096 2.2101 8.5782 
33 1 1.48674 1.48677 9.25139 
16 1 4.54182 6.24235 4.53902 
17 1 3.00392 7.77429 3.00557 
18 1 3.71258 7.06774 3.71176 
25 1 0.672826 10.068 0.654846 
26 1 2.19365 8.58585 2.19678 
27 1 1.48285 9.28065 1.47495 
4 1 4.60147 6.18639 6.17871 
5 1 3.08201 7.68579 7.68667 
6 1 3.79625 6.98192 6.97862 
37 1 0.728093 10.0005 10.0333 
38 1 2.27764 8.49631 8.49168 
39 1 1.5636 9.19387 9.20276 
13 1 6.24187 4.54165 4.53856 
14 1 7.77344 3.00335 3.00531 
15 1 7.06831 3.71262 3.71202 
28 1 10.0641 0.670849 0.652009 
29 1 8.58592 2.19381 2.19665 
30 1 9.27852 1.48098 1.47382 
1 1 6.18609 4.60174 6.17807 
2 1 7.68529 3.0826 7.68665 
3 1 6.98207 3.7962 6.97813 
40 1 9.99978 0.727144 10.0333 
41 1 8.49578 2.27724 8.49128 
42 1 9.19274 1.5624 9.20275 
7 1 6.18177 6.18096 4.59927 
8 1 7.68994 7.68959 3.07958 
9 1 6.9824 6.98323 3.79083 
43 1 10.0495 10.0514 0.742794 
44 1 8.50123 8.50153 2.26483 
45 1 9.21013 9.21115 1.56538 
22 1 6.24123 6.24147 6.23857 
23 1 7.77362 7.77416 7.77449 
24 1 7.06744 7.06794 7.06593 
34 1 10.0907 10.0909 10.0963 
35 1 8.58261 8.58267 8.58302 
36 1 9.29065 9.29168 9.29234 
ITEM: TIMESTEP
40
ITEM: NUMBER OF ATOMS
50
ITEM: BOX BOUNDS pp pp pp
0.0000000000000000e+00 1.1000000000000000e+01
0.0000000000000000e+00 1.1002000000000001e+01
0.0000000000000000e+00 1.1000000000000000e+01
ITEM: ATOMS id type x y z 
10 1 4.60403 4.60277 4.5779 
11 1 3.07448 3.0728 3.0893 
12 1 3.78804 3.78815 3.78568 
46 1 0.793121 0.786348 0.593321 
47 1 2.31319 2.30821 2.17641 
48 1 1.66357 1.65387 1.37405 
49 2 0.37887 0.445921 2.53856 
50 3 0.411492 0.493197 3.44928 
19 1 4.54594 4.54581 6.21941 
20 1 3.01699 3.01743 7.76872 
21 1 3.72163 3.72138 7.05417 
31 1 0.646864 0.645441 9.99818 
32 1 2.20341 2.20412 8.57333 
33 1 1.47599 1.47263 9.23388 
16 1 4.5405 6.23963 4.52361 
17 1 2.99405 7.78499 2.99748 
18 1 3.70491 7.07554 3.70235 
25 1 0.689365 10.1367 0.656886 
26 1 2.1774 8.59305 2.17836 
27 1 1.479 9.30858 1.46916 
4 1 4.61195 6.18622 6.1578 
5 1 3.09132 7.68174 7.68159 
6 1 3.80166 6.97976 6.96828 
37 1 0.714692 9.99639 10.025 
38 1 2.28314 8.49473 8.48822 
39 1 1.55506 9.17526 9.20284 
13 1 6.24055 4.5408 4.52491 
14 1 7.78485 2.9951 2.99955 
15 1 7.07499 3.70343 3.69944 
28 1 10.1365 0.687841 0.655915 
29 1 8.59172 2.1768 2.1769 
30 1 9.30753 1.47788 1.46789 
1 1 6.18528 4.61066 6.15675 
2 1 7.6805 3.09091 7.68131 
3 1 6.9811 3.80325 6.96876 
40 1 9.99679 0.714826 10.0255 
41 1 8.4944 2.28248 8.48748 
42 1 9.17415 1.55459 9.20297 
7 1 6.17403 6.17468 4.59427 
8 1 7.69071 7.69276 3.0774 
9 1 6.98527 6.98253 3.78546 
43 1 10.0661 10.069 0.765818 
44 1 8.50468 8.50506 2.25869 
45 1 9.2221 9.22188 1.57207 
22 1 6.24777 6.24822 6.23198 
23 1 7.77518 7.77597 7.77679 
24 1 7.07101 7.06986 7.06575 
34 1 10.0896 10.0895 10.1124 
35 1 8.58686 8.58761 8.58348 
36 1 9.28769 9.28864 9.30673 
ITEM: TIMESTEP
50
ITEM: NUMBER OF ATOMS
50
ITEM: BOX BOUNDS pp pp pp
0.0000000000000000e+00 1.1000000000000000e+01
0.0000000000000000e+00 1.1002000000000001e+01
0.0000000000000000e+00 1.1000000000000000e+01
ITEM: ATOMS id type x y z 
10 1 4.60421 4.60377 4.57892 
11 1 3.07583 3.07463 3.08829 
12 1 3.78842 3.78783 3.78406 
46 1 0.790864 0.784797 0.596888 
47 1 2.31553 2.30998 2.17201 
48 1 1.66257 1.65314 1.37403 
49 2 0.373953 0.441116 2.54961 
50 3 0.408878 0.490775 3.4613 
19 1 4.54479 4.54484 6.21794 
20 1 3.01767 3.01801 7.76931 
21 1 3.72121 3.72116 7.05409 
31 1 0.647375 0.645125 9.99873 
32 1 2.20161 2.20125 8.56908 
33 1 1.47522 1.47395 9.23674 
16 1 4.54014 6.24036 4.52189 
17 1 2.99397 7.78456 2.99905 
18 1 3.70462 7.07527 3.69851 
25 1 0.691241 10.135 0.65751 
26 1 2.17615 8.59241 2.17902 
27 1 1.48385 9.3129 1.46913 
4 1 4.6107 6.18474 6.15572 
5 1 3.09277 7.68065 7.68029 
6 1 3.80283 6.98094 6.96709 
37 1 0.716158 9.99845 10.0242 
38 1 2.28022 8.49155 8.49091 
39 1 1.55707 9.17948 9.20004 
13 1 6.24055 4.54009 4.52159 
14 1 7.78469 2.99356 2.99841 
15 1 7.07571 3.70431 3.69872 
28 1 10.1347 0.690094 0.656275 
29 1 8.59146 2.1752 2.17743 
30 1 9.31181 1.4829 1.46766 
1 1 6.18481 4.61045 6.15535 
2 1 7.6808 3.09299 7.68036 
3 1 6.98025 3.80256 6.96738 
40 1 9.99894 0.716176 10.0249 
41 1 8.49144 2.27936 8.49046 
42 1 9.17875 1.55633 9.2005 
7 1 6.17567 6.17495 4.59092 
8 1 7.69185 7.69175 3.07716 
9 1 6.98328 6.98445 3.78369 
43 1 10.0666 10.0691 0.766466 
44 1 8.50529 8.50542 2.25947 
45 1 9.22219 9.22253 1.57411 
22 1 6.24611 6.24638 6.22794 
23 1 7.77459 7.77488 7.7764 
24 1 7.07112 7.07064 7.06379 
34 1 10.0873 10.0882 10.1183 
35 1 8.58562 8.58663 8.58655 
36 1 9.28862 9.2893 9.30379 
ITEM: TIMESTEP
60
ITEM: NUMBER OF ATOMS
50
ITEM: BOX BOUNDS pp pp pp
0.0000000000000000e+00 1.1000000000000000e+01
0.0000000000000000e+00 1.1002000000000001e+01
0.0000000000000000e+00 1.1000000000000000e+01
ITEM: ATOMS id type x y z 
10 1 4.60386 4.60357 4.57901 
11 1 3.07654 3.07531 3.08563 
12 1 3.78853 3.78775 3.78314 
46 1 0.78912 0.783444 0.601322 
47 1 2.31809 2.3124 2.1689 
48 1 1.66196 1.65265 1.37508 
49 2 0.369513 0.436768 2.55887 
50 3 0.406571 0.488639 3.47304 
19 1 4.54466 4.54461 6.21623 
20 1 3.01834 3.0186 7.76891 
21 1 3.72112 3.72121 7.05449 
31 1 0.647861 0.645681 9.99997 
32 1 2.20007 2.19966 8.56729 
33 1 1.47437 1.47314 9.23608 
16 1 4.54056 6.24009 4.52021 
17 1 2.99343 7.78455 2.99852 
18 1 3.70436 7.07491 3.69782 
25 1 0.693288 10.1356 0.656741 
26 1 2.17696 8.59434 2.17923 
27 1 1.48383 9.31329 1.4688 
4 1 4.61021 6.18399 6.15417 
5 1 3.09352 7.68095 7.67988 
6 1 3.80288 6.98075 6.96656 
37 1 0.716203 9.99955 10.0242 
38 1 2.27847 8.48846 8.49234 
39 1 1.55849 9.18325 9.1981 
13 1 6.24042 4.54039 4.52002 
14 1 7.78477 2.99293 2.9979 
15 1 7.07537 3.70399 3.69767 
28 1 10.1351 0.692326 0.655226 
29 1 8.59308 2.17607 2.17741 
30 1 9.31276 1.48298 1.46769 
1 1 6.18413 4.61006 6.15384 
2 1 7.68116 3.09365 7.67994 
3 1 6.98011 3.80248 6.96694 
40 1 10.0001 0.716151 10.0248 
41 1 8.48838 2.2776 8.49205 
42 1 9.18263 1.55773 9.19856 
7 1 6.1758 6.17531 4.58855 
8 1 7.69203 7.69208 3.07632 
9 1 6.98367 6.98449 3.78272 
43 1 10.0673 10.0694 0.766849 
44 1 8.50684 8.50672 2.25964 
45 1 9.223 9.22393 1.57457 
22 1 6.24585 6.24567 6.22553 
23 1 7.77407 7.77398 7.77572 
24 1 7.07044 7.07068 7.06206 
34 1 10.087 10.0881 10.1211 
35 1 8.58539 8.5862 8.58738 
36 1 9.28782 9.28891 9.30502 
ITEM: TIMESTEP
70
ITEM: NUMBER OF ATOMS
50
ITEM: BOX BOUNDS pp pp pp
0.0000000000000000e+00 1.1000000000000000e+01
0.0000000000000000e+00 1.1002000000000001e+01
0.0000000000000000e+00 1.1000000000000000e+01
ITEM: ATOMS id type x y z 
10 1 4.60354 4.60312 4.57893 
11 1 3.07715 3.07585 3.08425 
12 1 3.78927 3.78838 3.78158 
46 1 0.788336 0.782873 0.604075 
47 1 2.3197 2.31398 2.16611 
48 1 1.66122 1.65199 1.37611 
49 2 0.366107 0.433452 2.56688 
50 3 0.404751 0.486934 3.4815 
19 1 4.54452 4.54444 6.21562 
20 1 3.01827 3.01853 7.76945 
21 1 3.72097 3.721 7.05414 
31 1 0.648055 0.645648 10.001 
32 1 2.19887 2.19844 8.56533 
33 1 1.47416 1.47299 9.23633 
16 1 4.5406 6.24 4.51904 
17 1 2.99298 7.78449 2.99823 
18 1 3.70427 7.07476 3.69704 
25 1 0.694209 10.1358 0.656175 
26 1 2.17736 8.59527 2.17965 
27 1 1.48482 9.31415 1.46856 
4 1 4.61006 6.18382 6.15305 
5 1 3.09391 7.68099 7.67975 
6 1 3.80294 6.98083 6.966 
37 1 0.716708 10.0012 10.0233 
38 1 2.27767 8.48717 8.49288 
39 1 1.55882 9.18432 9.1976 
13 1 6.24042 4.54041 4.51897 
14 1 7.78466 2.99261 2.99775 
15 1 7.07504 3.70386 3.69679 
28 1 10.1354 0.693222 0.654996 
29 1 8.59398 2.17636 2.17797 
30 1 9.31365 1.48433 1.46715 
1 1 6.18365 4.6097 6.15277 
2 1 7.68077 3.09379 7.67994 
3 1 6.98099 3.80294 6.96604 
40 1 10.0014 0.716594 10.0239 
41 1 8.48681 2.2767 8.49276 
42 1 9.18417 1.55842 9.1977 
7 1 6.17575 6.17542 4.58721 
8 1 7.69234 7.69276 3.07566 
9 1 6.98426 6.98433 3.78141 
43 1 10.0677 10.0697 0.766948 
44 1 8.50758 8.50753 2.26023 
45 1 9.22381 9.2247 1.57481 
22 1 6.24557 6.24546 6.22383 
23 1 7.77359 7.77372 7.77509 
24 1 7.07042 7.07033 7.06122 
34 1 10.0867 10.0876 10.1226 
35 1 8.58495 8.58568 8.58795 
36 1 9.28718 9.28839 9.30578 
ITEM: TIMESTEP
80
ITEM: NUMBER OF ATOMS
50
ITEM: BOX BOUNDS pp pp pp
0.0000000000000000e+00 1.1000000000000000e+01
0.0000000000000000e+00 1.1002000000000001e+01
0.0000000000000000e+00 1.1000000000000000e+01
ITEM: ATOMS id type x y z 
10 1 4.59971 4.59846 4.57589 
11 1 3.09387 3.09103 3.04504 
12 1 3.79952 3.7975 3.76015 
46 1 0.776209 0.775658 0.658656 
47 1 2.3526 2.34539 2.11631 
48 1 1.64757 1.64047 1.40504 
49 2 0.296608 0.366778 2.7323 
50 3 0.368567 0.452861 3.65056 
19 1 4.5418 4.54257 6.20536 
20 1 3.01782 3.01963 7.76837 
21 1 3.72344 3.71787 7.05434 
31 1 0.653313 0.653826 10.0185 
32 1 2.18057 2.18328 8.53208 
33 1 1.46854 1.46343 9.22451 
16 1 4.54123 6.23782 4.49785 
17 1 2.98517 7.78299 2.99045 
18 1 3.7012 7.07322 3.68605 
25 1 0.712853 10.1336 0.641127 
26 1 2.18929 8.61361 2.18345 
27 1 1.49817 9.33224 1.47008 
4 1 4.60735 6.18056 6.13286 
5 1 3.09887 7.68102 7.6746 
6 1 3.80697 6.98074 6.95997 
37 1 0.722749 10.0269 10.0062 
38 1 2.27009 8.46911 8.50002 
39 1 1.55736 9.18851 9.18706 
13 1 6.23829 4.53962 4.49933 
14 1 7.78287 2.98369 2.99041 
15 1 7.07472 3.70353 3.68343 
28 1 10.144 0.715452 0.641387 
29 1 8.62018 2.19532 2.1841 
30 1 9.31363 1.4882 1.46344 
1 1 6.17975 4.60893 6.13513 
2 1 7.68012 3.09948 7.6772 
3 1 6.98354 3.80272 6.95625 
40 1 10.0294 0.721835 10.0052 
41 1 8.47136 2.26833 8.49925 
42 1 9.18643 1.55755 9.1909 
7 1 6.1783 6.17579 4.55999 
8 1 7.7008 7.69824 3.06105 
9 1 6.99011 6.99142 3.76329 
43 1 10.0759 10.0774 0.76049 
44 1 8.52503 8.5268 2.27308 
45 1 9.23598 9.23843 1.57679 
22 1 6.24251 6.23998 6.19555 
23 1 7.76706 7.76581 7.76549 
24 1 7.06768 7.07077 7.04094 
34 1 10.0812 10.0838 10.1392 
35 1 8.57557 8.57501 8.60104 
36 1 9.27416 9.27789 9.32215 
ITEM: TIMESTEP
90
ITEM: NUMBER OF ATOMS
50
ITEM: BOX BOUNDS pp pp pp
0.0000000000000000e+00 1.1000000000000000e+01
0.0000000000000000e+00 1.1002000000000001e+01
0.0000000000000000e+00 1.1000000000000000e+01
ITEM: ATOMS id type x y z 
10 1 4.60001 4.59915 4.57578 
11 1 3.09853 3.09532 3.04083 
12 1 3.80017 3.79838 3.75883 
46 1 0.775544 0.77328 0.652532 
47 1 2.35176 2.34433 2.11424 
48 1 1.64399 1.6375 1.40886 
49 2 0.292756 0.363005 2.74365 
50 3 0.366278 0.450601 3.66112 
19 1 4.54482 4.54375 6.20823 
20 1 3.01907 3.01828 7.76735 
21 1 3.72079 3.71982 7.05043 
31 1 0.656601 0.653179 10.0201 
32 1 2.18109 2.18164 8.52987 
33 1 1.46867 1.46741 9.22524 
16 1 4.54095 6.23807 4.49976 
17 1 2.98624 7.78285 2.99126 
18 1 3.70173 7.07235 3.6857 
25 1 0.712872 10.1393 0.641116 
26 1 2.18925 8.61812 2.18562 
27 1 1.49884 9.32754 1.4629 
4 1 4.60955 6.18197 6.13515 
5 1 3.09962 7.67951 7.67512 
6 1 3.80535 6.98039 6.95772 
37 1 0.721356 10.0242 10.0067 
38 1 2.26965 8.47172 8.49686 
39 1 1.55784 9.18482 9.19148 
13 1 6.23904 4.54034 4.50001 
14 1 7.78348 2.98652 2.99061 
15 1 7.07286 3.70188 3.68516 
28 1 10.1388 0.71031 0.640707 
29 1 8.61485 2.18876 2.18188 
30 1 9.3281 1.49944 1.46192 
1 1 6.18232 4.60935 6.13641 
2 1 7.67976 3.09894 7.67557 
3 1 6.98092 3.804 6.95714 
40 1 10.0248 0.721237 10.0064 
41 1 8.47138 2.26946 8.49743 
42 1 9.18522 1.55713 9.19127 
7 1 6.17817 6.17706 4.56087 
8 1 7.70074 7.69925 3.06135 
9 1 6.98988 6.98935 3.76312 
43 1 10.0748 10.0759 0.759002 
44 1 8.52537 8.52727 2.2737 
45 1 9.23744 9.23952 1.57836 
22 1 6.24389 6.24341 6.19545 
23 1 7.76719 7.76769 7.76357 
24 1 7.06783 7.06787 7.04408 
34 1 10.0822 10.0842 10.131 
35 1 8.57141 8.57225 8.60424 
36 1 9.27632 9.27747 9.31627 
ITEM: TIMESTEP
100
ITEM: NUMBER OF ATOMS
50
ITEM: BOX BOUNDS pp pp pp
0.0000000000000000e+00 1.1000000000000000e+01
0.0000000000000000e+00 1.1002000000000001e+01
0.0000000000000000e+00 1.1000000000000000e+01
ITEM: ATOMS id type x y z 
10 1 4.60031 4.59958 4.5761 
11 1 3.09909 3.09601 3.04003 
12 1 3.80082 3.7987 3.75813 
46 1 0.775728 0.773327 0.650912 
47 1 2.3512 2.3438 2.11456 
48 1 1.6434 1.63697 1.4095 
49 2 0.2924 0.362638 2.74487 
50 3 0.366057 0.450362 3.66226 
19 1 4.54502 4.54401 6.20855 
20 1 3.01888 3.01811 7.76645 
21 1 3.72093 3.72 7.05038 
31 1 0.65667 0.653541 10.0198 
32 1 2.1812 2.18165 8.52962 
33 1 1.46908 1.4679 9.22581 
16 1 4.54095 6.23803 4.50042 
17 1 2.98661 7.78299 2.9915 
18 1 3.70179 7.07216 3.68575 
25 1 0.712039 10.1389 0.640917 
26 1 2.18922 8.61771 2.1849 
27 1 1.49888 9.32844 1.46345 
4 1 4.60976 6.18225 6.13586 
5 1 3.09976 7.67925 7.67556 
6 1 3.80461 6.98043 6.95691 
37 1 0.721129 10.0228 10.0072 
38 1 2.27004 8.47162 8.49652 
39 1 1.55786 9.18478 9.19109 
13 1 6.23888 4.54041 4.50061 
14 1 7.78345 2.98692 2.9907 
15 1 7.07288 3.70187 3.68545 
28 1 10.139 0.710231 0.640702 
29 1 8.61543 2.18925 2.18146 
30 1 9.32735 1.4984 1.46173 
1 1 6.1827 4.60926 6.13664 
2 1 7.67958 3.09875 7.67558 
3 1 6.98081 3.8039 6.95715 
40 1 10.0235 0.720772 10.0069 
41 1 8.47154 2.26951 8.49709 
42 1 9.18514 1.55738 9.19125 
7 1 6.17812 6.17724 4.56122 
8 1 7.70088 7.69971 3.06207 
9 1 6.98959 6.98854 3.76217 
43 1 10.0746 10.0758 0.758551 
44 1 8.52571 8.52776 2.27402 
45 1 9.23758 9.23929 1.57752 
22 1 6.24434 6.24389 6.19624 
23 1 7.76752 7.76802 7.76421 
24 1 7.06814 7.06817 7.0441 
34 1 10.0825 10.0846 10.1293 
35 1 8.57108 8.57184 8.60432 
36 1 9.27616 9.27752 9.31585 
ITEM: TIMESTEP
110
ITEM: NUMBER OF ATOMS
50
ITEM: BOX BOUNDS pp pp pp
0.0000000000000000e+00 1.1000000000000000e+01
0.0000000000000000e+00 1.1002000000000001e+01
0.0000000000000000e+00 1.1000000000000000e+01
ITEM: ATOMS id type x y z 
10 1 4.60033 4.59957 4.57614 
11 1 3.09915 3.09603 3.03997 
12 1 3.80084 3.79879 3.75805 
46 1 0.775756 0.773346 0.650796 
47 1 2.35118 2.34378 2.11461 
48 1 1.64336 1.63693 1.40954 
49 2 0.292371 0.362608 2.74497 
50 3 0.36604 0.450343 3.66235 
19 1 4.54506 4.54405 6.20862 
20 1 3.01889 3.01811 7.76643 
21 1 3.7209 3.71998 7.05028 
31 1 0.656667 0.653558 10.0198 
32 1 2.18123 2.18168 8.52966 
33 1 1.46908 1.46787 9.22575 
16 1 4.54095 6.23804 4.50046 
17 1 2.98663 7.78301 2.99149 
18 1 3.70178 7.07216 3.68578 
25 1 0.71197 10.1389 0.640907 
26 1 2.18919 8.61769 2.18488 
27 1 1.49893 9.32848 1.46343 
4 1 4.60978 6.18226 6.13592 
5 1 3.09974 7.67922 7.67557 
6 1 3.80461 6.98046 6.95688 
37 1 0.721094 10.0227 10.0072 
38 1 2.27003 8.47164 8.4965 
39 1 1.55788 9.18478 9.19111 
13 1 6.23893 4.54046 4.50065 
14 1 7.78352 2.98698 2.99069 
15 1 7.0728 3.70176 3.68547 
28 1 10.139 0.710234 0.640712 
29 1 8.61548 2.18928 2.18146 
30 1 9.32726 1.49833 1.46168 
1 1 6.18272 4.60928 6.13667 
2 1 7.67957 3.09873 7.67557 
3 1 6.98079 3.8039 6.95717 
40 1 10.0234 0.720733 10.0069 
41 1 8.47158 2.26951 8.49705 
42 1 9.18511 1.55739 9.1913 
7 1 6.1781 6.17723 4.5612 
8 1 7.70086 7.69968 3.06203 
9 1 6.98963 6.98859 3.76225 
43 1 10.0746 10.0758 0.758505 
44 1 8.52573 8.52778 2.27403 
45 1 9.23759 9.23927 1.5775 
22 1 6.24439 6.24393 6.19625 
23 1 7.76754 7.76802 7.76418 
24 1 7.06811 7.06816 7.04419 
34 1 10.0826 10.0846 10.1292 
35 1 8.57104 8.57179 8.60437 
36 1 9.27619 9.27755 9.31574 
ITEM: TIMESTEP
120
ITEM: NUMBER OF ATOMS
50
ITEM: BOX BOUNDS pp pp pp
0.0000000000000000e+00 1.1000000000000000e+01
0.0000000000000000e+00 1.1002000000000001e+01
0.0000000000000000e+00 1.1000000000000000e+01
ITEM: ATOMS id type x y z 
10 1 4.6004 4.59965 4.5762 
11 1 3.09943 3.09629 3.03957 
12 1 3.80101 3.79896 3.75787 
46 1 0.775885 0.77343 0.650214 
47 1 2.35103 2.34364 2.11484 
48 1 1.64314 1.63673 1.40979 
49 2 0.292221 0.362453 2.74547 
50 3 0.365949 0.450245 3.66283 
19 1 4.54521 4.54421 6.20889 
20 1 3.01886 3.01808 7.76622 
21 1 3.72082 3.71994 7.05002 
31 1 0.65667 0.653594 10.0198 
32 1 2.18132 2.18176 8.5297 
33 1 1.46913 1.4679 9.22572 
16 1 4.54094 6.23805 4.50067 
17 1 2.98671 7.78307 2.99149 
18 1 3.70182 7.07222 3.68586 
25 1 0.711727 10.1388 0.64087 
26 1 2.18923 8.6177 2.18476 
27 1 1.49889 9.32847 1.46337 
4 1 4.60989 6.18237 6.1361 
5 1 3.09962 7.67913 7.67555 
6 1 3.80463 6.98046 6.95692 
37 1 0.721002 10.0223 10.0074 
38 1 2.27008 8.47178 8.49641 
39 1 1.55785 9.18466 9.1911 
13 1 6.23894 4.54044 4.50087 
14 1 7.78357 2.98704 2.99066 
15 1 7.07286 3.70179 3.68552 
28 1 10.1389 0.710094 0.640712 
29 1 8.61556 2.18932 2.18135 
30 1 9.32722 1.49824 1.46157 
1 1 6.18284 4.6094 6.13683 
2 1 7.67948 3.09862 7.67556 
3 1 6.98079 3.80393 6.95721 
40 1 10.0231 0.720614 10.0071 
41 1 8.47171 2.26956 8.49695 
42 1 9.18501 1.55735 9.1913 
7 1 6.1781 6.17724 4.56129 
8 1 7.70086 7.6997 3.06208 
9 1 6.98964 6.98862 3.7623 
43 1 10.0745 10.0757 0.758246 
44 1 8.52582 8.52785 2.2741 
45 1 9.2376 9.23928 1.57739 
22 1 6.24451 6.24407 6.19643 
23 1 7.76755 7.76803 7.76425 
24 1 7.06816 7.0682 7.04426 
34 1 10.0828 10.0848 10.1285 
35 1 8.57089 8.57168 8.60448 
36 1 9.27624 9.27756 9.31549 
ITEM: TIMESTEP
130
ITEM: NUMBER OF ATOMS
50
ITEM: BOX BOUNDS pp pp pp
0.0000000000000000e+00 1.1000000000000000e+01
0.0000000000000000e+00 1.1002000000000001e+01
0.0000000000000000e+00 1.1000000000000000e+01
ITEM: ATOMS id type x y z 
10 1 4.6004 4.59965 4.57622 
11 1 3.09945 3.0963 3.03955 
12 1 3.80103 3.79899 3.75782 
46 1 0.775893 0.773435 0.650168 
47 1 2.35101 2.34363 2.11485 
48 1 1.64312 1.63671 1.40981 
49 2 0.292208 0.36244 2.74551 
50 3 0.365942 0.450237 3.66287 
19 1 4.54522 4.54422 6.2089 
20 1 3.01885 3.01807 7.76619 
21 1 3.72083 3.71995 7.05002 
31 1 0.656678 0.653591 10.0198 
32 1 2.18133 2.18176 8.5297 
33 1 1.46913 1.46792 9.22574 
16 1 4.54094 6.23805 4.50068 
17 1 2.98672 7.78307 2.99149 
18 1 3.70181 7.07222 3.68586 
25 1 0.711717 10.1388 0.640873 
26 1 2.18925 8.61772 2.18475 
27 1 1.49886 9.32844 1.46336 
4 1 4.6099 6.18239 6.13611 
5 1 3.09962 7.67913 7.67555 
6 1 3.80462 6.98044 6.95693 
37 1 0.720992 10.0223 10.0074 
38 1 2.27008 8.47178 8.4964 
39 1 1.55786 9.18467 9.1911 
13 1 6.23894 4.54044 4.50089 
14 1 7.78358 2.98705 2.99066 
15 1 7.07287 3.70179 3.68553 
28 1 10.1389 0.710076 0.640711 
29 1 8.61555 2.18932 2.18133 
30 1 9.32723 1.49824 1.46157 
1 1 6.18285 4.60941 6.13684 
2 1 7.67948 3.09862 7.67556 
3 1 6.98079 3.80392 6.95721 
40 1 10.023 0.720603 10.0071 
41 1 8.47172 2.26956 8.49694 
42 1 9.185 1.55736 9.1913 
7 1 6.1781 6.17724 4.5613 
8 1 7.70086 7.69971 3.06208 
9 1 6.98964 6.98862 3.7623 
43 1 10.0745 10.0757 0.758224 
44 1 8.52582 8.52786 2.2741 
45 1 9.23761 9.23927 1.57738 
22 1 6.24453 6.24408 6.19644 
23 1 7.76756 7.76803 7.76425 
24 1 7.06815 7.0682 7.04427 
34 1 10.0828 10.0848 10.1285 
35 1 8.57089 8.57166 8.60449 
36 1 9.27623 9.27758 9.31547 
ITEM: TIMESTEP
132
ITEM: NUMBER OF ATOMS
50
ITEM: BOX BOUNDS pp pp pp
0.0000000000000000e+00 1.1000000000000000e+01
0.0000000000000000e+00 1.1002000000000001e+01
0.0000000000000000e+00 1.1000000000000000e+01
ITEM: ATOMS id type x y z 
10 1 4.60041 4.59965 4.57622 
11 1 3.09945 3.0963 3.03955 
12 1 3.80103 3.79899 3.75782 
46 1 0.775893 0.773435 0.650166 
47 1 2.35101 2.34362 2.11485 
48 1 1.64312 1.63671 1.40981 
49 2 0.292208 0.36244 2.74551 
50 3 0.365942 0.450237 3.66287 
19 1 4.54522 4.54422 6.2089 
20 1 3.01885 3.01807 7.76619 
21 1 3.72083 3.71995 7.05002 
31 1 0.656677 0.653592 10.0198 
32 1 2.18133 2.18176 8.5297 
33 1 1.46913 1.46792 9.22574 
16 1 4.54094 6.23805 4.50069 
17 1 2.98672 7.78307 2.99149 
18 1 3.70181 7.07222 3.68586 
25 1 0.711716 10.1388 0.640874 
26 1 2.18925 8.61772 2.18475 
27 1 1.49886 9.32844 1.46336 
4 1 4.60989 6.18239 6.13611 
5 1 3.09962 7.67913 7.67555 
6 1 3.80462 6.98044 6.95693 
37 1 0.720992 10.0223 10.0074 
38 1 2.27009 8.47178 8.4964 
39 1 1.55786 9.18466 9.1911 
13 1 6.23894 4.54044 4.50089 
14 1 7.78358 2.98705 2.99066 
15 1 7.07287 3.70179 3.68553 
28 1 10.1389 0.710075 0.640711 
29 1 8.61555 2.18932 2.18133 
30 1 9.32723 1.49824 1.46157 
1 1 6.18286 4.60941 6.13684 
2 1 7.67948 3.09862 7.67556 
3 1 6.98079 3.80392 6.95721 
40 1 10.023 0.720603 10.0071 
41 1 8.47172 2.26956 8.49693 
42 1 9.185 1.55736 9.1913 
7 1 6.1781 6.17724 4.56129 
8 1 7.70086 7.69971 3.06208 
9 1 6.98964 6.98862 3.7623 
43 1 10.0745 10.0757 0.758223 
44 1 8.52582 8.52786 2.2741 
45 1 9.23761 9.23927 1.57738 
22 1 6.24453 6.24408 6.19644 
23 1 7.76756 7.76803 7.76425 
24 1 7.06815 7.0682 7.04428 
34 1 10.0828 10.0848 10.1285 
35 1 8.57088 8.57166 8.60449 
36 1 9.27623 9.27758 9.31547 
ITEM: TIMESTEP
133
ITEM: NUMBER OF ATOMS
50
ITEM: BOX BOUNDS pp pp pp
0.0000000000000000e+00 1.1000000000000000e+01
0.0000000000000000e+00 1.1002000000000001e+01
0.0000000000000000e+00 1.1000000000000000e+01
ITEM: ATOMS id type x y z 
10 1 4.60041 4.59965 4.57622 
11 1 3.09945 3.0963 3.03955 
12 1 3.80103 3.799 3.75782 
46 1 0.775894 0.773435 0.650166 
47 1 2.35101 2.34362 2.11485 
48 1 1.64312 1.63671 1.40981 
49 2 0.292208 0.36244 2.74551 
50 3 0.365941 0.450237 3.66287 
19 1 4.54522 4.54422 6.2089 
20 1 3.01885 3.01807 7.76619 
21 1 3.72083 3.71995 7.05002 
31 1 0.656677 0.653592 10.0198 
32 1 2.18133 2.18176 8.5297 
33 1 1.46913 1.46792 9.22574 
16 1 4.54094 6.23805 4.50069 
17 1 2.98672 7.78307 2.99149 
18 1 3.70181 7.07222 3.68586 
25 1 0.711715 10.1388 0.640874 
26 1 2.18925 8.61772 2.18475 
27 1 1.49886 9.32844 1.46336 
4 1 4.60989 6.18239 6.13611 
5 1 3.09962 7.67913 7.67555 
6 1 3.80462 6.98044 6.95693 
37 1 0.720991 10.0223 10.0074 
38 1 2.27009 8.47178 8.4964 
39 1 1.55786 9.18466 9.1911 
13 1 6.23894 4.54044 4.50089 
14 1 7.78358 2.98705 2.99066 
15 1 7.07287 3.70179 3.68553 
28 1 10.1389 0.710075 0.640711 
29 1 8.61555 2.18932 2.18133 
30 1 9.32723 1.49824 1.46157 
1 1 6.18286 4.60941 6.13684 
2 1 7.67948 3.09862 7.67556 
3 1 6.98079 3.80392 6.95721 
40 1 10.023 0.720603 10.0071 
41 1 8.47172 2.26956 8.49693 
42 1 9.185 1.55736 9.1913 
7 1 6.1781 6.17724 4.56129 
8 1 7.70086 7.69971 3.06208 
9 1 6.98964 6.98862 3.7623 
43 1 10.0745 10.0757 0.758223 
44 1 8.52582 8.52786 2.2741 
45 1 9.23761 9.23927 1.57738 
22 1 6.24453 6.24408 6.19644 
23 1 7.76756 7.76803 7.76425 
24 1 7.06815 7.0682 7.04428 
34 1 10.0828 10.0848 10.1285 
35 1 8.57088 8.57166 8.60449 
36 1 9.27623 9.27758 9.31547 
ITEM: TIMESTEP
140
ITEM: NUMBER OF ATOMS
50
ITEM: BOX BOUNDS pp pp pp
-2.1443894786681520e-03 1.1002144389478667e+01
-2.1564385349916266e-03 1.1004156438534995e+01
-3.6894256407157956e-03 1.1003689425640719e+01
ITEM: ATOMS id type x y z 
10 1 4.60024 4.59949 4.57577 
11 1 3.0986 3.09544 3.0379 
12 1 3.80032 3.79826 3.7566 
46 1 0.773914 0.77144 0.646729 
47 1 2.3497 2.34231 2.11254 
48 1 1.64147 1.63505 1.407 
49 2 0.290166 0.360413 2.7437 
50 3 0.363931 0.448247 3.66168 
19 1 4.54499 4.544 6.20924 
20 1 3.01793 3.01714 7.76762 
21 1 3.72026 3.71938 7.05094 
31 1 0.654611 0.651544 10.023 
32 1 2.17998 2.18043 8.5318 
33 1 1.46764 1.46636 9.22816 
16 1 4.54071 6.2382 4.50018 
17 1 2.98582 7.78392 2.98987 
18 1 3.70122 7.07271 3.68476 
25 1 0.709641 10.1407 0.637439 
26 1 2.18791 8.61899 2.18246 
27 1 1.49735 9.32989 1.4607 
4 1 4.60973 6.18248 6.13638 
5 1 3.09872 7.67992 7.67697 
6 1 3.80391 6.9811 6.95795 
37 1 0.718999 10.0242 10.0106 
38 1 2.26878 8.47301 8.49845 
39 1 1.55619 9.18621 9.19368 
13 1 6.23909 4.54021 4.50039 
14 1 7.78441 2.98613 2.98903 
15 1 7.07337 3.7012 3.68443 
28 1 10.1408 0.707998 0.637272 
29 1 8.61682 2.18798 2.17904 
30 1 9.32867 1.49672 1.45893 
1 1 6.18294 4.60924 6.1371 
2 1 7.68026 3.09771 7.67697 
3 1 6.98144 3.80322 6.95824 
40 1 10.0249 0.718593 10.0103 
41 1 8.47294 2.26825 8.49899 
42 1 9.18655 1.5557 9.19389 
7 1 6.17819 6.17733 4.56085 
8 1 7.70167 7.70053 3.0605 
9 1 6.99029 6.98925 3.76108 
43 1 10.0764 10.0776 0.754839 
44 1 8.52707 8.52911 2.27188 
45 1 9.23919 9.24086 1.57463 
22 1 6.24468 6.24424 6.19679 
23 1 7.76839 7.76887 7.76572 
24 1 7.06865 7.0687 7.0452 
34 1 10.0848 10.0868 10.1317 
35 1 8.57213 8.57289 8.60662 
36 1 9.27763 9.27902 9.31797 
ITEM: TIMESTEP
150
ITEM: NUMBER OF ATOMS
50
ITEM: BOX BOUNDS pp pp pp
-2.4388699276028086e-03 1.1002438869927603e+01
-2.4880052719470119e-03 1.1004488005271950e+01
-8.8707328478460027e-03 1.1008870732847853e+01
ITEM: ATOMS id type x y z 
10 1 4.60079 4.60007 4.57554 
11 1 3.09871 3.09558 3.03558 
12 1 3.80013 3.79797 3.75469 
46 1 0.773188 0.770666 0.641508 
47 1 2.34907 2.34166 2.10907 
48 1 1.64095 1.63451 1.40308 
49 2 0.289847 0.36006 2.74127 
50 3 0.363622 0.447905 3.66009 
19 1 4.54547 4.54447 6.20945 
20 1 3.01814 3.01733 7.76926 
21 1 3.72039 3.7195 7.05214 
31 1 0.65377 0.650714 10.0279 
32 1 2.17965 2.18011 8.53481 
33 1 1.46769 1.46631 9.23151 
16 1 4.54116 6.23778 4.49982 
17 1 2.98611 7.78372 2.98786 
18 1 3.70131 7.07259 3.68331 
25 1 0.708672 10.1416 0.6323 
26 1 2.18758 8.61936 2.17916 
27 1 1.49733 9.32987 1.45703 
4 1 4.6103 6.18195 6.13646 
5 1 3.09871 7.67985 7.67886 
6 1 3.80363 6.9814 6.95951 