ITEM: TIMESTEP
0
ITEM: NUMBER OF ATOMS
130
ITEM: BOX BOUNDS xy xz yz pp pp pp
0.0000000000000000e+00 2.3654499999999999e+01 7.8845000000000001e+00
0.0000000000000000e+00 1.3658086643083999e+01 0.0000000000000000e+00
0.0000000000000000e+00 2.5747000000000000e+01 0.0000000000000000e+00
ITEM: ATOMS id type x y z 
18 1 10.522 6.683 2.644 
28 1 5.247 4.273 12.803 
31 1 9.65 6.514 0.446 
62 1 9.171 5.15 12.405 
91 1 9.65 6.514 11.889 
92 1 10.81 6.18 11.007 
106 1 10.522 6.683 9.691 
127 1 10.81 6.18 1.328 
4 1 4.402 5.735 13.319 
5 1 3.307 5.568 14.201 
43 1 4.549 6.796 15.517 
52 1 9.172 5.15 25.677 
66 1 4.402 5.735 24.762 
67 1 5.003 6.76 23.881 
88 1 5.247 4.273 25.278 
107 1 3.307 5.568 23.881 
116 1 4.549 6.796 22.565 
117 1 5.003 6.76 14.201 
11 1 11.272 7.494 3.321 
12 1 10.477 8.871 4.018 
14 1 9.018 11.397 0.446 
15 1 10.114 11.565 1.328 
16 1 8.412 9.024 0.654 
19 1 10.477 8.871 5.569 
29 1 10.927 10.156 3.321 
32 1 8.77 7.648 1.328 
35 1 12.036 9.594 2.644 
45 1 9.231 8.963 3.321 
47 1 12.762 8.702 0.446 
49 1 11.224 11 0.654 
51 1 8.872 10.337 2.644 
53 1 11.272 7.494 9.014 
54 1 10.477 8.871 8.317 
56 1 9.018 11.397 11.889 
57 1 8.418 10.372 11.007 
58 1 11.224 11 11.681 
60 1 12.255 7.901 9.691 
61 1 10.477 8.871 6.766 
73 1 9.231 8.963 9.014 
75 1 12.762 8.702 11.889 
76 1 12.202 10.061 11.007 
79 1 9.224 7.617 9.691 
80 1 8.174 12.859 12.405 
89 1 10.927 10.156 9.014 
93 1 8.412 9.024 11.681 
95 1 9.951 11.095 9.691 
105 1 10.114 11.565 11.007 
109 1 8.77 7.648 11.007 
110 1 12.036 9.594 9.691 
114 1 8.872 10.337 9.691 
119 1 8.418 10.372 1.328 
120 1 12.255 7.901 2.644 
123 1 12.202 10.061 1.328 
124 1 9.224 7.617 2.644 
128 1 9.951 11.095 2.644 
6 1 5.009 8.108 13.527 
13 1 9.663 10.28 25.128 
17 1 9.204 8.965 25.162 
30 1 10.016 7.556 25.128 
34 1 11.289 7.464 25.162 
36 1 8.174 12.859 25.677 
46 1 11.752 8.777 25.128 
50 1 10.937 10.184 25.162 
55 1 9.663 10.28 12.954 
59 1 10.937 10.184 12.919 
74 1 11.752 8.777 12.954 
78 1 11.289 7.464 12.919 
90 1 10.016 7.556 12.954 
94 1 9.204 8.965 12.919 
101 1 5.009 8.108 24.555 
129 2 5.54 8.169 16.194 
130 3 6.516 8.169 16.194 
33 1 11.795 6.589 0.654 
77 1 11.795 6.589 11.681 
41 1 17.967 6.132 13.527 
68 1 17.967 6.132 24.554 
103 1 19.24 6.037 22.565 
126 1 19.24 6.037 15.517 
3 1 19.528 6.852 12.254 
7 1 19.987 8.167 12.289 
10 1 15.106 8.528 12.804 
22 1 19.175 9.576 12.254 
26 1 17.902 9.668 12.289 
38 1 17.439 8.356 12.254 
42 1 18.254 6.949 12.289 
44 1 20.019 11.982 12.804 
48 1 12.546 7.4 1.328 
65 1 19.528 6.852 0.081 
69 1 18.254 6.949 0.046 
82 1 17.439 8.356 0.081 
86 1 17.902 9.668 0.046 
96 1 14.084 8.604 12.405 
98 1 19.175 9.576 0.081 
102 1 19.987 8.167 0.046 
113 1 12.546 7.4 11.007 
1 1 17.919 9.638 16.194 
2 1 18.714 8.261 16.892 
8 1 18.669 10.449 15.517 
9 1 18.714 8.261 18.442 
20 1 14.084 8.604 25.677 
21 1 18.264 6.977 16.194 
23 1 19.541 10.618 13.32 
24 1 20.421 9.484 14.201 
25 1 17.396 10.544 13.527 
27 1 17.155 7.538 15.517 
37 1 19.96 8.169 16.194 
39 1 16.429 8.43 13.319 
40 1 16.644 9.732 14.201 
63 1 17.919 9.638 21.888 
64 1 18.714 8.261 21.19 
70 1 16.936 9.231 22.565 
71 1 18.714 8.261 19.64 
72 1 20.019 11.982 25.278 
81 1 19.96 8.169 21.888 
83 1 16.429 8.43 24.762 
84 1 16.989 7.071 23.881 
85 1 17.396 10.544 24.555 
87 1 19.967 9.515 22.565 
97 1 18.263 6.977 21.888 
99 1 19.541 10.618 24.762 
100 1 18.38 10.953 23.881 
104 1 15.106 8.528 25.278 
108 1 18.669 10.449 22.565 
111 1 20.421 9.484 23.881 
112 1 17.155 7.538 22.565 
115 1 16.644 9.732 23.881 
118 1 16.936 9.231 15.517 
121 1 16.989 7.071 14.201 
122 1 19.967 9.515 15.517 
125 1 18.38 10.953 14.201 
ITEM: TIMESTEP
10
ITEM: NUMBER OF ATOMS
130
ITEM: BOX BOUNDS xy xz yz pp pp pp
0.0000000000000000e+00 2.3654499999999999e+01 7.8845000000000001e+00
0.0000000000000000e+00 1.3658086643083999e+01 0.0000000000000000e+00
0.0000000000000000e+00 2.5747000000000000e+01 0.0000000000000000e+00
ITEM: ATOMS id type x y z 
18 1 10.3885 6.72994 2.65119 
28 1 5.19266 4.37688 12.8355 
31 1 9.49378 6.47382 0.42552 
62 1 9.16606 5.21268 12.3865 
91 1 9.49418 6.4784 11.9115 
92 1 10.8271 6.15872 10.9978 
106 1 10.3886 6.73029 9.6845 
127 1 10.8261 6.158 1.33777 
4 1 4.42244 5.74683 13.2767 
5 1 3.22753 5.57783 14.1867 
43 1 4.55751 6.8302 15.4742 
52 1 9.16688 5.21223 25.6955 
66 1 4.44938 5.74339 24.8136 
67 1 5.06001 6.88577 23.9084 
88 1 5.19653 4.37283 25.2467 
107 1 3.20964 5.56629 23.8897 
116 1 4.57806 6.90769 22.5678 
117 1 5.06189 6.87883 14.1669 
11 1 11.3224 7.54221 3.33901 
12 1 10.4908 8.85202 4.0842 
14 1 8.97859 11.3802 0.399149 
15 1 10.2016 11.5654 1.31744 
16 1 8.44791 8.97607 0.713799 
19 1 10.4754 8.87049 5.5579 
29 1 10.9338 10.1381 3.32365 
32 1 8.76006 7.717 1.28995 
35 1 12.0343 9.5728 2.58054 
45 1 9.23276 8.96935 3.259 
47 1 12.7597 8.78165 0.509956 
49 1 11.2919 10.9128 0.675692 
51 1 8.84003 10.2242 2.63994 
53 1 11.3216 7.54173 8.99613 
54 1 10.4903 8.85319 8.2518 
56 1 8.98509 11.3788 11.928 
57 1 8.36833 10.2588 11.0404 
58 1 11.2918 10.9188 11.6539 
60 1 12.2517 8.00443 9.6271 
61 1 10.4754 8.87056 6.77746 
73 1 9.23283 8.96817 9.0758 
75 1 12.7541 8.78351 11.8282 
76 1 12.1874 10.0608 11.011 
79 1 9.25892 7.6436 9.73693 
80 1 8.2265 12.7559 12.3725 
89 1 10.9316 10.1395 9.01194 
93 1 8.45074 8.97268 11.6262 
95 1 10.0133 11.0859 9.66979 
105 1 10.194 11.5588 11.0189 
109 1 8.76369 7.71709 11.0435 
110 1 12.0352 9.57419 9.75461 
114 1 8.84053 10.2251 9.69638 
119 1 8.36526 10.2543 1.2979 
120 1 12.2513 8.00627 2.70803 
123 1 12.187 10.0627 1.32335 
124 1 9.26026 7.64311 2.60219 
128 1 10.0112 11.0856 2.66912 
6 1 4.9666 8.17627 13.5962 
13 1 9.55133 10.372 25.1219 
17 1 9.26973 9.01294 25.1674 
30 1 9.97192 7.62983 25.1105 
34 1 11.3339 7.45746 25.1238 
36 1 8.22529 12.7579 25.7088 
46 1 11.6777 8.80151 25.0957 
50 1 10.9383 10.067 25.1773 
55 1 9.55813 10.3631 12.9602 
59 1 10.9523 10.0813 12.9082 
74 1 11.6792 8.7998 12.982 
78 1 11.3259 7.46178 12.9563 
90 1 9.96959 7.63848 12.9662 
94 1 9.25274 8.99096 12.9077 
101 1 4.97447 8.14876 24.488 
129 2 5.52126 8.20211 16.2284 
130 3 6.52786 8.17121 16.1966 
33 1 11.7497 6.53851 0.643906 
77 1 11.7482 6.54002 11.6908 
41 1 17.9071 6.20834 13.5492 
68 1 17.8994 6.21791 24.5195 
103 1 19.1826 6.04915 22.5374 
126 1 19.1368 6.05548 15.5577 
3 1 19.6395 6.75699 12.2493 
7 1 19.9163 8.1333 12.3009 
10 1 15.186 8.49116 12.8497 
22 1 19.2067 9.49589 12.2379 
26 1 17.8679 9.67655 12.2439 
38 1 17.5197 8.33255 12.2189 
42 1 18.2579 7.06927 12.2964 
44 1 20.0246 11.92 12.8221 
48 1 12.6344 7.48747 1.37489 
65 1 19.6563 6.751 0.09212 
69 1 18.2625 7.0718 0.040679 
82 1 17.5084 8.33961 0.121531 
86 1 17.8523 9.68489 0.0895834 
96 1 14.0018 8.64035 12.3586 
98 1 19.2233 9.50961 0.0936602 
102 1 19.9043 8.10438 0.0484138 
113 1 12.6336 7.48611 10.9601 
1 1 17.8644 9.57514 16.2255 
2 1 18.6594 8.23009 16.9528 
8 1 18.8072 10.4152 15.5269 
9 1 18.7112 8.25551 18.4204 
20 1 14.0156 8.63868 25.719 
21 1 18.2198 6.98498 16.1955 
23 1 19.7005 10.6436 13.2931 
24 1 20.427 9.39957 14.162 
25 1 17.4388 10.5965 13.516 
27 1 17.1557 7.53563 15.4742 
37 1 20.1314 8.21172 16.1745 
39 1 16.4324 8.34753 13.3854 
40 1 16.5551 9.64348 14.2527 
63 1 17.8674 9.59065 21.869 
64 1 18.7007 8.28132 21.1189 
70 1 16.9394 9.12376 22.4993 
71 1 18.7167 8.26329 19.6467 
72 1 20.0238 11.9193 25.2594 
81 1 19.9573 8.16171 21.9499 
83 1 16.4246 8.35174 24.6902 
84 1 17.0073 7.0636 23.8879 
85 1 17.4391 10.5972 24.5629 
87 1 19.9272 9.48871 22.5995 
97 1 18.2572 6.99359 21.8854 
99 1 19.6959 10.6634 24.7843 
100 1 18.3655 10.9757 23.872 
104 1 15.1714 8.49283 25.2367 
108 1 18.8029 10.4022 22.557 
111 1 20.4346 9.4136 23.9287 
112 1 17.1567 7.56049 22.6281 
115 1 16.5561 9.64499 23.8338 
118 1 16.9337 9.14146 15.5797 
121 1 17.0009 7.06476 14.1857 
122 1 19.9303 9.54929 15.4298 
125 1 18.3631 10.9797 14.203 
ITEM: TIMESTEP
20
ITEM: NUMBER OF ATOMS
130
ITEM: BOX BOUNDS xy xz yz pp pp pp
0.0000000000000000e+00 2.3654499999999999e+01 7.8845000000000001e+00
0.0000000000000000e+00 1.3658086643083999e+01 0.0000000000000000e+00
0.0000000000000000e+00 2.5747000000000000e+01 0.0000000000000000e+00
ITEM: ATOMS id type x y z 
18 1 10.3897 6.74241 2.63653 
28 1 5.15679 4.44976 12.8569 
31 1 9.45677 6.51101 0.41243 
62 1 9.14751 5.24044 12.3814 
91 1 9.45534 6.51222 11.9199 
92 1 10.8219 6.17618 10.9799 
106 1 10.3922 6.74437 9.70084 
127 1 10.8212 6.17299 1.35351 
4 1 4.426 5.76732 13.2673 
5 1 3.19865 5.6033 14.1966 
43 1 4.54317 6.86988 15.4564 
52 1 9.14821 5.23947 25.7006 
66 1 4.43846 5.75664 24.8155 
67 1 5.07302 6.88675 23.8872 
88 1 5.16212 4.44586 25.2254 
107 1 3.20551 5.60641 23.8769 
116 1 4.56738 6.92804 22.5849 
117 1 5.05627 6.8784 14.1869 
11 1 11.3305 7.55726 3.3488 
12 1 10.4751 8.8666 4.08679 
14 1 8.98393 11.3597 0.398133 
15 1 10.2114 11.5212 1.32388 
16 1 8.44472 8.93464 0.706492 
19 1 10.4735 8.87015 5.55899 
29 1 10.9466 10.1415 3.32813 
32 1 8.75807 7.71031 1.30137 
35 1 12.0364 9.59242 2.59663 
45 1 9.22923 8.94084 3.26698 
47 1 12.7071 8.79693 0.5246 
49 1 11.3001 10.9218 0.679841 
51 1 8.84916 10.2023 2.61852 
53 1 11.3301 7.55828 8.99126 
54 1 10.4743 8.86327 8.2491 
56 1 8.98457 11.3475 11.9371 
57 1 8.368 10.2455 11.0232 
58 1 11.2979 10.9209 11.6599 
60 1 12.2611 8.00369 9.63996 
61 1 10.4732 8.87012 6.77635 
73 1 9.2297 8.94254 9.07004 
75 1 12.6929 8.78783 11.8023 
76 1 12.2194 10.0593 11.0174 
79 1 9.23254 7.65876 9.78011 
80 1 8.26101 12.6833 12.3512 
89 1 10.9492 10.1442 9.00628 
93 1 8.43638 8.93384 11.623 
95 1 10.0247 11.0653 9.68125 
105 1 10.2142 11.5285 11.0096 
109 1 8.76199 7.70663 11.0349 
110 1 12.0349 9.58918 9.73724 
114 1 8.84872 10.2036 9.7176 
119 1 8.36203 10.2406 1.31546 
120 1 12.2616 8.00728 2.69923 
123 1 12.2153 10.0625 1.31988 
124 1 9.23094 7.65899 2.55311 
128 1 10.0294 11.0716 2.65614 
6 1 4.97876 8.18667 13.5769 
13 1 9.57076 10.3561 25.1181 
17 1 9.2321 8.95936 25.1645 
30 1 9.96338 7.67578 25.1147 
34 1 11.2965 7.46839 25.1186 
36 1 8.25942 12.686 25.7299 
46 1 11.6858 8.804 25.1152 
50 1 10.9451 10.1015 25.159 
55 1 9.57857 10.3435 12.9605 
59 1 10.9542 10.1125 12.9177 
74 1 11.6872 8.80677 12.9617 
78 1 11.294 7.47435 12.9615 
90 1 9.95902 7.67738 12.9666 
94 1 9.22842 8.95668 12.919 
101 1 4.97924 8.14618 24.5339 
129 2 5.52457 8.21025 16.2472 
130 3 6.53817 8.17259 16.2006 
33 1 11.7608 6.57312 0.67776 
77 1 11.7633 6.57848 11.6543 
41 1 17.8944 6.2147 13.5455 
68 1 17.8994 6.22211 24.5372 
103 1 19.1613 6.06743 22.5555 
126 1 19.131 6.07196 15.5436 
3 1 19.6203 6.77486 12.239 
7 1 19.9598 8.17458 12.3021 
10 1 15.1374 8.50555 12.8509 
22 1 19.2276 9.45669 12.2363 
26 1 17.8855 9.66341 12.2436 
38 1 17.5057 8.33109 12.2396 
42 1 18.2455 7.02993 12.2872 
44 1 20.0445 11.896 12.8253 
48 1 12.6311 7.53742 1.34434 
65 1 19.618 6.7515 0.0879215 
69 1 18.2556 7.03809 0.0466998 
82 1 17.507 8.34211 0.105729 
86 1 17.8596 9.66119 0.0679394 
96 1 14.0498 8.62202 12.3613 
98 1 19.253 9.47918 0.0803085 
102 1 19.9779 8.11637 0.0537325 
113 1 12.6094 7.53889 10.9846 
1 1 17.8671 9.55409 16.2302 
2 1 18.6799 8.22041 16.9505 
8 1 18.7874 10.3976 15.5073 
9 1 18.7062 8.24669 18.4199 
20 1 14.0509 8.60716 25.7269 
21 1 18.2094 6.99569 16.2099 
23 1 19.7314 10.6261 13.2745 
24 1 20.4356 9.43822 14.1533 
25 1 17.4253 10.5554 13.5529 
27 1 17.14 7.52035 15.4786 
37 1 20.1537 8.2086 16.1993 
39 1 16.4979 8.34229 13.4059 
40 1 16.5829 9.59399 14.2285 
63 1 17.8602 9.57619 21.8579 
64 1 18.7121 8.26426 21.1081 
70 1 16.9304 9.12464 22.5086 
71 1 18.7186 8.26394 19.639 
72 1 20.049 11.9238 25.2657 
81 1 19.9596 8.19285 21.9304 
83 1 16.4781 8.33854 24.6793 
84 1 16.9768 7.06992 23.8885 
85 1 17.4287 10.559 24.539 
87 1 19.9374 9.48003 22.6167 
97 1 18.2467 6.98999 21.8797 
99 1 19.7327 10.6763 24.7908 
100 1 18.3589 10.958 23.8467 
104 1 15.1356 8.52306 25.2242 
108 1 18.7956 10.3867 22.569 
111 1 20.4431 9.43915 23.9583 
112 1 17.1549 7.53747 22.6144 
115 1 16.5565 9.59196 23.8633 
118 1 16.9276 9.14041 15.5694 
121 1 16.9736 7.06804 14.1806 
122 1 19.9508 9.54394 15.4081 
125 1 18.3624 10.9603 14.2247 
ITEM: TIMESTEP
30
ITEM: NUMBER OF ATOMS
130
ITEM: BOX BOUNDS xy xz yz pp pp pp
0.0000000000000000e+00 2.3654499999999999e+01 7.8845000000000001e+00
0.0000000000000000e+00 1.3658086643083999e+01 0.0000000000000000e+00
0.0000000000000000e+00 2.5747000000000000e+01 0.0000000000000000e+00
ITEM: ATOMS id type x y z 
18 1 10.3951 6.76384 2.64114 
28 1 5.12101 4.52793 12.8781 
31 1 9.42978 6.53653 0.410866 
62 1 9.11694 5.2578 12.3813 
91 1 9.42702 6.5342 11.9236 
92 1 10.8134 6.1938 10.9757 
106 1 10.3932 6.76443 9.69199 
127 1 10.8145 6.19602 1.359 
4 1 4.4206 5.77895 13.2683 
5 1 3.1817 5.63339 14.1987 
43 1 4.53014 6.89836 15.4546 
52 1 9.11857 5.25991 25.7016 
66 1 4.44213 5.77359 24.8077 
67 1 5.06956 6.92022 23.8901 
88 1 5.13498 4.50913 25.2082 
107 1 3.18453 5.64062 23.879 
116 1 4.55791 6.95939 22.5895 
117 1 5.05653 6.91457 14.1789 
11 1 11.3288 7.57327 3.34588 
12 1 10.4824 8.85727 4.09417 
14 1 8.98123 11.3385 0.400658 
15 1 10.232 11.4937 1.32669 
16 1 8.4145 8.92725 0.707322 
19 1 10.47 8.87004 5.55777 
29 1 10.948 10.1359 3.34055 
32 1 8.71944 7.68691 1.26803 
35 1 12.0497 9.6083 2.60438 
45 1 9.22388 8.94228 3.26721 
47 1 12.6833 8.81096 0.533618 
49 1 11.3184 10.9174 0.663664 
51 1 8.86256 10.1846 2.61786 
53 1 11.3268 7.57217 8.98691 
54 1 10.4837 8.85834 8.24173 
56 1 8.98349 11.3377 11.9333 
57 1 8.35446 10.1925 11.0282 
58 1 11.3237 10.9195 11.6676 
60 1 12.2696 8.0244 9.62304 
61 1 10.47 8.86977 6.77687 
73 1 9.22243 8.9426 9.06919 
75 1 12.6869 8.80754 11.7996 
76 1 12.2501 10.0696 11.0056 
79 1 9.22459 7.65285 9.77146 
80 1 8.29393 12.6067 12.3311 
89 1 10.9469 10.1349 8.9946 
93 1 8.41286 8.92816 11.6255 
95 1 10.0348 11.0567 9.68186 
105 1 10.233 11.4932 11.0096 
109 1 8.71707 7.69114 11.0649 
110 1 12.0502 9.61106 9.73086 
114 1 8.8608 10.1835 9.71961 
119 1 8.35396 10.1987 1.30629 
120 1 12.2694 8.0254 2.70774 
123 1 12.251 10.0698 1.32847 
124 1 9.22397 7.65313 2.56446 
128 1 10.0334 11.0563 2.65223 
6 1 5.01028 8.20232 13.5818 
13 1 9.58224 10.3201 25.0907 
17 1 9.20739 8.96631 25.1484 
30 1 9.94188 7.68596 25.1047 
34 1 11.2804 7.4875 25.1225 
36 1 8.29473 12.6053 25.752 
46 1 11.6864 8.81525 25.1176 
50 1 10.9557 10.1199 25.164 
55 1 9.58543 10.3198 12.9896 
59 1 10.9555 10.117 12.9205 
74 1 11.6893 8.81761 12.9625 
78 1 11.28 7.48876 12.9608 
90 1 9.9409 7.68169 12.979 
94 1 9.20547 8.96702 12.9317 
101 1 5.0079 8.16534 24.5292 
129 2 5.54382 8.21953 16.2725 
130 3 6.55134 8.17491 16.207 
33 1 11.7445 6.60406 0.681397 
77 1 11.7429 6.60361 11.6541 
41 1 17.8646 6.21089 13.5327 
68 1 17.8781 6.22316 24.5459 
103 1 19.1577 6.08098 22.5535 
126 1 19.1129 6.08563 15.5449 
3 1 19.6062 6.81225 12.2091 
7 1 19.9869 8.16705 12.2861 
10 1 15.1467 8.47123 12.8378 
22 1 19.2428 9.4471 12.2277 
26 1 17.9108 9.64631 12.245 
38 1 17.5051 8.31424 12.2405 
42 1 18.2365 7.01616 12.2835 
44 1 20.0761 11.886 12.822 
48 1 12.5745 7.5472 1.39141 
65 1 19.6041 6.79276 0.10361 
69 1 18.2351 7.01256 0.0560066 
82 1 17.5112 8.32719 0.0943873 
86 1 17.9209 9.64247 0.0585666 
96 1 14.0433 8.65749 12.3758 
98 1 19.2839 9.45695 0.0268372 
102 1 20.014 8.12184 0.0792534 
113 1 12.5726 7.55214 10.9481 
1 1 17.8694 9.52889 16.2382 
2 1 18.6922 8.2233 16.949 
8 1 18.7979 10.3744 15.5145 
9 1 18.7051 8.24025 18.4175 
20 1 14.0431 8.65223 25.7109 
21 1 18.1959 6.99678 16.2112 
23 1 19.7549 10.6092 13.2643 
24 1 20.4667 9.45513 14.1342 
25 1 17.4422 10.5304 13.5509 
27 1 17.1174 7.49761 15.491 
37 1 20.1771 8.23479 16.2107 
39 1 16.5063 8.32128 13.4074 
40 1 16.6195 9.57654 14.2646 
63 1 17.8593 9.55639 21.8563 
64 1 18.7077 8.2741 21.1025 
70 1 16.9208 9.10621 22.4993 
71 1 18.7197 8.25716 19.6382 
72 1 20.0786 11.9127 25.2676 
81 1 19.9622 8.2032 21.9415 
83 1 16.5065 8.32242 24.6768 
84 1 16.9425 7.06375 23.8804 
85 1 17.44 10.5315 24.5242 
87 1 19.9566 9.47095 22.6643 
97 1 18.2417 6.99937 21.8655 
99 1 19.742 10.6719 24.793 
100 1 18.372 10.9344 23.8472 
104 1 15.1412 8.47839 25.2416 
108 1 18.7971 10.3598 22.5651 
111 1 20.4283 9.44615 23.9994 
112 1 17.1423 7.52276 22.6033 
115 1 16.6128 9.58639 23.8123 
118 1 16.9179 9.1166 15.5849 
121 1 16.9347 7.06548 14.1883 
122 1 19.9629 9.53641 15.404 
125 1 18.367 10.9448 14.2265 
ITEM: TIMESTEP
40
ITEM: NUMBER OF ATOMS
130
ITEM: BOX BOUNDS xy xz yz pp pp pp
0.0000000000000000e+00 2.3654499999999999e+01 7.8845000000000001e+00
0.0000000000000000e+00 1.3658086643083999e+01 0.0000000000000000e+00
0.0000000000000000e+00 2.5747000000000000e+01 0.0000000000000000e+00
ITEM: ATOMS id type x y z 
18 1 10.3752 6.7847 2.63948 
28 1 5.09693 4.58808 12.8936 
31 1 9.39894 6.55352 0.402555 
62 1 9.07559 5.27527 12.3811 
91 1 9.39816 6.55181 11.9275 
92 1 10.7895 6.22028 10.9702 
106 1 10.3759 6.78346 9.69742 
127 1 10.7933 6.21986 1.36476 
4 1 4.41044 5.80904 13.2642 
5 1 3.14238 5.66549 14.197 
43 1 4.51725 6.93103 15.4461 
52 1 9.07624 5.27161 25.6993 
66 1 4.43776 5.79466 24.7959 
67 1 5.07929 6.96089 23.8854 
88 1 5.11575 4.56313 25.1934 
107 1 3.16341 5.67416 23.8765 
116 1 4.55865 6.96489 22.6036 
117 1 5.04773 6.95448 14.1923 
11 1 11.3283 7.59355 3.36661 
12 1 10.4858 8.84233 4.09827 
14 1 8.98569 11.3072 0.400019 
15 1 10.2552 11.4614 1.3263 
16 1 8.38502 8.90888 0.678472 
19 1 10.4665 8.86802 5.55914 
29 1 10.9527 10.1287 3.3449 
32 1 8.6824 7.66178 1.29166 
35 1 12.0665 9.6317 2.61561 
45 1 9.23291 8.923 3.26651 
47 1 12.6972 8.81262 0.546047 
49 1 11.3469 10.9083 0.665366 
51 1 8.86054 10.172 2.60022 
53 1 11.3301 7.59348 8.96912 
54 1 10.484 8.84359 8.23699 
56 1 8.98426 11.3046 11.9316 
57 1 8.35193 10.1752 11.0149 
58 1 11.3473 10.9071 11.6724 
60 1 12.2708 8.05441 9.59233 
61 1 10.4666 8.8682 6.77649 
73 1 9.23547 8.9232 9.06692 
75 1 12.6939 8.81916 11.7893 
76 1 12.2798 10.085 11.0026 
79 1 9.2037 7.65783 9.7925 
80 1 8.31916 12.5388 12.3128 
89 1 10.9512 10.1276 8.99109 
93 1 8.38467 8.90729 11.6551 
95 1 10.0382 11.0424 9.68367 
105 1 10.2553 11.4621 11.0092 
109 1 8.68313 7.65768 11.043 
110 1 12.0657 9.62902 9.71631 
114 1 8.8597 10.1713 9.7373 
119 1 8.34857 10.1685 1.32295 
120 1 12.2733 8.05489 2.74581 
123 1 12.2784 10.0848 1.33209 
124 1 9.20581 7.65685 2.54543 
128 1 10.0377 11.0433 2.65058 
6 1 5.03698 8.2205 13.5604 
13 1 9.5827 10.3148 25.0631 
17 1 9.20335 8.96472 25.1402 
30 1 9.92933 7.70026 25.0855 
34 1 11.264 7.50294 25.1229 
36 1 8.31803 12.5409 25.7693 
46 1 11.6869 8.8236 25.1183 
50 1 10.9448 10.1067 25.1595 
55 1 9.57821 10.314 13.0158 
59 1 10.9488 10.1075 12.92 
74 1 11.6862 8.82141 12.9645 
78 1 11.2679 7.50071 12.9579 
90 1 9.92628 7.70085 13.0025 
94 1 9.2049 8.96591 12.9397 
101 1 5.03006 8.17992 24.5497 
129 2 5.56759 8.23197 16.3025 
130 3 6.57212 8.17771 16.2172 
33 1 11.7242 6.6284 0.685918 
77 1 11.7233 6.63022 11.6475 
41 1 17.8416 6.22436 13.5328 
68 1 17.8473 6.23157 24.5466 
103 1 19.1513 6.09492 22.554 
126 1 19.1089 6.10861 15.5404 
3 1 19.6071 6.8074 12.1911 
7 1 19.9914 8.16856 12.2766 
10 1 15.144 8.4538 12.841 
22 1 19.2639 9.43951 12.2121 
26 1 17.9204 9.62991 12.2443 
38 1 17.5003 8.31181 12.2407 
42 1 18.2479 7.02596 12.276 
44 1 20.1168 11.8728 12.8181 
48 1 12.5589 7.59721 1.36878 
65 1 19.6023 6.77751 0.139401 
69 1 18.2505 7.02532 0.0568749 
82 1 17.5401 8.33059 0.0964242 
86 1 17.9233 9.63569 0.0592975 
96 1 14.049 8.67486 12.3724 
98 1 19.3035 9.43334 0.0237103 
102 1 20.0302 8.12246 0.0908765 
113 1 12.5546 7.59309 10.9587 
1 1 17.8765 9.50341 16.2515 
2 1 18.6984 8.22264 16.9467 
8 1 18.8027 10.3515 15.5089 
9 1 18.7128 8.23714 18.4154 
20 1 14.0482 8.67352 25.7081 
21 1 18.1776 7.00118 16.2163 
23 1 19.778 10.5987 13.2568 
24 1 20.5029 9.47222 14.1328 
25 1 17.4606 10.5015 13.5585 
27 1 17.0876 7.47582 15.5022 
37 1 20.1992 8.24722 16.2181 
39 1 16.5 8.312 13.4133 
40 1 16.6382 9.53481 14.2532 
63 1 17.8598 9.53033 21.8324 
64 1 18.7032 8.29245 21.0938 
70 1 16.9155 9.07613 22.4551 
71 1 18.7148 8.25264 19.6336 
72 1 20.1178 11.9118 25.2768 
81 1 19.9521 8.22281 21.9476 
83 1 16.4818 8.32325 24.6516 
84 1 16.9152 7.05373 23.8778 
85 1 17.46 10.5073 24.5165 
87 1 19.9599 9.46503 22.679 
97 1 18.241 7.01375 21.859 
99 1 19.7657 10.6822 24.7884 
100 1 18.3955 10.9227 23.8421 
104 1 15.1412 8.45736 25.2439 
108 1 18.8192 10.3398 22.5686 
111 1 20.462 9.45055 24.0106 
112 1 17.1254 7.49877 22.5916 
115 1 16.6236 9.53154 23.8378 
118 1 16.9154 9.08385 15.6177 
121 1 16.9041 7.04229 14.1944 
122 1 19.9885 9.53533 15.3903 
125 1 18.3898 10.9207 14.2335 
ITEM: TIMESTEP
50
ITEM: NUMBER OF ATOMS
130
ITEM: BOX BOUNDS xy xz yz pp pp pp
0.0000000000000000e+00 2.3654499999999999e+01 7.8845000000000001e+00
0.0000000000000000e+00 1.3658086643083999e+01 0.0000000000000000e+00
0.0000000000000000e+00 2.5747000000000000e+01 0.0000000000000000e+00
ITEM: ATOMS id type x y z 
18 1 10.3787 6.79759 2.64476 
28 1 5.09433 4.6036 12.8971 
31 1 9.38053 6.56318 0.403183 
62 1 9.04675 5.28369 12.3816 
91 1 9.38144 6.56263 11.9305 
92 1 10.7779 6.23303 10.9756 
106 1 10.3769 6.79818 9.68993 
127 1 10.7796 6.23249 1.35916 
4 1 4.39837 5.83159 13.2729 
5 1 3.13398 5.68044 14.1996 
43 1 4.51673 6.94438 15.449 
52 1 9.04827 5.28263 25.6995 
66 1 4.4304 5.82151 24.7921 
67 1 5.0792 6.96544 23.8926 
88 1 5.10774 4.5896 25.184 
107 1 3.1548 5.68514 23.8776 
116 1 4.55787 6.97868 22.6018 
117 1 5.04579 6.97334 14.1828 
11 1 11.3313 7.59412 3.36667 
12 1 10.491 8.83873 4.09802 
14 1 8.99225 11.2793 0.405721 
15 1 10.2655 11.4473 1.32605 
16 1 8.36878 8.89403 0.683575 
19 1 10.4647 8.86613 5.55828 
29 1 10.9523 10.1252 3.34384 
32 1 8.65564 7.65894 1.2676 
35 1 12.0782 9.63914 2.62487 
45 1 9.22774 8.92961 3.2627 
47 1 12.6923 8.84169 0.541373 
49 1 11.3523 10.9017 0.656963 
51 1 8.86122 10.1615 2.6049 
53 1 11.3297 7.59322 8.96813 
54 1 10.4908 8.83821 8.23691 
56 1 8.99303 11.2793 11.9292 
57 1 8.34847 10.1439 11.0265 
58 1 11.3534 10.9016 11.6771 
60 1 12.2712 8.06496 9.5946 
61 1 10.4646 8.86621 6.77667 
73 1 9.22714 8.92949 9.07303 
75 1 12.6923 8.84056 11.7938 
76 1 12.2984 10.0919 10.9933 
79 1 9.19364 7.65148 9.78477 
80 1 8.32013 12.5232 12.3089 
89 1 10.9523 10.1246 8.99042 
93 1 8.36846 8.89424 11.6502 
95 1 10.0399 11.0366 9.68514 
105 1 10.2668 11.4472 11.0092 
109 1 8.65422 7.65814 11.0665 
110 1 12.0785 9.63945 9.71026 
114 1 8.86182 10.1615 9.73109 
119 1 8.34915 10.1445 1.30813 
120 1 12.2713 8.06531 2.73825 
123 1 12.2983 10.0902 1.34 
124 1 9.1931 7.65154 2.5504 
128 1 10.0401 11.0365 2.65002 
6 1 5.05229 8.23587 13.5542 
13 1 9.57707 10.3127 25.0531 
17 1 9.19344 8.96943 25.1337 
30 1 9.92496 7.69919 25.0729 
34 1 11.2638 7.49983 25.1221 
36 1 8.32056 12.5223 25.7738 
46 1 11.6854 8.82115 25.1187 
50 1 10.9462 10.108 25.1584 
55 1 9.57841 10.3118 13.0271 
59 1 10.9473 10.1079 12.9236 
74 1 11.6846 8.82111 12.9632 
78 1 11.263 7.50006 12.959 
90 1 9.92608 7.69858 13.0144 
94 1 9.19223 8.96699 12.9464 
101 1 5.04945 8.19078 24.5574 
129 2 5.58116 8.23986 16.3199 
130 3 6.58598 8.1799 16.2261 
33 1 11.7128 6.65111 0.69319 
77 1 11.7123 6.64941 11.6417 
41 1 17.8292 6.2313 13.5236 
68 1 17.8409 6.23775 24.5536 
103 1 19.1487 6.1048 22.5536 
126 1 19.0971 6.11871 15.5395 
3 1 19.6121 6.81758 12.1785 
7 1 19.9998 8.16155 12.2678 
10 1 15.1409 8.44588 12.8406 
22 1 19.2627 9.43673 12.1977 
26 1 17.9249 9.63338 12.2441 
38 1 17.5041 8.31031 12.2406 
42 1 18.2433 7.02657 12.2742 
44 1 20.1444 11.8657 12.815 
48 1 12.544 7.60098 1.40098 
65 1 19.6153 6.78232 0.157079 
69 1 18.2453 7.02817 0.0520168 
82 1 17.5338 8.3228 0.0846554 
86 1 17.9441 9.63296 0.0550595 
96 1 14.0516 8.68248 12.3716 
98 1 19.3118 9.42683 0.0243732 
102 1 20.0343 8.11424 0.0997607 
113 1 12.5425 7.60378 10.936 
1 1 17.8771 9.49473 16.2508 
2 1 18.7082 8.21946 16.9447 
8 1 18.81 10.3299 15.512 
9 1 18.7116 8.2331 18.4117 
20 1 14.0472 8.68399 25.7115 
21 1 18.1687 7.00193 16.2147 
23 1 19.7941 10.5926 13.2562 
24 1 20.5241 9.48253 14.1227 
25 1 17.4724 10.4816 13.5648 
27 1 17.0694 7.46598 15.5123 
37 1 20.2108 8.26022 16.2244 
39 1 16.5022 8.28923 13.4121 
40 1 16.6495 9.52195 14.2766 
63 1 17.8579 9.52827 21.8316 
64 1 18.7032 8.29423 21.0929 
70 1 16.9162 9.06526 22.4642 
71 1 18.7168 8.25585 19.6314 
72 1 20.1481 11.9185 25.2868 
81 1 19.9568 8.21417 21.9479 
83 1 16.4986 8.29367 24.6674 
84 1 16.8956 7.04511 23.8685 
85 1 17.468 10.4826 24.5088 
87 1 19.9774 9.46507 22.6919 
97 1 18.2369 7.01432 21.8572 
99 1 19.7828 10.6867 24.791 
100 1 18.3972 10.9152 23.8423 
104 1 15.1394 8.44873 25.2431 
108 1 18.808 10.329 22.5604 
111 1 20.4806 9.45735 24.0177 
112 1 17.1125 7.49445 22.5815 
115 1 16.6428 9.53361 23.7965 
118 1 16.9162 9.06969 15.615 
121 1 16.8805 7.03725 14.1998 
122 1 20.0016 9.53731 15.3917 
125 1 18.4006 10.9074 14.2284 
ITEM: TIMESTEP
60
ITEM: NUMBER OF ATOMS
130
ITEM: BOX BOUNDS xy xz yz pp pp pp
0.0000000000000000e+00 2.3654499999999999e+01 7.8845000000000001e+00
0.0000000000000000e+00 1.3658086643083999e+01 0.0000000000000000e+00
0.0000000000000000e+00 2.5747000000000000e+01 0.0000000000000000e+00
ITEM: ATOMS id type x y z 
18 1 10.3733 6.80137 2.64363 
28 1 5.09222 4.61284 12.8996 
31 1 9.37503 6.56584 0.401382 
62 1 9.0322 5.28755 12.3819 
91 1 9.37523 6.56582 11.9327 
92 1 10.7702 6.24096 10.9754 
106 1 10.3723 6.80197 9.69132 
127 1 10.7713 6.24066 1.35881 
4 1 4.39346 5.83895 13.273 
5 1 3.1309 5.68726 14.1989 
43 1 4.51572 6.95086 15.4481 
52 1 9.03381 5.28667 25.6992 
66 1 4.42626 5.83153 24.7938 
67 1 5.0808 6.97196 23.8931 
88 1 5.10554 4.59958 25.1802 
107 1 3.15124 5.69079 23.8782 
116 1 4.55856 6.97948 22.6041 
117 1 5.04486 6.98249 14.1828 
11 1 11.3315 7.59762 3.36992 
12 1 10.4915 8.8358 4.09829 
14 1 8.99538 11.2704 0.404246 
15 1 10.2685 11.4413 1.32492 
16 1 8.36158 8.88916 0.677267 
19 1 10.4638 8.86498 5.55824 
29 1 10.9533 10.1223 3.34458 
32 1 8.64679 7.65296 1.2714 
35 1 12.0831 9.64532 2.62721 
45 1 9.22942 8.9259 3.26227 
47 1 12.6928 8.84346 0.542657 
49 1 11.3572 10.8975 0.656782 
51 1 8.86031 10.1599 2.60195 
53 1 11.3302 7.59662 8.96517 
54 1 10.491 8.83556 8.2367 
56 1 8.99572 11.2706 11.9303 
57 1 8.34681 10.1382 11.0255 
58 1 11.3583 10.8977 11.6776 
60 1 12.2714 8.07106 9.58843 
61 1 10.4637 8.865 6.7767 
73 1 9.22913 8.92597 9.07286 
75 1 12.6925 8.84437 11.7925 
76 1 12.3053 10.0965 10.9914 
79 1 9.18628 7.65218 9.78864 
80 1 8.3217 12.5131 12.3062 
89 1 10.9531 10.122 8.9901 
93 1 8.36128 8.88846 11.6565 
95 1 10.0397 11.0326 9.68573 
105 1 10.2692 11.4414 11.0101 
109 1 8.64587 7.6524 11.0632 
110 1 12.0833 9.64513 9.70714 
114 1 8.86062 10.16 9.73365 
119 1 8.34739 10.1381 1.3096 
120 1 12.272 8.07129 2.74551 
123 1 12.3047 10.0959 1.34277 
124 1 9.18616 7.65257 2.54672 
128 1 10.0393 11.0327 2.64925 
6 1 5.05667 8.24098 13.5481 
13 1 9.57674 10.312 25.0519 
17 1 9.18849 8.96752 25.1309 
30 1 9.92307 7.69879 25.067 
34 1 11.2626 7.50229 25.1214 
36 1 8.32169 12.5129 25.7763 
46 1 11.6849 8.82207 25.1201 
50 1 10.9457 10.1057 25.1557 
55 1 9.57684 10.3113 13.0287 
59 1 10.9459 10.1051 12.9261 
74 1 11.6849 8.82207 12.9618 
78 1 11.2627 7.50147 12.9605 
90 1 9.92287 7.69827 13.0194 
94 1 9.18893 8.9666 12.9496 
101 1 5.05619 8.19577 24.562 
129 2 5.58775 8.24416 16.3283 
130 3 6.59251 8.1811 16.2312 
33 1 11.7089 6.65702 0.695733 
77 1 11.7085 6.65605 11.6387 
41 1 17.8229 6.23409 13.522 
68 1 17.8357 6.24073 24.5516 
103 1 19.149 6.10891 22.5541 
126 1 19.0959 6.1246 15.538 
3 1 19.6104 6.81703 12.1768 
7 1 20.004 8.16511 12.2653 
10 1 15.1403 8.44348 12.8408 
22 1 19.2646 9.43649 12.1916 
26 1 17.9265 9.63181 12.2442 
38 1 17.5045 8.30974 12.2406 
42 1 18.2459 7.02865 12.2717 
44 1 20.1582 11.8616 12.8138 
48 1 12.5413 7.61189 1.39628 
65 1 19.6148 6.78031 0.159774 
69 1 18.2513 7.02802 0.0539289 
82 1 17.5326 8.32383 0.0811175 
86 1 17.9492 9.62964 0.0523566 
96 1 14.0526 8.68475 12.3711 
98 1 19.3172 9.42686 0.0240695 
102 1 20.0379 8.11529 0.10347 
113 1 12.5394 7.61306 10.939 
1 1 17.8797 9.48886 16.2523 
2 1 18.7101 8.21894 16.943 
8 1 18.8141 10.3237 15.51 
9 1 18.7125 8.23211 18.4117 
20 1 14.0505 8.68581 25.7114 
21 1 18.1646 7.00326 16.2161 
23 1 19.7987 10.5904 13.2545 
24 1 20.5338 9.48738 14.1226 
25 1 17.4758 10.4742 13.5675 
27 1 17.0602 7.45842 15.5149 
37 1 20.2175 8.2638 16.2259 
39 1 16.5012 8.28527 13.4138 
40 1 16.6525 9.51255 14.2741 
63 1 17.8585 9.52477 21.828 
64 1 18.7029 8.29641 21.0915 
70 1 16.916 9.05973 22.4556 
71 1 18.7168 8.25654 19.6304 
72 1 20.162 11.9157 25.2894 
81 1 19.9558 8.21805 21.9498 
83 1 16.4982 8.29342 24.6645 
84 1 16.8894 7.04141 23.8661 
85 1 17.4726 10.4763 24.5066 
87 1 19.9791 9.46413 22.6958 
97 1 18.236 7.01775 21.8561 
99 1 19.786 10.6904 24.7905 
100 1 18.4044 10.9101 23.8409 
104 1 15.1392 8.44733 25.2426 
108 1 18.8138 10.3233 22.5632 
111 1 20.488 9.46012 24.0191 
112 1 17.1072 7.48752 22.5791 
115 1 16.6447 9.5197 23.8038 
118 1 16.9159 9.06296 15.6209 
121 1 16.871 7.03405 14.2027 
122 1 20.0097 9.53685 15.3899 
125 1 18.4092 10.8989 14.2288 
ITEM: TIMESTEP
70
ITEM: NUMBER OF ATOMS
130
ITEM: BOX BOUNDS xy xz yz pp pp pp
0.0000000000000000e+00 2.3654499999999999e+01 7.8845000000000001e+00
0.0000000000000000e+00 1.3658086643083999e+01 0.0000000000000000e+00
0.0000000000000000e+00 2.5747000000000000e+01 0.0000000000000000e+00
ITEM: ATOMS id type x y z 
18 1 10.3257 6.86763 2.64777 
28 1 5.07548 4.71546 12.9279 
31 1 9.29279 6.60421 0.377074 
62 1 8.83873 5.33857 12.3873 
91 1 9.29327 6.60648 11.9647 
92 1 10.6803 6.33567 10.9892 
106 1 10.3268 6.86686 9.68792 
127 1 10.679 6.33764 1.34334 
4 1 4.35645 5.93096 13.283 
5 1 3.06057 5.77367 14.1936 
43 1 4.51544 7.02947 15.4392 
52 1 8.84062 5.33757 25.6935 
66 1 4.39519 5.93922 24.7938 
67 1 5.10199 7.06283 23.9088 
88 1 5.09214 4.70397 25.1385 
107 1 3.09936 5.7602 23.8736 
116 1 4.57423 7.00791 22.6264 
117 1 5.02871 7.09411 14.167 
11 1 11.3328 7.62266 3.38554 
12 1 10.5017 8.80219 4.10047 
14 1 9.01463 11.1718 0.410685 
15 1 10.3109 11.3629 1.31558 
16 1 8.27994 8.8224 0.624339 
19 1 10.4528 8.84877 5.55831 
29 1 10.9606 10.0985 3.34232 
32 1 8.52136 7.60414 1.26011 
35 1 12.1446 9.70243 2.66569 