ITEM: TIMESTEP
0
ITEM: NUMBER OF ATOMS
51
ITEM: BOX BOUNDS pp pp pp
0.0000000000000000e+00 1.1000000000000000e+01
0.0000000000000000e+00 1.1002000000000001e+01
0.0000000000000000e+00 1.1000000000000000e+01
ITEM: ATOMS id type x y z 
10 1 4.603 4.603 4.603 
11 1 3.085 3.085 3.085 
12 1 3.796 3.796 3.796 
46 1 0.726 0.725 0.725 
47 1 2.26 2.259 2.26 
48 1 1.551 1.55 1.55 
19 1 4.546 4.545 6.226 
20 1 3.013 3.013 7.764 
21 1 3.721 3.721 7.053 
31 1 0.668 0.667 10.103 
32 1 2.187 2.187 8.589 
33 1 1.476 1.475 9.298 
50 2 5.467 3.736 9.102 
16 1 4.546 6.225 4.546 
17 1 3.013 7.765 3.013 
18 1 3.721 7.053 3.722 
25 1 0.668 10.103 0.668 
26 1 2.188 8.589 2.188 
27 1 1.476 9.298 1.476 
4 1 4.608 6.169 6.169 
5 1 3.086 7.684 7.684 
6 1 3.799 6.974 6.974 
37 1 0.729 10.046 10.046 
38 1 2.259 8.509 8.508 
39 1 1.552 9.219 9.219 
13 1 6.225 4.546 4.546 
14 1 7.764 3.013 3.013 
15 1 7.053 3.721 3.722 
28 1 10.102 0.667 0.668 
29 1 8.589 2.187 2.188 
30 1 9.298 1.475 1.476 
1 1 6.168 4.608 6.169 
2 1 7.684 3.086 7.684 
3 1 6.974 3.799 6.974 
40 1 10.045 0.728 10.046 
41 1 8.508 2.259 8.508 
42 1 9.218 1.551 9.218 
49 2 6.318 4.346 8.027 
51 3 6.056 3.384 9.815 
7 1 6.169 6.169 4.608 
8 1 7.684 7.684 3.086 
9 1 6.974 6.974 3.799 
43 1 10.046 10.047 0.729 
44 1 8.508 8.509 2.259 
45 1 9.219 9.219 1.552 
22 1 6.229 6.229 6.229 
23 1 7.764 7.765 7.765 
24 1 7.055 7.056 7.055 
34 1 10.108 10.108 10.107 
35 1 8.59 8.59 8.59 
36 1 9.301 9.301 9.3 
ITEM: TIMESTEP
10
ITEM: NUMBER OF ATOMS
51
ITEM: BOX BOUNDS pp pp pp
0.0000000000000000e+00 1.1000000000000000e+01
0.0000000000000000e+00 1.1002000000000001e+01
0.0000000000000000e+00 1.1000000000000000e+01
ITEM: ATOMS id type x y z 
10 1 4.57958 4.60272 4.59057 
11 1 3.08028 3.07605 3.07902 
12 1 3.78322 3.79227 3.78595 
46 1 0.733182 0.733157 0.732249 
47 1 2.27245 2.27093 2.27199 
48 1 1.56485 1.5643 1.56434 
19 1 4.54064 4.5357 6.24149 
20 1 2.99514 2.99867 7.7774 
21 1 3.71022 3.70185 7.07445 
31 1 0.678609 0.671531 10.0987 
32 1 2.1883 2.19042 8.58615 
33 1 1.48343 1.47845 9.29353 
50 2 5.47763 3.71663 9.13848 
16 1 4.53705 6.23441 4.5376 
17 1 2.99975 7.77773 3.00034 
18 1 3.70654 7.0683 3.70649 
25 1 0.674334 10.0976 0.674268 
26 1 2.19248 8.58513 2.19213 
27 1 1.48289 9.29002 1.48357 
4 1 4.59345 6.18176 6.17179 
5 1 3.08037 7.68908 7.69356 
6 1 3.78694 6.98679 6.97749 
37 1 0.735871 10.0395 10.0373 
38 1 2.27024 8.49768 8.49691 
39 1 1.5662 9.20536 9.20557 
13 1 6.24447 4.52823 4.53612 
14 1 7.78172 2.9948 2.99119 
15 1 7.07777 3.69692 3.70572 
28 1 10.0983 0.670788 0.678746 
29 1 8.58747 2.1883 2.18764 
30 1 9.29549 1.47782 1.48135 
1 1 6.13715 4.63892 6.10723 
2 1 7.73647 3.03647 7.70209 
3 1 6.91902 3.8433 7.09537 
40 1 10.0285 0.743555 10.029 
41 1 8.49506 2.27282 8.4913 
42 1 9.21694 1.55384 9.21739 
49 2 6.37142 4.31586 7.95461 
51 3 6.03284 3.39706 9.79437 
7 1 6.16952 6.19101 4.59485 
8 1 7.69448 7.68859 3.07932 
9 1 6.97657 6.98912 3.78798 
43 1 10.0375 10.0394 0.736116 
44 1 8.49739 8.49753 2.27036 
45 1 9.20483 9.20566 1.56578 
22 1 6.23945 6.23441 6.24419 
23 1 7.7775 7.78191 7.77748 
24 1 7.07356 7.06629 7.0755 
34 1 10.1029 10.0972 10.1017 
35 1 8.58676 8.58923 8.58574 
36 1 9.29622 9.29199 9.29751 
ITEM: TIMESTEP
20
ITEM: NUMBER OF ATOMS
51
ITEM: BOX BOUNDS pp pp pp
0.0000000000000000e+00 1.1000000000000000e+01
0.0000000000000000e+00 1.1002000000000001e+01
0.0000000000000000e+00 1.1000000000000000e+01
ITEM: ATOMS id type x y z 
10 1 4.58073 4.601 4.59324 
11 1 3.08311 3.0805 3.08129 
12 1 3.7855 3.79345 3.79036 
46 1 0.737101 0.735598 0.735105 
47 1 2.27108 2.26958 2.27058 
48 1 1.56424 1.56268 1.56313 
19 1 4.53306 4.53976 6.23382 
20 1 3.0005 2.99922 7.77748 
21 1 3.70707 3.7056 7.07058 
31 1 0.682242 0.671452 10.0985 
32 1 2.186 2.18772 8.58811 
33 1 1.48136 1.47688 9.29615 
50 2 5.46773 3.71346 9.14339 
16 1 4.5356 6.23602 4.5339 
17 1 3.00042 7.77705 3.00096 
18 1 3.70644 7.06835 3.70655 
25 1 0.675289 10.0959 0.675714 
26 1 2.18787 8.58822 2.18815 
27 1 1.48024 9.29554 1.4797 
4 1 4.59359 6.18191 6.17432 
5 1 3.08161 7.68853 7.68732 
6 1 3.79161 6.98059 6.98144 
37 1 0.738432 10.037 10.0354 
38 1 2.26906 8.49914 8.49909 
39 1 1.56408 9.20739 9.20652 
13 1 6.23885 4.53395 4.52483 
14 1 7.78246 2.99387 2.99526 
15 1 7.07477 3.70011 3.70108 
28 1 10.0995 0.669698 0.681366 
29 1 8.59097 2.18424 2.18357 
30 1 9.29951 1.47469 1.47794 
1 1 6.14721 4.62894 6.11042 
2 1 7.74882 3.02535 7.6777 
3 1 6.90736 3.85409 7.1214 
40 1 10.0333 0.738585 10.0351 
41 1 8.50512 2.26502 8.49232 
42 1 9.21898 1.55188 9.21368 
49 2 6.35997 4.33853 7.95601 
51 3 6.03326 3.39507 9.80333 
7 1 6.17089 6.19158 4.59687 
8 1 7.68925 7.68702 3.0818 
9 1 6.97709 6.98485 3.79161 
43 1 10.0354 10.0356 0.738616 
44 1 8.49898 8.49898 2.26933 
45 1 9.20658 9.20662 1.56379 
22 1 6.23515 6.2418 6.23631 
23 1 7.77673 7.77648 7.77734 
24 1 7.06995 7.06937 7.07163 
34 1 10.1024 10.0928 10.1021 
35 1 8.58858 8.59026 8.58829 
36 1 9.29796 9.29509 9.29752 
ITEM: TIMESTEP
30
ITEM: NUMBER OF ATOMS
51
ITEM: BOX BOUNDS pp pp pp
0.0000000000000000e+00 1.1000000000000000e+01
0.0000000000000000e+00 1.1002000000000001e+01
0.0000000000000000e+00 1.1000000000000000e+01
ITEM: ATOMS id type x y z 
10 1 4.57988 4.60786 4.59497 
11 1 3.08262 3.08317 3.08392 
12 1 3.78836 3.79668 3.79035 
46 1 0.744313 0.735045 0.737579 
47 1 2.2748 2.27407 2.2736 
48 1 1.56959 1.56331 1.56806 
19 1 4.53934 4.54038 6.22851 
20 1 3.00615 3.00108 7.77881 
21 1 3.70364 3.70751 7.06432 
31 1 0.685469 0.667841 10.1029 
32 1 2.18636 2.18994 8.58647 
33 1 1.48863 1.47527 9.29708 
50 2 5.44365 3.69699 9.16994 
16 1 4.52981 6.24251 4.52918 
17 1 2.99653 7.78053 2.99707 
18 1 3.70306 7.07161 3.70337 
25 1 0.674769 10.0982 0.674039 
26 1 2.18639 8.5888 2.1872 
27 1 1.48037 9.29763 1.4787 
4 1 4.59458 6.1797 6.1732 
5 1 3.08375 7.6867 7.6884 
6 1 3.78999 6.98112 6.97586 
37 1 0.741107 10.034 10.0347 
38 1 2.27228 8.4966 8.49633 
39 1 1.56678 9.20463 9.2044 
13 1 6.23908 4.53455 4.5271 
14 1 7.78545 2.99074 2.99721 
15 1 7.07228 3.70184 3.6926 
28 1 10.1079 0.662117 0.683974 
29 1 8.59266 2.18099 2.18167 
30 1 9.30423 1.47303 1.47732 
1 1 6.16061 4.61408 6.11057 
2 1 7.78217 2.99611 7.6038 
3 1 6.88105 3.88042 7.18826 
40 1 10.0397 0.731749 10.0419 
41 1 8.52785 2.24699 8.46592 
42 1 9.22749 1.54525 9.20686 
49 2 6.30541 4.43053 7.96903 
51 3 6.02606 3.39354 9.82258 
7 1 6.16515 6.19234 4.59653 
8 1 7.68815 7.68692 3.08435 
9 1 6.97244 6.9857 3.7898 
43 1 10.0361 10.0283 0.7406 
44 1 8.49568 8.49588 2.27313 
45 1 9.20591 9.20147 1.56677 
22 1 6.2344 6.23519 6.23028 
23 1 7.77473 7.77053 7.77808 
24 1 7.06673 7.07134 7.06539 
34 1 10.1058 10.0873 10.1052 
35 1 8.58693 8.58743 8.58656 
36 1 9.2967 9.29152 9.2956 
ITEM: TIMESTEP
40
ITEM: NUMBER OF ATOMS
51
ITEM: BOX BOUNDS pp pp pp
0.0000000000000000e+00 1.1000000000000000e+01
0.0000000000000000e+00 1.1002000000000001e+01
0.0000000000000000e+00 1.1000000000000000e+01
ITEM: ATOMS id type x y z 
10 1 4.5853 4.6091 4.58965 
11 1 3.0843 3.0852 3.08737 
12 1 3.78942 3.80065 3.78986 
46 1 0.74602 0.735149 0.734148 
47 1 2.2754 2.2741 2.27181 
48 1 1.56857 1.56089 1.57007 
19 1 4.54432 4.53525 6.22979 
20 1 2.99721 3.00096 7.77593 
21 1 3.71717 3.70425 7.07242 
31 1 0.682132 0.669433 10.1006 
32 1 2.18676 2.19072 8.58715 
33 1 1.49044 1.47295 9.29789 
50 2 5.4327 3.68814 9.18167 
16 1 4.53107 6.24122 4.53073 
17 1 2.99743 7.77869 2.99754 
18 1 3.70244 7.07368 3.70385 
25 1 0.674875 10.0983 0.672037 
26 1 2.1844 8.59123 2.18572 
27 1 1.47903 9.2983 1.47608 
4 1 4.59458 6.1801 6.16946 
5 1 3.08274 7.683 7.68605 
6 1 3.79626 6.98356 6.97573 
37 1 0.738913 10.0359 10.0333 
38 1 2.27112 8.4976 8.49676 
39 1 1.56715 9.20508 9.20668 
13 1 6.24267 4.53106 4.5375 
14 1 7.77978 2.99556 2.99061 
15 1 7.07779 3.69752 3.70619 
28 1 10.1077 0.663913 0.681689 
29 1 8.59458 2.18075 2.18251 
30 1 9.30258 1.47143 1.47768 
1 1 6.16752 4.61135 6.12657 
2 1 7.78222 2.99517 7.59779 
3 1 6.88149 3.88377 7.21344 
40 1 10.0381 0.734507 10.0408 
41 1 8.53637 2.23995 8.4328 
42 1 9.22878 1.54522 9.1897 
49 2 6.2838 4.46993 7.96295 
51 3 6.02255 3.39387 9.83113 
7 1 6.16237 6.18743 4.5947 
8 1 7.68552 7.68772 3.08458 
9 1 6.97221 6.98326 3.79219 
43 1 10.0386 10.0271 0.737546 
44 1 8.49754 8.49505 2.2727 
45 1 9.20505 9.2028 1.56723 
22 1 6.2372 6.22826 6.22996 
23 1 7.76962 7.77513 7.77142 
24 1 7.07122 7.05724 7.07148 
34 1 10.1051 10.0886 10.1018 
35 1 8.58695 8.58569 8.58661 
36 1 9.29586 9.29121 9.2961 
ITEM: TIMESTEP
50
ITEM: NUMBER OF ATOMS
51
ITEM: BOX BOUNDS pp pp pp
0.0000000000000000e+00 1.1000000000000000e+01
0.0000000000000000e+00 1.1002000000000001e+01
0.0000000000000000e+00 1.1000000000000000e+01
ITEM: ATOMS id type x y z 
10 1 4.58768 4.60852 4.59156 
11 1 3.08382 3.08549 3.08569 
12 1 3.78862 3.79953 3.79126 
46 1 0.744131 0.733977 0.736073 
47 1 2.27485 2.27207 2.27462 
48 1 1.57071 1.56487 1.56592 
19 1 4.54743 4.53481 6.23138 
20 1 3.00193 3.00251 7.77585 
21 1 3.71299 3.70455 7.06938 
31 1 0.683207 0.668545 10.1012 
32 1 2.18985 2.18837 8.58815 
33 1 1.4849 1.47779 9.29553 
50 2 5.42895 3.6851 9.18534 
16 1 4.531 6.24091 4.53102 
17 1 2.99612 7.7801 2.99685 
18 1 3.70282 7.07316 3.7032 
25 1 0.673455 10.0991 0.671183 
26 1 2.18492 8.59055 2.18548 
27 1 1.47862 9.29891 1.47694 
4 1 4.5957 6.17862 6.16999 
5 1 3.0842 7.68521 7.68629 
6 1 3.79276 6.98024 6.9758 
37 1 0.738807 10.0357 10.0324 
38 1 2.27218 8.49679 8.49736 
39 1 1.56725 9.20449 9.20404 
13 1 6.24529 4.52813 4.54127 
14 1 7.78134 2.99427 2.99217 
15 1 7.07637 3.69855 3.70285 
28 1 10.1078 0.663603 0.679393 
29 1 8.59394 2.18153 2.18241 
30 1 9.30261 1.47076 1.47842 
1 1 6.1649 4.60972 6.12959 
2 1 7.78236 2.99516 7.59752 
3 1 6.87894 3.88768 7.22045 
40 1 10.0367 0.735361 10.0403 
41 1 8.54227 2.23355 8.42617 
42 1 9.23294 1.54163 9.18627 
49 2 6.27912 4.4804 7.9608 
51 3 6.02154 3.39415 9.83395 
7 1 6.16367 6.18555 4.59335 
8 1 7.68523 7.68773 3.08459 
9 1 6.9724 6.98377 3.79169 
43 1 10.0374 10.0289 0.737055 
44 1 8.49776 8.49617 2.27296 
45 1 9.20633 9.20175 1.5658 
22 1 6.23889 6.22607 6.2326 
23 1 7.77208 7.77361 7.77422 
24 1 7.07005 7.06146 7.06904 
34 1 10.1038 10.0912 10.1024 
35 1 8.58634 8.58619 8.58669 
36 1 9.296 9.29026 9.29563 
ITEM: TIMESTEP
60
ITEM: NUMBER OF ATOMS
51
ITEM: BOX BOUNDS pp pp pp
0.0000000000000000e+00 1.1000000000000000e+01
0.0000000000000000e+00 1.1002000000000001e+01
0.0000000000000000e+00 1.1000000000000000e+01
ITEM: ATOMS id type x y z 
10 1 4.58929 4.60798 4.59194 
11 1 3.08346 3.08656 3.08607 
12 1 3.79006 3.79895 3.79134 
46 1 0.743951 0.734845 0.7353 
47 1 2.27519 2.2723 2.2747 
48 1 1.57069 1.56455 1.56614 
19 1 4.54839 4.53428 6.23222 
20 1 3.00422 3.00186 7.77736 
21 1 3.70975 3.70536 7.06671 
31 1 0.682522 0.669163 10.1007 
32 1 2.18983 2.1884 8.58836 
33 1 1.48476 1.47756 9.29573 
50 2 5.42486 3.68171 9.1894 
16 1 4.53233 6.2406 4.53158 
17 1 2.99656 7.78074 2.9975 
18 1 3.70226 7.07161 3.70243 
25 1 0.673049 10.0994 0.670826 
26 1 2.18462 8.59106 2.18549 
27 1 1.47854 9.29862 1.47602 
4 1 4.59617 6.17848 6.16987 
5 1 3.0849 7.68559 7.68557 
6 1 3.79239 6.97842 6.97627 
37 1 0.738255 10.0362 10.0314 
38 1 2.27273 8.49636 8.49739 
39 1 1.56703 9.20471 9.20351 
13 1 6.24628 4.52718 4.54285 
14 1 7.78134 2.99447 2.99211 
15 1 7.07654 3.69807 3.7037 
28 1 10.1071 0.66377 0.678903 
29 1 8.59373 2.18138 2.18219 
30 1 9.30275 1.47102 1.47879 
1 1 6.16509 4.60881 6.13296 
2 1 7.7817 2.99531 7.59851 
3 1 6.87764 3.89061 7.22699 
40 1 10.0368 0.735525 10.0402 
41 1 8.54767 2.22893 8.41755 
42 1 9.23573 1.53864 9.18034 
49 2 6.27417 4.49167 7.95946 
51 3 6.02041 3.39452 9.837 
7 1 6.16437 6.18367 4.59311 
8 1 7.68444 7.68804 3.08469 
9 1 6.97275 6.98279 3.79192 
43 1 10.0369 10.0293 0.736298 
44 1 8.49823 8.49636 2.27287 
45 1 9.20632 9.20184 1.56559 
22 1 6.2397 6.22525 6.23335 
23 1 7.77302 7.77139 7.77555 
24 1 7.06892 7.0648 7.06674 
34 1 10.1034 10.0919 10.1021 
35 1 8.58626 8.58602 8.58665 
36 1 9.2958 9.29044 9.29583 
ITEM: TIMESTEP
70
ITEM: NUMBER OF ATOMS
51
ITEM: BOX BOUNDS pp pp pp
0.0000000000000000e+00 1.1000000000000000e+01
0.0000000000000000e+00 1.1002000000000001e+01
0.0000000000000000e+00 1.1000000000000000e+01
ITEM: ATOMS id type x y z 
10 1 4.59064 4.60749 4.59184 
11 1 3.08385 3.08665 3.08606 
12 1 3.78963 3.79941 3.7916 
46 1 0.743895 0.734936 0.734964 
47 1 2.27534 2.27215 2.27471 
48 1 1.57055 1.56473 1.56615 
19 1 4.54783 4.53426 6.23193 
20 1 3.00426 3.00171 7.77737 
21 1 3.7099 3.70512 7.06701 
31 1 0.682526 0.669149 10.1006 
32 1 2.18986 2.18831 8.58844 
33 1 1.48484 1.47773 9.29587 
50 2 5.42234 3.6796 9.19189 
16 1 4.53272 6.2398 4.53151 
17 1 2.99643 7.7803 2.99751 
18 1 3.70284 7.072 3.70285 
25 1 0.673413 10.1002 0.67008 
26 1 2.18516 8.59165 2.18529 
27 1 1.47734 9.29775 1.47604 
4 1 4.59622 6.17778 6.16989 
5 1 3.08482 7.68497 7.68565 
6 1 3.79294 6.9791 6.97577 
37 1 0.738031 10.0364 10.031 
38 1 2.27301 8.49621 8.49749 
39 1 1.56675 9.2049 9.20326 
13 1 6.24688 4.5265 4.54381 
14 1 7.78126 2.99453 2.99198 
15 1 7.07698 3.6977 3.70422 
28 1 10.1072 0.663912 0.679161 
29 1 8.59369 2.18148 2.18237 
30 1 9.3025 1.47099 1.47857 
1 1 6.16526 4.6086 6.13505 
2 1 7.7812 2.99565 7.59935 
3 1 6.87688 3.89237 7.23066 
40 1 10.0366 0.735821 10.0399 
41 1 8.55052 2.22623 8.41207 
42 1 9.23753 1.53696 9.17651 
49 2 6.27139 4.49837 7.95874 
51 3 6.01971 3.39476 9.83887 
7 1 6.16493 6.18259 4.59322 
8 1 7.68435 7.68801 3.0849 
9 1 6.97238 6.9827 3.79167 
43 1 10.0367 10.0294 0.735923 
44 1 8.49835 8.49631 2.27287 
45 1 9.20632 9.20193 1.56563 
22 1 6.23965 6.22576 6.23297 
23 1 7.77311 7.77132 7.77547 
24 1 7.06904 7.06449 7.06684 
34 1 10.1034 10.0919 10.102 
35 1 8.58611 8.5859 8.58681 
36 1 9.29585 9.29039 9.29558 
ITEM: TIMESTEP
80
ITEM: NUMBER OF ATOMS
51
ITEM: BOX BOUNDS pp pp pp
0.0000000000000000e+00 1.1000000000000000e+01
0.0000000000000000e+00 1.1002000000000001e+01
0.0000000000000000e+00 1.1000000000000000e+01
ITEM: ATOMS id type x y z 
10 1 4.5926 4.60615 4.59209 
11 1 3.08434 3.08568 3.08682 
12 1 3.78897 3.80177 3.79002 
46 1 0.743765 0.734895 0.734555 
47 1 2.27575 2.27225 2.27476 
48 1 1.57016 1.56466 1.56635 
19 1 4.54516 4.53472 6.2301 
20 1 3.0014 3.00204 7.7755 
21 1 3.71538 3.70346 7.07106 
31 1 0.681983 0.669236 10.1004 
32 1 2.18995 2.1881 8.58824 
33 1 1.48527 1.47825 9.2967 
50 2 5.41732 3.67531 9.19686 
16 1 4.53331 6.23936 4.53099 
17 1 2.99673 7.78002 2.99798 
18 1 3.70329 7.07145 3.70299 
25 1 0.673154 10.1005 0.669399 
26 1 2.18508 8.59162 2.18518 
27 1 1.4774 9.29784 1.47596 
4 1 4.59628 6.17778 6.169 
5 1 3.08507 7.68483 7.68558 
6 1 3.79293 6.9788 6.97567 
37 1 0.737767 10.0367 10.0301 
38 1 2.27311 8.49632 8.49703 
39 1 1.56729 9.2042 9.20358 
13 1 6.24838 4.52492 4.5469 
14 1 7.7812 2.99457 2.99187 
15 1 7.07753 3.69718 3.7054 
28 1 10.1075 0.664028 0.67901 
29 1 8.59364 2.18156 2.18246 
30 1 9.30211 1.47104 1.47837 
1 1 6.16485 4.60901 6.13829 
2 1 7.77972 2.997 7.60207 
3 1 6.87511 3.89614 7.23605 
40 1 10.0362 0.736223 10.0393 
41 1 8.55578 2.22089 8.40185 
42 1 9.24179 1.53314 9.16896 
49 2 6.26698 4.51061 7.95757 
51 3 6.0183 3.39529 9.84261 
7 1 6.16528 6.18115 4.59261 
8 1 7.68395 7.68823 3.08475 
9 1 6.97279 6.98233 3.79162 
43 1 10.0369 10.0299 0.735551 
44 1 8.49858 8.49637 2.27292 
45 1 9.20614 9.20186 1.56567 
22 1 6.23861 6.22832 6.23107 
23 1 7.77219 7.77398 7.7736 
24 1 7.07142 7.05904 7.07036 
34 1 10.1032 10.0921 10.1018 
35 1 8.58625 8.58534 8.58688 
36 1 9.29513 9.29079 9.29555 
ITEM: TIMESTEP
90
ITEM: NUMBER OF ATOMS
51
ITEM: BOX BOUNDS pp pp pp
0.0000000000000000e+00 1.1000000000000000e+01
0.0000000000000000e+00 1.1002000000000001e+01
0.0000000000000000e+00 1.1000000000000000e+01
ITEM: ATOMS id type x y z 
10 1 4.5976 4.6064 4.59008 
11 1 3.08318 3.08902 3.08539 
12 1 3.79356 3.79694 3.79099 
46 1 0.7427 0.734836 0.734502 
47 1 2.27471 2.27143 2.27462 
48 1 1.57061 1.56493 1.56589 
19 1 4.54708 4.53392 6.23349 
20 1 3.00619 2.99948 7.77881 
21 1 3.70965 3.70386 7.06699 
31 1 0.681651 0.669424 10.1017 
32 1 2.19018 2.18853 8.58985 
33 1 1.48443 1.47741 9.29588 
50 2 5.39597 3.65663 9.21797 
16 1 4.53685 6.23619 4.528 
17 1 2.99621 7.78015 2.99899 
18 1 3.70466 7.07049 3.70122 
25 1 0.673809 10.1007 0.666894 
26 1 2.18463 8.59189 2.18522 
27 1 1.47794 9.29745 1.47469 
4 1 4.59512 6.17808 6.1662 
5 1 3.08633 7.68401 7.6864 
6 1 3.79173 6.97877 6.97335 
37 1 0.737111 10.0376 10.0287 
38 1 2.27371 8.49709 8.49741 
39 1 1.56684 9.20305 9.2032 
13 1 6.25352 4.51964 4.55624 
14 1 7.78068 2.99525 2.99195 
15 1 7.07993 3.69447 3.71138 
28 1 10.107 0.66537 0.677314 
29 1 8.59252 2.18187 2.18186 
30 1 9.30208 1.47136 1.47886 
1 1 6.16191 4.61102 6.14895 
2 1 7.77159 3.00422 7.61622 
3 1 6.86916 3.91087 7.25861 
40 1 10.0371 0.735665 10.0345 
41 1 8.57733 2.20007 8.35912 
42 1 9.25682 1.51866 9.1378 
49 2 6.25304 4.55785 7.95402 
51 3 6.01221 3.39791 9.85848 
7 1 6.16788 6.17479 4.59008 
8 1 7.68339 7.68875 3.08436 
9 1 6.97311 6.98068 3.79049 
43 1 10.0365 10.031 0.734698 
44 1 8.49847 8.49675 2.27304 
45 1 9.20738 9.20222 1.56563 
22 1 6.23979 6.22679 6.23337 
23 1 7.77516 7.76923 7.77655 
24 1 7.06977 7.06471 7.06628 
34 1 10.1032 10.0935 10.101 
35 1 8.5852 8.58576 8.58732 
36 1 9.29577 9.29033 9.2954 
ITEM: TIMESTEP
100
ITEM: NUMBER OF ATOMS
51
ITEM: BOX BOUNDS pp pp pp
0.0000000000000000e+00 1.1000000000000000e+01
0.0000000000000000e+00 1.1002000000000001e+01
0.0000000000000000e+00 1.1000000000000000e+01
ITEM: ATOMS id type x y z 
10 1 4.59809 4.60519 4.59056 
11 1 3.0838 3.08825 3.08579 
12 1 3.79288 3.79857 3.79041 
46 1 0.742574 0.734917 0.734589 
47 1 2.27526 2.2719 2.27478 
48 1 1.57024 1.5649 1.56632 
19 1 4.54551 4.53442 6.23247 
20 1 3.00543 2.99957 7.77816 
21 1 3.711 3.70363 7.06823 
31 1 0.681009 0.669902 10.101 
32 1 2.1903 2.18813 8.58961 
33 1 1.48437 1.47803 9.29653 
50 2 5.39504 3.65573 9.2189 
16 1 4.53715 6.23602 4.52778 
17 1 2.99646 7.78 2.99892 
18 1 3.70437 7.07059 3.70138 
25 1 0.673345 10.1004 0.667317 
26 1 2.18479 8.59178 2.18509 
27 1 1.47771 9.29754 1.475 
4 1 4.59524 6.17799 6.16575 
5 1 3.08594 7.68394 7.68587 
6 1 3.79274 6.97871 6.974 
37 1 0.737283 10.0365 10.0291 
38 1 2.27423 8.49557 8.49735 
39 1 1.56708 9.20457 9.20212 
13 1 6.25349 4.5196 4.55627 
14 1 7.78104 2.9948 2.99219 
15 1 7.0799 3.6946 3.71091 
28 1 10.1068 0.664902 0.67686 
29 1 8.59293 2.18161 2.18228 
30 1 9.30151 1.47165 1.47759 
1 1 6.16223 4.61129 6.14927 
2 1 7.77153 3.00442 7.61745 
3 1 6.86881 3.9116 7.259 
40 1 10.0375 0.735243 10.0339 
41 1 8.57871 2.1987 8.35772 
42 1 9.2567 1.51855 9.13769 
49 2 6.25329 4.55906 7.95488 
51 3 6.0119 3.39809 9.85917 
7 1 6.16811 6.17505 4.59083 
8 1 7.68308 7.68895 3.08461 
9 1 6.97355 6.97996 3.79008 
43 1 10.037 10.0312 0.734763 
44 1 8.49928 8.49694 2.27282 
45 1 9.20659 9.20268 1.56536 
22 1 6.23901 6.22824 6.23225 
23 1 7.77465 7.76976 7.77569 
24 1 7.07012 7.0632 7.06725 
34 1 10.1027 10.0939 10.1013 
35 1 8.58561 8.58541 8.5874 
36 1 9.29508 9.2908 9.29539 
ITEM: TIMESTEP
110
ITEM: NUMBER OF ATOMS
51
ITEM: BOX BOUNDS pp pp pp
0.0000000000000000e+00 1.1000000000000000e+01
0.0000000000000000e+00 1.1002000000000001e+01
0.0000000000000000e+00 1.1000000000000000e+01
ITEM: ATOMS id type x y z 
10 1 4.5981 4.60501 4.59055 
11 1 3.08389 3.08832 3.08582 
12 1 3.79298 3.79857 3.79047 
46 1 0.742473 0.734917 0.734617 
47 1 2.27529 2.27193 2.2748 
48 1 1.5702 1.5649 1.56632 
19 1 4.54495 4.53454 6.232 
20 1 3.00511 2.99958 7.7778 
21 1 3.71166 3.70367 7.06887 
31 1 0.681043 0.669758 10.101 
32 1 2.19031 2.18812 8.58967 
33 1 1.48439 1.47797 9.29654 
50 2 5.39448 3.65519 9.21945 
16 1 4.53719 6.23595 4.52763 
17 1 2.99653 7.77995 2.99897 
18 1 3.70447 7.07046 3.70141 
25 1 0.673376 10.1004 0.66721 
26 1 2.18477 8.59178 2.18511 
27 1 1.47773 9.29752 1.47498 
4 1 4.59521 6.17801 6.16566 
5 1 3.086 7.68388 7.68581 
6 1 3.79276 6.97868 6.97392 
37 1 0.737356 10.0365 10.0292 
38 1 2.27406 8.49574 8.4975 
39 1 1.56708 9.20459 9.20217 
13 1 6.25358 4.51943 4.55665 
14 1 7.78125 2.99453 2.99254 
15 1 7.07974 3.69483 3.71042 
28 1 10.1067 0.664985 0.676724 
29 1 8.59299 2.18154 2.18219 
30 1 9.30155 1.47163 1.47744 
1 1 6.1622 4.61132 6.14929 
2 1 7.77139 3.00463 7.61805 
3 1 6.86855 3.91208 7.25915 
40 1 10.0375 0.735334 10.0338 
41 1 8.57892 2.19845 8.35701 
42 1 9.25721 1.51803 9.13673 
49 2 6.25343 4.55981 7.95535 
51 3 6.01172 3.3982 9.85959 
7 1 6.16823 6.17501 4.59085 
8 1 7.68306 7.68892 3.08461 
9 1 6.97358 6.97987 3.79006 
43 1 10.037 10.0313 0.734805 
44 1 8.49926 8.49694 2.27282 
45 1 9.20659 9.20274 1.56535 
22 1 6.2388 6.22882 6.23187 
23 1 7.77459 7.7701 7.77542 
24 1 7.07024 7.06258 7.06775 
34 1 10.1028 10.0938 10.1013 
35 1 8.58563 8.5854 8.58744 
36 1 9.29514 9.2908 9.29541 
ITEM: TIMESTEP
114
ITEM: NUMBER OF ATOMS
51
ITEM: BOX BOUNDS pp pp pp
0.0000000000000000e+00 1.1000000000000000e+01
0.0000000000000000e+00 1.1002000000000001e+01
0.0000000000000000e+00 1.1000000000000000e+01
ITEM: ATOMS id type x y z 
10 1 4.5981 4.60501 4.59055 
11 1 3.0839 3.08832 3.08582 
12 1 3.79298 3.79857 3.79047 
46 1 0.74247 0.734918 0.734616 
47 1 2.27529 2.27193 2.2748 
48 1 1.5702 1.5649 1.56632 
19 1 4.54495 4.53454 6.232 
20 1 3.00512 2.99958 7.77781 
21 1 3.71165 3.70367 7.06885 
31 1 0.681032 0.669767 10.101 
32 1 2.1903 2.18812 8.58967 
33 1 1.48441 1.47795 9.29654 
50 2 5.39447 3.65518 9.21946 
16 1 4.53719 6.23594 4.52762 
17 1 2.99652 7.77994 2.99897 
18 1 3.70448 7.07046 3.7014 
25 1 0.673379 10.1004 0.667203 
26 1 2.18478 8.59177 2.18509 
27 1 1.47772 9.29753 1.475 
4 1 4.59521 6.17801 6.16566 
5 1 3.086 7.68388 7.68581 
6 1 3.79276 6.97868 6.97392 
37 1 0.737362 10.0365 10.0292 
38 1 2.27407 8.49574 8.4975 
39 1 1.56708 9.20458 9.20217 
13 1 6.25358 4.51944 4.55664 
14 1 7.78125 2.99454 2.99253 
15 1 7.07975 3.69482 3.71044 
28 1 10.1067 0.664989 0.676708 
29 1 8.59298 2.18154 2.18217 
30 1 9.30157 1.47162 1.47746 
1 1 6.16219 4.61132 6.14929 
2 1 7.77138 3.00463 7.61807 
3 1 6.86855 3.91209 7.25916 
40 1 10.0375 0.735326 10.0338 
41 1 8.57894 2.19843 8.35698 
42 1 9.2572 1.51804 9.13675 
49 2 6.25343 4.55982 7.95536 
51 3 6.01172 3.3982 9.8596 
7 1 6.16823 6.17501 4.59085 
8 1 7.68306 7.68892 3.0846 
9 1 6.97358 6.97987 3.79006 
43 1 10.037 10.0314 0.734804 
44 1 8.49926 8.49694 2.27282 
45 1 9.2066 9.20274 1.56535 
22 1 6.23879 6.22882 6.23187 
23 1 7.77459 7.77009 7.77542 
24 1 7.07023 7.06259 7.06774 
34 1 10.1028 10.0938 10.1013 
35 1 8.58564 8.5854 8.58744 
36 1 9.29514 9.2908 9.29541 
ITEM: TIMESTEP
120
ITEM: NUMBER OF ATOMS
51
ITEM: BOX BOUNDS pp pp pp
0.0000000000000000e+00 1.1000000000000000e+01
0.0000000000000000e+00 1.1002000000000001e+01
0.0000000000000000e+00 1.1000000000000000e+01
ITEM: ATOMS id type x y z 
10 1 4.5981 4.605 4.59055 
11 1 3.0839 3.08832 3.08582 
12 1 3.79298 3.79857 3.79047 
46 1 0.742469 0.734917 0.734617 
47 1 2.27529 2.27193 2.2748 
48 1 1.5702 1.56491 1.56632 
19 1 4.54495 4.53454 6.23201 
20 1 3.00512 2.99958 7.77781 
21 1 3.71164 3.70367 7.06885 
31 1 0.681038 0.669763 10.101 
32 1 2.19031 2.18812 8.58967 
33 1 1.4844 1.47796 9.29654 
50 2 5.39447 3.65518 9.21947 
16 1 4.53719 6.23595 4.52762 
17 1 2.99653 7.77994 2.99897 
18 1 3.70448 7.07046 3.7014 
25 1 0.673379 10.1004 0.667205 
26 1 2.18478 8.59177 2.1851 
27 1 1.47772 9.29753 1.475 
4 1 4.59521 6.17801 6.16566 
5 1 3.086 7.68388 7.68581 
6 1 3.79276 6.97868 6.97392 
37 1 0.737362 10.0365 10.0292 
38 1 2.27407 8.49574 8.4975 
39 1 1.56708 9.20458 9.20217 
13 1 6.25358 4.51944 4.55664 
14 1 7.78125 2.99454 2.99253 
15 1 7.07975 3.69481 3.71045 
28 1 10.1067 0.664988 0.67671 
29 1 8.59299 2.18154 2.18218 
30 1 9.30156 1.47162 1.47745 
1 1 6.16219 4.61132 6.14929 
2 1 7.77138 3.00464 7.61807 
3 1 6.86855 3.9121 7.25916 
40 1 10.0375 0.735326 10.0338 
41 1 8.57894 2.19842 8.35698 
42 1 9.2572 1.51804 9.13674 
49 2 6.25344 4.55983 7.95536 
51 3 6.01172 3.3982 9.8596 
7 1 6.16824 6.17501 4.59085 
8 1 7.68306 7.68892 3.0846 
9 1 6.97358 6.97987 3.79006 
43 1 10.037 10.0314 0.734804 
44 1 8.49926 8.49694 2.27282 
45 1 9.20659 9.20275 1.56535 
22 1 6.23879 6.22882 6.23187 
23 1 7.77459 7.77008 7.77542 
24 1 7.07023 7.0626 7.06773 
34 1 10.1028 10.0938 10.1013 
35 1 8.58564 8.5854 8.58745 
36 1 9.29514 9.29081 9.29541 
ITEM: TIMESTEP
130
ITEM: NUMBER OF ATOMS
51
ITEM: BOX BOUNDS pp pp pp
-5.0118593165453477e-03 1.1005011859316550e+01
-4.8622395287314388e-03 1.1006862239528731e+01
-3.2511293618198611e-03 1.1003251129361820e+01
ITEM: ATOMS id type x y z 
10 1 4.59762 4.60455 4.5904 
11 1 3.0818 3.08629 3.08449 
12 1 3.79132 3.79696 3.78934 
46 1 0.737832 0.730421 0.731514 
47 1 2.2722 2.26893 2.27274 
48 1 1.56641 1.56122 1.56379 
19 1 4.54446 4.534 6.23215 
20 1 3.00304 2.99751 7.77904 
21 1 3.71017 3.70233 7.06948 
31 1 0.676314 0.665135 10.1041 
32 1 2.18719 2.18509 8.5916 
33 1 1.48087 1.47452 9.29868 
50 2 5.39431 3.65348 9.22174 
16 1 4.5366 6.2363 4.52732 
17 1 2.9944 7.7818 2.99765 
18 1 3.70305 7.07164 3.70054 
25 1 0.668619 10.1048 0.664001 
26 1 2.18166 8.5946 2.18303 
27 1 1.47418 9.30077 1.47275 
4 1 4.59476 6.17823 6.16568 
5 1 3.08391 7.68571 7.68699 
6 1 3.7911 6.98009 6.97491 
37 1 0.732747 10.0408 10.0321 
38 1 2.271 8.49852 8.4994 
39 1 1.56328 9.20807 9.20457 
13 1 6.25397 4.51888 4.55644 
14 1 7.78316 2.9925 2.99116 
15 1 7.08102 3.69336 3.70971 
28 1 10.1112 0.660358 0.673506 
29 1 8.59591 2.1785 2.18011 
30 1 9.30491 1.46818 1.47518 
1 1 6.1624 4.61093 6.14928 
2 1 7.77344 3.00245 7.61942 
3 1 6.86972 3.91079 7.26015 
40 1 10.0419 0.730813 10.0367 
41 1 8.582 2.19524 8.3588 
42 1 9.26077 1.51438 9.13896 
49 2 6.25415 4.55908 7.95686 
51 3 6.01216 3.39636 9.86223 
7 1 6.1685 6.17526 4.59071 
8 1 7.68495 7.69075 3.08327 
9 1 6.97505 6.98128 3.78893 
43 1 10.0414 10.0357 0.731702 
44 1 8.50215 8.49974 2.27076 
45 1 9.21018 9.20623 1.56282 
22 1 6.23915 6.22908 6.23201 
23 1 7.77653 7.77189 7.77665 
24 1 7.07141 7.06382 7.06837 
34 1 10.1073 10.0982 10.1044 
35 1 8.58855 8.58822 8.58938 
36 1 9.29849 9.29404 9.29753 
ITEM: TIMESTEP
140
ITEM: NUMBER OF ATOMS
51
ITEM: BOX BOUNDS pp pp pp
-7.7996188283590258e-03 1.1007799618828367e+01
-7.3712071117413005e-03 1.1009371207111743e+01
-2.3561557724500640e-03 1.1002356155772448e+01
ITEM: ATOMS id type x y z 
10 1 4.59779 4.60482 4.59124 
11 1 3.08077 3.08539 3.08504 
12 1 3.79026 3.79593 3.78944 
46 1 0.734816 0.727672 0.731718 
47 1 2.27009 2.26697 2.27277 
48 1 1.56419 1.55923 1.56422 
19 1 4.54462 4.53417 6.23144 
20 1 3.0023 2.99687 7.77818 
21 1 3.70945 3.70173 7.06898 
31 1 0.673186 0.662243 10.104 
32 1 2.18534 2.18339 8.59128 
33 1 1.47907 1.4729 9.29785 
50 2 5.39412 3.65249 9.22129 
16 1 4.53669 6.23606 4.52802 
17 1 2.99363 7.78234 2.99854 
18 1 3.70236 7.07213 3.70102 
25 1 0.665464 10.1076 0.664131 
26 1 2.17979 8.59617 2.1834 
27 1 1.4724 9.30229 1.47363 
4 1 4.59499 6.17786 6.16485 
5 1 3.08286 7.68653 7.68643 
6 1 3.79003 6.98097 6.97491 
37 1 0.729769 10.0434 10.032 
38 1 2.26889 8.50035 8.49937 
39 1 1.56108 9.20997 9.20419 
13 1 6.25379 4.51898 4.5573 
14 1 7.78383 2.99184 2.99203 
15 1 7.08169 3.69266 3.71031 
28 1 10.1142 0.657467 0.673574 
29 1 8.59767 2.17679 2.18046 
30 1 9.30661 1.46657 1.47601 
1 1 6.16205 4.61122 6.14856 
2 1 7.77455 3.00137 7.6193 
3 1 6.87025 3.91029 7.25971 
40 1 10.0448 0.728019 10.0363 
41 1 8.58416 2.19311 8.35877 
42 1 9.26293 1.51233 9.13835 
49 2 6.2546 4.55881 7.95651 
51 3 6.01235 3.39543 9.86161 
7 1 6.16816 6.17492 4.59155 
8 1 7.68587 7.69156 3.08382 
9 1 6.97603 6.98218 3.78901 
43 1 10.0443 10.0383 0.731914 
44 1 8.50416 8.5016 2.2708 
45 1 9.21225 9.20814 1.56324 
22 1 6.23893 6.22871 6.23133 
23 1 7.7772 7.77234 7.77585 
24 1 7.07195 7.06449 7.06777 
34 1 10.1103 10.1009 10.1043 
35 1 8.59031 8.58981 8.58904 
36 1 9.30018 9.29552 9.29672 
ITEM: TIMESTEP
150
ITEM: NUMBER OF ATOMS
51
ITEM: BOX BOUNDS pp pp pp
-1.1206206419095399e-02 1.1011206206419107e+01
-1.0545337885262903e-02 1.1012545337885264e+01
-2.4725855483141560e-03 1.1002472585548311e+01
ITEM: ATOMS id type x y z 
10 1 4.59782 4.60489 4.59184 
11 1 3.07947 3.08414 3.08515 
12 1 3.78897 3.79479 3.7892 
46 1 0.731262 0.724368 0.731079 
47 1 2.26756 2.26459 2.27218 
48 1 1.56163 1.55683 1.56401 
19 1 4.54459 4.5342 6.23087 
20 1 3.00129 2.99596 7.77769 
21 1 3.70847 3.70082 7.0689 
31 1 0.66958 0.658805 10.1048 
32 1 2.18315 2.1813 8.5915 
33 1 1.47678 1.47081 9.29772 
50 2 5.39392 3.65126 9.22155 
16 1 4.53666 6.23591 4.5285 
17 1 2.99262 7.78311 2.99901 
18 1 3.70138 7.0729 3.70112 
25 1 0.661856 10.1109 0.663419 
26 1 2.1776 8.59811 2.18318 
27 1 1.47008 9.30425 1.47378 
4 1 4.59505 6.17762 6.16423 
5 1 3.08154 7.68762 7.68633 
6 1 3.78876 6.98204 6.9751 
37 1 0.726277 10.0466 10.0326 
38 1 2.26638 8.5026 8.49995 
39 1 1.55852 9.21223 9.20439 
13 1 6.25374 4.51893 4.55794 
14 1 7.78474 2.9909 2.99252 
15 1 7.08259 3.69169 3.71044 
28 1 10.1177 0.654059 0.672785 
29 1 8.59975 2.17472 2.1802 
30 1 9.30877 1.46444 1.47613 
1 1 6.16188 4.6113 6.14813 
2 1 7.77589 3.00001 7.6196 
3 1 6.87094 3.9096 7.25957 
40 1 10.0483 0.724663 10.0368 
41 1 8.58668 2.19059 8.35925 
42 1 9.26547 1.5098 9.13838 
49 2 6.25515 4.55842 7.95656 
51 3 6.0126 3.39426 9.86179 
7 1 6.16796 6.17473 4.59215 
8 1 7.68708 7.69264 3.08391 
9 1 6.97714 6.98325 3.78878 
43 1 10.0476 10.0415 0.73126 
44 1 8.50654 8.50386 2.27019 
45 1 9.21469 9.21043 1.56305 
22 1 6.2388 6.22854 6.23079 
23 1 7.77809 7.77307 7.77539 
24 1 7.07277 7.06534 7.06764 
34 1 10.1138 10.1042 10.105 
35 1 8.59238 8.59174 8.58927 
36 1 9.30233 9.2975 9.29659 
ITEM: TIMESTEP
160
ITEM: NUMBER OF ATOMS
51
ITEM: BOX BOUNDS pp pp pp
-1.4519857156087158e-02 1.1014519857156102e+01
-1.3609368313568957e-02 1.1015609368313569e+01
-2.1083989397375070e-03 1.1002108398939733e+01
ITEM: ATOMS id type x y z 
10 1 4.59799 4.60511 4.59264 
11 1 3.07824 3.08298 3.08549 
12 1 3.78769 3.7936 3.78906 
46 1 0.727609 0.72098 0.73072 
47 1 2.26494 2.2621 2.27172 
48 1 1.55911 1.55452 1.56411 
19 1 4.54471 4.53442 6.23009 
20 1 3.00049 2.99525 7.77685 
21 1 3.70754 3.69998 7.06865 
31 1 0.665924 0.655331 10.1052 
32 1 2.18099 2.17925 8.5915 