LAMMPS (3 Mar 2020)
# Alpha
clear
units		real
dimension 3
boundary        p p p
atom_style	charge
newton on
read_data       H_23.lmp
  triclinic box = (0 0 0) to (15.77 13.6581 25.747) with tilt (7.8845 0 0)
  2 by 2 by 2 MPI processor grid
  reading atoms ...
  129 atoms
  read_data CPU = 0.00566751 secs

timestep 0.25

# ---------- Define Interatomic Potential ---------------------
pair_style      reax/c NULL checkqeq no
pair_coeff      * * ffield.reax C H
fix             2 all qeq/reax 1 0.0 10.0 1.0e-6 reax/c

#------------ Equilibration of the system -------------------------
reset_timestep 0

dump 1 all custom 10 min.lammpstrj id type x y z

minimize 1.0e-8 1.0e-8 100000 100000
WARNING: Using 'neigh_modify every 1 delay 0 check yes' setting during minimization (../min.cpp:190)
WARNING: Total cutoff < 2*bond cutoff. May need to use an increased neighbor list skin. (../pair_reaxc.cpp:413)
Neighbor list info ...
  update every 1 steps, delay 0 steps, check yes
  max neighbors/atom: 2000, page size: 100000
  master list distance cutoff = 9.5
  ghost atom cutoff = 9.5
  binsize = 4.75, bins = 5 3 6
  2 neighbor lists, perpetual/occasional/extra = 2 0 0
  (1) pair reax/c, perpetual
      attributes: half, newton off, ghost
      pair build: half/bin/newtoff/ghost
      stencil: half/ghost/bin/3d/newtoff
      bin: standard
  (2) fix qeq/reax, perpetual, copy from (1)
      attributes: half, newton off, ghost
      pair build: copy
      stencil: none
      bin: none
Per MPI rank memory allocation (min/avg/max) = 16.27 | 16.82 | 17.41 Mbytes
Step Temp E_pair E_mol TotEng Press 
       0            0    -19442.92            0    -19442.92    65726.259 
     382            0   -21934.059            0   -21934.059     4684.315 
Loop time of 38.8001 on 8 procs for 382 steps with 129 atoms

98.9% CPU use with 8 MPI tasks x no OpenMP threads

Minimization stats:
  Stopping criterion = energy tolerance
  Energy initial, next-to-last, final = 
        -19442.9204043     -21934.0584076     -21934.0586156
  Force two-norm initial, final = 5126.05 40.2224
  Force max component initial, final = 1201.25 10.7394
  Final line search alpha, max atom move = 7.16921e-05 0.000769933
  Iterations, force evaluations = 382 2636

MPI task timing breakdown:
Section |  min time  |  avg time  |  max time  |%varavg| %total
---------------------------------------------------------------
Pair    | 23.462     | 27.114     | 29.584     |  41.3 | 69.88
Neigh   | 0.0017151  | 0.0018797  | 0.0020392  |   0.3 |  0.00
Comm    | 0.36877    | 2.8389     | 6.4841     | 127.7 |  7.32
Output  | 0.0069659  | 0.0088911  | 0.012214   |   1.7 |  0.02
Modify  | 8.7401     | 8.7441     | 8.7489     |   0.1 | 22.54
Other   |            | 0.09261    |            |       |  0.24

Nlocal:    16.125 ave 40 max 0 min
Histogram: 1 2 1 0 2 0 0 0 1 1
Nghost:    473.125 ave 518 max 420 min
Histogram: 1 2 0 1 0 0 0 0 1 3
Neighs:    1127.38 ave 2602 max 0 min
Histogram: 1 2 1 0 1 1 0 0 0 2

Total # of neighbors = 9019
Ave neighs/atom = 69.9147
Neighbor list builds = 1
Dangerous builds = 0

###
min_style cg
minimize 1.0e-8 1.0e-8 100000 100000
WARNING: Using 'neigh_modify every 1 delay 0 check yes' setting during minimization (../min.cpp:190)
WARNING: Total cutoff < 2*bond cutoff. May need to use an increased neighbor list skin. (../pair_reaxc.cpp:413)
Per MPI rank memory allocation (min/avg/max) = 16.27 | 16.82 | 17.41 Mbytes
Step Temp E_pair E_mol TotEng Press 
     382            0   -21934.059            0   -21934.059     4684.315 
     383            0   -21934.059            0   -21934.059    4679.9251 
Loop time of 0.160874 on 8 procs for 1 steps with 129 atoms

98.8% CPU use with 8 MPI tasks x no OpenMP threads

Minimization stats:
  Stopping criterion = energy tolerance
  Energy initial, next-to-last, final = 
        -21934.0586156     -21934.0586156     -21934.0587672
  Force two-norm initial, final = 40.2224 40.0009
  Force max component initial, final = 10.7394 10.6244
  Final line search alpha, max atom move = 7.27459e-05 0.000772883
  Iterations, force evaluations = 1 10

MPI task timing breakdown:
Section |  min time  |  avg time  |  max time  |%varavg| %total
---------------------------------------------------------------
Pair    | 0.10191    | 0.11597    | 0.12602    |   2.4 | 72.09
Neigh   | 0          | 0          | 0          |   0.0 |  0.00
Comm    | 0.0010928  | 0.011178   | 0.025248   |   7.8 |  6.95
Output  | 0          | 0          | 0          |   0.0 |  0.00
Modify  | 0.033001   | 0.033014   | 0.033023   |   0.0 | 20.52
Other   |            | 0.0007077  |            |       |  0.44

Nlocal:    16.125 ave 40 max 0 min
Histogram: 1 2 1 0 2 0 0 0 1 1
Nghost:    471.625 ave 514 max 420 min
Histogram: 2 1 1 0 0 0 0 0 0 4
Neighs:    1127.38 ave 2606 max 0 min
Histogram: 1 1 2 0 1 1 0 0 0 2

Total # of neighbors = 9019
Ave neighs/atom = 69.9147
Neighbor list builds = 0
Dangerous builds = 0

###
fix 1 all box/relax aniso 0.0
min_style cg
minimize 1.0e-8 1.0e-8 100000 100000
WARNING: Using 'neigh_modify every 1 delay 0 check yes' setting during minimization (../min.cpp:190)
WARNING: Total cutoff < 2*bond cutoff. May need to use an increased neighbor list skin. (../pair_reaxc.cpp:413)
Per MPI rank memory allocation (min/avg/max) = 16.27 | 16.82 | 17.41 Mbytes
Step Temp E_pair E_mol TotEng Press Volume 
     383            0   -21934.059            0   -21934.059    4679.9251    5545.5955 
     440            0    -21935.16            0    -21935.16   -1857.3044    5550.2291 
Loop time of 1.64398 on 8 procs for 57 steps with 129 atoms

98.9% CPU use with 8 MPI tasks x no OpenMP threads

Minimization stats:
  Stopping criterion = energy tolerance
  Energy initial, next-to-last, final = 
        -21934.0587672     -21935.1603659     -21935.1603659
  Force two-norm initial, final = 789.85 280.555
  Force max component initial, final = 564.59 172.653
  Final line search alpha, max atom move = 2.01839e-13 3.48482e-11
  Iterations, force evaluations = 57 122

MPI task timing breakdown:
Section |  min time  |  avg time  |  max time  |%varavg| %total
---------------------------------------------------------------
Pair    | 1.1324     | 1.286      | 1.3958     |   7.9 | 78.22
Neigh   | 0          | 0          | 0          |   0.0 |  0.00
Comm    | 0.011123   | 0.12131    | 0.27475    |  25.6 |  7.38
Output  | 0.00087087 | 0.0010745  | 0.0014657  |   0.6 |  0.07
Modify  | 0.22462    | 0.22477    | 0.22494    |   0.0 | 13.67
Other   |            | 0.01088    |            |       |  0.66

Nlocal:    16.125 ave 40 max 0 min
Histogram: 1 2 1 0 2 0 0 0 1 1
Nghost:    471.625 ave 514 max 420 min
Histogram: 2 1 1 0 0 0 0 0 0 4
Neighs:    1127.38 ave 2606 max 0 min
Histogram: 1 1 2 0 1 1 0 0 0 2

Total # of neighbors = 9019
Ave neighs/atom = 69.9147
Neighbor list builds = 0
Dangerous builds = 0

unfix 1
###
min_style cg
minimize 1.0e-8 1.0e-8 100000 100000
WARNING: Using 'neigh_modify every 1 delay 0 check yes' setting during minimization (../min.cpp:190)
WARNING: Total cutoff < 2*bond cutoff. May need to use an increased neighbor list skin. (../pair_reaxc.cpp:413)
Per MPI rank memory allocation (min/avg/max) = 16.27 | 16.82 | 17.41 Mbytes
Step Temp E_pair E_mol TotEng Press 
     440            0    -21935.16            0    -21935.16   -1857.3044 
     598            0   -21940.799            0   -21940.799    2165.3251 
Loop time of 18.2924 on 8 procs for 158 steps with 129 atoms

98.9% CPU use with 8 MPI tasks x no OpenMP threads

Minimization stats:
  Stopping criterion = energy tolerance
  Energy initial, next-to-last, final = 
        -21935.1603659     -21940.7991605     -21940.7992351
  Force two-norm initial, final = 99.9869 66.6292
  Force max component initial, final = 15.6242 18.2559
  Final line search alpha, max atom move = 1.40421e-05 0.000256352
  Iterations, force evaluations = 158 1234

MPI task timing breakdown:
Section |  min time  |  avg time  |  max time  |%varavg| %total
---------------------------------------------------------------
Pair    | 11.589     | 13.003     | 13.984     |  22.6 | 71.09
Neigh   | 0          | 0          | 0          |   0.0 |  0.00
Comm    | 0.14168    | 1.1267     | 2.5413     |  76.8 |  6.16
Output  | 0.0027643  | 0.0033872  | 0.0046077  |   1.0 |  0.02
Modify  | 4.1152     | 4.1166     | 4.1184     |   0.1 | 22.50
Other   |            | 0.04215    |            |       |  0.23

Nlocal:    16.125 ave 40 max 0 min
Histogram: 1 2 1 0 2 0 0 0 1 1
Nghost:    473.875 ave 514 max 425 min
Histogram: 2 1 1 0 0 0 0 0 0 4
Neighs:    1123.88 ave 2597 max 0 min
Histogram: 1 1 2 0 1 1 0 0 0 2

Total # of neighbors = 8991
Ave neighs/atom = 69.6977
Neighbor list builds = 0
Dangerous builds = 0

###
fix 1 all box/relax aniso 0.0
min_style cg
minimize 1.0e-8 1.0e-8 100000 100000
WARNING: Using 'neigh_modify every 1 delay 0 check yes' setting during minimization (../min.cpp:190)
WARNING: Total cutoff < 2*bond cutoff. May need to use an increased neighbor list skin. (../pair_reaxc.cpp:413)
Per MPI rank memory allocation (min/avg/max) = 16.27 | 16.82 | 17.41 Mbytes
Step Temp E_pair E_mol TotEng Press Volume 
     598            0   -21940.799            0   -21940.799    2165.3251    5550.2291 
     625            0   -21941.071            0   -21941.071    1572.0509    5551.5616 
Loop time of 0.955224 on 8 procs for 27 steps with 129 atoms

98.8% CPU use with 8 MPI tasks x no OpenMP threads

Minimization stats:
  Stopping criterion = linesearch alpha is zero
  Energy initial, next-to-last, final = 
        -21940.7992351     -21941.0705284     -21941.0705284
  Force two-norm initial, final = 410.411 233.416
  Force max component initial, final = 312.11 153.243
  Final line search alpha, max atom move = 1.71912e-13 2.63443e-11
  Iterations, force evaluations = 27 70

MPI task timing breakdown:
Section |  min time  |  avg time  |  max time  |%varavg| %total
---------------------------------------------------------------
Pair    | 0.66223    | 0.75027    | 0.81256    |   5.7 | 78.54
Neigh   | 0          | 0          | 0          |   0.0 |  0.00
Comm    | 0.0060242  | 0.068482   | 0.15645    |  19.0 |  7.17
Output  | 0.00051247 | 0.00060799 | 0.00081059 |   0.0 |  0.06
Modify  | 0.12959    | 0.12966    | 0.12974    |   0.0 | 13.57
Other   |            | 0.006205   |            |       |  0.65

Nlocal:    16.125 ave 40 max 0 min
Histogram: 1 2 1 0 2 0 0 0 1 1
Nghost:    473.125 ave 514 max 423 min
Histogram: 2 1 1 0 0 0 0 0 0 4
Neighs:    1123.88 ave 2598 max 0 min
Histogram: 1 2 1 0 1 1 0 0 1 1

Total # of neighbors = 8991
Ave neighs/atom = 69.6977
Neighbor list builds = 0
Dangerous builds = 0

unfix 1
###
min_style cg
minimize 1.0e-8 1.0e-8 100000 100000
WARNING: Using 'neigh_modify every 1 delay 0 check yes' setting during minimization (../min.cpp:190)
WARNING: Total cutoff < 2*bond cutoff. May need to use an increased neighbor list skin. (../pair_reaxc.cpp:413)
Per MPI rank memory allocation (min/avg/max) = 16.27 | 16.82 | 17.41 Mbytes
Step Temp E_pair E_mol TotEng Press 
     625            0   -21941.071            0   -21941.071    1572.0509 
     684            0   -21942.219            0   -21942.219    3086.9721 
Loop time of 7.27885 on 8 procs for 59 steps with 129 atoms

98.8% CPU use with 8 MPI tasks x no OpenMP threads

Minimization stats:
  Stopping criterion = energy tolerance
  Energy initial, next-to-last, final = 
        -21941.0705284      -21942.219162     -21942.2192287
  Force two-norm initial, final = 69.8293 42.3934
  Force max component initial, final = 11.5257 15.8656
  Final line search alpha, max atom move = 0.000502411 0.00797104
  Iterations, force evaluations = 59 489

MPI task timing breakdown:
Section |  min time  |  avg time  |  max time  |%varavg| %total
---------------------------------------------------------------
Pair    | 4.6584     | 5.1943     | 5.5731     |  13.6 | 71.36
Neigh   | 0          | 0          | 0          |   0.0 |  0.00
Comm    | 0.050618   | 0.43092    | 0.96664    |  47.2 |  5.92
Output  | 0.0011036  | 0.0013151  | 0.0017756  |   0.6 |  0.02
Modify  | 1.6347     | 1.6352     | 1.6358     |   0.0 | 22.46
Other   |            | 0.01709    |            |       |  0.23

Nlocal:    16.125 ave 40 max 0 min
Histogram: 1 2 1 0 2 0 0 0 1 1
Nghost:    475.375 ave 514 max 428 min
Histogram: 2 1 0 1 0 0 0 0 0 4
Neighs:    1122.38 ave 2593 max 0 min
Histogram: 1 2 1 0 1 1 0 0 0 2

Total # of neighbors = 8979
Ave neighs/atom = 69.6047
Neighbor list builds = 0
Dangerous builds = 0

undump 1
#############
#----------- Thermo ------------
reset_timestep 0
thermo  200

thermo_style    custom step temp etotal ke pe press
velocity all create 300 12345 mom yes rot yes
fix 1 all npt temp 300 300 25.0 iso 0.0 0.0 250.0

variable vpe equal pe
variable vtemp equal temp
variable vstep equal step

fix output all print 2500 "${vstep} ${vtemp} ${vpe}" file temp-tpdh-Pt.dat screen no

dump 1 all custom 2500 thermo-tpdh-Pt.lammpstrj id type x y z

run 1000000
WARNING: Total cutoff < 2*bond cutoff. May need to use an increased neighbor list skin. (../pair_reaxc.cpp:413)
Per MPI rank memory allocation (min/avg/max) = 15.13 | 15.58 | 16.3 Mbytes
Step Temp TotEng KinEng PotEng Press 
       0          300   -21827.756    114.46311   -21942.219    4029.4761 
     200    216.09673   -21786.803    82.450345   -21869.254    10283.451 
     400    292.54933    -21727.68    111.62035     -21839.3   -7790.9456 
     600    353.04436   -21704.852    134.70185   -21839.554    7779.2638 
     800    266.87702   -21731.575    101.82524   -21833.401    7046.7107 
    1000    288.25557   -21715.358    109.98209    -21825.34     13835.79 
    1200    344.14851   -21706.807    131.30769   -21838.114    2141.0591 
    1400    287.27376    -21731.24    109.60749   -21840.847   -3631.0648 
    1600    266.23943   -21720.778    101.58197    -21822.36   -12266.163 
    1800    331.72543   -21711.175    126.56774   -21837.743   -805.74018 
    2000    289.51309   -21712.497    110.46189   -21822.959   -12580.242 
    2200    363.19519   -21689.349    138.57483   -21827.924    7974.5596 
    2400    302.53259   -21726.829     115.4294   -21842.258   -4296.2114 
    2600    282.68332   -21724.026    107.85604   -21831.883    5196.6633 
    2800     325.6695   -21701.127    124.25714   -21825.385    27094.081 
    3000    259.17904   -21735.653    98.888126   -21834.541   -3034.3803 
    3200    341.12655   -21716.528    130.15468   -21846.683   -6782.3949 
    3400    294.26417   -21728.259    112.27463   -21840.533     5835.838 
    3600     271.6504   -21750.182    103.64649   -21853.829    6205.3968 
    3800    304.09021     -21714.8     116.0237   -21830.823    1489.0173 
    4000    308.30935   -21708.817    117.63348    -21826.45    -13864.23 
    4200    248.60879    -21732.18    94.855116   -21827.035   -1559.1546 
    4400    312.91728   -21712.077    119.39161   -21831.469   -1493.4776 
    4600    327.20356   -21709.965    124.84245   -21834.808    12862.512 
    4800    283.37883    -21721.36     108.1214   -21829.482    5486.1124 
    5000    343.59863   -21690.102    131.09789   -21821.199   -3214.4585 
    5200    332.39295   -21707.894    126.82243   -21834.716   -7292.2501 
    5400    279.97433   -21724.069    106.82244   -21830.891    3597.5234 
    5600     289.2139   -21720.901    110.34774   -21831.249    8623.4353 
    5800     325.4341   -21705.493    124.16733    -21829.66    11688.714 
    6000    338.98204   -21690.809    129.33646   -21820.145   -7360.4096 
    6200    294.96115   -21722.221    112.54056   -21834.762    2229.6273 
    6400    317.31282   -21716.512     121.0687   -21837.581    -12497.02 
    6600    287.06199   -21729.063    109.52669    -21838.59   -17788.832 
    6800    290.25522   -21736.368    110.74505   -21847.113   -1825.3156 
    7000    319.73203   -21708.334    121.99174   -21830.326     16363.34 
    7200    294.10959    -21724.82    112.21566   -21837.035   -4933.0129 
    7400    320.84399   -21701.956      122.416   -21824.372    246.57868 
    7600    286.87541   -21718.015     109.4555    -21827.47    21146.047 
    7800    289.71192   -21725.792    110.53775    -21836.33   -4994.2802 
    8000    291.24344   -21716.691     111.1221   -21827.813    5232.4444 
    8200    338.03452   -21700.709    128.97494   -21829.684   -14024.575 
    8400     280.7925   -21713.646     107.1346   -21820.781   -3074.0309 
    8600    294.15458   -21725.621    112.23282   -21837.854    7832.6872 
    8800    308.13281   -21705.611    117.56613   -21823.177   -4598.0706 
    9000    317.73743   -21711.685    121.23071   -21832.916    2432.8042 
    9200    273.80364   -21730.061    104.46805   -21834.529    1603.0365 
    9400    324.75925   -21703.416    123.90984   -21827.325   -4168.8834 
    9600    318.83646   -21717.028    121.65004   -21838.678    5850.9537 
    9800    283.08335   -21729.551    108.00866    -21837.56    -12009.53 
   10000    315.09545   -21713.167    120.22268    -21833.39   -4384.2856 
   10200    330.17714   -21705.663      125.977    -21831.64    5186.1692 
   10400    281.47138   -21725.131    107.39363   -21832.525    616.51913 
   10600    302.20016   -21716.843    115.30256   -21832.146    -6246.027 
   10800    349.13704   -21685.395    133.21103   -21818.606    19372.721 
   11000    278.74008   -21714.762    106.35152   -21821.114   -13255.469 
   11200    279.04735   -21718.754    106.46875   -21825.223    2701.2666 
   11400    322.76866   -21693.798    123.15035   -21816.948    8311.6785 
   11600    314.40587   -21715.188    119.95958   -21835.148    13148.756 
   11800     273.1462   -21725.084    104.21721   -21829.301   -7368.6103 
   12000    306.40888   -21698.146    116.90837   -21815.054    2185.0933 
   12200    303.74974   -21712.698    115.89379   -21828.591   -4403.9816 
   12400    284.54275   -21728.546    108.56549   -21837.112   -7968.4533 
   12600    320.57571   -21703.172    122.31364   -21825.486    6494.2702 
   12800    282.09429   -21728.794     107.6313   -21836.426   -2443.3386 
   13000    295.62932   -21722.753     112.7955   -21835.549   -2196.8644 
   13200    339.52483    -21709.55    129.54356   -21839.094   -16566.957 
   13400    282.59356    -21737.93    107.82179   -21845.751    1300.7613 
   13600    291.57137   -21722.041    111.24721   -21833.288    4729.4629 
   13800    330.18426   -21703.937    125.97972   -21829.917   -6288.1134 
   14000    277.92292   -21723.571    106.03973   -21829.611   -17331.643 
   14200    294.92207    -21727.29    112.52565   -21839.816    9075.8812 
   14400    315.64488   -21706.875    120.43231   -21827.307   -3513.4483 
   14600    266.15267   -21731.618    101.54887   -21833.167   -29066.019 
   14800    304.82989   -21721.639    116.30592   -21837.945    -10546.18 
   15000    322.72874   -21704.879    123.13511   -21828.014    128.24084 
   15200    261.08601   -21733.713    99.615719   -21833.328   -3085.7844 
   15400    297.32664   -21720.169     113.4431   -21833.612   -10146.925 
   15600    317.92889   -21711.977    121.30376    -21833.28    20268.625 
   15800    282.70191   -21713.028    107.86313   -21820.891   -1535.8144 
   16000    292.46288   -21714.941    111.58736   -21826.529    29552.841 
   16200    289.21808   -21716.314    110.34933   -21826.663    7091.3274 
   16400    298.97611    -21720.26    114.07245   -21834.333   -4475.1437 
   16600    293.76349   -21740.419     112.0836   -21852.503    11995.588 
   16800    281.53083   -21717.318    107.41631   -21824.734   -2468.9426 
   17000    296.38324   -21714.959    113.08315   -21828.042   -20299.446 
   17200    261.34885   -21732.262    99.716002   -21831.978    20633.221 
   17400    272.29764   -21718.255    103.89345   -21822.149   -3679.2025 
   17600    294.87686   -21715.843     112.5084   -21828.351    1651.0456 
   17800      306.666   -21728.264    117.00648   -21845.271   -7640.3896 
   18000    294.32203   -21719.439    112.29671   -21831.736   -1416.8715 
   18200    525.29157   -21713.768    200.42168   -21914.189   -9099.4852 
   18400    366.28821   -21853.729    139.75496   -21993.484   -12410.259 
   18600    304.73496   -21940.609     116.2697   -22056.879   -1886.9901 
   18800    253.70104   -21952.561    96.798029   -22049.359   -19667.092 
   19000    318.27459   -21919.474    121.43566    -22040.91    18371.144 
   19200    276.11287   -21933.759    105.34912   -22039.108   -177.82268 
   19400    277.24924   -21950.531     105.7827   -22056.314   -5042.1379 
   19600    328.00424    -21932.32    125.14795   -22057.468    17445.684 
   19800    323.67853   -21925.514     123.4975   -22049.012    4103.7                                                                                                                                                                                                                                                                                                                                                                                                                                                                                                                                                                                                                                                                                                                                                                                                                                                                                                                                                                                                                                                                                                                                                                                                                                                                                                                                                                                                                                                                                                                                                                                                                                                                                                                                                                                                                                                                                                                                                                                                                                                                                                                                                                                                                                                                                                                                                                                                                                                                                                                                                                                                                                                                                                                                                                                                                                                                                                                                                                                                                                                                                                                                                                                                                                                                                                                                                                                                                                                                                                                                                                                                                                                                                                                                                                                                                                                                                                                                                                                                                                                                                                                                                                                                                                                                                                                                                                                                                                                                                                                                                                                                                                                                                                                                                                                                                                                                                                                                                                                                                                                                                                                                                                                                                                                                                                                                                                                                                                                                                                                                                                                                                                                                                                                                                                                                                                                                                                                                                                                                                                                                                                                                                                                                                                                                                                                                                                                                                                                                                                                                                                                                                                                                                                                                                                                                                                                                                                                                                                                                                                                                                                                                                                                                                                                                                                                                                                                                                                                                                                                                                                                                                                                                                                                                                                                                                                                                                                                                                                                                                                                                                                                                                                                                                                                                                                                                                                                                                                                                                                                                                                                                                                                                                                                                                                                                                                                                                                                                                                                                                                                                                                                                                                                                                                                                                                                                                                                                                                                                                                                                                                                                                                                                                                                                                                                                                                                                                                                                                                                                                                                                                                                                                                                                                                                                                                                                                                                                                                                                                                                                                                                                                                                                                                                                                                                                                                                                                                                                                                                                                                                                                                                                                                                                                                                                                                                                                                                                                                                                                                                                                                                                                                                                                                                                                                                                                                                                                                                                                                                                                                                                                                                                                                                                                                                                                                                                                                                                                                                                                                                                                                                                                                                                                                                                                                                                                                                                                                                                                                                                                                                                                                                                                                                                                                                                                                                                                                                                                                                                                                                                                                                                                                                                                                                                                                                                                                                                                                                                                                                                                                                                                                                                                                                                                                                                                                                                                                                                                                                                                                                                                                                                                                                                                                                                                                                                                                                                                                                                                                                                                                                                                                                                                                                                                                                                                                                                                                                                                                                                                                                                                                                                                                                                                                                                                                                                                                                                                                                                                                                                                                                                                                                                                                                                                                                                                                                                                                                                                                                                                                                                                                                                                                                                                                                                                                                                                                                                                                                                                                                                                                                                                                                                                                                                                                                                                                                                                                                                                                                                                                                                                                                                                                                                                                                                                                                                                                                                                                                                                                                                                                                                                                                                                                                                                                                                                                                                                                                                                                                                                                                                                                                                                                                                                                                                                                                                                                                                                                                                                                                                                                                                                                                                                                                                                                                                                                                                                                                                                                                                                                                                                                                                                                                                                                                                                                                                                                                                                                                                                                                                                                                                                                                                                                                                                                                                                                                                                                                                                                                                                                                                                                                                                                                                                                                                                                                                                                                                                                                                                                                                                                                                                                                                                                                                                                                                                                                                                                                                                                                                                                                                                                                                                                                                                                                                                                                                                                                                                                                                                                                                                                                                                                                                                                                                                                                                                                                                                                                                                                                                                                                                                                                                                                                                                                                                                                                                                                                                                                                                                                                                                                                                                                                                                                                                                                                                                                                                                                                                                                                                                                                                                                                                                                                                                                                                                                                                                                                                                                                                                                                                                                                                                                                                                                                                                                                                                                                                                                                                                                                                                                                                                                                                                                                                                                                                                                                                                                                                                                                                                                                                                                                                                                                                                                                                                                                                                                                                                                                                                                                                                                                                                                                                                                                                                                                                                                                                                                                                                                                                                                                                                                                                                                                                                                                                                                                                                                                                                                                                                                                                                                                                                                                                                                                                                                                                                                                                                                                                                                                                                                                                                                                                                                                                                                                                                                                                                                                                                                                                                                                                                                                                                                                                                                                                                                                                                                                                                                                                                                                                                                                                                                                                                                                                                                                                                                                                                                                                                                                                                                                                                                                                                                                                                                                                                                                                                                                                                                                                                                                                                                                                                                                                                                                                                                                                                                                                                                                                                                                                                                                                                                                                                                                                                                                                                                                                                                                                                                                                                                                                                                                                                                                                                                                                                                                                                                                                                                                                                                                                                                                                                                                                                                                                                                                                                                                                                                                                                                                                                                                                                                                                                                                                                                                                                                                                                                                                                                                                                                                                                                                                                                                                                                                                                                                                                                                                                                                                                                                                                                                                                                                                                                                                                                                                                                                                                                                                                                                                                                                                                                                                                                                                                                                                                                                                                                                                                                                                                                                                                                                                                                                                                                                                                                                                                                                                                                                                                                                                                                                                                                                                                                                                                                                                                                                                                                                                                                                                                                                                                                                                                                                                                                                                                                                                                                                                                                                                                                                                                                                                                                                                                                                                                                                                                                                                                                                                                                                                                                                                                                                                                                                                                                                                                                                                                                                                                                                                                                                                                                                                                                                                                                                                                                                                                                                                                                                                                                                                                                                                                                                                                                                                                                                                                                                                                                                                                                                                                                                                                                                                                                                                                                                                                                                                                                                                                                                                                                                                                                                                                                                                                                                                                                                                                                                                                                                                                                                                                                                                                                                                                                                                                                                                                                                                                                                                                                                                                                                                                                                                                                                                                                                                                                                                                                                                                                                                                                                                                                                                                                                                                                                                                                                                                                                                                                                                                                                                                                                                                                                                                                                                                                                                                                                                                                                                                                                                                                                                                                                                                                                                                                                                                                                                                                                                                                                                                                                                                                                                                                                                                                                                                                                                                                                                                                                                                                                                                                                                                                                                                                                                                                                                                                                                                                                                                                                                                                                                                                                                                                                                                                                                                                                                                                                                                                                                                                                                                                                                                                                                                                                                                                                                                                                                                                                                                                                                                                                                                                                                                                                                                                                                                                                                                                                                                                                                                                                                                                                                                                                                                                                                                                                                                                                                                                                                                                                                                                                                                                                                                                                                                                                                                                                                                                                                                                                                                                                                                                                                                                                                                                                                                                                                                                                                                                                                                                                                                                                                                                                                                                                                                                                                                                                                                                                                                                                                                                                                                                                                                                                                                                                                                                                                                                                                                                                                                                                                                                                                                                                                                                                                                                                                                                                                                                                                                                                                                                                                                                                                                                                                                                                                                                                                                                                                                                                                                                                                                                                                                                                                                                                                                                                                                                                                                                                                                                                                                                                                                                                                                                                                                                                                                                                                                                                                                                                                                                                                                                                                                                                                                                                                                                                                                                                                                                                                                                                                                                                                                                                                                                                                                                                                                                                                                                                                                                                                                                                                                                                                                                                                                                                                                                                                                                                                                                                                                                                                                                                                                                                                                                                                                                                                                                                                                                                                                                                                                                                                                                                                                                                                                                                                                                                                                                                                                                                                                                                                                                                                                                                                                                                                                                                                                                                                                                                                                                                                                                                                                                                                                                                                                                                                                                                                                                                                                                                                                                                                                                                                                                                                                                                                                                                                                                                                                                                                                                                                                                                                                                                                                                                                                                                                                                                                                                                                                                                                                                                                                                                                                                                                                                                                                                                                                                                                                                                                                                                                                                                                                                                                                                                                                                                                                                                                                                                                                                                                                                                                                                                                                                                                                                                                                                                                                                                                                                                                                                                                                                                                                                                                                                                                                                                                                                                                                                                                                                                                                                                                                                                                                                                                                                                                                                                                                                                                                                                                                                                                                                                                                                                                                                                                                                                                                                                                                                                                                                                                                                                                                                                                                                                                                                                                                                                                                                                                                                                                                                                                                                                                                                                                                                                                                                                                                                                                                                                                                                                                                                                                                                                                                                                                                                                                                                                                                                                                                                                                                                                                                                                                                                                                                                                                                                                                                                                                                                                                                                                                                                                                                                                                                                                                                                                                                                                                                                                                                                                                                                                                                                                                                                                                                                                                                                                                                                                                                                                                                                                                                                                                                                                                                                                                                                                                                                                                                                                                                                                                                                                                                                                                                                                                                                                                                                                                                                                                                                                                                                                                                                                                                                                                                                                                                                                                                                                                                                                                                                                                                                                                                                                                                                                                                                                                                                                                                                                                                                                                                                                                                                                                                                                                                                                                                                                                                                                                                                                                                                                                                                                                                                                                                                                                                                                                                                                                                                                                                                                                                                                                                                                                                                                                                                                                                                                                                                                                                                                                                                                                                                                                                                                                                                                                                                                                                                                                                                                                                                                                                                                                                                                                                                                                                                                                                                                                                                                                                                                                                                                                                                                                                                                                                                                                           
[...]
  950000    293.60139   -22337.493    112.02176   -22449.514   -26120.136 
  950200    287.89632   -22355.595    109.84503    -22465.44   -6190.8229 
  950400    299.47409   -22345.804    114.26245   -22460.066    22715.738 
  950600    314.19207   -22334.887      119.878   -22454.765   -25986.498 
  950800     291.6057   -22349.367    111.26031   -22460.627    16700.797 
  951000    322.16504   -22308.629    122.92004   -22431.549   -19857.906 
  951200    288.97331   -22337.925    110.25594   -22448.181    -3377.538 
  951400    310.06801   -22344.225    118.30449   -22462.529   -13880.325 
  951600     301.4812    -22321.71    115.02825   -22436.739    8539.0202 
  951800    314.89562   -22335.312    120.14644   -22455.459    25269.338 
  952000    307.02506   -22343.716    117.14347    -22460.86    14842.059 
  952200    330.08203   -22340.714    125.94071   -22466.655   -3007.7516 
  952400    328.56221   -22322.101    125.36084   -22447.462    18795.495 
  952600     267.4585   -22353.867     102.0471   -22455.914    11095.579 
  952800    285.03675   -22342.123    108.75397   -22450.877    -15719.29 
  953000    333.39126    -22320.98    127.20333   -22448.183   -17634.139 
  953200    332.21033   -22311.241    126.75276   -22437.994   -7237.7343 
  953400    291.74925   -22343.625    111.31508    -22454.94    68.801241 
  953600    304.19422   -22348.595    116.06338   -22464.658   -3233.6671 
  953800    316.74249   -22322.616     120.8511   -22443.467    2459.9016 
  954000    295.34664   -22336.035    112.68764   -22448.722    6314.1816 
  954200    302.64808   -22347.099    115.47347   -22462.572    16618.605 
  954400    288.96222   -22337.074    110.25171   -22447.326   -1892.2488 
  954600    345.53932   -22334.607    131.83835   -22466.445    5702.1855 
  954800    281.67301   -22350.723    107.47056   -22458.193    18271.583 
  955000    311.33629     -22327.2     118.7884   -22445.988    27897.988 
  955200    296.23803   -22334.761    113.02775   -22447.788   -2595.1948 
  955400    290.56132    -22347.18    110.86184   -22458.042    17746.101 
  955600    299.27197   -22332.251    114.18533   -22446.437    539.65229 
  955800    282.36752   -22320.367    107.73554   -22428.103    34207.805 
  956000    316.32251   -22346.886    120.69086   -22467.577   -19128.458 
  956200    277.04223   -22339.369    105.70371   -22445.073    16222.367 
  956400    335.64504   -22324.174    128.06324   -22452.238    30008.306 
  956600    277.90375   -22356.358    106.03242    -22462.39    6469.7327 
  956800    273.85196   -22335.474    104.48649    -22439.96    17218.485 
  957000    285.76099   -22331.771     109.0303   -22440.802   -11802.848 
  957200    273.15703    -22355.19    104.22134   -22459.412    84.414727 
  957400     358.4693   -22329.222     136.7717   -22465.994    27922.264 
  957600    305.12309    -22333.99    116.41779   -22450.408   -11482.919 
  957800    297.06212   -22345.667    113.34218   -22459.009   -4057.0042 
  958000    342.94317   -22316.107     130.8478   -22446.955   -7671.4104 
  958200    305.61411   -22340.883    116.60513   -22457.488   -15746.019 
  958400    301.77555    -22340.49    115.14056   -22455.631    7173.7802 
  958600    348.52795   -22330.741    132.97864    -22463.72    1984.5196 
  958800    309.41468   -22336.342    118.05522   -22454.397    7420.7076 
  959000    263.97364   -22352.069    100.71747   -22452.786    -8988.637 
  959200    287.71803   -22322.442      109.777   -22432.219   -28221.084 
  959400    262.44982   -22337.901    100.13607   -22438.037    25543.992 
  959600    274.24887    -22343.84    104.63792   -22448.478   -7033.1462 
  959800    302.52821   -22339.924    115.42773   -22455.351   -6031.9268 
  960000    318.67582   -22328.328    121.58875   -22449.917    1224.3953 
  960200    310.27017    -22335.58    118.38162   -22453.962   -1157.3125 
  960400    294.60319   -22350.315    112.40399   -22462.719   -17696.903 
  960600    340.34007   -22320.212    129.85461   -22450.067    606.94952 
  960800    279.21133   -22339.303    106.53132   -22445.834   -2237.5358 
  961000    290.21792   -22343.804    110.73081   -22454.535    9116.9246 
  961200    347.24197   -22313.912    132.48798     -22446.4   -9676.7153 
  961400    414.53074   -22282.727    158.16159   -22440.889    45609.759 
  961600    341.30414   -22332.461    130.22244   -22462.683    3931.9208 
  961800      290.515   -22349.943    110.84416   -22460.788   -8219.7611 
  962000    293.70924   -22324.489     112.0629   -22436.552   -8979.3936 
  962200    296.31914   -22339.496     113.0587   -22452.554    2302.7774 
  962400    298.79369   -22346.641    114.00285   -22460.643    3886.2602 
  962600    279.67429    -22326.51    106.70796   -22433.218   -18935.198 
  962800    284.64134   -22344.192    108.60311   -22452.795   -8058.9967 
  963000     292.4547   -22347.949    111.58424   -22459.534     5911.533 
  963200    321.23493   -22331.488    122.56516   -22454.053      994.326 
  963400    326.64001   -22340.438    124.62743   -22465.065   -14911.056 
  963600    295.56917   -22342.119    112.77255   -22454.891   -16557.803 
  963800    305.83481   -22333.966    116.68934   -22450.655   -7232.2727 
  964000    311.50786   -22329.107    118.85386   -22447.961   -22329.703 
  964200    256.84749   -22357.711    97.998537   -22455.709   -8116.8898 
  964400    243.29604    -22344.68    92.828068   -22437.508   -19471.775 
  964600    310.65965   -22335.867    118.53023   -22454.398   -9823.1545 
  964800    320.05152   -22344.791    122.11364   -22466.905    12641.459 
  965000    308.93345   -22334.054    117.87161   -22451.925    6160.1268 
  965200    322.42558    -22328.95    123.01944   -22451.969   -23023.594 
  965400    298.73811   -22353.649    113.98164   -22467.631    -13120.41 
  965600    330.27926   -22334.498    126.01597   -22460.514   -7658.4493 
  965800    323.61521   -22331.805    123.47334   -22455.278    8801.9012 
  966000     316.6377   -22340.453    120.81111   -22461.264   -1107.6673 
  966200     272.8326   -22352.119    104.09756   -22456.217   -5328.6984 
  966400    314.56235   -22333.455    120.01928   -22453.474   -13830.222 
  966600    306.29817    -22333.56    116.86613   -22450.427    29368.837 
  966800    292.94122   -22350.372    111.76987   -22462.142   -2982.1902 
  967000    323.89609   -22330.893    123.58051   -22454.474    6018.9857 
  967200    288.20563   -22336.634    109.96304   -22446.597    51694.301 
  967400    246.78056   -22362.267    94.157565   -22456.424   -469.61643 
  967600    300.89102   -22337.759    114.80307   -22452.562    22314.732 
  967800    318.40729   -22332.897    121.48629   -22454.383    21564.743 
  968000    280.17409   -22349.735    106.89866   -22456.633   -9419.9759 
  968200    319.17871   -22332.046    121.78062   -22453.826    14234.217 
  968400    328.82237   -22331.605     125.4601   -22457.065   -14036.643 
  968600    316.19922    -22340.64    120.64381   -22461.284   -16001.333 
  968800    299.03883   -22341.436    114.09638   -22455.532    2901.0996 
  969000    299.29247   -22334.918    114.19315   -22449.111   -30970.796 
  969200    314.76307   -22334.301    120.09586   -22454.397   -1962.4339 
  969400    279.33788   -22352.809     106.5796   -22459.389    11823.267 
  969600    345.57093   -22317.711    131.85041   -22449.562    428.96564 
  969800    325.22415   -22337.468    124.08722   -22461.555   -9880.5815 
  970000    276.59063   -22348.836    105.53141   -22454.367   -7499.9901 
  970200    345.03786   -22318.087    131.64702   -22449.734   -2314.7488 
  970400    309.93283    -22339.25    118.25292   -22457.503    11651.146 
  970600    287.79534    -22344.51    109.80649   -22454.317   -12376.023 
  970800    336.02613   -22313.784    128.20865   -22441.993    19966.541 
  971000    288.55811   -22333.396    110.09753   -22443.494   -9110.1003 
  971200    293.87495   -22341.824    112.12613    -22453.95     -1801.84 
  971400    302.16256   -22318.597    115.28822   -22433.885    5979.8703 
  971600      337.095   -22330.343    128.61647   -22458.959   -13970.123 
  971800    301.37191   -22343.457    114.98655   -22458.443    -21356.29 
  972000     323.4242   -22332.426    123.40046   -22455.827    2356.3865 
  972200    344.32526   -22315.886    131.37513   -22447.261    33200.019 
  972400    270.51728   -22349.146    103.21416    -22452.36   -3001.4644 
  972600    277.20804   -22337.229    105.76698   -22442.996     1770.199 
  972800    322.17421   -22320.369    122.92354   -22443.293    821.76973 
  973000    299.46401   -22350.489     114.2586   -22464.747    7966.3992 
  973200    342.58326   -22327.745    130.71048   -22458.456    3588.4191 
  973400    273.91619   -22346.278    104.51099   -22450.789   -8359.6985 
  973600     293.7361   -22351.111    112.07315   -22463.184   -2146.7118 
  973800    293.29692   -22339.823    111.90559   -22451.729    7607.8775 
  974000    288.35874   -22339.331    110.02146   -22449.353   -709.92093 
  974200    291.13853   -22360.912    111.08207   -22471.994    21990.783 
  974400    316.63164   -22340.226     120.8088   -22461.035   -933.99942 
  974600     321.2235   -22337.525     122.5608   -22460.086   -11942.863 
  974800    285.59421   -22368.069    108.96667   -22477.036   -10639.162 
  975000    286.49146   -22359.802    109.30901   -22469.111    19489.272 
  975200    313.47638    -22339.31    119.60493   -22458.915   -6703.4534 
  975400    322.49167   -22340.459    123.04466   -22463.503   -4365.0018 
  975600    264.83059   -22360.036    101.04444   -22461.081   -21522.838 
  975800    280.95237   -22334.908     107.1956   -22442.104    2549.4987 
  976000    316.96136   -22339.397     120.9346   -22460.332    -24754.74 
  976200    286.67526   -22361.407    109.37914   -22470.786   -10835.941 
  976400    290.02411   -22334.698    110.65687   -22445.354    300.39008 
  976600    327.59279   -22337.494    124.99096   -22462.485   -4169.0668 
  976800    278.83272   -22348.222    106.38686   -22454.609    25560.983 
  977000     291.6898   -22317.478     111.2924    -22428.77   -28157.771 
  977200    303.87173   -22343.233    115.94034   -22459.174    10896.114 
  977400    303.93744   -22341.873    115.96541   -22457.839   -22077.412 
  977600    328.36111   -22313.855    125.28411   -22439.139   -2972.0241 
  977800    303.11401   -22336.464    115.65124   -22452.116    15338.679 
  978000    259.99269   -22344.187    99.198568   -22443.386    2798.7757 
  978200    337.73487   -22318.813    128.86061   -22447.674   -24196.858 
  978400    288.06214   -22335.935    109.90829   -22445.843   -16839.142 
  978600    271.65178   -22344.402    103.64702   -22448.049   -16406.235 
  978800    341.06628   -22322.029    130.13169    -22452.16    9766.5695 
  979000    304.72713   -22326.047    116.26671   -22442.314   -6162.8146 
  979200    273.98544   -22347.698    104.53742   -22452.236   -11659.113 
  979400    305.33055    -22325.34    116.49694   -22441.836    21169.868 
  979600     297.4007   -22350.789    113.47136    -22464.26   -17102.103 
  979800    286.19287   -22346.434    109.19508   -22455.629    11659.307 
  980000    315.59808   -22329.969    120.41446   -22450.384     41983.38 
  980200    274.48708   -22358.685    104.72881   -22463.414    4503.6079 
  980400    297.26354   -22354.783    113.41903   -22468.203   -5390.6899 
  980600    311.20614   -22335.195    118.73874   -22453.934   -20044.764 
  980800    269.39062   -22342.853    102.78429   -22445.637    28559.761 
  981000    279.93949   -22359.908    106.80914   -22466.717    3330.8138 
  981200    297.77798   -22332.644    113.61531    -22446.26    5178.6634 
  981400    306.47171   -22338.382    116.93235   -22455.314   -3471.8372 
  981600    270.36871   -22362.363    103.15748    -22465.52   -3593.3227 
  981800    291.46796   -22333.338    111.20776   -22444.545    9735.5666 
  982000    300.27205     -22330.9     114.5669   -22445.467    16712.504 
  982200      273.832   -22359.007    104.47887   -22463.486   -6501.7538 
  982400    329.04355   -22324.996    125.54449    -22450.54    803.82084 
  982600    270.06464    -22340.12    103.04146   -22443.161    5910.2477 
  982800    266.85779    -22350.98     101.8179   -22452.798   -9389.7012 
  983000    299.50735   -22321.849    114.27514   -22436.124   -18009.994 
  983200    276.72875   -22342.581    105.58411   -22448.165   -1677.6354 
  983400    290.99268   -22343.755    111.02642   -22454.782    8566.6486 
  983600    315.82899   -22321.222    120.50256   -22441.724    5852.2807 
  983800    324.90571   -22313.586    123.96572   -22437.552    6066.4912 
  984000    278.69353   -22342.216    106.33376    -22448.55     -28508.8 
  984200    281.99727   -22355.276    107.59428    -22462.87   -14803.201 
  984400    296.66447   -22355.178    113.19046   -22468.369   -6610.6017 
  984600    302.66042   -22330.597    115.47817   -22446.075   -10176.781 
  984800    283.89542   -22353.005     108.3185   -22461.324   -33871.736 
  985000    284.84532    -22338.25    108.68093   -22446.931   -894.34151 
  985200    345.57447   -22322.813    131.85176   -22454.665    16137.705 
  985400    265.10739   -22350.609    101.15005   -22451.759   -25676.152 
  985600    297.71567   -22340.045    113.59153   -22453.637   -4120.5721 
  985800    322.03219   -22326.311    122.86935    -22449.18   -3259.7764 
  986000    309.32951   -22344.971    118.02272   -22462.994   -20445.917 
  986200    283.55545   -22336.566    108.18879   -22444.755    5010.0867 
  986400    325.52633   -22311.721    124.20252   -22435.924   -5832.9183 
  986600    311.82453   -22340.769    118.97468   -22459.744    26342.756 
  986800    285.31113   -22344.776    108.85866   -22453.634    5132.1064 
  987000     346.0598     -22318.8    132.03693   -22450.837   -8011.5196 
  987200     277.8203   -22352.058    106.00058   -22458.059   -5810.1034 
  987400    306.71532   -22337.909    117.02529   -22454.935   -14209.788 
  987600    306.69586   -22327.976    117.01787   -22444.994    10692.921 
  987800    283.17284   -22360.698    108.04281   -22468.741    21967.403 
  988000    314.38785   -22342.568     119.9527    -22462.52   -1183.4853 
  988200    323.84967   -22328.804     123.5628   -22452.367    5446.2341 
  988400    251.61199   -22362.615    96.000965   -22458.616    21399.519 
  988600    284.54414   -22354.859    108.56602   -22463.425    24443.354 
  988800    348.70512    -22331.21    133.04624   -22464.257    7423.3927 
  989000    313.77036   -22342.452     119.7171   -22462.169   -14556.783 
  989200    276.02035   -22357.936    105.31382    -22463.25   -1056.6209 
  989400    311.50108    -22336.32    118.85127   -22455.172    32639.337 
  989600    301.08645   -22341.329    114.87763   -22456.207   -5698.2772 
  989800    276.22397   -22366.709    105.39151   -22472.101    1453.4371 
  990000    286.23666   -22340.736    109.21179   -22449.948     843.3753 
  990200     302.9396   -22342.023    115.58469   -22457.607   -4629.9969 
  990400    293.18241   -22358.916     111.8619   -22470.778    17119.849 
  990600     302.1184   -22342.238    115.27137   -22457.509    9886.3319 
  990800     297.9541   -22332.733    113.68251   -22446.415   -448.16038 
  991000    288.87306    -22354.48    110.21769   -22464.697   -21037.943 
  991200    305.04768   -22346.947    116.38902   -22463.336    957.51396 
  991400    313.05896   -22331.846    119.44567   -22451.291    17451.218 
  991600    325.03392   -22329.128    124.01464   -22453.143     19245.55 
  991800    289.65204   -22353.312    110.51491   -22463.827    4165.4877 
  992000    307.30936   -22329.326    117.25195   -22446.578   -1435.8711 
  992200    290.70366   -22340.707    110.91615   -22451.623    24042.605 
  992400    241.99536    -22375.25    92.331803   -22467.582    15587.397 
  992600    268.28604   -22349.513    102.36285   -22451.875   -8679.3785 
  992800    338.59964   -22332.424    129.19056   -22461.615    6581.4713 
  993000    289.36853    -22355.71    110.40673   -22466.117    1130.3471 
  993200      268.667   -22351.579     102.5082   -22454.087    7839.3797 
  993400    317.79919   -22337.623    121.25427   -22458.878   -1272.6836 
  993600    299.87293   -22342.192    114.41462   -22456.607   -25330.394 
  993800    249.98865   -22356.857    95.381592   -22452.239    29010.694 
  994000    320.53336    -22331.22    122.29748   -22453.518   -4109.9129 
  994200    273.14226   -22346.974    104.21571    -22451.19   -1845.5984 
  994400    297.41862    -22362.92     113.4782   -22476.398   -11976.174 
  994600     317.0283   -22335.712    120.96014   -22456.672   -9953.0433 
  994800    294.70443   -22336.642    112.44261   -22449.084    6031.7209 
  995000     260.3008   -22364.715    99.316125   -22464.032    4465.6405 
  995200    294.81466    -22337.79    112.48467   -22450.275    12046.621 
  995400    312.12034   -22344.272    119.08755   -22463.359    19260.481 
  995600    290.77082   -22354.724    110.94177   -22465.666    8225.3305 
  995800    323.08829   -22338.352     123.2723   -22461.624    -622.7678 
  996000    280.96054   -22337.651    107.19872    -22444.85   -2906.3033 
  996200    296.74334   -22341.085    113.22055   -22454.306    223.03977 
  996400    269.72002     -22356.9    102.90997    -22459.81    -4349.715 
  996600    325.67099   -22326.375    124.25771   -22450.633   -14331.778 
  996800    288.04739   -22335.226    109.90266   -22445.129     6758.429 
  997000    256.74483   -22364.243    97.959367   -22462.202   -19799.041 
  997200    272.64047   -22344.492    104.02425   -22448.516   -4294.6012 
  997400    309.17408   -22335.968    117.96342   -22453.932   -18665.866 
  997600    283.93351   -22355.954    108.33304   -22464.287    3004.8687 
  997800    304.75167   -22334.084    116.27608    -22450.36   -7863.0352 
  998000    307.42479   -22334.329    117.29599   -22451.625   -9787.6068 
  998200    283.23107   -22353.064    108.06503   -22461.129    25420.442 
  998400    328.20109   -22333.028    125.22305   -22458.252   -3762.2203 
  998600    327.42897   -22316.932    124.92846    -22441.86    12196.478 
  998800    258.60633   -22349.083    98.669611   -22447.753    5584.3741 
  999000     291.1648   -22337.851    111.09209   -22448.943    1689.7076 
  999200    345.54198   -22318.704    131.83936   -22450.543   -7493.5974 
  999400    287.38949   -22340.959    109.65165    -22450.61    10764.453 
  999600    311.07982   -22337.498    118.69054   -22456.188   -14477.996 
  999800    330.58852   -22317.226    126.13396    -22443.36     7760.269 
 1000000    301.42108   -22341.311    115.00531   -22456.316   -18654.928 
Loop time of 3687.27 on 8 procs for 1000000 steps with 129 atoms

Performance: 5.858 ns/day, 4.097 hours/ns, 271.204 timesteps/s
99.4% CPU use with 8 MPI tasks x no OpenMP threads

MPI task timing breakdown:
Section |  min time  |  avg time  |  max time  |%varavg| %total
---------------------------------------------------------------
Pair    | 2785.2     | 3005.3     | 3204.1     | 266.2 | 81.50
Neigh   | 0.38872    | 0.40422    | 0.41841    |   1.5 |  0.01
Comm    | 39.276     | 238.11     | 457.8      | 945.5 |  6.46
Output  | 0.089097   | 0.097882   | 0.15148    |   6.5 |  0.00
Modify  | 440.21     | 440.88     | 441.51     |   2.0 | 11.96
Other   |            | 2.494      |            |       |  0.07

Nlocal:    16.125 ave 36 max 1 min
Histogram: 2 0 0 3 1 0 0 0 0 2
Nghost:    528.875 ave 541 max 506 min
Histogram: 1 1 0 0 0 0 1 1 2 2
Neighs:    976.875 ave 2083 max 70 min
Histogram: 2 0 0 3 1 0 0 0 0 2

Total # of neighbors = 7815
Ave neighs/atom = 60.5814
Neighbor list builds = 735
Dangerous builds = 0

unfix 1
unfix output
undump 1

Please see the log.cite file for references relevant to this simulation

Total wall time: 1:01:44
