ITEM: TIMESTEP
0
ITEM: NUMBER OF ATOMS
129
ITEM: BOX BOUNDS xy xz yz pp pp pp
0.0000000000000000e+00 2.3654499999999999e+01 7.8845000000000001e+00
0.0000000000000000e+00 1.3658086643083999e+01 0.0000000000000000e+00
0.0000000000000000e+00 2.5747000000000000e+01 0.0000000000000000e+00
ITEM: ATOMS id type x y z 
18 1 10.522 6.683 2.644 
28 1 5.247 4.273 12.803 
31 1 9.65 6.514 0.446 
62 1 9.171 5.15 12.405 
91 1 9.65 6.514 11.889 
92 1 10.81 6.18 11.007 
106 1 10.522 6.683 9.691 
127 1 10.81 6.18 1.328 
4 1 4.402 5.735 13.319 
5 1 3.307 5.568 14.201 
43 1 4.549 6.796 15.517 
52 1 9.172 5.15 25.677 
66 1 4.402 5.735 24.762 
67 1 5.003 6.76 23.881 
88 1 5.247 4.273 25.278 
107 1 3.307 5.568 23.881 
116 1 4.549 6.796 22.565 
117 1 5.003 6.76 14.201 
11 1 11.272 7.494 3.321 
12 1 10.477 8.871 4.018 
14 1 9.018 11.397 0.446 
15 1 10.114 11.565 1.328 
16 1 8.412 9.024 0.654 
19 1 10.477 8.871 5.569 
29 1 10.927 10.156 3.321 
32 1 8.77 7.648 1.328 
35 1 12.036 9.594 2.644 
45 1 9.231 8.963 3.321 
47 1 12.762 8.702 0.446 
49 1 11.224 11 0.654 
51 1 8.872 10.337 2.644 
53 1 11.272 7.494 9.014 
54 1 10.477 8.871 8.317 
56 1 9.018 11.397 11.889 
57 1 8.418 10.372 11.007 
58 1 11.224 11 11.681 
60 1 12.255 7.901 9.691 
61 1 10.477 8.871 6.766 
73 1 9.231 8.963 9.014 
75 1 12.762 8.702 11.889 
76 1 12.202 10.061 11.007 
79 1 9.224 7.617 9.691 
80 1 8.174 12.859 12.405 
89 1 10.927 10.156 9.014 
93 1 8.412 9.024 11.681 
95 1 9.951 11.095 9.691 
105 1 10.114 11.565 11.007 
109 1 8.77 7.648 11.007 
110 1 12.036 9.594 9.691 
114 1 8.872 10.337 9.691 
119 1 8.418 10.372 1.328 
120 1 12.255 7.901 2.644 
123 1 12.202 10.061 1.328 
124 1 9.224 7.617 2.644 
128 1 9.951 11.095 2.644 
6 1 5.009 8.108 13.527 
13 1 9.663 10.28 25.128 
17 1 9.204 8.965 25.162 
30 1 10.016 7.556 25.128 
34 1 11.289 7.464 25.162 
36 1 8.174 12.859 25.677 
46 1 11.752 8.777 25.128 
50 1 10.937 10.184 25.162 
55 1 9.663 10.28 12.954 
59 1 10.937 10.184 12.919 
74 1 11.752 8.777 12.954 
78 1 11.289 7.464 12.919 
90 1 10.016 7.556 12.954 
94 1 9.204 8.965 12.919 
101 1 5.009 8.108 24.555 
33 1 11.795 6.589 0.654 
77 1 11.795 6.589 11.681 
41 1 17.967 6.132 13.527 
68 1 17.967 6.132 24.554 
103 1 19.24 6.037 22.565 
126 1 19.24 6.037 15.517 
129 2 17.474 5.161 13.576 
3 1 19.528 6.852 12.254 
7 1 19.987 8.167 12.289 
10 1 15.106 8.528 12.804 
22 1 19.175 9.576 12.254 
26 1 17.902 9.668 12.289 
38 1 17.439 8.356 12.254 
42 1 18.254 6.949 12.289 
44 1 20.019 11.982 12.804 
48 1 12.546 7.4 1.328 
65 1 19.528 6.852 0.081 
69 1 18.254 6.949 0.046 
82 1 17.439 8.356 0.081 
86 1 17.902 9.668 0.046 
96 1 14.084 8.604 12.405 
98 1 19.175 9.576 0.081 
102 1 19.987 8.167 0.046 
113 1 12.546 7.4 11.007 
1 1 17.919 9.638 16.194 
2 1 18.714 8.261 16.892 
8 1 18.669 10.449 15.517 
9 1 18.714 8.261 18.442 
20 1 14.084 8.604 25.677 
21 1 18.264 6.977 16.194 
23 1 19.541 10.618 13.32 
24 1 20.421 9.484 14.201 
25 1 17.396 10.544 13.527 
27 1 17.155 7.538 15.517 
37 1 19.96 8.169 16.194 
39 1 16.429 8.43 13.319 
40 1 16.644 9.732 14.201 
63 1 17.919 9.638 21.888 
64 1 18.714 8.261 21.19 
70 1 16.936 9.231 22.565 
71 1 18.714 8.261 19.64 
72 1 20.019 11.982 25.278 
81 1 19.96 8.169 21.888 
83 1 16.429 8.43 24.762 
84 1 16.989 7.071 23.881 
85 1 17.396 10.544 24.555 
87 1 19.967 9.515 22.565 
97 1 18.263 6.977 21.888 
99 1 19.541 10.618 24.762 
100 1 18.38 10.953 23.881 
104 1 15.106 8.528 25.278 
108 1 18.669 10.449 22.565 
111 1 20.421 9.484 23.881 
112 1 17.155 7.538 22.565 
115 1 16.644 9.732 23.881 
118 1 16.936 9.231 15.517 
121 1 16.989 7.071 14.201 
122 1 19.967 9.515 15.517 
125 1 18.38 10.953 14.201 
ITEM: TIMESTEP
10
ITEM: NUMBER OF ATOMS
129
ITEM: BOX BOUNDS xy xz yz pp pp pp
0.0000000000000000e+00 2.3654499999999999e+01 7.8845000000000001e+00
0.0000000000000000e+00 1.3658086643083999e+01 0.0000000000000000e+00
0.0000000000000000e+00 2.5747000000000000e+01 0.0000000000000000e+00
ITEM: ATOMS id type x y z 
18 1 10.3933 6.7277 2.6511 
28 1 5.18059 4.40699 12.8439 
31 1 9.46571 6.48543 0.421892 
62 1 9.15884 5.23028 12.3819 
91 1 9.46886 6.48185 11.9106 
92 1 10.8316 6.16022 10.9982 
106 1 10.3902 6.71587 9.67611 
127 1 10.8353 6.168 1.34647 
4 1 4.43836 5.75111 13.2869 
5 1 3.3144 5.57021 14.2356 
43 1 4.57599 6.92989 15.505 
52 1 9.15859 5.22735 25.699 
66 1 4.44804 5.77657 24.8164 
67 1 5.05193 6.87582 23.9079 
88 1 5.17977 4.41045 25.2356 
107 1 3.22156 5.56867 23.8837 
116 1 4.57817 6.90987 22.5823 
117 1 5.07138 6.88255 14.1799 
11 1 11.3254 7.55401 3.3433 
12 1 10.4908 8.85062 4.09106 
14 1 8.99472 11.3422 0.378779 
15 1 10.1794 11.5753 1.33281 
16 1 8.45878 8.94837 0.700422 
19 1 10.4744 8.86922 5.55814 
29 1 10.9542 10.1412 3.32883 
32 1 8.76118 7.7141 1.294 
35 1 12.0125 9.57252 2.58182 
45 1 9.2222 8.9583 3.26588 
47 1 12.7655 8.72941 0.521692 
49 1 11.2797 10.987 0.676137 
51 1 8.84786 10.2171 2.63538 
53 1 11.334 7.55831 8.98585 
54 1 10.4893 8.85801 8.24898 
56 1 8.99292 11.3504 11.9293 
57 1 8.36026 10.269 11.0374 
58 1 11.3047 10.9352 11.6849 
60 1 12.2543 8.01094 9.63716 
61 1 10.4749 8.87073 6.77794 
73 1 9.22164 8.96038 9.07226 
75 1 12.7425 8.77119 11.8023 
76 1 12.2128 10.0447 11.0122 
79 1 9.22677 7.66078 9.76166 
80 1 8.24735 12.7122 12.3601 
89 1 10.942 10.1457 9.00851 
93 1 8.44492 8.95024 11.6253 
95 1 10.0177 11.0665 9.68217 
105 1 10.1855 11.561 11.008 
109 1 8.75697 7.70553 11.0369 
110 1 12.0279 9.58245 9.74963 
114 1 8.8509 10.2135 9.70735 
119 1 8.34667 10.2615 1.29692 
120 1 12.2558 8.01522 2.6889 
123 1 12.1731 10.0506 1.24458 
124 1 9.23431 7.6515 2.56801 
128 1 10.0203 11.0734 2.65487 
6 1 4.97995 8.18356 13.5823 
13 1 9.56926 10.3077 25.1625 
17 1 9.19104 8.96401 25.1866 
30 1 9.95655 7.67195 25.1012 
34 1 11.3082 7.47226 25.1342 
36 1 8.24347 12.7186 25.7196 
46 1 11.7015 8.78825 25.0814 
50 1 11.0552 10.1269 25.2556 
55 1 9.60893 10.3068 12.9555 
59 1 10.9953 10.1116 12.8822 
74 1 11.6802 8.84163 12.989 
78 1 11.3102 7.48924 12.9497 
90 1 9.9492 7.66411 12.9835 
94 1 9.18335 8.94998 12.9011 
101 1 4.97569 8.17487 24.4878 
33 1 11.7602 6.56723 0.661447 
77 1 11.7523 6.56083 11.6861 
41 1 17.833 6.11165 13.561 
68 1 17.8943 6.19356 24.5343 
103 1 19.1748 6.06131 22.5492 
126 1 19.1858 6.05102 15.5444 
129 2 17.4112 5.10828 13.5448 
3 1 19.5927 6.81044 12.2554 
7 1 19.9664 8.16907 12.2924 
10 1 15.1426 8.48535 12.8348 
22 1 19.2288 9.48589 12.2306 
26 1 17.8852 9.66658 12.2605 
38 1 17.5161 8.32243 12.1981 
42 1 18.264 7.0704 12.2204 
44 1 20.0336 11.9106 12.8244 
48 1 12.5919 7.50824 1.36973 
65 1 19.6338 6.77255 0.0762905 
69 1 18.2426 7.05372 0.00140613 
82 1 17.5099 8.33544 0.125177 
86 1 17.8813 9.67277 0.0912034 
96 1 14.0448 8.64735 12.3769 
98 1 19.2176 9.47177 0.087076 
102 1 19.9222 8.14735 0.0417485 
113 1 12.607 7.50507 10.9615 
1 1 17.8686 9.58452 16.2127 
2 1 18.7033 8.26725 16.9564 
8 1 18.7987 10.3976 15.5169 
9 1 18.7163 8.25824 18.4285 
20 1 14.0483 8.64051 25.7036 
21 1 18.2502 6.97933 16.2089 
23 1 19.7269 10.6511 13.2953 
24 1 20.4293 9.41906 14.169 
25 1 17.4299 10.5677 13.5374 
27 1 17.1504 7.55744 15.472 
37 1 19.9777 8.17725 16.1382 
39 1 16.4391 8.3567 13.4315 
40 1 16.6003 9.63361 14.2486 
63 1 17.8479 9.56892 21.861 
64 1 18.6966 8.28151 21.1162 
70 1 16.9331 9.12592 22.5241 
71 1 18.7164 8.264 19.6488 
72 1 20.0317 11.9052 25.2557 
81 1 19.9723 8.17693 21.9464 
83 1 16.4313 8.38721 24.6699 
84 1 16.9997 7.07657 23.9105 
85 1 17.4201 10.5693 24.5428 
87 1 19.9689 9.47291 22.6414 
97 1 18.2452 6.98987 21.8745 
99 1 19.722 10.6382 24.7935 
100 1 18.3565 10.9741 23.8742 
104 1 15.1456 8.49292 25.247 
108 1 18.8052 10.4196 22.5441 
111 1 20.4253 9.41288 23.9217 
112 1 17.1644 7.54928 22.6338 
115 1 16.5976 9.6166 23.8379 
118 1 16.9302 9.15105 15.5586 
121 1 16.9554 7.13613 14.2025 
122 1 19.945 9.48657 15.4498 
125 1 18.3521 10.9595 14.2272 
ITEM: TIMESTEP
20
ITEM: NUMBER OF ATOMS
129
ITEM: BOX BOUNDS xy xz yz pp pp pp
0.0000000000000000e+00 2.3654499999999999e+01 7.8845000000000001e+00
0.0000000000000000e+00 1.3658086643083999e+01 0.0000000000000000e+00
0.0000000000000000e+00 2.5747000000000000e+01 0.0000000000000000e+00
ITEM: ATOMS id type x y z 
18 1 10.3939 6.74318 2.64139 
28 1 5.16396 4.44358 12.8541 
31 1 9.45954 6.49973 0.421512 
62 1 9.14881 5.2417 12.3797 
91 1 9.46091 6.49773 11.9085 
92 1 10.8228 6.17706 10.9813 
106 1 10.3936 6.7424 9.69462 
127 1 10.8211 6.1762 1.35716 
4 1 4.44481 5.76934 13.2888 
5 1 3.30002 5.57954 14.2324 
43 1 4.58022 6.94096 15.4963 
52 1 9.14957 5.2429 25.7027 
66 1 4.44074 5.7767 24.8075 
67 1 5.05721 6.88974 23.9019 
88 1 5.16519 4.44304 25.2268 
107 1 3.21547 5.59535 23.884 
116 1 4.57178 6.92917 22.5816 
117 1 5.06924 6.89747 14.1805 
11 1 11.3224 7.55984 3.34287 
12 1 10.4808 8.85716 4.08306 
14 1 8.99032 11.3301 0.390241 
15 1 10.1869 11.5626 1.33366 
16 1 8.44094 8.94584 0.709933 
19 1 10.4734 8.86891 5.55979 
29 1 10.9508 10.1346 3.32259 
32 1 8.75492 7.70089 1.29164 
35 1 12.0106 9.58458 2.57204 
45 1 9.23328 8.9506 3.26404 
47 1 12.7444 8.74099 0.512267 
49 1 11.2904 10.9887 0.68038 
51 1 8.85078 10.2004 2.62373 
53 1 11.3244 7.5559 8.9921 
54 1 10.4813 8.86217 8.25231 
56 1 8.99581 11.3438 11.9244 
57 1 8.3595 10.2566 11.0332 
58 1 11.3162 10.9399 11.6757 
60 1 12.2547 8.00505 9.63825 
61 1 10.4738 8.87063 6.77684 
73 1 9.22676 8.95003 9.07256 
75 1 12.7247 8.77468 11.7947 
76 1 12.2207 10.0465 11.0171 
79 1 9.23368 7.65591 9.76766 
80 1 8.26422 12.6761 12.3501 
89 1 10.9418 10.1415 9.00552 
93 1 8.43033 8.93759 11.6232 
95 1 10.0256 11.0667 9.68446 
105 1 10.195 11.5362 11.015 
109 1 8.75401 7.69641 11.0378 
110 1 12.0327 9.59485 9.74577 
114 1 8.85225 10.2014 9.71422 
119 1 8.35432 10.2464 1.30375 
120 1 12.2518 8.02236 2.69803 
123 1 12.1857 10.0477 1.26049 
124 1 9.23385 7.65858 2.56621 
128 1 10.0269 11.0635 2.65524 
6 1 4.98834 8.19315 13.5866 
13 1 9.60082 10.2971 25.1548 
17 1 9.18446 8.94722 25.1767 
30 1 9.94373 7.68601 25.0997 
34 1 11.2971 7.48636 25.1239 
36 1 8.25849 12.6851 25.727 
46 1 11.7046 8.80039 25.1052 
50 1 11.0458 10.1247 25.2415 
55 1 9.61492 10.2916 12.9671 
59 1 10.9948 10.1161 12.8824 
74 1 11.6797 8.8404 12.9813 
78 1 11.2937 7.50455 12.9477 
90 1 9.94344 7.67955 12.986 
94 1 9.18231 8.93973 12.9054 
101 1 4.98131 8.18484 24.4948 
33 1 11.7543 6.57127 0.672038 
77 1 11.7494 6.57929 11.671 
41 1 17.8233 6.11318 13.5567 
68 1 17.8896 6.19105 24.5267 
103 1 19.1621 6.06659 22.5538 
126 1 19.1831 6.06289 15.5515 
129 2 17.3929 5.09948 13.5343 
3 1 19.5877 6.81432 12.255 
7 1 19.973 8.1824 12.287 
10 1 15.1451 8.47763 12.8377 
22 1 19.2394 9.47639 12.2322 
26 1 17.8946 9.65052 12.2565 
38 1 17.5228 8.31283 12.2088 
42 1 18.2497 7.07349 12.2313 
44 1 20.0429 11.8972 12.8276 
48 1 12.5875 7.51573 1.37619 
65 1 19.623 6.77897 0.0910097 
69 1 18.231 7.04449 0.0151944 
82 1 17.508 8.33419 0.110713 
86 1 17.8864 9.6595 0.0927296 
96 1 14.042 8.65422 12.3733 
98 1 19.2276 9.45973 0.0885327 
102 1 19.9487 8.16782 0.0411695 
113 1 12.5851 7.51765 10.9601 
1 1 17.8685 9.57733 16.2177 
2 1 18.7071 8.26201 16.9547 
8 1 18.7998 10.3929 15.5145 
9 1 18.7175 8.25876 18.4309 
20 1 14.0442 8.64753 25.7066 
21 1 18.2522 6.98958 16.208 
23 1 19.7339 10.6341 13.2946 
24 1 20.4337 9.42476 14.1651 
25 1 17.4339 10.562 13.5409 
27 1 17.1526 7.53949 15.468 
37 1 19.969 8.18482 16.1399 
39 1 16.4599 8.3479 13.4273 
40 1 16.603 9.62434 14.2515 
63 1 17.8653 9.57493 21.865 
64 1 18.7086 8.2724 21.1267 
70 1 16.9351 9.12268 22.5128 
71 1 18.7171 8.26368 19.6472 
72 1 20.0416 11.8943 25.2543 
81 1 19.9598 8.18419 21.9469 
83 1 16.4498 8.36774 24.6766 
84 1 16.9887 7.0771 23.9047 
85 1 17.4336 10.5646 24.5335 
87 1 19.9569 9.47507 22.6401 
97 1 18.2489 6.99739 21.879 
99 1 19.7294 10.6253 24.793 
100 1 18.3684 10.9573 23.8516 
104 1 15.1486 8.48556 25.2445 
108 1 18.7998 10.3884 22.5671 
111 1 20.4318 9.42237 23.9228 
112 1 17.1656 7.53481 22.6286 
115 1 16.6023 9.61588 23.832 
118 1 16.9282 9.1463 15.572 
121 1 16.9585 7.13248 14.2053 
122 1 19.9568 9.48025 15.4373 
125 1 18.3666 10.9556 14.2308 
ITEM: TIMESTEP
30
ITEM: NUMBER OF ATOMS
129
ITEM: BOX BOUNDS xy xz yz pp pp pp
0.0000000000000000e+00 2.3654499999999999e+01 7.8845000000000001e+00
0.0000000000000000e+00 1.3658086643083999e+01 0.0000000000000000e+00
0.0000000000000000e+00 2.5747000000000000e+01 0.0000000000000000e+00
ITEM: ATOMS id type x y z 
18 1 10.3903 6.75894 2.64365 
28 1 5.13647 4.50835 12.8712 
31 1 9.4375 6.52295 0.418901 
62 1 9.12465 5.25656 12.3781 
91 1 9.43693 6.52075 11.9116 
92 1 10.8126 6.18943 10.9771 
106 1 10.3891 6.75507 9.69416 
127 1 10.8088 6.18541 1.36116 
4 1 4.44376 5.79122 13.2896 
5 1 3.27212 5.60814 14.2373 
43 1 4.5832 6.95718 15.491 
52 1 9.12596 5.25946 25.7044 
66 1 4.43932 5.79228 24.8066 
67 1 5.0621 6.91619 23.8942 
88 1 5.13706 4.50704 25.2093 
107 1 3.19812 5.62273 23.8827 
116 1 4.56587 6.94388 22.593 
117 1 5.08282 6.93008 14.1877 
11 1 11.3207 7.5774 3.35225 
12 1 10.4823 8.85507 4.09018 
14 1 8.98813 11.3118 0.39446 
15 1 10.201 11.5497 1.33827 
16 1 8.41105 8.9291 0.706347 
19 1 10.4713 8.86834 5.5598 
29 1 10.9552 10.1334 3.32496 
32 1 8.72632 7.68169 1.28532 
35 1 12.0174 9.5896 2.57253 
45 1 9.2294 8.94105 3.26928 
47 1 12.7209 8.74775 0.512758 
49 1 11.3088 11.0089 0.682793 
51 1 8.85613 10.1868 2.61364 
53 1 11.3232 7.57119 8.98249 
54 1 10.4781 8.86169 8.24693 
56 1 8.99119 11.3267 11.929 
57 1 8.35697 10.2265 11.0272 
58 1 11.3401 10.9457 11.678 
60 1 12.2607 8.01927 9.62182 
61 1 10.4712 8.8703 6.77723 
73 1 9.22595 8.94194 9.0698 
75 1 12.7024 8.79141 11.7895 
76 1 12.2474 10.0582 11.0096 
79 1 9.22416 7.65443 9.77195 
80 1 8.29573 12.6066 12.3313 
89 1 10.9452 10.1393 8.99918 
93 1 8.39716 8.92343 11.6284 
95 1 10.03 11.0593 9.68524 
105 1 10.2166 11.5057 11.0162 
109 1 8.72928 7.67721 11.0454 
110 1 12.0433 9.60635 9.73437 
114 1 8.8587 10.1898 9.72544 
119 1 8.34674 10.2183 1.30854 
120 1 12.2524 8.04149 2.71096 
123 1 12.2036 10.0604 1.25414 
124 1 9.22526 7.65618 2.56073 
128 1 10.0273 11.0551 2.65495 
6 1 5.01238 8.20674 13.5768 
13 1 9.62933 10.2689 25.1459 
17 1 9.16143 8.94113 25.1649 
30 1 9.93174 7.70643 25.0844 
34 1 11.2738 7.48858 25.118 
36 1 8.28999 12.6127 25.743 
46 1 11.7149 8.79543 25.1142 
50 1 11.0536 10.1543 25.2438 
55 1 9.62415 10.2637 12.9841 
59 1 10.9932 10.1318 12.8826 
74 1 11.6798 8.84617 12.9779 
78 1 11.2721 7.51738 12.9486 
90 1 9.92905 7.70112 13 
94 1 9.16944 8.93522 12.9158 
101 1 5.00366 8.19738 24.5037 
33 1 11.7407 6.59089 0.683434 
77 1 11.7366 6.60241 11.6636 
41 1 17.8128 6.09704 13.5459 
68 1 17.8727 6.19875 24.5353 
103 1 19.1595 6.07446 22.5542 
126 1 19.1827 6.07326 15.545 
129 2 17.3605 5.08654 13.5137 
3 1 19.5727 6.83453 12.2457 
7 1 19.9882 8.1901 12.2753 
10 1 15.1468 8.46489 12.8429 
22 1 19.2528 9.46058 12.2239 
26 1 17.9128 9.6395 12.2564 
38 1 17.5189 8.30378 12.2196 
42 1 18.2408 7.05597 12.2511 
44 1 20.067 11.8846 12.8283 
48 1 12.5769 7.53117 1.38376 
65 1 19.603 6.80431 0.108817 
69 1 18.2322 7.02404 0.0323539 
82 1 17.5028 8.32393 0.094231 
86 1 17.9005 9.64769 0.0905051 
96 1 14.0473 8.66584 12.3709 
98 1 19.2415 9.4454 0.0984966 
102 1 19.9777 8.17135 0.0513807 
113 1 12.5707 7.53613 10.9529 
1 1 17.8673 9.56645 16.2264 
2 1 18.7067 8.26393 16.9621 
8 1 18.804 10.3793 15.5147 
9 1 18.7195 8.25963 18.4327 
20 1 14.0498 8.66041 25.7073 
21 1 18.2515 6.99653 16.2139 
23 1 19.7538 10.6122 13.288 
24 1 20.4612 9.44353 14.1576 
25 1 17.4477 10.5419 13.5496 
27 1 17.1476 7.52057 15.4681 
37 1 19.9685 8.1953 16.1426 
39 1 16.4904 8.33557 13.428 
40 1 16.6153 9.60051 14.2573 
63 1 17.8653 9.55931 21.8561 
64 1 18.7106 8.2738 21.1196 
70 1 16.9305 9.10922 22.4982 
71 1 18.7192 8.26317 19.6495 
72 1 20.0648 11.8794 25.254 
81 1 19.9642 8.19207 21.9398 
83 1 16.479 8.34813 24.6765 
84 1 16.96 7.06816 23.8944 
85 1 17.4456 10.5425 24.5265 
87 1 19.9675 9.47636 22.6465 
97 1 18.2432 6.9952 21.8725 
99 1 19.7532 10.6033 24.798 
100 1 18.3768 10.9446 23.847 
104 1 15.1492 8.47297 25.2415 
108 1 18.8031 10.3762 22.5662 
111 1 20.4582 9.44269 23.9293 
112 1 17.152 7.52636 22.6184 
115 1 16.6193 9.59983 23.824 
118 1 16.9232 9.13319 15.589 
121 1 16.9499 7.12879 14.2065 
122 1 19.9672 9.48075 15.434 
125 1 18.3774 10.9442 14.2344 
ITEM: TIMESTEP
40
ITEM: NUMBER OF ATOMS
129
ITEM: BOX BOUNDS xy xz yz pp pp pp
0.0000000000000000e+00 2.3654499999999999e+01 7.8845000000000001e+00
0.0000000000000000e+00 1.3658086643083999e+01 0.0000000000000000e+00
0.0000000000000000e+00 2.5747000000000000e+01 0.0000000000000000e+00
ITEM: ATOMS id type x y z 
18 1 10.3774 6.79538 2.65131 
28 1 5.09937 4.61792 12.8968 
31 1 9.37978 6.56354 0.414177 
62 1 9.05146 5.28542 12.3767 
91 1 9.37923 6.56268 11.9213 
92 1 10.7821 6.22956 10.9727 
106 1 10.3769 6.79084 9.68586 
127 1 10.7707 6.2185 1.3686 
4 1 4.43343 5.84438 13.3128 
5 1 3.238 5.67647 14.238 
43 1 4.59029 6.9924 15.482 
52 1 9.05372 5.29199 25.7056 
66 1 4.43324 5.84157 24.8045 
67 1 5.07193 6.99044 23.8969 
88 1 5.09172 4.62645 25.178 
107 1 3.15062 5.68472 23.8789 
116 1 4.55765 6.97071 22.6041 
117 1 5.09511 7.01027 14.1942 
11 1 11.3188 7.60989 3.37343 
12 1 10.494 8.84228 4.10228 
14 1 9.00195 11.2524 0.398947 
15 1 10.2352 11.5153 1.35742 
16 1 8.34402 8.88746 0.680901 
19 1 10.466 8.86662 5.55907 
29 1 10.9537 10.1187 3.32486 
32 1 8.6503 7.64904 1.27972 
35 1 12.0377 9.62566 2.57056 
45 1 9.22646 8.92605 3.26338 
47 1 12.6988 8.77346 0.519202 
49 1 11.351 11.0459 0.677627 
51 1 8.85768 10.1536 2.59923 
53 1 11.3237 7.59752 8.96434 
54 1 10.4846 8.84749 8.23559 
56 1 9.00199 11.258 11.9387 
57 1 8.35389 10.1476 11.0258 
58 1 11.3898 10.9445 11.6836 
60 1 12.2705 8.05769 9.58734 
61 1 10.464 8.86845 6.77839 
73 1 9.225 8.92992 9.07845 
75 1 12.6924 8.8334 11.7769 
76 1 12.3074 10.0906 10.9847 
79 1 9.1949 7.64875 9.78236 
80 1 8.3431 12.4833 12.3022 
89 1 10.947 10.1276 8.98987 
93 1 8.31613 8.88243 11.659 
95 1 10.0429 11.0438 9.69245 
105 1 10.2647 11.4469 11.0112 
109 1 8.66205 7.64122 11.058 
110 1 12.0744 9.6384 9.71093 
114 1 8.86206 10.1645 9.73477 
119 1 8.3339 10.1365 1.31333 
120 1 12.2555 8.07562 2.7329 
123 1 12.2507 10.0897 1.25508 
124 1 9.19614 7.65223 2.54878 
128 1 10.0278 11.0452 2.65487 
6 1 5.0682 8.2483 13.5533 
13 1 9.66594 10.2207 25.1444 
17 1 9.12385 8.94709 25.1466 
30 1 9.90868 7.72768 25.0406 
34 1 11.2402 7.49289 25.1215 
36 1 8.33892 12.4773 25.7658 
46 1 11.7032 8.80184 25.1179 
50 1 11.0897 10.1697 25.2537 
55 1 9.63255 10.226 13.0119 
59 1 11.0044 10.1463 12.8893 
74 1 11.6665 8.8585 12.9769 
78 1 11.2433 7.53692 12.9486 
90 1 9.9026 7.72829 13.0375 
94 1 9.12286 8.93704 12.9239 
101 1 5.06011 8.23484 24.519 
33 1 11.6991 6.64166 0.697667 
77 1 11.6996 6.65642 11.654 
41 1 17.7608 6.05503 13.5275 
68 1 17.8349 6.22192 24.5511 
103 1 19.1538 6.09018 22.5585 
126 1 19.1819 6.09698 15.5419 
129 2 17.2968 5.06033 13.4651 
3 1 19.5617 6.85873 12.205 
7 1 20.01 8.18042 12.2562 
10 1 15.1478 8.44183 12.8504 
22 1 19.268 9.44321 12.1957 
26 1 17.9368 9.63673 12.2566 
38 1 17.514 8.29826 12.2341 
42 1 18.2438 7.04911 12.283 
44 1 20.1384 11.8596 12.8268 
48 1 12.5555 7.58408 1.39531 
65 1 19.607 6.8301 0.152731 
69 1 18.2376 7.02009 0.0505657 
82 1 17.4993 8.3086 0.0833582 
86 1 17.9348 9.63339 0.0869474 
96 1 14.0673 8.67762 12.3699 
98 1 19.2633 9.42858 0.12611 
102 1 19.9925 8.16021 0.0794618 
113 1 12.541 7.60259 10.938 
1 1 17.8614 9.5469 16.2474 
2 1 18.7009 8.28387 16.9758 
8 1 18.8165 10.3433 15.5196 
9 1 18.7239 8.26116 18.4321 
20 1 14.0659 8.6896 25.7047 
21 1 18.2522 7.00947 16.219 
23 1 19.8149 10.5768 13.2786 
24 1 20.5341 9.48146 14.1439 
25 1 17.4857 10.4862 13.5631 
27 1 17.1315 7.49769 15.4913 
37 1 19.9705 8.21298 16.142 
39 1 16.5155 8.29747 13.4346 
40 1 16.6413 9.53201 14.2684 
63 1 17.8674 9.53467 21.8379 
64 1 18.6992 8.29205 21.1073 
70 1 16.9213 9.0719 22.4625 
71 1 18.7258 8.26471 19.6519 
72 1 20.1345 11.8504 25.2561 
81 1 19.9647 8.20495 21.9474 
83 1 16.5091 8.30722 24.6588 
84 1 16.8953 7.04429 23.8733 
85 1 17.4844 10.4948 24.5173 
87 1 19.9951 9.47932 22.6582 
97 1 18.242 7.00734 21.8644 
99 1 19.8104 10.5646 24.8081 
100 1 18.4109 10.9073 23.841 
104 1 15.1553 8.44469 25.235 
108 1 18.8157 10.3381 22.5594 
111 1 20.5323 9.472 23.9369 
112 1 17.1203 7.49665 22.5893 
115 1 16.6433 9.52673 23.8158 
118 1 16.9181 9.08921 15.622 
121 1 16.9101 7.11398 14.2032 
122 1 19.9974 9.48848 15.4229 
125 1 18.4115 10.9107 14.2388 
ITEM: TIMESTEP
50
ITEM: NUMBER OF ATOMS
129
ITEM: BOX BOUNDS xy xz yz pp pp pp
0.0000000000000000e+00 2.3654499999999999e+01 7.8845000000000001e+00
0.0000000000000000e+00 1.3658086643083999e+01 0.0000000000000000e+00
0.0000000000000000e+00 2.5747000000000000e+01 0.0000000000000000e+00
ITEM: ATOMS id type x y z 
18 1 10.37 6.80486 2.65277 
28 1 5.10318 4.62617 12.8978 
31 1 9.3663 6.5679 0.408041 
62 1 9.02184 5.29398 12.3764 
91 1 9.37097 6.56588 11.9299 
92 1 10.7667 6.24779 10.9741 
106 1 10.3701 6.80083 9.68875 
127 1 10.7557 6.23448 1.36788 
4 1 4.42599 5.87652 13.3114 
5 1 3.22742 5.68946 14.2341 
43 1 4.59128 6.99615 15.4813 
52 1 9.02306 5.29925 25.7051 
66 1 4.41999 5.873 24.8005 
67 1 5.07496 7.00186 23.8965 
88 1 5.09775 4.62937 25.1777 
107 1 3.14651 5.6943 23.8832 
116 1 4.56159 6.97402 22.6089 
117 1 5.09781 7.02211 14.1896 
11 1 11.3231 7.61211 3.37343 
12 1 10.493 8.83434 4.0985 
14 1 9.01598 11.2202 0.409092 
15 1 10.2423 11.5081 1.35463 
16 1 8.32613 8.8714 0.668625 
19 1 10.4646 8.86546 5.5594 
29 1 10.9546 10.1201 3.32068 
32 1 8.62806 7.63989 1.27685 
35 1 12.0442 9.6276 2.57621 
45 1 9.23064 8.92225 3.26535 
47 1 12.7034 8.78744 0.517684 
49 1 11.3635 11.047 0.678617 
51 1 8.85417 10.1515 2.59844 
53 1 11.3282 7.5984 8.96111 
54 1 10.4848 8.83957 8.23895 
56 1 9.02081 11.2257 11.9348 
57 1 8.34652 10.1313 11.029 
58 1 11.4019 10.9382 11.684 
60 1 12.2701 8.07177 9.58163 
61 1 10.4616 8.86662 6.77734 
73 1 9.22853 8.927 9.07746 
75 1 12.7083 8.8501 11.7833 
76 1 12.3231 10.097 10.9809 
79 1 9.18222 7.64828 9.78882 
80 1 8.33952 12.4752 12.3043 
89 1 10.9505 10.1255 8.9925 
93 1 8.30208 8.86686 11.6653 
95 1 10.0389 11.0335 9.69151 
105 1 10.2701 11.4377 11.017 
109 1 8.63552 7.63601 11.0578 
110 1 12.0853 9.64816 9.70381 
114 1 8.86073 10.1612 9.7405 
119 1 8.33168 10.1252 1.30959 
120 1 12.2546 8.09304 2.73494 
123 1 12.2625 10.1039 1.25231 
124 1 9.18164 7.65009 2.54614 
128 1 10.0218 11.0382 2.65831 
6 1 5.07738 8.26154 13.5387 
13 1 9.67217 10.2194 25.146 
17 1 9.12063 8.93228 25.1449 
30 1 9.9015 7.73106 25.0346 
34 1 11.2345 7.49649 25.1189 
36 1 8.33352 12.4694 25.7602 
46 1 11.7039 8.79555 25.1209 
50 1 11.0913 10.1725 25.2576 
55 1 9.632 10.2264 13.0084 
59 1 11.0073 10.1482 12.8938 
74 1 11.6667 8.85784 12.9714 
78 1 11.2371 7.54014 12.9504 
90 1 9.89737 7.729 13.0422 
94 1 9.10947 8.92586 12.931 
101 1 5.06586 8.24791 24.5381 
33 1 11.6911 6.65642 0.704891 
77 1 11.6931 6.67615 11.6468 
41 1 17.7495 6.06012 13.5284 
68 1 17.8283 6.23345 24.5543 
103 1 19.1523 6.09976 22.5585 
126 1 19.1842 6.10658 15.5403 
129 2 17.2793 5.05163 13.4481 
3 1 19.572 6.84587 12.2096 
7 1 20.0125 8.18807 12.257 
10 1 15.1479 8.43268 12.8482 
22 1 19.2735 9.44392 12.1854 
26 1 17.9373 9.63613 12.2553 
38 1 17.519 8.30155 12.2354 
42 1 18.2478 7.05717 12.2862 
44 1 20.1677 11.8517 12.8268 
48 1 12.5483 7.59491 1.39254 
65 1 19.6095 6.81701 0.159511 
69 1 18.2459 7.02772 0.0534895 
82 1 17.5061 8.31557 0.087614 
86 1 17.9275 9.63284 0.0863228 
96 1 14.0643 8.67824 12.3684 
98 1 19.2704 9.43145 0.138316 
102 1 20.0036 8.16532 0.0757351 
113 1 12.5299 7.61582 10.9373 
1 1 17.8599 9.54605 16.253 
2 1 18.7002 8.2933 16.9725 
8 1 18.8231 10.3347 15.5179 
9 1 18.7264 8.26335 18.4331 
20 1 14.0602 8.68836 25.7067 
21 1 18.2534 7.01554 16.2207 
23 1 19.8242 10.5748 13.2752 
24 1 20.5551 9.49149 14.1451 
25 1 17.4947 10.4713 13.5701 
27 1 17.1225 7.48436 15.4903 
37 1 19.9707 8.22048 16.1408 
39 1 16.5032 8.28958 13.4339 
40 1 16.6469 9.51892 14.2694 
63 1 17.8619 9.53305 21.8333 
64 1 18.702 8.29921 21.111 
70 1 16.9234 9.05967 22.4594 
71 1 18.7268 8.26612 19.6509 
72 1 20.1631 11.8415 25.2568 
81 1 19.9613 8.20753 21.9456 
83 1 16.5069 8.28684 24.6586 
84 1 16.8813 7.0321 23.8647 
85 1 17.4911 10.471 24.5073 
87 1 20.0086 9.48153 22.6628 
97 1 18.2388 7.00811 21.8651 
99 1 19.8238 10.563 24.8091 
100 1 18.4274 10.8919 23.8445 
104 1 15.1505 8.44245 25.2377 
108 1 18.8233 10.3295 22.564 
111 1 20.5535 9.48037 23.9367 
112 1 17.1092 7.4863 22.5798 
115 1 16.6562 9.52642 23.8068 
118 1 16.9201 9.07868 15.6283 
121 1 16.8988 7.09391 14.2164 
122 1 20.0112 9.48963 15.4177 
125 1 18.4309 10.8946 14.2342 
ITEM: TIMESTEP
60
ITEM: NUMBER OF ATOMS
129
ITEM: BOX BOUNDS xy xz yz pp pp pp
0.0000000000000000e+00 2.3654499999999999e+01 7.8845000000000001e+00
0.0000000000000000e+00 1.3658086643083999e+01 0.0000000000000000e+00
0.0000000000000000e+00 2.5747000000000000e+01 0.0000000000000000e+00
ITEM: ATOMS id type x y z 
18 1 10.3596 6.8185 2.65465 
28 1 5.10747 4.63931 12.9002 
31 1 9.34785 6.5724 0.405732 
62 1 8.98112 5.30126 12.3789 
91 1 9.35288 6.57241 11.9306 
92 1 10.7482 6.26609 10.9801 
106 1 10.3618 6.8172 9.68561 
127 1 10.7355 6.25215 1.36495 
4 1 4.42028 5.89016 13.319 
5 1 3.22544 5.71047 14.2343 
43 1 4.59634 7.00895 15.4753 
52 1 8.98067 5.30487 25.7024 
66 1 4.41972 5.88686 24.8012 
67 1 5.07887 7.01991 23.906 
88 1 5.09799 4.64862 25.1723 
107 1 3.13979 5.7091 23.8844 
116 1 4.56366 6.98119 22.6093 
117 1 5.10291 7.04387 14.1905 
11 1 11.3226 7.61715 3.37427 
12 1 10.4985 8.83208 4.09928 
14 1 9.02109 11.2063 0.414293 
15 1 10.2433 11.5011 1.36136 
16 1 8.30426 8.85854 0.658618 
19 1 10.4624 8.86294 5.55888 
29 1 10.9526 10.1115 3.32154 
32 1 8.60395 7.62917 1.27559 
35 1 12.0523 9.64712 2.57395 
45 1 9.22465 8.91961 3.25986 
47 1 12.7003 8.79697 0.521987 
49 1 11.3732 11.0595 0.674105 
51 1 8.84967 10.1406 2.59742 
53 1 11.3271 7.60086 8.95942 
54 1 10.4904 8.83559 8.23773 
56 1 9.02225 11.209 11.9313 
57 1 8.33921 10.1112 11.0346 
58 1 11.4123 10.9311 11.6868 
60 1 12.2703 8.08545 9.57544 
61 1 10.459 8.86388 6.77717 
73 1 9.22522 8.92379 9.08146 
75 1 12.7059 8.86453 11.7772 
76 1 12.3461 10.1086 10.9722 
79 1 9.16535 7.64864 9.79428 
80 1 8.34206 12.4506 12.3039 
89 1 10.9501 10.1183 8.99217 
93 1 8.2837 8.85487 11.6743 
95 1 10.0421 11.0246 9.69884 
105 1 10.2806 11.4243 11.0147 
109 1 8.6097 7.62296 11.0599 
110 1 12.0987 9.66073 9.69722 
114 1 8.85613 10.1491 9.74499 
119 1 8.32729 10.1027 1.30662 
120 1 12.2541 8.10317 2.73636 
123 1 12.2807 10.1099 1.25709 
124 1 9.16339 7.64896 2.54178 
128 1 10.0192 11.033 2.65414 
6 1 5.09368 8.27649 13.5318 
13 1 9.67227 10.2023 25.1463 
17 1 9.11113 8.94098 25.1447 
30 1 9.90305 7.72494 25.0246 
34 1 11.2307 7.49123 25.1174 
36 1 8.33444 12.4424 25.7577 
46 1 11.697 8.79955 25.1189 
50 1 11.1045 10.1675 25.2666 
55 1 9.63015 10.2082 13.0082 
59 1 11.0149 10.1525 12.8975 
74 1 11.6604 8.85896 12.9707 
78 1 11.2368 7.54061 12.9528 
90 1 9.89461 7.73098 13.0525 
94 1 9.0903 8.92546 12.9405 
101 1 5.08344 8.25802 24.5419 
33 1 11.6765 6.67101 0.706648 
77 1 11.6801 6.69348 11.6449 
41 1 17.7332 6.04474 13.5231 
68 1 17.8208 6.24405 24.556 
103 1 19.1523 6.10792 22.5639 
126 1 19.1821 6.11237 15.5338 
129 2 17.2631 5.05165 13.426 
3 1 19.571 6.86325 12.1981 
7 1 20.0197 8.18781 12.2525 
10 1 15.1499 8.42036 12.8482 
22 1 19.2758 9.44747 12.1725 
26 1 17.9433 9.63551 12.2568 
38 1 17.5217 8.29747 12.2405 
42 1 18.2493 7.06062 12.2929 
44 1 20.2095 11.8496 12.823 
48 1 12.545 7.61457 1.3955 
65 1 19.6202 6.83257 0.166908 
69 1 18.2423 7.03455 0.0564632 
82 1 17.5085 8.30804 0.0895719 
86 1 17.9402 9.63099 0.087172 
96 1 14.0712 8.67893 12.3695 
98 1 19.2722 9.43405 0.155359 
102 1 20.0066 8.1641 0.084733 
113 1 12.5264 7.64383 10.933 
1 1 17.8583 9.54576 16.2539 
2 1 18.7001 8.30173 16.9723 
8 1 18.8324 10.3225 15.5199 
9 1 18.7289 8.26658 18.4329 
20 1 14.0651 8.69029 25.7045 
21 1 18.2521 7.02305 16.2196 
23 1 19.8425 10.5692 13.271 
24 1 20.5804 9.50272 14.1391 
25 1 17.5058 10.4509 13.5731 
27 1 17.1147 7.47508 15.5018 
37 1 19.9762 8.22124 16.1377 
39 1 16.5034 8.2646 13.4421 
40 1 16.6547 9.50336 14.2793 
63 1 17.8661 9.53303 21.8337 
64 1 18.6947 8.3055 21.1106 
70 1 16.9216 9.04664 22.4495 
71 1 18.7294 8.26913 19.6514 
72 1 20.2041 11.8368 25.2601 
81 1 19.9654 8.20918 21.952 
83 1 16.5031 8.27912 24.6554 
84 1 16.8663 7.01994 23.8537 
85 1 17.5022 10.4613 24.5055 
87 1 20.0275 9.47969 22.6667 
97 1 18.2392 7.0173 21.8639 
99 1 19.8393 10.555 24.8108 
100 1 18.4467 10.8711 23.8502 
104 1 15.1538 8.44044 25.2341 
108 1 18.83 10.3154 22.5584 
111 1 20.5772 9.49129 23.9388 
112 1 17.0955 7.47135 22.573 
115 1 16.6619 9.49491 23.8018 
118 1 16.9218 9.06577 15.6295 
121 1 16.8741 7.09138 14.2174 
122 1 20.0278 9.49431 15.4163 
125 1 18.4478 10.8763 14.2289 
ITEM: TIMESTEP
70
ITEM: NUMBER OF ATOMS
129
ITEM: BOX BOUNDS xy xz yz pp pp pp
0.0000000000000000e+00 2.3654499999999999e+01 7.8845000000000001e+00
0.0000000000000000e+00 1.3658086643083999e+01 0.0000000000000000e+00
0.0000000000000000e+00 2.5747000000000000e+01 0.0000000000000000e+00
ITEM: ATOMS id type x y z 
18 1 10.3555 6.82311 2.6534 
28 1 5.10555 4.65267 12.9039 
31 1 9.34065 6.57459 0.40207 
62 1 8.96291 5.30577 12.3798 
91 1 9.34695 6.57438 11.9347 
92 1 10.741 6.27536 10.9812 
106 1 10.3571 6.82051 9.68949 
127 1 10.7275 6.25958 1.36351 
4 1 4.42419 5.89833 13.3149 
5 1 3.21717 5.71451 14.2273 
43 1 4.59607 7.00753 15.4746 
52 1 8.96165 5.30863 25.7013 
66 1 4.41911 5.89338 24.8023 
67 1 5.08073 7.02522 23.9034 
88 1 5.09981 4.65459 25.1707 
107 1 3.13856 5.71457 23.8872 
116 1 4.56657 6.98247 22.6153 
117 1 5.10463 7.04784 14.1835 
11 1 11.3228 7.62054 3.37343 
12 1 10.4952 8.82877 4.09838 
14 1 9.02172 11.1971 0.41455 
15 1 10.2495 11.4972 1.35803 
16 1 8.29578 8.8525 0.655426 
19 1 10.4614 8.86161 5.55933 
29 1 10.9533 10.1134 3.31857 
32 1 8.59376 7.62565 1.27251 
35 1 12.0548 9.64514 2.57681 
45 1 9.2272 8.91665 3.26273 
47 1 12.7037 8.80238 0.517078 
49 1 11.3786 11.0596 0.680451 
51 1 8.84641 10.1407 2.59345 
53 1 11.3287 7.60425 8.95854 
54 1 10.4878 8.8333 8.23816 