ITEM: TIMESTEP
0
ITEM: NUMBER OF ATOMS
162
ITEM: BOX BOUNDS xy xz yz pp pp pp
-6.7755000000000001e+00 1.3552000000000000e+01 -6.7755000000000001e+00
0.0000000000000000e+00 1.1735510246683001e+01 0.0000000000000000e+00
0.0000000000000000e+00 2.2149999999999999e+01 0.0000000000000000e+00
ITEM: ATOMS id type x y z 
8 1 -2.486 5.297 9.849 
87 1 3.001 4.231 10.696 
90 1 2.733 5.481 9.824 
109 1 -2.486 5.297 0.765 
158 1 2.733 5.481 0.79 
11 1 4.24 4.139 20.131 
14 1 3.031 4.094 19.728 
18 1 1.299 5.827 18.554 
33 1 2.266 4.151 20.924 
43 1 4.343 3.96 21.647 
47 1 3.32 5.732 17.88 
52 1 4.24 4.139 12.633 
76 1 2.552 4.924 14.209 
85 1 4.343 3.96 11.117 
89 1 3.32 5.732 14.883 
91 1 1.036 5.037 11.84 
102 1 3.031 4.094 13.035 
105 1 1.299 5.827 14.209 
114 1 2.266 4.151 11.84 
150 1 2.552 4.924 18.554 
156 1 3.001 4.231 22.068 
159 1 1.036 5.037 20.924 
5 1 -5.049 10.63 8.653 
9 1 -3.317 8.897 7.479 
19 1 -1.707 7.414 10.572 
21 1 -2.66 8.795 10.993 
23 1 -3.31 7.532 6.805 
25 1 -4.284 10.573 9.849 
32 1 1.503 6.367 0.79 
36 1 -1.869 7.426 9.056 
38 1 -2.209 6.086 8.653 
54 1 0.3 8.576 10.696 
57 1 1.291 8.001 9.824 
60 1 -1.707 7.414 0.042 
65 1 -3.31 7.532 3.808 
78 1 -1.869 7.426 1.558 
80 1 -2.566 8.842 1.961 
84 1 -4.57 9.799 3.135 
99 1 -3.054 9.687 0.765 
100 1 -2.96 6.142 3.135 
107 1 -5.049 10.63 1.961 
110 1 -3.317 8.897 3.135 
111 1 0.642 5.929 10.696 
113 1 1.503 6.367 9.824 
119 1 -4.284 10.573 0.765 
127 1 -2.209 6.086 1.961 
131 1 -2.318 6.148 10.993 
138 1 1.291 8.001 0.79 
142 1 -2.566 8.842 8.653 
145 1 -4.57 9.799 7.479 
151 1 -5.019 10.493 10.993 
154 1 -3.054 9.687 9.849 
155 1 -2.96 6.142 7.479 
12 1 2.53 7.1 17.202 
17 1 0.468 9.427 20.924 
24 1 -3.52 8.357 11.865 
27 1 -0.31 7.31 21.647 
29 1 0.642 5.929 22.068 
31 1 1.292 7.192 17.88 
44 1 -0.148 7.298 20.131 
46 1 0.191 8.638 19.728 
51 1 -0.31 7.31 11.117 
53 1 2.53 7.1 15.561 
56 1 1.292 7.192 14.883 
63 1 -2.318 6.148 21.771 
66 1 -3.309 6.723 20.899 
70 1 -0.148 7.298 12.633 
72 1 0.548 5.882 13.035 
92 1 0.942 8.582 14.209 
95 1 -5.019 10.493 21.771 
98 1 -4.751 9.243 20.899 
104 1 0.468 9.427 11.84 
116 1 -2.66 8.795 21.771 
118 1 -3.52 8.357 20.899 
122 1 0.191 8.638 13.035 
133 1 -3.309 6.723 11.865 
136 1 0.3 8.576 22.068 
147 1 0.548 5.882 19.728 
153 1 -4.751 9.243 11.865 
160 1 0.942 8.582 18.554 
1 1 7.976 4.694 10.572 
4 1 9.274 4.77 10.993 
20 1 8.034 4.861 9.056 
42 1 9.55 5.41 7.479 
67 1 10.043 4.578 0.765 
77 1 7.976 4.694 0.042 
94 1 8.035 4.861 1.558 
96 1 9.278 4.635 1.961 
121 1 4.688 5.417 10.696 
130 1 9.55 5.41 3.135 
134 1 10.043 4.578 9.849 
152 1 9.278 4.635 8.653 
45 1 4.688 5.417 22.068 
55 1 4.788 5.329 13.035 
106 1 9.274 4.77 21.771 
137 1 4.788 5.329 19.728 
2 1 7.294 10.585 9.056 
3 1 9.004 7.624 6.127 
6 1 8.556 6.347 6.805 
16 1 2.314 8.72 0.79 
22 1 7.166 6.156 8.653 
26 1 7.226 8.565 7.479 
35 1 7.191 10.764 10.572 
37 1 6.846 9.307 10.993 
39 1 8.214 8.992 6.805 
41 1 6.677 7.002 9.849 
48 1 3.775 6.213 0.79 
61 1 7.294 10.585 1.558 
62 1 9.004 7.624 4.487 
64 1 6.747 9.395 1.961 
68 1 7.437 6.931 3.135 
71 1 4.29 8.493 10.696 
74 1 3.567 7.818 9.824 
81 1 8.556 6.347 3.808 
83 1 6.47 8.606 0.765 
93 1 7.191 10.764 0.042 
97 1 8.214 8.992 3.808 
101 1 2.261 9.954 10.696 
103 1 2.314 8.72 9.824 
117 1 7.166 6.156 1.961 
120 1 7.226 8.565 3.135 
123 1 3.775 6.213 9.824 
129 1 6.677 7.002 0.765 
132 1 6.747 9.395 8.653 
135 1 7.437 6.931 7.479 
141 1 7.244 6.231 10.993 
144 1 6.47 8.606 9.849 
148 1 3.567 7.818 0.79 
161 2 5.486 6.997 9.211 
162 3 5.486 6.997 8.235 
7 1 9.22 6.004 11.865 
10 1 3.558 10.029 21.647 
13 1 2.261 9.954 22.068 
15 1 2.978 8.376 17.88 
28 1 3.5 9.862 20.131 
30 1 4.369 8.568 19.728 
34 1 4.308 6.159 18.554 
40 1 7.76 8.511 11.865 
49 1 4.857 7.722 20.924 
50 1 1.984 9.314 18.554 
58 1 1.491 10.146 11.84 
59 1 4.097 7.793 14.209 
69 1 3.558 10.029 11.117 
73 1 2.978 8.376 14.883 
75 1 5.064 6.118 11.84 
79 1 7.244 6.231 21.771 
82 1 7.967 6.906 20.899 
86 1 3.5 9.862 12.633 
88 1 2.256 10.089 13.035 
108 1 9.22 6.004 20.899 
112 1 4.369 8.568 13.035 
115 1 4.308 6.159 14.209 
124 1 4.857 7.722 11.84 
125 1 1.984 9.314 14.209 
126 1 6.846 9.307 21.771 
128 1 7.76 8.511 20.899 
139 1 1.491 10.146 20.924 
140 1 4.097 7.793 18.554 
143 1 7.967 6.906 11.865 
146 1 4.29 8.493 22.068 
149 1 5.064 6.118 20.924 
157 1 2.256 10.089 19.728 
ITEM: TIMESTEP
10
ITEM: NUMBER OF ATOMS
162
ITEM: BOX BOUNDS xy xz yz pp pp pp
-6.7755000000000001e+00 1.3552000000000000e+01 -6.7755000000000001e+00
0.0000000000000000e+00 1.1735510246683001e+01 0.0000000000000000e+00
0.0000000000000000e+00 2.2149999999999999e+01 0.0000000000000000e+00
ITEM: ATOMS id type x y z 
8 1 -2.43099 5.37813 9.8208 
87 1 2.97907 4.34209 10.639 
90 1 2.6312 5.50915 9.77546 
109 1 -2.43374 5.38053 0.776454 
158 1 2.66732 5.45199 0.859043 
11 1 4.29397 4.23109 20.1058 
14 1 2.90596 4.1385 19.6976 
18 1 1.33358 5.86575 18.5766 
33 1 2.11723 4.24504 20.9094 
43 1 4.30932 4.18339 21.5675 
47 1 3.23818 5.79302 17.8455 
52 1 4.27844 4.23791 12.6512 
76 1 2.4362 4.89849 14.1825 
85 1 4.28959 4.1625 11.1804 
89 1 3.22897 5.79347 14.9142 
91 1 0.97055 5.08911 11.8687 
102 1 2.89969 4.13376 13.0592 
105 1 1.33189 5.86055 14.191 
114 1 2.10842 4.27193 11.8463 
150 1 2.41855 4.91948 18.5778 
156 1 2.97143 4.27312 22.1161 
159 1 0.963748 5.06017 20.9138 
5 1 -4.90405 10.5967 8.62217 
9 1 -3.3493 8.87809 7.51234 
19 1 -1.74248 7.54085 10.5503 
21 1 -2.58286 8.74504 10.9336 
23 1 -3.33272 7.53219 6.78927 
25 1 -4.10868 10.4659 9.8417 
32 1 1.59502 6.35281 0.769332 
36 1 -1.89612 7.56737 9.07396 
38 1 -2.1415 6.22607 8.65655 
54 1 0.319922 8.49202 10.7066 
57 1 1.34224 7.96043 9.79153 
60 1 -1.76183 7.53447 0.0569488 
65 1 -3.30716 7.53833 3.78106 
78 1 -1.89068 7.56821 1.54912 
80 1 -2.56728 8.79688 1.89661 
84 1 -4.45066 9.82599 3.09987 
99 1 -2.97344 9.60061 0.78238 
100 1 -2.942 6.26965 3.19013 
107 1 -4.92411 10.5875 1.99195 
110 1 -3.35592 8.85289 3.10733 
111 1 0.568833 5.96704 10.7478 
113 1 1.49993 6.36439 9.81916 
119 1 -4.10271 10.4572 0.776947 
127 1 -2.14779 6.21385 1.97553 
131 1 -2.31612 6.20003 11.0194 
138 1 1.37357 7.97756 0.84763 
142 1 -2.55381 8.78089 8.72131 
145 1 -4.46625 9.8225 7.49448 
151 1 -4.96479 10.4333 11.0623 
154 1 -2.97166 9.62327 9.82407 
155 1 -2.9085 6.24988 7.43397 
12 1 2.56682 7.04928 17.1141 
17 1 0.405171 9.35283 20.9026 
24 1 -3.55605 8.36798 11.8634 
27 1 -0.282972 7.2051 21.6304 
29 1 0.604792 5.96883 21.9565 
31 1 1.28358 7.17977 17.9091 
44 1 -0.136567 7.18359 20.1408 
46 1 0.133302 8.51023 19.7078 
51 1 -0.254231 7.23738 11.1317 
53 1 2.5696 7.06948 15.6438 
56 1 1.28941 7.20268 14.8625 
63 1 -2.32158 6.21052 21.7521 
66 1 -3.39291 6.77474 20.8504 
70 1 -0.122594 7.16704 12.6164 
72 1 0.53667 5.9255 12.9712 
92 1 0.916227 8.4549 14.2592 
95 1 -4.9869 10.4207 21.7202 
98 1 -4.68315 9.23722 20.852 
104 1 0.413402 9.32201 11.8256 
116 1 -2.62116 8.75601 21.8089 
118 1 -3.56086 8.37711 20.9293 
122 1 0.1355 8.50637 13.0359 
133 1 -3.39589 6.7868 11.9232 
136 1 0.301254 8.52299 22.0975 
147 1 0.538113 5.93648 19.8494 
153 1 -4.67045 9.21058 11.9143 
160 1 0.922815 8.45736 18.5067 
1 1 7.85591 4.95597 10.5319 
4 1 9.19531 4.77312 11.0303 
20 1 7.86045 4.91307 9.04687 
42 1 9.46331 5.4351 7.4251 
67 1 9.97057 4.57929 0.750483 
77 1 7.86979 4.9494 0.101713 
94 1 7.86567 4.95665 1.5525 
96 1 9.1651 4.66925 1.99681 
121 1 4.67046 5.45113 10.669 
130 1 9.45881 5.43335 3.1622 
134 1 9.98473 4.57984 9.85415 
152 1 9.1978 4.64929 8.60304 
45 1 4.65905 5.46872 22.0449 
55 1 4.81847 5.49333 13.0781 
106 1 9.17946 4.78312 21.7496 
137 1 4.8163 5.48916 19.7107 
2 1 7.23749 10.5206 9.03619 
3 1 8.98449 7.61736 6.05625 
6 1 8.59146 6.40478 6.77061 
16 1 2.36016 8.6614 0.882104 
22 1 7.22432 6.12604 8.6796 
26 1 7.21724 8.43967 7.53336 
35 1 7.25286 10.5844 10.5059 
37 1 6.85032 9.25337 11.0351 
39 1 8.2978 8.95131 6.7901 
41 1 6.54672 7.00466 9.8131 
48 1 3.70035 6.37141 0.837015 
61 1 7.26286 10.4917 1.56916 
62 1 8.99248 7.65133 4.62383 
64 1 6.70589 9.23023 2.01007 
68 1 7.37725 6.98242 3.0444 
71 1 4.2928 8.5331 10.7416 
74 1 3.61678 7.75204 9.82893 
81 1 8.52563 6.38302 3.78231 
83 1 6.54761 8.42885 0.775165 
93 1 7.2378 10.5462 0.0995199 
97 1 8.29005 8.94116 3.83145 
101 1 2.34384 9.94018 10.6603 
103 1 2.35395 8.66748 9.76861 
117 1 7.13017 6.16568 1.90709 
120 1 7.19897 8.40568 3.06631 
123 1 3.77311 6.3406 9.8286 
129 1 6.7171 7.00801 0.787837 
132 1 6.72292 9.24196 8.62246 
135 1 7.43541 6.95812 7.55079 
141 1 7.20712 6.17027 10.9884 
144 1 6.56611 8.49446 9.81365 
148 1 3.61293 7.7753 0.805172 
161 2 5.58488 6.96417 9.20667 
162 3 5.2696 7.00035 8.19525 
7 1 9.21225 6.02058 11.9496 
10 1 3.71143 9.78136 21.5739 
13 1 2.34093 9.9891 22.1208 
15 1 3.01795 8.34447 17.9099 
28 1 3.66771 9.74813 20.1237 
30 1 4.39777 8.54673 19.7747 
34 1 4.35117 6.32228 18.6259 
40 1 7.74744 8.38986 11.8836 
49 1 4.80387 7.71618 20.8891 
50 1 2.07198 9.28809 18.533 
58 1 1.56481 10.1291 11.8366 
59 1 4.1249 7.74831 14.128 
69 1 3.67509 9.76199 11.1748 
73 1 3.00642 8.32376 14.849 
75 1 4.97381 6.28995 11.879 
79 1 7.22691 6.18395 21.8319 
82 1 7.91022 6.97691 20.8802 
86 1 3.6665 9.77221 12.6272 
88 1 2.3632 10.058 13.0611 
108 1 9.17727 6.03132 20.8382 
112 1 4.40505 8.55843 13.0084 
115 1 4.34732 6.32634 14.1356 
124 1 4.8259 7.72117 11.8785 
125 1 2.08393 9.28956 14.2411 
126 1 6.88002 9.2508 21.7588 
128 1 7.76705 8.36311 20.8777 
139 1 1.54963 10.1522 20.899 
140 1 4.14056 7.75856 18.6549 
143 1 7.91469 6.97054 11.8626 
146 1 4.32087 8.53619 22.0013 
149 1 4.97754 6.28194 20.9202 
157 1 2.37411 10.0533 19.6894 
ITEM: TIMESTEP
20
ITEM: NUMBER OF ATOMS
162
ITEM: BOX BOUNDS xy xz yz pp pp pp
-6.7755000000000001e+00 1.3552000000000000e+01 -6.7755000000000001e+00
0.0000000000000000e+00 1.1735510246683001e+01 0.0000000000000000e+00
0.0000000000000000e+00 2.2149999999999999e+01 0.0000000000000000e+00
ITEM: ATOMS id type x y z 
8 1 -2.42942 5.40826 9.83891 
87 1 2.9465 4.33412 10.6543 
90 1 2.62538 5.51834 9.76618 
109 1 -2.43498 5.40869 0.776999 
158 1 2.64323 5.45646 0.851094 
11 1 4.28022 4.22554 20.1134 
14 1 2.89251 4.15215 19.6929 
18 1 1.30274 5.86509 18.5926 
33 1 2.11704 4.23195 20.9085 
43 1 4.29047 4.20949 21.5582 
47 1 3.25374 5.79713 17.8343 
52 1 4.26217 4.23837 12.6332 
76 1 2.43914 4.91685 14.1825 
85 1 4.27629 4.19883 11.1909 
89 1 3.25152 5.79199 14.9262 
91 1 0.955354 5.11144 11.8567 
102 1 2.88639 4.1538 13.0618 
105 1 1.29703 5.85527 14.1904 
114 1 2.09731 4.27818 11.8469 
150 1 2.42215 4.93382 18.5793 
156 1 2.96327 4.2779 22.1208 
159 1 0.960231 5.03947 20.918 
5 1 -4.89715 10.5786 8.63321 
9 1 -3.32683 8.87238 7.50477 
19 1 -1.7505 7.51108 10.555 
21 1 -2.59517 8.78101 10.9626 
23 1 -3.30413 7.54234 6.79206 
25 1 -4.10019 10.4506 9.84007 
32 1 1.60845 6.36625 0.762795 
36 1 -1.88224 7.56615 9.0614 
38 1 -2.15122 6.24431 8.64041 
54 1 0.319531 8.49026 10.6762 
57 1 1.36582 7.94033 9.78377 
60 1 -1.75739 7.51489 0.0592433 
65 1 -3.30865 7.53576 3.79521 
78 1 -1.88276 7.56172 1.55462 
80 1 -2.54771 8.79887 1.89479 
84 1 -4.46273 9.80777 3.10932 
99 1 -2.97399 9.60442 0.779444 
100 1 -2.93868 6.28232 3.17517 
107 1 -4.89986 10.5708 1.98434 
110 1 -3.32339 8.86288 3.11141 
111 1 0.562016 5.93842 10.7286 
113 1 1.49409 6.38135 9.82156 
119 1 -4.1009 10.446 0.778223 
127 1 -2.15802 6.23975 1.97798 
131 1 -2.33722 6.23304 11.0072 
138 1 1.37518 7.97288 0.827747 
142 1 -2.55 8.79952 8.71746 
145 1 -4.45459 9.81078 7.50577 
151 1 -4.95606 10.4123 11.0456 
154 1 -2.96987 9.60972 9.83327 
155 1 -2.92222 6.26431 7.44413 
12 1 2.56748 7.06436 17.1453 
17 1 0.414692 9.32444 20.9169 
24 1 -3.54241 8.35705 11.8547 
27 1 -0.282313 7.23227 21.6279 
29 1 0.607976 5.96421 21.9605 
31 1 1.28172 7.17022 17.9057 
44 1 -0.159763 7.19067 20.1465 
46 1 0.133574 8.49891 19.7074 
51 1 -0.268456 7.21349 11.1384 
53 1 2.56096 7.07065 15.6206 
56 1 1.28247 7.18811 14.8696 
63 1 -2.34336 6.23601 21.7522 
66 1 -3.39709 6.77585 20.8654 
70 1 -0.134731 7.16125 12.6321 
72 1 0.52622 5.9206 12.976 
92 1 0.915674 8.44874 14.2471 
95 1 -4.96471 10.4058 21.7288 
98 1 -4.66657 9.21827 20.8492 
104 1 0.410333 9.31949 11.8513 
116 1 -2.60492 8.78077 21.7959 
118 1 -3.55809 8.36125 20.9135 
122 1 0.139286 8.48081 13.0512 
133 1 -3.39597 6.78204 11.9077 
136 1 0.324066 8.50279 22.0912 
147 1 0.52939 5.93673 19.8562 
153 1 -4.66733 9.20207 11.9118 
160 1 0.918777 8.4442 18.5118 
1 1 7.86803 4.95941 10.5307 
4 1 9.16112 4.80919 11.0328 
20 1 7.85139 4.91101 9.06165 
42 1 9.48192 5.44785 7.44199 
67 1 9.95116 4.58782 0.780067 
77 1 7.85772 4.95284 0.0878867 
94 1 7.84666 4.94179 1.55349 
96 1 9.16646 4.6857 1.98545 
121 1 4.68621 5.49308 10.6846 
130 1 9.44613 5.44844 3.16203 
134 1 9.96298 4.58797 9.83691 
152 1 9.19502 4.66809 8.60289 
45 1 4.65546 5.49593 22.0733 
55 1 4.82314 5.51578 13.067 
106 1 9.15408 4.8151 21.7458 
137 1 4.82386 5.51992 19.6988 
2 1 7.27224 10.5236 9.05769 
3 1 8.99284 7.62714 6.07742 
6 1 8.55033 6.39403 6.75686 
16 1 2.35898 8.6929 0.862151 
22 1 7.20634 6.14533 8.67616 
26 1 7.21976 8.42146 7.53513 
35 1 7.27764 10.5382 10.493 
37 1 6.85597 9.25413 11.0275 
39 1 8.28609 8.93499 6.75763 
41 1 6.54051 6.97182 9.81721 
48 1 3.69684 6.35348 0.835716 
61 1 7.26894 10.4843 1.56018 
62 1 8.98222 7.64147 4.59744 
64 1 6.70948 9.20349 1.99149 
68 1 7.39533 6.95655 3.06217 
71 1 4.31441 8.51835 10.7498 
74 1 3.60169 7.7672 9.82171 
81 1 8.51493 6.40307 3.78908 
83 1 6.54245 8.41494 0.802368 
93 1 7.25323 10.5299 0.113054 
97 1 8.28525 8.93009 3.8439 
101 1 2.38156 9.90253 10.6594 
103 1 2.36234 8.66498 9.76779 
117 1 7.10039 6.18125 1.91436 
120 1 7.20309 8.41762 3.07879 
123 1 3.76767 6.32952 9.82595 
129 1 6.71416 6.98981 0.783118 
132 1 6.7299 9.22768 8.61099 
135 1 7.4459 6.95769 7.55168 
141 1 7.20047 6.18307 10.9911 
144 1 6.56493 8.48512 9.82068 
148 1 3.60159 7.80041 0.809732 
161 2 5.57761 6.95136 9.17811 
162 3 5.24241 7.00519 8.19759 
7 1 9.18769 6.03878 11.937 
10 1 3.69933 9.82818 21.6161 
13 1 2.37679 9.91046 22.0766 
15 1 3.01803 8.32874 17.8911 
28 1 3.68572 9.76754 20.1267 
30 1 4.43058 8.55076 19.7753 
34 1 4.33903 6.30358 18.613 
40 1 7.75421 8.3746 11.8964 
49 1 4.81753 7.72984 20.9145 
50 1 2.0826 9.27171 18.5156 
58 1 1.57867 10.1359 11.8396 
59 1 4.13721 7.76514 14.1399 
69 1 3.67603 9.76663 11.1633 
73 1 3.01512 8.33536 14.8745 
75 1 4.97387 6.30521 11.8786 
79 1 7.22021 6.20283 21.819 
82 1 7.92086 6.94579 20.8826 
86 1 3.70149 9.78076 12.6186 
88 1 2.36644 10.0519 13.0701 
108 1 9.17088 6.04604 20.8383 
112 1 4.442 8.55481 12.9965 
115 1 4.33685 6.30344 14.1574 
124 1 4.82344 7.73424 11.8655 
125 1 2.07833 9.27173 14.2458 
126 1 6.86215 9.21989 21.751 
128 1 7.75504 8.37622 20.8657 
139 1 1.57378 10.1455 20.9293 
140 1 4.14128 7.76384 18.6222 
143 1 7.93582 6.95691 11.8576 
146 1 4.32767 8.50169 22.0193 
149 1 4.98451 6.30212 20.9031 
157 1 2.37427 10.0481 19.6924 
ITEM: TIMESTEP
30
ITEM: NUMBER OF ATOMS
162
ITEM: BOX BOUNDS xy xz yz pp pp pp
-6.7755000000000001e+00 1.3552000000000000e+01 -6.7755000000000001e+00
0.0000000000000000e+00 1.1735510246683001e+01 0.0000000000000000e+00
0.0000000000000000e+00 2.2149999999999999e+01 0.0000000000000000e+00
ITEM: ATOMS id type x y z 
8 1 -2.44615 5.43998 9.83312 
87 1 2.92631 4.35357 10.6526 
90 1 2.60936 5.5303 9.74795 
109 1 -2.45199 5.44135 0.78448 
158 1 2.61515 5.45126 0.843199 
11 1 4.27035 4.25655 20.1024 
14 1 2.88242 4.16308 19.7028 
18 1 1.29509 5.86393 18.6018 
33 1 2.09717 4.21731 20.9089 
43 1 4.2689 4.26455 21.5498 
47 1 3.23191 5.80671 17.8217 
52 1 4.25323 4.25378 12.6437 
76 1 2.42599 4.93879 14.1959 
85 1 4.25912 4.2347 11.2029 
89 1 3.23619 5.8021 14.9459 
91 1 0.928605 5.12924 11.842 
102 1 2.86138 4.17253 13.0472 
105 1 1.27852 5.84492 14.2087 
114 1 2.0629 4.2928 11.8573 
150 1 2.40939 4.94335 18.5789 
156 1 2.95146 4.29257 22.1317 
159 1 0.943051 5.03705 20.9247 
5 1 -4.86812 10.5528 8.63273 
9 1 -3.29935 8.8799 7.48521 
19 1 -1.75249 7.53453 10.5569 
21 1 -2.56036 8.7927 10.9807 
23 1 -3.29168 7.55002 6.77481 
25 1 -4.07804 10.4356 9.83834 
32 1 1.60521 6.40754 0.756093 
36 1 -1.85773 7.58645 9.06124 
38 1 -2.14816 6.26153 8.64064 
54 1 0.327968 8.46847 10.6783 
57 1 1.36599 7.92403 9.7851 
60 1 -1.75649 7.53397 0.0548841 
65 1 -3.30739 7.55513 3.80637 
78 1 -1.85721 7.58256 1.55848 
80 1 -2.51732 8.80692 1.89797 
84 1 -4.45383 9.77166 3.12073 
99 1 -2.95407 9.59729 0.769535 
100 1 -2.94746 6.3031 3.17404 
107 1 -4.87706 10.5418 1.98041 
110 1 -3.28938 8.87458 3.12687 
111 1 0.523213 5.9322 10.7109 
113 1 1.47379 6.39129 9.81303 
119 1 -4.08414 10.4307 0.782289 
127 1 -2.15922 6.26174 1.97833 
131 1 -2.35377 6.25821 11.0118 
138 1 1.38872 7.93937 0.814399 
142 1 -2.51861 8.81183 8.71363 
145 1 -4.44484 9.77521 7.50084 
151 1 -4.94425 10.3761 11.0435 
154 1 -2.94812 9.60002 9.84902 
155 1 -2.91723 6.294 7.44001 
12 1 2.56875 7.06353 17.1503 
17 1 0.435294 9.30031 20.9111 
24 1 -3.51924 8.33679 11.8699 
27 1 -0.280297 7.22173 21.6267 
29 1 0.596572 5.96042 21.9591 
31 1 1.27852 7.16808 17.9061 
44 1 -0.191861 7.17658 20.146 
46 1 0.131021 8.48407 19.71 
51 1 -0.265988 7.19042 11.1338 
53 1 2.56582 7.07421 15.6075 
56 1 1.27448 7.17656 14.876 
63 1 -2.35759 6.25276 21.754 
66 1 -3.40375 6.79945 20.8669 
70 1 -0.16204 7.13931 12.6327 
72 1 0.496738 5.91458 12.9787 
92 1 0.919495 8.43197 14.2439 
95 1 -4.95386 10.3625 21.7288 
98 1 -4.65734 9.18898 20.834 
104 1 0.43224 9.2854 11.859 
116 1 -2.56835 8.79377 21.783 
118 1 -3.52358 8.33626 20.8962 
122 1 0.139778 8.46377 13.0525 
133 1 -3.39992 6.79674 11.9023 
136 1 0.337817 8.48719 22.0999 
147 1 0.506588 5.92946 19.8675 
153 1 -4.66056 9.17831 11.926 
160 1 0.919448 8.43493 18.5195 
1 1 7.84234 4.9699 10.5382 
4 1 9.15007 4.83281 11.0265 
20 1 7.83461 4.91646 9.0552 
42 1 9.46059 5.48177 7.44188 
67 1 9.9326 4.6133 0.789048 
77 1 7.81629 4.95303 0.0824626 
94 1 7.8078 4.93258 1.5595 
96 1 9.13584 4.71898 1.98942 
121 1 4.67455 5.52165 10.6765 
130 1 9.42932 5.47129 3.15738 
134 1 9.9412 4.61702 9.83772 
152 1 9.17672 4.68799 8.59646 
45 1 4.63778 5.53515 22.0881 
55 1 4.81338 5.53892 13.0774 
106 1 9.12936 4.85163 21.7508 
137 1 4.81851 5.54439 19.6935 
2 1 7.29315 10.504 9.04419 
3 1 9.00177 7.6501 6.09726 
6 1 8.51846 6.37125 6.73613 
16 1 2.36939 8.69768 0.865512 
22 1 7.19102 6.14164 8.65732 
26 1 7.22259 8.39313 7.53119 
35 1 7.29975 10.5015 10.4776 
37 1 6.86968 9.22405 11.0317 
39 1 8.30219 8.90591 6.71948 
41 1 6.5027 6.9551 9.82282 
48 1 3.69626 6.35261 0.846794 
61 1 7.28611 10.459 1.56631 
62 1 8.97725 7.64541 4.59135 
64 1 6.7208 9.182 1.98929 
68 1 7.38785 6.95004 3.07515 
71 1 4.33787 8.52271 10.7378 
74 1 3.60009 7.7736 9.80172 
81 1 8.50074 6.40643 3.8091 
83 1 6.53038 8.38261 0.809055 
93 1 7.26354 10.4926 0.120602 
97 1 8.29388 8.91047 3.86863 
101 1 2.40231 9.86769 10.6687 
103 1 2.37297 8.65849 9.75858 
117 1 7.06417 6.17364 1.93352 
120 1 7.2008 8.40051 3.09389 
123 1 3.75155 6.34191 9.80653 
129 1 6.68695 6.97642 0.784512 
132 1 6.74738 9.20713 8.62115 
135 1 7.45264 6.95503 7.54472 
141 1 7.17346 6.18077 10.9871 
144 1 6.56356 8.46219 9.81386 
148 1 3.59928 7.80746 0.825964 
161 2 5.56098 6.94031 9.13907 
162 3 5.1909 7.01587 8.19222 
7 1 9.16305 6.05132 11.9419 
10 1 3.77254 9.83867 21.6135 
13 1 2.41613 9.85987 22.0699 
15 1 3.02628 8.31956 17.8735 
28 1 3.71914 9.76223 20.1601 
30 1 4.46387 8.55701 19.7672 
34 1 4.33537 6.3242 18.601 
40 1 7.75545 8.37617 11.9171 
49 1 4.83664 7.75597 20.9123 
50 1 2.09496 9.25163 18.5195 
58 1 1.59509 10.1084 11.8439 
59 1 4.15816 7.7729 14.1505 
69 1 3.71472 9.76626 11.1669 
73 1 3.0279 8.33416 14.89 
75 1 4.98425 6.34215 11.8971 
79 1 7.19853 6.20687 21.8078 
82 1 7.91662 6.94657 20.8575 
86 1 3.74168 9.78363 12.6251 
88 1 2.39822 10.0223 13.0694 
108 1 9.15082 6.05686 20.8304 
112 1 4.47379 8.56838 13.0101 
115 1 4.33632 6.32356 14.1701 
124 1 4.84883 7.75181 11.8706 
125 1 2.09187 9.2521 14.243 
126 1 6.86684 9.19355 21.7466 
128 1 7.74525 8.37137 20.8458 
139 1 1.58818 10.123 20.9063 
140 1 4.16043 7.7673 18.6172 
143 1 7.94318 6.94318 11.8728 
146 1 4.32508 8.51495 22.0323 
149 1 4.99059 6.3321 20.8956 
157 1 2.3967 10.0222 19.6868 
ITEM: TIMESTEP
40
ITEM: NUMBER OF ATOMS
162
ITEM: BOX BOUNDS xy xz yz pp pp pp
-6.7755000000000001e+00 1.3552000000000000e+01 -6.7755000000000001e+00
0.0000000000000000e+00 1.1735510246683001e+01 0.0000000000000000e+00
0.0000000000000000e+00 2.2149999999999999e+01 0.0000000000000000e+00
ITEM: ATOMS id type x y z 
8 1 -2.45304 5.44891 9.83228 
87 1 2.92372 4.3681 10.6537 
90 1 2.60588 5.53335 9.74467 
109 1 -2.46042 5.4506 0.785942 
158 1 2.61882 5.45482 0.851243 
11 1 4.26502 4.26913 20.1005 
14 1 2.87308 4.16808 19.7058 
18 1 1.29073 5.86605 18.6046 
33 1 2.09129 4.21992 20.9103 
43 1 4.26586 4.27439 21.5401 
47 1 3.23225 5.80077 17.8247 
52 1 4.24592 4.26567 12.6471 
76 1 2.41732 4.9368 14.1935 
85 1 4.24806 4.25204 11.209 
89 1 3.23469 5.79973 14.9435 
91 1 0.912776 5.13243 11.8401 
102 1 2.85524 4.18142 13.0478 
105 1 1.2744 5.84462 14.2109 
114 1 2.05908 4.29761 11.8517 
150 1 2.40421 4.94456 18.5821 
156 1 2.94988 4.29918 22.1282 
159 1 0.938 5.03685 20.9294 
5 1 -4.86128 10.5496 8.63574 
9 1 -3.29857 8.87892 7.48236 
19 1 -1.75292 7.54704 10.5572 
21 1 -2.54801 8.79269 10.9878 
23 1 -3.29065 7.54242 6.77094 
25 1 -4.07414 10.4335 9.84276 
32 1 1.59432 6.40205 0.75901 
36 1 -1.84847 7.59817 9.0568 
38 1 -2.14415 6.2718 8.641 
54 1 0.330958 8.46499 10.6791 
57 1 1.36691 7.92468 9.78172 
60 1 -1.75691 7.54376 0.0555031 
65 1 -3.30197 7.55217 3.80656 
78 1 -1.84782 7.59104 1.5602 
80 1 -2.50876 8.80906 1.90806 
84 1 -4.44178 9.77621 3.12111 
99 1 -2.93701 9.59457 0.766278 
100 1 -2.94684 6.30466 3.17058 
107 1 -4.87356 10.5356 1.9766 
110 1 -3.29055 8.87517 3.1326 
111 1 0.511665 5.92903 10.7039 
113 1 1.46269 6.38558 9.80535 
119 1 -4.08287 10.4275 0.77772 
127 1 -2.15816 6.27233 1.98041 
131 1 -2.35567 6.26431 11.0105 
138 1 1.38917 7.94644 0.814986 
142 1 -2.51174 8.8138 8.70431 
145 1 -4.4321 9.77841 7.49887 
151 1 -4.93749 10.3644 11.0437 
154 1 -2.92999 9.59659 9.85039 
155 1 -2.9127 6.28934 7.44141 
12 1 2.56766 7.05961 17.15 
17 1 0.439912 9.28985 20.9106 
24 1 -3.50612 8.3395 11.8783 
27 1 -0.27994 7.21208 21.6267 
29 1 0.586751 5.95617 21.9581 
31 1 1.27917 7.1708 17.9101 
44 1 -0.201029 7.17043 20.1427 
46 1 0.126876 8.47659 19.7117 
51 1 -0.269776 7.17959 11.1356 
53 1 2.57002 7.06933 15.6129 
56 1 1.27732 7.18137 14.8748 
63 1 -2.36065 6.26136 21.7553 
66 1 -3.40543 6.79661 20.865 
70 1 -0.171284 7.13067 12.6358 
72 1 0.489261 5.91221 12.9873 
92 1 0.919406 8.4315 14.2441 
95 1 -4.95058 10.3474 21.7293 
98 1 -4.65736 9.17887 20.829 
104 1 0.440646 9.27494 11.8591 
116 1 -2.55434 8.79308 21.7784 
118 1 -3.51025 8.33878 20.8877 
122 1 0.134547 8.45487 13.0518 
133 1 -3.40212 6.79517 11.9064 
136 1 0.340164 8.48353 22.0978 
147 1 0.496929 5.92419 19.8606 
153 1 -4.65761 9.17221 11.9324 
160 1 0.918706 8.43401 18.5215 
1 1 7.83581 4.97199 10.5376 
4 1 9.13697 4.84414 11.0265 
20 1 7.8238 4.91699 9.05732 
42 1 9.46287 5.48283 7.44294 
67 1 9.93015 4.62764 0.780164 
77 1 7.79675 4.95303 0.0855229 
94 1 7.78001 4.94244 1.55305 
96 1 9.12272 4.71864 1.99163 
121 1 4.66127 5.53286 10.6819 
130 1 9.4292 5.48436 3.16709 
134 1 9.93439 4.62884 9.83604 
152 1 9.16965 4.6934 8.59703 
45 1 4.62925 5.54482 22.0871 
55 1 4.80921 5.5492 13.0783 
106 1 9.11879 4.86405 21.7542 
137 1 4.81831 5.55739 19.6929 
2 1 7.30136 10.4947 9.04115 
3 1 8.99377 7.64805 6.09448 
6 1 8.53487 6.38016 6.72376 
16 1 2.38013 8.69497 0.869513 
22 1 7.18029 6.13777 8.65816 
26 1 7.22634 8.39352 7.52909 
35 1 7.3083 10.4888 10.4726 
37 1 6.87041 9.2115 11.0331 
39 1 8.30855 8.90629 6.71894 
41 1 6.48812 6.94874 9.81801 
48 1 3.6858 6.3562 0.857897 
61 1 7.29257 10.4477 1.56617 
62 1 8.97157 7.64821 4.595 
64 1 6.72497 9.16826 1.99378 
68 1 7.37534 6.94741 3.07658 
71 1 4.34797 8.52083 10.7359 
74 1 3.60466 7.77931 9.7972 
81 1 8.50334 6.40372 3.81486 
83 1 6.52734 8.37974 0.808644 
93 1 7.2718 10.4752 0.123221 
97 1 8.3012 8.90695 3.86884 
101 1 2.41496 9.85754 10.6716 
103 1 2.37645 8.65663 9.75581 
117 1 7.05297 6.16276 1.93453 
120 1 7.20121 8.39761 3.09638 
123 1 3.7478 6.34354 9.80211 
129 1 6.67756 6.96376 0.786639 
132 1 6.75329 9.19239 8.61628 
135 1 7.44215 6.95245 7.54377 
141 1 7.16624 6.18108 10.9878 
144 1 6.56483 8.45095 9.81417 
148 1 3.60436 7.81255 0.833652 
161 2 5.55415 6.9373 9.12635 
162 3 5.17119 7.01962 8.18658 
7 1 9.15893 6.0508 11.9416 
10 1 3.78649 9.83868 21.6215 
13 1 2.43401 9.86123 22.0657 
15 1 3.02944 8.31939 17.8762 
28 1 3.73756 9.76457 20.1538 
30 1 4.47682 8.55812 19.7606 
34 1 4.33268 6.3298 18.5948 
40 1 7.75717 8.36993 11.9234 
49 1 4.84583 7.76203 20.9134 
50 1 2.09892 9.24628 18.5203 
58 1 1.6035 10.0953 11.8484 
59 1 4.16482 7.77857 14.1534 
69 1 3.72808 9.76581 11.1682 
73 1 3.02736 8.33151 14.8872 
75 1 4.98275 6.34483 11.8979 
79 1 7.19136 6.20936 21.8046 
82 1 7.90709 6.94302 20.8513 
86 1 3.75575 9.78451 12.6272 
88 1 2.41114 10.0127 13.0666 
108 1 9.14397 6.06283 20.8295 
112 1 4.48793 8.56961 13.0172 
115 1 4.3335 6.33037 14.1752 
124 1 4.85722 7.76249 11.873 
125 1 2.09522 9.25014 14.2395 
126 1 6.8666 9.18043 21.7471 
128 1 7.74504 8.36961 20.8406 
139 1 1.59921 10.1101 20.903 
140 1 4.165 7.77447 18.6141 
143 1 7.92955 6.94277 11.8781 
146 1 4.33307 8.51903 22.0358 
149 1 4.98994 6.33978 20.8943 
157 1 2.40878 10.0135 19.6877 
ITEM: TIMESTEP
50
ITEM: NUMBER OF ATOMS
162
ITEM: BOX BOUNDS xy xz yz pp pp pp
-6.7755000000000001e+00 1.3552000000000000e+01 -6.7755000000000001e+00
0.0000000000000000e+00 1.1735510246683001e+01 0.0000000000000000e+00
0.0000000000000000e+00 2.2149999999999999e+01 0.0000000000000000e+00
ITEM: ATOMS id type x y z 
8 1 -2.47189 5.4782 9.82923 
87 1 2.90208 4.39561 10.6476 
90 1 2.581 5.55743 9.72527 
109 1 -2.48222 5.4823 0.790324 
158 1 2.60951 5.47943 0.875073 
11 1 4.24924 4.30724 20.0877 
14 1 2.85554 4.17504 19.7102 
18 1 1.28197 5.8782 18.6084 
33 1 2.07802 4.22145 20.9264 
43 1 4.25358 4.30109 21.5297 
47 1 3.22674 5.78939 17.8402 
52 1 4.22493 4.29881 12.6633 
76 1 2.38951 4.92101 14.1957 
85 1 4.21612 4.28869 11.2318 
89 1 3.22387 5.79163 14.928 
91 1 0.869995 5.13064 11.8396 
102 1 2.82824 4.19598 13.0471 
105 1 1.25961 5.85416 14.216 
114 1 2.03823 4.32419 11.8359 
150 1 2.38153 4.93719 18.5872 
156 1 2.94051 4.32109 22.1198 
159 1 0.908822 5.02391 20.9275 
5 1 -4.8312 10.5358 8.64084 
9 1 -3.27838 8.86477 7.47085 
19 1 -1.74756 7.57017 10.5528 
21 1 -2.52369 8.80452 11.0055 
23 1 -3.27635 7.53683 6.76907 
25 1 -4.04965 10.4094 9.85393 
32 1 1.56788 6.38337 0.764135 
36 1 -1.81616 7.62402 9.04569 
38 1 -2.13264 6.30249 8.63882 
54 1 0.340985 8.44063 10.6811 
57 1 1.36699 7.91955 9.76829 
60 1 -1.74835 7.56829 0.0658228 
65 1 -3.30217 7.54198 3.81136 
78 1 -1.82138 7.61551 1.57025 
80 1 -2.48553 8.82703 1.92909 
84 1 -4.41457 9.79113 3.12405 
99 1 -2.89585 9.59455 0.764013 
100 1 -2.94088 6.30227 3.16768 
107 1 -4.85074 10.5162 1.96899 
110 1 -3.27596 8.87216 3.1399 
111 1 0.485564 5.9179 10.6915 
113 1 1.42433 6.37386 9.77896 
119 1 -4.0642 10.3969 0.764746 
127 1 -2.14801 6.29914 1.97766 
131 1 -2.36444 6.28741 11.0034 
138 1 1.40291 7.95322 0.824508 
142 1 -2.48935 8.8296 8.68646 
145 1 -4.40467 9.79597 7.48982 
151 1 -4.91768 10.3264 11.0466 
154 1 -2.88769 9.59817 9.85261 
155 1 -2.90508 6.28037 7.44085 
12 1 2.56868 7.04156 17.1487 
17 1 0.457597 9.26183 20.9084 
24 1 -3.4746 8.35029 11.9034 
27 1 -0.287957 7.19935 21.6181 
29 1 0.565294 5.94341 21.9601 
31 1 1.28613 7.17544 17.9181 
44 1 -0.228054 7.15297 20.135 
46 1 0.110213 8.45853 19.7153 
51 1 -0.281725 7.15738 11.1463 
53 1 2.57337 7.05635 15.6275 
56 1 1.28709 7.18965 14.8767 
63 1 -2.37134 6.28348 21.76 
66 1 -3.40389 6.79647 20.8522 
70 1 -0.200627 7.10951 12.644 
72 1 0.466542 5.8962 13.0047 
92 1 0.914806 8.43828 14.2411 
95 1 -4.9401 10.3089 21.7258 
98 1 -4.6404 9.14302 20.8066 
104 1 0.4606 9.24173 11.8628 
116 1 -2.52871 8.80375 21.7632 
118 1 -3.47834 8.34685 20.8653 
122 1 0.121051 8.43067 13.0502 
133 1 -3.40746 6.79686 11.9236 
136 1 0.350598 8.46692 22.091 
147 1 0.466102 5.9052 19.8615 
153 1 -4.63505 9.14708 11.9544 
160 1 0.912849 8.44533 18.5285 
1 1 7.80308 4.97529 10.528 
4 1 9.10723 4.86678 11.0269 
20 1 7.79085 4.91228 9.06142 
42 1 9.47831 5.4825 7.4436 
67 1 9.89386 4.67868 0.781866 
77 1 7.73905 4.93954 0.0799656 
94 1 7.73869 4.9493 1.5512 
96 1 9.08116 4.73574 1.99452 
121 1 4.63545 5.56318 10.6883 
130 1 9.42103 5.49202 3.16174 
134 1 9.91259 4.66811 9.83368 
152 1 9.14442 4.71422 8.59714 
45 1 4.60791 5.57434 22.0781 
55 1 4.80363 5.57718 13.0901 
106 1 9.07563 4.89539 21.7593 
137 1 4.81489 5.59092 19.6848 
2 1 7.32694 10.4548 9.03198 
3 1 8.99387 7.6389 6.09156 
6 1 8.53984 6.38746 6.72494 
16 1 2.40505 8.68264 0.873108 
22 1 7.14301 6.12921 8.64374 
26 1 7.24504 8.38372 7.50758 
35 1 7.33194 10.4477 10.4634 
37 1 6.88457 9.18249 11.0319 
39 1 8.32129 8.92904 6.73951 
41 1 6.44315 6.92772 9.80108 
48 1 3.66172 6.37685 0.887824 
61 1 7.30581 10.413 1.57361 
62 1 8.96753 7.66134 4.59459 
64 1 6.72997 9.13575 2.00051 
68 1 7.34977 6.92624 3.09034 
71 1 4.38024 8.52033 10.7329 
74 1 3.6232 7.79603 9.78569 
81 1 8.49314 6.4066 3.81445 
83 1 6.51927 8.36308 0.810283 
93 1 7.29769 10.4239 0.137766 
97 1 8.31063 8.91732 3.85439 
101 1 2.45403 9.83664 10.6798 
103 1 2.38382 8.6498 9.74843 
117 1 7.00383 6.14826 1.95214 
120 1 7.20955 8.37834 3.11285 
123 1 3.72929 6.36258 9.78424 
129 1 6.64136 6.93979 0.789975 
132 1 6.76682 9.15905 8.61188 
135 1 7.42152 6.93012 7.52861 
141 1 7.14275 6.18683 10.9894 
144 1 6.57372 8.42282 9.81318 
148 1 3.62974 7.82699 0.858443 
161 2 5.52998 6.93194 9.0867 
162 3 5.11205 7.02946 8.15935 
7 1 9.14815 6.05892 11.9451 
10 1 3.81044 9.83521 21.6175 
13 1 2.47544 9.87832 22.0603 
15 1 3.03689 8.31695 17.8854 
28 1 3.79887 9.7755 20.13 
30 1 4.51622 8.57526 19.7472 
34 1 4.33183 6.34509 18.5788 
40 1 7.76201 8.34835 11.9389 
49 1 4.875 7.78586 20.9184 
50 1 2.10616 9.23809 18.526 
58 1 1.63267 10.0526 11.8532 