
     Program PWSCF v.7.1 starts on 25May2025 at  0:52:10 

     This program is part of the open-source Quantum ESPRESSO suite
     for quantum simulation of materials; please cite
         "P. Giannozzi et al., J. Phys.:Condens. Matter 21 395502 (2009);
         "P. Giannozzi et al., J. Phys.:Condens. Matter 29 465901 (2017);
         "P. Giannozzi et al., J. Chem. Phys. 152 154105 (2020);
          URL http://www.quantum-espresso.org", 
     in publications or presentations arising from this work. More details at
     http://www.quantum-espresso.org/quote

     Parallel version (MPI), running on    16 processors

     MPI processes distributed on     1 nodes
     246436 MiB available memory on the printing compute node when the environment starts

     Reading input from input.pwi
Warning: card &CELL ignored
Warning: card / ignored
Warning: card &FCP ignored
Warning: card / ignored
Warning: card &RISM ignored
Warning: card / ignored

     Current dimensions of program PWSCF are:
     Max number of different atomic species (ntypx) = 10
     Max number of k-points (npk) =  40000
     Max angular momentum in pseudopotentials (lmaxx) =  4
     file C.pbe-n-kjpaw_psl.1.0.0.UPF: wavefunction(s)  2S 2P renormalized
     file O.pbe-n-kjpaw_psl.0.1.UPF: wavefunction(s)  2P renormalized

     IMPORTANT: XC functional enforced from input :
     Exchange-correlation= PBE
                           (   1   4   3   4   0   0   0)
     Any further DFT definition will be discarded
     Please, verify this is what you really want


     gamma-point specific algorithms are used

     R & G space division:  proc/nbgrp/npool/nimage =      16
     Subspace diagonalization in iterative solution of the eigenvalue problem:
     a serial algorithm will be used


     Parallelization info
     --------------------
     sticks:   dense  smooth     PW     G-vecs:    dense   smooth      PW
     Min         858     428    106                75870    26832    3354
     Max         860     430    108                75880    26846    3360
     Sum       13753    6869   1725              1214029   429409   53715

     Using Slab Decomposition



     bravais-lattice index     =            0
     lattice parameter (alat)  =      20.7870  a.u.
     unit-cell volume          =    8983.6663 (a.u.)^3
     number of atoms/cell      =           49
     number of atomic types    =            2
     number of electrons       =       198.00 (up:  99.00, down:  99.00)
     number of Kohn-Sham states=          119
     kinetic-energy cutoff     =      50.0000  Ry
     charge density cutoff     =     400.0000  Ry
     scf convergence threshold =      1.0E-06
     mixing beta               =       0.3000
     number of iterations used =            8  plain     mixing
     energy convergence thresh.=      1.0E-04
     force convergence thresh. =      1.0E-03
     Exchange-correlation= PBE
                           (   1   4   3   4   0   0   0)
     nstep                     =         1000


     celldm(1)=  20.786987  celldm(2)=   0.000000  celldm(3)=   0.000000
     celldm(4)=   0.000000  celldm(5)=   0.000000  celldm(6)=   0.000000

     crystal axes: (cart. coord. in units of alat)
               a(1) = (   1.000000   0.000000   0.000000 )  
               a(2) = (   0.000000   1.000182   0.000000 )  
               a(3) = (   0.000000   0.000000   1.000000 )  

     reciprocal axes: (cart. coord. in units 2 pi/alat)
               b(1) = (  1.000000  0.000000  0.000000 )  
               b(2) = (  0.000000  0.999818  0.000000 )  
               b(3) = (  0.000000  0.000000  1.000000 )  


     PseudoPot. # 1 for C  read from file:
     /home/ana.bisette/espresso/pseudo/C.pbe-n-kjpaw_psl.1.0.0.UPF
     MD5 check sum: 5d2aebdfa2cae82b50a7e79e9516da0f
     Pseudo is Projector augmented-wave + core cor, Zval =  4.0
     Generated using "atomic" code by A. Dal Corso  v.5.1
     Shape of augmentation charge: PSQ
     Using radial grid of 1073 points,  4 beta functions with: 
                l(1) =   0
                l(2) =   0
                l(3) =   1
                l(4) =   1
     Q(r) pseudized with 0 coefficients 


     PseudoPot. # 2 for O  read from file:
     /home/ana.bisette/espresso/pseudo/O.pbe-n-kjpaw_psl.0.1.UPF
     MD5 check sum: 0234752ac141de4415c5fc33072bef88
     Pseudo is Projector augmented-wave + core cor, Zval =  6.0
     Generated using "atomic" code by A. Dal Corso  v.5.0.99 svn rev. 10869
     Shape of augmentation charge: BESSEL
     Using radial grid of 1095 points,  4 beta functions with: 
                l(1) =   0
                l(2) =   0
                l(3) =   1
                l(4) =   1
     Q(r) pseudized with 0 coefficients 


     atomic species   valence    mass     pseudopotential
        C              4.00    12.01100     C ( 1.00)
        O              6.00    15.99900     O ( 1.00)

     Starting magnetic structure 
     atomic species   magnetization
        C            0.000
        O            0.000

     No symmetry found



   Cartesian axes

     site n.     atom                  positions (alat units)
         1           C   tau(   1) = (   0.5607273   0.4189091   0.5608182  )
         2           C   tau(   2) = (   0.6985455   0.2805455   0.6985455  )
         3           C   tau(   3) = (   0.6340000   0.3453636   0.6340000  )
         4           C   tau(   4) = (   0.4189091   0.5608182   0.5608182  )
         5           C   tau(   5) = (   0.2805455   0.6985455   0.6985455  )
         6           C   tau(   6) = (   0.3453636   0.6340000   0.6340000  )
         7           C   tau(   7) = (   0.5608182   0.5608182   0.4189091  )
         8           C   tau(   8) = (   0.6985455   0.6985455   0.2805455  )
         9           C   tau(   9) = (   0.6340000   0.6340000   0.3453636  )
        10           C   tau(  10) = (   0.4184545   0.4184545   0.4184545  )
        11           C   tau(  11) = (   0.2804545   0.2804545   0.2804545  )
        12           C   tau(  12) = (   0.3450909   0.3450909   0.3450909  )
        13           C   tau(  13) = (   0.5659091   0.4132727   0.4132727  )
        14           C   tau(  14) = (   0.7058182   0.2739091   0.2739091  )
        15           C   tau(  15) = (   0.6411818   0.3382727   0.3383636  )
        16           C   tau(  16) = (   0.4132727   0.5659091   0.4132727  )
        17           C   tau(  17) = (   0.2739091   0.7059091   0.2739091  )
        18           C   tau(  18) = (   0.3382727   0.6411818   0.3383636  )
        19           C   tau(  19) = (   0.4132727   0.4131818   0.5660000  )
        20           C   tau(  20) = (   0.2739091   0.2739091   0.7058182  )
        21           C   tau(  21) = (   0.3382727   0.3382727   0.6411818  )
        22           C   tau(  22) = (   0.5662727   0.5662727   0.5662727  )
        23           C   tau(  23) = (   0.7058182   0.7059091   0.7059091  )
        24           C   tau(  24) = (   0.6413636   0.6414545   0.6413636  )
        25           C   tau(  25) = (   0.0607273   0.9184545   0.0607273  )
        26           C   tau(  26) = (   0.1989091   0.7808182   0.1989091  )
        27           C   tau(  27) = (   0.1341818   0.8452727   0.1341818  )
        28           C   tau(  28) = (   0.9183636   0.0606364   0.0607273  )
        29           C   tau(  29) = (   0.7808182   0.1988182   0.1989091  )
        30           C   tau(  30) = (   0.8452727   0.1340909   0.1341818  )
        31           C   tau(  31) = (   0.0607273   0.0606364   0.9184545  )
        32           C   tau(  32) = (   0.1988182   0.1988182   0.7808182  )
        33           C   tau(  33) = (   0.1341818   0.1340909   0.8452727  )
        34           C   tau(  34) = (   0.9189091   0.9189091   0.9188182  )
        35           C   tau(  35) = (   0.7809091   0.7809091   0.7809091  )
        36           C   tau(  36) = (   0.8455455   0.8455455   0.8454545  )
        37           C   tau(  37) = (   0.0662727   0.9132727   0.9132727  )
        38           C   tau(  38) = (   0.2053636   0.7735455   0.7734545  )
        39           C   tau(  39) = (   0.1410909   0.8380909   0.8380909  )
        40           C   tau(  40) = (   0.9131818   0.0661818   0.9132727  )
        41           C   tau(  41) = (   0.7734545   0.2053636   0.7734545  )
        42           C   tau(  42) = (   0.8380000   0.1410000   0.8380000  )
        43           C   tau(  43) = (   0.9132727   0.9133636   0.0662727  )
        44           C   tau(  44) = (   0.7734545   0.7735455   0.2053636  )
        45           C   tau(  45) = (   0.8380909   0.8380909   0.1410909  )
        46           C   tau(  46) = (   0.0660000   0.0659091   0.0659091  )
        47           C   tau(  47) = (   0.2054545   0.2053636   0.2054545  )
        48           C   tau(  48) = (   0.1410000   0.1409091   0.1409091  )
        49           O   tau(  49) = (   0.1795455   0.8184545   0.3145455  )

     number of k points=     1  Gaussian smearing, width (Ry)=  0.0001
                       cart. coord. in units 2pi/alat
        k(    1) = (   0.0000000   0.0000000   0.0000000), wk =   1.0000000

     Dense  grid:   607015 G-vectors     FFT dimensions: ( 135, 135, 135)

     Smooth grid:   214705 G-vectors     FFT dimensions: (  96,  96,  96)

     Estimated max dynamical RAM per process >     173.67 MB

     Estimated total dynamical RAM >       2.71 GB

     Check: negative core charge=   -0.000004
     Generating pointlists ...
     new r_m :   0.0461 (alat units)  0.9573 (a.u.) for type    1
     new r_m :   0.0508 (alat units)  1.0559 (a.u.) for type    2

     Initial potential from superposition of free atoms

     starting charge     197.9980, renormalised to     198.0000
     Starting wfcs are  196 randomized atomic wfcs
     Checking if some PAW data can be deallocated... 

     total cpu time spent up to now is        2.9 secs

     Self-consistent Calculation

     iteration #  1     ecut=    50.00 Ry     beta= 0.30
     Davidson diagonalization with overlap
     ethr =  1.00E-02,  avg # of iterations =  2.0

     total cpu time spent up to now is        5.4 secs

     total energy              =    -923.44034949 Ry
     estimated scf accuracy    <       5.34655839 Ry

     total magnetization       =    -0.00 Bohr mag/cell
     absolute magnetization    =     0.07 Bohr mag/cell

     iteration #  2     ecut=    50.00 Ry     beta= 0.30
     Davidson diagonalization with overlap
     ethr =  2.70E-03,  avg # of iterations =  1.0

     negative rho (up, down):  2.779E-08 2.811E-08

     total cpu time spent up to now is        7.3 secs

     total energy              =    -922.68830403 Ry
     estimated scf accuracy    <       2.51220506 Ry

     total magnetization       =    -0.00 Bohr mag/cell
     absolute magnetization    =     0.05 Bohr mag/cell

     iteration #  3     ecut=    50.00 Ry     beta= 0.30
     Davidson diagonalization with overlap
     ethr =  1.27E-03,  avg # of iterations =  2.0

     negative rho (up, down):  6.282E-07 6.288E-07

     total cpu time spent up to now is        9.3 secs

     total energy              =    -922.82898142 Ry
     estimated scf accuracy    <       2.01634039 Ry

     total magnetization       =    -0.00 Bohr mag/cell
     absolute magnetization    =     0.04 Bohr mag/cell

     iteration #  4     ecut=    50.00 Ry     beta= 0.30
     Davidson diagonalization with overlap
     ethr =  1.02E-03,  avg # of iterations =  1.0

     negative rho (up, down):  6.396E-07 6.451E-07

     total cpu time spent up to now is       11.2 secs

     total energy              =    -922.96374135 Ry
     estimated scf accuracy    <       0.42018444 Ry

     total magnetization       =    -0.00 Bohr mag/cell
     absolute magnetization    =     0.03 Bohr mag/cell

     iteration #  5     ecut=    50.00 Ry     beta= 0.30
     Davidson diagonalization with overlap
     ethr =  2.12E-04,  avg # of iterations =  1.0

     negative rho (up, down):  6.617E-07 6.661E-07

     total cpu time spent up to now is       13.1 secs

     total energy              =    -922.93854309 Ry
     estimated scf accuracy    <       0.20588111 Ry

     total magnetization       =    -0.00 Bohr mag/cell
     absolute magnetization    =     0.02 Bohr mag/cell

     iteration #  6     ecut=    50.00 Ry     beta= 0.30
     Davidson diagonalization with overlap
     ethr =  1.04E-04,  avg # of iterations =  4.0

     negative rho (up, down):  7.385E-07 7.405E-07

     total cpu time spent up to now is       15.3 secs

     total energy              =    -922.95547078 Ry
     estimated scf accuracy    <       0.01793091 Ry

     total magnetization       =    -0.00 Bohr mag/cell
     absolute magnetization    =     0.02 Bohr mag/cell

     iteration #  7     ecut=    50.00 Ry     beta= 0.30
     Davidson diagonalization with overlap
     ethr =  9.06E-06,  avg # of iterations =  5.0

     negative rho (up, down):  9.528E-07 9.539E-07

     total cpu time spent up to now is       17.8 secs

     total energy              =    -922.95559516 Ry
     estimated scf accuracy    <       0.02026484 Ry

     total magnetization       =    -0.00 Bohr mag/cell
     absolute magnetization    =     0.01 Bohr mag/cell

     iteration #  8     ecut=    50.00 Ry     beta= 0.30
     Davidson diagonalization with overlap
     ethr =  9.06E-06,  avg # of iterations =  2.0

     negative rho (up, down):  1.156E-06 1.158E-06

     total cpu time spent up to now is       19.8 secs

     total energy              =    -922.95707458 Ry
     estimated scf accuracy    <       0.00137541 Ry

     total magnetization       =    -0.00 Bohr mag/cell
     absolute magnetization    =     0.01 Bohr mag/cell

     iteration #  9     ecut=    50.00 Ry     beta= 0.30
     Davidson diagonalization with overlap
     ethr =  6.95E-07,  avg # of iterations = 14.0

     negative rho (up, down):  1.134E-06 1.135E-06

     total cpu time spent up to now is       22.8 secs

     total energy              =    -922.95696428 Ry
     estimated scf accuracy    <       0.00304610 Ry

     total magnetization       =     0.00 Bohr mag/cell
     absolute magnetization    =     0.01 Bohr mag/cell

     iteration # 10     ecut=    50.00 Ry     beta= 0.30
     Davidson diagonalization with overlap
     ethr =  6.95E-07,  avg # of iterations =  3.0

     negative rho (up, down):  1.123E-06 1.124E-06

     total cpu time spent up to now is       24.8 secs

     total energy              =    -922.95723520 Ry
     estimated scf accuracy    <       0.00005975 Ry

     total magnetization       =     0.00 Bohr mag/cell
     absolute magnetization    =     0.01 Bohr mag/cell

     iteration # 11     ecut=    50.00 Ry     beta= 0.30
     Davidson diagonalization with overlap
     ethr =  3.02E-08,  avg # of iterations =  4.0

     negative rho (up, down):  1.137E-06 1.137E-06

     total cpu time spent up to now is       27.1 secs

     total energy              =    -922.95724427 Ry
     estimated scf accuracy    <       0.00000857 Ry

     total magnetization       =    -0.00 Bohr mag/cell
     absolute magnetization    =     0.01 Bohr mag/cell

     iteration # 12     ecut=    50.00 Ry     beta= 0.30
     Davidson diagonalization with overlap
     ethr =  4.33E-09,  avg # of iterations =  4.0

     negative rho (up, down):  1.139E-06 1.139E-06

     total cpu time spent up to now is       29.5 secs

     total energy              =    -922.95724585 Ry
     estimated scf accuracy    <       0.00000176 Ry

     total magnetization       =    -0.00 Bohr mag/cell
     absolute magnetization    =     0.01 Bohr mag/cell

     iteration # 13     ecut=    50.00 Ry     beta= 0.30
     Davidson diagonalization with overlap
     ethr =  8.91E-10,  avg # of iterations =  3.0

     negative rho (up, down):  1.143E-06 1.143E-06

     Magnetic moment per site  (integrated on atomic sphere of radius R)
     atom   1 (R=0.046)  charge=  1.1270  magn= -0.0000
     atom   2 (R=0.046)  charge=  1.1716  magn= -0.0000
     atom   3 (R=0.046)  charge=  1.1950  magn=  0.0000
     atom   4 (R=0.046)  charge=  1.1300  magn=  0.0000
     atom   5 (R=0.046)  charge=  1.1719  magn=  0.0001
     atom   6 (R=0.046)  charge=  1.1941  magn= -0.0001
     atom   7 (R=0.046)  charge=  1.1278  magn= -0.0000
     atom   8 (R=0.046)  charge=  1.1716  magn= -0.0000
     atom   9 (R=0.046)  charge=  1.1949  magn=  0.0000
     atom  10 (R=0.046)  charge=  1.1277  magn=  0.0000
     atom  11 (R=0.046)  charge=  1.1719  magn=  0.0000
     atom  12 (R=0.046)  charge=  1.1943  magn= -0.0000
     atom  13 (R=0.046)  charge=  1.1178  magn=  0.0000
     atom  14 (R=0.046)  charge=  1.1718  magn= -0.0000
     atom  15 (R=0.046)  charge=  1.1838  magn=  0.0000
     atom  16 (R=0.046)  charge=  1.1123  magn= -0.0000
     atom  17 (R=0.046)  charge=  1.1690  magn= -0.0001
     atom  18 (R=0.046)  charge=  1.1933  magn=  0.0002
     atom  19 (R=0.046)  charge=  1.1182  magn=  0.0000
     atom  20 (R=0.046)  charge=  1.1724  magn=  0.0000
     atom  21 (R=0.046)  charge=  1.1841  magn= -0.0001
     atom  22 (R=0.046)  charge=  1.1172  magn=  0.0000
     atom  23 (R=0.046)  charge=  1.1712  magn= -0.0000
     atom  24 (R=0.046)  charge=  1.1828  magn=  0.0000
     atom  25 (R=0.046)  charge=  1.1231  magn=  0.0000
     atom  26 (R=0.046)  charge=  1.2129  magn=  0.0001
     atom  27 (R=0.046)  charge=  1.2057  magn= -0.0003
     atom  28 (R=0.046)  charge=  1.1275  magn=  0.0000
     atom  29 (R=0.046)  charge=  1.1717  magn=  0.0000
     atom  30 (R=0.046)  charge=  1.1963  magn= -0.0000
     atom  31 (R=0.046)  charge=  1.1272  magn=  0.0000
     atom  32 (R=0.046)  charge=  1.1717  magn=  0.0000
     atom  33 (R=0.046)  charge=  1.1968  magn= -0.0000
     atom  34 (R=0.046)  charge=  1.1278  magn=  0.0000
     atom  35 (R=0.046)  charge=  1.1705  magn=  0.0000
     atom  36 (R=0.046)  charge=  1.1968  magn= -0.0000
     atom  37 (R=0.046)  charge=  1.1156  magn= -0.0000
     atom  38 (R=0.046)  charge=  1.1693  magn= -0.0000
     atom  39 (R=0.046)  charge=  1.1865  magn=  0.0000
     atom  40 (R=0.046)  charge=  1.1185  magn= -0.0000
     atom  41 (R=0.046)  charge=  1.1706  magn=  0.0000
     atom  42 (R=0.046)  charge=  1.1849  magn= -0.0000
     atom  43 (R=0.046)  charge=  1.1195  magn= -0.0000
     atom  44 (R=0.046)  charge=  1.1704  magn=  0.0000
     atom  45 (R=0.046)  charge=  1.1849  magn= -0.0000
     atom  46 (R=0.046)  charge=  1.1190  magn= -0.0000
     atom  47 (R=0.046)  charge=  1.1706  magn= -0.0000
     atom  48 (R=0.046)  charge=  1.1857  magn=  0.0000
     atom  49 (R=0.051)  charge=  3.5165  magn=  0.0002

     total cpu time spent up to now is       31.6 secs

     End of self-consistent calculation

 ------ SPIN UP ------------


          k = 0.0000 0.0000 0.0000 ( 26858 PWs)   bands (ev):

   -23.7082 -21.6834 -21.5530 -17.6813 -17.6332 -17.6095 -17.4856 -17.4717
   -17.4555 -16.8912 -16.8399 -16.8038 -16.7299 -16.4579 -16.2688 -16.1074
   -16.0684 -15.9796 -15.9375 -15.8547 -15.7017 -15.4492 -14.9280 -14.7225
   -14.6842 -14.1802 -14.1403 -13.9610 -13.5233 -13.1372 -13.0444 -12.9874
   -12.9526 -12.3958 -12.1404 -11.9235 -11.8870 -11.6810 -11.2374 -10.9350
   -10.8931 -10.6941 -10.3899 -10.0804 -10.0452 -10.0229  -9.6191  -9.6171
    -9.5842  -9.5467  -9.5165  -9.4876  -9.4830  -7.6427  -7.5929  -7.0011
    -6.9209  -6.8143  -6.6867  -6.6737  -6.6512  -6.3733  -6.2526  -6.2197
    -6.0793  -5.9642  -5.9547  -5.6381  -5.6039  -5.5731  -5.5673  -5.4840
    -5.4455  -5.4384  -5.3068  -5.2877  -4.8992  -4.8825  -4.7760  -4.5054
    -4.4845  -4.3446  -4.0068  -3.9518  -3.8586  -3.6989  -3.6209  -3.5288
    -3.4743  -3.3160  -3.2057  -3.0731  -3.0691  -3.0194  -2.6024  -2.4750
    -2.1190  -2.0860  -1.8279  -1.1040  -0.2915  -0.2117  -0.0100   0.5321
     0.6138   0.7602   1.1525   1.1609   1.2176   1.2845   1.4808   1.6016
     2.1662   2.1756   2.2051   2.3469   2.4643   2.5216   2.5475

 ------ SPIN DOWN ----------


          k = 0.0000 0.0000 0.0000 ( 26858 PWs)   bands (ev):

   -23.7081 -21.6834 -21.5529 -17.6813 -17.6332 -17.6096 -17.4856 -17.4717
   -17.4556 -16.8911 -16.8399 -16.8038 -16.7299 -16.4581 -16.2687 -16.1074
   -16.0684 -15.9796 -15.9374 -15.8547 -15.7017 -15.4492 -14.9280 -14.7225
   -14.6842 -14.1801 -14.1403 -13.9610 -13.5233 -13.1372 -13.0444 -12.9874
   -12.9526 -12.3958 -12.1404 -11.9235 -11.8870 -11.6810 -11.2374 -10.9350
   -10.8931 -10.6941 -10.3899 -10.0804 -10.0452 -10.0229  -9.6192  -9.6172
    -9.5842  -9.5467  -9.5165  -9.4875  -9.4830  -7.6427  -7.5931  -7.0012
    -6.9208  -6.8143  -6.6867  -6.6736  -6.6512  -6.3733  -6.2526  -6.2197
    -6.0792  -5.9642  -5.9547  -5.6379  -5.6039  -5.5731  -5.5673  -5.4839
    -5.4455  -5.4384  -5.3067  -5.2877  -4.8991  -4.8824  -4.7759  -4.5054
    -4.4845  -4.3446  -4.0068  -3.9518  -3.8586  -3.6989  -3.6209  -3.5288
    -3.4743  -3.3160  -3.2058  -3.0731  -3.0691  -3.0195  -2.6024  -2.4750
    -2.1190  -2.0860  -1.8277  -1.1047  -0.2915  -0.2117  -0.0101   0.5321
     0.6138   0.7601   1.1524   1.1609   1.2175   1.2845   1.4807   1.6016
     2.1663   2.1756   2.2052   2.3469   2.4643   2.5215   2.5475

     the spin up/dw Fermi energies are    -1.5456   -1.5456 ev

!    total energy              =    -922.95724577 Ry
     total all-electron energy =     -3804.480834 Ry
     estimated scf accuracy    <       0.00000081 Ry
     smearing contrib. (-TS)   =      -0.00000000 Ry
     internal energy E=F+TS    =    -922.95724577 Ry

     The total energy is F=E-TS. E is the sum of the following terms:
     one-electron contribution =   -1261.94233740 Ry
     hartree contribution      =     677.06986546 Ry
     xc contribution           =    -225.64647672 Ry
     ewald contribution        =     193.14472670 Ry
     one-center paw contrib.   =    -305.58302381 Ry

     total magnetization       =    -0.00 Bohr mag/cell
     absolute magnetization    =     0.01 Bohr mag/cell

     convergence has been achieved in  13 iterations

     negative rho (up, down):  1.143E-06 1.143E-06

     Forces acting on atoms (cartesian axes, Ry/au):

     atom    1 type  1   force =     0.01420322   -0.01815998    0.02032197
     atom    2 type  1   force =     0.04656638   -0.04688797    0.04657736
     atom    3 type  1   force =     0.03961277   -0.03982154    0.03964559
     atom    4 type  1   force =    -0.01910780    0.01410243    0.05256304
     atom    5 type  1   force =    -0.05787569    0.05749125    0.05478868
     atom    6 type  1   force =    -0.02630461    0.02644384    0.03338253
     atom    7 type  1   force =     0.02216259    0.02393665   -0.02147669
     atom    8 type  1   force =     0.05123280    0.05192812   -0.05140966
     atom    9 type  1   force =     0.03663155    0.03456054   -0.03580829
     atom   10 type  1   force =    -0.02367453   -0.02836134   -0.01627693
     atom   11 type  1   force =    -0.05301680   -0.05224874   -0.05201684
     atom   12 type  1   force =    -0.03181634   -0.03507254   -0.03323156
     atom   13 type  1   force =    -0.05255395    0.05423331    0.04651023
     atom   14 type  1   force =     0.05243652   -0.05285605   -0.05302453
     atom   15 type  1   force =    -0.00684620    0.00705479    0.00686172
     atom   16 type  1   force =     0.02155766   -0.01440530    0.00862500
     atom   17 type  1   force =    -0.01466091    0.00131557   -0.11598741
     atom   18 type  1   force =     0.08616959   -0.08689469    0.05538442
     atom   19 type  1   force =     0.05147346    0.05316022   -0.05096220
     atom   20 type  1   force =    -0.05405220   -0.05375143    0.05364497
     atom   21 type  1   force =     0.00776178    0.00661667   -0.00676293
     atom   22 type  1   force =    -0.05234668   -0.04992484   -0.05202699
     atom   23 type  1   force =     0.05207130    0.05230259    0.05215590
     atom   24 type  1   force =    -0.00661326   -0.00780495   -0.00696151
     atom   25 type  1   force =     0.04661141   -0.05594685    0.11595216
     atom   26 type  1   force =     0.15818242   -0.15503070    0.17525745
     atom   27 type  1   force =    -0.13320256    0.12375369   -0.20718756
     atom   28 type  1   force =    -0.01167643    0.01395953    0.02209258
     atom   29 type  1   force =    -0.04884282    0.04882522    0.04871676
     atom   30 type  1   force =    -0.03656284    0.03704526    0.03888299
     atom   31 type  1   force =     0.01944274    0.02068417   -0.01644572
     atom   32 type  1   force =     0.05006354    0.04998617   -0.04996651
     atom   33 type  1   force =     0.03609136    0.03515866   -0.03648429
     atom   34 type  1   force =    -0.02148195   -0.02160792   -0.01815852
     atom   35 type  1   force =    -0.04978661   -0.04958576   -0.04959410
     atom   36 type  1   force =    -0.03489864   -0.03683662   -0.03668983
     atom   37 type  1   force =    -0.04471302    0.04634360    0.00554858
     atom   38 type  1   force =     0.06051737   -0.05984501   -0.05943812
     atom   39 type  1   force =    -0.01833454    0.01870603    0.01208259
     atom   40 type  1   force =     0.05714036   -0.05516145    0.04561376
     atom   41 type  1   force =    -0.04978593    0.05038291   -0.04972349
     atom   42 type  1   force =     0.00536436   -0.00537472    0.00528609
     atom   43 type  1   force =     0.04076917    0.04710521   -0.05156742
     atom   44 type  1   force =    -0.05479549   -0.05568917    0.05537027
     atom   45 type  1   force =     0.01030187    0.01088288   -0.01189766
     atom   46 type  1   force =    -0.04687651   -0.03486170   -0.05152621
     atom   47 type  1   force =     0.05663937    0.05616211    0.05560143
     atom   48 type  1   force =    -0.01059672   -0.00952602   -0.01203219
     atom   49 type  2   force =    -0.06258055    0.08351387    0.09579107

     Total force =     0.657036     Total SCF correction =     0.001911

     BFGS Geometry Optimization
     Energy error            =      0.0E+00 Ry
     Gradient error          =      2.1E-01 Ry/Bohr

     number of scf cycles    =   1
     number of bfgs steps    =   0

     energy             new  =    -922.9572457705 Ry

     new trust radius        =       0.2824382555 bohr
     new conv_thr            =       0.0000010000 Ry


ATOMIC_POSITIONS (angstrom)
C             6.1755160188        4.5983901532        6.1797539251
C             7.7086418692        3.0611879551        7.7086476795
C             6.9949621734        3.7779273497        6.9949795439
C             4.5978885889        6.1764626850        6.1968151611
C             3.0553735031        7.7144230601        7.7129929228
C             3.7850802007        6.9879934779        6.9916652741
C             6.1807279367        6.1816667301        4.5966350276
C             7.7111112285        7.7114791785        3.0587951808
C             6.9933845816        6.9922886523        3.7800510696
C             4.5904719776        4.5879918237        4.5943866195
C             3.0569447170        3.0573511562        3.0574738711
C             3.7791635155        3.7774404090        3.7784146162
C             6.1971896462        4.5746990343        4.5706121558
C             7.7917482139        2.9850297814        2.9849406262
C             7.0493771467        3.7247332364        3.7256310636
C             4.5574078230        6.2173770423        4.5505641560
C             3.0052417822        7.7656961671        2.9516221044
C             3.7665989853        7.0070173092        3.7513081707
C             4.5732385797        4.5731311761        6.1990319640
C             2.9843968076        2.9845559692        7.7923876974
C             3.7251073573        3.7245013909        7.0494212114
C             6.2012993290        6.2025809140        6.2014685045
C             7.7915549429        7.7926773403        7.7925997150
C             7.0515004129        7.0518697965        7.0513161281
C             0.6926656968       10.0733942039        0.7293592390
C             2.2717065331        8.5069612891        2.2807422473
C             1.4055122427        9.3634876301        1.3663610623
C            10.0958210994        0.6743870640        0.6796908901
C             8.5631534902        2.2128371962        2.2137797990
C             9.2786517785        1.4946035066        1.4965759917
C             0.6782886574        0.6779455920       10.0942973011
C             2.2134924823        2.2134515438        8.5625588619
C             1.4950987255        1.4936051613        9.2786933434
C            10.0966322419       10.0965655787       10.0973909248
C             8.5636540585        8.5637603470        8.5637559301
C             9.2825324368        9.2815068987        9.2805845781
C             0.7053388863       10.0705239786       10.0489361846
C             2.2910244148        8.4773313851        8.4765467031
C             1.5422977818        9.2288988035        9.2253938320
C            10.0752373774        0.6988098152       10.0701377632
C             8.4816544199        2.2856614877        8.4816874602
C             9.2208386949        1.5481558213        9.2207972810
C            10.0675741133       10.0719270019        0.7017116957
C             8.4790034742        8.4795305618        2.2883006853
C             9.2244515172        9.2247589700        1.5457040305
C             0.7011940175        0.7065519830        0.6977335016
C             2.2899722656        2.2887197076        2.2894230120
C             1.5453924556        1.5449590473        1.5436328417
O             1.9418838008        9.0471936374        3.5106904519



     Writing config-only to output data dir ./pwscf.save/
     NEW-OLD atomic charge density approx. for the potential

     Check: negative core charge=   -0.000004

     negative rho (up, down):  1.207E-06 1.207E-06
     Generating pointlists ...
     new r_m :   0.0447 (alat units)  0.9282 (a.u.) for type    1

     total cpu time spent up to now is       35.7 secs

     Self-consistent Calculation

     iteration #  1     ecut=    50.00 Ry     beta= 0.30
     Davidson diagonalization with overlap
     c_bands:  1 eigenvalues not converged
     c_bands:  1 eigenvalues not converged
     ethr =  1.00E-06,  avg # of iterations = 20.0

     negative rho (up, down):  1.120E-06 1.121E-06

     total cpu time spent up to now is       42.2 secs

     total energy              =    -922.75718458 Ry
     estimated scf accuracy    <       0.56029844 Ry

     total magnetization       =     0.00 Bohr mag/cell
     absolute magnetization    =     0.00 Bohr mag/cell

     iteration #  2     ecut=    50.00 Ry     beta= 0.30
     Davidson diagonalization with overlap
     ethr =  2.83E-04,  avg # of iterations =  2.0

     negative rho (up, down):  1.355E-06 1.354E-06

     total cpu time spent up to now is       44.3 secs

     total energy              =    -922.77022812 Ry
     estimated scf accuracy    <       0.58481098 Ry

     total magnetization       =    -0.00 Bohr mag/cell
     absolute magnetization    =     0.00 Bohr mag/cell

     iteration #  3     ecut=    50.00 Ry     beta= 0.30
     Davidson diagonalization with overlap
     ethr =  2.83E-04,  avg # of iterations =  1.0

     negative rho (up, down):  1.440E-06 1.440E-06

     total cpu time spent up to now is       46.2 secs

     total energy              =    -922.82853888 Ry
     estimated scf accuracy    <       0.31397586 Ry

     total magnetization       =    -0.00 Bohr mag/cell
     absolute magnetization    =     0.00 Bohr mag/cell

     iteration #  4     ecut=    50.00 Ry     beta= 0.30
     Davidson diagonalization with overlap
     ethr =  1.59E-04,  avg # of iterations =  1.0

     negative rho (up, down):  1.068E-06 1.068E-06

     total cpu time spent up to now is       48.1 secs

     total energy              =    -922.84829676 Ry
     estimated scf accuracy    <       0.02050609 Ry

     total magnetization       =    -0.00 Bohr mag/cell
     absolute magnetization    =     0.00 Bohr mag/cell

     iteration #  5     ecut=    50.00 Ry     beta= 0.30
     Davidson diagonalization with overlap
     ethr =  1.04E-05,  avg # of iterations =  2.0

     negative rho (up, down):  1.015E-06 1.015E-06

     total cpu time spent up to now is       50.2 secs

     total energy              =    -922.84948291 Ry
     estimated scf accuracy    <       0.00602649 Ry

     total magnetization       =    -0.00 Bohr mag/cell
     absolute magnetization    =     0.00 Bohr mag/cell

     iteration #  6     ecut=    50.00 Ry     beta= 0.30
     Davidson diagonalization with overlap
     ethr =  3.04E-06,  avg # of iterations =  2.0

     negative rho (up, down):  1.013E-06 1.013E-06

     total cpu time spent up to now is       52.1 secs

     total energy              =    -922.85004433 Ry
     estimated scf accuracy    <       0.00148600 Ry

     total magnetization       =     0.00 Bohr mag/cell
     absolute magnetization    =     0.00 Bohr mag/cell

     iteration #  7     ecut=    50.00 Ry     beta= 0.30
     Davidson diagonalization with overlap
     ethr =  7.51E-07,  avg # of iterations =  4.0

     negative rho (up, down):  1.021E-06 1.021E-06

     total cpu time spent up to now is       54.3 secs

     total energy              =    -922.85016531 Ry
     estimated scf accuracy    <       0.00078474 Ry

     total magnetization       =    -0.00 Bohr mag/cell
     absolute magnetization    =     0.00 Bohr mag/cell

     iteration #  8     ecut=    50.00 Ry     beta= 0.30
     Davidson diagonalization with overlap
     ethr =  3.96E-07,  avg # of iterations =  2.0

     negative rho (up, down):  1.034E-06 1.034E-06

     total cpu time spent up to now is       56.3 secs

     total energy              =    -922.85025366 Ry
     estimated scf accuracy    <       0.00016195 Ry

     total magnetization       =    -0.00 Bohr mag/cell
     absolute magnetization    =     0.00 Bohr mag/cell

     iteration #  9     ecut=    50.00 Ry     beta= 0.30
     Davidson diagonalization with overlap
     ethr =  8.18E-08,  avg # of iterations =  2.0

     negative rho (up, down):  1.042E-06 1.042E-06

     total cpu time spent up to now is       58.4 secs

     total energy              =    -922.85026786 Ry
     estimated scf accuracy    <       0.00002041 Ry

     total magnetization       =    -0.00 Bohr mag/cell
     absolute magnetization    =     0.00 Bohr mag/cell

     iteration # 10     ecut=    50.00 Ry     beta= 0.30
     Davidson diagonalization with overlap
     ethr =  1.03E-08,  avg # of iterations =  4.0

     negative rho (up, down):  1.043E-06 1.043E-06

     total cpu time spent up to now is       60.7 secs

     total energy              =    -922.85027102 Ry
     estimated scf accuracy    <       0.00000443 Ry

     total magnetization       =    -0.00 Bohr mag/cell
     absolute magnetization    =     0.00 Bohr mag/cell

     iteration # 11     ecut=    50.00 Ry     beta= 0.30
     Davidson diagonalization with overlap
     ethr =  2.24E-09,  avg # of iterations =  2.0

     negative rho (up, down):  1.043E-06 1.043E-06

     total cpu time spent up to now is       62.9 secs

     total energy              =    -922.85027168 Ry
     estimated scf accuracy    <       0.00000118 Ry

     total magnetization       =    -0.00 Bohr mag/cell
     absolute magnetization    =     0.00 Bohr mag/cell

     iteration # 12     ecut=    50.00 Ry     beta= 0.30
     Davidson diagonalization with overlap
     ethr =  5.98E-10,  avg # of iterations =  2.0

     negative rho (up, down):  1.052E-06 1.052E-06

     Magnetic moment per site  (integrated on atomic sphere of radius R)
     atom   1 (R=0.045)  charge=  1.0423  magn= -0.0000
     atom   2 (R=0.045)  charge=  1.1053  magn= -0.0000
     atom   3 (R=0.045)  charge=  1.0937  magn=  0.0000
     atom   4 (R=0.045)  charge=  1.0456  magn=  0.0000
     atom   5 (R=0.045)  charge=  1.1017  magn=  0.0000
     atom   6 (R=0.045)  charge=  1.0878  magn= -0.0000
     atom   7 (R=0.045)  charge=  1.0415  magn=  0.0000
     atom   8 (R=0.045)  charge=  1.1035  magn= -0.0000
     atom   9 (R=0.045)  charge=  1.0921  magn=  0.0000
     atom  10 (R=0.045)  charge=  1.0415  magn=  0.0000
     atom  11 (R=0.045)  charge=  1.1023  magn=  0.0000
     atom  12 (R=0.045)  charge=  1.0906  magn= -0.0000
     atom  13 (R=0.045)  charge=  1.0252  magn=  0.0000
     atom  14 (R=0.045)  charge=  1.0805  magn= -0.0000
     atom  15 (R=0.045)  charge=  1.0538  magn=  0.0000
     atom  16 (R=0.045)  charge=  1.0401  magn= -0.0000
     atom  17 (R=0.045)  charge=  1.0984  magn= -0.0000
     atom  18 (R=0.045)  charge=  1.0608  magn=  0.0000
     atom  19 (R=0.045)  charge=  1.0273  magn= -0.0000
     atom  20 (R=0.045)  charge=  1.0811  magn=  0.0000
     atom  21 (R=0.045)  charge=  1.0533  magn= -0.0000
     atom  22 (R=0.045)  charge=  1.0263  magn=  0.0000
     atom  23 (R=0.045)  charge=  1.0812  magn= -0.0000
     atom  24 (R=0.045)  charge=  1.0533  magn=  0.0000
     atom  25 (R=0.045)  charge=  1.1245  magn=  0.0000
     atom  26 (R=0.045)  charge=  1.0759  magn=  0.0000
     atom  27 (R=0.045)  charge=  1.1060  magn= -0.0001
     atom  28 (R=0.045)  charge=  1.0406  magn=  0.0000
     atom  29 (R=0.045)  charge=  1.1032  magn=  0.0000
     atom  30 (R=0.045)  charge=  1.0916  magn= -0.0000
     atom  31 (R=0.045)  charge=  1.0413  magn=  0.0000
     atom  32 (R=0.045)  charge=  1.1023  magn= -0.0000
     atom  33 (R=0.045)  charge=  1.0921  magn=  0.0000
     atom  34 (R=0.045)  charge=  1.0398  magn=  0.0000
     atom  35 (R=0.045)  charge=  1.1020  magn= -0.0000
     atom  36 (R=0.045)  charge=  1.0905  magn= -0.0000
     atom  37 (R=0.045)  charge=  1.0208  magn= -0.0000
     atom  38 (R=0.045)  charge=  1.0758  magn= -0.0000
     atom  39 (R=0.045)  charge=  1.0532  magn=  0.0000
     atom  40 (R=0.045)  charge=  1.0272  magn=  0.0000
     atom  41 (R=0.045)  charge=  1.0793  magn=  0.0000
     atom  42 (R=0.045)  charge=  1.0538  magn= -0.0000
     atom  43 (R=0.045)  charge=  1.0311  magn= -0.0000
     atom  44 (R=0.045)  charge=  1.0784  magn=  0.0000
     atom  45 (R=0.045)  charge=  1.0509  magn= -0.0000
     atom  46 (R=0.045)  charge=  1.0296  magn= -0.0000
     atom  47 (R=0.045)  charge=  1.0788  magn= -0.0000
     atom  48 (R=0.045)  charge=  1.0504  magn=  0.0000
     atom  49 (R=0.051)  charge=  3.4845  magn=  0.0001

     total cpu time spent up to now is       65.0 secs

     End of self-consistent calculation

 ------ SPIN UP ------------


          k = 0.0000 0.0000 0.0000 ( 26858 PWs)   bands (ev):

   -23.2097 -21.8100 -21.7836 -17.9017 -17.6755 -17.6258 -17.5939 -17.4849
   -17.4434 -16.9957 -16.9177 -16.9090 -16.8744 -16.7021 -16.2971 -16.2455
   -16.1078 -15.8415 -15.7797 -15.6564 -15.5310 -15.3727 -14.7782 -14.5315
   -14.4922 -14.3716 -14.3028 -14.1422 -13.9036 -13.4422 -12.8026 -12.7560
   -12.7315 -12.3984 -12.3192 -12.2630 -12.2005 -11.5339 -11.3463 -11.1873
   -11.1389 -10.8409 -10.4606 -10.0962 -10.0010  -9.9265  -9.7123  -9.6812
    -9.6578  -9.6421  -9.6365  -9.5206  -9.4568  -7.5440  -7.5062  -7.0109
    -6.9356  -6.8419  -6.7583  -6.7507  -6.6843  -6.4216  -6.3088  -6.3066
    -6.0844  -6.0343  -5.9995  -5.7199  -5.6861  -5.6743  -5.6065  -5.5596
    -5.5522  -5.4932  -5.4619  -5.1645  -5.1480  -5.1086  -4.9788  -4.7899
    -4.7767  -4.6180  -3.7499  -3.7060  -3.6253  -3.3953  -3.3379  -3.2764
    -3.1870  -3.0942  -3.0185  -2.9111  -2.9036  -2.8501  -2.4851  -2.4332
    -2.1301  -1.9833  -1.4903  -0.8477  -0.7336  -0.5240  -0.1439   0.0789
     0.2967   0.5294   0.6614   0.8415   0.8966   0.9166   1.0553   1.1177
     1.6681   2.0450   2.0641   2.3664   2.4619   2.4637   2.4962

 ------ SPIN DOWN ----------


          k = 0.0000 0.0000 0.0000 ( 26858 PWs)   bands (ev):

   -23.2096 -21.8100 -21.7836 -17.9018 -17.6755 -17.6258 -17.5939 -17.4849
   -17.4434 -16.9957 -16.9177 -16.9090 -16.8744 -16.7021 -16.2971 -16.2455
   -16.1078 -15.8415 -15.7797 -15.6564 -15.5310 -15.3727 -14.7782 -14.5315
   -14.4922 -14.3716 -14.3028 -14.1422 -13.9036 -13.4422 -12.8026 -12.7560
   -12.7314 -12.3984 -12.3192 -12.2630 -12.2005 -11.5339 -11.3463 -11.1873
   -11.1389 -10.8410 -10.4606 -10.0962 -10.0010  -9.9265  -9.7123  -9.6812
    -9.6578  -9.6421  -9.6364  -9.5206  -9.4568  -7.5439  -7.5061  -7.0109
    -6.9356  -6.8419  -6.7583  -6.7507  -6.6843  -6.4216  -6.3088  -6.3066
    -6.0844  -6.0343  -5.9995  -5.7199  -5.6861  -5.6743  -5.6065  -5.5596
    -5.5522  -5.4932  -5.4619  -5.1645  -5.1480  -5.1085  -4.9787  -4.7899
    -4.7767  -4.6180  -3.7499  -3.7060  -3.6253  -3.3953  -3.3379  -3.2764
    -3.1870  -3.0942  -3.0185  -2.9111  -2.9036  -2.8501  -2.4851  -2.4331
    -2.1301  -1.9833  -1.4903  -0.8479  -0.7335  -0.5240  -0.1439   0.0789
     0.2967   0.5294   0.6614   0.8415   0.8966   0.9166   1.0553   1.1177
     1.6681   2.0450   2.0641   2.3664   2.4619   2.4637   2.4962

     the spin up/dw Fermi energies are    -1.1089   -1.1089 ev

!    total energy              =    -922.85027184 Ry
     total all-electron energy =     -3804.373860 Ry
     estimated scf accuracy    <       0.00000024 Ry
     smearing contrib. (-TS)   =      -0.00000000 Ry
     internal energy E=F+TS    =    -922.85027184 Ry

     The total energy is F=E-TS. E is the sum of the following terms:
     one-electron contribution =   -1254.45911426 Ry
     hartree contribution      =     673.04511105 Ry
     xc contribution           =    -225.35305048 Ry
     ewald contribution        =     189.49332618 Ry
     one-center paw contrib.   =    -305.57654434 Ry

     total magnetization       =    -0.00 Bohr mag/cell
     absolute magnetization    =     0.00 Bohr mag/cell

     convergence has been achieved in  12 iterations

     negative rho (up, down):  1.052E-06 1.052E-06

     Forces acting on atoms (cartesian axes, Ry/au):

     atom    1 type  1   force =     0.01737265   -0.01838696    0.01779356
     atom    2 type  1   force =    -0.03165655    0.03154132   -0.03136454
     atom    3 type  1   force =     0.02076206   -0.02124746    0.02163446
     atom    4 type  1   force =    -0.00993600    0.00707749    0.03936531
     atom    5 type  1   force =     0.05761767   -0.05778861   -0.06086535
     atom    6 type  1   force =    -0.04179326    0.04136973    0.05368654
     atom    7 type  1   force =     0.01123379    0.01654927   -0.01263497
     atom    8 type  1   force =    -0.04726022   -0.04716645    0.04826346
     atom    9 type  1   force =     0.03695564    0.03581155   -0.03635059
     atom   10 type  1   force =    -0.01517483   -0.01429751   -0.00848568
     atom   11 type  1   force =     0.05110186    0.05178949    0.05250010
     atom   12 type  1   force =    -0.03811515   -0.04099109   -0.03834469
     atom   13 type  1   force =     0.00776455   -0.00617636   -0.01543262
     atom   14 type  1   force =    -0.11287827    0.11206701    0.11148026
     atom   15 type  1   force =     0.05553498   -0.05494592   -0.05584202
     atom   16 type  1   force =     0.02951547   -0.02708038    0.01111247
     atom   17 type  1   force =     0.36117057   -0.37221021    0.27446800
     atom   18 type  1   force =    -0.10643737    0.10619402   -0.15452225
     atom   19 type  1   force =    -0.01236551   -0.00965940    0.01120047
     atom   20 type  1   force =     0.11510057    0.11521912   -0.11551077
     atom   21 type  1   force =    -0.05820062   -0.05822846    0.05807349
     atom   22 type  1   force =     0.00905460    0.01240210    0.00881023
     atom   23 type  1   force =    -0.11303955   -0.11272605   -0.11271487
     atom   24 type  1   force =     0.05608053    0.05592203    0.05533412
     atom   25 type  1   force =    -0.24331777    0.23320235   -0.15606912
     atom   26 type  1   force =    -0.38537419    0.40735022   -0.21757345
     atom   27 type  1   force =     0.44077066   -0.44679702    0.33118237
     atom   28 type  1   force =    -0.00919715    0.01109188    0.01749204
     atom   29 type  1   force =     0.03934966   -0.03943730   -0.03887883
     atom   30 type  1   force =    -0.02432436    0.02486265    0.02772540
     atom   31 type  1   force =     0.01973680    0.00536235   -0.00559209
     atom   32 type  1   force =    -0.04490991   -0.04513351    0.04496828
     atom   33 type  1   force =     0.03322251    0.03263372   -0.03334025
     atom   34 type  1   force =    -0.00500305   -0.01909598   -0.00628880
     atom   35 type  1   force =     0.04281023    0.04261584    0.04279036
     atom   36 type  1   force =    -0.03206289   -0.03384075   -0.03323919
     atom   37 type  1   force =     0.00410353   -0.00447309   -0.07018714
     atom   38 type  1   force =    -0.12243915    0.12351758    0.12547949
     atom   39 type  1   force =     0.05676682   -0.05603740   -0.06943237
     atom   40 type  1   force =    -0.00655486    0.00685342   -0.01399262
     atom   41 type  1   force =     0.10671059   -0.10609336    0.10667514
     atom   42 type  1   force =    -0.05168979    0.05190892   -0.05266435
     atom   43 type  1   force =    -0.04625649   -0.00705517    0.00576740
     atom   44 type  1   force =     0.12144058    0.11926455   -0.11997932
     atom   45 type  1   force =    -0.06372537   -0.05932802    0.05709269
     atom   46 type  1   force =     0.00750295    0.04923955    0.00636306
     atom   47 type  1   force =    -0.11844427   -0.12061148   -0.12037097
     atom   48 type  1   force =     0.05886519    0.06371740    0.05616181
     atom   49 type  2   force =    -0.02038785    0.02124439   -0.00574364

     Total force =     1.354182     Total SCF correction =     0.000678
     Energy error            =      1.1E-01 Ry
     Gradient error          =      4.5E-01 Ry/Bohr

     number of scf cycles    =   2
     number of bfgs steps    =   1

     energy             old  =    -922.9572457705 Ry
     energy             new  =    -922.8502718371 Ry

     CASE: energy            _new > energy            _old

     new trust radius        =       0.1131745709 bohr
     new conv_thr            =       0.0000010000 Ry


ATOMIC_POSITIONS (angstrom)
C             6.1710117103        4.6041492812        6.1733091573
C             7.6938741333        3.0760576764        7.6938764615
C             6.9823996588        3.7905560725        6.9824066193
C             4.6039483017        6.1719903391        6.1801456889
C             3.0737277933        7.6961906884        7.6956176245
C             3.7934222594        6.9796072640        6.9810785730
C             6.1736994491        6.1740756288        4.6034459927
C             7.6948636192        7.6950110588        3.0750988785
C             6.9817675091        6.9813283641        3.7914070588
C             4.5979799522        4.5969861408        4.5995485708
C             3.0737580929        3.0739209554        3.0739701279
C             3.7892535275        3.7885630692        3.7889534395
C             6.2138562374        4.5574998618        4.5558622269
C             7.7751188628        3.0017921787        3.0017564538
C             7.0515483026        3.7224959285        3.7234549872
C             4.5505711778        6.2219454387        4.5478288825
C             3.0098912392        7.7652789580        2.9884055378
C             3.7392717656        7.0345744815        3.7337439461
C             4.5569146495        4.5562723178        6.2151937588
C             3.0015385426        3.0016023196        7.7753751074
C             3.7226458408        3.7224030267        7.0515659596
C             6.2179001879        6.2184137261        6.2179679775
C             7.7750414180        7.7760904633        7.7760593584
C             7.0535976961        7.0543450046        7.0535238521
C             0.6778836811       10.0911367938        0.6925869864
C             2.2215416707        8.5561266348        2.2251623314
C             1.4477551658        9.3242412555        1.4320670713
C            10.0995240804        0.6699600374        0.6726846043
C             8.5786431606        2.1973531074        2.1983301080
C             9.2902470606        1.4828552335        1.4842449137
C             0.6721227219        0.6713859593       10.0995127804
C             2.1976156842        2.1975992799        8.5784048897
C             1.4836529649        1.4824551910        9.2902637159
C            10.1034448765       10.1034181641       10.1031495904
C             8.5794430355        8.5794856259        8.5794838561
C             9.2935999453        9.2931890065        9.2922201331
C             0.7195188609       10.0558268938       10.0471765454
C             2.2718323601        8.4963102109        8.4953964900
C             1.5481122675        9.2229665053        9.2215620438
C            10.0571162843        0.7163033315       10.0556721352
C             8.4974431803        2.2696834055        8.4974564198
C             9.2191374807        1.5498603218        9.2191208860
C            10.0546448665       10.0569883875        0.7180654256
C             8.4963809317        8.4971914331        2.2707409466
C             9.2211844531        9.2213076511        1.5494771702
C             0.7160601056        0.7176077776        0.7140741633
C             2.2720100526        2.2709088512        2.2717899636
C             1.5487530259        1.5479800624        1.5474486445
O             1.9617301558        9.0207086349        3.4803119444



     Writing config-only to output data dir ./pwscf.save/
     NEW-OLD atomic charge density approx. for the potential

     Check: negative core charge=   -0.000004

     negative rho (up, down):  9.015E-07 9.015E-07
     Generating pointlists ...

     total cpu time spent up to now is       69.9 secs

     Self-consistent Calculation

     iteration #  1     ecut=    50.00 Ry     beta= 0.30
     Davidson diagonalization with overlap
     ethr =  1.00E-06,  avg # of iterations = 15.0

     negative rho (up, down):  9.451E-07 9.451E-07

     total cpu time spent up to now is       75.3 secs

     total energy              =    -923.01041925 Ry
     estimated scf accuracy    <       0.18908052 Ry

     total magnetization       =     0.00 Bohr mag/cell
     absolute magnetization    =     0.00 Bohr mag/cell

     iteration #  2     ecut=    50.00 Ry     beta= 0.30
     Davidson diagonalization with overlap
     ethr =  9.55E-05,  avg # of iterations =  2.0

     negative rho (up, down):  1.010E-06 1.010E-06

     total cpu time spent up to now is       77.4 secs

     total energy              =    -923.01878869 Ry
     estimated scf accuracy    <       0.14310041 Ry

     total magnetization       =    -0.00 Bohr mag/cell
     absolute magnetization    =     0.00 Bohr mag/cell

     iteration #  3     ecut=    50.00 Ry     beta= 0.30
     Davidson diagonalization with overlap
     ethr =  7.23E-05,  avg # of iterations =  2.0

     negative rho (up, down):  1.043E-06 1.043E-06

     total cpu time spent up to now is       79.5 secs

     total energy              =    -923.03344997 Ry
     estimated scf accuracy    <       0.07684625 Ry

     total magnetization       =     0.00 Bohr mag/cell
     absolute magnetization    =     0.00 Bohr mag/cell

     iteration #  4     ecut=    50.00 Ry     beta= 0.30
     Davidson diagonalization with overlap
     ethr =  3.88E-05,  avg # of iterations =  1.0

     negative rho (up, down):  9.915E-07 9.915E-07

     total cpu time spent up to now is       81.4 secs

     total energy              =    -923.03815617 Ry
     estimated scf accuracy    <       0.00694939 Ry

     total magnetization       =     0.00 Bohr mag/cell
     absolute magnetization    =     0.00 Bohr mag/cell

     iteration #  5     ecut=    50.00 Ry     beta= 0.30
     Davidson diagonalization with overlap
     ethr =  3.51E-06,  avg # of iterations =  2.0

     negative rho (up, down):  9.979E-07 9.979E-07

     total cpu time spent up to now is       83.4 secs

     total energy              =    -923.03851086 Ry
     estimated scf accuracy    <       0.00218301 Ry

     total magnetization       =     0.00 Bohr mag/cell
     absolute magnetization    =     0.00 Bohr mag/cell

     iteration #  6     ecut=    50.00 Ry     beta= 0.30
     Davidson diagonalization with overlap
     ethr =  1.10E-06,  avg # of iterations =  2.0

     negative rho (up, down):  1.010E-06 1.010E-06

     total cpu time spent up to now is       85.4 secs

     total energy              =    -923.03875717 Ry
     estimated scf accuracy    <       0.00046543 Ry

     total magnetization       =    -0.00 Bohr mag/cell
     absolute magnetization    =     0.00 Bohr mag/cell

     iteration #  7     ecut=    50.00 Ry     beta= 0.30
     Davidson diagonalization with overlap
     ethr =  2.35E-07,  avg # of iterations =  3.0

     negative rho (up, down):  1.002E-06 1.002E-06

     total cpu time spent up to now is       87.6 secs

     total energy              =    -923.03881449 Ry
     estimated scf accuracy    <       0.00011036 Ry

     total magnetization       =     0.00 Bohr mag/cell
     absolute magnetization    =     0.00 Bohr mag/cell

     iteration #  8     ecut=    50.00 Ry     beta= 0.30
     Davidson diagonalization with overlap
     ethr =  5.57E-08,  avg # of iterations =  2.0

     negative rho (up, down):  1.004E-06 1.004E-06

     total cpu time spent up to now is       89.6 secs

     total energy              =    -923.03882709 Ry
     estimated scf accuracy    <       0.00003186 Ry

     total magnetization       =    -0.00 Bohr mag/cell
     absolute magnetization    =     0.00 Bohr mag/cell

     iteration #  9     ecut=    50.00 Ry     beta= 0.30
     Davidson diagonalization with overlap
     ethr =  1.61E-08,  avg # of iterations =  2.0

     negative rho (up, down):  1.001E-06 1.001E-06

     total cpu time spent up to now is       91.8 secs

     total energy              =    -923.03883115 Ry
     estimated scf accuracy    <       0.00000442 Ry

     total magnetization       =     0.00 Bohr mag/cell
     absolute magnetization    =     0.00 Bohr mag/cell

     iteration # 10     ecut=    50.00 Ry     beta= 0.30
     Davidson diagonalization with overlap
     ethr =  2.23E-09,  avg # of iterations =  4.0

     negative rho (up, down):  9.868E-07 9.868E-07

     Magnetic moment per site  (integrated on atomic sphere of radius R)
     atom   1 (R=0.045)  charge=  1.0409  magn= -0.0000
     atom   2 (R=0.045)  charge=  1.0899  magn= -0.0000
     atom   3 (R=0.045)  charge=  1.0993  magn=  0.0000
     atom   4 (R=0.045)  charge=  1.0439  magn=  0.0000
     atom   5 (R=0.045)  charge=  1.0878  magn=  0.0000
     atom   6 (R=0.045)  charge=  1.0964  magn= -0.0000
     atom   7 (R=0.045)  charge=  1.0411  magn=  0.0000
     atom   8 (R=0.045)  charge=  1.0889  magn=  0.0000
     atom   9 (R=0.045)  charge=  1.0986  magn= -0.0000
     atom  10 (R=0.045)  charge=  1.0409  magn=  0.0000
     atom  11 (R=0.045)  charge=  1.0884  magn=  0.0000
     atom  12 (R=0.045)  charge=  1.0975  magn= -0.0000
     atom  13 (R=0.045)  charge=  1.0284  magn=  0.0000
     atom  14 (R=0.045)  charge=  1.0786  magn= -0.0000
     atom  15 (R=0.045)  charge=  1.0763  magn=  0.0000
     atom  16 (R=0.045)  charge=  1.0314  magn= -0.0000
     atom  17 (R=0.045)  charge=  1.0778  magn= -0.0000
     atom  18 (R=0.045)  charge=  1.0825  magn=  0.0000
     atom  19 (R=0.045)  charge=  1.0294  magn= -0.0000
     atom  20 (R=0.045)  charge=  1.0791  magn=  0.0000
     atom  21 (R=0.045)  charge=  1.0763  magn= -0.0000
     atom  22 (R=0.045)  charge=  1.0302  magn= -0.0000
     atom  23 (R=0.045)  charge=  1.0788  magn= -0.0000
     atom  24 (R=0.045)  charge=  1.0757  magn=  0.0000
     atom  25 (R=0.045)  charge=  1.0625  magn=  0.0000
     atom  26 (R=0.045)  charge=  1.0813  magn=  0.0000
     atom  27 (R=0.045)  charge=  1.0881  magn= -0.0000
     atom  28 (R=0.045)  charge=  1.0396  magn=  0.0000
     atom  29 (R=0.045)  charge=  1.0879  magn=  0.0000
     atom  30 (R=0.045)  charge=  1.0977  magn= -0.0000
     atom  31 (R=0.045)  charge=  1.0397  magn=  0.0000
     atom  32 (R=0.045)  charge=  1.0875  magn= -0.0000
     atom  33 (R=0.045)  charge=  1.0981  magn=  0.0000
     atom  34 (R=0.045)  charge=  1.0386  magn=  0.0000
     atom  35 (R=0.045)  charge=  1.0892  magn= -0.0000
     atom  36 (R=0.045)  charge=  1.0971  magn= -0.0000
     atom  37 (R=0.045)  charge=  1.0259  magn= -0.0000
     atom  38 (R=0.045)  charge=  1.0759  magn= -0.0000
     atom  39 (R=0.045)  charge=  1.0758  magn=  0.0000
     atom  40 (R=0.045)  charge=  1.0303  magn=  0.0000
     atom  41 (R=0.045)  charge=  1.0795  magn=  0.0000
     atom  42 (R=0.045)  charge=  1.0754  magn= -0.0000
     atom  43 (R=0.045)  charge=  1.0324  magn= -0.0000
     atom  44 (R=0.045)  charge=  1.0783  magn= -0.0000
     atom  45 (R=0.045)  charge=  1.0741  magn=  0.0000
     atom  46 (R=0.045)  charge=  1.0307  magn= -0.0000
     atom  47 (R=0.045)  charge=  1.0764  magn= -0.0000
     atom  48 (R=0.045)  charge=  1.0741  magn=  0.0000
     atom  49 (R=0.051)  charge=  3.5040  magn=  0.0000

     total cpu time spent up to now is       94.0 secs

     End of self-consistent calculation

 ------ SPIN UP ------------


          k = 0.0000 0.0000 0.0000 ( 26858 PWs)   bands (ev):

   -23.5330 -21.7187 -21.6504 -17.6921 -17.6579 -17.6226 -17.5105 -17.4805
   -17.4473 -16.9156 -16.8547 -16.8326 -16.7714 -16.5100 -16.1275 -16.1168
   -16.0761 -15.9784 -15.9278 -15.7405 -15.5934 -15.3526 -14.7250 -14.6464
   -14.6099 -14.2590 -14.2067 -14.0733 -13.7017 -13.2717 -13.0633 -12.9139
   -12.8752 -12.4147 -12.2865 -12.0943 -12.0484 -11.6490 -11.3489 -11.0535
   -11.0083 -10.7776 -10.4399 -10.0907 -10.0315  -9.9781  -9.6513  -9.6407
    -9.6225  -9.5666  -9.5529  -9.5274  -9.4898  -7.5546  -7.4247  -7.0017
    -6.8916  -6.8133  -6.7253  -6.6883  -6.6755  -6.3946  -6.2612  -6.2485
    -6.0868  -5.9863  -5.9773  -5.6488  -5.6145  -5.6082  -5.5314  -5.5233
    -5.4823  -5.4734  -5.3702  -5.3488  -4.9941  -4.9760  -4.8685  -4.6181
    -4.5977  -4.4484  -3.8903  -3.8534  -3.7654  -3.5609  -3.5092  -3.4254
    -3.3507  -3.2283  -3.1232  -3.0082  -3.0050  -2.9550  -2.5376  -2.4550
    -2.0666  -1.9807  -1.8720  -0.9635  -0.3879  -0.3671  -0.0689   0.4029
     0.4424   0.6654   0.9525   1.0327   1.0728   1.0823   1.3079   1.3803
     1.9976   2.2462   2.2711   2.3264   2.3380   2.4376   2.4637

 ------ SPIN DOWN ----------


          k = 0.0000 0.0000 0.0000 ( 26858 PWs)   bands (ev):

   -23.5329 -21.7187 -21.6504 -17.6921 -17.6579 -17.6226 -17.5105 -17.4805
   -17.4473 -16.9156 -16.8547 -16.8326 -16.7714 -16.5100 -16.1275 -16.1168
   -16.0761 -15.9784 -15.9278 -15.7405 -15.5934 -15.3527 -14.7250 -14.6464
   -14.6099 -14.2590 -14.2067 -14.0733 -13.7017 -13.2717 -13.0633 -12.9139
   -12.8752 -12.4147 -12.2865 -12.0943 -12.0484 -11.6490 -11.3489 -11.0535
   -11.0083 -10.7776 -10.4399 -10.0907 -10.0315  -9.9781  -9.6513  -9.6407
    -9.6225  -9.5666  -9.5529  -9.5274  -9.4898  -7.5546  -7.4247  -7.0017
    -6.8916  -6.8133  -6.7252  -6.6883  -6.6755  -6.3946  -6.2612  -6.2485
    -6.0868  -5.9863  -5.9773  -5.6488  -5.6145  -5.6082  -5.5313  -5.5233
    -5.4823  -5.4734  -5.3702  -5.3488  -4.9941  -4.9760  -4.8685  -4.6182
    -4.5977  -4.4484  -3.8903  -3.8534  -3.7654  -3.5609  -3.5092  -3.4254
    -3.3507  -3.2283  -3.1232  -3.0082  -3.0050  -2.9550  -2.5376  -2.4550
    -2.0666  -1.9806  -1.8721  -0.9636  -0.3879  -0.3671  -0.0689   0.4029
     0.4424   0.6654   0.9525   1.0327   1.0728   1.0823   1.3079   1.3803
     1.9976   2.2462   2.2711   2.3264   2.3380   2.4376   2.4637

     the spin up/dw Fermi energies are    -1.5890   -1.5890 ev

!    total energy              =    -923.03883181 Ry
     total all-electron energy =     -3804.562420 Ry
     estimated scf accuracy    <       0.00000094 Ry
     smearing contrib. (-TS)   =      -0.00000000 Ry
     internal energy E=F+TS    =    -923.03883181 Ry

     The total energy is F=E-TS. E is the sum of the following terms:
     one-electron contribution =   -1258.17150418 Ry
     hartree contribution      =     675.03500573 Ry
     xc contribution           =    -225.44795008 Ry
     ewald contribution        =     191.11441820 Ry
     one-center paw contrib.   =    -305.56880148 Ry

     total magnetization       =     0.00 Bohr mag/cell
     absolute magnetization    =     0.00 Bohr mag/cell

     convergence has been achieved in  10 iterations

     negative rho (up, down):  9.868E-07 9.868E-07

     Forces acting on atoms (cartesian axes, Ry/au):

     atom    1 type  1   force =     0.01518418   -0.01800632    0.01912915
     atom    2 type  1   force =     0.01901349   -0.01929073    0.01910886
     atom    3 type  1   force =     0.03261418   -0.03297957    0.03296594
     atom    4 type  1   force =    -0.01488575    0.01076841    0.04546587
     atom    5 type  1   force =    -0.01585411    0.01552601    0.01276231
     atom    6 type  1   force =    -0.03490099    0.03474280    0.04395268
     atom    7 type  1   force =     0.01787815    0.02081884   -0.01796417
     atom    8 type  1   force =     0.01629206    0.01686322   -0.01622795
     atom    9 type  1   force =     0.03758794    0.03572866   -0.03663126
     atom   10 type  1   force =    -0.02006454   -0.02277481   -0.01317057
     atom   11 type  1   force =    -0.01594232   -0.01511678   -0.01487236
     atom   12 type  1   force =    -0.03526732   -0.03855475   -0.03607880
     atom   13 type  1   force =    -0.02785810    0.02950557    0.02147392
     atom   14 type  1   force =    -0.01313363    0.01248572    0.01219705
     atom   15 type  1   force =     0.02151495   -0.02115305   -0.02168746
     atom   16 type  1   force =     0.02411619   -0.01873505    0.00937505
     atom   17 type  1   force =     0.12572503   -0.13751824    0.03666745
     atom   18 type  1   force =    -0.00655899    0.00628455   -0.04331212
     atom   19 type  1   force =     0.02536176    0.02760227   -0.02551283
     atom   20 type  1   force =     0.01282584    0.01306140   -0.01336379
     atom   21 type  1   force =    -0.02199533   -0.02277229    0.02272870
     atom   22 type  1   force =    -0.02733297   -0.02444798   -0.02707586
     atom   23 type  1   force =    -0.01325285   -0.01299969   -0.01313452
     atom   24 type  1   force =     0.02173839    0.02091582    0.02134783
     atom   25 type  1   force =    -0.03121273    0.02197037    0.03504532
     atom   26 type  1   force =    -0.09794774    0.10941776   -0.01438960
     atom   27 type  1   force =     0.11935814   -0.12840022    0.03619229
     atom   28 type  1   force =    -0.01050985    0.01251421    0.02026892
     atom   29 type  1   force =    -0.01761015    0.01761576    0.01772033
     atom   30 type  1   force =    -0.03236283    0.03289374    0.03515295
     atom   31 type  1   force =     0.01926525    0.01462346   -0.01229397
     atom   32 type  1   force =     0.01638266    0.01626368   -0.01627551
     atom   33 type  1   force =     0.03571100    0.03498591   -0.03592954
     atom   34 type  1   force =    -0.01490541   -0.02028136   -0.01339350
     atom   35 type  1   force =    -0.01683413   -0.01676065   -0.01673652
     atom   36 type  1   force =    -0.03458216   -0.03639118   -0.03602472
     atom   37 type  1   force =    -0.02561819    0.02662002   -0.02058395
     atom   38 type  1   force =    -0.01343957    0.01434350    0.01528282
     atom   39 type  1   force =     0.01907881   -0.01862109   -0.02810859
     atom   40 type  1   force =     0.03106536   -0.02974458    0.02112083
     atom   41 type  1   force =     0.01219967   -0.01155041    0.01224440
     atom   42 type  1   force =    -0.02020135    0.02027815   -0.02067276
     atom   43 type  1   force =     0.00819734    0.02453152   -0.02802337
     atom   44 type  1   force =     0.01540352    0.01403550   -0.01440707
     atom   45 type  1   force =    -0.02397216   -0.02183105    0.02040057
     atom   46 type  1   force =    -0.02432441   -0.00366301   -0.02797748
     atom   47 type  1   force =    -0.01309504   -0.01415736   -0.01443599
     atom   48 type  1   force =     0.02205109    0.02466436    0.02022169
     atom   49 type  2   force =    -0.04490239    0.05668896    0.04745931

     Total force =     0.412506     Total SCF correction =     0.001045
     Energy error            =      8.2E-02 Ry
     Gradient error          =      1.4E-01 Ry/Bohr

     number of scf cycles    =   3
     number of bfgs steps    =   1

     energy             old  =    -922.9572457705 Ry
     energy             new  =    -923.0388318068 Ry

     CASE: energy            _new < energy            _old

     new trust radius        =       0.1774545007 bohr
     new conv_thr            =       0.0000010000 Ry


ATOMIC_POSITIONS (angstrom)
C             6.1817554530        4.5911377969        6.1873437985
C             7.7132478519        3.0564749866        7.7133015657
C             7.0073492808        3.7653752720        7.0075442021
C             4.5923493885        6.1804385888        6.2143797453
C             3.0536552093        7.7160151708        7.7134624665
C             3.7700321770        7.0029444960        7.0105875568
C             6.1874682705        6.1897242694        4.5897739521
C             7.7137953187        7.7143800232        3.0561638234
C             7.0086660809        7.0068431176        3.7651706688
C             4.5827738062        4.5794197062        4.5894155492
C             3.0546395765        3.0553857053        3.0556084940
C             3.7645409333        3.7614871510        3.7635316940
C             6.1886945901        4.5838556528        4.5764918681
C             7.7791397086        2.9973512632        2.9971321773
C             7.0612232905        3.7130502826        3.7136943248
C             4.5674290504        6.2093309191        4.5544326071
C             3.0716418929        7.6947078735        2.9834351395
C             3.7536186288        7.0199370856        3.7228249225
C             4.5805680607        4.5814268899        6.1915676936
C             2.9970267830        2.9972737779        7.7795259772
C             3.7129117292        3.7120331126        7.0618833344
C             6.1930516913        6.1955496078        6.1933176970
C             7.7789257205        7.7801527588        7.7800220223
C             7.0634357062        7.0635141298        7.0630890286
C             0.6713929215       10.0909460427        0.7344925431
C             2.2036237018        8.5806016534        2.2538012928
C             1.4818411117        9.2835536396        1.4080913904
C            10.0917080693        0.6792782322        0.6876706150
C             8.5595240853        2.2164714521        2.2174800087
C             9.2660543078        1.5074207191        1.5103522522
C             0.6860466071        0.6831740269       10.0897966163
C             2.2163535327        2.2162599226        8.5597421991
C             1.5094735188        1.5077103554        9.2642497507
C            10.0913474562       10.0885254429       10.0925146737
C             8.5605295797        8.5606513383        8.5606602851
C             9.2686062596        9.2668647528        9.2661148567
C             0.6971240227       10.0790732419       10.0377142270
C             2.2773578924        8.4913886423        8.4910425071
C             1.5541690600        9.2172219223        9.2095675454
C            10.0848735917        0.6896334890       10.0759354755
C             8.4934864566        2.2740973968        8.4935355797
C             9.2098343605        1.5592008743        9.2095588232
C            10.0672541770       10.0793155220        0.6930215735
C             8.4930441493        8.4929660891        2.2747092809
C             9.2109545051        9.2123001984        1.5575389710
C             0.6938867062        0.7085495046        0.6890624272
C             2.2769153341        2.2751687085        2.2757909538
C             1.5579326926        1.5587261917        1.5553906245
O             1.9257257017        9.0670910040        3.5244652187



     Writing config-only to output data dir ./pwscf.save/
     NEW-OLD atomic charge density approx. for the potential

     Check: negative core charge=   -0.000004

     negative rho (up, down):  1.009E-06 1.009E-06
     Generating pointlists ...

     total cpu time spent up to now is       98.3 secs

     Self-consistent Calculation

     iteration #  1     ecut=    50.00 Ry     beta= 0.30
     Davidson diagonalization with overlap
     ethr =  1.00E-06,  avg # of iterations = 11.0

     negative rho (up, down):  1.157E-06 1.157E-06

     total cpu time spent up to now is      103.5 secs

     total energy              =    -923.06619651 Ry
     estimated scf accuracy    <       0.16642950 Ry

     total magnetization       =     0.00 Bohr mag/cell
     absolute magnetization    =     0.00 Bohr mag/cell

     iteration #  2     ecut=    50.00 Ry     beta= 0.30
     Davidson diagonalization with overlap
     ethr =  8.41E-05,  avg # of iterations =  3.0

     negative rho (up, down):  1.403E-06 1.404E-06

     total cpu time spent up to now is      105.7 secs

     total energy              =    -923.08430762 Ry
     estimated scf accuracy    <       0.16115926 Ry

     total magnetization       =    -0.00 Bohr mag/cell
     absolute magnetization    =     0.00 Bohr mag/cell

     iteration #  3     ecut=    50.00 Ry     beta= 0.30
     Davidson diagonalization with overlap
     ethr =  8.14E-05,  avg # of iterations =  2.0

     negative rho (up, down):  1.604E-06 1.604E-06

     total cpu time spent up to now is      107.8 secs

     total energy              =    -923.10314124 Ry
     estimated scf accuracy    <       0.03598838 Ry

     total magnetization       =    -0.00 Bohr mag/cell
     absolute magnetization    =     0.00 Bohr mag/cell

     iteration #  4     ecut=    50.00 Ry     beta= 0.30
     Davidson diagonalization with overlap
     ethr =  1.82E-05,  avg # of iterations =  2.0

     negative rho (up, down):  1.454E-06 1.454E-06

     total cpu time spent up to now is      109.8 secs

     total energy              =    -923.10538015 Ry
     estimated scf accuracy    <       0.00485446 Ry

     total magnetization       =     0.00 Bohr mag/cell
     absolute magnetization    =     0.00 Bohr mag/cell

     iteration #  5     ecut=    50.00 Ry     beta= 0.30
     Davidson diagonalization with overlap
     ethr =  2.45E-06,  avg # of iterations =  2.0

     negative rho (up, down):  1.334E-06 1.334E-06

     total cpu time spent up to now is      111.9 secs

     total energy              =    -923.10544191 Ry
     estimated scf accuracy    <       0.00380210 Ry

     total magnetization       =     0.00 Bohr mag/cell
     absolute magnetization    =     0.00 Bohr mag/cell

     iteration #  6     ecut=    50.00 Ry     beta= 0.30
     Davidson diagonalization with overlap
     ethr =  1.92E-06,  avg # of iterations =  1.0

     negative rho (up, down):  1.369E-06 1.369E-06

     total cpu time spent up to now is      113.8 secs

     total energy              =    -923.10559653 Ry
     estimated scf accuracy    <       0.00055369 Ry

     total magnetization       =    -0.00 Bohr mag/cell
     absolute magnetization    =     0.00 Bohr mag/cell

     iteration #  7     ecut=    50.00 Ry     beta= 0.30
     Davidson diagonalization with overlap
     ethr =  2.80E-07,  avg # of iterations =  2.0

     negative rho (up, down):  1.352E-06 1.352E-06

     total cpu time spent up to now is      115.9 secs

     total energy              =    -923.10566782 Ry
     estimated scf accuracy    <       0.00005015 Ry

     total magnetization       =     0.00 Bohr mag/cell
     absolute magnetization    =     0.00 Bohr mag/cell

     iteration #  8     ecut=    50.00 Ry     beta= 0.30
     Davidson diagonalization with overlap
     ethr =  2.53E-08,  avg # of iterations =  2.0

     negative rho (up, down):  1.335E-06 1.335E-06

     total cpu time spent up to now is      118.0 secs

     total energy              =    -923.10567379 Ry
     estimated scf accuracy    <       0.00000970 Ry

     total magnetization       =    -0.00 Bohr mag/cell
     absolute magnetization    =     0.00 Bohr mag/cell

     iteration #  9     ecut=    50.00 Ry     beta= 0.30
     Davidson diagonalization with overlap
     ethr =  4.90E-09,  avg # of iterations =  4.0

     negative rho (up, down):  1.323E-06 1.323E-06

     total cpu time spent up to now is      120.2 secs

     total energy              =    -923.10567519 Ry
     estimated scf accuracy    <       0.00000302 Ry

     total magnetization       =     0.00 Bohr mag/cell
     absolute magnetization    =     0.00 Bohr mag/cell

     iteration # 10     ecut=    50.00 Ry     beta= 0.30
     Davidson diagonalization with overlap
     ethr =  1.53E-09,  avg # of iterations =  2.0

     negative rho (up, down):  1.319E-06 1.319E-06

     Magnetic moment per site  (integrated on atomic sphere of radius R)
     atom   1 (R=0.045)  charge=  1.0393  magn=  0.0000
     atom   2 (R=0.045)  charge=  1.1096  magn=  0.0000
     atom   3 (R=0.045)  charge=  1.0974  magn=  0.0000
     atom   4 (R=0.045)  charge=  1.0408  magn=  0.0000
     atom   5 (R=0.045)  charge=  1.1087  magn=  0.0000
     atom   6 (R=0.045)  charge=  1.0971  magn= -0.0000
     atom   7 (R=0.045)  charge=  1.0383  magn=  0.0000
     atom   8 (R=0.045)  charge=  1.1099  magn=  0.0000
     atom   9 (R=0.045)  charge=  1.0984  magn= -0.0000
     atom  10 (R=0.045)  charge=  1.0383  magn=  0.0000
     atom  11 (R=0.045)  charge=  1.1091  magn=  0.0000
     atom  12 (R=0.045)  charge=  1.0983  magn= -0.0000
     atom  13 (R=0.045)  charge=  1.0191  magn= -0.0000
     atom  14 (R=0.045)  charge=  1.0986  magn= -0.0000
     atom  15 (R=0.045)  charge=  1.0686  magn=  0.0000
     atom  16 (R=0.045)  charge=  1.0261  magn= -0.0000
     atom  17 (R=0.045)  charge=  1.0890  magn= -0.0000
     atom  18 (R=0.045)  charge=  1.1133  magn=  0.0000
     atom  19 (R=0.045)  charge=  1.0216  magn= -0.0000
     atom  20 (R=0.045)  charge=  1.0993  magn=  0.0000
     atom  21 (R=0.045)  charge=  1.0692  magn= -0.0000
     atom  22 (R=0.045)  charge=  1.0191  magn= -0.0000
     atom  23 (R=0.045)  charge=  1.0988  magn=  0.0000
     atom  24 (R=0.045)  charge=  1.0687  magn= -0.0000
     atom  25 (R=0.045)  charge=  1.0560  magn=  0.0000
     atom  26 (R=0.045)  charge=  1.0592  magn= -0.0000
     atom  27 (R=0.045)  charge=  1.0928  magn= -0.0000
     atom  28 (R=0.045)  charge=  1.0384  magn= -0.0000
     atom  29 (R=0.045)  charge=  1.1080  magn=  0.0000
     atom  30 (R=0.045)  charge=  1.0979  magn= -0.0000
     atom  31 (R=0.045)  charge=  1.0391  magn=  0.0000
     atom  32 (R=0.045)  charge=  1.1085  magn=  0.0000
     atom  33 (R=0.045)  charge=  1.0997  magn= -0.0000
     atom  34 (R=0.045)  charge=  1.0378  magn=  0.0000
     atom  35 (R=0.045)  charge=  1.1073  magn=  0.0000
     atom  36 (R=0.045)  charge=  1.1005  magn= -0.0000
     atom  37 (R=0.045)  charge=  1.0143  magn= -0.0000
     atom  38 (R=0.045)  charge=  1.0931  magn= -0.0000
     atom  39 (R=0.045)  charge=  1.0697  magn=  0.0000
     atom  40 (R=0.045)  charge=  1.0206  magn=  0.0000
     atom  41 (R=0.045)  charge=  1.0989  magn=  0.0000
     atom  42 (R=0.045)  charge=  1.0677  magn= -0.0000
     atom  43 (R=0.045)  charge=  1.0255  magn= -0.0000
     atom  44 (R=0.045)  charge=  1.0969  magn= -0.0000
     atom  45 (R=0.045)  charge=  1.0678  magn=  0.0000
     atom  46 (R=0.045)  charge=  1.0238  magn= -0.0000
     atom  47 (R=0.045)  charge=  1.0951  magn= -0.0000
     atom  48 (R=0.045)  charge=  1.0686  magn=  0.0000
     atom  49 (R=0.051)  charge=  3.4847  magn=  0.0000

     total cpu time spent up to now is      122.2 secs

     End of self-consistent calculation

 ------ SPIN UP ------------


          k = 0.0000 0.0000 0.0000 ( 26858 PWs)   bands (ev):

   -22.2508 -21.8515 -21.7434 -17.6552 -17.6072 -17.5909 -17.4724 -17.4146
   -17.3806 -17.0237 -16.9517 -16.9444 -16.9125 -16.6423 -16.2876 -16.2427
   -16.1065 -15.8911 -15.8326 -15.7057 -15.5612 -15.4363 -14.7678 -14.7349
   -14.7095 -14.1734 -14.1033 -13.9606 -13.6318 -13.1545 -12.9865 -12.8072
   -12.7808 -12.2790 -12.2270 -12.2183 -12.1850 -11.4432 -11.2797 -11.2051
   -11.1693 -10.8348 -10.4096  -9.9846  -9.9454  -9.8678  -9.6947  -9.6519
    -9.5947  -9.5597  -9.5301  -9.4547  -9.4075  -7.2208  -7.1969  -7.0190
    -6.8092  -6.6927  -6.6618  -6.5791  -6.5389  -6.3716  -6.2476  -6.2172
    -6.0367  -6.0093  -5.8837  -5.7644  -5.7305  -5.7248  -5.6637  -5.6183
    -5.6148  -5.5414  -5.5210  -5.1916  -5.1586  -5.0458  -4.9563  -4.7553
    -4.7255  -4.6548  -3.9080  -3.7998  -3.6988  -3.5678  -3.4529  -3.3686
    -3.3274  -3.2160  -3.1620  -3.0812  -3.0774  -3.0110  -2.5282  -2.5029
    -2.2076  -2.1594  -1.9536  -1.0270  -0.3347  -0.2283  -0.0026   0.5562
     0.6071   0.7102   1.0511   1.0802   1.1235   1.1394   1.2443   1.3702
     1.8740   2.1783   2.2457   2.2638   2.4030   2.4209   2.4505

 ------ SPIN DOWN ----------


          k = 0.0000 0.0000 0.0000 ( 26858 PWs)   bands (ev):

   -22.2507 -21.8515 -21.7434 -17.6552 -17.6072 -17.5909 -17.4724 -17.4146
   -17.3806 -17.0237 -16.9517 -16.9444 -16.9125 -16.6423 -16.2876 -16.2427
   -16.1065 -15.8911 -15.8326 -15.7057 -15.5612 -15.4363 -14.7678 -14.7349
   -14.7095 -14.1734 -14.1033 -13.9606 -13.6318 -13.1545 -12.9865 -12.8072
   -12.7808 -12.2790 -12.2270 -12.2183 -12.1850 -11.4432 -11.2797 -11.2051
   -11.1693 -10.8348 -10.4096  -9.9846  -9.9454  -9.8678  -9.6947  -9.6519
    -9.5947  -9.5597  -9.5301  -9.4547  -9.4075  -7.2208  -7.1969  -7.0190
    -6.8092  -6.6927  -6.6618  -6.5791  -6.5389  -6.3716  -6.2476  -6.2172
    -6.0367  -6.0093  -5.8837  -5.7644  -5.7305  -5.7248  -5.6637  -5.6183
    -5.6148  -5.5414  -5.5210  -5.1916  -5.1586  -5.0458  -4.9562  -4.7553
    -4.7255  -4.6548  -3.9080  -3.7998  -3.6988  -3.5678  -3.4529  -3.3686
    -3.3274  -3.2160  -3.1620  -3.0812  -3.0774  -3.0110  -2.5282  -2.5029
    -2.2076  -2.1594  -1.9536  -1.0270  -0.3347  -0.2283  -0.0027   0.5562
     0.6071   0.7102   1.0511   1.0802   1.1235   1.1394   1.2443   1.3702
     1.8740   2.1783   2.2457   2.2638   2.4030   2.4209   2.4505

     the spin up/dw Fermi energies are    -1.3998   -1.3998 ev

!    total energy              =    -923.10567559 Ry
     total all-electron energy =     -3804.629263 Ry
     estimated scf accuracy    <       0.00000046 Ry
     smearing contrib. (-TS)   =      -0.00000000 Ry
     internal energy E=F+TS    =    -923.10567559 Ry

     The total energy is F=E-TS. E is the sum of the following terms:
     one-electron contribution =   -1248.37198337 Ry
     hartree contribution      =     670.29403734 Ry
     xc contribution           =    -225.61483216 Ry
     ewald contribution        =     186.18035859 Ry
     one-center paw contrib.   =    -305.59325600 Ry

     total magnetization       =    -0.00 Bohr mag/cell
     absolute magnetization    =     0.00 Bohr mag/cell

     convergence has been achieved in  10 iterations

     negative rho (up, down):  1.319E-06 1.319E-06

     Forces acting on atoms (cartesian axes, Ry/au):

     atom    1 type  1   force =     0.01250098   -0.01157713    0.00840066
     atom    2 type  1   force =    -0.00163394    0.00147268   -0.00136039
     atom    3 type  1   force =    -0.00977574    0.00937064   -0.00888075
     atom    4 type  1   force =    -0.00617474    0.00584296    0.00349193
     atom    5 type  1   force =     0.00529531   -0.00541501   -0.00645171
     atom    6 type  1   force =     0.00323908   -0.00388259    0.00706882
     atom    7 type  1   force =     0.00259966    0.01045479   -0.00924134
     atom    8 type  1   force =     0.00021335    0.00014158    0.00021021
     atom    9 type  1   force =    -0.00698297   -0.00886168    0.00967025
[...]
     estimated scf accuracy    <       0.00270855 Ry

     total magnetization       =     0.00 Bohr mag/cell
     absolute magnetization    =     0.01 Bohr mag/cell

     iteration #  8     ecut=    50.00 Ry     beta= 0.30
     Davidson diagonalization with overlap
     ethr =  1.37E-06,  avg # of iterations = 15.0

     negative rho (up, down):  1.293E-06 1.292E-06

     total cpu time spent up to now is     1015.7 secs

     total energy              =    -923.26546427 Ry
     estimated scf accuracy    <       0.00047530 Ry

     total magnetization       =    -0.00 Bohr mag/cell
     absolute magnetization    =     0.01 Bohr mag/cell

     iteration #  9     ecut=    50.00 Ry     beta= 0.30
     Davidson diagonalization with overlap
     ethr =  2.40E-07,  avg # of iterations =  2.0

     negative rho (up, down):  1.280E-06 1.280E-06

     total cpu time spent up to now is     1017.8 secs

     total energy              =    -923.26537290 Ry
     estimated scf accuracy    <       0.00009537 Ry

     total magnetization       =    -0.00 Bohr mag/cell
     absolute magnetization    =     0.01 Bohr mag/cell

     iteration # 10     ecut=    50.00 Ry     beta= 0.30
     Davidson diagonalization with overlap
     ethr =  4.82E-08,  avg # of iterations =  4.0

     negative rho (up, down):  1.272E-06 1.272E-06

     total cpu time spent up to now is     1020.0 secs

     total energy              =    -923.26530133 Ry
     estimated scf accuracy    <       0.00001865 Ry

     total magnetization       =     0.00 Bohr mag/cell
     absolute magnetization    =     0.01 Bohr mag/cell

     iteration # 11     ecut=    50.00 Ry     beta= 0.30
     Davidson diagonalization with overlap
     ethr =  9.42E-09,  avg # of iterations =  2.0

     negative rho (up, down):  1.265E-06 1.264E-06

     total cpu time spent up to now is     1022.2 secs

     total energy              =    -923.26527155 Ry
     estimated scf accuracy    <       0.00000573 Ry

     total magnetization       =    -0.00 Bohr mag/cell
     absolute magnetization    =     0.01 Bohr mag/cell

     iteration # 12     ecut=    50.00 Ry     beta= 0.30
     Davidson diagonalization with overlap
     ethr =  2.89E-09,  avg # of iterations =  3.0

     negative rho (up, down):  1.259E-06 1.259E-06

     total cpu time spent up to now is     1024.3 secs

     total energy              =    -923.26526143 Ry
     estimated scf accuracy    <       0.00000051 Ry

     total magnetization       =     0.00 Bohr mag/cell
     absolute magnetization    =     0.01 Bohr mag/cell

     iteration # 13     ecut=    50.00 Ry     beta= 0.30
     Davidson diagonalization with overlap
     ethr =  2.60E-10,  avg # of iterations =  4.0

     negative rho (up, down):  1.257E-06 1.257E-06

     total cpu time spent up to now is     1026.8 secs

     total energy              =    -923.26525359 Ry
     estimated scf accuracy    <       0.00000018 Ry

     total magnetization       =     0.00 Bohr mag/cell
     absolute magnetization    =     0.00 Bohr mag/cell

     iteration # 14     ecut=    50.00 Ry     beta= 0.30
     Davidson diagonalization with overlap
     ethr =  8.88E-11,  avg # of iterations =  4.0

     negative rho (up, down):  1.254E-06 1.254E-06

     total cpu time spent up to now is     1029.0 secs

     total energy              =    -923.26525179 Ry
     estimated scf accuracy    <       0.00000002 Ry

     total magnetization       =     0.00 Bohr mag/cell
     absolute magnetization    =     0.00 Bohr mag/cell

     iteration # 15     ecut=    50.00 Ry     beta= 0.30
     Davidson diagonalization with overlap
     ethr =  1.00E-11,  avg # of iterations =  4.0

     negative rho (up, down):  1.248E-06 1.247E-06

     Magnetic moment per site  (integrated on atomic sphere of radius R)
     atom   1 (R=0.045)  charge=  1.0281  magn= -0.0000
     atom   2 (R=0.045)  charge=  1.0943  magn= -0.0000
     atom   3 (R=0.045)  charge=  1.0897  magn=  0.0000
     atom   4 (R=0.045)  charge=  1.0282  magn=  0.0000
     atom   5 (R=0.045)  charge=  1.0957  magn= -0.0000
     atom   6 (R=0.045)  charge=  1.0866  magn=  0.0000
     atom   7 (R=0.045)  charge=  1.0296  magn= -0.0000
     atom   8 (R=0.045)  charge=  1.0954  magn= -0.0000
     atom   9 (R=0.045)  charge=  1.0899  magn=  0.0000
     atom  10 (R=0.045)  charge=  1.0293  magn= -0.0000
     atom  11 (R=0.045)  charge=  1.0951  magn=  0.0000
     atom  12 (R=0.045)  charge=  1.0894  magn= -0.0000
     atom  13 (R=0.045)  charge=  1.0280  magn=  0.0000
     atom  14 (R=0.045)  charge=  1.0953  magn= -0.0000
     atom  15 (R=0.045)  charge=  1.0895  magn=  0.0000
     atom  16 (R=0.045)  charge=  1.0292  magn= -0.0000
     atom  17 (R=0.045)  charge=  1.0874  magn= -0.0000
     atom  18 (R=0.045)  charge=  1.0901  magn= -0.0000
     atom  19 (R=0.045)  charge=  1.0294  magn=  0.0000
     atom  20 (R=0.045)  charge=  1.0956  magn=  0.0000
     atom  21 (R=0.045)  charge=  1.0882  magn= -0.0000
     atom  22 (R=0.045)  charge=  1.0285  magn= -0.0000
     atom  23 (R=0.045)  charge=  1.0943  magn=  0.0000
     atom  24 (R=0.045)  charge=  1.0888  magn= -0.0000
     atom  25 (R=0.045)  charge=  1.0258  magn= -0.0000
     atom  26 (R=0.045)  charge=  1.0620  magn= -0.0000
     atom  27 (R=0.045)  charge=  1.0552  magn=  0.0001
     atom  28 (R=0.045)  charge=  1.0289  magn=  0.0000
     atom  29 (R=0.045)  charge=  1.0952  magn=  0.0000
     atom  30 (R=0.045)  charge=  1.0882  magn= -0.0000
     atom  31 (R=0.045)  charge=  1.0308  magn=  0.0000
     atom  32 (R=0.045)  charge=  1.0957  magn=  0.0000
     atom  33 (R=0.045)  charge=  1.0893  magn= -0.0000
     atom  34 (R=0.045)  charge=  1.0308  magn= -0.0000
     atom  35 (R=0.045)  charge=  1.0962  magn=  0.0000
     atom  36 (R=0.045)  charge=  1.0887  magn= -0.0000
     atom  37 (R=0.045)  charge=  1.0217  magn=  0.0000
     atom  38 (R=0.045)  charge=  1.0951  magn=  0.0000
     atom  39 (R=0.045)  charge=  1.0904  magn= -0.0000
     atom  40 (R=0.045)  charge=  1.0293  magn= -0.0000
     atom  41 (R=0.045)  charge=  1.0959  magn=  0.0000
     atom  42 (R=0.045)  charge=  1.0893  magn= -0.0000
     atom  43 (R=0.045)  charge=  1.0310  magn=  0.0001
     atom  44 (R=0.045)  charge=  1.0967  magn=  0.0000
     atom  45 (R=0.045)  charge=  1.0895  magn= -0.0000
     atom  46 (R=0.045)  charge=  1.0292  magn= -0.0001
     atom  47 (R=0.045)  charge=  1.0958  magn= -0.0000
     atom  48 (R=0.045)  charge=  1.0893  magn= -0.0000
     atom  49 (R=0.046)  charge=  2.9652  magn= -0.0001

     total cpu time spent up to now is     1031.3 secs

     End of self-consistent calculation

 ------ SPIN UP ------------


          k = 0.0000 0.0000 0.0000 ( 26858 PWs)   bands (ev):

   -22.6180 -21.5903 -21.4826 -17.6108 -17.5844 -17.5193 -17.3850 -17.3663
   -17.3218 -16.9874 -16.9435 -16.9078 -16.8575 -16.5842 -16.1598 -16.1364
   -16.0307 -15.9694 -15.9294 -15.7877 -15.6419 -15.4419 -14.6905 -14.6657
   -14.4997 -14.2038 -14.1660 -14.0892 -13.6394 -13.2024 -12.8768 -12.8425
   -12.8000 -12.1982 -12.1535 -12.1228 -12.0785 -11.5015 -11.1270 -11.0937
   -11.0379 -10.7665 -10.3971  -9.9491  -9.9399  -9.9122  -9.5466  -9.5410
    -9.5325  -9.5093  -9.4986  -9.4313  -9.3911  -7.5101  -7.1284  -7.0166
    -6.8915  -6.7241  -6.6673  -6.5684  -6.5347  -6.3843  -6.3083  -6.2040
    -6.0244  -5.9836  -5.9376  -5.7339  -5.6879  -5.6855  -5.6158  -5.5712
    -5.5640  -5.4716  -5.4464  -5.1149  -5.0814  -4.9601  -4.7137  -4.6598
    -4.5448  -4.2464  -4.0289  -3.8621  -3.7146  -3.6927  -3.5321  -3.5199
    -3.4210  -3.4052  -3.2355  -3.2071  -3.0854  -3.0590  -3.0085  -2.4943
    -2.3751  -2.1504  -1.6115  -0.8959  -0.3611  -0.2801  -0.0902   0.5022
     0.5338   0.6530   1.0590   1.0623   1.1021   1.1153   1.2795   1.4166
     1.6847   2.2212   2.2929   2.2989   2.3140   2.3510   2.4591

 ------ SPIN DOWN ----------


          k = 0.0000 0.0000 0.0000 ( 26858 PWs)   bands (ev):

   -22.6182 -21.5903 -21.4826 -17.6108 -17.5843 -17.5193 -17.3850 -17.3663
   -17.3218 -16.9874 -16.9435 -16.9078 -16.8575 -16.5842 -16.1598 -16.1364
   -16.0307 -15.9694 -15.9294 -15.7877 -15.6419 -15.4418 -14.6905 -14.6657
   -14.4997 -14.2038 -14.1660 -14.0892 -13.6394 -13.2024 -12.8768 -12.8425
   -12.8000 -12.1982 -12.1535 -12.1228 -12.0785 -11.5015 -11.1270 -11.0937
   -11.0379 -10.7665 -10.3971  -9.9491  -9.9399  -9.9122  -9.5466  -9.5410
    -9.5325  -9.5093  -9.4986  -9.4313  -9.3911  -7.5101  -7.1285  -7.0166
    -6.8915  -6.7241  -6.6672  -6.5684  -6.5348  -6.3843  -6.3082  -6.2041
    -6.0244  -5.9836  -5.9376  -5.7339  -5.6879  -5.6855  -5.6158  -5.5712
    -5.5641  -5.4716  -5.4464  -5.1149  -5.0814  -4.9601  -4.7137  -4.6598
    -4.5447  -4.2464  -4.0290  -3.8621  -3.7146  -3.6927  -3.5322  -3.5199
    -3.4210  -3.4052  -3.2355  -3.2071  -3.0854  -3.0590  -3.0085  -2.4944
    -2.3751  -2.1504  -1.6114  -0.8957  -0.3611  -0.2801  -0.0902   0.5022
     0.5337   0.6530   1.0590   1.0623   1.1020   1.1153   1.2794   1.4166
     1.6847   2.2212   2.2929   2.2990   2.3139   2.3510   2.4591

     the spin up/dw Fermi energies are    -1.4498   -1.4498 ev

!    total energy              =    -923.26525119 Ry
     total all-electron energy =     -3804.788839 Ry
     estimated scf accuracy    <          4.5E-09 Ry
     smearing contrib. (-TS)   =      -0.00000000 Ry
     internal energy E=F+TS    =    -923.26525119 Ry

     The total energy is F=E-TS. E is the sum of the following terms:
     one-electron contribution =   -1240.69439644 Ry
     hartree contribution      =     666.45379342 Ry
     xc contribution           =    -225.42591026 Ry
     ewald contribution        =     181.97531067 Ry
     one-center paw contrib.   =    -305.57404858 Ry

     total magnetization       =     0.00 Bohr mag/cell
     absolute magnetization    =     0.00 Bohr mag/cell

     convergence has been achieved in  15 iterations

     negative rho (up, down):  1.248E-06 1.247E-06

     Forces acting on atoms (cartesian axes, Ry/au):

     atom    1 type  1   force =     0.00000753   -0.00000623    0.00010821
     atom    2 type  1   force =     0.00056342   -0.00065327   -0.00016713
     atom    3 type  1   force =    -0.00030869    0.00027884   -0.00083166
     atom    4 type  1   force =    -0.00001245    0.00004645    0.00021804
     atom    5 type  1   force =     0.00032839   -0.00032752    0.00063266
     atom    6 type  1   force =     0.00005382   -0.00006020   -0.00065750
     atom    7 type  1   force =     0.00000206    0.00008076   -0.00015511
     atom    8 type  1   force =    -0.00012715   -0.00018690    0.00005197
     atom    9 type  1   force =    -0.00013675   -0.00004654   -0.00037378
     atom   10 type  1   force =     0.00001633    0.00004482   -0.00011255
     atom   11 type  1   force =     0.00039146    0.00039838    0.00027042
     atom   12 type  1   force =    -0.00023369   -0.00006195   -0.00061347
     atom   13 type  1   force =    -0.00000428    0.00003486   -0.00002529
     atom   14 type  1   force =    -0.00032210    0.00026655   -0.00014033
     atom   15 type  1   force =    -0.00009372    0.00014506   -0.00046807
     atom   16 type  1   force =     0.00013129    0.00003345   -0.00011808
     atom   17 type  1   force =    -0.00009258    0.00014333    0.00004031
     atom   18 type  1   force =     0.00000683   -0.00006069    0.00031915
     atom   19 type  1   force =    -0.00002543   -0.00008651    0.00012731
     atom   20 type  1   force =     0.00019983   -0.00037304   -0.00014755
     atom   21 type  1   force =     0.00007907   -0.00013515   -0.00015797
     atom   22 type  1   force =     0.00018994    0.00001700    0.00016806
     atom   23 type  1   force =     0.00073040    0.00001850    0.00020529
     atom   24 type  1   force =    -0.00008184   -0.00032161   -0.00039985
     atom   25 type  1   force =     0.00014414   -0.00002933    0.00099029
     atom   26 type  1   force =    -0.00016277    0.00004400    0.00022754
     atom   27 type  1   force =     0.00000775   -0.00010887    0.00058889
     atom   28 type  1   force =    -0.00008810    0.00001990    0.00021750
     atom   29 type  1   force =    -0.00024546    0.00024496   -0.00061770
     atom   30 type  1   force =     0.00000208   -0.00002344   -0.00042207
     atom   31 type  1   force =     0.00017069   -0.00004835    0.00009519
     atom   32 type  1   force =    -0.00030940   -0.00016063    0.00019167
     atom   33 type  1   force =     0.00000584    0.00010427   -0.00000529
     atom   34 type  1   force =     0.00001681   -0.00023833    0.00005529
     atom   35 type  1   force =    -0.00008826   -0.00010988   -0.00012342
     atom   36 type  1   force =     0.00023460    0.00029981    0.00022550
     atom   37 type  1   force =     0.00028317   -0.00030219    0.00029945
     atom   38 type  1   force =     0.00025578   -0.00017733    0.00020157
     atom   39 type  1   force =     0.00023287   -0.00016905    0.00050640
     atom   40 type  1   force =     0.00005210   -0.00008298    0.00013830
     atom   41 type  1   force =    -0.00024547    0.00021031   -0.00050747
     atom   42 type  1   force =     0.00000726   -0.00000035    0.00003646
     atom   43 type  1   force =     0.00006103   -0.00000462    0.00017129
     atom   44 type  1   force =    -0.00030688    0.00055630   -0.00003272
     atom   45 type  1   force =    -0.00057745    0.00015456    0.00008027
     atom   46 type  1   force =    -0.00002316   -0.00023933    0.00021347
     atom   47 type  1   force =    -0.00054811    0.00034305   -0.00012175
     atom   48 type  1   force =    -0.00039428    0.00056670   -0.00002732
     atom   49 type  2   force =     0.00025353   -0.00003758   -0.00015443

     Total force =     0.003368     Total SCF correction =     0.000107
     Energy error            =      2.0E-05 Ry
     Gradient error          =      9.9E-04 Ry/Bohr

     bfgs converged in  40 scf cycles and  37 bfgs steps
     (criteria: energy <  1.0E-04 Ry, force <  1.0E-03 Ry/Bohr)

     End of BFGS Geometry Optimization

     Final energy             =    -923.2652511902 Ry

     File ./pwscf.bfgs deleted, as requested
Begin final coordinates

ATOMIC_POSITIONS (angstrom)
C             6.2090418551        4.5631223119        6.1936585051
C             7.7486197518        3.0275239420        7.7485204843
C             7.0374656165        3.7380371558        7.0341394955
C             4.5875366793        6.1793309109        6.1857263547
C             3.0334728141        7.7342002686        7.7029147421
C             3.7548842627        7.0117448738        7.0072877995
C             6.2116802760        6.1746537546        4.5621766685
C             7.7492551554        7.7119988411        3.0087837821
C             7.0428827186        7.0006181228        3.7279567464
C             4.5926404152        4.5495361412        4.5664031098
C             3.0559513283        3.0110792464        3.0135463047
C             3.7676921548        3.7160934030        3.7347805554
C             6.2157713680        4.5523917693        4.5706169468
C             7.7687349883        3.0009860231        3.0444835741
C             7.0529525881        3.7159350015        3.7513937298
C             4.5947119779        6.1704507046        4.5481613781
C             3.0269008148        7.7553022690        3.0860525285
C             3.7610820177        7.0096100127        3.7320796577
C             4.5894941661        4.5595140623        6.1862501431
C             3.0448870640        3.0187295603        7.7306103907
C             3.7573812263        3.7310812957        7.0192758524
C             6.2084128940        6.1837308289        6.1818991122
C             7.7492727154        7.7306974145        7.7249730020
C             7.0373168985        7.0188780362        7.0122138118
C             0.7193522346       10.0421636784        0.7253234123
C             2.0738606217        8.7726497556        2.6766783401
C             1.5562826907        9.2699123784        1.5182744104
C            10.0954689477        0.6722935056        0.6875928836
C             8.5623312042        2.2082932238        2.2512540566
C             9.2704578335        1.5002272734        1.5303585774
C             0.7136823459        0.6747829663       10.0667035959
C             2.2533780421        2.2217541265        8.5213195379
C             1.5435837646        1.5047877176        9.2307808949
C            10.0932895293       10.0579086135       10.0672366625
C             8.5466812533        8.5200658110        8.5182991717
C             9.2645435897        9.2272804174        9.2297704493
C             0.7102974237       10.0611988294       10.0486669521
C             2.2415813342        8.5273029270        8.4924582492
C             1.5303933579        9.2405859652        9.2078169480
C            10.0944910311        0.6760655578       10.0602426887
C             8.5438740443        2.2303970623        8.5360580690
C             9.2601412523        1.5115890438        9.2368012378
C            10.0675220807       10.0591516603        0.6782496850
C             8.5314177839        8.5058481444        2.2093224951
C             9.2275901930        9.2304091450        1.4922773082
C             0.7097446221        0.7004160983        0.6756300464
C             2.2640658706        2.2302191041        2.2116205125
C             1.5421694595        1.5324786471        1.4929421632
O             1.5127577424        9.5109723976        3.5764169766
End final coordinates



     Writing all to output data dir ./pwscf.save/

     init_run     :      2.69s CPU      2.79s WALL (       1 calls)
     electrons    :    835.19s CPU    871.64s WALL (      41 calls)
     update_pot   :     58.57s CPU     59.31s WALL (      39 calls)
     forces       :     62.92s CPU     65.54s WALL (      41 calls)

     Called by init_run:
     wfcinit      :      0.68s CPU      0.72s WALL (       1 calls)
     potinit      :      2.03s CPU      2.07s WALL (       2 calls)
     hinit0       :      0.66s CPU      0.67s WALL (       1 calls)

     Called by electrons:
     c_bands      :    457.26s CPU    470.96s WALL (     391 calls)
     sum_band     :    117.45s CPU    121.14s WALL (     391 calls)
     v_of_rho     :     95.11s CPU     98.43s WALL (     420 calls)
     newd         :     44.23s CPU     45.15s WALL (     420 calls)
     PAW_pot      :    140.24s CPU    141.02s WALL (     459 calls)
     mix_rho      :      9.64s CPU     10.41s WALL (     391 calls)

     Called by c_bands:
     init_us_2    :      7.07s CPU      7.21s WALL (    1726 calls)
     init_us_2:cp :      7.06s CPU      7.20s WALL (    1726 calls)
     regterg      :    445.82s CPU    459.22s WALL (     782 calls)

     Called by *egterg:
     rdiaghg      :     28.74s CPU     28.90s WALL (    2850 calls)
     h_psi        :    252.01s CPU    263.80s WALL (    2956 calls)
     s_psi        :     43.15s CPU     43.44s WALL (    2956 calls)
     g_psi        :      0.86s CPU      0.87s WALL (    2172 calls)

     Called by h_psi:
     h_psi:calbec :     42.38s CPU     43.10s WALL (    2956 calls)
     vloc_psi     :    163.73s CPU    174.49s WALL (    2956 calls)
     add_vuspsi   :     43.59s CPU     43.88s WALL (    2956 calls)

     General routines
     calbec       :     67.22s CPU     68.30s WALL (    4144 calls)
     fft          :     43.09s CPU     48.14s WALL (    9209 calls)
     ffts         :      2.03s CPU      2.29s WALL (    1622 calls)
     fftw         :    173.40s CPU    184.69s WALL (  272754 calls)
     interpolate  :      5.61s CPU      6.12s WALL (     840 calls)

     Parallel routines

     PWSCF        :  16m27.17s CPU  17m14.75s WALL


   This run was terminated on:   1: 9:24  25May2025            

=------------------------------------------------------------------------------=
   JOB DONE.
=------------------------------------------------------------------------------=
