ITEM: TIMESTEP
0
ITEM: NUMBER OF ATOMS
50
ITEM: BOX BOUNDS pp pp pp
0.0000000000000000e+00 1.1000000000000000e+01
0.0000000000000000e+00 1.1002000000000001e+01
0.0000000000000000e+00 1.1000000000000000e+01
ITEM: ATOMS id type x y z 
10 1 4.603 4.603 4.603 
11 1 3.085 3.085 3.085 
12 1 3.796 3.796 3.796 
46 1 0.726 0.725 0.725 
47 1 2.26 2.259 2.26 
48 1 1.551 1.55 1.55 
19 1 4.546 4.545 6.226 
20 1 3.013 3.013 7.764 
21 1 3.721 3.721 7.053 
31 1 0.668 0.667 10.103 
32 1 2.187 2.187 8.589 
33 1 1.476 1.475 9.298 
16 1 4.546 6.225 4.546 
17 1 3.013 7.765 3.013 
18 1 3.721 7.053 3.722 
25 1 0.668 10.103 0.668 
26 1 2.188 8.589 2.188 
27 1 1.476 9.298 1.476 
4 1 4.608 6.169 6.169 
5 1 3.086 7.684 7.684 
6 1 3.799 6.974 6.974 
37 1 0.729 10.046 10.046 
38 1 2.259 8.509 8.508 
39 1 1.552 9.219 9.219 
13 1 6.225 4.546 4.546 
14 1 7.764 3.013 3.013 
15 1 7.053 3.721 3.722 
28 1 10.102 0.667 0.668 
29 1 8.589 2.187 2.188 
30 1 9.298 1.475 1.476 
49 2 7.312 2.9 4.772 
50 3 7.312 1.924 4.772 
1 1 6.168 4.608 6.169 
2 1 7.684 3.086 7.684 
3 1 6.974 3.799 6.974 
40 1 10.045 0.728 10.046 
41 1 8.508 2.259 8.508 
42 1 9.218 1.551 9.218 
7 1 6.169 6.169 4.608 
8 1 7.684 7.684 3.086 
9 1 6.974 6.974 3.799 
43 1 10.046 10.047 0.729 
44 1 8.508 8.509 2.259 
45 1 9.219 9.219 1.552 
22 1 6.229 6.229 6.229 
23 1 7.764 7.765 7.765 
24 1 7.055 7.056 7.055 
34 1 10.108 10.108 10.107 
35 1 8.59 8.59 8.59 
36 1 9.301 9.301 9.3 
ITEM: TIMESTEP
10
ITEM: NUMBER OF ATOMS
50
ITEM: BOX BOUNDS pp pp pp
0.0000000000000000e+00 1.1000000000000000e+01
0.0000000000000000e+00 1.1002000000000001e+01
0.0000000000000000e+00 1.1000000000000000e+01
ITEM: ATOMS id type x y z 
10 1 4.59941 4.59715 4.59837 
11 1 3.07779 3.07934 3.08043 
12 1 3.78875 3.78555 3.78394 
46 1 0.734662 0.732521 0.732593 
47 1 2.27186 2.27106 2.27147 
48 1 1.56543 1.56419 1.5652 
19 1 4.53384 4.53854 6.24223 
20 1 2.99919 2.99822 7.77695 
21 1 3.70553 3.70729 7.07019 
31 1 0.673219 0.672695 10.0966 
32 1 2.19315 2.19208 8.58354 
33 1 1.48303 1.48404 9.28948 
16 1 4.52431 6.2445 4.53951 
17 1 2.99954 7.77834 2.99737 
18 1 3.70325 7.07085 3.70865 
25 1 0.673578 10.0974 0.674238 
26 1 2.1933 8.5844 2.19283 
27 1 1.48335 9.28937 1.48409 
4 1 4.60162 6.17544 6.17657 
5 1 3.08033 7.69038 7.68971 
6 1 3.78935 6.9821 6.98339 
37 1 0.736393 10.0386 10.0385 
38 1 2.27076 8.49697 8.49657 
39 1 1.56646 9.20533 9.20427 
13 1 6.18182 4.60454 4.55307 
14 1 7.79087 3.00929 2.95022 
15 1 7.11119 3.70714 3.64315 
28 1 10.0958 0.675215 0.675738 
29 1 8.5747 2.19257 2.19576 
30 1 9.28458 1.48512 1.48654 
49 2 7.32997 2.84276 4.8332 
50 3 7.32376 1.8729 4.79413 
1 1 6.17185 4.60367 6.16816 
2 1 7.68883 3.08178 7.69022 
3 1 6.98286 3.78985 6.98278 
40 1 10.0379 0.735182 10.0374 
41 1 8.49688 2.27014 8.4969 
42 1 9.20457 1.56475 9.20411 
7 1 6.17419 6.17392 4.60032 
8 1 7.69077 7.69175 3.07881 
9 1 6.98602 6.98512 3.7876 
43 1 10.0385 10.0384 0.736326 
44 1 8.49771 8.49854 2.26956 
45 1 9.20582 9.20596 1.56506 
22 1 6.23587 6.24202 6.24829 
23 1 7.7781 7.77814 7.77685 
24 1 7.06788 7.07064 7.07212 
34 1 10.1013 10.1027 10.1008 
35 1 8.58473 8.58467 8.58371 
36 1 9.29156 9.29187 9.29253 
ITEM: TIMESTEP
20
ITEM: NUMBER OF ATOMS
50
ITEM: BOX BOUNDS pp pp pp
0.0000000000000000e+00 1.1000000000000000e+01
0.0000000000000000e+00 1.1002000000000001e+01
0.0000000000000000e+00 1.1000000000000000e+01
ITEM: ATOMS id type x y z 
10 1 4.6219 4.6011 4.59721 
11 1 3.08792 3.0826 3.08182 
12 1 3.78448 3.79181 3.79641 
46 1 0.737661 0.732439 0.73246 
47 1 2.26938 2.26879 2.27 
48 1 1.56518 1.56183 1.55959 
19 1 4.53844 4.54333 6.24884 
20 1 3.00132 3.00095 7.77313 
21 1 3.70862 3.71301 7.07218 
31 1 0.667954 0.673384 10.0953 
32 1 2.18453 2.18893 8.58747 
33 1 1.4857 1.47242 9.29417 
16 1 4.51728 6.24964 4.55399 
17 1 2.99954 7.77811 2.99038 
18 1 3.69385 7.07633 3.72075 
25 1 0.676242 10.0976 0.670075 
26 1 2.18608 8.58583 2.18622 
27 1 1.48449 9.30275 1.47779 
4 1 4.60018 6.16917 6.17771 
5 1 3.07973 7.68358 7.68703 
6 1 3.79892 6.98991 6.98181 
37 1 0.738281 10.0383 10.0344 
38 1 2.26805 8.50047 8.49907 
39 1 1.56238 9.20503 9.20854 
13 1 6.22317 4.54625 4.5185 
14 1 7.74916 3.09124 2.94204 
15 1 7.06214 3.96792 3.44227 
28 1 10.1025 0.671978 0.666211 
29 1 8.58086 2.1748 2.17291 
30 1 9.29027 1.47329 1.47437 
49 2 7.37267 2.65937 5.08469 
50 3 7.33425 1.75957 4.8635 
1 1 6.17425 4.60269 6.13353 
2 1 7.67877 3.09259 7.68462 
3 1 6.97863 3.79621 6.96852 
40 1 10.0367 0.734879 10.0316 
41 1 8.49648 2.26937 8.4968 
42 1 9.20446 1.56838 9.20488 
7 1 6.16762 6.16953 4.60827 
8 1 7.69201 7.68452 3.0832 
9 1 6.97224 6.98867 3.78855 
43 1 10.0395 10.0352 0.733758 
44 1 8.50307 8.50023 2.26788 
45 1 9.20717 9.21273 1.5606 
22 1 6.22727 6.23509 6.25373 
23 1 7.77602 7.7748 7.77277 
24 1 7.06092 7.06674 7.07571 
34 1 10.1016 10.1042 10.0968 
35 1 8.58727 8.58604 8.58974 
36 1 9.2989 9.30138 9.28817 
ITEM: TIMESTEP
30
ITEM: NUMBER OF ATOMS
50
ITEM: BOX BOUNDS pp pp pp
0.0000000000000000e+00 1.1000000000000000e+01
0.0000000000000000e+00 1.1002000000000001e+01
0.0000000000000000e+00 1.1000000000000000e+01
ITEM: ATOMS id type x y z 
10 1 4.61398 4.6014 4.5996 
11 1 3.08574 3.08606 3.08719 
12 1 3.79522 3.79232 3.79323 
46 1 0.736119 0.734321 0.732941 
47 1 2.27253 2.27072 2.27146 
48 1 1.56616 1.56448 1.56301 
19 1 4.54259 4.5389 6.24118 
20 1 3.00199 3.00349 7.774 
21 1 3.71022 3.71099 7.06857 
31 1 0.670747 0.673118 10.0954 
32 1 2.18965 2.18745 8.58625 
33 1 1.48031 1.47919 9.29163 
16 1 4.52337 6.24485 4.55023 
17 1 3.00069 7.77568 2.99726 
18 1 3.69856 7.07293 3.71765 
25 1 0.675818 10.1007 0.672238 
26 1 2.18895 8.58909 2.18602 
27 1 1.48081 9.29564 1.47772 
4 1 4.60081 6.17292 6.17842 
5 1 3.08305 7.68928 7.6874 
6 1 3.79174 6.98048 6.98273 
37 1 0.738272 10.0368 10.034 
38 1 2.26889 8.49765 8.49875 
39 1 1.56381 9.20678 9.20588 
13 1 6.22632 4.5625 4.50335 
14 1 7.75282 3.09914 2.92191 
15 1 7.06049 3.94858 3.46183 
28 1 10.101 0.669509 0.667751 
29 1 8.57328 2.18471 2.1832 
30 1 9.28357 1.48065 1.47816 
49 2 7.37386 2.6513 5.08988 
50 3 7.33527 1.75607 4.86478 
1 1 6.17665 4.59811 6.13844 
2 1 7.67769 3.0948 7.68628 
3 1 6.97881 3.79544 6.96386 
40 1 10.0355 0.737413 10.0334 
41 1 8.49421 2.27315 8.49521 
42 1 9.20262 1.56794 9.20292 
7 1 6.1623 6.17357 4.60576 
8 1 7.68528 7.68566 3.08461 
9 1 6.97718 6.98104 3.79305 
43 1 10.0378 10.0391 0.733895 
44 1 8.50106 8.50041 2.26937 
45 1 9.20684 9.20762 1.56267 
22 1 6.23268 6.23327 6.2467 
23 1 7.77325 7.77425 7.77449 
24 1 7.06414 7.06543 7.07183 
34 1 10.1003 10.1059 10.0959 
35 1 8.58818 8.58724 8.58572 
36 1 9.29477 9.29695 9.29237 
ITEM: TIMESTEP
40
ITEM: NUMBER OF ATOMS
50
ITEM: BOX BOUNDS pp pp pp
0.0000000000000000e+00 1.1000000000000000e+01
0.0000000000000000e+00 1.1002000000000001e+01
0.0000000000000000e+00 1.1000000000000000e+01
ITEM: ATOMS id type x y z 
10 1 4.6096 4.60015 4.59834 
11 1 3.08623 3.08615 3.08784 
12 1 3.79635 3.793 3.79294 
46 1 0.733281 0.736331 0.733028 
47 1 2.27317 2.27097 2.27158 
48 1 1.56571 1.56587 1.56444 
19 1 4.5471 4.53432 6.23554 
20 1 3.00249 3.00568 7.77392 
21 1 3.71263 3.70833 7.06657 
31 1 0.669321 0.674161 10.0968 
32 1 2.19039 2.18746 8.58567 
33 1 1.4798 1.48106 9.2911 
16 1 4.52235 6.24358 4.54851 
17 1 2.99953 7.77659 3.00066 
18 1 3.70104 7.07034 3.7137 
25 1 0.673253 10.1028 0.671745 
26 1 2.18902 8.5885 2.18534 
27 1 1.48092 9.29651 1.47826 
4 1 4.60059 6.17096 6.18046 
5 1 3.08287 7.68834 7.68739 
6 1 3.79295 6.98028 6.98291 
37 1 0.7366 10.0389 10.0345 
38 1 2.2684 8.49853 8.49937 
39 1 1.56334 9.20754 9.20606 
13 1 6.22973 4.5728 4.49412 
14 1 7.75692 3.10964 2.89982 
15 1 7.0583 3.92905 3.47923 
28 1 10.0969 0.672872 0.671494 
29 1 8.57159 2.18976 2.18405 
30 1 9.28165 1.48279 1.48064 
49 2 7.37658 2.63922 5.09838 
50 3 7.33663 1.74708 4.86792 
1 1 6.1799 4.59635 6.13987 
2 1 7.67854 3.09518 7.68649 
3 1 6.97833 3.79576 6.96471 
40 1 10.0348 0.739104 10.0356 
41 1 8.4941 2.27395 8.49574 
42 1 9.20158 1.56883 9.20264 
7 1 6.16423 6.17993 4.60464 
8 1 7.68595 7.68562 3.0844 
9 1 6.97588 6.9839 3.79373 
43 1 10.0363 10.0413 0.734361 
44 1 8.50064 8.49947 2.26936 
45 1 9.20627 9.20825 1.56386 
22 1 6.2369 6.23006 6.24379 
23 1 7.7715 7.77341 7.77405 
24 1 7.06511 7.06308 7.07037 
34 1 10.0994 10.1073 10.0974 
35 1 8.58767 8.58663 8.58532 
36 1 9.29372 9.29725 9.29131 
ITEM: TIMESTEP
50
ITEM: NUMBER OF ATOMS
50
ITEM: BOX BOUNDS pp pp pp
0.0000000000000000e+00 1.1000000000000000e+01
0.0000000000000000e+00 1.1002000000000001e+01
0.0000000000000000e+00 1.1000000000000000e+01
ITEM: ATOMS id type x y z 
10 1 4.60627 4.60244 4.59371 
11 1 3.08725 3.08423 3.08573 
12 1 3.79299 3.79249 3.79284 
46 1 0.731154 0.740597 0.73516 
47 1 2.27512 2.27034 2.27043 
48 1 1.56077 1.568 1.56727 
19 1 4.55299 4.52844 6.23065 
20 1 3.00343 3.00977 7.77468 
21 1 3.7179 3.70091 7.06108 
31 1 0.667611 0.677297 10.0983 
32 1 2.19072 2.18903 8.58663 
33 1 1.47765 1.48089 9.28878 
16 1 4.51835 6.24226 4.55026 
17 1 2.99747 7.77956 3.0001 
18 1 3.69968 7.06849 3.71245 
25 1 0.671735 10.1029 0.670327 
26 1 2.18642 8.5884 2.18226 
27 1 1.48169 9.30112 1.47979 
4 1 4.60118 6.16676 6.18044 
5 1 3.0833 7.68661 7.68729 
6 1 3.79432 6.97878 6.98345 
37 1 0.732518 10.043 10.0356 
38 1 2.26687 8.50077 8.50016 
39 1 1.56262 9.20915 9.20823 
13 1 6.23105 4.58255 4.49067 
14 1 7.76007 3.13121 2.86245 
15 1 7.05491 3.9012 3.50085 
28 1 10.0927 0.676989 0.676946 
29 1 8.57442 2.1962 2.17949 
30 1 9.2812 1.4843 1.4761 
49 2 7.38328 2.61102 5.12172 
50 3 7.33937 1.72247 4.87702 
1 1 6.18276 4.59405 6.13748 
2 1 7.67901 3.09446 7.6882 
3 1 6.98268 3.79725 6.96571 
40 1 10.0317 0.741062 10.0371 
41 1 8.49464 2.273 8.49667 
42 1 9.20179 1.57169 9.20702 
7 1 6.16178 6.1945 4.60178 
8 1 7.68866 7.6897 3.08052 
9 1 6.97749 6.99112 3.79373 
43 1 10.0329 10.0448 0.736793 
44 1 8.50209 8.50087 2.26828 
45 1 9.20748 9.20938 1.56234 
22 1 6.23941 6.22574 6.24438 
23 1 7.77174 7.77337 7.77367 
24 1 7.06662 7.06081 7.07207 
34 1 10.0969 10.1096 10.0977 
35 1 8.58637 8.58719 8.58644 
36 1 9.295 9.29815 9.28928 
ITEM: TIMESTEP
60
ITEM: NUMBER OF ATOMS
50
ITEM: BOX BOUNDS pp pp pp
0.0000000000000000e+00 1.1000000000000000e+01
0.0000000000000000e+00 1.1002000000000001e+01
0.0000000000000000e+00 1.1000000000000000e+01
ITEM: ATOMS id type x y z 
10 1 4.60637 4.60242 4.59441 
11 1 3.08594 3.08397 3.08672 
12 1 3.79555 3.79269 3.79045 
46 1 0.729719 0.740696 0.735587 
47 1 2.27356 2.27075 2.27147 
48 1 1.56317 1.56714 1.56529 
19 1 4.55347 4.52661 6.22947 
20 1 3.00398 3.00758 7.77391 
21 1 3.71703 3.70326 7.06293 
31 1 0.667358 0.676961 10.0973 
32 1 2.18984 2.18863 8.58499 
33 1 1.47933 1.483 9.2914 
16 1 4.51826 6.24268 4.54973 
17 1 2.99807 7.77814 2.99975 
18 1 3.69798 7.07099 3.71318 
25 1 0.672719 10.1057 0.671174 
26 1 2.18755 8.59005 2.18383 
27 1 1.4797 9.29823 1.47701 
4 1 4.60218 6.16687 6.18104 
5 1 3.08377 7.68742 7.68757 
6 1 3.7928 6.97738 6.98409 
37 1 0.733285 10.0428 10.0357 
38 1 2.26749 8.50048 8.50065 
39 1 1.56226 9.20929 9.20654 
13 1 6.23143 4.58306 4.49009 
14 1 7.75894 3.13387 2.86066 
15 1 7.05395 3.90031 3.50256 
28 1 10.0933 0.675879 0.676278 
29 1 8.57285 2.19814 2.17779 
30 1 9.28234 1.4869 1.47716 
49 2 7.38436 2.60643 5.12542 
50 3 7.33974 1.71847 4.87869 
1 1 6.18423 4.59496 6.13684 
2 1 7.6798 3.09568 7.68887 
3 1 6.98169 3.79545 6.96442 
40 1 10.032 0.742049 10.0378 
41 1 8.49405 2.27488 8.49712 
42 1 9.20114 1.57025 9.20549 
7 1 6.16194 6.194 4.60328 
8 1 7.68898 7.68991 3.08178 
9 1 6.97589 6.99143 3.79224 
43 1 10.0335 10.044 0.736137 
44 1 8.50233 8.49996 2.26796 
45 1 9.20691 9.21082 1.56305 
22 1 6.23884 6.22603 6.24451 
23 1 7.77168 7.77269 7.77451 
24 1 7.06674 7.06123 7.07054 
34 1 10.0979 10.1094 10.0962 
35 1 8.58726 8.58715 8.58511 
36 1 9.29272 9.29827 9.29128 
ITEM: TIMESTEP
70
ITEM: NUMBER OF ATOMS
50
ITEM: BOX BOUNDS pp pp pp
0.0000000000000000e+00 1.1000000000000000e+01
0.0000000000000000e+00 1.1002000000000001e+01
0.0000000000000000e+00 1.1000000000000000e+01
ITEM: ATOMS id type x y z 
10 1 4.6064 4.6025 4.59432 
11 1 3.08599 3.08396 3.08672 
12 1 3.79564 3.79278 3.79045 
46 1 0.72966 0.74073 0.735543 
47 1 2.2734 2.27078 2.27158 
48 1 1.56333 1.56705 1.56509 
19 1 4.55363 4.52622 6.22921 
20 1 3.00422 3.0071 7.77363 
21 1 3.71684 3.70395 7.06329 
31 1 0.667453 0.677096 10.0974 
32 1 2.18992 2.18875 8.58511 
33 1 1.47915 1.48303 9.29114 
16 1 4.51821 6.24281 4.54986 
17 1 2.99795 7.77808 2.9996 
18 1 3.69797 7.07118 3.71344 
25 1 0.672808 10.1058 0.671121 
26 1 2.1875 8.59008 2.18379 
27 1 1.47968 9.29836 1.47693 
4 1 4.6022 6.16665 6.18111 
5 1 3.08378 7.68738 7.6876 
6 1 3.79277 6.9773 6.98417 
37 1 0.733356 10.0428 10.0357 
38 1 2.26754 8.5004 8.50069 
39 1 1.56229 9.20943 9.20633 
13 1 6.23153 4.58314 4.49002 
14 1 7.75879 3.13443 2.86001 
15 1 7.05374 3.90008 3.5029 
28 1 10.0934 0.675662 0.676355 
29 1 8.57266 2.19854 2.17752 
30 1 9.28246 1.48765 1.47682 
49 2 7.38467 2.60514 5.12644 
50 3 7.33984 1.71734 4.87916 
1 1 6.18436 4.5949 6.13675 
2 1 7.67979 3.09576 7.68888 
3 1 6.98175 3.79553 6.96434 
40 1 10.0321 0.74206 10.0377 
41 1 8.49401 2.275 8.49722 
42 1 9.2011 1.57028 9.20544 
7 1 6.1617 6.19414 4.60341 
8 1 7.68888 7.68996 3.08186 
9 1 6.9758 6.99151 3.7923 
43 1 10.0335 10.0441 0.736066 
44 1 8.5023 8.50005 2.26801 
45 1 9.20699 9.21064 1.56298 
22 1 6.23874 6.22617 6.24438 
23 1 7.77174 7.77256 7.77445 
24 1 7.0666 7.06124 7.07063 
34 1 10.0978 10.1095 10.0962 
35 1 8.58716 8.58717 8.58522 
36 1 9.29286 9.29832 9.29107 
ITEM: TIMESTEP
80
ITEM: NUMBER OF ATOMS
50
ITEM: BOX BOUNDS pp pp pp
0.0000000000000000e+00 1.1000000000000000e+01
0.0000000000000000e+00 1.1002000000000001e+01
0.0000000000000000e+00 1.1000000000000000e+01
ITEM: ATOMS id type x y z 
10 1 4.60608 4.60607 4.59047 
11 1 3.08835 3.08386 3.08681 
12 1 3.79737 3.79498 3.78931 
46 1 0.731359 0.742231 0.732326 
47 1 2.27105 2.27177 2.27376 
48 1 1.56556 1.56746 1.56404 
19 1 4.55956 4.51419 6.22118 
20 1 3.01426 2.99158 7.76432 
21 1 3.70916 3.72512 7.07443 
31 1 0.667893 0.680669 10.096 
32 1 2.19004 2.1923 8.58478 
33 1 1.47856 1.48626 9.28939 
16 1 4.51414 6.25123 4.55769 
17 1 2.99435 7.77788 2.99774 
18 1 3.69413 7.07562 3.71637 
25 1 0.673065 10.1079 0.66693 
26 1 2.18431 8.5914 2.18222 
27 1 1.4815 9.30315 1.47399 
4 1 4.60138 6.15772 6.18589 
5 1 3.0849 7.68549 7.68942 
6 1 3.79152 6.97248 6.98679 
37 1 0.735132 10.0455 10.0311 
38 1 2.26865 8.50027 8.49983 
39 1 1.56373 9.21102 9.20455 
13 1 6.23531 4.58559 4.48806 
14 1 7.75287 3.15855 2.83079 
15 1 7.04714 3.88699 3.51519 
28 1 10.0948 0.675555 0.67659 
29 1 8.57027 2.22533 2.15594 
30 1 9.28139 1.50032 1.47065 
49 2 7.39869 2.54625 5.17227 
50 3 7.34455 1.66489 4.90083 
1 1 6.18931 4.5928 6.13348 
2 1 7.68056 3.09901 7.68948 
3 1 6.98401 3.79821 6.96244 
40 1 10.0337 0.742578 10.0365 
41 1 8.49141 2.28026 8.50164 
42 1 9.2007 1.57126 9.20354 
7 1 6.15286 6.20317 4.60679 
8 1 7.68592 7.6924 3.08433 
9 1 6.97054 6.99799 3.79574 
43 1 10.0363 10.0435 0.731301 
44 1 8.50374 8.50116 2.26781 
45 1 9.20758 9.21091 1.56137 
22 1 6.23292 6.23231 6.24265 
23 1 7.7733 7.76851 7.77531 
24 1 7.06566 7.06161 7.07044 
34 1 10.0985 10.112 10.0926 
35 1 8.58563 8.58801 8.5853 
36 1 9.29236 9.29977 9.28956 
ITEM: TIMESTEP
90
ITEM: NUMBER OF ATOMS
50
ITEM: BOX BOUNDS pp pp pp
0.0000000000000000e+00 1.1000000000000000e+01
0.0000000000000000e+00 1.1002000000000001e+01
0.0000000000000000e+00 1.1000000000000000e+01
ITEM: ATOMS id type x y z 
10 1 4.60625 4.60664 4.59024 
11 1 3.08826 3.08375 3.0867 
12 1 3.79714 3.79497 3.78896 
46 1 0.731591 0.742258 0.732369 
47 1 2.27232 2.27155 2.27355 
48 1 1.56387 1.56845 1.56499 
19 1 4.55913 4.51665 6.22185 
20 1 3.01277 2.99349 7.76597 
21 1 3.71076 3.72115 7.07261 
31 1 0.667432 0.680693 10.0955 
32 1 2.19012 2.19197 8.58417 
33 1 1.47906 1.48625 9.28982 
16 1 4.51371 6.25072 4.5572 
17 1 2.9942 7.77824 2.998 
18 1 3.69379 7.07533 3.71612 
25 1 0.67363 10.1087 0.666569 
26 1 2.18559 8.59257 2.18212 
27 1 1.47921 9.30092 1.47405 
4 1 4.60019 6.15812 6.1861 
5 1 3.08457 7.68516 7.68924 
6 1 3.79221 6.97226 6.98747 
37 1 0.735148 10.0456 10.0311 
38 1 2.26883 8.50042 8.50002 
39 1 1.56346 9.21102 9.20414 
13 1 6.23449 4.58606 4.48855 
14 1 7.7529 3.15881 2.83015 
15 1 7.04747 3.88617 3.51558 
28 1 10.0942 0.675332 0.677572 
29 1 8.57129 2.22559 2.1545 
30 1 9.28144 1.50082 1.46793 
49 2 7.39925 2.54387 5.1734 
50 3 7.34475 1.66245 4.90183 
1 1 6.18933 4.5937 6.13312 
2 1 7.68091 3.09936 7.68986 
3 1 6.984 3.79762 6.96242 
40 1 10.0333 0.742501 10.0361 
41 1 8.49194 2.27954 8.50112 
42 1 9.2005 1.57228 9.20558 
7 1 6.15307 6.20386 4.6064 
8 1 7.68632 7.69342 3.08425 
9 1 6.9706 6.99817 3.79486 
43 1 10.0357 10.0442 0.731559 
44 1 8.5037 8.50146 2.26761 
45 1 9.20808 9.21073 1.56135 
22 1 6.23372 6.23174 6.24323 
23 1 7.77373 7.7688 7.77559 
24 1 7.06545 7.06173 7.07071 
34 1 10.0985 10.1121 10.093 
35 1 8.58569 8.58803 8.58527 
36 1 9.29229 9.29972 9.28953 
ITEM: TIMESTEP
100
ITEM: NUMBER OF ATOMS
50
ITEM: BOX BOUNDS pp pp pp
0.0000000000000000e+00 1.1000000000000000e+01
0.0000000000000000e+00 1.1002000000000001e+01
0.0000000000000000e+00 1.1000000000000000e+01
ITEM: ATOMS id type x y z 
10 1 4.60619 4.60965 4.58928 
11 1 3.0881 3.08359 3.08633 
12 1 3.79711 3.79559 3.78758 
46 1 0.729021 0.744038 0.734068 
47 1 2.27257 2.27096 2.27315 
48 1 1.56263 1.56873 1.56505 
19 1 4.55574 4.5256 6.22666 
20 1 3.00773 3.00494 7.77219 
21 1 3.72007 3.70177 7.06169 
31 1 0.666898 0.681238 10.0957 
32 1 2.19068 2.19001 8.58328 
33 1 1.47914 1.48559 9.28992 
16 1 4.51278 6.24879 4.55485 
17 1 2.99315 7.78084 3.00006 
18 1 3.69205 7.07309 3.71398 
25 1 0.67325 10.1089 0.665541 
26 1 2.18514 8.59302 2.18134 
27 1 1.4788 9.3013 1.47297 
4 1 4.59837 6.15959 6.18764 
5 1 3.08394 7.68414 7.69117 
6 1 3.79147 6.97169 6.98872 
37 1 0.734608 10.0468 10.0307 
38 1 2.26901 8.50103 8.50003 
39 1 1.56341 9.21159 9.20385 
13 1 6.23211 4.58807 4.48918 
14 1 7.75329 3.16029 2.82686 
15 1 7.04857 3.88111 3.51954 
28 1 10.0939 0.675553 0.678472 
29 1 8.57283 2.23159 2.14353 
30 1 9.28303 1.50472 1.45952 
49 2 7.40285 2.52814 5.18065 
50 3 7.34607 1.64645 4.90852 
1 1 6.18951 4.59748 6.13202 
2 1 7.68178 3.1 7.69055 
3 1 6.98518 3.79838 6.96317 
40 1 10.0317 0.743396 10.0368 
41 1 8.49318 2.27833 8.50028 
42 1 9.19968 1.5761 9.21115 
7 1 6.15347 6.20623 4.60472 
8 1 7.68665 7.69684 3.0833 
9 1 6.97094 7.00129 3.7941 
43 1 10.0339 10.0458 0.733538 
44 1 8.50409 8.5011 2.26723 
45 1 9.20818 9.21216 1.56157 
22 1 6.23687 6.22922 6.24417 
23 1 7.77389 7.7693 7.77584 
24 1 7.06542 7.06137 7.07186 
34 1 10.0986 10.1115 10.093 
35 1 8.58586 8.58807 8.58539 
36 1 9.29273 9.29998 9.28927 
ITEM: TIMESTEP
110
ITEM: NUMBER OF ATOMS
50
ITEM: BOX BOUNDS pp pp pp
0.0000000000000000e+00 1.1000000000000000e+01
0.0000000000000000e+00 1.1002000000000001e+01
0.0000000000000000e+00 1.1000000000000000e+01
ITEM: ATOMS id type x y z 
10 1 4.60628 4.60957 4.58922 
11 1 3.08833 3.08355 3.08626 
12 1 3.79682 3.79582 3.78777 
46 1 0.729171 0.744057 0.733987 
47 1 2.2726 2.27104 2.27314 
48 1 1.56271 1.56873 1.56525 
19 1 4.55591 4.525 6.22653 
20 1 3.008 3.00462 7.77203 
21 1 3.71986 3.70233 7.06172 
31 1 0.666897 0.681309 10.0957 
32 1 2.19071 2.19015 8.58339 
33 1 1.47909 1.48552 9.2897 
16 1 4.51283 6.24854 4.55458 
17 1 2.99301 7.78053 2.9998 
18 1 3.69212 7.07374 3.71448 
25 1 0.673332 10.1089 0.665467 
26 1 2.18516 8.59306 2.18123 
27 1 1.47869 9.30135 1.47306 
4 1 4.59845 6.15949 6.18761 
5 1 3.08384 7.68403 7.69133 
6 1 3.79151 6.97189 6.98869 
37 1 0.734536 10.0468 10.0307 
38 1 2.26895 8.501 8.50008 
39 1 1.56343 9.2118 9.20386 
13 1 6.23227 4.58799 4.48899 
14 1 7.75322 3.16045 2.82686 
15 1 7.04849 3.88094 3.51989 
28 1 10.0938 0.675512 0.678392 
29 1 8.57262 2.23205 2.14328 
30 1 9.28293 1.50524 1.45932 
49 2 7.403 2.52743 5.18095 
50 3 7.34613 1.64574 4.90883 
1 1 6.18952 4.59731 6.13211 
2 1 7.68164 3.09998 7.6904 
3 1 6.98529 3.79874 6.96316 
40 1 10.0317 0.743546 10.0371 
41 1 8.49298 2.27884 8.50055 
42 1 9.19981 1.57557 9.21057 
7 1 6.15347 6.20632 4.60492 
8 1 7.68659 7.697 3.08355 
9 1 6.97075 7.00106 3.79386 
43 1 10.034 10.0457 0.733542 
44 1 8.50419 8.50127 2.26726 
45 1 9.20806 9.21194 1.56149 
22 1 6.23658 6.22938 6.24412 
23 1 7.77356 7.76945 7.77602 
24 1 7.066 7.06106 7.07155 
34 1 10.0986 10.1116 10.0929 
35 1 8.58592 8.58813 8.58525 
36 1 9.29263 9.29989 9.28955 
ITEM: TIMESTEP
120
ITEM: NUMBER OF ATOMS
50
ITEM: BOX BOUNDS pp pp pp
0.0000000000000000e+00 1.1000000000000000e+01
0.0000000000000000e+00 1.1002000000000001e+01
0.0000000000000000e+00 1.1000000000000000e+01
ITEM: ATOMS id type x y z 
10 1 4.60606 4.60959 4.58921 
11 1 3.08853 3.08372 3.08623 
12 1 3.79687 3.79593 3.78793 
46 1 0.729476 0.743925 0.733911 
47 1 2.27261 2.27113 2.27334 
48 1 1.56292 1.56886 1.56524 
19 1 4.55619 4.52381 6.22628 
20 1 3.00857 3.0043 7.77171 
21 1 3.71971 3.70283 7.06154 
31 1 0.666857 0.681427 10.0957 
32 1 2.19072 2.19034 8.58329 
33 1 1.47918 1.48578 9.28973 
16 1 4.51284 6.24814 4.55419 
17 1 2.99251 7.77991 2.99945 
18 1 3.6925 7.07511 3.71531 
25 1 0.673324 10.109 0.665526 
26 1 2.18508 8.59317 2.18112 
27 1 1.47863 9.30145 1.47295 
4 1 4.59873 6.15945 6.18734 
5 1 3.08374 7.68396 7.6916 
6 1 3.7914 6.97182 6.98888 
37 1 0.734492 10.0469 10.0307 
38 1 2.26895 8.50112 8.50021 
39 1 1.56327 9.21199 9.20381 
13 1 6.23271 4.58779 4.48856 
14 1 7.75303 3.1609 2.82679 
15 1 7.04829 3.88039 3.52095 
28 1 10.094 0.675623 0.67819 
29 1 8.57218 2.23372 2.14223 
30 1 9.28246 1.50629 1.45886 
49 2 7.4035 2.52512 5.18192 
50 3 7.34632 1.64344 4.90984 
1 1 6.18969 4.59714 6.13246 
2 1 7.68151 3.10027 7.69013 
3 1 6.98519 3.79915 6.96296 
40 1 10.0317 0.744089 10.0378 
41 1 8.49259 2.28013 8.50164 
42 1 9.2 1.57423 9.20849 
7 1 6.15333 6.20635 4.60503 
8 1 7.68626 7.69713 3.08382 
9 1 6.97046 7.00107 3.79401 
43 1 10.0341 10.0455 0.733285 
44 1 8.50416 8.50141 2.26729 
45 1 9.20814 9.21187 1.56148 
22 1 6.23642 6.22953 6.24372 
23 1 7.77342 7.76941 7.77618 
24 1 7.06627 7.06102 7.07136 
34 1 10.0985 10.1117 10.0929 
35 1 8.58589 8.58818 8.58532 
36 1 9.29278 9.29991 9.28947 
ITEM: TIMESTEP
130
ITEM: NUMBER OF ATOMS
50
ITEM: BOX BOUNDS pp pp pp
0.0000000000000000e+00 1.1000000000000000e+01
0.0000000000000000e+00 1.1002000000000001e+01
0.0000000000000000e+00 1.1000000000000000e+01
ITEM: ATOMS id type x y z 
10 1 4.60599 4.60956 4.58926 
11 1 3.08855 3.08372 3.08626 
12 1 3.79692 3.79601 3.78788 
46 1 0.729551 0.743943 0.73385 
47 1 2.27262 2.27121 2.27334 
48 1 1.56295 1.56879 1.56531 
19 1 4.5562 4.52368 6.22624 
20 1 3.00858 3.00434 7.77171 
21 1 3.71987 3.70266 7.0614 
31 1 0.666852 0.681503 10.0957 
32 1 2.19077 2.19043 8.58334 
33 1 1.47913 1.48579 9.28959 
16 1 4.51291 6.2483 4.55425 
17 1 2.99252 7.78002 2.99955 
18 1 3.69236 7.07497 3.71518 
25 1 0.673304 10.109 0.665563 
26 1 2.18504 8.59319 2.18111 
27 1 1.47866 9.30147 1.47289 
4 1 4.59876 6.15944 6.18729 
5 1 3.08373 7.68392 7.69165 
6 1 3.79139 6.9718 6.98893 
37 1 0.734434 10.047 10.0307 
38 1 2.2689 8.50118 8.50018 
39 1 1.56333 9.21196 9.20391 
13 1 6.23279 4.58775 4.4885 
14 1 7.753 3.16101 2.82675 
15 1 7.04824 3.88023 3.52124 
28 1 10.094 0.675665 0.678137 
29 1 8.57206 2.23413 2.1419 
30 1 9.28244 1.50661 1.45871 
49 2 7.40363 2.52447 5.18219 
50 3 7.34638 1.64279 4.91012 
1 1 6.18975 4.59715 6.13252 
2 1 7.68156 3.10039 7.69009 
3 1 6.98509 3.79915 6.96291 
40 1 10.0316 0.744151 10.038 
41 1 8.49247 2.28033 8.50189 
42 1 9.20014 1.57404 9.20809 
7 1 6.15328 6.20636 4.60502 
8 1 7.68615 7.69718 3.08385 
9 1 6.97044 7.0011 3.79409 
43 1 10.0342 10.0454 0.733225 
44 1 8.50414 8.50143 2.26732 
45 1 9.20814 9.21185 1.56145 
22 1 6.23637 6.22956 6.24366 
23 1 7.77338 7.76938 7.77625 
24 1 7.06635 7.06105 7.07127 
34 1 10.0985 10.1118 10.0929 
35 1 8.58599 8.58817 8.58526 
36 1 9.29261 9.29997 9.2896 
ITEM: TIMESTEP
140
ITEM: NUMBER OF ATOMS
50
ITEM: BOX BOUNDS pp pp pp
0.0000000000000000e+00 1.1000000000000000e+01
0.0000000000000000e+00 1.1002000000000001e+01
0.0000000000000000e+00 1.1000000000000000e+01
ITEM: ATOMS id type x y z 
10 1 4.60599 4.60956 4.58926 
11 1 3.08856 3.08373 3.08625 
12 1 3.79692 3.79602 3.78789 
46 1 0.72956 0.743939 0.733848 
47 1 2.27263 2.27121 2.27335 
48 1 1.56295 1.5688 1.56531 
19 1 4.5562 4.52367 6.22623 
20 1 3.00858 3.00434 7.77171 
21 1 3.71988 3.70264 7.06139 
31 1 0.666849 0.68151 10.0957 
32 1 2.19077 2.19043 8.58333 
33 1 1.47913 1.4858 9.28959 
16 1 4.51291 6.24831 4.55425 
17 1 2.99251 7.78003 2.99955 
18 1 3.69236 7.07497 3.71519 
25 1 0.673308 10.109 0.665552 
26 1 2.18505 8.59318 2.1811 
27 1 1.47864 9.30149 1.47292 
4 1 4.59875 6.15944 6.18728 
5 1 3.08372 7.68391 7.69165 
6 1 3.79141 6.97181 6.98894 
37 1 0.73443 10.047 10.0307 
38 1 2.2689 8.50118 8.50018 
39 1 1.56333 9.21197 9.20391 
13 1 6.2328 4.58775 4.4885 
14 1 7.75299 3.16102 2.82674 
15 1 7.04824 3.88021 3.52127 
28 1 10.094 0.675654 0.678152 
29 1 8.57205 2.23416 2.14188 
30 1 9.28243 1.50668 1.45865 
49 2 7.40365 2.52438 5.18223 
50 3 7.34638 1.64271 4.91016 
1 1 6.18975 4.59714 6.13252 
2 1 7.68156 3.10039 7.69009 
3 1 6.98509 3.79917 6.96292 
40 1 10.0316 0.744144 10.0379 
41 1 8.49248 2.28034 8.50189 
42 1 9.20013 1.57405 9.2081 
7 1 6.15328 6.20636 4.60501 
8 1 7.68614 7.69719 3.08385 
9 1 6.97043 7.0011 3.7941 
43 1 10.0342 10.0454 0.733218 
44 1 8.50414 8.50143 2.26733 
45 1 9.20814 9.21185 1.56145 
22 1 6.23637 6.22956 6.24366 
23 1 7.77338 7.76938 7.77626 
24 1 7.06635 7.06106 7.07126 
34 1 10.0985 10.1118 10.0929 
35 1 8.58599 8.58817 8.58526 
36 1 9.29261 9.29998 9.2896 
ITEM: TIMESTEP
142
ITEM: NUMBER OF ATOMS
50
ITEM: BOX BOUNDS pp pp pp
0.0000000000000000e+00 1.1000000000000000e+01
0.0000000000000000e+00 1.1002000000000001e+01
0.0000000000000000e+00 1.1000000000000000e+01
ITEM: ATOMS id type x y z 
10 1 4.60599 4.60956 4.58926 
11 1 3.08856 3.08373 3.08625 
12 1 3.79692 3.79602 3.78788 
46 1 0.729561 0.743939 0.733847 
47 1 2.27263 2.27121 2.27335 
48 1 1.56295 1.5688 1.56531 
19 1 4.5562 4.52367 6.22623 
20 1 3.00858 3.00434 7.77171 
21 1 3.71988 3.70264 7.06139 
31 1 0.666848 0.681511 10.0957 
32 1 2.19077 2.19044 8.58333 
33 1 1.47914 1.4858 9.28959 
16 1 4.51291 6.24831 4.55425 
17 1 2.99251 7.78003 2.99955 
18 1 3.69236 7.07497 3.71519 
25 1 0.673307 10.109 0.665553 
26 1 2.18505 8.59318 2.1811 
27 1 1.47864 9.30149 1.47291 
4 1 4.59875 6.15944 6.18728 
5 1 3.08372 7.68391 7.69165 
6 1 3.79141 6.97181 6.98894 
37 1 0.73443 10.047 10.0307 
38 1 2.2689 8.50118 8.50018 
39 1 1.56333 9.21197 9.20391 
13 1 6.2328 4.58775 4.4885 
14 1 7.75299 3.16102 2.82674 
15 1 7.04824 3.88021 3.52127 
28 1 10.094 0.675653 0.678153 
29 1 8.57204 2.23416 2.14188 
30 1 9.28243 1.50669 1.45865 
49 2 7.40365 2.52438 5.18223 
50 3 7.34638 1.64271 4.91016 
1 1 6.18975 4.59714 6.13253 
2 1 7.68156 3.10039 7.69009 
3 1 6.98509 3.79917 6.96292 
40 1 10.0317 0.744144 10.0379 
41 1 8.49248 2.28034 8.50189 
42 1 9.20013 1.57405 9.2081 
7 1 6.15328 6.20636 4.60501 
8 1 7.68614 7.69719 3.08385 
9 1 6.97044 7.0011 3.7941 
43 1 10.0342 10.0454 0.733217 
44 1 8.50414 8.50143 2.26733 
45 1 9.20814 9.21185 1.56145 
22 1 6.23637 6.22956 6.24366 
23 1 7.77338 7.76938 7.77626 
24 1 7.06636 7.06106 7.07126 
34 1 10.0985 10.1118 10.0929 
35 1 8.58599 8.58817 8.58526 
36 1 9.29261 9.29998 9.2896 
ITEM: TIMESTEP
144
ITEM: NUMBER OF ATOMS
50
ITEM: BOX BOUNDS pp pp pp
0.0000000000000000e+00 1.1000000000000000e+01
0.0000000000000000e+00 1.1002000000000001e+01
0.0000000000000000e+00 1.1000000000000000e+01
ITEM: ATOMS id type x y z 
10 1 4.60599 4.60956 4.58926 
11 1 3.08856 3.08373 3.08625 
12 1 3.79692 3.79602 3.78789 
46 1 0.729561 0.743939 0.733847 
47 1 2.27263 2.27121 2.27335 
48 1 1.56295 1.5688 1.56531 
19 1 4.5562 4.52367 6.22623 
20 1 3.00858 3.00434 7.77171 
21 1 3.71988 3.70264 7.06139 
31 1 0.666849 0.681511 10.0957 
32 1 2.19077 2.19043 8.58333 
33 1 1.47914 1.4858 9.28959 
16 1 4.51291 6.24831 4.55425 
17 1 2.99251 7.78003 2.99955 
18 1 3.69236 7.07497 3.71519 
25 1 0.673308 10.109 0.665553 
26 1 2.18505 8.59318 2.1811 
27 1 1.47864 9.30149 1.47291 
4 1 4.59875 6.15944 6.18728 
5 1 3.08372 7.6839 7.69165 
6 1 3.79141 6.97181 6.98894 
37 1 0.73443 10.047 10.0307 
38 1 2.2689 8.50118 8.50018 
39 1 1.56333 9.21197 9.20391 
13 1 6.2328 4.58775 4.4885 
14 1 7.75299 3.16102 2.82674 
15 1 7.04824 3.88021 3.52127 
28 1 10.094 0.675654 0.678153 
29 1 8.57204 2.23416 2.14188 
30 1 9.28243 1.50669 1.45865 
49 2 7.40365 2.52438 5.18223 
50 3 7.34638 1.6427 4.91016 
1 1 6.18975 4.59714 6.13253 
2 1 7.68156 3.10039 7.69009 
3 1 6.98509 3.79917 6.96292 
40 1 10.0317 0.744143 10.0379 
41 1 8.49248 2.28034 8.50189 
42 1 9.20013 1.57405 9.2081 
7 1 6.15328 6.20636 4.60501 
8 1 7.68614 7.69719 3.08385 
9 1 6.97043 7.0011 3.7941 
43 1 10.0342 10.0454 0.733217 
44 1 8.50414 8.50143 2.26733 
45 1 9.20814 9.21185 1.56145 
22 1 6.23637 6.22956 6.24366 
23 1 7.77338 7.76938 7.77626 
24 1 7.06636 7.06106 7.07126 
34 1 10.0985 10.1118 10.0929 
35 1 8.58599 8.58817 8.58526 
36 1 9.29261 9.29998 9.2896 
ITEM: TIMESTEP
150
ITEM: NUMBER OF ATOMS
50
ITEM: BOX BOUNDS pp pp pp
-2.6311977101561371e-03 1.1002631197710157e+01
-3.3006000000000008e-03 1.1005300600000000e+01
-2.6641044553673506e-03 1.1002664104455366e+01
ITEM: ATOMS id type x y z 
10 1 4.60561 4.60907 4.58886 
11 1 3.08742 3.08228 3.0851 
12 1 3.79608 3.79499 3.78704 
46 1 0.727244 0.741052 0.731502 
47 1 2.27107 2.26927 2.27177 
48 1 1.56104 1.5664 1.56338 
19 1 4.55579 4.52311 6.22654 
20 1 3.00741 3.00285 7.77279 
21 1 3.71906 3.70159 7.06211 
31 1 0.664488 0.678584 10.098 
32 1 2.18917 2.18844 8.58484 
33 1 1.47724 1.4834 9.29141 
16 1 4.51248 6.24872 4.55382 
17 1 2.99133 7.78138 2.99835 
18 1 3.69151 7.07589 3.71436 
25 1 0.67096 10.1118 0.663165 
26 1 2.18346 8.59505 2.17947 
27 1 1.47672 9.30375 1.47099 
4 1 4.59836 6.15979 6.18757 
5 1 3.08257 7.6852 7.6927 
6 1 3.79059 6.97271 6.98967 
37 1 0.732114 10.0498 10.0329 
38 1 2.26734 8.503 8.50164 
39 1 1.56142 9.21422 9.20574 
13 1 6.23311 4.58724 4.48803 
14 1 7.75405 3.15964 2.82546 