
     Program PWSCF v.7.1 starts on 25May2025 at  2: 9:31 

     This program is part of the open-source Quantum ESPRESSO suite
     for quantum simulation of materials; please cite
         "P. Giannozzi et al., J. Phys.:Condens. Matter 21 395502 (2009);
         "P. Giannozzi et al., J. Phys.:Condens. Matter 29 465901 (2017);
         "P. Giannozzi et al., J. Chem. Phys. 152 154105 (2020);
          URL http://www.quantum-espresso.org", 
     in publications or presentations arising from this work. More details at
     http://www.quantum-espresso.org/quote

     Parallel version (MPI), running on    16 processors

     MPI processes distributed on     1 nodes
     246516 MiB available memory on the printing compute node when the environment starts

     Reading input from input.pwi
Warning: card &CELL ignored
Warning: card / ignored
Warning: card &FCP ignored
Warning: card / ignored
Warning: card &RISM ignored
Warning: card / ignored

     Current dimensions of program PWSCF are:
     Max number of different atomic species (ntypx) = 10
     Max number of k-points (npk) =  40000
     Max angular momentum in pseudopotentials (lmaxx) =  4
     file C.pbe-n-kjpaw_psl.1.0.0.UPF: wavefunction(s)  2S 2P renormalized

     IMPORTANT: XC functional enforced from input :
     Exchange-correlation= PBE
                           (   1   4   3   4   0   0   0)
     Any further DFT definition will be discarded
     Please, verify this is what you really want


     gamma-point specific algorithms are used
     Message from routine  set_nelup_neldw :
     BEWARE: non-integer number of up and down electrons!

     R & G space division:  proc/nbgrp/npool/nimage =      16
     Subspace diagonalization in iterative solution of the eigenvalue problem:
     a serial algorithm will be used


     Parallelization info
     --------------------
     sticks:   dense  smooth     PW     G-vecs:    dense   smooth      PW
     Min         858     428    106                75870    26832    3354
     Max         860     430    108                75880    26846    3360
     Sum       13753    6869   1725              1214029   429409   53715

     Using Slab Decomposition



     bravais-lattice index     =            0
     lattice parameter (alat)  =      20.7870  a.u.
     unit-cell volume          =    8983.6663 (a.u.)^3
     number of atoms/cell      =           49
     number of atomic types    =            2
     number of electrons       =       193.00 (up:  96.50, down:  96.50)
     number of Kohn-Sham states=          116
     kinetic-energy cutoff     =      50.0000  Ry
     charge density cutoff     =     400.0000  Ry
     scf convergence threshold =      1.0E-06
     mixing beta               =       0.3000
     number of iterations used =            8  plain     mixing
     energy convergence thresh.=      1.0E-04
     force convergence thresh. =      1.0E-03
     Exchange-correlation= PBE
                           (   1   4   3   4   0   0   0)
     nstep                     =         1000


     celldm(1)=  20.786987  celldm(2)=   0.000000  celldm(3)=   0.000000
     celldm(4)=   0.000000  celldm(5)=   0.000000  celldm(6)=   0.000000

     crystal axes: (cart. coord. in units of alat)
               a(1) = (   1.000000   0.000000   0.000000 )  
               a(2) = (   0.000000   1.000182   0.000000 )  
               a(3) = (   0.000000   0.000000   1.000000 )  

     reciprocal axes: (cart. coord. in units 2 pi/alat)
               b(1) = (  1.000000  0.000000  0.000000 )  
               b(2) = (  0.000000  0.999818  0.000000 )  
               b(3) = (  0.000000  0.000000  1.000000 )  


     PseudoPot. # 1 for C  read from file:
     /home/ana.bisette/espresso/pseudo/C.pbe-n-kjpaw_psl.1.0.0.UPF
     MD5 check sum: 5d2aebdfa2cae82b50a7e79e9516da0f
     Pseudo is Projector augmented-wave + core cor, Zval =  4.0
     Generated using "atomic" code by A. Dal Corso  v.5.1
     Shape of augmentation charge: PSQ
     Using radial grid of 1073 points,  4 beta functions with: 
                l(1) =   0
                l(2) =   0
                l(3) =   1
                l(4) =   1
     Q(r) pseudized with 0 coefficients 


     PseudoPot. # 2 for H  read from file:
     /home/ana.bisette/espresso/pseudo/H.pbe-rrkjus_psl.1.0.0.UPF
     MD5 check sum: f52b6d4d1c606e5624b1dc7b2218f220
     Pseudo is Ultrasoft, Zval =  1.0
     Generated using "atomic" code by A. Dal Corso  v.5.1
     Using radial grid of  929 points,  2 beta functions with: 
                l(1) =   0
                l(2) =   0
     Q(r) pseudized with 0 coefficients 


     atomic species   valence    mass     pseudopotential
        C              4.00    12.01100     C ( 1.00)
        H              1.00     1.00800     H ( 1.00)

     Starting magnetic structure 
     atomic species   magnetization
        C            0.000
        H            0.000

     No symmetry found



   Cartesian axes

     site n.     atom                  positions (alat units)
         1           C   tau(   1) = (   0.5607273   0.4189091   0.5608182  )
         2           C   tau(   2) = (   0.6985455   0.2805455   0.6985455  )
         3           C   tau(   3) = (   0.6340000   0.3453636   0.6340000  )
         4           C   tau(   4) = (   0.4189091   0.5608182   0.5608182  )
         5           C   tau(   5) = (   0.2805455   0.6985455   0.6985455  )
         6           C   tau(   6) = (   0.3453636   0.6340000   0.6340000  )
         7           C   tau(   7) = (   0.5608182   0.5608182   0.4189091  )
         8           C   tau(   8) = (   0.6985455   0.6985455   0.2805455  )
         9           C   tau(   9) = (   0.6340000   0.6340000   0.3453636  )
        10           C   tau(  10) = (   0.4184545   0.4184545   0.4184545  )
        11           C   tau(  11) = (   0.2804545   0.2804545   0.2804545  )
        12           C   tau(  12) = (   0.3450909   0.3450909   0.3450909  )
        13           C   tau(  13) = (   0.5659091   0.4132727   0.4132727  )
        14           C   tau(  14) = (   0.7058182   0.2739091   0.2739091  )
        15           C   tau(  15) = (   0.6411818   0.3382727   0.3383636  )
        16           C   tau(  16) = (   0.4132727   0.5659091   0.4132727  )
        17           C   tau(  17) = (   0.2739091   0.7059091   0.2739091  )
        18           C   tau(  18) = (   0.3382727   0.6411818   0.3383636  )
        19           C   tau(  19) = (   0.4132727   0.4131818   0.5660000  )
        20           C   tau(  20) = (   0.2739091   0.2739091   0.7058182  )
        21           C   tau(  21) = (   0.3382727   0.3382727   0.6411818  )
        22           C   tau(  22) = (   0.5662727   0.5662727   0.5662727  )
        23           C   tau(  23) = (   0.7058182   0.7059091   0.7059091  )
        24           C   tau(  24) = (   0.6413636   0.6414545   0.6413636  )
        25           C   tau(  25) = (   0.0607273   0.9184545   0.0607273  )
        26           C   tau(  26) = (   0.1989091   0.7808182   0.1989091  )
        27           C   tau(  27) = (   0.1341818   0.8452727   0.1341818  )
        28           C   tau(  28) = (   0.9183636   0.0606364   0.0607273  )
        29           C   tau(  29) = (   0.7808182   0.1988182   0.1989091  )
        30           C   tau(  30) = (   0.8452727   0.1340909   0.1341818  )
        31           C   tau(  31) = (   0.0607273   0.0606364   0.9184545  )
        32           C   tau(  32) = (   0.1988182   0.1988182   0.7808182  )
        33           C   tau(  33) = (   0.1341818   0.1340909   0.8452727  )
        34           C   tau(  34) = (   0.9189091   0.9189091   0.9188182  )
        35           C   tau(  35) = (   0.7809091   0.7809091   0.7809091  )
        36           C   tau(  36) = (   0.8455455   0.8455455   0.8454545  )
        37           C   tau(  37) = (   0.0662727   0.9132727   0.9132727  )
        38           C   tau(  38) = (   0.2053636   0.7735455   0.7734545  )
        39           C   tau(  39) = (   0.1410909   0.8380909   0.8380909  )
        40           C   tau(  40) = (   0.9131818   0.0661818   0.9132727  )
        41           C   tau(  41) = (   0.7734545   0.2053636   0.7734545  )
        42           C   tau(  42) = (   0.8380000   0.1410000   0.8380000  )
        43           C   tau(  43) = (   0.9132727   0.9133636   0.0662727  )
        44           C   tau(  44) = (   0.7734545   0.7735455   0.2053636  )
        45           C   tau(  45) = (   0.8380909   0.8380909   0.1410909  )
        46           C   tau(  46) = (   0.0660000   0.0659091   0.0659091  )
        47           C   tau(  47) = (   0.2054545   0.2053636   0.2054545  )
        48           C   tau(  48) = (   0.1410000   0.1409091   0.1409091  )
        49           H   tau(  49) = (   0.2480000   0.7228182   0.8473636  )

     number of k points=     1  Gaussian smearing, width (Ry)=  0.0001
                       cart. coord. in units 2pi/alat
        k(    1) = (   0.0000000   0.0000000   0.0000000), wk =   1.0000000

     Dense  grid:   607015 G-vectors     FFT dimensions: ( 135, 135, 135)

     Smooth grid:   214705 G-vectors     FFT dimensions: (  96,  96,  96)

     Estimated max dynamical RAM per process >     173.29 MB

     Estimated total dynamical RAM >       2.71 GB

     Check: negative core charge=   -0.000004
     Generating pointlists ...
     new r_m :   0.0409 (alat units)  0.8512 (a.u.) for type    1
     new r_m :   0.0409 (alat units)  0.8512 (a.u.) for type    2

     Initial potential from superposition of free atoms

     starting charge     192.9980, renormalised to     193.0000
     Starting wfcs are  193 randomized atomic wfcs
     Checking if some PAW data can be deallocated... 

     total cpu time spent up to now is        2.6 secs

     Self-consistent Calculation

     iteration #  1     ecut=    50.00 Ry     beta= 0.30
     Davidson diagonalization with overlap
     ethr =  1.00E-02,  avg # of iterations =  2.0

     total cpu time spent up to now is        5.0 secs

     total energy              =    -883.17076024 Ry
     estimated scf accuracy    <       5.33709808 Ry

     total magnetization       =    -0.00 Bohr mag/cell
     absolute magnetization    =     0.06 Bohr mag/cell

     iteration #  2     ecut=    50.00 Ry     beta= 0.30
     Davidson diagonalization with overlap
     ethr =  2.77E-03,  avg # of iterations =  1.0

     negative rho (up, down):  2.119E-06 2.098E-06

     total cpu time spent up to now is        6.7 secs

     total energy              =    -882.22099019 Ry
     estimated scf accuracy    <       1.79197673 Ry

     total magnetization       =     0.00 Bohr mag/cell
     absolute magnetization    =     0.04 Bohr mag/cell

     iteration #  3     ecut=    50.00 Ry     beta= 0.30
     Davidson diagonalization with overlap
     ethr =  9.28E-04,  avg # of iterations =  2.0

     negative rho (up, down):  9.033E-07 8.968E-07

     total cpu time spent up to now is        8.8 secs

     total energy              =    -882.62246587 Ry
     estimated scf accuracy    <       0.18695612 Ry

     total magnetization       =    -0.00 Bohr mag/cell
     absolute magnetization    =     0.03 Bohr mag/cell

     iteration #  4     ecut=    50.00 Ry     beta= 0.30
     Davidson diagonalization with overlap
     ethr =  9.69E-05,  avg # of iterations =  9.0

     negative rho (up, down):  5.586E-07 5.551E-07

     total cpu time spent up to now is       11.1 secs

     total energy              =    -882.61879476 Ry
     estimated scf accuracy    <       0.06722079 Ry

     total magnetization       =    -0.00 Bohr mag/cell
     absolute magnetization    =     0.02 Bohr mag/cell

     iteration #  5     ecut=    50.00 Ry     beta= 0.30
     Davidson diagonalization with overlap
     ethr =  3.48E-05,  avg # of iterations =  2.0

     negative rho (up, down):  1.008E-06 1.004E-06

     total cpu time spent up to now is       13.2 secs

     total energy              =    -882.62676696 Ry
     estimated scf accuracy    <       0.02002514 Ry

     total magnetization       =    -0.00 Bohr mag/cell
     absolute magnetization    =     0.02 Bohr mag/cell

     iteration #  6     ecut=    50.00 Ry     beta= 0.30
     Davidson diagonalization with overlap
     ethr =  1.04E-05,  avg # of iterations =  2.0

     negative rho (up, down):  1.465E-06 1.459E-06

     total cpu time spent up to now is       15.2 secs

     total energy              =    -882.62479240 Ry
     estimated scf accuracy    <       0.00812026 Ry

     total magnetization       =    -0.00 Bohr mag/cell
     absolute magnetization    =     0.01 Bohr mag/cell

     iteration #  7     ecut=    50.00 Ry     beta= 0.30
     Davidson diagonalization with overlap
     ethr =  4.21E-06,  avg # of iterations =  2.0

     negative rho (up, down):  1.455E-06 1.451E-06

     total cpu time spent up to now is       17.5 secs

     total energy              =    -882.62652427 Ry
     estimated scf accuracy    <       0.00146210 Ry

     total magnetization       =     0.00 Bohr mag/cell
     absolute magnetization    =     0.01 Bohr mag/cell

     iteration #  8     ecut=    50.00 Ry     beta= 0.30
     Davidson diagonalization with overlap
     ethr =  7.58E-07,  avg # of iterations =  2.0

     negative rho (up, down):  1.457E-06 1.454E-06

     total cpu time spent up to now is       19.4 secs

     total energy              =    -882.62659755 Ry
     estimated scf accuracy    <       0.00019116 Ry

     total magnetization       =    -0.00 Bohr mag/cell
     absolute magnetization    =     0.01 Bohr mag/cell

     iteration #  9     ecut=    50.00 Ry     beta= 0.30
     Davidson diagonalization with overlap
     ethr =  9.90E-08,  avg # of iterations =  4.0

     negative rho (up, down):  1.496E-06 1.495E-06

     total cpu time spent up to now is       21.8 secs

     total energy              =    -882.62661862 Ry
     estimated scf accuracy    <       0.00005193 Ry

     total magnetization       =    -0.00 Bohr mag/cell
     absolute magnetization    =     0.01 Bohr mag/cell

     iteration # 10     ecut=    50.00 Ry     beta= 0.30
     Davidson diagonalization with overlap
     ethr =  2.69E-08,  avg # of iterations =  4.0

     negative rho (up, down):  1.482E-06 1.481E-06

     total cpu time spent up to now is       24.1 secs

     total energy              =    -882.62662932 Ry
     estimated scf accuracy    <       0.00000630 Ry

     total magnetization       =    -0.00 Bohr mag/cell
     absolute magnetization    =     0.00 Bohr mag/cell

     iteration # 11     ecut=    50.00 Ry     beta= 0.30
     Davidson diagonalization with overlap
     ethr =  3.27E-09,  avg # of iterations =  3.0

     negative rho (up, down):  1.477E-06 1.477E-06

     Magnetic moment per site  (integrated on atomic sphere of radius R)
     atom   1 (R=0.041)  charge=  0.8224  magn= -0.0000
     atom   2 (R=0.041)  charge=  0.8554  magn= -0.0000
     atom   3 (R=0.041)  charge=  0.8699  magn=  0.0000
     atom   4 (R=0.041)  charge=  0.8219  magn=  0.0000
     atom   5 (R=0.041)  charge=  0.8590  magn=  0.0001
     atom   6 (R=0.041)  charge=  0.8694  magn= -0.0001
     atom   7 (R=0.041)  charge=  0.8221  magn= -0.0000
     atom   8 (R=0.041)  charge=  0.8553  magn=  0.0000
     atom   9 (R=0.041)  charge=  0.8702  magn= -0.0000
     atom  10 (R=0.041)  charge=  0.8194  magn=  0.0000
     atom  11 (R=0.041)  charge=  0.8548  magn=  0.0000
     atom  12 (R=0.041)  charge=  0.8695  magn= -0.0000
     atom  13 (R=0.041)  charge=  0.8166  magn=  0.0000
     atom  14 (R=0.041)  charge=  0.8549  magn= -0.0000
     atom  15 (R=0.041)  charge=  0.8634  magn=  0.0000
     atom  16 (R=0.041)  charge=  0.8172  magn= -0.0000
     atom  17 (R=0.041)  charge=  0.8553  magn= -0.0001
     atom  18 (R=0.041)  charge=  0.8629  magn=  0.0001
     atom  19 (R=0.041)  charge=  0.8164  magn=  0.0000
     atom  20 (R=0.041)  charge=  0.8552  magn=  0.0000
     atom  21 (R=0.041)  charge=  0.8637  magn= -0.0000
     atom  22 (R=0.041)  charge=  0.8132  magn=  0.0000
     atom  23 (R=0.041)  charge=  0.8549  magn= -0.0000
     atom  24 (R=0.041)  charge=  0.8618  magn=  0.0000
     atom  25 (R=0.041)  charge=  0.8232  magn=  0.0000
     atom  26 (R=0.041)  charge=  0.8557  magn=  0.0000
     atom  27 (R=0.041)  charge=  0.8720  magn= -0.0000
     atom  28 (R=0.041)  charge=  0.8219  magn=  0.0000
     atom  29 (R=0.041)  charge=  0.8552  magn=  0.0001
     atom  30 (R=0.041)  charge=  0.8718  magn= -0.0001
     atom  31 (R=0.041)  charge=  0.8215  magn= -0.0000
     atom  32 (R=0.041)  charge=  0.8555  magn=  0.0000
     atom  33 (R=0.041)  charge=  0.8721  magn= -0.0000
     atom  34 (R=0.041)  charge=  0.8213  magn= -0.0000
     atom  35 (R=0.041)  charge=  0.8527  magn= -0.0000
     atom  36 (R=0.041)  charge=  0.8725  magn=  0.0000
     atom  37 (R=0.041)  charge=  0.8155  magn=  0.0000
     atom  38 (R=0.041)  charge=  0.8894  magn= -0.0000
     atom  39 (R=0.041)  charge=  0.8649  magn=  0.0000
     atom  40 (R=0.041)  charge=  0.8162  magn=  0.0000
     atom  41 (R=0.041)  charge=  0.8537  magn=  0.0000
     atom  42 (R=0.041)  charge=  0.8640  magn= -0.0000
     atom  43 (R=0.041)  charge=  0.8162  magn= -0.0000
     atom  44 (R=0.041)  charge=  0.8538  magn= -0.0000
     atom  45 (R=0.041)  charge=  0.8640  magn=  0.0000
     atom  46 (R=0.041)  charge=  0.8156  magn= -0.0000
     atom  47 (R=0.041)  charge=  0.8549  magn= -0.0000
     atom  48 (R=0.041)  charge=  0.8640  magn=  0.0000
     atom  49 (R=0.041)  charge=  0.4601  magn=  0.0000

     total cpu time spent up to now is       26.3 secs

     End of self-consistent calculation

 ------ SPIN UP ------------


          k = 0.0000 0.0000 0.0000 ( 26858 PWs)   bands (ev):

   -21.5573 -21.5171 -18.5424 -17.5817 -17.5638 -17.4700 -17.4109 -17.3982
   -17.3867 -16.8150 -16.7815 -16.7143 -16.6619 -16.3044 -16.0562 -16.0311
   -16.0088 -15.9020 -15.8764 -15.7700 -15.6252 -14.8291 -14.6411 -14.6206
   -14.3684 -14.1043 -14.0811 -13.6086 -13.1443 -13.0571 -12.9096 -12.8907
   -12.3112 -12.2431 -11.8521 -11.8250 -11.6276 -11.1555 -10.8643 -10.8315
   -10.6270 -10.3169 -10.0625  -9.9661  -9.9548  -9.5610  -9.5361  -9.5151
    -9.4670  -9.4594  -9.4542  -9.4480  -8.5569  -7.0469  -6.9294  -6.8213
    -6.6592  -6.6398  -6.6156  -6.3940  -6.2870  -6.1746  -5.9685  -5.9076
    -5.8953  -5.8334  -5.5546  -5.4859  -5.4825  -5.4213  -5.3679  -5.3620
    -5.2657  -5.2320  -4.8378  -4.7730  -4.7236  -4.4513  -4.3503  -4.2802
    -4.1216  -4.0475  -3.8971  -3.6823  -3.6544  -3.5606  -3.4176  -3.4024
    -3.1963  -3.1492  -3.0021  -2.9976  -2.9641  -2.1804  -2.1099  -2.0505
    -0.8945  -0.3374  -0.2337   0.1647   0.4834   0.5938   0.8648   1.0781
     1.2380   1.2470   1.2703   1.5287   1.5795   1.9819   2.2068   2.2491
     2.2830   2.4277   2.5121   2.5834

 ------ SPIN DOWN ----------


          k = 0.0000 0.0000 0.0000 ( 26858 PWs)   bands (ev):

   -21.5573 -21.5171 -18.5424 -17.5817 -17.5638 -17.4700 -17.4109 -17.3982
   -17.3867 -16.8150 -16.7815 -16.7142 -16.6619 -16.3045 -16.0561 -16.0311
   -16.0088 -15.9020 -15.8764 -15.7701 -15.6253 -14.8291 -14.6411 -14.6206
   -14.3683 -14.1043 -14.0811 -13.6086 -13.1443 -13.0570 -12.9097 -12.8907
   -12.3112 -12.2431 -11.8521 -11.8250 -11.6276 -11.1555 -10.8643 -10.8315
   -10.6270 -10.3169 -10.0625  -9.9662  -9.9548  -9.5610  -9.5361  -9.5152
    -9.4670  -9.4594  -9.4541  -9.4480  -8.5568  -7.0469  -6.9294  -6.8213
    -6.6592  -6.6398  -6.6156  -6.3940  -6.2870  -6.1746  -5.9685  -5.9076
    -5.8953  -5.8335  -5.5546  -5.4859  -5.4825  -5.4213  -5.3679  -5.3619
    -5.2657  -5.2320  -4.8378  -4.7730  -4.7236  -4.4513  -4.3503  -4.2802
    -4.1215  -4.0475  -3.8971  -3.6823  -3.6544  -3.5606  -3.4176  -3.4024
    -3.1963  -3.1493  -3.0021  -2.9976  -2.9641  -2.1803  -2.1098  -2.0505
    -0.8945  -0.3375  -0.2337   0.1647   0.4834   0.5938   0.8648   1.0780
     1.2380   1.2470   1.2703   1.5287   1.5794   1.9820   2.2068   2.2491
     2.2830   2.4277   2.5121   2.5833

     the spin up/dw Fermi energies are    -0.8945   -0.8945 ev

!    total energy              =    -882.62663045 Ry
     estimated scf accuracy    <       0.00000099 Ry
     smearing contrib. (-TS)   =      -0.00005642 Ry
     internal energy E=F+TS    =    -882.62657403 Ry

     The total energy is F=E-TS. E is the sum of the following terms:
     one-electron contribution =   -1221.35094734 Ry
     hartree contribution      =     654.96410090 Ry
     xc contribution           =    -219.03494664 Ry
     ewald contribution        =     198.83260724 Ry
     one-center paw contrib.   =    -296.03738818 Ry

     total magnetization       =     0.00 Bohr mag/cell
     absolute magnetization    =     0.00 Bohr mag/cell

     convergence has been achieved in  11 iterations

     negative rho (up, down):  1.477E-06 1.477E-06

     Forces acting on atoms (cartesian axes, Ry/au):

     atom    1 type  1   force =     0.01564218   -0.01874830    0.01745342
     atom    2 type  1   force =     0.04611575   -0.04637516    0.04591369
     atom    3 type  1   force =     0.03975481   -0.04002660    0.04071364
     atom    4 type  1   force =    -0.02444270    0.02158610    0.03254287
     atom    5 type  1   force =    -0.05461892    0.06083228   -0.03556580
     atom    6 type  1   force =    -0.01932398    0.01983438    0.03237084
     atom    7 type  1   force =     0.01606869    0.01607818   -0.02269231
     atom    8 type  1   force =     0.04840522    0.04843066   -0.04838828
     atom    9 type  1   force =     0.03847497    0.03860101   -0.03939905
     atom   10 type  1   force =    -0.01592690   -0.01659323   -0.01932724
     atom   11 type  1   force =    -0.04865070   -0.04892012   -0.04837953
     atom   12 type  1   force =    -0.03720205   -0.03729097   -0.03807701
     atom   13 type  1   force =    -0.05139144    0.05247604    0.05015582
     atom   14 type  1   force =     0.05049083   -0.05082269   -0.05047934
     atom   15 type  1   force =    -0.00517056    0.00523912    0.00455082
     atom   16 type  1   force =     0.05359444   -0.05210643    0.04421508
     atom   17 type  1   force =    -0.05138960    0.05093958   -0.05041334
     atom   18 type  1   force =     0.00745693   -0.00719822    0.00407045
     atom   19 type  1   force =     0.04982613    0.05130317   -0.04928093
     atom   20 type  1   force =    -0.05553683   -0.05524361    0.05506077
     atom   21 type  1   force =     0.00877625    0.00901108   -0.00818665
     atom   22 type  1   force =    -0.05127915   -0.04858576   -0.04885813
     atom   23 type  1   force =     0.05371680    0.05375297    0.05359195
     atom   24 type  1   force =    -0.00932050   -0.00855969   -0.00808575
     atom   25 type  1   force =     0.01298505   -0.00992434    0.05108784
     atom   26 type  1   force =     0.05087336   -0.05072481    0.04865179
     atom   27 type  1   force =     0.03211493   -0.03206426    0.03636233
     atom   28 type  1   force =    -0.01330625    0.01654198    0.02087920
     atom   29 type  1   force =    -0.04660982    0.04660390    0.04636163
     atom   30 type  1   force =    -0.03958420    0.03981522    0.04034261
     atom   31 type  1   force =     0.02437978    0.02931566   -0.01787865
     atom   32 type  1   force =     0.05257609    0.05162734   -0.05160205
     atom   33 type  1   force =     0.03319864    0.03340467   -0.03394970
     atom   34 type  1   force =    -0.02760714   -0.02705257   -0.02277199
     atom   35 type  1   force =    -0.05167204   -0.05205916   -0.05135081
     atom   36 type  1   force =    -0.03294958   -0.03394984   -0.03452811
     atom   37 type  1   force =    -0.02514144    0.02120705   -0.00142979
     atom   38 type  1   force =     0.14806364   -0.15078810   -0.10638050
     atom   39 type  1   force =    -0.16796699    0.17183534    0.08771892
     atom   40 type  1   force =     0.05787685   -0.05781207    0.05099088
     atom   41 type  1   force =    -0.04936961    0.05000387   -0.04943622
     atom   42 type  1   force =     0.00588873   -0.00592126    0.00458555
     atom   43 type  1   force =     0.05301046    0.05261607   -0.04983143
     atom   44 type  1   force =    -0.05156368   -0.05196244    0.05247046
     atom   45 type  1   force =     0.00691316    0.00726385   -0.00734673
     atom   46 type  1   force =    -0.05382707   -0.05277877   -0.04831298
     atom   47 type  1   force =     0.05250069    0.05254258    0.05240309
     atom   48 type  1   force =    -0.00640626   -0.00618803   -0.00638408
     atom   49 type  2   force =     0.03155301   -0.03916568    0.07584276

     Total force =     0.588246     Total SCF correction =     0.001788

     BFGS Geometry Optimization
     Energy error            =      0.0E+00 Ry
     Gradient error          =      1.7E-01 Ry/Bohr

     number of scf cycles    =   1
     number of bfgs steps    =   0

     energy             new  =    -882.6266304486 Ry

     new trust radius        =       0.2558024639 bohr
     new conv_thr            =       0.0000010000 Ry


ATOMIC_POSITIONS (angstrom)
C             6.1762774842        4.5980788266        6.1782359515
C             7.7084034053        3.0614593224        7.7082964801
C             6.9950373394        3.7778188378        6.9955447278
C             4.5950654808        6.1804228706        6.1862209460
C             3.0570969146        7.7161910583        7.6651793881
C             3.7887741891        6.9844959003        6.9911299093
C             6.1775031857        6.1775082090        4.5959917454
C             7.7096149378        7.7096284039        3.0603940257
C             6.9943600769        6.9944267739        3.7781509190
C             4.5945718456        4.5942192420        4.5927724672
C             3.0592551595        3.0591125900        3.0593986550
C             3.7763135256        3.7762664671        3.7758505161
C             6.1978048209        4.5737691242        4.5725413175
C             7.7907185980        2.9861057896        2.9862874846
C             7.0502638553        3.7237724203        3.7244081926
C             4.5743609581        6.1974264656        4.5693976141
C             2.9858057933        7.7919560672        2.9863224118
C             3.7249460398        7.0491908640        3.7241539870
C             4.5723668517        4.5721484659        6.1999216549
C             2.9836111733        2.9837663383        7.7931369033
C             3.7256441926        3.7257684578        7.0486678102
C             6.2018642439        6.2032895250        6.2031453913
C             7.7924257081        7.7934448461        7.7933596371
C             7.0500678014        7.0514704087        7.0507212065
C             0.6748713899       10.0977482679        0.6950345190
C             2.2149210204        8.5621575867        2.2137454162
C             1.4929944893        9.2810323218        1.4952421157
C            10.0949586361        0.6757536368        0.6790487987
C             8.5643351439        2.2116617243        2.2125335184
C             9.2770529447        1.4960693079        1.4973483916
C             0.6809012221        0.6825131786       10.0935390258
C             2.2148220676        2.2143200141        8.5616933700
C             1.4935679663        1.4926769896        9.2800345905
C            10.0933909288       10.0936843940       10.0949495798
C             8.5626563365        8.5624514802        8.5628263191
C             9.2835638314        9.2830345165        9.2817285089
C             0.7156957239       10.0572222895       10.0452433883
C             2.3373519048        8.4292063734        8.4517058640
C             1.4631156980        9.3099313437        9.2654188538
C            10.0756271120        0.6974071699       10.0729832137
C             8.4818747249        2.2854609088        8.4818394803
C             9.2211161804        1.5478666036        9.2204265696
C            10.0740519298       10.0748432263        0.7026303419
C             8.4807136765        8.4815026621        2.2867661692
C             9.2226582891        9.2228438631        1.5481122777
C             0.6975159437        0.6970706795        0.6994338739
C             2.2877821691        2.2868043373        2.2877305226
C             1.5476099543        1.5467254367        1.5466216898
H             2.7446971354        7.9302744133        9.3611342598



     Writing config-only to output data dir ./pwscf.save/
     NEW-OLD atomic charge density approx. for the potential

     Check: negative core charge=   -0.000004

     negative rho (up, down):  1.620E-06 1.620E-06
     Generating pointlists ...

     total cpu time spent up to now is       30.0 secs

     Self-consistent Calculation

     iteration #  1     ecut=    50.00 Ry     beta= 0.30
     Davidson diagonalization with overlap
     ethr =  1.00E-06,  avg # of iterations = 13.0

     negative rho (up, down):  1.496E-06 1.496E-06

     total cpu time spent up to now is       35.4 secs

     total energy              =    -882.55435982 Ry
     estimated scf accuracy    <       0.38273107 Ry

     total magnetization       =     0.00 Bohr mag/cell
     absolute magnetization    =     0.00 Bohr mag/cell

     iteration #  2     ecut=    50.00 Ry     beta= 0.30
     Davidson diagonalization with overlap
     ethr =  1.98E-04,  avg # of iterations =  2.0

     negative rho (up, down):  1.536E-06 1.536E-06

     total cpu time spent up to now is       37.4 secs

     total energy              =    -882.61020044 Ry
     estimated scf accuracy    <       0.08115737 Ry

     total magnetization       =    -0.00 Bohr mag/cell
     absolute magnetization    =     0.00 Bohr mag/cell

     iteration #  3     ecut=    50.00 Ry     beta= 0.30
     Davidson diagonalization with overlap
     ethr =  4.21E-05,  avg # of iterations =  2.0

     negative rho (up, down):  1.472E-06 1.472E-06

     total cpu time spent up to now is       39.3 secs

     total energy              =    -882.61381585 Ry
     estimated scf accuracy    <       0.01676036 Ry

     total magnetization       =     0.00 Bohr mag/cell
     absolute magnetization    =     0.00 Bohr mag/cell

     iteration #  4     ecut=    50.00 Ry     beta= 0.30
     Davidson diagonalization with overlap
     ethr =  8.68E-06,  avg # of iterations =  2.0

     negative rho (up, down):  1.468E-06 1.468E-06

     total cpu time spent up to now is       41.3 secs

     total energy              =    -882.61369085 Ry
     estimated scf accuracy    <       0.01282809 Ry

     total magnetization       =    -0.00 Bohr mag/cell
     absolute magnetization    =     0.00 Bohr mag/cell

     iteration #  5     ecut=    50.00 Ry     beta= 0.30
     Davidson diagonalization with overlap
     ethr =  6.65E-06,  avg # of iterations =  2.0

     negative rho (up, down):  1.539E-06 1.539E-06

     total cpu time spent up to now is       43.3 secs

     total energy              =    -882.61475935 Ry
     estimated scf accuracy    <       0.00442220 Ry

     total magnetization       =     0.00 Bohr mag/cell
     absolute magnetization    =     0.00 Bohr mag/cell

     iteration #  6     ecut=    50.00 Ry     beta= 0.30
     Davidson diagonalization with overlap
     ethr =  2.29E-06,  avg # of iterations =  6.0

     negative rho (up, down):  1.535E-06 1.535E-06

     total cpu time spent up to now is       45.4 secs

     total energy              =    -882.61520209 Ry
     estimated scf accuracy    <       0.00032382 Ry

     total magnetization       =    -0.00 Bohr mag/cell
     absolute magnetization    =     0.00 Bohr mag/cell

     iteration #  7     ecut=    50.00 Ry     beta= 0.30
     Davidson diagonalization with overlap
     ethr =  1.68E-07,  avg # of iterations =  4.0

     negative rho (up, down):  1.544E-06 1.544E-06

     total cpu time spent up to now is       47.6 secs

     total energy              =    -882.61524499 Ry
     estimated scf accuracy    <       0.00010679 Ry

     total magnetization       =    -0.00 Bohr mag/cell
     absolute magnetization    =     0.00 Bohr mag/cell

     iteration #  8     ecut=    50.00 Ry     beta= 0.30
     Davidson diagonalization with overlap
     ethr =  5.53E-08,  avg # of iterations =  2.0

     negative rho (up, down):  1.545E-06 1.545E-06

     total cpu time spent up to now is       49.6 secs

     total energy              =    -882.61525667 Ry
     estimated scf accuracy    <       0.00002414 Ry

     total magnetization       =    -0.00 Bohr mag/cell
     absolute magnetization    =     0.00 Bohr mag/cell

     iteration #  9     ecut=    50.00 Ry     beta= 0.30
     Davidson diagonalization with overlap
     ethr =  1.25E-08,  avg # of iterations =  2.0

     negative rho (up, down):  1.540E-06 1.540E-06

     total cpu time spent up to now is       51.6 secs

     total energy              =    -882.61525901 Ry
     estimated scf accuracy    <       0.00000405 Ry

     total magnetization       =    -0.00 Bohr mag/cell
     absolute magnetization    =     0.00 Bohr mag/cell

     iteration # 10     ecut=    50.00 Ry     beta= 0.30
     Davidson diagonalization with overlap
     ethr =  2.10E-09,  avg # of iterations =  4.0

     negative rho (up, down):  1.532E-06 1.532E-06

     Magnetic moment per site  (integrated on atomic sphere of radius R)
     atom   1 (R=0.041)  charge=  0.8246  magn= -0.0000
     atom   2 (R=0.041)  charge=  0.8714  magn= -0.0000
     atom   3 (R=0.041)  charge=  0.8655  magn=  0.0000
     atom   4 (R=0.041)  charge=  0.8277  magn=  0.0000
     atom   5 (R=0.041)  charge=  0.8938  magn=  0.0000
     atom   6 (R=0.041)  charge=  0.8744  magn= -0.0000
     atom   7 (R=0.041)  charge=  0.8249  magn=  0.0000
     atom   8 (R=0.041)  charge=  0.8711  magn=  0.0000
     atom   9 (R=0.041)  charge=  0.8647  magn= -0.0000
     atom  10 (R=0.041)  charge=  0.8231  magn=  0.0000
     atom  11 (R=0.041)  charge=  0.8697  magn=  0.0000
     atom  12 (R=0.041)  charge=  0.8634  magn= -0.0000
     atom  13 (R=0.041)  charge=  0.8133  magn= -0.0000
     atom  14 (R=0.041)  charge=  0.8538  magn= -0.0000
     atom  15 (R=0.041)  charge=  0.8345  magn=  0.0000
     atom  16 (R=0.041)  charge=  0.8137  magn= -0.0000
     atom  17 (R=0.041)  charge=  0.8548  magn= -0.0000
     atom  18 (R=0.041)  charge=  0.8340  magn=  0.0000
     atom  19 (R=0.041)  charge=  0.8137  magn= -0.0000
     atom  20 (R=0.041)  charge=  0.8533  magn=  0.0000
     atom  21 (R=0.041)  charge=  0.8331  magn= -0.0000
     atom  22 (R=0.041)  charge=  0.8136  magn= -0.0000
     atom  23 (R=0.041)  charge=  0.8540  magn= -0.0000
     atom  24 (R=0.041)  charge=  0.8306  magn=  0.0000
     atom  25 (R=0.041)  charge=  0.8242  magn=  0.0000
     atom  26 (R=0.041)  charge=  0.8704  magn=  0.0000
     atom  27 (R=0.041)  charge=  0.8641  magn= -0.0000
     atom  28 (R=0.041)  charge=  0.8244  magn=  0.0000
     atom  29 (R=0.041)  charge=  0.8731  magn=  0.0000
     atom  30 (R=0.041)  charge=  0.8652  magn= -0.0000
     atom  31 (R=0.041)  charge=  0.8237  magn=  0.0000
     atom  32 (R=0.041)  charge=  0.8712  magn=  0.0000
     atom  33 (R=0.041)  charge=  0.8634  magn= -0.0000
     atom  34 (R=0.041)  charge=  0.8242  magn=  0.0000
     atom  35 (R=0.041)  charge=  0.8709  magn=  0.0000
     atom  36 (R=0.041)  charge=  0.8634  magn= -0.0000
     atom  37 (R=0.041)  charge=  0.8422  magn= -0.0000
     atom  38 (R=0.041)  charge=  0.8538  magn= -0.0000
     atom  39 (R=0.041)  charge=  0.8222  magn=  0.0000
     atom  40 (R=0.041)  charge=  0.8106  magn=  0.0000
     atom  41 (R=0.041)  charge=  0.8540  magn=  0.0000
     atom  42 (R=0.041)  charge=  0.8343  magn= -0.0000
     atom  43 (R=0.041)  charge=  0.8119  magn= -0.0000
     atom  44 (R=0.041)  charge=  0.8537  magn= -0.0000
     atom  45 (R=0.041)  charge=  0.8338  magn=  0.0000
     atom  46 (R=0.041)  charge=  0.8105  magn= -0.0000
     atom  47 (R=0.041)  charge=  0.8542  magn= -0.0000
     atom  48 (R=0.041)  charge=  0.8339  magn=  0.0000
     atom  49 (R=0.041)  charge=  0.4578  magn=  0.0000

     total cpu time spent up to now is       53.7 secs

     End of self-consistent calculation

 ------ SPIN UP ------------


          k = 0.0000 0.0000 0.0000 ( 26858 PWs)   bands (ev):

   -21.8358 -21.8246 -18.0834 -17.6279 -17.6032 -17.5982 -17.4292 -17.4142
   -17.3711 -16.9208 -16.8862 -16.8744 -16.8445 -16.5031 -16.2455 -16.2234
   -15.9293 -15.7780 -15.7553 -15.5665 -15.3741 -14.7813 -14.5271 -14.4825
   -14.4706 -14.2652 -14.2539 -13.8590 -13.3722 -12.8711 -12.7320 -12.7278
   -12.3331 -12.2644 -12.2415 -12.1778 -11.4429 -11.1875 -11.1253 -11.1119
   -10.7972 -10.3786 -10.0729  -9.9249  -9.9058  -9.6859  -9.6666  -9.6125
    -9.6086  -9.5547  -9.4723  -9.4506  -8.2275  -7.0438  -6.9550  -6.8408
    -6.6831  -6.6368  -6.6151  -6.4001  -6.3625  -6.2278  -5.9892  -5.9657
    -5.9276  -5.8310  -5.6807  -5.6225  -5.6144  -5.5547  -5.5253  -5.5185
    -5.4733  -5.4435  -5.0682  -5.0301  -4.9727  -4.7113  -4.6425  -4.5726
    -3.8652  -3.7028  -3.6833  -3.4457  -3.3331  -3.3156  -3.1729  -3.1141
    -3.0281  -2.9479  -2.8664  -2.8387  -2.8060  -2.1411  -1.9741  -1.8902
    -1.2236  -0.7505  -0.4586  -0.0560   0.1225   0.3741   0.6384   0.7224
     0.9200   0.9590   0.9631   1.1108   1.1378   1.7772   2.0359   2.1037
     2.1649   2.3651   2.4317   2.4748

 ------ SPIN DOWN ----------


          k = 0.0000 0.0000 0.0000 ( 26858 PWs)   bands (ev):

   -21.8358 -21.8246 -18.0834 -17.6279 -17.6032 -17.5982 -17.4292 -17.4142
   -17.3711 -16.9208 -16.8862 -16.8744 -16.8445 -16.5031 -16.2455 -16.2234
   -15.9293 -15.7780 -15.7553 -15.5665 -15.3741 -14.7814 -14.5271 -14.4825
   -14.4706 -14.2652 -14.2539 -13.8590 -13.3722 -12.8711 -12.7320 -12.7278
   -12.3331 -12.2644 -12.2415 -12.1778 -11.4429 -11.1875 -11.1253 -11.1119
   -10.7972 -10.3786 -10.0729  -9.9249  -9.9058  -9.6859  -9.6666  -9.6125
    -9.6086  -9.5547  -9.4723  -9.4506  -8.2275  -7.0438  -6.9550  -6.8408
    -6.6831  -6.6368  -6.6151  -6.4001  -6.3625  -6.2278  -5.9892  -5.9657
    -5.9276  -5.8310  -5.6807  -5.6225  -5.6144  -5.5547  -5.5253  -5.5185
    -5.4733  -5.4435  -5.0682  -5.0301  -4.9727  -4.7113  -4.6425  -4.5726
    -3.8652  -3.7028  -3.6833  -3.4457  -3.3331  -3.3156  -3.1729  -3.1141
    -3.0281  -2.9479  -2.8664  -2.8387  -2.8060  -2.1411  -1.9741  -1.8902
    -1.2236  -0.7505  -0.4586  -0.0560   0.1225   0.3741   0.6384   0.7224
     0.9200   0.9590   0.9631   1.1108   1.1378   1.7772   2.0359   2.1037
     2.1649   2.3651   2.4317   2.4748

     the spin up/dw Fermi energies are    -1.2236   -1.2236 ev

!    total energy              =    -882.61525959 Ry
     estimated scf accuracy    <       0.00000087 Ry
     smearing contrib. (-TS)   =      -0.00005642 Ry
     internal energy E=F+TS    =    -882.61520318 Ry

     The total energy is F=E-TS. E is the sum of the following terms:
     one-electron contribution =   -1217.22902752 Ry
     hartree contribution      =     652.58075224 Ry
     xc contribution           =    -218.80865882 Ry
     ewald contribution        =     196.86591044 Ry
     one-center paw contrib.   =    -296.02417951 Ry

     total magnetization       =     0.00 Bohr mag/cell
     absolute magnetization    =     0.00 Bohr mag/cell

     convergence has been achieved in  10 iterations

     negative rho (up, down):  1.532E-06 1.532E-06

     Forces acting on atoms (cartesian axes, Ry/au):

     atom    1 type  1   force =     0.01796138   -0.01859364    0.01869581
     atom    2 type  1   force =    -0.02990737    0.02987120   -0.02978496
     atom    3 type  1   force =     0.01969611   -0.02015226    0.02017157
     atom    4 type  1   force =    -0.00034353   -0.00105563    0.00164619
     atom    5 type  1   force =     0.08551100   -0.07808932   -0.18468558
     atom    6 type  1   force =    -0.01646066    0.01716131    0.01869556
     atom    7 type  1   force =     0.01563190    0.01729230   -0.01799565
     atom    8 type  1   force =    -0.03741144   -0.03746131    0.03756556
     atom    9 type  1   force =     0.02614248    0.02578292   -0.02717628
     atom   10 type  1   force =    -0.01703368   -0.01551164   -0.01672164
     atom   11 type  1   force =     0.04055741    0.04036185    0.04061438
     atom   12 type  1   force =    -0.02736315   -0.02785534   -0.02849333
     atom   13 type  1   force =     0.01397388   -0.01269250   -0.01383577
     atom   14 type  1   force =    -0.10706193    0.10635498    0.10650819
     atom   15 type  1   force =     0.05238621   -0.05211138   -0.05278824
     atom   16 type  1   force =    -0.01124567    0.01247774   -0.01355009
     atom   17 type  1   force =     0.10702982   -0.10792692    0.10733472
     atom   18 type  1   force =    -0.05006646    0.05054825   -0.05416790
     atom   19 type  1   force =    -0.01057896   -0.00855659    0.01192625
     atom   20 type  1   force =     0.11935633    0.11938259   -0.12045732
     atom   21 type  1   force =    -0.06169119   -0.06065633    0.06261496
     atom   22 type  1   force =     0.00821141    0.01007415    0.01060623
     atom   23 type  1   force =    -0.11757855   -0.11761162   -0.11807835
     atom   24 type  1   force =     0.05851160    0.06016458    0.06088064
     atom   25 type  1   force =     0.00612655   -0.00455444    0.05514597
     atom   26 type  1   force =    -0.04161093    0.04162786   -0.04460565
     atom   27 type  1   force =     0.02867888   -0.02826629    0.03840027
     atom   28 type  1   force =    -0.01481063    0.01601436    0.01826460
     atom   29 type  1   force =     0.03169345   -0.03173668   -0.03179727
     atom   30 type  1   force =    -0.02148588    0.02181123    0.02201506
     atom   31 type  1   force =     0.01270481    0.02947603   -0.00691302
     atom   32 type  1   force =    -0.05042302   -0.05198419    0.05145719
     atom   33 type  1   force =     0.03800779    0.03991369   -0.03746651
     atom   34 type  1   force =    -0.02639412   -0.01288298   -0.00806055
     atom   35 type  1   force =     0.05017151    0.04896410    0.04980101
     atom   36 type  1   force =    -0.04024634   -0.03969067   -0.03935385
     atom   37 type  1   force =    -0.06731227    0.06320086    0.04115662
     atom   38 type  1   force =    -0.22348262    0.21569554    0.33917467
     atom   39 type  1   force =     0.18077738   -0.17835143   -0.25645712
     atom   40 type  1   force =    -0.00674476    0.00601845   -0.01558682
     atom   41 type  1   force =     0.10621982   -0.10556652    0.10568460
     atom   42 type  1   force =    -0.04898073    0.04905042   -0.05121681
     atom   43 type  1   force =    -0.00744516   -0.01336640    0.01000424
     atom   44 type  1   force =     0.11304798    0.11275042   -0.11194469
     atom   45 type  1   force =    -0.05617000   -0.05620071    0.05606254
     atom   46 type  1   force =     0.01347361    0.00811284    0.01222457
     atom   47 type  1   force =    -0.11223789   -0.11222097   -0.11229919
     atom   48 type  1   force =     0.05606457    0.05606737    0.05641963
     atom   49 type  2   force =     0.00215105   -0.00507930    0.04036558

     Total force =     0.892077     Total SCF correction =     0.001469
     Energy error            =      1.1E-02 Ry
     Gradient error          =      3.4E-01 Ry/Bohr

     number of scf cycles    =   2
     number of bfgs steps    =   1

     energy             old  =    -882.6266304486 Ry
     energy             new  =    -882.6152595941 Ry

     CASE: energy            _new > energy            _old

     new trust radius        =       0.1238320416 bohr
     new conv_thr            =       0.0000010000 Ry


ATOMIC_POSITIONS (angstrom)
C             6.1720070676        4.6031972349        6.1734710544
C             7.6958135043        3.0741200432        7.6957617426
C             6.9841840172        3.7887463593        6.9844296401
C             4.6017384969        6.1745297254        6.1773365300
C             3.0720082346        7.6995834483        7.6748890839
C             3.7940497621        6.9790809861        6.9822924597
C             6.1731163280        6.1731187598        4.6021868946
C             7.6963999980        7.6964065168        3.0736043411
C             6.9838561595        6.9838884470        3.7889071173
C             4.5989199941        4.5987493014        4.5980489286
C             3.0725371171        3.0724681002        3.0726065822
C             3.7864699264        3.7864471457        3.7862457870
C             6.2118350191        4.5594428234        4.5588484514
C             7.7769342716        2.9999807158        3.0000686729
C             7.0516754530        3.7223421077        3.7231657879
C             4.5597293257        6.2116518602        4.5573266083
C             2.9998354899        7.7780492286        3.0000855810
C             3.7229102481        7.0511560260        3.7230427288
C             4.5587639938        4.5581423674        6.2133756700
C             2.9987730909        2.9988482051        7.7781049549
C             3.7232482186        3.7233083744        7.0509028196
C             6.2158637853        6.2165537531        6.2164839791
C             7.7777606707        7.7787699353        7.7787286862
C             7.0526123599        7.0538072590        7.0529286684
C             0.6713263880       10.1004576762        0.6810872065
C             2.2010322627        8.5760057904        2.2004631616
C             1.4842269040        9.2897860751        1.4853149629
C            10.0985913289        0.6712375695        0.6733486400
C             8.5770599294        2.1989385545        2.1998764910
C             9.2878596887        1.4851994929        1.4863345952
C             0.6742453842        0.6745098127       10.0984200138
C             2.2004684529        2.2002254126        8.5757810666
C             1.4845045199        1.4835572972        9.2893030809
C            10.1009278589       10.1010699232       10.1011664825
C             8.5767631390        8.5766639696        8.5768454262
C             9.2925592824        9.2923030451        9.2911549091
C             0.7225595004       10.0514326256       10.0456337300
C             2.2969295656        8.4703725078        8.4807484338
C             1.5089717805        9.2630191770        9.2414710167
C            10.0598263537        0.7131902419       10.0590623700
C             8.4953529516        2.2718095262        8.4953358899
C             9.2195085194        1.5494831464        9.2191746840
C            10.0595797275       10.0604786956        0.7162346476
C             8.4947908968        8.4956887463        2.2724413929
C             9.2207709501        9.2208607851        1.5501179830
C             0.7122110834        0.7114796268        0.7126236314
C             2.2734491383        2.2724598698        2.2734241366
C             1.5493589045        1.5484148086        1.5483645855
H             2.7360829572        7.9409669000        9.3404286922



     Writing config-only to output data dir ./pwscf.save/
     NEW-OLD atomic charge density approx. for the potential

     Check: negative core charge=   -0.000004

     negative rho (up, down):  1.464E-06 1.464E-06
     Generating pointlists ...

     total cpu time spent up to now is       57.4 secs

     Self-consistent Calculation

     iteration #  1     ecut=    50.00 Ry     beta= 0.30
     Davidson diagonalization with overlap
     ethr =  1.00E-06,  avg # of iterations = 13.0

     negative rho (up, down):  1.479E-06 1.479E-06

     total cpu time spent up to now is       62.2 secs

     total energy              =    -882.68864560 Ry
     estimated scf accuracy    <       0.10083482 Ry

     total magnetization       =    -0.00 Bohr mag/cell
     absolute magnetization    =     0.00 Bohr mag/cell

     iteration #  2     ecut=    50.00 Ry     beta= 0.30
     Davidson diagonalization with overlap
     ethr =  5.22E-05,  avg # of iterations =  2.0

     negative rho (up, down):  1.483E-06 1.483E-06

     total cpu time spent up to now is       64.2 secs

     total energy              =    -882.70346764 Ry
     estimated scf accuracy    <       0.02045074 Ry

     total magnetization       =    -0.00 Bohr mag/cell
     absolute magnetization    =     0.00 Bohr mag/cell

     iteration #  3     ecut=    50.00 Ry     beta= 0.30
     Davidson diagonalization with overlap
     ethr =  1.06E-05,  avg # of iterations =  2.0

     negative rho (up, down):  1.508E-06 1.508E-06

     total cpu time spent up to now is       66.2 secs

     total energy              =    -882.70438934 Ry
     estimated scf accuracy    <       0.00418062 Ry

     total magnetization       =     0.00 Bohr mag/cell
     absolute magnetization    =     0.00 Bohr mag/cell

     iteration #  4     ecut=    50.00 Ry     beta= 0.30
     Davidson diagonalization with overlap
     ethr =  2.17E-06,  avg # of iterations =  5.0

     negative rho (up, down):  1.502E-06 1.502E-06

     total cpu time spent up to now is       68.3 secs

     total energy              =    -882.70447252 Ry
     estimated scf accuracy    <       0.00187029 Ry

     total magnetization       =     0.00 Bohr mag/cell
     absolute magnetization    =     0.00 Bohr mag/cell

     iteration #  5     ecut=    50.00 Ry     beta= 0.30
     Davidson diagonalization with overlap
     ethr =  9.69E-07,  avg # of iterations =  2.0

     negative rho (up, down):  1.542E-06 1.542E-06

     total cpu time spent up to now is       70.2 secs

     total energy              =    -882.70460948 Ry
     estimated scf accuracy    <       0.00104376 Ry

     total magnetization       =     0.00 Bohr mag/cell
     absolute magnetization    =     0.00 Bohr mag/cell

     iteration #  6     ecut=    50.00 Ry     beta= 0.30
     Davidson diagonalization with overlap
     ethr =  5.41E-07,  avg # of iterations =  2.0

     negative rho (up, down):  1.545E-06 1.545E-06

     total cpu time spent up to now is       72.2 secs

     total energy              =    -882.70472166 Ry
     estimated scf accuracy    <       0.00005770 Ry

     total magnetization       =     0.00 Bohr mag/cell
     absolute magnetization    =     0.00 Bohr mag/cell

     iteration #  7     ecut=    50.00 Ry     beta= 0.30
     Davidson diagonalization with overlap
     ethr =  2.99E-08,  avg # of iterations =  4.0

     negative rho (up, down):  1.527E-06 1.527E-06

     total cpu time spent up to now is       74.4 secs

     total energy              =    -882.70473259 Ry
     estimated scf accuracy    <       0.00001442 Ry

     total magnetization       =    -0.00 Bohr mag/cell
     absolute magnetization    =     0.00 Bohr mag/cell

     iteration #  8     ecut=    50.00 Ry     beta= 0.30
     Davidson diagonalization with overlap
     ethr =  7.47E-09,  avg # of iterations =  2.0

     negative rho (up, down):  1.512E-06 1.512E-06

     total cpu time spent up to now is       76.5 secs

     total energy              =    -882.70473506 Ry
     estimated scf accuracy    <       0.00000168 Ry

     total magnetization       =     0.00 Bohr mag/cell
     absolute magnetization    =     0.00 Bohr mag/cell

     iteration #  9     ecut=    50.00 Ry     beta= 0.30
     Davidson diagonalization with overlap
     ethr =  8.70E-10,  avg # of iterations =  2.0

     negative rho (up, down):  1.481E-06 1.481E-06

     Magnetic moment per site  (integrated on atomic sphere of radius R)
     atom   1 (R=0.041)  charge=  0.8237  magn= -0.0000
     atom   2 (R=0.041)  charge=  0.8625  magn= -0.0000
     atom   3 (R=0.041)  charge=  0.8687  magn=  0.0000
     atom   4 (R=0.041)  charge=  0.8251  magn=  0.0000
     atom   5 (R=0.041)  charge=  0.8732  magn=  0.0000
     atom   6 (R=0.041)  charge=  0.8719  magn= -0.0000
     atom   7 (R=0.041)  charge=  0.8237  magn=  0.0000
     atom   8 (R=0.041)  charge=  0.8621  magn=  0.0000
     atom   9 (R=0.041)  charge=  0.8681  magn= -0.0000
     atom  10 (R=0.041)  charge=  0.8202  magn=  0.0000
     atom  11 (R=0.041)  charge=  0.8627  magn=  0.0000
     atom  12 (R=0.041)  charge=  0.8648  magn= -0.0000
     atom  13 (R=0.041)  charge=  0.8150  magn= -0.0000
     atom  14 (R=0.041)  charge=  0.8537  magn= -0.0000
     atom  15 (R=0.041)  charge=  0.8487  magn=  0.0000
     atom  16 (R=0.041)  charge=  0.8153  magn= -0.0000
     atom  17 (R=0.041)  charge=  0.8542  magn= -0.0000
     atom  18 (R=0.041)  charge=  0.8482  magn=  0.0000
     atom  19 (R=0.041)  charge=  0.8151  magn= -0.0000
     atom  20 (R=0.041)  charge=  0.8534  magn=  0.0000
     atom  21 (R=0.041)  charge=  0.8481  magn= -0.0000
     atom  22 (R=0.041)  charge=  0.8149  magn= -0.0000
     atom  23 (R=0.041)  charge=  0.8499  magn= -0.0000
     atom  24 (R=0.041)  charge=  0.8455  magn=  0.0000
     atom  25 (R=0.041)  charge=  0.8240  magn=  0.0000
     atom  26 (R=0.041)  charge=  0.8616  magn=  0.0000
     atom  27 (R=0.041)  charge=  0.8683  magn= -0.0000
     atom  28 (R=0.041)  charge=  0.8232  magn=  0.0000
     atom  29 (R=0.041)  charge=  0.8632  magn=  0.0000
     atom  30 (R=0.041)  charge=  0.8687  magn= -0.0000
     atom  31 (R=0.041)  charge=  0.8228  magn=  0.0000
     atom  32 (R=0.041)  charge=  0.8619  magn= -0.0000
     atom  33 (R=0.041)  charge=  0.8678  magn=  0.0000
     atom  34 (R=0.041)  charge=  0.8226  magn=  0.0000
     atom  35 (R=0.041)  charge=  0.8622  magn=  0.0000
     atom  36 (R=0.041)  charge=  0.8677  magn= -0.0000
     atom  37 (R=0.041)  charge=  0.8267  magn= -0.0000
     atom  38 (R=0.041)  charge=  0.8612  magn= -0.0000
     atom  39 (R=0.041)  charge=  0.8318  magn=  0.0000
     atom  40 (R=0.041)  charge=  0.8132  magn=  0.0000
     atom  41 (R=0.041)  charge=  0.8535  magn=  0.0000
     atom  42 (R=0.041)  charge=  0.8490  magn= -0.0000
     atom  43 (R=0.041)  charge=  0.8140  magn= -0.0000
     atom  44 (R=0.041)  charge=  0.8531  magn= -0.0000
     atom  45 (R=0.041)  charge=  0.8487  magn=  0.0000
     atom  46 (R=0.041)  charge=  0.8148  magn= -0.0000
     atom  47 (R=0.041)  charge=  0.8527  magn= -0.0000
     atom  48 (R=0.041)  charge=  0.8486  magn=  0.0000
     atom  49 (R=0.041)  charge=  0.4601  magn=  0.0000

     total cpu time spent up to now is       78.5 secs

     End of self-consistent calculation

 ------ SPIN UP ------------


          k = 0.0000 0.0000 0.0000 ( 26858 PWs)   bands (ev):

   -21.6808 -21.6669 -18.1956 -17.5946 -17.5775 -17.4978 -17.4136 -17.4021
   -17.3913 -16.8492 -16.8184 -16.7758 -16.7325 -16.3089 -16.0774 -16.0740
   -16.0554 -15.8886 -15.8672 -15.6728 -15.5090 -14.7387 -14.5868 -14.5568
   -14.5131 -14.1772 -14.1728 -13.7323 -13.2580 -12.9769 -12.8239 -12.8142
   -12.3116 -12.2364 -12.0603 -12.0385 -11.5355 -11.2110 -11.0060 -10.9844
   -10.7374 -10.3693 -10.0732  -9.9435  -9.9294  -9.6089  -9.5870  -9.5575
    -9.5322  -9.5321  -9.4706  -9.4531  -8.3753  -7.0267  -6.9393  -6.8218
    -6.6618  -6.6393  -6.6142  -6.3780  -6.3213  -6.1979  -5.9390  -5.9311
    -5.9134  -5.8338  -5.6151  -5.5467  -5.5407  -5.4777  -5.4352  -5.4282
    -5.3563  -5.3244  -4.9455  -4.8926  -4.8445  -4.5629  -4.4753  -4.4173
    -4.0075  -3.8657  -3.7945  -3.5717  -3.5028  -3.4443  -3.3008  -3.2657
    -3.1136  -3.0462  -2.9371  -2.9292  -2.9081  -2.1559  -2.0279  -2.0138
    -1.0864  -0.5349  -0.3431   0.0522   0.2950   0.4875   0.7533   0.8909
     1.0981   1.1054   1.1087   1.3265   1.3615   1.9166   2.2526   2.2897
     2.3148   2.3443   2.3482   2.3501

 ------ SPIN DOWN ----------


          k = 0.0000 0.0000 0.0000 ( 26858 PWs)   bands (ev):

   -21.6809 -21.6669 -18.1956 -17.5946 -17.5775 -17.4978 -17.4136 -17.4021
   -17.3913 -16.8492 -16.8184 -16.7758 -16.7325 -16.3089 -16.0774 -16.0740
   -16.0554 -15.8886 -15.8672 -15.6728 -15.5090 -14.7387 -14.5868 -14.5568
   -14.5131 -14.1772 -14.1728 -13.7323 -13.2580 -12.9769 -12.8239 -12.8142
   -12.3116 -12.2364 -12.0603 -12.0385 -11.5355 -11.2110 -11.0060 -10.9844
   -10.7374 -10.3693 -10.0732  -9.9435  -9.9294  -9.6089  -9.5870  -9.5575
    -9.5322  -9.5321  -9.4706  -9.4531  -8.3753  -7.0267  -6.9393  -6.8218
    -6.6618  -6.6393  -6.6142  -6.3780  -6.3213  -6.1979  -5.9390  -5.9311
    -5.9134  -5.8338  -5.6151  -5.5467  -5.5407  -5.4777  -5.4352  -5.4282
    -5.3563  -5.3244  -4.9455  -4.8926  -4.8445  -4.5629  -4.4753  -4.4173
    -4.0075  -3.8657  -3.7945  -3.5717  -3.5028  -3.4443  -3.3008  -3.2657
    -3.1136  -3.0462  -2.9371  -2.9292  -2.9081  -2.1559  -2.0279  -2.0138
    -1.0864  -0.5349  -0.3431   0.0522   0.2950   0.4875   0.7533   0.8909
     1.0981   1.1054   1.1087   1.3265   1.3615   1.9166   2.2526   2.2897
     2.3148   2.3443   2.3482   2.3501

     the spin up/dw Fermi energies are    -1.0864   -1.0864 ev

!    total energy              =    -882.70473534 Ry
     estimated scf accuracy    <       0.00000034 Ry
     smearing contrib. (-TS)   =      -0.00005642 Ry
     internal energy E=F+TS    =    -882.70467892 Ry

     The total energy is F=E-TS. E is the sum of the following terms:
     one-electron contribution =   -1218.75034969 Ry
     hartree contribution      =     653.48551282 Ry
     xc contribution           =    -218.86983058 Ry
     ewald contribution        =     197.45302390 Ry
     one-center paw contrib.   =    -296.02303538 Ry

     total magnetization       =    -0.00 Bohr mag/cell
     absolute magnetization    =     0.00 Bohr mag/cell

     convergence has been achieved in   9 iterations

     negative rho (up, down):  1.481E-06 1.481E-06

     Forces acting on atoms (cartesian axes, Ry/au):

     atom    1 type  1   force =     0.01678090   -0.01871974    0.01775609
     atom    2 type  1   force =     0.01336478   -0.01355653    0.01331003
     atom    3 type  1   force =     0.03043459   -0.03082128    0.03113068
     atom    4 type  1   force =    -0.01251712    0.01023063    0.01663365
     atom    5 type  1   force =     0.00100305    0.00552668   -0.09289654
     atom    6 type  1   force =    -0.02009644    0.02063221    0.02794657
     atom    7 type  1   force =     0.01552574    0.01644632   -0.02021754
     atom    8 type  1   force =     0.01121834    0.01122023   -0.01118702
     atom    9 type  1   force =     0.03313731    0.03304889   -0.03407841
     atom   10 type  1   force =    -0.01627994   -0.01571939   -0.01779983
     atom   11 type  1   force =    -0.00989190   -0.01012049   -0.00972674
     atom   12 type  1   force =    -0.03318355   -0.03342940   -0.03408751
     atom   13 type  1   force =    -0.01920200    0.02048287    0.01901426
     atom   14 type  1   force =    -0.02489912    0.02432098    0.02458484
     atom   15 type  1   force =     0.02565037   -0.02546141   -0.02612617
     atom   16 type  1   force =     0.02178851   -0.02033864    0.01624275
     atom   17 type  1   force =     0.02448103   -0.02521712    0.02515495
     atom   18 type  1   force =    -0.02377099    0.02416113   -0.02753105
     atom   19 type  1   force =     0.02035300    0.02201146   -0.01921882
     atom   20 type  1   force =     0.02838489    0.02857591   -0.02921054
     atom   21 type  1   force =    -0.02946349   -0.02903098    0.03024170
     atom   22 type  1   force =    -0.02207734   -0.01995178   -0.01969416
     atom   23 type  1   force =    -0.02849561   -0.02846570   -0.02875925
     atom   24 type  1   force =     0.02762342    0.02861139    0.02921839
     atom   25 type  1   force =     0.00911454   -0.00671996    0.05072995
     atom   26 type  1   force =     0.00988416   -0.00974667    0.00737788
     atom   27 type  1   force =     0.03209629   -0.03183505    0.03879393
     atom   28 type  1   force =    -0.01405723    0.01630016    0.01931419
     atom   29 type  1   force =    -0.01278428    0.01281244    0.01265508
     atom   30 type  1   force =    -0.03135582    0.03166687    0.03198707
     atom   31 type  1   force =     0.01835179    0.02774568   -0.01214036
     atom   32 type  1   force =     0.00720335    0.00604065   -0.00619589
     atom   33 type  1   force =     0.03705770    0.03801239   -0.03712611
     atom   34 type  1   force =    -0.02541070   -0.01980913   -0.01522876
     atom   35 type  1   force =    -0.00673997   -0.00744125   -0.00672220
     atom   36 type  1   force =    -0.03786150   -0.03816570   -0.03828359
     atom   37 type  1   force =    -0.03868605    0.03495964    0.01229907
     atom   38 type  1   force =    -0.06630201    0.06171579    0.14157690
     atom   39 type  1   force =     0.04356026   -0.04096303   -0.12163017
     atom   40 type  1   force =     0.02576858   -0.02613337    0.01840073
     atom   41 type  1   force =     0.02507881   -0.02438360    0.02485330
     atom   42 type  1   force =    -0.02337581    0.02338528   -0.02510131
     atom   43 type  1   force =     0.02319976    0.02047290   -0.02041208
     atom   44 type  1   force =     0.02736492    0.02702126   -0.02630715
     atom   45 type  1   force =    -0.02706360   -0.02685069    0.02673873
     atom   46 type  1   force =    -0.02106981   -0.02280897   -0.01853842
     atom   47 type  1   force =    -0.02636145   -0.02632034   -0.02645746
     atom   48 type  1   force =     0.02718417    0.02732685    0.02738164
     atom   49 type  2   force =     0.01533550   -0.02071841    0.06133468

     Total force =     0.373354     Total SCF correction =     0.000736
     Energy error            =      7.8E-02 Ry
     Gradient error          =      1.4E-01 Ry/Bohr

     number of scf cycles    =   3
     number of bfgs steps    =   1

     energy             old  =    -882.6266304486 Ry
     energy             new  =    -882.7047353383 Ry

     CASE: energy            _new < energy            _old

     new trust radius        =       0.1104394864 bohr
     new conv_thr            =       0.0000010000 Ry


ATOMIC_POSITIONS (angstrom)
C             6.1839165605        4.5896404786        6.1862610701
C             7.7123278379        3.0574527756        7.7122056798
C             7.0081614010        3.7645130529        7.0089657808
C             4.5901870421        6.1843069779        6.1926998092
C             3.0611179578        7.7151343760        7.6196166239
C             3.7796637284        6.9938495505        7.0034463316
C             6.1844684506        6.1849469935        4.5870350344
C             7.7122869845        7.7122997938        3.0577370218
C             7.0089582440        7.0089713177        3.7631273459
C             4.5872090488        4.5871878969        4.5848450464
C             3.0572820191        3.0570390069        3.0574931809
C             3.7616098699        3.7614418937        3.7607374281
C             6.1912125295        4.5809515168        4.5791161982
C             7.7746551704        3.0018927497        3.0021883129
C             7.0638063785        3.7103228218        3.7106603817
C             4.5821440395        6.1902946431        4.5749262452
C             3.0017115563        7.7757000685        3.0025126299
C             3.7122247615        7.0620964784        3.7097134372
C             4.5796523801        4.5801933845        6.1931852866
C             3.0017936482        3.0020283773        7.7745597401
C             3.7099064413        3.7102384002        7.0647685312
C             6.1937838532        6.1961310557        6.1961370820
C             7.7743029893        7.7753352103        7.7751091428
C             7.0648927732        7.0667554063        7.0662884189
C             0.6787325302       10.0949240345        0.7178842040
C             2.2167475656        8.5603923217        2.2144236841
C             1.5074645712        9.2666935362        1.5128891782
C            10.0885724566        0.6830873885        0.6876565868
C             8.5607413915        2.2152703592        2.2160766530
C             9.2634434697        1.5098241607        1.5112343212
C             0.6887887405        0.6949221587       10.0884334697
C             2.2151586562        2.2141186493        8.5618131618
C             1.5105237997        1.5101112998        9.2630917139
C            10.0820749156       10.0852177912       10.0885673647
C             8.5625003955        8.5619591974        8.5626589202
C             9.2661780317        9.2655562265        9.2642266045
C             0.6973842738       10.0738669537       10.0516695459
C             2.2937042131        8.4706668177        8.5314480986
C             1.4963276802        9.2778088175        9.1971471866
C            10.0851852883        0.6876569565       10.0791885268
C             8.4979587609        2.2696942338        8.4978116415
C             9.2086990504        1.5602906996        9.2072043672
C            10.0825993190       10.0820114964        0.6953147282
C             8.4981159055        8.4987534826        2.2698505431
C             9.2082760990        9.2085488264        1.5623549651
C             0.6901179432        0.6887096940        0.6929858296
C             2.2708366378        2.2698772907        2.2707418046
C             1.5620217162        1.5611966846        1.5611337344
H             2.7505709228        7.9221166966        9.3878574068



     Writing config-only to output data dir ./pwscf.save/
     NEW-OLD atomic charge density approx. for the potential

     Check: negative core charge=   -0.000004

     negative rho (up, down):  1.519E-06 1.519E-06
     Generating pointlists ...

     total cpu time spent up to now is       82.2 secs

     Self-consistent Calculation

     iteration #  1     ecut=    50.00 Ry     beta= 0.30
     Davidson diagonalization with overlap
     ethr =  1.00E-06,  avg # of iterations = 10.0

     negative rho (up, down):  1.746E-06 1.746E-06

     total cpu time spent up to now is       86.9 secs

     total energy              =    -882.73036744 Ry
     estimated scf accuracy    <       0.09828809 Ry

     total magnetization       =     0.00 Bohr mag/cell
     absolute magnetization    =     0.00 Bohr mag/cell

     iteration #  2     ecut=    50.00 Ry     beta= 0.30
     Davidson diagonalization with overlap
     ethr =  5.09E-05,  avg # of iterations =  2.0

     negative rho (up, down):  1.902E-06 1.902E-06

     total cpu time spent up to now is       88.9 secs

     total energy              =    -882.74612214 Ry
     estimated scf accuracy    <       0.02071990 Ry

     total magnetization       =     0.00 Bohr mag/cell
     absolute magnetization    =     0.00 Bohr mag/cell

     iteration #  3     ecut=    50.00 Ry     beta= 0.30
     Davidson diagonalization with overlap
     ethr =  1.07E-05,  avg # of iterations =  1.0

     negative rho (up, down):  2.104E-06 2.104E-06

     total cpu time spent up to now is       90.7 secs

     total energy              =    -882.74675322 Ry
     estimated scf accuracy    <       0.00411008 Ry

     total magnetization       =     0.00 Bohr mag/cell
     absolute magnetization    =     0.00 Bohr mag/cell

     iteration #  4     ecut=    50.00 Ry     beta= 0.30
     Davidson diagonalization with overlap
     ethr =  2.13E-06,  avg # of iterations =  2.0

     negative rho (up, down):  2.125E-06 2.125E-06

     total cpu time spent up to now is       92.9 secs

     total energy              =    -882.74717189 Ry
     estimated scf accuracy    <       0.00092615 Ry

     total magnetization       =     0.00 Bohr mag/cell
     absolute magnetization    =     0.00 Bohr mag/cell

     iteration #  5     ecut=    50.00 Ry     beta= 0.30
     Davidson diagonalization with overlap
     ethr =  4.80E-07,  avg # of iterations =  2.0

     negative rho (up, down):  2.077E-06 2.077E-06

     total cpu time spent up to now is       94.8 secs

     total energy              =    -882.74722794 Ry
     estimated scf accuracy    <       0.00039093 Ry

     total magnetization       =     0.00 Bohr mag/cell
     absolute magnetization    =     0.00 Bohr mag/cell

     iteration #  6     ecut=    50.00 Ry     beta= 0.30
     Davidson diagonalization with overlap
     ethr =  2.03E-07,  avg # of iterations =  2.0

     negative rho (up, down):  2.062E-06 2.062E-06

     total cpu time spent up to now is       96.7 secs

     total energy              =    -882.74728011 Ry
     estimated scf accuracy    <       0.00008661 Ry

     total magnetization       =    -0.00 Bohr mag/cell
     absolute magnetization    =     0.00 Bohr mag/cell

     iteration #  7     ecut=    50.00 Ry     beta= 0.30
     Davidson diagonalization with overlap
     ethr =  4.49E-08,  avg # of iterations =  2.0

     negative rho (up, down):  2.010E-06 2.010E-06

     total cpu time spent up to now is       98.8 secs

     total energy              =    -882.74728781 Ry
     estimated scf accuracy    <       0.00001712 Ry

     total magnetization       =    -0.00 Bohr mag/cell
     absolute magnetization    =     0.00 Bohr mag/cell

     iteration #  8     ecut=    50.00 Ry     beta= 0.30
     Davidson diagonalization with overlap
     ethr =  8.87E-09,  avg # of iterations =  2.0

     negative rho (up, down):  1.984E-06 1.984E-06

     total cpu time spent up to now is      100.7 secs

     total energy              =    -882.74729006 Ry
     estimated scf accuracy    <       0.00000298 Ry

     total magnetization       =     0.00 Bohr mag/cell
     absolute magnetization    =     0.00 Bohr mag/cell

     iteration #  9     ecut=    50.00 Ry     beta= 0.30
     Davidson diagonalization with overlap
     ethr =  1.55E-09,  avg # of iterations =  4.0

     negative rho (up, down):  1.969E-06 1.969E-06

     total cpu time spent up to now is      103.1 secs

     total energy              =    -882.74729062 Ry
     estimated scf accuracy    <       0.00000231 Ry

     total magnetization       =    -0.00 Bohr mag/cell
     absolute magnetization    =     0.00 Bohr mag/cell

     iteration # 10     ecut=    50.00 Ry     beta= 0.30
     Davidson diagonalization with overlap
     ethr =  1.19E-09,  avg # of iterations =  2.0

     negative rho (up, down):  1.959E-06 1.959E-06

     Magnetic moment per site  (integrated on atomic sphere of radius R)
     atom   1 (R=0.041)  charge=  0.8222  magn= -0.0000
     atom   2 (R=0.041)  charge=  0.8747  magn= -0.0000
     atom   3 (R=0.041)  charge=  0.8702  magn=  0.0000
     atom   4 (R=0.041)  charge=  0.8271  magn=  0.0000
     atom   5 (R=0.041)  charge=  0.8804  magn=  0.0000
     atom   6 (R=0.041)  charge=  0.8931  magn= -0.0000
     atom   7 (R=0.041)  charge=  0.8221  magn=  0.0000
     atom   8 (R=0.041)  charge=  0.8750  magn=  0.0000
     atom   9 (R=0.041)  charge=  0.8709  magn= -0.0000
     atom  10 (R=0.041)  charge=  0.8213  magn=  0.0000
     atom  11 (R=0.041)  charge=  0.8736  magn=  0.0000
     atom  12 (R=0.041)  charge=  0.8707  magn= -0.0000
     atom  13 (R=0.041)  charge=  0.8073  magn= -0.0000
     atom  14 (R=0.041)  charge=  0.8721  magn= -0.0000
     atom  15 (R=0.041)  charge=  0.8498  magn=  0.0000
     atom  16 (R=0.041)  charge=  0.8077  magn= -0.0000
     atom  17 (R=0.041)  charge=  0.8715  magn= -0.0000
     atom  18 (R=0.041)  charge=  0.8485  magn=  0.0000
     atom  19 (R=0.041)  charge=  0.8072  magn= -0.0000
     atom  20 (R=0.041)  charge=  0.8722  magn=  0.0000
     atom  21 (R=0.041)  charge=  0.8505  magn= -0.0000
     atom  22 (R=0.041)  charge=  0.8067  magn= -0.0000
     atom  23 (R=0.041)  charge=  0.8691  magn= -0.0000
     atom  24 (R=0.041)  charge=  0.8518  magn=  0.0000
     atom  25 (R=0.041)  charge=  0.8217  magn=  0.0000
     atom  26 (R=0.041)  charge=  0.8751  magn=  0.0000
     atom  27 (R=0.041)  charge=  0.8710  magn= -0.0000
     atom  28 (R=0.041)  charge=  0.8215  magn=  0.0000
     atom  29 (R=0.041)  charge=  0.8760  magn=  0.0000
     atom  30 (R=0.041)  charge=  0.8689  magn= -0.0000
     atom  31 (R=0.041)  charge=  0.8206  magn=  0.0000
     atom  32 (R=0.041)  charge=  0.8766  magn= -0.0000
     atom  33 (R=0.041)  charge=  0.8713  magn=  0.0000
     atom  34 (R=0.041)  charge=  0.8218  magn=  0.0000
     atom  35 (R=0.041)  charge=  0.8766  magn=  0.0000
     atom  36 (R=0.041)  charge=  0.8738  magn= -0.0000
     atom  37 (R=0.041)  charge=  0.8132  magn= -0.0000
     atom  38 (R=0.041)  charge=  0.8582  magn= -0.0000
     atom  39 (R=0.041)  charge=  0.8364  magn=  0.0000
     atom  40 (R=0.041)  charge=  0.8062  magn=  0.0000
     atom  41 (R=0.041)  charge=  0.8713  magn=  0.0000
     atom  42 (R=0.041)  charge=  0.8496  magn= -0.0000
     atom  43 (R=0.041)  charge=  0.8074  magn= -0.0000
     atom  44 (R=0.041)  charge=  0.8718  magn= -0.0000
     atom  45 (R=0.041)  charge=  0.8509  magn=  0.0000
     atom  46 (R=0.041)  charge=  0.8052  magn= -0.0000
     atom  47 (R=0.041)  charge=  0.8715  magn= -0.0000
     atom  48 (R=0.041)  charge=  0.8517  magn=  0.0000
     atom  49 (R=0.041)  charge=  0.4576  magn=  0.0000

     total cpu time spent up to now is      105.0 secs

     End of self-consistent calculation

 ------ SPIN UP ------------


          k = 0.0000 0.0000 0.0000 ( 26858 PWs)   bands (ev):

   -21.7784 -21.7359 -17.9275 -17.5387 -17.5143 -17.4014 -17.3104 -17.2957
   -17.2780 -16.9027 -16.8843 -16.8756 -16.8362 -16.3345 -16.1802 -16.1587
   -16.0395 -15.7990 -15.7932 -15.6838 -15.5251 -14.8379 -14.7204 -14.7080
   -14.2554 -13.9637 -13.9613 -13.5768 -13.0902 -12.8720 -12.7189 -12.7000
   -12.2622 -12.1318 -12.1058 -12.0959 -11.2785 -11.1996 -11.0876 -11.0863
   -10.7484 -10.2836  -9.9054  -9.7941  -9.7669  -9.5760  -9.5480  -9.5346
    -9.5234  -9.4443  -9.3696  -9.3435  -8.2923  -6.9645  -6.8988  -6.7498
    -6.5778  -6.5244  -6.4937  -6.3501  -6.3015  -6.1702  -5.9235  -5.8828
    -5.8467  -5.8014  -5.6922  -5.6401  -5.6237  -5.5822  -5.5453  -5.5421
    -5.4933  -5.4673  -5.0364  -5.0006  -4.9468  -4.6673  -4.5664  -4.5433
    -4.0729  -3.8764  -3.7718  -3.5759  -3.5056  -3.4242  -3.3166  -3.2773
    -3.1982  -3.1598  -3.0476  -3.0439  -3.0063  -2.2972  -2.2030  -2.1841
    -1.0375  -0.2620  -0.1676   0.1988   0.5777   0.7305   0.9360   1.0889
     1.2093   1.2786   1.2797   1.3942   1.4300   1.9090   2.2576   2.3040
     2.3198   2.3338   2.4213   2.4471

 ------ SPIN DOWN ----------


          k = 0.0000 0.0000 0.0000 ( 26858 PWs)   bands (ev):

   -21.7784 -21.7359 -17.9275 -17.5387 -17.5143 -17.4014 -17.3104 -17.2957
   -17.2780 -16.9027 -16.8843 -16.8756 -16.8362 -16.3345 -16.1802 -16.1587
   -16.0395 -15.7990 -15.7932 -15.6838 -15.5251 -14.8379 -14.7204 -14.7080
   -14.2554 -13.9637 -13.9613 -13.5768 -13.0902 -12.8720 -12.7189 -12.7000
   -12.2622 -12.1318 -12.1058 -12.0959 -11.2785 -11.1996 -11.0876 -11.0863
   -10.7484 -10.2836  -9.9054  -9.7941  -9.7669  -9.5760  -9.5480  -9.5346
    -9.5234  -9.4443  -9.3696  -9.3435  -8.2923  -6.9645  -6.8988  -6.7498
    -6.5778  -6.5244  -6.4937  -6.3501  -6.3015  -6.1702  -5.9235  -5.8828
    -5.8467  -5.8014  -5.6922  -5.6401  -5.6237  -5.5822  -5.5453  -5.5421
    -5.4933  -5.4673  -5.0364  -5.0006  -4.9468  -4.6673  -4.5664  -4.5433
    -4.0729  -3.8764  -3.7718  -3.5759  -3.5056  -3.4242  -3.3166  -3.2773
    -3.1982  -3.1598  -3.0476  -3.0439  -3.0063  -2.2972  -2.2030  -2.1841
    -1.0375  -0.2620  -0.1676   0.1988   0.5777   0.7305   0.9360   1.0889
     1.2093   1.2786   1.2797   1.3942   1.4300   1.9090   2.2576   2.3040
     2.3198   2.3338   2.4213   2.4471

     the spin up/dw Fermi energies are    -1.0375   -1.0375 ev

!    total energy              =    -882.74729100 Ry
     estimated scf accuracy    <       0.00000013 Ry
     smearing contrib. (-TS)   =      -0.00005642 Ry
     internal energy E=F+TS    =    -882.74723458 Ry

     The total energy is F=E-TS. E is the sum of the following terms:
     one-electron contribution =   -1213.07830726 Ry
     hartree contribution      =     650.90682594 Ry
     xc contribution           =    -219.19685405 Ry
     ewald contribution        =     194.67791437 Ry
     one-center paw contrib.   =    -296.05681359 Ry

     total magnetization       =     0.00 Bohr mag/cell
     absolute magnetization    =     0.00 Bohr mag/cell

     convergence has been achieved in  10 iterations

     negative rho (up, down):  1.959E-06 1.959E-06

     Forces acting on atoms (cartesian axes, Ry/au):

     atom    1 type  1   force =     0.01090305   -0.01043291    0.00951506
     atom    2 type  1   force =     0.01237157   -0.01249742    0.01247529
     atom    3 type  1   force =    -0.01503358    0.01475434   -0.01468150
     atom    4 type  1   force =     0.00743614   -0.00803728   -0.00684949
     atom    5 type  1   force =    -0.12029316    0.12559123    0.03823229
     atom    6 type  1   force =     0.07157774   -0.07161635   -0.06270072
     atom    7 type  1   force =     0.01067647    0.01088429   -0.01020096
     atom    8 type  1   force =     0.01667389    0.01664314   -0.01668401
     atom    9 type  1   force =    -0.01878164   -0.01896861    0.01784111
     atom   10 type  1   force =    -0.01099856   -0.01059096   -0.01027360
     atom   11 type  1   force =    -0.01686834   -0.01706713   -0.01686591
     atom   12 type  1   force =     0.02064091    0.02035637    0.01964838
     atom   13 type  1   force =     0.03642641   -0.03554209   -0.03512724
     atom   14 type  1   force =    -0.00674730    0.00643228    0.00647534
     atom   15 type  1   force =    -0.04702406    0.04700041    0.04641762
     atom   16 type  1   force =    -0.03557384    0.03602336   -0.03387739
     atom   17 type  1   force =     0.00581820   -0.00621131    0.00541078
     atom   18 type  1   force =     0.04688479   -0.04682768    0.04300551
     atom   19 type  1   force =    -0.03462190   -0.03444460    0.03558289
     atom   20 type  1   force =     0.00068591    0.00062581   -0.00119173
     atom   21 type  1   force =     0.05020908    0.05053888   -0.04967739
     atom   22 type  1   force =     0.03400964    0.03318835    0.03386644
     atom   23 type  1   force =    -0.00129617   -0.00131246   -0.00154617
     atom   24 type  1   force =    -0.05056710   -0.04988824   -0.04921310
     atom   25 type  1   force =     0.00459791   -0.00399059    0.02027630
     atom   26 type  1   force =     0.01793625   -0.01787421    0.01618751
     atom   27 type  1   force =    -0.01988159    0.02023493   -0.00899891
     atom   28 type  1   force =    -0.01066979    0.01038083    0.00948300
     atom   29 type  1   force =    -0.01354405    0.01357829    0.01349565
     atom   30 type  1   force =     0.01742351   -0.01728545   -0.01699185
     atom   31 type  1   force =     0.00693295    0.00217102   -0.00507467
     atom   32 type  1   force =     0.02307850    0.02228828   -0.02217415
     atom   33 type  1   force =    -0.02125630   -0.01898694    0.02208069
     atom   34 type  1   force =    -0.00217705   -0.00680709   -0.00544511
     atom   35 type  1   force =    -0.02401778   -0.02459804   -0.02388427
     atom   36 type  1   force =     0.01933780    0.02056397    0.02125810
     atom   37 type  1   force =     0.01554869   -0.01602775   -0.04055091
     atom   38 type  1   force =     0.01679078   -0.02304436    0.07868891
     atom   39 type  1   force =    -0.02629990    0.02895893   -0.04691166
     atom   40 type  1   force =    -0.03678696    0.03599147   -0.03741236
     atom   41 type  1   force =     0.00865678   -0.00823927    0.00835901
     atom   42 type  1   force =     0.04770097   -0.04734147    0.04619110
     atom   43 type  1   force =    -0.03591344   -0.03796928    0.03779527
     atom   44 type  1   force =     0.00490491    0.00471650   -0.00425950
     atom   45 type  1   force =     0.04833912    0.04890735   -0.04777755
     atom   46 type  1   force =     0.03885484    0.03674764    0.03982005
     atom   47 type  1   force =    -0.00394883   -0.00391900   -0.00392762
     atom   48 type  1   force =    -0.04859492   -0.04780681   -0.04728249
     atom   49 type  2   force =     0.00647944   -0.00925036    0.03747398

     Total force =     0.390748     Total SCF correction =     0.000428
[...]

     total cpu time spent up to now is     1079.5 secs

     total energy              =    -882.95537503 Ry
     estimated scf accuracy    <       0.00128116 Ry

     total magnetization       =     0.00 Bohr mag/cell
     absolute magnetization    =     0.01 Bohr mag/cell

     iteration #  7     ecut=    50.00 Ry     beta= 0.30
     Davidson diagonalization with overlap
     ethr =  6.64E-07,  avg # of iterations =  4.0

     negative rho (up, down):  1.596E-06 1.595E-06

     total cpu time spent up to now is     1081.8 secs

     total energy              =    -882.95572285 Ry
     estimated scf accuracy    <       0.00027379 Ry

     total magnetization       =     0.00 Bohr mag/cell
     absolute magnetization    =     0.01 Bohr mag/cell

     iteration #  8     ecut=    50.00 Ry     beta= 0.30
     Davidson diagonalization with overlap
     ethr =  1.42E-07,  avg # of iterations =  3.0

     negative rho (up, down):  1.573E-06 1.573E-06

     total cpu time spent up to now is     1083.8 secs

     total energy              =    -882.95582370 Ry
     estimated scf accuracy    <       0.00005395 Ry

     total magnetization       =    -0.00 Bohr mag/cell
     absolute magnetization    =     0.01 Bohr mag/cell

     iteration #  9     ecut=    50.00 Ry     beta= 0.30
     Davidson diagonalization with overlap
     ethr =  2.80E-08,  avg # of iterations =  2.0

     negative rho (up, down):  1.544E-06 1.544E-06

     total cpu time spent up to now is     1085.9 secs

     total energy              =    -882.95584346 Ry
     estimated scf accuracy    <       0.00001381 Ry

     total magnetization       =     0.00 Bohr mag/cell
     absolute magnetization    =     0.00 Bohr mag/cell

     iteration # 10     ecut=    50.00 Ry     beta= 0.30
     Davidson diagonalization with overlap
     ethr =  7.16E-09,  avg # of iterations =  2.0

     negative rho (up, down):  1.519E-06 1.518E-06

     total cpu time spent up to now is     1088.0 secs

     total energy              =    -882.95584856 Ry
     estimated scf accuracy    <       0.00000142 Ry

     total magnetization       =    -0.00 Bohr mag/cell
     absolute magnetization    =     0.00 Bohr mag/cell

     iteration # 11     ecut=    50.00 Ry     beta= 0.30
     Davidson diagonalization with overlap
     ethr =  7.34E-10,  avg # of iterations =  4.0

     negative rho (up, down):  1.507E-06 1.506E-06

     total cpu time spent up to now is     1090.1 secs

     total energy              =    -882.95585227 Ry
     estimated scf accuracy    <       0.00000070 Ry

     total magnetization       =     0.00 Bohr mag/cell
     absolute magnetization    =     0.00 Bohr mag/cell

     iteration # 12     ecut=    50.00 Ry     beta= 0.30
     Davidson diagonalization with overlap
     ethr =  3.65E-10,  avg # of iterations =  2.0

     negative rho (up, down):  1.501E-06 1.501E-06

     total cpu time spent up to now is     1092.1 secs

     total energy              =    -882.95585585 Ry
     estimated scf accuracy    <       0.00000022 Ry

     total magnetization       =     0.00 Bohr mag/cell
     absolute magnetization    =     0.00 Bohr mag/cell

     iteration # 13     ecut=    50.00 Ry     beta= 0.30
     Davidson diagonalization with overlap
     ethr =  1.16E-10,  avg # of iterations =  2.0

     negative rho (up, down):  1.499E-06 1.499E-06

     total cpu time spent up to now is     1093.9 secs

     total energy              =    -882.95585748 Ry
     estimated scf accuracy    <       0.00000003 Ry

     total magnetization       =    -0.00 Bohr mag/cell
     absolute magnetization    =     0.00 Bohr mag/cell

     iteration # 14     ecut=    50.00 Ry     beta= 0.30
     Davidson diagonalization with overlap
     ethr =  1.72E-11,  avg # of iterations =  4.0

     negative rho (up, down):  1.494E-06 1.494E-06

     Magnetic moment per site  (integrated on atomic sphere of radius R)
     atom   1 (R=0.040)  charge=  0.7777  magn=  0.0000
     atom   2 (R=0.040)  charge=  0.8273  magn=  0.0000
     atom   3 (R=0.040)  charge=  0.8236  magn= -0.0000
     atom   4 (R=0.040)  charge=  0.7780  magn= -0.0000
     atom   5 (R=0.040)  charge=  0.8204  magn= -0.0000
     atom   6 (R=0.040)  charge=  0.8246  magn=  0.0000
     atom   7 (R=0.040)  charge=  0.7777  magn=  0.0000
     atom   8 (R=0.040)  charge=  0.8262  magn= -0.0000
     atom   9 (R=0.040)  charge=  0.8227  magn=  0.0000
     atom  10 (R=0.040)  charge=  0.7777  magn=  0.0000
     atom  11 (R=0.040)  charge=  0.8256  magn= -0.0000
     atom  12 (R=0.040)  charge=  0.8226  magn=  0.0000
     atom  13 (R=0.040)  charge=  0.7769  magn= -0.0000
     atom  14 (R=0.040)  charge=  0.8260  magn=  0.0000
     atom  15 (R=0.040)  charge=  0.8227  magn= -0.0000
     atom  16 (R=0.040)  charge=  0.7805  magn= -0.0000
     atom  17 (R=0.040)  charge=  0.8301  magn= -0.0000
     atom  18 (R=0.040)  charge=  0.8244  magn=  0.0000
     atom  19 (R=0.040)  charge=  0.7779  magn= -0.0000
     atom  20 (R=0.040)  charge=  0.8275  magn=  0.0000
     atom  21 (R=0.040)  charge=  0.8233  magn= -0.0000
     atom  22 (R=0.040)  charge=  0.7777  magn= -0.0000
     atom  23 (R=0.040)  charge=  0.8280  magn= -0.0000
     atom  24 (R=0.040)  charge=  0.8230  magn=  0.0000
     atom  25 (R=0.040)  charge=  0.8033  magn=  0.0000
     atom  26 (R=0.040)  charge=  0.8281  magn=  0.0000
     atom  27 (R=0.040)  charge=  0.8259  magn= -0.0000
     atom  28 (R=0.040)  charge=  0.7776  magn= -0.0000
     atom  29 (R=0.040)  charge=  0.8281  magn= -0.0000
     atom  30 (R=0.040)  charge=  0.8208  magn=  0.0000
     atom  31 (R=0.040)  charge=  0.7725  magn=  0.0000
     atom  32 (R=0.040)  charge=  0.8287  magn=  0.0000
     atom  33 (R=0.040)  charge=  0.8228  magn= -0.0000
     atom  34 (R=0.040)  charge=  0.7729  magn=  0.0000
     atom  35 (R=0.040)  charge=  0.8288  magn=  0.0000
     atom  36 (R=0.040)  charge=  0.8224  magn= -0.0000
     atom  37 (R=0.040)  charge=  0.8056  magn= -0.0000
     atom  38 (R=0.040)  charge=  0.8100  magn=  0.0000
     atom  39 (R=0.040)  charge=  0.8141  magn= -0.0000
     atom  40 (R=0.040)  charge=  0.7783  magn=  0.0000
     atom  41 (R=0.040)  charge=  0.8271  magn= -0.0000
     atom  42 (R=0.040)  charge=  0.8225  magn=  0.0000
     atom  43 (R=0.040)  charge=  0.7740  magn=  0.0000
     atom  44 (R=0.040)  charge=  0.8268  magn=  0.0000
     atom  45 (R=0.040)  charge=  0.8206  magn= -0.0000
     atom  46 (R=0.040)  charge=  0.7746  magn=  0.0000
     atom  47 (R=0.040)  charge=  0.8277  magn=  0.0000
     atom  48 (R=0.040)  charge=  0.8207  magn= -0.0000
     atom  49 (R=0.040)  charge=  0.4593  magn= -0.0000

     total cpu time spent up to now is     1096.1 secs

     End of self-consistent calculation

 ------ SPIN UP ------------


          k = 0.0000 0.0000 0.0000 ( 26858 PWs)   bands (ev):

   -21.5638 -20.8297 -18.2992 -17.5796 -17.5225 -17.4788 -17.2247 -17.0800
   -17.0692 -16.9917 -16.9372 -16.8532 -16.8180 -16.3669 -16.0501 -16.0150
   -15.9573 -15.9065 -15.8570 -15.6099 -15.5725 -14.8383 -14.5298 -14.4389
   -14.3848 -14.2685 -14.0793 -13.5255 -13.2720 -12.9610 -12.9555 -12.7074
   -12.3496 -12.0943 -11.9379 -11.9291 -11.5216 -11.1523 -11.1339 -10.8595
   -10.6969 -10.3977 -10.3114 -10.0598  -9.7114  -9.6476  -9.5295  -9.5008
    -9.4998  -9.2408  -8.7183  -8.3112  -8.2775  -7.4895  -6.9844  -6.8596
    -6.8410  -6.6406  -6.5672  -6.5156  -6.4101  -6.2092  -6.1031  -6.0701
    -5.8001  -5.7300  -5.6735  -5.6143  -5.6115  -5.5703  -5.5393  -5.5138
    -5.3618  -5.3303  -5.1138  -5.0718  -4.7567  -4.5556  -4.5215  -4.3843
    -3.8535  -3.7981  -3.7386  -3.5864  -3.4944  -3.4872  -3.4835  -3.3177
    -3.3065  -3.0839  -3.0631  -2.9756  -2.9685  -2.5370  -2.1481  -2.1214
    -1.5214  -0.2204  -0.1080   0.1035   0.4520   0.5311   0.7584   0.8187
     1.1143   1.1246   1.1627   1.2371   1.4797   1.5321   1.9146   2.2473
     2.2679   2.3193   2.4911   2.6630

 ------ SPIN DOWN ----------


          k = 0.0000 0.0000 0.0000 ( 26858 PWs)   bands (ev):

   -21.5638 -20.8297 -18.2992 -17.5796 -17.5225 -17.4788 -17.2247 -17.0801
   -17.0692 -16.9917 -16.9371 -16.8532 -16.8180 -16.3669 -16.0501 -16.0149
   -15.9573 -15.9065 -15.8570 -15.6099 -15.5725 -14.8383 -14.5298 -14.4389
   -14.3848 -14.2685 -14.0793 -13.5255 -13.2720 -12.9610 -12.9555 -12.7074
   -12.3496 -12.0943 -11.9379 -11.9291 -11.5216 -11.1523 -11.1339 -10.8595
   -10.6969 -10.3977 -10.3114 -10.0598  -9.7113  -9.6476  -9.5295  -9.5008
    -9.4998  -9.2409  -8.7183  -8.3112  -8.2775  -7.4895  -6.9844  -6.8596
    -6.8410  -6.6406  -6.5672  -6.5156  -6.4101  -6.2092  -6.1031  -6.0702
    -5.8001  -5.7300  -5.6735  -5.6143  -5.6115  -5.5703  -5.5393  -5.5138
    -5.3618  -5.3303  -5.1138  -5.0717  -4.7567  -4.5555  -4.5215  -4.3843
    -3.8535  -3.7981  -3.7386  -3.5864  -3.4944  -3.4872  -3.4835  -3.3178
    -3.3065  -3.0840  -3.0631  -2.9756  -2.9685  -2.5370  -2.1481  -2.1214
    -1.5214  -0.2204  -0.1080   0.1035   0.4520   0.5311   0.7583   0.8187
     1.1143   1.1246   1.1627   1.2370   1.4797   1.5321   1.9146   2.2473
     2.2679   2.3192   2.4911   2.6630

     the spin up/dw Fermi energies are    -1.5214   -1.5214 ev

!    total energy              =    -882.95585804 Ry
     estimated scf accuracy    <          6.7E-09 Ry
     smearing contrib. (-TS)   =      -0.00005642 Ry
     internal energy E=F+TS    =    -882.95580162 Ry

     The total energy is F=E-TS. E is the sum of the following terms:
     one-electron contribution =   -1193.04463363 Ry
     hartree contribution      =     640.76784360 Ry
     xc contribution           =    -218.90911905 Ry
     ewald contribution        =     184.28208311 Ry
     one-center paw contrib.   =    -296.05197566 Ry

     total magnetization       =     0.00 Bohr mag/cell
     absolute magnetization    =     0.00 Bohr mag/cell

     convergence has been achieved in  14 iterations

     negative rho (up, down):  1.494E-06 1.494E-06

     Forces acting on atoms (cartesian axes, Ry/au):

     atom    1 type  1   force =     0.00001338   -0.00004936   -0.00076333
     atom    2 type  1   force =    -0.00047159    0.00037664   -0.00060315
     atom    3 type  1   force =     0.00084684   -0.00099528   -0.00014619
     atom    4 type  1   force =     0.00020991   -0.00021614    0.00002000
     atom    5 type  1   force =     0.00049934   -0.00041673    0.00004349
     atom    6 type  1   force =    -0.00015195    0.00022678    0.00010065
     atom    7 type  1   force =    -0.00035291    0.00033744   -0.00006593
     atom    8 type  1   force =     0.00001857    0.00078484    0.00029489
     atom    9 type  1   force =     0.00028564    0.00013243    0.00007385
     atom   10 type  1   force =    -0.00036471    0.00037084   -0.00005534
     atom   11 type  1   force =    -0.00089790   -0.00020081    0.00016584
     atom   12 type  1   force =    -0.00003283   -0.00008153    0.00028536
     atom   13 type  1   force =    -0.00042513    0.00041540   -0.00076945
     atom   14 type  1   force =     0.00012343   -0.00020617   -0.00038550
     atom   15 type  1   force =    -0.00055022    0.00049716    0.00000586
     atom   16 type  1   force =    -0.00047366    0.00047091   -0.00004920
     atom   17 type  1   force =    -0.00032674    0.00037358    0.00019999
     atom   18 type  1   force =    -0.00013368    0.00015854   -0.00022262
     atom   19 type  1   force =    -0.00000781   -0.00038566   -0.00010144
     atom   20 type  1   force =     0.00031853   -0.00034461    0.00028628
     atom   21 type  1   force =     0.00050049   -0.00015501   -0.00026301
     atom   22 type  1   force =     0.00032492   -0.00010728   -0.00015840
     atom   23 type  1   force =     0.00010538   -0.00061150   -0.00000123
     atom   24 type  1   force =     0.00058954   -0.00009075    0.00029704
     atom   25 type  1   force =    -0.00053950    0.00056687    0.00041038
     atom   26 type  1   force =    -0.00023904    0.00025671   -0.00007097
     atom   27 type  1   force =    -0.00009737    0.00013491    0.00006383
     atom   28 type  1   force =    -0.00013384    0.00018191   -0.00025949
     atom   29 type  1   force =    -0.00025634    0.00023771    0.00052622
     atom   30 type  1   force =     0.00003631    0.00004760   -0.00054115
     atom   31 type  1   force =     0.00003472   -0.00022455   -0.00002554
     atom   32 type  1   force =    -0.00037998   -0.00080960    0.00011480
     atom   33 type  1   force =     0.00030564    0.00024862   -0.00049782
     atom   34 type  1   force =     0.00005473   -0.00024733    0.00011060
     atom   35 type  1   force =    -0.00020664   -0.00068197   -0.00097416
     atom   36 type  1   force =     0.00095341    0.00072313    0.00059640
     atom   37 type  1   force =     0.00026875   -0.00024484    0.00069558
     atom   38 type  1   force =    -0.00005712    0.00000514    0.00047879
     atom   39 type  1   force =     0.00013909   -0.00005670   -0.00028813
     atom   40 type  1   force =     0.00028001   -0.00028457   -0.00011008
     atom   41 type  1   force =     0.00046186   -0.00050638    0.00030944
     atom   42 type  1   force =     0.00001653   -0.00002842   -0.00050104
     atom   43 type  1   force =    -0.00019807    0.00025305    0.00024727
     atom   44 type  1   force =     0.00016069   -0.00039658    0.00042524
     atom   45 type  1   force =     0.00015624    0.00037848   -0.00009489
     atom   46 type  1   force =    -0.00036693    0.00006715    0.00053616
     atom   47 type  1   force =     0.00018704   -0.00036727    0.00017463
     atom   48 type  1   force =    -0.00003949    0.00010766    0.00010055
     atom   49 type  2   force =    -0.00018754    0.00035555    0.00038494

     Total force =     0.004493     Total SCF correction =     0.000089
     Energy error            =      3.3E-05 Ry
     Gradient error          =      1.0E-03 Ry/Bohr

     bfgs converged in  48 scf cycles and  43 bfgs steps
     (criteria: energy <  1.0E-04 Ry, force <  1.0E-03 Ry/Bohr)

     End of BFGS Geometry Optimization

     Final energy             =    -882.9558580435 Ry

     File ./pwscf.bfgs deleted, as requested
Begin final coordinates

ATOMIC_POSITIONS (angstrom)
C             6.1992627381        4.5733531423        6.1885776190
C             7.7411111125        3.0368433056        7.7324899338
C             7.0250663185        3.7515848140        7.0269683527
C             4.5857749937        6.1833711811        6.1718016988
C             3.0480933455        7.7185299799        7.7197836281
C             3.7517979658        7.0160642612        6.9944031377
C             6.2174317280        6.1767578708        4.5482706005
C             7.7178679996        7.7060566811        2.9532000697
C             7.0318865615        6.9954068410        3.6942268016
C             4.5943300339        4.5497172951        4.5491417685
C             3.0644595439        3.0502138268        2.9532635106
C             3.7759854738        3.7345838254        3.6949576429
C             6.2135555574        4.5571705254        4.5634605780
C             7.7562498841        3.0175952171        3.0172274792
C             7.0476354286        3.7246495692        3.7388021556
C             4.6007612068        6.1676001583        4.5346801900
C             3.0156177529        7.7566394829        3.1175745553
C             3.7736623416        6.9950031040        3.7412848150
C             4.5818105115        4.5688081689        6.1785907793
C             3.0388122927        3.0778563923        7.7654080687
C             3.7537284779        3.7625202011        7.0287179756
C             6.1997643840        6.1912520695        6.1768587505
C             7.6899620180        7.7361435219        7.7619993508
C             7.0053542147        7.0216495703        7.0244448151
C             0.5619268256       10.2113941699        1.2099882845
C             2.1911671215        8.5836500761        2.4548794976
C             1.4156341248        9.3600376414        1.8478949099
C            10.0710276081        0.6981524298        0.6398574965
C             8.5436202566        2.2297041087        2.2139081570
C             9.2499502440        1.5222123394        1.4915386560
C             0.6971793129        0.6317263636        9.9634943043
C             2.2485256206        2.2947788600        8.5649562443
C             1.5323705293        1.5646052266        9.2556417950
C            10.1396004857       10.0787206638        9.9483609746
C             8.4740513766        8.5254525755        8.5603841231
C             9.2066584325        9.2433702722        9.2465111146
C             0.6073466848       10.1650178776        9.5139233987
C             2.4033177001        8.3586316333        8.8294861750
C             1.4764168213        9.2951507700        9.0281617716
C            10.0783841600        0.6907509471       10.0515227450
C             8.5362857102        2.2397754556        8.5139247296
C             9.2526547658        1.5206584059        9.2145276571
C            10.1400142914       10.0783557394        0.7471347990
C             8.4973429893        8.5014471319        2.1505355215
C             9.2154478711        9.2221937557        1.4520539484
C             0.6979250494        0.6329994264        0.7305044812
C             2.2698291195        2.2722858391        2.1477387512
C             1.5519767160        1.5570548976        1.4432672005
H             2.7913642979        7.9545023884        9.7806689866
End final coordinates



     Writing all to output data dir ./pwscf.save/

     init_run     :      2.46s CPU      2.56s WALL (       1 calls)
     electrons    :    884.76s CPU    925.65s WALL (      49 calls)
     update_pot   :     62.62s CPU     63.49s WALL (      47 calls)
     forces       :     65.41s CPU     68.61s WALL (      49 calls)

     Called by init_run:
     wfcinit      :      0.67s CPU      0.70s WALL (       1 calls)
     potinit      :      1.97s CPU      2.02s WALL (       2 calls)
     hinit0       :      0.53s CPU      0.54s WALL (       1 calls)

     Called by electrons:
     c_bands      :    495.45s CPU    510.56s WALL (     432 calls)
     sum_band     :    107.78s CPU    111.70s WALL (     432 calls)
     v_of_rho     :    106.84s CPU    110.37s WALL (     468 calls)
     newd         :     40.72s CPU     41.77s WALL (     468 calls)
     PAW_pot      :    157.67s CPU    158.60s WALL (     515 calls)
     mix_rho      :     10.80s CPU     11.56s WALL (     432 calls)

     Called by c_bands:
     init_us_2    :      7.58s CPU      7.75s WALL (    1922 calls)
     init_us_2:cp :      7.56s CPU      7.75s WALL (    1922 calls)
     regterg      :    483.09s CPU    497.84s WALL (     864 calls)

     Called by *egterg:
     rdiaghg      :     29.60s CPU     29.80s WALL (    3032 calls)
     h_psi        :    276.38s CPU    289.30s WALL (    3156 calls)
     s_psi        :     47.73s CPU     48.04s WALL (    3156 calls)
     g_psi        :      0.97s CPU      0.98s WALL (    2290 calls)

     Called by h_psi:
     h_psi:calbec :     46.16s CPU     46.92s WALL (    3156 calls)
     vloc_psi     :    179.44s CPU    191.24s WALL (    3156 calls)
     add_vuspsi   :     48.27s CPU     48.61s WALL (    3156 calls)

     General routines
     calbec       :     73.72s CPU     74.94s WALL (    4506 calls)
     fft          :     47.42s CPU     52.87s WALL (   10291 calls)
     ffts         :      2.24s CPU      2.57s WALL (    1800 calls)
     fftw         :    186.38s CPU    198.62s WALL (  298934 calls)
     interpolate  :      6.17s CPU      6.86s WALL (     936 calls)

     Parallel routines

     PWSCF        :  17m27.54s CPU  18m19.46s WALL


   This run was terminated on:   2:27:51  25May2025            

=------------------------------------------------------------------------------=
   JOB DONE.
=------------------------------------------------------------------------------=
