ITEM: TIMESTEP
0
ITEM: NUMBER OF ATOMS
201
ITEM: BOX BOUNDS pp pp pp
0.0000000000000000e+00 1.6114000000000001e+01
0.0000000000000000e+00 1.6113000000000000e+01
0.0000000000000000e+00 1.6111999999999998e+01
ITEM: ATOMS id type x y z 
5 1 5.384 5.384 5.384 
65 1 5.66 6.662 2.461 
66 1 5.336 7.323 3.711 
68 1 4.865 6.606 4.866 
79 1 5.364 7.322 1.219 
89 1 6.662 2.461 5.66 
90 1 7.323 3.711 5.336 
92 1 6.606 4.866 4.866 
101 1 7.322 1.219 5.364 
109 1 2.461 5.66 6.662 
110 1 3.71 5.336 7.323 
112 1 4.865 4.866 6.606 
121 1 1.218 5.364 7.322 
129 1 6.662 5.66 2.461 
130 1 7.323 5.336 3.711 
137 1 7.322 5.364 1.219 
141 1 2.461 6.662 5.66 
142 1 3.71 7.323 5.336 
149 1 1.218 7.322 5.364 
153 1 5.66 2.461 6.662 
154 1 5.336 3.711 7.323 
161 1 5.364 1.219 7.322 
7 1 6.662 5.66 13.616 
8 1 7.323 5.336 12.366 
10 1 6.606 4.866 11.211 
21 1 7.322 5.364 14.858 
32 1 1.218 7.322 10.713 
40 1 2.461 6.662 10.417 
41 1 3.71 7.323 10.741 
43 1 4.865 6.606 11.211 
47 1 5.364 1.219 8.755 
55 1 5.66 2.461 9.415 
56 1 5.336 3.711 8.754 
58 1 4.865 4.866 9.471 
64 1 5.629 6.643 16.094 
75 1 5.384 5.384 10.693 
118 1 6.643 5.629 16.094 
168 1 5.66 6.662 13.616 
169 1 5.336 7.323 12.366 
176 1 5.364 7.322 14.858 
182 1 7.322 1.219 10.713 
186 1 6.662 2.461 10.417 
187 1 7.323 3.711 10.741 
191 1 1.218 5.364 8.755 
195 1 2.461 5.66 9.415 
196 1 3.71 5.336 8.754 
9 1 7.322 10.713 1.219 
19 1 6.662 10.417 2.461 
20 1 7.323 10.741 3.711 
22 1 6.606 11.211 4.866 
27 1 1.218 8.755 5.364 
35 1 2.461 9.415 5.66 
36 1 3.71 8.754 5.336 
38 1 4.865 9.471 4.866 
44 1 6.643 16.095 5.63 
50 1 5.66 13.616 6.662 
51 1 5.336 12.366 7.323 
53 1 4.865 11.211 6.606 
62 1 5.364 14.858 7.322 
76 1 5.629 16.095 6.643 
81 1 5.384 10.693 5.384 
167 1 5.364 8.755 1.219 
171 1 5.66 9.415 2.461 
172 1 5.336 8.754 3.711 
180 1 6.662 13.616 5.66 
181 1 7.323 12.366 5.336 
188 1 7.322 14.858 5.364 
194 1 1.218 10.713 7.322 
198 1 2.461 10.417 6.662 
199 1 3.71 10.741 7.323 
17 1 5.384 10.693 10.693 
39 1 6.643 16.095 10.448 
49 1 5.629 9.434 16.095 
73 1 5.364 8.755 14.858 
82 1 5.629 16.095 9.434 
83 1 5.66 9.415 13.616 
84 1 5.336 8.754 12.366 
86 1 4.865 9.471 11.211 
91 1 7.322 14.858 10.713 
99 1 6.662 13.616 10.417 
100 1 7.323 12.366 10.741 
102 1 6.606 11.211 11.211 
113 1 6.643 10.448 16.094 
114 1 2.461 10.417 9.415 
115 1 3.71 10.741 8.754 
117 1 4.865 11.211 9.471 
126 1 1.218 10.713 8.755 
131 1 7.322 10.713 14.858 
135 1 6.662 10.417 13.616 
136 1 7.323 10.741 12.366 
144 1 2.461 9.415 10.417 
145 1 3.71 8.754 10.741 
152 1 1.218 8.755 10.713 
158 1 5.364 14.858 8.755 
162 1 5.66 13.616 9.415 
163 1 5.336 12.366 8.754 
3 1 8.755 5.364 1.219 
13 1 9.415 5.66 2.461 
14 1 8.754 5.336 3.711 
16 1 9.471 4.866 4.866 
24 1 16.095 5.629 6.643 
30 1 13.616 6.662 5.66 
31 1 12.367 7.323 5.336 
33 1 11.212 6.606 4.866 
42 1 14.859 7.322 5.364 
52 1 10.713 1.219 7.322 
60 1 10.417 2.461 6.662 
61 1 10.741 3.711 7.323 
63 1 11.212 4.866 6.606 
87 1 10.693 5.384 5.384 
98 1 16.095 6.643 5.63 
170 1 10.713 7.322 1.219 
174 1 10.417 6.662 2.461 
175 1 10.741 7.323 3.711 
179 1 8.755 1.219 5.364 
183 1 9.415 2.461 5.66 
184 1 8.754 3.711 5.336 
192 1 13.616 5.66 6.662 
193 1 12.367 5.336 7.323 
200 1 14.859 5.364 7.322 
6 1 16.096 5.629 9.434 
23 1 10.693 5.384 10.693 
59 1 10.448 6.643 16.095 
67 1 10.713 7.322 14.858 
77 1 10.417 6.662 13.616 
78 1 10.741 7.323 12.366 
80 1 11.212 6.606 11.211 
93 1 16.096 6.643 10.448 
94 1 9.415 2.461 10.417 
95 1 8.754 3.711 10.741 
97 1 9.471 4.866 11.211 
106 1 8.755 1.219 10.713 
116 1 14.859 5.364 8.755 
123 1 9.434 5.629 16.094 
124 1 13.616 5.66 9.415 
125 1 12.367 5.336 8.754 
127 1 11.212 4.866 9.471 
134 1 8.755 5.364 14.858 
138 1 9.415 5.66 13.616 
139 1 8.754 5.336 12.366 
143 1 14.859 7.322 10.713 
147 1 13.616 6.662 10.417 
148 1 12.367 7.323 10.741 
156 1 10.417 2.461 9.415 
157 1 10.741 3.711 8.754 
164 1 10.713 1.219 8.755 
11 1 10.693 10.693 5.384 
18 1 16.096 10.448 6.643 
29 1 9.434 16.095 5.63 
70 1 10.448 16.095 6.643 
71 1 10.417 9.415 2.461 
72 1 10.741 8.754 3.711 
74 1 11.212 9.471 4.866 
85 1 10.713 8.755 1.219 
96 1 8.755 14.858 5.364 
103 1 16.095 9.434 5.63 
104 1 9.415 13.616 5.66 
105 1 8.754 12.366 5.336 
107 1 9.471 11.211 4.866 
111 1 14.859 10.713 7.322 
119 1 13.616 10.417 6.662 
120 1 12.367 10.741 7.323 
122 1 11.212 11.211 6.606 
132 1 9.415 10.417 2.461 
133 1 8.754 10.741 3.711 
140 1 8.755 10.713 1.219 
146 1 14.859 8.755 5.364 
150 1 13.616 9.415 5.66 
151 1 12.367 8.754 5.336 
155 1 10.713 14.858 7.322 
159 1 10.417 13.616 6.662 
160 1 10.741 12.366 7.323 
1 1 9.415 10.417 13.616 
2 1 8.754 10.741 12.366 
4 1 9.471 11.211 11.211 
12 1 16.096 10.448 9.434 
15 1 8.755 10.713 14.858 
25 1 13.616 9.415 10.417 
26 1 12.367 8.754 10.741 
28 1 11.212 9.471 11.211 
34 1 9.434 16.095 10.448 
37 1 14.859 8.755 10.713 
45 1 10.417 13.616 9.415 
46 1 10.741 12.366 8.754 
48 1 11.212 11.211 9.471 
54 1 10.448 9.434 16.094 
57 1 10.713 14.858 8.755 
69 1 10.693 10.693 10.693 
88 1 10.448 16.095 9.434 
108 1 16.096 9.434 10.448 
128 1 9.434 10.448 16.094 
165 1 10.417 9.415 13.616 
166 1 10.741 8.754 12.366 
173 1 10.713 8.755 14.858 
177 1 9.415 13.616 10.417 
178 1 8.754 12.366 10.741 
185 1 8.755 14.858 10.713 
189 1 13.616 10.417 9.415 
190 1 12.367 10.741 8.754 
197 1 14.859 10.713 8.755 
201 2 8.754 11.841 12.366 
ITEM: TIMESTEP
10
ITEM: NUMBER OF ATOMS
201
ITEM: BOX BOUNDS pp pp pp
0.0000000000000000e+00 1.6114000000000001e+01
0.0000000000000000e+00 1.6113000000000000e+01
0.0000000000000000e+00 1.6111999999999998e+01
ITEM: ATOMS id type x y z 
5 1 5.38407 5.3836 5.38393 
65 1 5.65929 6.66109 2.46144 
66 1 5.33649 7.32239 3.71122 
68 1 4.86519 6.60569 4.86668 
79 1 5.3625 7.32138 1.21978 
89 1 6.66177 2.46122 5.65945 
90 1 7.32276 3.71091 5.33655 
92 1 6.60572 4.86614 4.86654 
101 1 7.32165 1.21933 5.36325 
109 1 2.4609 5.65933 6.66163 
110 1 3.70991 5.33649 7.32263 
112 1 4.86547 4.86635 6.60564 
121 1 1.21803 5.36297 7.32082 
129 1 6.66163 5.65912 2.46161 
130 1 7.32256 5.33649 3.71127 
137 1 7.32168 5.36259 1.2196 
141 1 2.46126 6.66141 5.65931 
142 1 3.71009 7.32334 5.33648 
149 1 1.21822 7.32152 5.36315 
153 1 5.65968 2.46139 6.66119 
154 1 5.33651 3.7109 7.32232 
161 1 5.36284 1.21935 7.32123 
7 1 6.66165 5.6576 13.6167 
8 1 7.32209 5.33707 12.3658 
10 1 6.60567 4.86639 11.2103 
21 1 7.32181 5.36192 14.8586 
32 1 1.21847 7.3209 10.7151 
40 1 2.45966 6.65967 10.4179 
41 1 3.7092 7.32102 10.7391 
43 1 4.86539 6.60474 11.2095 
47 1 5.36195 1.21984 8.75392 
55 1 5.6585 2.46137 9.41523 
56 1 5.33668 3.71107 8.7531 
58 1 4.86508 4.86587 9.47001 
64 1 5.62803 6.64074 16.0958 
75 1 5.38366 5.38217 10.6925 
118 1 6.64223 5.62752 16.0949 
168 1 5.65871 6.65895 13.6172 
169 1 5.33771 7.31947 12.3661 
176 1 5.36115 7.31792 14.8592 
182 1 7.32117 1.22209 10.716 
186 1 6.65989 2.46234 10.4176 
187 1 7.32234 3.71114 10.7397 
191 1 1.2184 5.36232 8.75455 
195 1 2.46069 5.65804 9.41466 
196 1 3.71 5.3367 8.7529 
9 1 7.32065 10.716 1.22254 
19 1 6.66 10.4184 2.4618 
20 1 7.32203 10.7401 3.7121 
22 1 6.60589 11.2108 4.8666 
27 1 1.21808 8.75448 5.3626 
35 1 2.46124 9.41519 5.6584 
36 1 3.7102 8.75259 5.33657 
38 1 4.86474 9.47028 4.86645 
44 1 6.64256 16.0956 5.62879 
50 1 5.65908 13.6167 6.66038 
51 1 5.33732 12.3663 7.32113 
53 1 4.86572 11.2106 6.60538 
62 1 5.36222 14.8591 7.31993 
76 1 5.62847 16.0957 6.6417 
81 1 5.38326 10.6929 5.38317 
167 1 5.36177 8.75471 1.21946 
171 1 5.65808 9.41493 2.46151 
172 1 5.33664 8.75348 3.71106 
180 1 6.66133 13.6167 5.65876 
181 1 7.32194 12.3664 5.33713 
188 1 7.32112 14.8588 5.36276 
194 1 1.21871 10.7152 7.32051 
198 1 2.46 10.4177 6.66005 
199 1 3.70967 10.7397 7.32105 
17 1 5.37272 10.6904 10.6894 
39 1 6.638 16.0998 10.4496 
49 1 5.62557 9.43387 16.0971 
73 1 5.35702 8.75246 14.8617 
82 1 5.62561 16.097 9.43355 
83 1 5.6448 9.40721 13.6197 
84 1 5.33601 8.7501 12.3672 
86 1 4.86234 9.46836 11.21 
91 1 7.31916 14.8658 10.7192 
99 1 6.65682 13.6202 10.4189 
100 1 7.31559 12.3757 10.7221 
102 1 6.60398 11.2084 11.2124 
113 1 6.64002 10.4523 16.0954 
114 1 2.45969 10.4191 9.4162 
115 1 3.70797 10.7389 8.75136 
117 1 4.8634 11.2113 9.46762 
126 1 1.21885 10.716 8.7544 
131 1 7.31963 10.7179 14.8679 
135 1 6.64804 10.4231 13.6245 
136 1 7.25003 10.6948 12.3598 
144 1 2.45908 9.41668 10.4187 
145 1 3.7073 8.75115 10.7384 
152 1 1.21854 8.75432 10.7161 
158 1 5.35997 14.8606 8.75288 
162 1 5.65292 13.6186 9.4129 
163 1 5.33803 12.3672 8.75147 
3 1 8.75472 5.36229 1.21994 
13 1 9.41503 5.65862 2.46157 
14 1 8.75397 5.33652 3.71132 
16 1 9.47098 4.866 4.86649 
24 1 16.0956 5.62902 6.6422 
30 1 13.6166 6.66115 5.65911 
31 1 12.3669 7.32222 5.33683 
33 1 11.2114 6.60518 4.86675 
42 1 14.8591 7.32113 5.36285 
52 1 10.7146 1.2201 7.32134 
60 1 10.4175 2.46125 6.66072 
61 1 10.7403 3.71104 7.32191 
63 1 11.2111 4.86619 6.60543 
87 1 10.6928 5.38326 5.38376 
98 1 16.0954 6.64145 5.62962 
170 1 10.7153 7.32087 1.22026 
174 1 10.4177 6.66013 2.46205 
175 1 10.7402 7.32178 3.71135 
179 1 8.75469 1.2195 5.36289 
183 1 9.41492 2.46149 5.65902 
184 1 8.75396 3.71075 5.33665 
192 1 13.6167 5.65913 6.66141 
193 1 12.3669 5.3368 7.32223 
200 1 14.8595 5.36262 7.3205 
6 1 16.0962 5.62743 9.43465 
23 1 10.6931 5.37997 10.6922 
59 1 10.4489 6.6387 16.0979 
67 1 10.7178 7.31859 14.861 
77 1 10.4179 6.65534 13.6195 
78 1 10.7369 7.31423 12.3674 
80 1 11.2106 6.60112 11.2077 
93 1 16.097 6.64013 10.4489 
94 1 9.41698 2.46218 10.4183 
95 1 8.75355 3.71104 10.7396 
97 1 9.46916 4.86517 11.2108 
106 1 8.75435 1.22206 10.7163 
116 1 14.8601 5.36176 8.75398 
123 1 9.43447 5.62678 16.0952 
124 1 13.6169 5.65567 9.41381 
125 1 12.3668 5.33674 8.75227 
127 1 11.2124 4.86531 9.46869 
134 1 8.75385 5.36132 14.8593 
138 1 9.4147 5.65597 13.617 
139 1 8.75322 5.33707 12.3655 
143 1 14.8614 7.31953 10.7161 
147 1 13.6211 6.65597 10.4184 
148 1 12.3691 7.31223 10.7371 
156 1 10.4187 2.46136 9.4155 
157 1 10.7399 3.71015 8.75288 
164 1 10.7154 1.21965 8.75459 
11 1 10.6925 10.6923 5.37956 
18 1 16.0969 10.4483 6.64038 
29 1 9.43372 16.096 5.62764 
70 1 10.449 16.0975 6.64015 
71 1 10.4192 9.41622 2.46174 
72 1 10.7399 8.75255 3.71147 
74 1 11.2121 9.46944 4.86585 
85 1 10.7168 8.75306 1.22206 
96 1 8.75408 14.8595 5.36182 
103 1 16.0956 9.43483 5.62846 
104 1 9.41337 13.617 5.65537 
105 1 8.75311 12.3664 5.33728 
107 1 9.46983 11.2113 4.86626 
111 1 14.8622 10.7162 7.31937 
119 1 13.6209 10.4186 6.656 
120 1 12.3694 10.7371 7.31169 
122 1 11.2097 11.2091 6.60188 
132 1 9.41753 10.4184 2.46417 
133 1 8.75344 10.7396 3.71148 
140 1 8.75464 10.7176 1.2228 
146 1 14.8601 8.75385 5.36181 
150 1 13.6172 9.41351 5.65547 
151 1 12.367 8.75218 5.33706 
155 1 10.7168 14.8614 7.31772 
159 1 10.4184 13.6197 6.65548 
160 1 10.7372 12.3681 7.31276 
1 1 9.43676 10.4078 13.656 
2 1 8.75017 10.7583 12.3809 
4 1 9.48227 11.1972 11.1004 
12 1 16.0984 10.45 9.4369 
15 1 8.75517 10.7242 14.8659 
25 1 13.6257 9.41946 10.4212 
26 1 12.3801 8.74271 10.7329 
28 1 11.2256 9.44303 11.2201 
34 1 9.43706 16.1 10.4517 
37 1 14.8638 8.7538 10.7182 
45 1 10.4288 13.6246 9.41489 
46 1 10.7347 12.3773 8.74176 
48 1 11.2275 11.2181 9.44344 
54 1 10.4529 9.43554 16.098 
57 1 10.7218 14.8645 8.75173 
69 1 10.7329 10.6888 10.6813 
88 1 10.4505 16.0981 9.43575 
108 1 16.0982 9.43667 10.4501 
128 1 9.43955 10.4506 16.1044 
165 1 10.4232 9.41709 13.6254 
166 1 10.7357 8.74121 12.3702 
173 1 10.7233 8.74799 14.8685 
177 1 9.42629 13.6338 10.4236 
178 1 8.74529 12.3728 10.6857 
185 1 8.75137 14.867 10.7195 
189 1 13.6265 10.4209 9.42006 
190 1 12.3813 10.7325 8.7417 
197 1 14.8639 10.7182 8.75351 
201 2 8.72515 11.9134 12.5249 
ITEM: TIMESTEP
20
ITEM: NUMBER OF ATOMS
201
ITEM: BOX BOUNDS pp pp pp
0.0000000000000000e+00 1.6114000000000001e+01
0.0000000000000000e+00 1.6113000000000000e+01
0.0000000000000000e+00 1.6111999999999998e+01
ITEM: ATOMS id type x y z 
5 1 5.38381 5.38424 5.38419 
65 1 5.65935 6.66182 2.46128 
66 1 5.33622 7.32293 3.71135 
68 1 4.86563 6.60629 4.86601 
79 1 5.3632 7.322 1.2199 
89 1 6.6616 2.46114 5.65964 
90 1 7.32284 3.71115 5.33655 
92 1 6.60607 4.86624 4.86634 
101 1 7.32171 1.2193 5.36322 
109 1 2.46065 5.65956 6.66156 
110 1 3.71044 5.33629 7.32276 
112 1 4.86552 4.86606 6.60618 
121 1 1.21883 5.36294 7.32172 
129 1 6.66152 5.65965 2.46157 
130 1 7.3227 5.33654 3.71124 
137 1 7.3217 5.36254 1.21987 
141 1 2.46061 6.66165 5.65951 
142 1 3.71055 7.32271 5.33626 
149 1 1.2188 7.32153 5.36333 
153 1 5.65952 2.46119 6.66166 
154 1 5.33629 3.71108 7.32288 
161 1 5.36309 1.21915 7.32206 
7 1 6.66171 5.65839 13.6162 
8 1 7.32259 5.33676 12.3658 
10 1 6.60613 4.86628 11.2105 
21 1 7.32189 5.36204 14.8584 
32 1 1.21875 7.32111 10.7146 
40 1 2.46025 6.66016 10.4178 
41 1 3.71014 7.32125 10.74 
43 1 4.86556 6.60553 11.2104 
47 1 5.36275 1.21891 8.75471 
55 1 5.65916 2.46095 9.41467 
56 1 5.33636 3.71084 8.75336 
58 1 4.86537 4.86554 9.46967 
64 1 5.62786 6.64054 16.096 
75 1 5.38376 5.38312 10.6923 
118 1 6.64267 5.62741 16.0951 
168 1 5.65881 6.65989 13.6164 
169 1 5.33665 7.32105 12.366 
176 1 5.36122 7.31739 14.859 
182 1 7.3213 1.21963 10.7138 
186 1 6.66086 2.46118 10.4174 
187 1 7.3224 3.71108 10.7399 
191 1 1.21855 5.36238 8.75441 
195 1 2.46053 5.65842 9.41454 
196 1 3.7104 5.33631 8.75327 
9 1 7.32125 10.7141 1.21992 
19 1 6.6607 10.4181 2.4607 
20 1 7.32169 10.7401 3.7114 
22 1 6.60578 11.2107 4.86654 
27 1 1.21863 8.75431 5.36258 
35 1 2.46074 9.41468 5.6585 
36 1 3.71061 8.75352 5.3363 
38 1 4.86541 9.47008 4.86591 
44 1 6.64228 16.0955 5.62886 
50 1 5.65907 13.6168 6.66135 
51 1 5.33704 12.3667 7.32266 
53 1 4.86614 11.2113 6.60607 
62 1 5.3627 14.8588 7.32184 
76 1 5.62836 16.0954 6.64244 
81 1 5.38323 10.6925 5.38399 
167 1 5.3627 8.75531 1.21883 
171 1 5.65917 9.41482 2.46138 
172 1 5.33635 8.75369 3.71099 
180 1 6.66129 13.6166 5.65921 
181 1 7.32209 12.3663 5.33696 
188 1 7.32111 14.8587 5.3628 
194 1 1.21941 10.7149 7.32134 
198 1 2.4602 10.4177 6.65996 
199 1 3.71053 10.7403 7.32117 
17 1 5.37601 10.6908 10.6891 
39 1 6.6417 16.0954 10.449 
49 1 5.62929 9.43472 16.0961 
73 1 5.3559 8.75171 14.8628 
82 1 5.62856 16.0954 9.43401 
83 1 5.64466 9.40892 13.6208 
84 1 5.33268 8.75191 12.3679 
86 1 4.86399 9.47002 11.2102 
91 1 7.3215 14.8598 10.7134 
99 1 6.66241 13.6132 10.4205 
100 1 7.32345 12.3682 10.7231 
102 1 6.60468 11.2127 11.2168 
113 1 6.64325 10.4512 16.0917 
114 1 2.4606 10.4181 9.4158 
115 1 3.70895 10.7402 8.75151 
117 1 4.8643 11.2117 9.46845 
126 1 1.21948 10.7157 8.75418 
131 1 7.32172 10.7105 14.8595 
135 1 6.65024 10.4199 13.6141 
136 1 7.26763 10.6919 12.3546 
144 1 2.4602 9.41559 10.418 
145 1 3.70945 8.75223 10.7399 
152 1 1.21923 8.75423 10.7156 
158 1 5.36198 14.8584 8.75483 
162 1 5.65862 13.6173 9.41459 
163 1 5.33652 12.3689 8.75309 
3 1 8.75448 5.36217 1.21992 
13 1 9.41487 5.65868 2.46161 
14 1 8.75343 5.33644 3.7115 
16 1 9.47027 4.86596 4.86625 
24 1 16.0959 5.62827 6.64229 
30 1 13.6168 6.66103 5.65923 
31 1 12.3666 7.32186 5.3368 
33 1 11.2114 6.6055 4.86668 
42 1 14.8591 7.32054 5.36262 
52 1 10.7141 1.21979 7.3217 
60 1 10.4176 2.46087 6.66123 
61 1 10.7404 3.71111 7.32226 
63 1 11.2113 4.86594 6.60609 
87 1 10.6929 5.38355 5.38404 
98 1 16.0961 6.64218 5.62861 
170 1 10.7149 7.32062 1.22035 
174 1 10.4176 6.66023 2.46181 
175 1 10.7402 7.32169 3.71159 
179 1 8.75469 1.21932 5.36282 
183 1 9.41489 2.46128 5.65922 
184 1 8.75375 3.71096 5.33664 
192 1 13.6168 5.65906 6.66148 
193 1 12.3666 5.3366 7.32233 
200 1 14.8589 5.36246 7.32118 
6 1 16.0962 5.62772 9.4341 
23 1 10.693 5.38141 10.6923 
59 1 10.449 6.63951 16.097 
67 1 10.717 7.31846 14.8604 
77 1 10.4176 6.65875 13.6177 
78 1 10.7385 7.31844 12.3672 
80 1 11.2116 6.60349 11.2107 
93 1 16.0965 6.64096 10.449 
94 1 9.41561 2.46174 10.4177 
95 1 8.75297 3.71091 10.7398 
97 1 9.46914 4.86557 11.211 
106 1 8.75395 1.22052 10.7149 
116 1 14.8601 5.36135 8.75381 
123 1 9.43428 5.62704 16.0952 
124 1 13.6178 5.6558 9.41381 
125 1 12.3671 5.33629 8.75275 
127 1 11.212 4.86527 9.46897 
134 1 8.75436 5.36171 14.8587 
138 1 9.41507 5.65754 13.6168 
139 1 8.75324 5.33686 12.3664 
143 1 14.8609 7.32044 10.715 
147 1 13.6205 6.65625 10.4188 
148 1 12.3695 7.31334 10.739 
156 1 10.4178 2.46147 9.41541 
157 1 10.7402 3.71015 8.75292 
164 1 10.7146 1.21959 8.7547 
11 1 10.6928 10.6927 5.38129 
18 1 16.0968 10.4492 6.64081 
29 1 9.43377 16.096 5.62799 
70 1 10.449 16.0967 6.64113 
71 1 10.4189 9.41542 2.46217 
72 1 10.74 8.75254 3.71144 
74 1 11.2118 9.46911 4.86586 
85 1 10.7161 8.75366 1.22133 
96 1 8.75405 14.8597 5.36166 
103 1 16.0964 9.43384 5.62773 
104 1 9.41412 13.6176 5.65638 
105 1 8.75287 12.3672 5.33726 
107 1 9.46922 11.2115 4.86666 
111 1 14.8617 10.7156 7.32059 
119 1 13.6223 10.4194 6.65453 
120 1 12.3699 10.7385 7.31017 
122 1 11.2105 11.2115 6.60342 
132 1 9.41662 10.4178 2.46379 
133 1 8.75248 10.7395 3.71213 
140 1 8.75392 10.7166 1.22274 
146 1 14.8605 8.7535 5.36089 
150 1 13.618 9.4133 5.65468 
151 1 12.3671 8.75241 5.33669 
155 1 10.7156 14.8608 7.31963 
159 1 10.4183 13.6204 6.65723 
160 1 10.7378 12.369 7.31699 
1 1 9.42255 10.4011 13.6388 
2 1 8.75571 10.819 12.3791 
4 1 9.47012 11.1866 11.1004 
12 1 16.0989 10.4496 9.43634 
15 1 8.75551 10.7158 14.8627 
25 1 13.6234 9.41578 10.4188 
26 1 12.3769 8.74409 10.7387 
28 1 11.2235 9.4559 11.2162 
34 1 9.43468 16.098 10.4493 
37 1 14.8625 8.75366 10.7171 
45 1 10.423 13.6225 9.41587 
46 1 10.7404 12.3753 8.74448 
48 1 11.2303 11.2186 9.44698 
54 1 10.4507 9.43432 16.0975 
57 1 10.7191 14.8638 8.75266 
69 1 10.7101 10.6823 10.6709 
88 1 10.4483 16.0974 9.43552 
108 1 16.0979 9.43559 10.4498 
128 1 9.43627 10.4476 16.1024 
165 1 10.4136 9.41165 13.622 
166 1 10.7407 8.74645 12.3681 
173 1 10.7216 8.74946 14.8658 
177 1 9.41444 13.626 10.4097 
178 1 8.75389 12.3531 10.6655 
185 1 8.75329 14.8613 10.7162 
189 1 13.6263 10.4171 9.41806 
190 1 12.3829 10.7359 8.74009 
197 1 14.8639 10.7174 8.75372 
201 2 8.71785 11.9362 12.6111 
ITEM: TIMESTEP
30
ITEM: NUMBER OF ATOMS
201
ITEM: BOX BOUNDS pp pp pp
0.0000000000000000e+00 1.6114000000000001e+01
0.0000000000000000e+00 1.6113000000000000e+01
0.0000000000000000e+00 1.6111999999999998e+01
ITEM: ATOMS id type x y z 
5 1 5.38377 5.38413 5.38454 
65 1 5.65905 6.66234 2.4613 
66 1 5.33654 7.32367 3.71098 
68 1 4.86578 6.60685 4.86611 
79 1 5.36341 7.32236 1.21925 
89 1 6.66149 2.46098 5.65967 
90 1 7.3225 3.71084 5.33698 
92 1 6.60635 4.86596 4.86673 
101 1 7.3215 1.21879 5.36339 
109 1 2.4607 5.65896 6.66204 
110 1 3.71052 5.33647 7.32276 
112 1 4.86565 4.86597 6.60678 
121 1 1.21869 5.36269 7.32167 
129 1 6.66146 5.65948 2.46144 
130 1 7.32233 5.33699 3.71116 
137 1 7.32174 5.36205 1.21962 
141 1 2.46082 6.66172 5.65914 
142 1 3.71057 7.32294 5.33654 
149 1 1.21855 7.3215 5.3629 
153 1 5.65928 2.4609 6.66238 
154 1 5.33656 3.71044 7.32295 
161 1 5.36323 1.21872 7.32238 
7 1 6.66214 5.65888 13.616 
8 1 7.32311 5.33662 12.3659 
10 1 6.60665 4.86598 11.2107 
21 1 7.32261 5.36227 14.858 
32 1 1.219 7.32131 10.7141 
40 1 2.46047 6.66028 10.4175 
41 1 3.71064 7.32175 10.7404 
43 1 4.86614 6.60578 11.2107 
47 1 5.36376 1.2179 8.7554 
55 1 5.65946 2.46052 9.41463 
56 1 5.33637 3.71058 8.75387 
58 1 4.8661 4.86546 9.47001 
64 1 5.62773 6.64022 16.0957 
75 1 5.38417 5.38356 10.6921 
118 1 6.64296 5.627 16.0948 
168 1 5.65899 6.66013 13.6168 
169 1 5.3356 7.32123 12.3665 
176 1 5.36065 7.31743 14.859 
182 1 7.32136 1.2182 10.713 
186 1 6.66153 2.46003 10.4172 
187 1 7.32197 3.71075 10.7401 
191 1 1.2189 5.36226 8.7546 
195 1 2.46073 5.65899 9.41504 
196 1 3.71058 5.33628 8.75385 
9 1 7.32142 10.7131 1.21735 
19 1 6.66193 10.4185 2.4589 
20 1 7.32144 10.7406 3.71078 
22 1 6.60646 11.2113 4.866 
27 1 1.219 8.7542 5.36211 
35 1 2.46075 9.41511 5.6588 
36 1 3.71083 8.75377 5.33639 
38 1 4.86626 9.47066 4.86604 
44 1 6.64209 16.0954 5.62914 
50 1 5.6595 13.617 6.66188 
51 1 5.33668 12.3671 7.32283 
53 1 4.8666 11.2118 6.60666 
62 1 5.36344 14.8585 7.32272 
76 1 5.62855 16.0949 6.64352 
81 1 5.38401 10.6926 5.38439 
167 1 5.36402 8.75568 1.21868 
171 1 5.66013 9.41555 2.46123 
172 1 5.33663 8.75442 3.71086 
180 1 6.66166 13.6164 5.65947 
181 1 7.3223 12.3664 5.33663 
188 1 7.32114 14.8585 5.36295 
194 1 1.21968 10.7146 7.32122 
198 1 2.46065 10.4178 6.65991 
199 1 3.71097 10.7407 7.32119 
17 1 5.37375 10.69 10.6885 
39 1 6.64397 16.0927 10.4481 
49 1 5.63053 9.43433 16.0949 
73 1 5.35516 8.75191 14.8616 
82 1 5.62973 16.0944 9.4341 
83 1 5.64227 9.4097 13.6198 
84 1 5.32906 8.75246 12.3702 
86 1 4.86372 9.47086 11.2094 
91 1 7.32353 14.856 10.7128 
99 1 6.66542 13.6087 10.421 
100 1 7.32418 12.3599 10.7181 
102 1 6.60519 11.2055 11.2197 
113 1 6.64643 10.4497 16.0866 
114 1 2.46141 10.4175 9.41502 
115 1 3.70916 10.7404 8.75131 
117 1 4.86437 11.2113 9.46911 
126 1 1.22036 10.7152 8.75436 
131 1 7.32034 10.7032 14.8529 
135 1 6.65906 10.4123 13.602 
136 1 7.27966 10.6921 12.349 
144 1 2.46067 9.41486 10.4173 
145 1 3.70927 8.75205 10.7393 
152 1 1.21947 8.75399 10.715 
158 1 5.36452 14.8571 8.75616 
162 1 5.66118 13.6153 9.41537 
163 1 5.33597 12.3687 8.75332 
3 1 8.75453 5.36177 1.22007 
13 1 9.41482 5.65837 2.46148 
14 1 8.75355 5.33686 3.71129 
16 1 9.47028 4.86627 4.8667 
24 1 16.096 5.62765 6.64249 
30 1 13.6168 6.66126 5.65897 
31 1 12.3672 7.32248 5.33713 
33 1 11.2114 6.60628 4.86654 
42 1 14.8594 7.32031 5.36204 
52 1 10.7142 1.21961 7.32204 
60 1 10.4175 2.46162 6.66093 
61 1 10.7402 3.71082 7.32249 
63 1 11.2116 4.86608 6.6069 
87 1 10.6923 5.38323 5.38405 
98 1 16.0964 6.64174 5.62812 
170 1 10.7149 7.32051 1.21977 
174 1 10.4177 6.66008 2.46276 
175 1 10.7401 7.32185 3.71163 
179 1 8.75393 1.21939 5.36257 
183 1 9.41483 2.46091 5.65924 
184 1 8.7533 3.7107 5.33718 
192 1 13.6168 5.65865 6.66186 
193 1 12.3671 5.3367 7.32293 
200 1 14.8593 5.36217 7.3214 
6 1 16.096 5.62807 9.43413 
23 1 10.6926 5.3823 10.6924 
59 1 10.4488 6.63969 16.097 
67 1 10.7174 7.31935 14.8598 
77 1 10.4166 6.66101 13.6167 
78 1 10.7407 7.31988 12.3659 
80 1 11.2134 6.60369 11.2113 
93 1 16.0967 6.6412 10.4484 
94 1 9.41439 2.46128 10.4173 
95 1 8.75321 3.71108 10.7399 
97 1 9.46892 4.86598 11.2113 
106 1 8.75419 1.21845 10.7141 
116 1 14.8598 5.36107 8.75392 
123 1 9.43451 5.62738 16.0947 
124 1 13.6184 5.65627 9.41461 
125 1 12.3674 5.33593 8.75355 
127 1 11.2117 4.86592 9.4696 
134 1 8.75454 5.36246 14.8583 
138 1 9.41562 5.65948 13.6166 
139 1 8.75368 5.33649 12.3659 
143 1 14.8605 7.32005 10.7142 
147 1 13.6202 6.65618 10.4186 
148 1 12.3699 7.31495 10.7418 
156 1 10.4167 2.46137 9.4161 
157 1 10.7403 3.71163 8.75341 
164 1 10.7139 1.22077 8.75467 
11 1 10.6919 10.6923 5.38169 
18 1 16.0975 10.4489 6.64073 
29 1 9.43371 16.0957 5.62788 
70 1 10.4484 16.0971 6.64066 
71 1 10.4177 9.41553 2.46209 
72 1 10.7402 8.75252 3.7126 
74 1 11.2115 9.46967 4.86688 
85 1 10.7155 8.75336 1.22189 
96 1 8.75355 14.8596 5.36152 
103 1 16.0964 9.43391 5.62777 
104 1 9.41423 13.6179 5.65697 
105 1 8.75274 12.3671 5.33684 
107 1 9.46861 11.2115 4.86714 
111 1 14.8622 10.7148 7.32 
119 1 13.6235 10.42 6.65218 
120 1 12.3722 10.7412 7.30951 
122 1 11.2122 11.2122 6.60219 
132 1 9.41559 10.4166 2.4643 
133 1 8.75245 10.7393 3.71268 
140 1 8.75437 10.7151 1.22157 
146 1 14.8609 8.75305 5.35985 
150 1 13.6191 9.4135 5.65352 
151 1 12.3671 8.75305 5.33606 
155 1 10.7156 14.861 7.31989 
159 1 10.4174 13.6201 6.6576 
160 1 10.7398 12.3689 7.3167 
1 1 9.41957 10.3956 13.6329 
2 1 8.76085 10.8946 12.3874 
4 1 9.46018 11.1795 11.1067 
12 1 16.0995 10.4488 9.43593 
15 1 8.75233 10.7068 14.8609 
25 1 13.6228 9.41294 10.4171 
26 1 12.3746 8.74677 10.7422 
28 1 11.2217 9.46004 11.2123 
34 1 9.43293 16.0947 10.4487 
37 1 14.8626 8.753 10.7159 
45 1 10.424 13.6211 9.41303 
46 1 10.7482 12.3713 8.74502 
48 1 11.2296 11.215 9.44948 
54 1 10.4499 9.43253 16.0958 
57 1 10.719 14.8647 8.75251 
69 1 10.6905 10.6719 10.6608 
88 1 10.4473 16.0979 9.43597 
108 1 16.0981 9.43444 10.4492 
128 1 9.43424 10.4426 16.1015 
165 1 10.4051 9.40417 13.6172 
166 1 10.7441 8.74885 12.3605 
173 1 10.717 8.74884 14.864 
177 1 9.4068 13.6158 10.3955 
178 1 8.75116 12.3375 10.6478 
185 1 8.75555 14.8546 10.7119 
189 1 13.6262 10.414 9.41428 
190 1 12.383 10.7388 8.73952 
197 1 14.8654 10.7157 8.75313 
201 2 8.71322 11.9868 12.7124 
ITEM: TIMESTEP
40
ITEM: NUMBER OF ATOMS
201
ITEM: BOX BOUNDS pp pp pp
0.0000000000000000e+00 1.6114000000000001e+01
0.0000000000000000e+00 1.6113000000000000e+01
0.0000000000000000e+00 1.6111999999999998e+01
ITEM: ATOMS id type x y z 
5 1 5.38369 5.38519 5.38469 
65 1 5.6596 6.66284 2.4615 
66 1 5.33677 7.32454 3.7112 
68 1 4.86628 6.60785 4.86591 
79 1 5.36436 7.3223 1.21971 
89 1 6.66071 2.46085 5.65988 
90 1 7.3226 3.71096 5.33745 
92 1 6.60595 4.86671 4.86671 
101 1 7.32055 1.21901 5.363 
109 1 2.46062 5.65954 6.66165 
110 1 3.71046 5.33677 7.32355 
112 1 4.86601 4.86623 6.60703 
121 1 1.21906 5.36259 7.32117 
129 1 6.66128 5.65991 2.4617 
130 1 7.32277 5.33742 3.71103 
137 1 7.32146 5.36181 1.21957 
141 1 2.46096 6.66167 5.65959 
142 1 3.71068 7.32333 5.33671 
149 1 1.21913 7.32008 5.36287 
153 1 5.65888 2.46069 6.6628 
154 1 5.33661 3.71073 7.32367 
161 1 5.36316 1.21829 7.32432 
7 1 6.66295 5.65851 13.6163 
8 1 7.32379 5.33638 12.3658 
10 1 6.60751 4.86439 11.2106 
21 1 7.32259 5.36214 14.8585 
32 1 1.2194 7.31986 10.7144 
40 1 2.45975 6.65817 10.4179 
41 1 3.71033 7.31813 10.7392 
43 1 4.86729 6.60418 11.2106 
47 1 5.36519 1.21735 8.75645 
55 1 5.66054 2.45889 9.41577 
56 1 5.33671 3.71006 8.75372 
58 1 4.86631 4.86535 9.46951 
64 1 5.62816 6.6405 16.0957 
75 1 5.38568 5.38246 10.6918 
118 1 6.64269 5.62743 16.0951 
168 1 5.65858 6.65821 13.6188 
169 1 5.33399 7.31717 12.3681 
176 1 5.36017 7.31879 14.8596 
182 1 7.32299 1.21465 10.7124 
186 1 6.66289 2.45826 10.417 
187 1 7.3227 3.70825 10.7403 
191 1 1.21884 5.36176 8.7537 
195 1 2.46092 5.65764 9.41419 
196 1 3.71128 5.33602 8.75305 
9 1 7.32069 10.7117 1.21266 
19 1 6.66224 10.4193 2.45553 
20 1 7.32147 10.7419 3.70783 
22 1 6.60642 11.2111 4.86393 
27 1 1.21962 8.75356 5.36148 
35 1 2.46124 9.41408 5.65764 
36 1 3.71176 8.75366 5.33601 
38 1 4.86659 9.47027 4.86589 
44 1 6.64136 16.0952 5.62936 
50 1 5.65972 13.6169 6.66145 
51 1 5.33712 12.3669 7.32307 
53 1 4.86765 11.2113 6.60529 
62 1 5.3642 14.8582 7.32453 
76 1 5.62856 16.095 6.64407 
81 1 5.385 10.6922 5.3837 
167 1 5.36605 8.75542 1.21867 
171 1 5.66182 9.41583 2.45997 
172 1 5.33743 8.75505 3.71024 
180 1 6.6614 13.6168 5.65898 
181 1 7.3228 12.3663 5.33599 
188 1 7.32089 14.8587 5.36214 
194 1 1.22042 10.7145 7.32025 
198 1 2.46079 10.4179 6.65809 
199 1 3.71141 10.7405 7.3194 
17 1 5.36914 10.6862 10.6897 
39 1 6.64799 16.0885 10.4483 
49 1 5.62967 9.43265 16.0925 
73 1 5.35399 8.75304 14.8581 
82 1 5.63309 16.093 9.43631 
83 1 5.64175 9.40921 13.6161 
84 1 5.32307 8.74881 12.3708 
86 1 4.85833 9.46763 11.2085 
91 1 7.32446 14.8505 10.7131 
99 1 6.66489 13.6058 10.4206 
100 1 7.31977 12.349 10.7088 
102 1 6.60809 11.1891 11.2173 
113 1 6.64544 10.4464 16.0827 
114 1 2.46076 10.4183 9.41425 
115 1 3.70859 10.7395 8.74911 
117 1 4.86328 11.2105 9.46873 
126 1 1.21983 10.7158 8.753 
131 1 7.31874 10.6934 14.8473 
135 1 6.67111 10.3993 13.5878 
136 1 7.29575 10.7202 12.3519 
144 1 2.45799 9.41552 10.4165 
145 1 3.70551 8.74851 10.7348 
152 1 1.21846 8.75304 10.7159 
158 1 5.367 14.8563 8.75684 
162 1 5.66232 13.6143 9.41621 
163 1 5.33685 12.367 8.7528 
3 1 8.75432 5.36148 1.22014 
13 1 9.41456 5.65766 2.46164 
14 1 8.75236 5.33692 3.71223 
16 1 9.46996 4.86686 4.86731 
24 1 16.0959 5.62751 6.64238 
30 1 13.6175 6.6617 5.65919 
31 1 12.3677 7.32274 5.33732 
33 1 11.2123 6.60642 4.86829 
42 1 14.8598 7.31922 5.36188 
52 1 10.7136 1.22082 7.3225 
60 1 10.4177 2.4618 6.66132 
61 1 10.7402 3.71186 7.32345 
63 1 11.212 4.86664 6.6075 
87 1 10.6925 5.38421 5.38475 
98 1 16.0962 6.6414 5.62789 
170 1 10.7154 7.31868 1.22207 
174 1 10.4176 6.65927 2.46324 
175 1 10.7401 7.3217 3.71304 
179 1 8.75394 1.21973 5.36201 
183 1 9.41448 2.46132 5.65905 
184 1 8.75298 3.71124 5.33762 
192 1 13.6174 5.65897 6.662 
193 1 12.3677 5.33669 7.32354 
200 1 14.8595 5.36219 7.32076 
6 1 16.0968 5.62689 9.43295 
23 1 10.6924 5.38146 10.6918 
59 1 10.4497 6.63855 16.0984 
67 1 10.7186 7.31772 14.8596 
77 1 10.4168 6.66035 13.6161 
78 1 10.7424 7.31901 12.363 
80 1 11.2159 6.59973 11.2086 
93 1 16.0973 6.63953 10.448 
94 1 9.4124 2.45754 10.4173 
95 1 8.75253 3.70895 10.7405 
97 1 9.4691 4.86465 11.21 
106 1 8.75555 1.21349 10.7127 
116 1 14.8598 5.36057 8.7536 
123 1 9.43415 5.62674 16.0958 
124 1 13.6184 5.65575 9.41484 
125 1 12.3681 5.33556 8.75317 
127 1 11.2114 4.86626 9.46989 
134 1 8.75549 5.36324 14.8584 
138 1 9.41476 5.66011 13.6157 
139 1 8.75362 5.33631 12.3649 
143 1 14.8612 7.31944 10.7146 
147 1 13.6211 6.65567 10.4188 
148 1 12.372 7.31949 10.743 
156 1 10.4149 2.4623 9.41627 
157 1 10.7392 3.71149 8.75337 
164 1 10.7118 1.22127 8.75536 
11 1 10.6922 10.6918 5.3815 
18 1 16.0992 10.4479 6.63838 
29 1 9.43346 16.0963 5.6269 
70 1 10.4484 16.0987 6.64053 
71 1 10.4174 9.41386 2.46328 
72 1 10.7397 8.75253 3.71325 
74 1 11.2117 9.46846 4.86706 
85 1 10.7167 8.75145 1.22383 
96 1 8.75403 14.8601 5.36099 
103 1 16.0974 9.43225 5.62614 
104 1 9.41441 13.6179 5.65733 
105 1 8.7531 12.3669 5.33675 
107 1 9.46765 11.2108 4.86733 
111 1 14.8628 10.7145 7.3175 
119 1 13.6242 10.4206 6.65012 
120 1 12.3757 10.7455 7.31154 
122 1 11.2165 11.2129 6.59923 
132 1 9.41477 10.415 2.46436 
133 1 8.75095 10.7388 3.7131 
140 1 8.75239 10.7127 1.22286 
146 1 14.8612 8.75249 5.35872 
150 1 13.6202 9.41461 5.65243 
151 1 12.3686 8.75305 5.33548 
155 1 10.7158 14.8617 7.31891 
159 1 10.4173 13.6205 6.65836 
160 1 10.7455 12.3686 7.31341 
1 1 9.42474 10.4042 13.6383 
2 1 8.77154 10.9859 12.4254 
4 1 9.45936 11.2067 11.1418 
12 1 16.099 10.448 9.43447 
15 1 8.7528 10.6978 14.8635 
25 1 13.621 9.41223 10.4142 
26 1 12.3733 8.75019 10.7415 
28 1 11.2118 9.46067 11.203 
34 1 9.43105 16.0885 10.4466 
37 1 14.8628 8.75197 10.7144 
45 1 10.4313 13.6185 9.4053 
46 1 10.7583 12.3674 8.74416 
48 1 11.217 11.2033 9.45099 