LAMMPS (3 Mar 2020)
Reading data file ...
  orthogonal box = (0 0 0) to (16.114 16.113 16.112)
  2 by 2 by 2 MPI processor grid
  reading atoms ...
  201 atoms
  read_data CPU = 0.0542289 secs
WARNING: Using 'neigh_modify every 1 delay 0 check yes' setting during minimization (../min.cpp:190)
WARNING: Total cutoff < 2*bond cutoff. May need to use an increased neighbor list skin. (../pair_reaxc.cpp:413)
Neighbor list info ...
  update every 1 steps, delay 0 steps, check yes
  max neighbors/atom: 2000, page size: 100000
  master list distance cutoff = 9.5
  ghost atom cutoff = 9.5
  binsize = 4.75, bins = 4 4 4
  2 neighbor lists, perpetual/occasional/extra = 2 0 0
  (1) pair reax/c, perpetual
      attributes: half, newton off, ghost
      pair build: half/bin/newtoff/ghost
      stencil: half/ghost/bin/3d/newtoff
      bin: standard
  (2) fix qeq/reax, perpetual, copy from (1)
      attributes: half, newton off, ghost
      pair build: copy
      stencil: none
      bin: none
Setting up cg style minimization ...
  Unit style    : real
  Current step  : 0
Per MPI rank memory allocation (min/avg/max) = 25.32 | 25.49 | 25.69 Mbytes
Step Temp E_pair E_mol TotEng Press 
       0            0   -38896.749            0   -38896.749    39548.683 
      52            0   -39017.027            0   -39017.027    22090.632 
Loop time of 2.22148 on 8 procs for 52 steps with 201 atoms

99.2% CPU use with 8 MPI tasks x no OpenMP threads

Minimization stats:
  Stopping criterion = energy tolerance
  Energy initial, next-to-last, final = 
        -38896.7485981     -39017.0264804     -39017.0267672
  Force two-norm initial, final = 524.02 90.9496
  Force max component initial, final = 165.958 40.0022
  Final line search alpha, max atom move = 0.000420836 0.0168344
  Iterations, force evaluations = 52 255

MPI task timing breakdown:
Section |  min time  |  avg time  |  max time  |%varavg| %total
---------------------------------------------------------------
Pair    | 1.7139     | 1.7542     | 1.8149     |   2.3 | 78.97
Neigh   | 0          | 0          | 0          |   0.0 |  0.00
Comm    | 0.012781   | 0.07338    | 0.1138     |  11.2 |  3.30
Output  | 0.00020805 | 0.00025044 | 0.00036662 |   0.0 |  0.01
Modify  | 0.3899     | 0.38999    | 0.39003    |   0.0 | 17.56
Other   |            | 0.003624   |            |       |  0.16

Nlocal:    25.125 ave 29 max 22 min
Histogram: 1 0 3 0 0 3 0 0 0 1
Nghost:    964.875 ave 972 max 958 min
Histogram: 1 0 2 0 0 2 0 2 0 1
Neighs:    4314.25 ave 4865 max 3867 min
Histogram: 1 0 3 0 0 3 0 0 0 1

Total # of neighbors = 34514
Ave neighs/atom = 171.711
Neighbor list builds = 0
Dangerous builds = 0
WARNING: Using 'neigh_modify every 1 delay 0 check yes' setting during minimization (../min.cpp:190)
WARNING: Total cutoff < 2*bond cutoff. May need to use an increased neighbor list skin. (../pair_reaxc.cpp:413)
Setting up cg style minimization ...
  Unit style    : real
  Current step  : 52
Per MPI rank memory allocation (min/avg/max) = 25.32 | 25.49 | 25.69 Mbytes
Step Temp E_pair E_mol TotEng Press 
      52            0   -39017.027            0   -39017.027    22090.632 
      92            0   -39019.318            0   -39019.318    19056.237 
Loop time of 1.69695 on 8 procs for 40 steps with 201 atoms

99.3% CPU use with 8 MPI tasks x no OpenMP threads

Minimization stats:
  Stopping criterion = energy tolerance
  Energy initial, next-to-last, final = 
        -39017.0267672     -39019.3178121     -39019.3179697
  Force two-norm initial, final = 90.9496 23.1352
  Force max component initial, final = 40.0022 3.25733
  Final line search alpha, max atom move = 0.0592403 0.192965
  Iterations, force evaluations = 40 196

MPI task timing breakdown:
Section |  min time  |  avg time  |  max time  |%varavg| %total
---------------------------------------------------------------
Pair    | 1.3067     | 1.3468     | 1.3924     |   2.1 | 79.37
Neigh   | 0          | 0          | 0          |   0.0 |  0.00
Comm    | 0.0097371  | 0.055364   | 0.095626   |  10.2 |  3.26
Output  | 0.00016545 | 0.00020387 | 0.00029587 |   0.0 |  0.01
Modify  | 0.29161    | 0.29178    | 0.29193    |   0.0 | 17.19
Other   |            | 0.002798   |            |       |  0.16

Nlocal:    25.125 ave 29 max 22 min
Histogram: 1 0 3 0 0 3 0 0 0 1
Nghost:    964.875 ave 972 max 958 min
Histogram: 1 0 2 0 0 2 0 2 0 1
Neighs:    4307.75 ave 4854 max 3859 min
Histogram: 1 0 3 0 0 3 0 0 0 1

Total # of neighbors = 34462
Ave neighs/atom = 171.453
Neighbor list builds = 0
Dangerous builds = 0
WARNING: Using 'neigh_modify every 1 delay 0 check yes' setting during minimization (../min.cpp:190)
WARNING: Total cutoff < 2*bond cutoff. May need to use an increased neighbor list skin. (../pair_reaxc.cpp:413)
Setting up cg style minimization ...
  Unit style    : real
  Current step  : 92
WARNING: Energy due to 3 extra global DOFs will be included in minimizer energies
Per MPI rank memory allocation (min/avg/max) = 25.32 | 25.49 | 25.69 Mbytes
Step Temp E_pair E_mol TotEng Press Volume 
      92            0   -39019.318            0   -39019.318    19056.237    4183.3983 
     113            0   -39020.079            0   -39020.079   -241.65706    4186.7204 
Loop time of 0.292635 on 8 procs for 21 steps with 201 atoms

99.1% CPU use with 8 MPI tasks x no OpenMP threads

Minimization stats:
  Stopping criterion = energy tolerance
  Energy initial, next-to-last, final = 
        -39019.3179697     -39020.0791084     -39020.0793969
  Force two-norm initial, final = 2015.3 46.5519
  Force max component initial, final = 1199.28 17.443
  Final line search alpha, max atom move = 2.44524e-06 4.26522e-05
  Iterations, force evaluations = 21 36

MPI task timing breakdown:
Section |  min time  |  avg time  |  max time  |%varavg| %total
---------------------------------------------------------------
Pair    | 0.24863    | 0.25234    | 0.25971    |   0.7 | 86.23
Neigh   | 0          | 0          | 0          |   0.0 |  0.00
Comm    | 0.0015133  | 0.0088656  | 0.012576   |   3.6 |  3.03
Output  | 7.6343e-05 | 9.1577e-05 | 0.00013149 |   0.0 |  0.03
Modify  | 0.029995   | 0.030004   | 0.030012   |   0.0 | 10.25
Other   |            | 0.001334   |            |       |  0.46

Nlocal:    25.125 ave 28 max 22 min
Histogram: 1 0 0 3 0 0 2 0 1 1
Nghost:    966 ave 973 max 962 min
Histogram: 3 0 1 0 2 1 0 0 0 1
Neighs:    4309.5 ave 4720 max 3857 min
Histogram: 1 0 0 3 0 0 2 0 1 1

Total # of neighbors = 34476
Ave neighs/atom = 171.522
Neighbor list builds = 0
Dangerous builds = 0
WARNING: Using 'neigh_modify every 1 delay 0 check yes' setting during minimization (../min.cpp:190)
WARNING: Total cutoff < 2*bond cutoff. May need to use an increased neighbor list skin. (../pair_reaxc.cpp:413)
Setting up cg style minimization ...
  Unit style    : real
  Current step  : 113
Per MPI rank memory allocation (min/avg/max) = 25.32 | 25.49 | 25.69 Mbytes
Step Temp E_pair E_mol TotEng Press 
     113            0   -39020.079            0   -39020.079   -241.65706 
     135            0   -39020.362            0   -39020.362    16916.321 
Loop time of 1.39547 on 8 procs for 22 steps with 201 atoms

99.1% CPU use with 8 MPI tasks x no OpenMP threads

Minimization stats:
  Stopping criterion = energy tolerance
  Energy initial, next-to-last, final = 
        -39020.0793969     -39020.3620223     -39020.3622305
  Force two-norm initial, final = 38.5526 5.13813
  Force max component initial, final = 4.68658 1.36825
  Final line search alpha, max atom move = 0.000963871 0.00131882
  Iterations, force evaluations = 22 163

MPI task timing breakdown:
Section |  min time  |  avg time  |  max time  |%varavg| %total
---------------------------------------------------------------
Pair    | 1.0942     | 1.124      | 1.1582     |   1.7 | 80.55
Neigh   | 0          | 0          | 0          |   0.0 |  0.00
Comm    | 0.0076764  | 0.041809   | 0.071766   |   9.0 |  3.00
Output  | 8.0059e-05 | 0.00012953 | 0.00019894 |   0.0 |  0.01
Modify  | 0.22713    | 0.22721    | 0.22729    |   0.0 | 16.28
Other   |            | 0.002277   |            |       |  0.16

Nlocal:    25.125 ave 28 max 22 min
Histogram: 1 0 0 3 0 0 2 0 1 1
Nghost:    966 ave 973 max 962 min
Histogram: 3 0 1 0 2 1 0 0 0 1
Neighs:    4308.25 ave 4718 max 3855 min
Histogram: 1 0 0 3 0 0 2 0 1 1

Total # of neighbors = 34466
Ave neighs/atom = 171.473
Neighbor list builds = 0
Dangerous builds = 0
WARNING: Using 'neigh_modify every 1 delay 0 check yes' setting during minimization (../min.cpp:190)
WARNING: Total cutoff < 2*bond cutoff. May need to use an increased neighbor list skin. (../pair_reaxc.cpp:413)
Setting up cg style minimization ...
  Unit style    : real
  Current step  : 135
WARNING: Energy due to 3 extra global DOFs will be included in minimizer energies
Per MPI rank memory allocation (min/avg/max) = 25.32 | 25.49 | 25.69 Mbytes
Step Temp E_pair E_mol TotEng Press Volume 
     135            0   -39020.362            0   -39020.362    16916.321    4186.7204 
     175            0   -39021.234            0   -39021.234    578.37966    4190.9676 
Loop time of 0.557808 on 8 procs for 40 steps with 201 atoms

99.3% CPU use with 8 MPI tasks x no OpenMP threads

Minimization stats:
  Stopping criterion = energy tolerance
  Energy initial, next-to-last, final = 
        -39020.3622305     -39021.2341119     -39021.2343754
  Force two-norm initial, final = 1789.73 69.8988
  Force max component initial, final = 1059 40.7675
  Final line search alpha, max atom move = 9.38969e-06 0.000382795
  Iterations, force evaluations = 40 70

MPI task timing breakdown:
Section |  min time  |  avg time  |  max time  |%varavg| %total
---------------------------------------------------------------
Pair    | 0.47528    | 0.4838     | 0.49706    |   0.9 | 86.73
Neigh   | 0          | 0          | 0          |   0.0 |  0.00
Comm    | 0.0028618  | 0.0161     | 0.024606   |   4.7 |  2.89
Output  | 0.000148   | 0.00017617 | 0.00025429 |   0.0 |  0.03
Modify  | 0.055391   | 0.055405   | 0.055422   |   0.0 |  9.93
Other   |            | 0.002331   |            |       |  0.42

Nlocal:    25.125 ave 28 max 22 min
Histogram: 1 0 0 3 0 0 2 0 1 1
Nghost:    966 ave 973 max 962 min
Histogram: 3 0 1 0 2 1 0 0 0 1
Neighs:    4309 ave 4718 max 3857 min
Histogram: 1 0 0 3 0 0 2 0 1 1

Total # of neighbors = 34472
Ave neighs/atom = 171.502
Neighbor list builds = 0
Dangerous builds = 0
WARNING: Using 'neigh_modify every 1 delay 0 check yes' setting during minimization (../min.cpp:190)
WARNING: Total cutoff < 2*bond cutoff. May need to use an increased neighbor list skin. (../pair_reaxc.cpp:413)
Setting up cg style minimization ...
  Unit style    : real
  Current step  : 175
Per MPI rank memory allocation (min/avg/max) = 25.32 | 25.49 | 25.69 Mbytes
Step Temp E_pair E_mol TotEng Press 
     175            0   -39021.234            0   -39021.234    578.37966 
     187            0   -39021.382            0   -39021.382    10091.518 
Loop time of 0.762991 on 8 procs for 12 steps with 201 atoms

99.0% CPU use with 8 MPI tasks x no OpenMP threads

Minimization stats:
  Stopping criterion = energy tolerance
  Energy initial, next-to-last, final = 
        -39021.2343754     -39021.3816374     -39021.3816413
  Force two-norm initial, final = 32.5215 24.5375
  Force max component initial, final = 4.16574 7.65884
  Final line search alpha, max atom move = 0.00241395 0.0184881
  Iterations, force evaluations = 12 89

MPI task timing breakdown:
Section |  min time  |  avg time  |  max time  |%varavg| %total
---------------------------------------------------------------
Pair    | 0.60358    | 0.61689    | 0.6341     |   1.1 | 80.85
Neigh   | 0          | 0          | 0          |   0.0 |  0.00
Comm    | 0.0038851  | 0.021089   | 0.034403   |   6.1 |  2.76
Output  | 3.9324e-05 | 4.6465e-05 | 6.6664e-05 |   0.0 |  0.01
Modify  | 0.12371    | 0.12375    | 0.12378    |   0.0 | 16.22
Other   |            | 0.001221   |            |       |  0.16

Nlocal:    25.125 ave 28 max 22 min
Histogram: 1 0 0 3 0 0 2 0 1 1
Nghost:    966 ave 973 max 962 min
Histogram: 3 0 1 0 2 1 0 0 0 1
Neighs:    4307.25 ave 4717 max 3855 min
Histogram: 1 0 0 3 0 0 2 0 1 1

Total # of neighbors = 34458
Ave neighs/atom = 171.433
Neighbor list builds = 0
Dangerous builds = 0
WARNING: Total cutoff < 2*bond cutoff. May need to use an increased neighbor list skin. (../pair_reaxc.cpp:413)
Setting up Verlet run ...
  Unit style    : real
  Current step  : 0
  Time step     : 0.25
Per MPI rank memory allocation (min/avg/max) = 24.19 | 24.37 | 24.56 Mbytes
Step Temp TotEng KinEng PotEng Press 
       0          300   -38842.533     178.8486   -39021.382    12042.279 
     200    202.86324   -38784.697    120.93936   -38905.637    10495.552 
     400    257.53908   -38691.485    153.53502    -38845.02    -6765.075 
     600    325.93736    -38619.59    194.31147   -38813.901   -27335.519 
     800    301.12383   -38643.987    179.51859   -38823.505   -12684.715 
    1000    255.46396   -38675.479    152.29791   -38827.777   -19762.255 
    1200    328.32995   -38638.849    195.73784   -38834.587   -12284.866 
    1400    307.47802   -38641.086    183.30671   -38824.392   -32926.288 
    1600    292.19498   -38667.528    174.19554   -38841.723   -41750.488 
    1800    309.67255   -38642.386    184.61501   -38827.001   -3556.3657 
    2000     297.2125   -38634.918     177.1868   -38812.105     39561.11 
    2200    285.12705   -38660.276    169.98192   -38830.258     7731.158 
    2400    299.24247   -38636.789    178.39699   -38815.186   -10158.439 
    2600    294.03075   -38643.014    175.28996   -38818.304    5236.4647 
    2800    306.88477   -38665.867    182.95304    -38848.82   -9053.1896 
    3000    327.09761   -38631.348    195.00317   -38826.352    26514.335 
    3200     313.1313   -38639.766    186.67699   -38826.443   -16425.494 
    3400    312.96183   -38654.456    186.57595   -38841.032    34700.545 
    3600     289.0169   -38684.358     172.3009   -38856.659   -11621.016 
    3800    292.38179   -38648.759    174.30692   -38823.066    21616.683 
    4000    303.51721   -38643.095    180.94543    -38824.04   -20906.776 
    4200    280.05737   -38667.099    166.95956   -38834.058   -2759.3625 
    4400    287.81396     -38672.3    171.58375   -38843.884   -1434.3682 
    4600    308.92002   -38644.603    184.16638    -38828.77    -30963.96 
    4800    275.53553   -38656.408    164.26382   -38820.672   -2967.0357 
    5000    291.48349   -38676.852    173.77139   -38850.623    23264.228 
    5200    286.93388   -38641.233    171.05908   -38812.292    24099.064 
    5400     284.6022    -38653.42    169.66902   -38823.089   -32119.006 
    5600    295.18427   -38677.758    175.97765   -38853.735    12405.384 
    5800    316.79726   -38638.021    188.86249   -38826.883   -21681.024 
    6000     304.4281   -38644.514    181.48847   -38826.003    12245.722 
    6200    284.74227   -38667.717    169.75252    -38837.47    38272.997 
    6400    356.74096   -38623.677    212.67541   -38836.352    3443.1669 
    6600    287.54121   -38656.824    171.42115   -38828.245     13447.72 
    6800     301.0685   -38648.853     179.4856   -38828.339    38419.294 
    7000    320.60847   -38618.468    191.13459   -38809.603   -13169.711 
    7200      309.752   -38641.185    184.66237   -38825.847   -220.34814 
    7400     287.3027    -38663.57    171.27895   -38834.849    33834.388 
    7600    323.83864   -38628.258    193.06029   -38821.318    -926.9748 
    7800    332.31113   -38642.717    198.11127   -38840.829   -33168.011 
    8000    287.54837   -38665.717    171.42542   -38837.142    25490.013 
    8200    294.67745   -38655.009     175.6755   -38830.684   -5124.4434 
    8400    305.64641     -38636.5    182.21478   -38818.715    22504.747 
    8600    301.52601   -38642.411    179.75835   -38822.169    24987.039 
    8800    283.05213   -38669.485    168.74493    -38838.23    -11446.76 
    9000    319.59973   -38634.924    190.53322   -38825.457   -3696.2491 
    9200    278.77406   -38645.861     166.1945   -38812.056   -9701.1917 
    9400    305.70029   -38667.879     182.2469   -38850.126   -21932.356 
    9600    262.23312   -38680.939    156.33342   -38837.273    -30057.77 
    9800    290.66747   -38643.626     173.2849   -38816.911   -4858.9433 
   10000    293.22745   -38654.149    174.81107    -38828.96   -6705.0907 
   10200    303.59602   -38674.427    180.99241    -38855.42   -15174.117 
   10400    325.16603   -38636.137    193.85164   -38829.988     13997.64 
   10600    318.92388   -38655.552     190.1303   -38845.682    20311.221 
   10800    255.99301    -38673.23    152.61331   -38825.843   -12054.085 
   11000    315.45711   -38629.129    188.06355   -38817.192   -7053.9154 
   11200     278.4251    -38656.98    165.98647   -38822.967   -416.43043 
   11400    305.03575   -38660.269    181.85073    -38842.12    16762.234 
   11600     313.2762   -38627.382    186.76337   -38814.145   -35423.851 
   11800    312.51803   -38658.055    186.31138   -38844.366    5885.7271 
   12000    304.80095    -38640.06    181.71075   -38821.771   -32519.693 
   12200    307.55979   -38630.139    183.35546   -38813.494    3876.5692 
   12400     286.3729    -38659.08    170.72465   -38829.805   -4704.4776 
   12600    309.76683   -38646.071    184.67122   -38830.742    25277.377 
   12800     325.3435   -38627.869    193.95744   -38821.826     19752.04 
   13000    286.34913   -38660.854    170.71047   -38831.565    39338.392 
   13200    301.35408   -38648.657    179.65585   -38828.313    42237.728 
   13400    321.48631   -38624.529    191.65792   -38816.187    27726.195 
   13600    307.48289   -38638.367    183.30962   -38821.677   -22675.261 
   13800    306.20066   -38657.661     182.5452   -38840.206   -7936.2638 
   14000    325.88575    -38626.49     194.2807   -38820.771    32052.712 
   14200    269.54964   -38644.342    160.69525   -38805.037   -24037.777 
   14400     307.7507   -38652.723    183.46928   -38836.193    5962.2404 
   14600    299.09574    -38638.87    178.30952   -38817.179   -2732.2023 
   14800    301.89728   -38629.244    179.97969   -38809.224    746.72011 
   15000     307.3861   -38656.486    183.25192   -38839.738   -16805.514 
   15200    303.67084   -38641.056    181.03702   -38822.093    27107.638 
   15400    312.18916   -38617.518    186.11532   -38803.634    26624.946 
   15600    303.29251   -38642.779    180.81147    -38823.59   -10251.919 
   15800    298.56917   -38658.073     177.9956   -38836.069   -2608.5609 
   16000    336.55759   -38631.437    200.64285    -38832.08   -35743.862 
   16200    315.29978   -38640.314    187.96975   -38828.283   -3552.8352 
   16400    291.07834   -38657.757    173.52985   -38831.287   -7379.9114 
   16600    290.14323   -38642.066    172.97237   -38815.038   -3319.3487 
   16800    287.53034   -38664.954    171.41467   -38836.369    18828.977 
   17000    271.11026   -38667.752    161.62564   -38829.378    18147.419 
   17200    296.98618   -38644.466    177.05188   -38821.518   -9736.3367 
   17400    285.56513   -38655.728    170.24308   -38825.971   -11761.836 
   17600    278.88641   -38681.141    166.26149   -38847.403    19343.959 
   17800    292.85168   -38653.406    174.58705   -38827.993   -169.99873 
   18000     319.1653   -38640.447    190.27422   -38830.721    1745.8722 
   18200     297.6652   -38647.591    177.45669   -38825.047   -13227.002 
   18400    296.92907   -38670.795    177.01783   -38847.813     825.8751 
   18600    298.40645   -38633.499    177.89859   -38811.397    18121.585 
   18800    311.58685   -38646.549    185.75624   -38832.305    15533.328 
   19000    284.28648   -38675.233     169.4808   -38844.714    31475.267 
   19200    270.20276   -38657.637    161.08462   -38818.722    22754.663 
   19400    310.57295   -38637.124    185.15179   -38822.276   -12730.384 
   19600      268.301   -38669.403    159.95086   -38829.354   -126.77347 
   19800    297.07056   -38641.199    177.10218   -38818.301    4691.9197 
   20000    322.84851   -38641.966    192.47002   -38834.436    5258.7938 
   20200    304.08542   -38662.997    181.28417   -38844.281    36934.453 
   20400    317.33785   -38632.314    189.18477   -38821.499   -16335.229 
   20600    293.93743   -38639.005    175.23433   -38814.239    17965.693 
   20800    304.55296   -38650.544     181.5629   -38832.107   -22152.831 
   21000    287.21453   -38650.609    171.22639   -38821.835    15257.242 
   21200    274.44065   -38643.528    163.61109   -38807.139   -2941.7647 
   21400    294.43585   -38657.576    175.53147   -38833.107    2371.3743 
   21600    308.34328   -38664.303    183.82255   -38848.126   -15418.406 
   21800     306.6555   -38631.011    182.81636   -38813.827    6904.9351 
   22000    300.10682   -38660.837    178.91228   -38839.749   -4501.3979 
   22200    300.01404   -38654.415    178.85697   -38833.272   -14098.849 
   22400    317.98658   -38627.483    189.57152   -38817.054   -13879.184 
   22600     314.7249    -38638.26    187.62703   -38825.887   -22004.465 
   22800     310.4206   -38666.294    185.06097   -38851.355   -7954.4631 
   23000    310.32963   -38639.891    185.00673   -38824.897   -20694.008 
   23200    296.55692   -38640.608    176.79597   -38817.404   -22614.325 
   23400    292.21418   -38655.505    174.20699   -38829.712   -16200.498 
   23600    282.75423    -38654.27    168.56733   -38822.838     9296.745 
   23800    328.10276   -38642.716     195.6024   -38838.318    10826.837 
   24000    292.55377   -38627.838    174.40945   -38802.247   -3856.2174 
   24200    269.88097   -38665.663    160.89278   -38826.556    1316.7926 
   24400    285.50585   -38650.042    170.20774    -38820.25   -933.27999 
   24600    317.06369    -38639.44    189.02133   -38828.461    35858.529 
   24800    282.02731   -38651.926    168.13397    -38820.06    12596.656 
   25000    280.61002   -38666.358    167.28903   -38833.647    25988.323 
   25200    317.16532   -38632.776    189.08192   -38821.858   -314.12233 
   25400    285.67326   -38650.347    170.30755   -38820.654   -16872.191 
   25600    306.12439   -38657.219    182.49973   -38839.718   -16326.957 
   25800    310.28194   -38639.884     184.9783   -38824.863    33754.355 
   26000    295.75861   -38617.356    176.32005   -38793.676    20824.276 
   26200    294.08386   -38658.725    175.32163   -38834.047   -30290.171 
   26400    323.59002   -38650.119    192.91208   -38843.031   -4744.2348 
   26600    329.29659    -38623.84    196.31412   -38820.154   -7550.7563 
   26800    279.08244   -38655.316    166.37835   -38821.694   -26528.667 
   27000    320.67471   -38653.481    191.17408   -38844.655   -23085.959 
   27200    306.63016     -38618.7    182.80126   -38801.501   -11363.025 
   27400    296.05205   -38649.944    176.49499   -38826.439    22320.363 
   27600    291.04935   -38646.644    173.51257   -38820.156    12857.538 
   27800    326.74402    -38633.58    194.79237   -38828.372    20962.442 
   28000    283.01797   -38665.697    168.72456   -38834.421   -12221.168 
   28200    297.55909   -38655.981    177.39343   -38833.374   -4085.8125 
   28400     320.4968   -38633.263    191.06802   -38824.331    35663.173 
   28600    274.90965   -38661.889    163.89069    -38825.78    5725.7253 
   28800    303.09395   -38644.341     180.6931   -38825.034    12749.129 
   29000    327.37704   -38628.877    195.16975   -38824.047   -6129.7283 
   29200    310.45175   -38655.717    185.07954   -38840.796   -46564.876 
   29400    285.01687   -38653.215    169.91623   -38823.131   -414.73413 
   29600    329.20202   -38620.894    196.25774   -38817.151    23919.423 
   29800    296.72503   -38653.457    176.89619   -38830.353    34751.048 
   30000     285.4136    -38649.91    170.15274   -38820.063   -3514.3389 
   30200    306.28289   -38614.904    182.59423   -38797.498    10662.166 
   30400    334.60043   -38625.165    199.47607   -38824.641    16584.988 
   30600    290.81933   -38652.081    173.37544   -38825.456   -10046.364 
   30800    275.74617    -38662.88    164.38939   -38827.269   -22828.612 
   31000    317.19751   -38627.793    189.10111   -38816.894    6823.6173 
   31200    290.64399   -38645.698     173.2709   -38818.968   -15234.526 
   31400    297.98891   -38658.891    177.64967   -38836.541     1106.212 
   31600    296.76609   -38639.969    176.92067   -38816.889   -33494.458 
   31800    333.87121   -38612.461    199.04133   -38811.503    15369.312 
   32000    289.32597   -38655.004    172.48515   -38827.489   -17825.726 
   32200    323.47346     -38651.4    192.84259   -38844.243    3910.1868 
   32400    318.77738   -38622.712    190.04296   -38812.755   -15825.276 
   32600     310.1261   -38643.481     184.8854   -38828.366   -13743.651 
   32800    292.73165   -38660.808    174.51549   -38835.323   -5224.0267 
   33000    306.08356   -38627.309    182.47539   -38809.784    -38916.82 
   33200    307.31725   -38643.877    183.21087   -38827.088   -12992.908 
   33400     277.9837    -38650.67    165.72332   -38816.394    5867.4343 
   33600    283.67705   -38641.367    169.11748   -38810.484     20096.66 
   33800    278.87709   -38658.408    166.25593   -38824.664   -6435.9978 
   34000    289.19258   -38662.921    172.40563   -38835.327   -17725.107 
   34200    296.73792   -38631.184    176.90387   -38808.088   -16754.567 
   34400    285.51299   -38661.167      170.212   -38831.379    27629.765 
   34600    309.47422   -38653.291    184.49677   -38837.788    4410.4111 
   34800    296.26356   -38644.709    176.62108    -38821.33   -9023.7079 
   35000    292.16369   -38655.383    174.17689    -38829.56   -19636.756 
   35200     308.1057    -38647.02    183.68091     -38830.7    26748.675 
   35400    289.36536   -38635.788    172.50863   -38808.297     6563.126 
   35600     286.9451   -38663.857    171.06577   -38834.923   -41970.698 
   35800    285.73108   -38667.581    170.34202   -38837.923    8336.5213 
   36000    314.15404   -38632.566    187.28671   -38819.853    1115.9694 
   36200    309.79108   -38650.925    184.68567   -38835.611    33684.798 
   36400    289.97717   -38668.181    172.87337   -38841.055   -9721.2048 
   36600    310.35605   -38649.128    185.02249    -38834.15   -24029.223 
   36800    292.04992   -38649.315    174.10907   -38823.424    7931.1911 
   37000    318.34898   -38632.857    189.78757   -38822.644   -4000.5447 
   37200     329.8733   -38644.487    196.65793   -38841.144   -5036.3875 
   37400    284.49178   -38663.204    169.60319   -38832.807   -8815.9027 
   37600    326.53372   -38627.486      194.667   -38822.153    10279.237 
   37800    328.29491   -38629.012    195.71695   -38824.729    18953.265 
   38000    297.99525   -38656.994    177.65345   -38834.647   -2289.8695 
   38200    329.58291   -38637.078    196.48481   -38833.562    28514.382 
   38400    303.93678   -38631.797    181.19556   -38812.993    25867.273 
   38600    318.33297    -38654.17    189.77803   -38843.948    3995.5192 
   38800    306.49622   -38648.753     182.7214   -38831.475   -17752.471 
   39000    304.48811   -38644.318    181.52424   -38825.842    1420.0709 
   39200    298.16251   -38657.304    177.75316   -38835.057    451.54463 
   39400    297.41473   -38648.181    177.30736   -38825.488    8683.7997 
   39600    311.19797   -38626.934    185.52441   -38812.458    3934.2732 
   39800    286.65464   -38659.603    170.89261   -38830.496    32430.561 
   40000    303.41793   -38659.301    180.88624   -38840.187    24506.986 
   40200    342.28251   -38618.788    204.05583   -38822.844    7057.1374 
   40400    297.51754   -38639.587    177.36865   -38816.956     28914.83 
   40600    279.52157   -38664.757    166.64014   -38831.397    9758.9719 
   40800    341.12289   -38626.235    203.36451     -38829.6   -38823.004 
   41000    302.78501   -38641.155    180.50892   -38821.664   -13719.305 
   41200    300.65279   -38653.785    179.23777   -38833.023    4212.7648 
   41400    319.68033   -38633.688    190.58127   -38824.269    -2651.644 
   41600    315.75037   -38632.026    188.23838   -38820.264   -42820.884 
   41800    302.50467   -38656.944    180.34179   -38837.286    11992.025 
   42000    305.46802    -38641.62    182.10843   -38823.729    643.30378 
   42200    300.31372   -38626.256    179.03563   -38805.292   -9635.8236 
   42400    269.37523   -38658.014    160.59128   -38818.605   -27571.979 
   42600    315.01369   -38643.336     187.7992   -38831.135    9872.9318 
   42800    322.13832   -38619.991    192.04663   -38812.038   -13881.864 
   43000    296.28707   -38659.477     176.6351   -38836.112   -9829.4063 
   43200    294.12826    -38635.25     175.3481   -38810.598      32101.9 
   43400      301.258   -38641.664    179.59857   -38821.262   -9778.4347 
   43600    318.15799    -38654.32    189.67371   -38843.994   -19950.915 
   43800    301.63061   -38639.773    179.82071   -38819.593   -37129.071 
   44000    334.33133   -38623.027    199.31564   -38822.343    13651.183 
   44200    274.35834   -38663.706    163.56202   -38827.269   -3138.7713 
   44400    297.24573    -38652.87    177.20661   -38830.076   -37209.462 
   44600      343.701   -38617.872    204.90148   -38822.773   -12298.413 
   44800    310.81494   -38641.154    185.29606   -38826.451   -7983.4131 
   45000    288.83595   -38655.067    172.19302    -38827.26     11023.98 
   45200    272.39038   -38682.891     162.3888    -38845.28   -28039.947 
   45400     308.8539   -38652.531    184.12696   -38836.658   -20769.456 
   45600    286.10919   -38644.229    170.56743   -38814.797    27832.983 
   45800    281.20237   -38665.512    167.64217   -38833.154    -10730.96 
   46000     299.8884    -38662.53    178.78207   -38841.312    22644.867 
   46200    288.92489   -38638.547    172.24604   -38810.793   -7939.7855 
   46400    286.77623   -38664.674    170.96509   -38835.639   -31480.915 
   46600    298.26675   -38632.889    177.81531   -38810.704   -30580.397 
   46800    309.85844   -38641.323    184.72583   -38826.048    8929.3266 
   47000    272.16556   -38668.047    162.25477   -38830.302    13412.138 
   47200    323.93138   -38633.533    193.11558   -38826.648    12997.315 
   47400    324.36213   -38634.515    193.37238   -38827.887    12661.442 
   47600    292.42138   -38654.595    174.33052   -38828.925   -614.16617 
   47800    329.47269   -38649.923     196.4191   -38846.342   -13162.504 
   48000    286.47809   -38653.191    170.78735   -38823.978   -11830.365 
   48200    303.82126   -38613.773     181.1267     -38794.9    3934.0895 
   48400    311.95517   -38647.812    185.97582   -38833.788   -23277.147 
   48600    306.02855   -38657.478    182.44259   -38839.921    15697.351 
   48800    291.31909   -38681.046    173.67337    -38854.72   -3990.8843 
   49000    295.45778   -38642.497     176.1407   -38818.638   -15518.653 
   49200    286.11395   -38648.075    170.57026   -38818.645   -39489.627 
   49400    313.84517   -38668.119    187.10257   -38855.221    20212.886 
   49600    303.70374   -38628.025    181.05663   -38809.082    22336.946 
   49800    290.34742   -38659.554     173.0941   -38832.648    -2932.008 
   50000    294.88997   -38654.901     175.8022   -38830.703    23956.469 
   50200    333.95397   -38615.748    199.09067   -38814.839   -248.09287 
   50400    303.19934   -38634.058    180.75593   -38814.814    -24593.56 
   50600    306.00972   -38658.121    182.43137   -38840.552   -11917.276 
   50800    299.76908   -38644.444    178.71094   -38823.155   -23137.784 
   51000    314.87645   -38633.975    187.71738   -38821.692    6925.3898 
   51200    300.27812   -38664.556    179.01441    -38843.57    21816.812 
   51400    301.29052   -38658.229    179.61796   -38837.847     9923.575 
   51600    280.22154   -38645.595    167.05744   -38812.652    29939.342 
   51800    328.37593   -38606.881    195.76525   -38802.646    19978.706 
   52000    315.32129   -38644.281    187.98257   -38832.264     1774.665 
   52200    289.83625   -38656.053    172.78936   -38828.842   -19686.218 
   52400    280.99048   -38642.051    167.51585   -38809.567    26210.229 
   52600    307.40263   -38630.718    183.26177    -38813.98    28182.055 
   52800    308.70472   -38659.014    184.03803   -38843.053   -10745.492 
   53000    277.71149   -38649.215    165.56104   -38814.776   -15938.941 
   53200     321.9204    -38620.45    191.91671   -38812.366   -39523.671 
   53400    272.55089   -38666.696    162.48449   -38829.181    2532.1682 
   53600    316.80803   -38642.655    188.86891   -38831.524    10933.579 
   53800    291.59834   -38645.304    173.83986   -38819.144   -3291.9916 
   54000     269.4714   -38687.722    160.64861   -38848.371    7622.3917 
   54200    297.35691   -38659.518    177.27289   -38836.791     6437.116 
   54400    291.31234   -38634.648    173.66935   -38808.317    -14390.49 
   54600    291.27556   -38665.621    173.64742   -38839.268    4924.6908 
   54800    299.15629   -38661.587    178.34562   -38839.932    7374.7088 
   55000    301.48591   -38645.917    179.73445   -38825.651    9106.4198 
   55200    288.56583   -38651.661    172.03198   -38823.693    25644.899 
   55400    307.36656    -38648.97    183.24026   -38832.211   -10338.803 
   55600    312.93875   -38648.862     186.5622   -38835.424    19483.457 
   55800    278.54796   -38676.765    166.05971   -38842.824   -15709.222 
   56000    301.26956    -38640.44    179.60547   -38820.046     12698.02 
   56200    316.07496   -38644.208    188.43188    -38832.64    3876.5412 
   56400    294.81071   -38673.809    175.75494   -38849.564    7412.9869 
   56600    298.47969   -38654.896    177.94225   -38832.838    21101.352 
   56800    292.52091   -38645.186    174.38985   -38819.576   -6963.7695 
   57000     282.2304   -38640.609    168.25504   -38808.864   -17066.353 
   57200    305.14514   -38659.465    181.91594   -38841.381    4193.7374 
   57400    282.71076    -38665.18    168.54142   -38833.722     19650.35 
   57600    309.94238   -38630.881    184.77587   -38815.657    35118.299 
   57800    276.06631   -38659.893    164.58025   -38824.473    29177.426 
   58000    307.12971   -38655.399    183.09906   -38838.498   -2101.6742 
   58200    298.41216   -38646.644      177.902   -38824.546    2225.7322 
   58400    287.68672   -38661.621    171.50789   -38833.129   -28166.603 
   58600    290.67651   -38664.922    173.29029   -38838.212    9627.6031 
   58800    320.61895   -38633.268    191.14084   -38824.409     1649.701 
   59000    314.03221   -38655.866    187.21408    -38843.08   -340.33566 
   59200    265.03844   -38698.507    158.00585   -38856.513   -26068.603 
   59400    285.94093   -38675.422    170.46712   -38845.889    2198.7074 
   59600    291.74643   -38639.974    173.92814   -38813.902   -16797.576 
   59800    309.53832    -38647.14    184.53499   -38831.675     3709.802 
   60000    267.66143   -38677.435    159.56957   -38837.004    22770.292 
   60200    295.58854   -38656.742    176.21866   -38832.961    3068.8498 
   60400    309.09272   -38635.655    184.26934   -38819.924    15377.284 
   60600    292.88087   -38655.524    174.60445   -38830.128   -23165.923 
   60800    255.38982   -38665.485    152.25371   -38817.738    2422.5835 
   61000    328.94139   -38636.276    196.10236   -38832.379   -29116.331 
   61200    315.80022   -38654.193     188.2681   -38842.461   -21652.765 
   61400    279.89417    -38650.97    166.86227   -38817.832    13484.251 
   61600    292.20711   -38631.963    174.20278   -38806.166   -2614.7116 
   61800    309.48147   -38662.735    184.50109   -38847.236     34741.25 
   62000    283.24261   -38653.772    168.85848    -38822.63    11339.264 
   62200    339.98531   -38610.294    202.68633    -38812.98    -15066.88 
   62400    320.13999   -38646.815     190.8553    -38837.67    23810.182 
   62600    287.88411   -38665.144    171.62557    -38836.77    7648.9183 
   62800     308.2329   -38631.381    183.75674   -38815.137   -517.30822 
   63000      317.409   -38639.455    189.22719   -38828.683   -18102.051 
   63200    316.69733   -38649.697    188.80292     -38838.5    23818.711 
   63400    317.81543    -38648.45    189.46949   -38837.919    28324.386 
   63600    262.66276   -38660.097    156.58956   -38816.686   -20284.998 
   63800     310.2766   -38651.887    184.97512   -38836.862   -27273.275 
   64000    321.77323   -38630.062    191.82898   -38821.891   -7257.2925 
   64200     286.6584   -38670.261    170.89485   -38841.156   -8292.4393 
   64400    311.57231    -38645.71    185.74757   -38831.458     39999.12 
   64600    288.59619    -38650.35    172.05008   -38822.401   -4161.7953 
   64800    263.27449   -38674.866    156.95425    -38831.82    11917.852 
   65000    324.64018   -38649.298    193.53814   -38842.836   -56022.726 
   65200    308.29565   -38648.918    183.79415   -38832.713    -21431.53 
   65400    281.21835   -38673.071     167.6517   -38840.722   -25563.992 
   65600    308.89601   -38653.045    184.15206   -38837.197    15260.154 
   65800    324.45367   -38641.479    193.42695   -38834.906    1559.4679 
   66000    278.16512    -38672.47    165.83148   -38838.302   -8628.2153 
   66200    286.13049    -38673.65    170.58013    -38844.23   -4796.2396 
   66400    307.51263   -38650.873    183.32735     -38834.2   -17320.963 
   66600    320.04075   -38643.444    190.79614    -38834.24    3819.0554 
   66800    287.77426   -38668.542    171.56008   -38840.102    1920.6601 
   67000    302.01278   -38654.213    180.04854   -38834.262   -27441.421 
   67200    285.47279   -38638.869    170.18803   -38809.057   -2074.7825 
   67400    306.75526   -38656.004    182.87583    -38838.88   -3651.2516 
   67600    268.12071   -38680.202    159.84338   -38840.045   -7275.3101 
   67800     283.9221    -38658.83    169.26357   -38828.093    21610.136 
   68000    313.90368   -38644.453    187.13745    -38831.59    11840.733 
   68200    263.41431   -38676.682    157.03761   -38833.719    6061.4529 
   68400    271.89828   -38661.998    162.09542   -38824.094    -18459.03 
   68600    283.00747   -38651.957     168.7183   -38820.676   -22985.739 
   68800    310.12019   -38646.164    184.88187   -38831.046   -12829.309 
   69000    307.55275   -38639.735    183.35126   -38823.086    28565.795 
   69200    292.10409   -38667.961    174.14136   -38842.103   -2762.1288 
   69400    295.55798    -38651.18    176.20044    -38827.38    2608.6617 
   69600    283.29689   -38640.588    168.89084   -38809.479   -13877.734 
   69800    294.53086   -38664.344    175.58811   -38839.933   -866.48376 
   70000    337.10769   -38625.242     200.9708   -38826.213    13537.467 
   70200    289.93492   -38649.067    172.84819   -38821.915    12171.273 
   70400    303.43311   -38662.576     180.8953   -38843.471    -46814.55 
   70600    344.99075   -38619.149    205.67038    -38824.82    1176.6256 
   70800    292.26611    -38646.95    174.23795   -38821.188   -13831.772 
   71000    289.41946   -38653.668    172.54089   -38826.209     11296.26 
   71200    342.95053    -38617.43    204.45408   -38821.884    39388.799 
   71400    322.08097   -38636.696    192.01244   -38828.708    16028.675 
   71600    300.83339   -38651.271    179.34544   -38830.616   -36.914513 
   71800    330.87168   -38649.102    197.25313   -38846.356   -24069.196 
   72000    314.77867   -38625.449    187.65908   -38813.108    42845.902 
   72200    286.91124     -38662.8    171.04558   -38833.845    13187.533 
   72400    299.85658   -38651.551     178.7631   -38830.314    22115.303 
   72600    307.57209   -38633.517     183.3628    -38816.88    65622.093 
   72800    282.95932   -38672.852     168.6896   -38841.542   -16111.319 
   73000    304.62629   -38645.439    181.60662   -38827.045   -6688.2575 
   73200    277.75024   -38648.886    165.58414   -38814.471   -9227.5333 
   73400    283.68214   -38676.248    169.12051   -38845.368   -9775.2137 
   73600    322.58713   -38648.183    192.31419   -38840.498    22625.834 
   73800    299.53587   -38643.975     178.5719   -38822.547   -24578.994 
   74000    282.43702    -38667.54    168.37822   -38835.918   -3171.1368 
   74200    266.03506   -38684.346        158.6   -38842.946    14423.458 
   74400    293.50086    -38651.11    174.97406   -38826.084    19943.686 
   74600    312.16849   -38633.882    186.10299   -38819.985    4388.4015 
   74800    274.67477   -38673.102    163.75067   -38836.853    2506.0327 
   75000    305.96189   -38653.233    182.40285   -38835.636   -7889.0237 
   75200    321.08382   -38640.655    191.41798   -38832.073   -16542.185 
   75400    284.17762   -38648.244     169.4159    -38817.66   -19715.092 
   75600     298.6116   -38673.411    178.02089   -38851.431   -12785.353 
   75800    286.07767   -38677.793    170.54864   -38848.341   -7280.1858 
   76000     309.7035   -38648.828    184.63346   -38833.461    4316.7441 
   76200    277.65536   -38644.734    165.52758   -38810.262    21974.808 
   76400    284.82535   -38671.519    169.80205   -38841.321    -3472.744 
   76600    283.41914   -38656.071    168.96372   -38825.035    17799.291 
   76800    313.81191   -38640.016    187.08274   -38827.098   -4200.5179 
   77000     274.4961   -38667.741    163.64415   -38831.385    10801.196 
   77200    321.79408   -38644.346    191.84141   -38836.187   -14566.946 
   77400    314.14542    -38638.12    187.28157   -38825.401    -26880.72 
   77600    283.62301   -38664.035    169.08526    -38833.12    15767.879 
   77800    291.57629   -38641.395    173.82671   -38815.222    35737.509 
   78000    335.14824    -38601.84    199.80265   -38801.643    14964.286 
   78200    321.46763   -38638.717    191.64679   -38830.364    25081.767 
   78400    282.33808   -38664.227    168.31924   -38832.546   -33630.715 
   78600    299.28395   -38635.062    178.42172   -38813.484    16389.713 
   78800    300.55277   -38645.074    179.17815   -38824.252     18358.48 
   79000     292.8993   -38666.415    174.61544   -38841.031    4866.4815 
   79200    295.94501   -38636.537    176.43117   -38812.968    19640.675 
   79400    299.56434   -38650.747    178.58888   -38829.336    14407.119 
   79600    295.42537    -38671.81    176.12139   -38847.932   -38979.527 
   79800     319.6344   -38640.183    190.55389   -38830.737    11788.012 
   80000    299.79464   -38650.858    178.72617   -38829.584    6364.4986 
   80200    282.32087   -38681.611    168.30898    -38849.92   -19162.686 
   80400    287.91197    -38661.56    171.64218   -38833.202    4187.3743 
   80600    317.97376    -38643.07    189.56388   -38832.634    11817.026 
   80800    273.65277   -38675.264    163.14138   -38838.405     9777.524 
   81000    283.05721   -38659.027    168.74795   -38827.775   -8899.5614 
   81200    288.03948   -38649.049    171.71819   -38820.767   -14017.625 
   81400    322.15663   -38640.979    192.05755   -38833.036    -28173.29 
   81600    280.35199   -38652.832     167.1352   -38819.968   -18463.319 
   81800    279.34933   -38672.928    166.53746   -38839.465        17182 
   82000    348.01498   -38636.633    207.47331   -38844.107    823.81321 
   82200    272.33477   -38661.326    162.35564   -38823.682    20289.716 
   82400    301.17191   -38647.406    179.54725   -38826.953    9299.7998 
   82600    318.38022    -38634.43    189.80619   -38824.236    8337.9181 
   82800    267.33323   -38656.783    159.37391   -38816.157   -24593.681 
   83000    301.89966   -38649.946    179.98111   -38829.927   -9741.9564 
   83200    313.91561   -38626.637    187.14456   -38813.782   -16227.948 
   83400    315.50568   -38645.197     188.0925   -38833.289   -2726.9533 
   83600    276.82241   -38663.041      165.031   -38828.072    15468.654 
   83800    295.69194   -38634.591     176.2803   -38810.871   -289.29553 
   84000    331.03766   -38617.647    197.35208   -38814.999    30926.966 
   84200    304.05589   -38653.799    181.26657   -38835.066   -11535.869 
   84400    297.99737   -38652.844    177.65471   -38830.499    40573.921 
   84600    325.28861   -38632.455    193.92471    -38826.38   -33615.684 
   84800    302.47485   -38666.603    180.32401   -38846.927    12488.693 
   85000     287.8186    -38654.12    171.58651   -38825.706    16306.263 
   85200    292.92053   -38633.132    174.62809    -38807.76    7441.7179 
   85400    307.89368   -38653.841    183.55452   -38837.396   -2384.5601 
   85600    270.58249    -38658.62      161.311   -38819.931   -34597.894 
   85800    314.61815   -38631.381    187.56339   -38818.944     63956.88 
   86000    350.05782   -38620.544    208.69117   -38829.235   -18148.857 
   86200    309.72773   -38651.134    184.64791   -38835.782    13882.834 
   86400    290.30949   -38663.017    173.07149   -38836.089   -23447.603 
   86600    329.17686   -38630.321    196.24274   -38826.564    18254.982 
   86800    289.84407   -38656.122    172.79402   -38828.916    12881.493 
   87000    290.56466   -38667.195    173.22361   -38840.419    -51250.98 
   87200    285.56549   -38647.521     170.2433   -38817.764   -33191.139 
   87400    321.75998   -38627.321    191.82108   -38819.143   -25173.317 
   87600    281.64468   -38650.585    167.90586    -38818.49    2859.4514 
   87800    293.40718   -38658.653    174.91822   -38833.571   -8960.2038 
   88000    318.96147    -38634.38    190.15271   -38824.532    20832.721 
   88200    288.47765   -38646.359    171.97941   -38818.338   -14958.936 
   88400    309.97836   -38655.584    184.79733   -38840.381   -748.02562 
   88600    258.68907   -38679.237     154.2206   -38833.457   -3172.2539 
   88800    305.90098   -38643.259    182.36654   -38825.626   -16556.191 
   89000    329.85751   -38646.537    196.64852   -38843.186    6603.9825 
   89200    285.64217   -38672.713    170.28901   -38843.002    1126.7661 
   89400    316.40768   -38630.711    188.63024   -38819.341    3133.7008 
   89600    288.38973   -38657.444      171.927   -38829.371    37804.383 
   89800    298.21374    -38653.77     177.7837   -38831.554    21514.809 
   90000    325.02469   -38625.123    193.76737    -38818.89   -11401.077 
   90200    316.26644   -38653.691    188.54603   -38842.237    6734.3332 
   90400    327.97782   -38648.674    195.52792   -38844.202   -27533.352 
   90600    329.15543   -38625.662    196.22996   -38821.892    2376.4327 
   90800    303.08313   -38660.612    180.68665   -38841.298   -28895.246 
   91000    315.68346   -38654.694    188.19848   -38842.892    3491.0016 
   91200    326.10746    -38617.28    194.41288   -38811.693    26601.849 
   91400    290.25867   -38638.997    173.04119   -38812.038   -20968.474 
   91600    286.59522   -38655.941    170.85718   -38826.799   -10288.409 
   91800    315.32421   -38636.067    187.98432   -38824.052    11815.146 
   92000    311.78874   -38632.125     185.8766   -38818.002     27027.56 
   92200    281.71517   -38659.131    167.94788   -38827.079   -24799.635 
   92400    313.62581   -38636.396    186.97179   -38823.368    32493.196 
   92600    322.07375   -38639.877    192.00814   -38831.886   -2320.8393 
   92800    275.59194   -38665.859    164.29745   -38830.156    840.79759 
   93000    297.19578   -38634.275    177.17683   -38811.452     -4065.07 
   93200    274.83933   -38657.048    163.84876   -38820.897     -25590.9 
   93400     314.9967   -38663.055    187.78907   -38850.844    678.12363 
   93600    326.50009   -38638.301    194.64695   -38832.948   -3602.4676 
   93800     293.8434   -38663.918    175.17827   -38839.097    41213.321 
   94000    271.03042   -38689.904    161.57804   -38851.482      15439.7 
   94200    302.92554   -38652.928     180.5927   -38833.521     3880.664 
   94400    347.03339   -38637.016    206.88813   -38843.905   -23896.004 
   94600    293.69652   -38665.596    175.09071   -38840.686    17245.455 
   94800    290.29808    -38653.72    173.06469   -38826.784    -20907.21 
   95000    312.82904   -38640.582    186.49679   -38827.078    1517.1129 
   95200    276.08524   -38662.298    164.59153    -38826.89    1895.4553 
   95400    316.36926    -38628.97    188.60734   -38817.577   -19927.725 
   95600    318.97565   -38637.912    190.16117   -38828.074    12807.045 
   95800    308.22817   -38650.484    183.75393   -38834.238    13412.837 
   96000    288.04027   -38641.911    171.71867    -38813.63    41016.055 
   96200    302.57991   -38658.045    180.38665   -38838.432   -21843.179 
   96400    270.49455   -38657.826    161.25857   -38819.085    -645.8373 
   96600    313.96521   -38628.066    187.17413    -38815.24    26217.026 
   96800      295.239   -38660.823    176.01027   -38836.833   -15773.267 
   97000    327.30983    -38656.22    195.12969   -38851.349   -19553.377 
   97200    325.04364   -38630.011    193.77867    -38823.79    3769.9249 
   97400    314.10987   -38630.927    187.26037   -38818.187    6833.9967 
   97600    302.54678   -38651.161     180.3669   -38831.528   -4527.0331 
   97800    327.65993   -38635.176    195.33841   -38830.514   -16823.416 
   98000    286.58608   -38664.641    170.85174   -38835.493    40079.278 
   98200    296.06417    -38654.95    176.50221   -38831.453     25734.95 
   98400    332.47412   -38638.169    198.20844   -38836.377    2839.1703 
   98600    289.70299    -38659.89    172.70992   -38832.599    22752.509 
   98800    284.58213   -38656.457    169.65706   -38826.114     9631.793 
   99000    297.96123   -38633.166    177.63316     -38810.8   -8550.7304 
   99200    282.41092    -38660.98    168.36266   -38829.342   -8846.6294 
   99400    297.73492   -38654.194    177.49825   -38831.693    2542.4366 
   99600    319.86855   -38646.989    190.69348   -38837.682    427.11106 
   99800    324.36513   -38636.018    193.37417   -38829.392   -18550.808 
  100000    307.21022   -38656.652    183.14706   -38839.799   -1356.8925 
  100200    280.85349   -38663.845    167.43418    -38831.28   -1281.5448 
  100400    305.02109   -38626.257    181.84199   -38808.099   -11076.565 
  100600     304.0578   -38653.731    181.26771   -38834.999   -19687.969 
  100800    300.68357   -38650.478    179.25612   -38829.734   -21111.801 
  101000    319.68543   -38616.953    190.58431   -38807.537    -34082.91 
  101200     289.0968   -38644.232    172.34853    -38816.58    10754.408 
  101400     274.7264   -38660.222    163.78144   -38824.004    7745.6904 
  101600    292.51732   -38618.967    174.38771   -38793.355   -6097.6893 
  101800    327.75698   -38639.216    195.39626   -38834.613   -10428.592 
  102000    293.76575   -38657.203    175.13198   -38832.335   -25226.603 
  102200    271.91718   -38678.487    162.10669   -38840.593    27375.347 
  102400    312.30803   -38644.129    186.18618   -38830.315    7326.6683 
  102600    299.86407   -38641.999    178.76757   -38820.766   -21305.249 
  102800    294.63538   -38665.065    175.65042   -38840.716   -11300.201 
  103000    294.19521     -38660.9    175.38801   -38836.288   -26861.531 
  103200    310.91086   -38633.734    185.35325   -38819.087    25076.816 
  103400    306.70713   -38663.086    182.84714   -38845.933   -16234.961 
  103600    261.89597   -38665.154    156.13243   -38821.287    22784.651 
  103800    306.24165   -38645.895    182.56963   -38828.464    23416.503 
  104000     293.7081   -38634.657    175.09761   -38809.754    38778.351 
  104200    311.26354   -38639.738     185.5635   -38825.302    33348.744 
  104400     297.8686   -38667.186    177.57795   -38844.764   -57455.661 
  104600    309.76066   -38628.178    184.66754   -38812.845    38479.451 
  104800    325.88376   -38645.784    194.27952   -38840.063    13433.002 
  105000    278.51078   -38663.423    166.03755    -38829.46    -6553.965 
  105200     298.3223   -38643.134    177.84842   -38820.983     47193.45 
  105400     312.6371   -38639.747    186.38236   -38826.129    6160.0554 
  105600    258.17611   -38665.217    153.91479   -38819.132   -932.71801 
  105800    323.56671   -38626.714    192.89818   -38819.612    1396.3778 
  106000    287.92142    -38639.63    171.64781   -38811.278   -27173.493 
  106200    299.67257   -38651.745     178.6534   -38830.398   -31960.618 
  106400    277.97822   -38664.632    165.72006   -38830.352    13181.558 
  106600    309.88686   -38645.021    184.74277   -38829.763    12884.534 
  106800    324.34181   -38621.569    193.36027   -38814.929   -28773.629 
  107000    284.46652   -38659.358    169.58813   -38828.946    -38209.24 
  107200    285.70759   -38645.337    170.32801   -38815.665   -4604.8185 
  107400    328.77155   -38614.676    196.00111   -38810.677   -39852.226 
  107600    288.07542   -38659.468    171.73962   -38831.208   -24662.455 
  107800    271.15039   -38646.307    161.64956   -38807.957   -11037.838 
  108000    310.24858    -38631.31    184.95842   -38816.269    9970.4529 
  108200    287.73234   -38665.288    171.53509   -38836.823    38261.491 
  108400    299.58278   -38644.373    178.59987   -38822.973     15120.87 
  108600    310.95086   -38631.291    185.37709   -38816.668    3009.2981 
  108800    299.75162   -38665.542    178.70053   -38844.243    6617.8353 
  109000    322.57162   -38634.934    192.30494   -38827.239     5716.615 
  109200    313.07619   -38652.744    186.64413   -38839.388    34271.767 
  109400    292.70142   -38671.367    174.49746   -38845.865    9678.4801 
  109600    273.75513   -38636.803    163.20241   -38800.006   -17032.159 
  109800    295.50627   -38647.788    176.16961   -38823.957   -3239.2785 
  110000    271.41844   -38686.736    161.80936   -38848.545    11927.879 
  110200    309.50596    -38660.05    184.51569   -38844.566    6410.1359 
  110400    307.57081   -38639.548    183.36203    -38822.91   -31885.493 
  110600    303.63808   -38650.651    181.01749   -38831.668    5181.7599 
  110800    288.49615   -38665.078    171.99045   -38837.069   -6777.6471 
  111000    319.53383   -38632.661    190.49393   -38823.155   -14568.601 
  111200    298.15076   -38644.583    177.74616   -38822.329    28991.787 
  111400     295.6081   -38651.926    176.23032   -38828.156    -15354.32 
  111600    267.59507   -38677.266    159.53001   -38836.796   -14212.439 
  111800    296.64452   -38643.929     176.8482   -38820.778   -30637.197 
  112000    307.41451   -38648.217    183.26885   -38831.486   -9780.2927 
  112200    271.45003   -38685.691     161.8282   -38847.519   -28543.054 
  112400    283.43288   -38655.632    168.97191   -38824.604    21801.877 
  112600    311.00846   -38644.761    185.41143   -38830.173    27124.689 
  112800    288.78459   -38646.552     172.1624   -38818.714   -14841.441 
  113000    305.15714   -38667.216    181.92309   -38849.139   -249.16724 
  113200    329.84278   -38633.859    196.63973   -38830.499    4636.1528 
  113400    321.43774   -38644.953    191.62897   -38836.582   -9612.3683 
  113600    291.53946   -38662.678    173.80475   -38836.483    -3701.876 
  113800    295.73378   -38650.117    176.30524   -38826.422    3747.5722 
  114000    313.06703   -38627.644    186.63867   -38814.283   -19611.301 
  114200    287.82382   -38661.884    171.58963   -38833.474    33324.464 
  114400    277.38415   -38653.619    165.36589   -38818.985   -26556.997 
  114600    294.32537   -38635.091     175.4656   -38810.557    18737.519 
  114800    272.61869   -38677.876    162.52491   -38840.401   -4386.2556 
  115000    290.32772   -38661.562    173.08236   -38834.645   -25620.828 
  115200    332.42349   -38636.525    198.17825   -38834.704   -19285.977 
  115400    262.04155   -38667.955    156.21922   -38824.175   -19917.835 
  115600    297.30418   -38656.743    177.24146   -38833.985    6270.8285 
  115800     305.9314   -38637.201    182.38468   -38819.586    703.65514 
  116000    302.49904   -38644.103    180.33844   -38824.441    11874.754 
  116200    295.78965   -38661.926    176.33855   -38838.265   -11178.191 
  116400    300.16374   -38650.315    178.94622   -38829.261   -20080.878 
  116600    321.65956   -38633.218    191.76121   -38824.979    35126.579 
  116800    300.90062   -38667.483    179.38552   -38846.868   -28841.706 
  117000    290.45264   -38658.302    173.15683   -38831.459   -12461.214 
  117200    294.95392   -38639.418    175.84032   -38815.258   -7207.5635 
  117400    344.19156   -38611.477    205.19393   -38816.671   -21588.215 
  117600    287.97575   -38657.295     171.6802   -38828.975   -2594.9907 
  117800    313.19676    -38644.92    186.71601   -38831.636    6188.2358 
  118000    284.04729   -38636.994     169.3382   -38806.333   -3282.6409 
  118200    286.93657    -38670.61    171.06068   -38841.671    8535.1376 
  118400     326.7088   -38644.193    194.77137   -38838.965     7638.837 
  118600    291.23243   -38644.369    173.62171   -38817.991     11217.16 
  118800      270.274   -38672.189    161.12709   -38833.317    27279.664 
  119000    278.15658   -38661.489    165.82639   -38827.316   -15219.302 
  119200    305.40482   -38639.571    182.07075   -38821.642    23048.227 
  119400    304.41047   -38660.038    181.47796   -38841.516    28961.363 
  119600    285.97248     -38666.6    170.48593   -38837.086    4055.5256 
  119800    309.53331   -38644.043      184.532   -38828.575    16694.227 
  120000    290.76235   -38651.848    173.34146   -38825.189   -4388.1338 
  120200     285.2361   -38678.463    170.04693   -38848.509    -2791.752 
  120400    314.85245   -38647.818    187.70307   -38835.521    -19669.32 
  120600    280.91245   -38647.728    167.46933   -38815.197   -33016.348 
  120800    263.81323   -38674.982    157.27542   -38832.257    3558.8821 
  121000    308.71587     -38651.8    184.04467   -38835.845   -5519.9961 
  121200    295.19327   -38640.402    175.98302   -38816.385    48645.851 
  121400      309.727   -38661.671    184.64747   -38846.319    3029.8946 
  121600    269.41553   -38663.592     160.6153   -38824.208    7383.5979 
  121800    294.08145   -38639.994    175.32019   -38815.314    35232.923 
  122000    294.42569   -38657.956    175.52541   -38833.482   -63292.144 
  122200    297.92349   -38659.876    177.61066   -38837.487    13228.481 
  122400    324.45672   -38626.888    193.42877   -38820.316    13700.837 
  122600     276.0623   -38660.922    164.57785     -38825.5    11047.429 
  122800    296.22643   -38659.851    176.59895    -38836.45    13303.643 
  123000    296.07144   -38639.277    176.50655   -38815.784   -22819.702 
  123200    321.77414   -38620.957    191.82952   -38812.787     4892.055 
  123400    293.69436   -38662.495    175.08942   -38837.585   -16260.159 
  123600    286.98752   -38643.789    171.09106    -38814.88    26725.436 
  123800     294.9284   -38635.629    175.82511   -38811.454   -7277.3358 
  124000    312.34436   -38651.785    186.20784   -38837.993    10097.753 
  124200    287.07415   -38645.039     171.1427   -38816.182    17023.565 
  124400     314.7341   -38627.728    187.63252    -38815.36    25336.969 
  124600    289.42907   -38662.305    172.54662   -38834.851    14929.227 
  124800    293.59916   -38656.736    175.03267   -38831.769     22120.77 
  125000    326.76441   -38615.843    194.80453   -38810.648    55699.915 
  125200     334.2529   -38609.774    199.26888   -38809.043   -7454.5996 
  125400     291.7865    -38651.77    173.95202   -38825.722   -16275.614 
  125600    309.29157   -38659.291    184.38789   -38843.678   -5369.1744 
  125800    322.93272   -38625.624    192.52022   -38818.144   -27519.574 
  126000    313.17864   -38648.501    186.70521   -38835.206   -9965.0722 
  126200    287.64258   -38649.839    171.48158   -38821.321   -10879.057 
  126400     303.7253   -38638.924    181.06949   -38819.993    14850.749 
  126600    292.86361   -38655.034    174.59416   -38829.628    13563.339 
  126800    256.49693   -38664.728    152.91373   -38817.642    6235.6726 
  127000    302.58257    -38627.86    180.38824   -38808.249    -13113.51 
  127200    313.67718   -38649.814    187.00242   -38836.817    3729.4487 
  127400    285.05441    -38659.96    169.93861   -38829.898   -14893.423 
  127600    309.30151    -38637.96    184.39381   -38822.354   -36545.676 
  127800    288.70677   -38652.175    172.11601   -38824.291   -9299.7181 
  128000     277.5058   -38662.215    165.43842   -38827.654    16691.714 
  128200     316.1811   -38638.866    188.49516   -38827.362   -22598.485 
  128400    271.14125    -38651.09    161.64411   -38812.734    6131.5584 
  128600     277.4116   -38649.808    165.38226   -38815.191    32184.474 
  128800    321.18333   -38637.603     191.4773   -38829.081    5838.1753 
  129000    310.11552    -38621.89    184.87909   -38806.769   -1914.1271 
  129200    308.63441   -38660.328    183.99611   -38844.325   -17327.529 
  129400    287.11485   -38651.671    171.16697   -38822.838     19614.36 
  129600    343.43415    -38618.21    204.74239   -38822.952    4662.9069 
  129800    325.70545   -38620.696    194.17322    -38814.87    25000.157 
  130000    281.07152   -38662.568    167.56416   -38830.132    40591.405 
  130200    288.64112   -38652.849    172.07687   -38824.926    4878.2981 
  130400    307.11942   -38635.574    183.09293   -38818.667   -16735.364 
  130600    307.29123   -38651.036    183.19536   -38834.231    14089.095 
  130800    296.90954   -38654.109    177.00619   -38831.115   -10014.318 
  131000    312.90905   -38644.686    186.54449    -38831.23    3163.4241 
  131200    298.84245   -38621.386    178.15852   -38799.545    5482.6235 
  131400    280.66949   -38649.136    167.32449   -38816.461    -3414.192 
  131600    293.89925   -38652.628    175.21157    -38827.84     2621.352 
  131800    287.03607   -38665.714       171.12   -38836.834    -9347.253 
  132000    297.91613   -38644.475    177.60628   -38822.082   -20003.352 
  132200    298.74792   -38635.587    178.10216   -38813.689   -14784.054 
  132400    291.10592   -38671.985    173.54629   -38845.531    16927.138 
  132600    262.40554    -38655.45    156.43621   -38811.887   -19873.637 
  132800    303.35096   -38638.889    180.84632   -38819.735    12284.447 
  133000      278.068   -38672.112    165.77358   -38837.886   -6121.5141 
  133200    302.92534   -38648.643    180.59258   -38829.235      9549.86 
  133400    319.02735   -38647.958    190.19199    -38838.15    13603.493 
  133600    311.39837   -38660.786    185.64388    -38846.43    18012.158 
  133800    298.21138   -38657.884     177.7823   -38835.667   -12680.528 
  134000    317.39479   -38629.985    189.21872   -38819.204    5813.9064 
  134200    292.35952   -38668.887    174.29364   -38843.181    2601.6796 
  134400    295.28239   -38654.958    176.03614   -38830.994   -14658.577 
  134600     304.8825   -38640.656    181.75937   -38822.415   -10933.521 
  134800    291.66551   -38653.755     173.8799   -38827.635   -21180.386 
  135000    315.63438   -38652.142    188.16923   -38840.311   -6415.7159 
  135200    310.71573   -38640.645    185.23692   -38825.882   -19281.871 
  135400    311.31288   -38656.227    185.59291    -38841.82    11030.119 
  135600    310.03305   -38659.114    184.82992   -38843.944   -13251.272 
  135800    315.98803   -38628.187    188.38006   -38816.567   -10365.619 
  136000    293.33697   -38652.236    174.87636   -38827.112   -6651.1664 
  136200    298.52242   -38660.639    177.96773   -38838.607   -14566.927 
  136400    322.03089   -38620.164    191.98259   -38812.147   -1930.3633 
  136600    293.59648   -38651.378    175.03107   -38826.409    13259.903 
  136800    285.48121   -38658.316    170.19305   -38828.509    50183.946 
  137000     309.9405   -38637.612    184.77475   -38822.387   -14167.895 
  137200    308.05289   -38640.022    183.64943   -38823.671    5578.9985 
  137400    301.73201    -38661.59    179.88116   -38841.471     2059.696 
  137600    302.13904   -38635.011    180.12382   -38815.135    9906.8552 
  137800    302.69572   -38662.138    180.45569   -38842.594    33979.152 
  138000    301.58931    -38665.67    179.79609   -38845.466   -16025.077 
  138200    324.69291   -38631.761    193.56958    -38825.33   -2113.9257 
  138400    292.84041   -38659.047    174.58033   -38833.627    9028.3588 
  138600    284.96792   -38661.464    169.88705   -38831.351    22839.698 
  138800    305.83272   -38637.555    182.32585   -38819.881   -9510.4334 
  139000    285.96832    -38664.78    170.48345   -38835.264    -2011.424 
  139200    311.82847    -38634.16    185.90029    -38820.06    1105.0913 
  139400    302.29909   -38633.247    180.21923   -38813.466   -27115.536 
  139600    307.54443   -38656.115     183.3463   -38839.461    -7751.157 
  139800    287.61185   -38661.408    171.46326   -38832.871   -34154.899 
  140000    343.88474   -38623.583    205.01102   -38828.594    11060.538 
  140200    323.57824   -38657.564    192.90506   -38850.469   -22524.917 
  140400    291.84659    -38657.25    173.98785   -38831.238    39256.748 
  140600    278.54021   -38639.284    166.05509   -38805.339    7490.8617 
  140800    346.22369   -38623.812    206.40541   -38830.217   -24598.673 
  141000    304.30467   -38654.249    181.41489   -38835.664    19274.545 
  141200    276.42511   -38663.128    164.79415   -38827.922    4839.8648 
  141400      305.574   -38645.385    182.17161   -38827.557    28776.122 
  141600      327.344   -38629.632    195.15006   -38824.783    5841.3391 
  141800     308.6097   -38660.705    183.98138   -38844.686     6070.144 
  142000    325.50051   -38642.432    194.05104   -38836.483   -7266.3944 
  142200    327.91619   -38624.592    195.49118   -38820.083    22798.331 
  142400    287.57746   -38655.206    171.44276   -38826.649    18408.307 
  142600    290.88093   -38654.148    173.41216    -38827.56   -5533.6464 
  142800    301.49534   -38629.567    179.74007   -38809.307    -14540.57 
  143000    318.30366   -38649.239    189.76055       -38839   -3146.4055 
  143200    269.76471   -38671.415    160.82347   -38832.239    3714.4444 
  143400    283.74509     -38678.8    169.15805   -38847.958   -3031.8581 
  143600    275.56194   -38643.839    164.27956   -38808.118    13074.234 
  143800    302.76679   -38649.358    180.49806   -38829.856    6473.6598 
  144000    267.68847   -38676.066     159.5857   -38835.652    10031.215 
  144200    313.13542   -38639.979    186.67944   -38826.659   -30050.182 
  144400    298.37738   -38644.202    177.88126   -38822.083   -37552.625 
  144600    301.48513   -38656.063    179.73398   -38835.797   -4814.2007 
  144800    278.90934   -38668.725    166.27515       -38835    15533.545 
  145000    302.00831   -38632.782    180.04588   -38812.828   -28093.551 
  145200    309.29761   -38649.149    184.39149    -38833.54   -3659.4229 
  145400    298.29425   -38655.189     177.8317   -38833.021    7889.5945 
  145600    305.54694   -38642.134    182.15548   -38824.289     9731.907 
  145800    316.08422   -38643.879     188.4374   -38832.316     -10712.8 
  146000    267.54424   -38668.296    159.49971   -38827.795    9668.4045 
  146200    308.53238   -38630.034    183.93528   -38813.969    28250.731 
  146400    326.97784   -38647.904    194.93177   -38842.836    1347.6166 
  146600    256.22532   -38672.026     152.7518   -38824.778   -10055.481 
  146800    307.61095   -38631.034    183.38596    -38814.42    38954.065 
  147000    288.96873   -38646.419    172.27218   -38818.692    21291.004 
  147200     288.3989   -38665.534    171.93247   -38837.466    5949.0471 
  147400    268.80417   -38640.937    160.25084   -38801.188    47973.713 
  147600    322.99886   -38646.842    192.55965   -38839.401    20776.207 
  147800    316.45992   -38664.932    188.66138   -38853.594    22204.357 
  148000    301.58721   -38630.024    179.79484   -38809.819    21700.515 
  148200    325.64312   -38641.336    194.13606   -38835.472    13027.818 
  148400    280.36675   -38659.205      167.144   -38826.349    4256.3307 
  148600    287.55964   -38637.018    171.43213    -38808.45    17142.749 
  148800    360.16453   -38600.065    214.71641   -38814.782   -19017.634 
  149000    296.79316   -38643.815     176.9368   -38820.752    21600.574 
  149200    319.75286   -38657.217    190.62451   -38847.841    4838.7024 
  149400    305.22736   -38629.052    181.96496   -38811.017    6140.7804 
  149600    265.40472    -38633.08    158.22421   -38791.304    28445.481 
  149800    303.82213    -38652.96    181.12721   -38834.087   -41137.925 
  150000    315.14425   -38635.045    187.87703   -38822.922   -15257.969 
  150200    316.98861   -38612.959    188.97656   -38801.935    15584.134 
  150400    292.52054   -38654.871    174.38963    -38829.26    9244.1677 
  150600    288.55027   -38644.791    172.02271   -38816.814    12205.474 
  150800    312.92989   -38618.801    186.55691   -38805.358   -7901.7737 
  151000    289.18099   -38656.354    172.39872   -38828.753    2380.4886 
  151200    284.15276   -38644.596    169.40108   -38813.997    15076.543 
  151400    318.87367   -38620.183    190.10037   -38810.284    19377.798 
  151600     318.6773   -38659.672     189.9833   -38849.655   -30162.932 
  151800    290.05012   -38655.411    172.91686   -38828.328    18273.444 
  152000     300.0789    -38642.88    178.89564   -38821.776    16863.599 
  152200    294.70796   -38649.921    175.69369   -38825.615   -8441.7932 
  152400    264.29526   -38684.725     157.5628   -38842.288   -21746.469 
  152600    313.02997    -38649.25    186.61657   -38835.867    -4688.469 
  152800    282.31535    -38647.05    168.30569   -38815.356   -132.01549 
  153000    298.03972   -38661.283    177.67996   -38838.963   -12609.969 
  153200    324.32921   -38630.626    193.35275   -38823.979    26086.966 
  153400     319.1456   -38641.905    190.26248   -38832.168   -10493.671 
  153600    305.16603   -38659.374    181.92839   -38841.302    -8956.169 
  153800    283.38323   -38643.026    168.94231   -38811.968   -17810.339 
  154000    353.56513   -38607.798     210.7821    -38818.58   -47532.757 
  154200    314.57454    -38652.73    187.53739   -38840.268    14009.654 
  154400    268.32842   -38656.607    159.96721   -38816.574   -4447.3293 
  154600    329.29351   -38630.663    196.31228   -38826.976    2757.7352 
  154800    275.96695   -38673.242    164.52101   -38837.763    8140.9294 
  155000    294.83049   -38649.967    175.76674   -38825.734    15841.038 
  155200    325.37903   -38636.127    193.97861   -38830.106    431.54736 
  155400    286.17193   -38679.593    170.60483   -38850.198   -2156.3874 
  155600    297.59638   -38661.193    177.41566   -38838.608    18326.809 
  155800    314.08284   -38639.661    187.24426   -38826.905    7572.7165 
  156000    307.18602   -38643.237    183.13263    -38826.37   -3787.2523 
  156200    278.97383   -38673.387     166.3136   -38839.701   -23584.578 
  156400    324.15374   -38639.251    193.24814   -38832.499     4883.065 
  156600    313.38958   -38642.241    186.83096   -38829.072   -16575.247 
  156800    310.64903   -38661.693    185.19715    -38846.89    10015.326 
  157000    312.88262   -38618.895    186.52873   -38805.423    6074.4978 
  157200    288.66285   -38643.517    172.08982   -38815.607        18555 
  157400    318.51525   -38658.274    189.88669   -38848.161   -12748.431 
  157600     310.3815   -38628.931    185.03766   -38813.969   -8523.7204 
  157800    279.11683   -38658.119    166.39885   -38824.518   -18191.035 
  158000    304.76124   -38652.523    181.68707    -38834.21   -12187.235 
  158200     316.4484   -38641.226    188.65452   -38829.881   -8645.1064 
  158400    292.67339   -38650.727    174.48076   -38825.207   -41819.009 
  158600    269.99917   -38671.251    160.96325   -38832.215   -36138.929 
  158800    305.42334   -38632.952    182.08179   -38815.034   -17099.361 
  159000    280.30474   -38653.118    167.10703   -38820.225     16357.75 
  159200    306.01153   -38658.422    182.43245   -38840.854    7391.4876 
  159400    318.21811   -38620.562    189.70955   -38810.271    5512.4025 
  159600    281.85599   -38657.737    168.03183   -38825.769    5727.8808 
  159800    304.71432   -38660.898     181.6591   -38842.557   -3545.1332 
  160000    330.76515   -38622.652    197.18962   -38819.842   -3316.1942 
  160200    310.29072   -38651.654    184.98354   -38836.638   -4488.7616 
  160400    293.41748   -38656.518    174.92435   -38831.443   -30617.293 
  160600    339.58774   -38615.115    202.44931   -38817.565   -17114.967 
  160800    321.67052   -38641.485    191.76774   -38833.252    12472.142 
  161000    293.39596   -38654.887    174.91152   -38829.798   -8367.8259 
  161200    289.80558   -38661.099    172.77108   -38833.871    2005.5692 
  161400    311.19075   -38645.848     185.5201   -38831.368    19069.479 
  161600    319.56776   -38631.091    190.51416   -38821.605   -1088.5816 
  161800    295.35389    -38666.89    176.07877   -38842.969   -3858.0239 
  162000    290.67023   -38645.933    173.28655    -38819.22   -35099.765 
  162200     314.3658   -38633.177    187.41295    -38820.59    10338.902 
  162400    293.55469   -38656.616    175.00615   -38831.623   -1106.3892 
  162600    311.63594   -38641.456    185.78551   -38827.242    21094.698 
  162800    298.69194   -38627.015    178.06879   -38805.084   -17742.565 
  163000    294.71204   -38646.077    175.69612   -38821.773   -13047.698 
  163200    303.13794   -38663.401    180.71933    -38844.12   -11905.357 
  163400      280.268   -38675.125    167.08513    -38842.21   -3099.3859 
  163600    325.62317    -38635.64    194.12416   -38829.764    590.53196 
  163800    297.07263   -38651.716    177.10341   -38828.819    14979.722 
  164000    297.52701   -38675.635     177.3743   -38853.009     62694.68 
  164200    304.49088   -38633.567     181.5259   -38815.093    9843.9896 
  164400    287.18515   -38651.219    171.20887   -38822.428    -15018.26 
  164600    283.13572   -38662.316    168.79476    -38831.11   -4736.9687 
  164800    307.97184   -38626.825    183.60111   -38810.426   -5254.4051 
  165000     293.4577   -38656.393    174.94833   -38831.341   -31706.645 
  165200    276.95404    -38651.58    165.10948   -38816.689   -17175.444 
  165400    337.42786    -38626.12    201.16167   -38827.282    6034.0559 
  165600    285.62249    -38651.93    170.27728   -38822.207    31307.569 
  165800    289.33788    -38664.43    172.49225   -38836.923    -19155.82 
  166000    320.02225     -38627.1    190.78511   -38817.885   -15664.285 
  166200    301.24748   -38646.017     179.5923   -38825.609   -28643.174 
  166400     317.4373   -38652.597    189.24406   -38841.841    18455.885 
  166600    282.02555   -38647.912    168.13292   -38816.045    29996.655 
  166800     279.1738   -38650.643    166.43281   -38817.076    12205.656 
  167000    308.00714   -38650.083    183.62216   -38833.705    9323.5195 
  167200    318.11064   -38629.935    189.64548    -38819.58    35505.706 
  167400    306.05446   -38656.229    182.45804   -38838.687    -2859.189 
  167600    295.48239   -38664.572    176.15538   -38840.727   -4279.0088 
  167800    290.41412   -38626.021    173.13387   -38799.155   -4101.4533 
  168000    319.83883   -38642.105    190.67576   -38832.781   -844.79612 
  168200    293.13457   -38665.695    174.75569    -38840.45    1249.8732 
  168400    292.82072   -38642.833    174.56859   -38817.401    -9920.893 
  168600    342.50673   -38628.716     204.1895   -38832.905    26210.848 
  168800    316.80836       -38655    188.86911    -38843.87    19689.843 
  169000    265.92966   -38651.966    158.53716   -38810.503   -18851.748 
  169200     340.7181   -38626.067    203.12319    -38829.19     17948.99 
  169400    297.25966   -38661.702    177.21492   -38838.917    12945.346 
  169600    302.89885   -38656.992    180.57679   -38837.568   -7556.7598 
  169800    293.75991   -38650.422     175.1285    -38825.55    23475.739 
  170000    321.46877   -38648.675    191.64747   -38840.323     7241.667 
  170200    277.20839   -38659.669    165.26111    -38824.93    7864.2441 
  170400    307.79631   -38654.794    183.49647   -38838.291   -13834.382 
  170600    296.79058   -38628.464    176.93527   -38805.399    10942.805 
  170800    291.59632   -38661.678    173.83865   -38835.517     6589.662 
  171000    308.71567   -38650.251    184.04455   -38834.295    9972.2082 
  171200    320.86558   -38631.768    191.28787   -38823.056    -16411.37 
  171400    338.03689   -38621.395    201.52475    -38822.92   -18655.677 
  171600    276.84964   -38659.631    165.04724   -38824.678   -7592.6814 
  171800    289.43268   -38654.559    172.54877   -38827.108    22002.125 
  172000    300.53337   -38629.171    179.16658   -38808.338    23134.528 
  172200    331.34081   -38651.345    197.53281   -38848.877     30477.56 
  172400       287.64   -38659.904    171.48004   -38831.384   -5886.1238 
  172600    302.51848   -38638.669    180.35002   -38819.019   -12420.455 
  172800    305.45801    -38645.09    182.10246   -38827.193    1750.5653 
  173000    298.31527   -38662.129    177.84423   -38839.973    26441.885 
  173200     315.9665   -38630.214    188.36722   -38818.581   -15545.289 
  173400    310.51266    -38660.16    185.11585   -38845.276    19565.663 
  173600    280.87854   -38656.304    167.44911   -38823.753   -28500.395 
  173800    314.86948   -38635.251    187.71322   -38822.965     15044.21 
  174000    291.62125   -38671.165    173.85351   -38845.019   -2442.4092 
  174200    266.22588   -38660.021    158.71375   -38818.735    -3878.481 
  174400    310.84874   -38632.544    185.31621    -38817.86    38842.019 
  174600    283.76052   -38669.182    169.16724   -38838.349    20254.907 
  174800    288.28699   -38656.667    171.86575   -38828.533   -8308.8123 
  175000     291.2558   -38639.728    173.63565   -38813.363   -15665.093 
  175200    275.38254   -38670.951    164.17261   -38835.123    6173.1629 
  175400    289.11087   -38672.779    172.35692   -38845.135   -1871.8202 
  175600    330.78393   -38639.985    197.20081   -38837.186    2518.9628 
  175800    287.19297   -38643.794    171.21354   -38815.008   -11660.786 
  176000    276.65889   -38675.057    164.93352    -38839.99    34352.931 
  176200    298.32143   -38645.818    177.84791   -38823.666    -8453.699 
  176400    307.28126   -38639.559    183.18942   -38822.748   -5847.9525 
  176600    308.18409     -38656.7    183.72765   -38840.428    17762.092 
  176800    271.48872   -38678.879    161.85126    -38840.73    -1108.046 
  177000    295.03372   -38639.559    175.88789   -38815.447    12464.192 
  177200    289.12666   -38639.809    172.36633   -38812.175   -20189.759 
  177400    302.97338   -38669.892    180.62122   -38850.514     30358.58 
  177600     306.0473   -38646.034    182.45378   -38828.488    -8166.254 
  177800     302.1482   -38644.607    180.12928   -38824.736   -28564.673 
  178000    294.38372   -38642.577    175.50039   -38818.077   -33041.032 
  178200    302.11075   -38671.091    180.10695   -38851.198    8706.7193 
  178400     296.8202   -38651.671    176.95293   -38828.623   -10094.365 
  178600    320.96632   -38640.254    191.34793   -38831.602   -10112.966 
  178800    298.68926   -38664.217    178.06719   -38842.285    1584.0241 
  179000     270.3791   -38679.958    161.18975   -38841.148    8517.1022 
  179200    300.94431   -38637.583    179.41156   -38816.994   -11481.914 
  179400    310.82624   -38644.186     185.3028   -38829.489   -17160.688 
[...]
  950000    294.95724   -38634.611     175.8423   -38810.453    6298.9356 
  950200    305.26564   -38643.038    181.98778   -38825.026    -13526.31 
  950400    287.21244   -38661.153    171.22514   -38832.378   -15379.116 
  950600    287.11332   -38645.062    171.16605   -38816.228   -13185.262 
  950800    302.27723   -38638.257     180.2062   -38818.463   -2969.1386 
  951000    252.79569   -38667.406    150.70719   -38818.113   -31976.521 
  951200    291.50647   -38646.669    173.78508   -38820.454    4685.9508 
  951400    304.27661   -38627.003    181.39816   -38808.401   -27763.022 
  951600    281.69928   -38669.874    167.93841   -38837.813    2717.7182 
  951800    310.72549   -38644.118    185.24273    -38829.36    25385.113 
  952000    330.12508   -38635.778    196.80803   -38832.586   -10293.447 
  952200    267.10923   -38672.894    159.24037   -38832.134    1957.9367 
  952400    292.29028   -38653.096    174.25236   -38827.348   -17609.949 
  952600     306.7392    -38638.44    182.86626   -38821.306   -31172.005 
  952800    290.87638   -38668.006    173.40945   -38841.416    5330.9901 
  953000    285.93975   -38655.819    170.46641   -38826.285    -15224.74 
  953200    329.04876   -38648.682    196.16637   -38844.849   -6532.7116 
  953400    284.94659   -38653.649    169.87433   -38823.524   -29016.616 
  953600    346.88749   -38619.891    206.80114   -38826.692    5596.9781 
  953800    290.93895   -38653.794    173.44675   -38827.241    -23700.91 
  954000    306.86816    -38651.32    182.94314   -38834.263    8796.5372 
  954200    334.56374   -38613.535    199.45419   -38812.989    15812.192 
  954400    303.68844   -38639.492    181.04751   -38820.539    3209.9112 
  954600    291.33187   -38653.894    173.68099   -38827.575   -2627.5877 
  954800    248.37096   -38672.052    148.06933   -38820.121   -4669.6403 
  955000    308.86682   -38634.466    184.13466     -38818.6   -30322.764 
  955200    299.93648   -38653.122    178.81073   -38831.933    3259.4219 
  955400     277.5353   -38659.084      165.456    -38824.54   -8482.3588 
  955600    302.00897   -38644.965    180.04627   -38825.011    10531.169 
  955800    291.32652   -38646.812     173.6778    -38820.49   -1717.4751 
  956000    313.01384   -38652.888    186.60696   -38839.495    26599.396 
  956200    284.68104   -38665.743    169.71602   -38835.459   -11004.754 
  956400    278.96479   -38633.066    166.30821   -38799.374     30224.26 
  956600    299.97787   -38641.657    178.83541   -38820.493   -28823.947 
  956800    287.27518   -38657.328    171.26255   -38828.591    13856.343 
  957000     307.9722   -38640.066    183.60133   -38823.667   -23675.715 
  957200    335.48976   -38615.996    200.00625   -38816.002    25061.879 
  957400     281.8321   -38658.205    168.01759   -38826.222    30882.177 
  957600    289.26005   -38653.086    172.44585   -38825.532   -32680.889 
  957800     334.2823   -38620.045    199.28641   -38819.332   -32146.963 
  958000    284.70365   -38660.839     169.7295   -38830.569    8246.1367 
  958200    287.80564   -38648.783    171.57879   -38820.362   -463.05789 
  958400    298.34159   -38632.015    177.85992   -38809.875    13971.392 
  958600    295.67764   -38661.206    176.27178   -38837.478    22392.944 
  958800    301.65072   -38657.659     179.8327   -38837.491   -14806.453 
  959000     306.9866   -38629.636    183.01375    -38812.65   -2947.2118 
  959200    314.01868   -38654.153    187.20601   -38841.359    4450.3525 
  959400    292.55072   -38655.086    174.40762   -38829.494   -11927.632 
  959600    282.35108   -38650.485    168.32699   -38818.812    2399.0769 
  959800    274.67729   -38652.891    163.75217   -38816.643   -37899.041 
  960000     328.7043   -38634.929    195.96102    -38830.89   -26705.646 
  960200     298.8782   -38653.046    178.17983   -38831.226    19118.246 
  960400    271.63702   -38666.741    161.93967    -38828.68   -15557.183 
  960600    303.25033   -38641.896    180.78632   -38822.682      450.725 
  960800    276.23005   -38651.663    164.67786   -38816.341   -21841.891 
  961000    271.89047   -38670.766    162.09077   -38832.857   -39848.105 
  961200    317.79094   -38640.778    189.45489   -38830.233    7056.6474 
  961400    294.71851   -38635.901    175.69998   -38811.601   -5982.2688 
  961600    287.56112   -38674.086    171.43301   -38845.519    3042.1747 
  961800     314.3573   -38646.869    187.40788   -38834.277    7322.5596 
  962000      304.124    -38640.44    181.30718   -38821.747     1004.944 
  962200    288.83515       -38677    172.19255   -38849.193    17927.605 
  962400     294.7999   -38648.315     175.7485   -38824.063   -8504.5248 
  962600    265.05442   -38647.655    158.01538   -38805.671   -9184.9676 
  962800    279.90513   -38667.391    166.86881    -38834.26    -7427.423 
  963000    284.18745   -38671.855    169.42176   -38841.277    10967.028 
  963200     312.4357   -38643.429     186.2623   -38829.691    2755.5124 
  963400    327.20857   -38647.439    195.06932   -38842.508    941.77046 
  963600    290.44141   -38670.364    173.15014   -38843.515    6429.4241 
  963800     308.3102   -38635.826    183.80283   -38819.629    6082.3013 
  964000    299.21213   -38650.671    178.37891    -38829.05    6218.2763 
  964200    299.69271   -38664.669    178.66541   -38843.334   -4470.6431 
  964400    296.85497   -38644.226    176.97365   -38821.199    4494.6609 
  964600    318.06808   -38640.191    189.62011   -38829.811   -10014.807 
  964800    289.26041   -38665.888    172.44607   -38838.334   -5080.4396 
  965000    303.86439   -38646.974     181.1524   -38828.126   -13372.039 
  965200    288.82139    -38649.78    172.18434   -38821.964   -14881.097 
  965400    293.35266   -38667.502    174.88571   -38842.388    -1747.013 
  965600    292.73886   -38668.803    174.51979   -38843.323    7310.8175 
  965800    292.61729   -38640.409    174.44731   -38814.856   -25398.743 
  966000    308.49103   -38652.802    183.91063   -38836.713   -41540.249 
  966200    284.56811   -38669.591     169.6487    -38839.24    12194.137 
  966400    304.33153    -38643.56     181.4309   -38824.991   -12022.995 
  966600    286.60064   -38657.266    170.86041   -38828.127   -37893.149 
  966800    285.42845     -38673.6     170.1616   -38843.762   -19695.134 
  967000    309.02296   -38641.133    184.22775   -38825.361   -8700.2958 
  967200    304.86268   -38644.191    181.74755   -38825.939    19713.628 
  967400    277.27903   -38674.069    165.30323   -38839.373   -7209.6166 
  967600    312.95106   -38649.616    186.56953   -38836.186   -24129.638 
  967800    300.08849   -38636.599    178.90136     -38815.5   -16280.459 
  968000    302.07039   -38654.935    180.08289   -38835.017   -17375.649 
  968200    283.42341   -38668.114    168.96627    -38837.08   -3394.1443 
  968400    307.99134   -38631.737    183.61274   -38815.349    35367.643 
  968600    335.56224   -38652.026    200.04946   -38852.075    -6341.265 
  968800    273.79309   -38667.472    163.22504   -38830.697   -12892.211 
  969000    311.01329   -38649.518    185.41431   -38834.932    47497.799 
  969200    311.85035   -38635.138    185.91333   -38821.051   -16606.518 
  969400    291.66688   -38671.502    173.88071   -38845.382    -18208.91 
  969600    304.06444   -38647.678    181.27167   -38828.949   -21170.163 
  969800    297.15948   -38641.796    177.15519   -38818.951    19704.682 
  970000    280.93202   -38660.943      167.481   -38828.424     10949.02 
  970200    277.19745   -38679.401    165.25459   -38844.656    -8678.756 
  970400    298.03558   -38636.814    177.67749   -38814.491   -40946.852 
  970600    276.42209     -38649.5    164.79235   -38814.292   -12696.767 
  970800     281.6339   -38675.766    167.89943   -38843.665   -16871.561 
  971000    308.30105   -38636.011    183.79737   -38819.809    24432.853 
  971200    299.16387   -38648.662    178.35013   -38827.012    31581.704 
  971400    271.10801   -38667.285     161.6243    -38828.91   -60133.173 
  971600    324.47365   -38627.282    193.43886   -38820.721   -41522.594 
  971800    281.81211   -38654.707    168.00567   -38822.712     8345.964 
  972000    297.23325   -38659.005    177.19917   -38836.204   -8603.9463 
  972200    307.63181    -38645.07     183.3984   -38828.468   -26219.272 
  972400    292.17525   -38648.959    174.18378   -38823.143   -8785.6108 
  972600    289.36956   -38640.655    172.51114   -38813.167   -5041.2766 
  972800    282.80016   -38636.329    168.59471   -38804.924    6133.1225 
  973000    289.77904   -38669.157    172.75525   -38841.913   -15902.488 
  973200    298.72135   -38644.643    178.08632   -38822.729   -60.484888 
  973400    293.27448   -38643.818     174.8391   -38818.658   -2514.2066 
  973600    302.04519   -38661.448    180.06787   -38841.516     16971.56 
  973800    293.65554   -38667.301    175.06628   -38842.367   -9836.3878 
  974000     322.1382   -38630.181    192.04656   -38822.227    2403.5301 
  974200    312.52186   -38655.635    186.31366   -38841.948   -9552.8577 
  974400    295.26283   -38658.116    176.02448   -38834.141     -13585.5 
  974600     317.4132   -38639.042    189.22969   -38828.272    26308.254 
  974800    314.38246   -38627.654    187.42288   -38815.076   -13941.716 
  975000    291.55214   -38657.561    173.81231   -38831.373   -29334.098 
  975200    284.15624   -38653.355    169.40316   -38822.758   -14947.398 
  975400    297.20358    -38625.16    177.18149   -38802.342   -21626.724 
  975600    296.42727   -38650.054    176.71868   -38826.772   -20192.436 
  975800    321.01225   -38648.976    191.37531   -38840.352   -25225.117 
  976000    298.84448    -38644.18    178.15973   -38822.339    10623.152 
  976200    323.21557   -38626.332    192.68884   -38819.021    -9414.843 
  976400    300.86931   -38648.015    179.36685   -38827.382   -13018.565 
  976600    294.75812   -38658.798    175.72359   -38834.521    10323.482 
  976800    343.72476   -38614.933    204.91564   -38819.849   -722.97163 
  977000    310.06844   -38631.179    184.85103    -38816.03   -29479.788 
  977200    290.79138    -38651.92    173.35878   -38825.278    18431.324 
  977400      303.008   -38641.356    180.64186   -38821.998   -31824.445 
  977600    302.51598   -38625.257    180.34853   -38805.605   -15902.935 
  977800    296.39085   -38648.923    176.69696    -38825.62    7293.6911 
  978000    271.45824   -38650.493    161.83309   -38812.326   -20520.765 
  978200    322.24953   -38623.022    192.11293   -38815.135   -5689.0267 
  978400    293.59145   -38655.261    175.02807   -38830.289   -12504.386 
  978600    307.61613    -38652.81    183.38905   -38836.199    8225.8778 
  978800     308.1909   -38646.272     183.7317   -38830.004   -18024.665 
  979000    335.20411   -38608.192    199.83596   -38808.028   -8948.5666 
  979200    298.85206   -38641.434    178.16424   -38819.598    12425.215 
  979400    290.37077    -38648.51    173.10802   -38821.618    27885.135 
  979600    297.74467   -38640.852    177.50406   -38818.356    225.84207 
  979800    349.63425   -38620.479    208.43866   -38828.918    104.13809 
  980000    323.82427   -38657.125    193.05173   -38850.177   -17931.065 
  980200     295.9221   -38653.518    176.41751   -38829.935    2789.1817 
  980400    333.87448   -38615.228    199.04328   -38814.272   -19398.707 
  980600     301.3849   -38644.324    179.67423   -38823.999    2332.4835 
  980800    293.92252    -38653.27    175.22544   -38828.495    17182.234 
  981000    312.18045   -38625.287    186.11012   -38811.397    14251.817 
  981200    319.63836   -38613.324    190.55624   -38803.881   -3805.9059 
  981400    288.17663   -38654.944    171.79996   -38826.744   -16546.413 
  981600    300.37765   -38650.475    179.07375   -38829.549   -10988.169 
  981800    317.54005   -38627.663    189.30531   -38816.968   -19675.553 
  982000    289.35849   -38654.164    172.50454   -38826.669    4674.9562 
  982200    286.62865   -38662.895    170.87711   -38833.772    5149.5807 
  982400    299.25199   -38643.189    178.40267   -38821.592   -8103.1926 
  982600     311.7647   -38646.111    185.86227   -38831.973   -32923.496 
  982800    294.69656   -38667.445    175.68689   -38843.132    10077.667 
  983000    298.11782   -38656.012    177.72652   -38833.739      2544.12 
  983200    313.15558    -38640.79    186.69146   -38827.482   -2400.9484 
  983400    270.49545   -38655.716    161.25911   -38816.975   -25485.066 
  983600     311.6063   -38625.944    185.76784   -38811.712    1195.5458 
  983800     314.5782   -38652.667    187.53957   -38840.206    -2807.524 
  984000    289.09445   -38655.125    172.34713   -38827.472   -3385.8153 
  984200    317.40169   -38638.261    189.22283   -38827.483    28140.256 
  984400    360.82775   -38595.782     215.1118   -38810.893    30558.803 
  984600     310.2681   -38644.821    184.97005   -38829.791   -15098.566 
  984800    302.46447   -38658.777    180.31783   -38839.095   -26740.041 
  985000    343.77735   -38626.398      204.947   -38831.345    13800.601 
  985200    300.88139   -38644.931    179.37406   -38824.305    -22061.95 
  985400    306.07459   -38649.849    182.47004   -38832.319    9032.7213 
  985600    317.48421   -38635.828    189.27202     -38825.1   -2561.8864 
  985800    304.85972   -38649.602    181.74579   -38831.348   -7390.6991 
  986000    266.92787   -38664.513    159.13226   -38823.645   -37395.748 
  986200    307.00924   -38629.187    183.02725   -38812.214    11891.791 
  986400     269.0861   -38650.701    160.41891    -38811.12    5151.8702 
  986600    312.11344   -38659.986    186.07017   -38846.056   -15595.125 
  986800    303.66704   -38653.628    181.03475   -38834.663    5498.2067 
  987000    303.06294   -38630.526    180.67461   -38811.201    4848.9786 
  987200    298.32164   -38664.719    177.84803   -38842.567    24229.875 
  987400    285.32439   -38652.989    170.09956   -38823.088   -9249.0103 
  987600    328.36724   -38633.492    195.76007   -38829.252   -5567.1016 
  987800    330.71956   -38614.066    197.16244   -38811.228   -8367.3253 
  988000    304.96337   -38650.371    181.80758   -38832.179    1607.0629 
  988200     280.2051   -38661.286    167.04764   -38828.333    24715.472 
  988400    314.56754   -38625.068    187.53322   -38812.601    -29383.56 
  988600    299.43139   -38654.418    178.50962   -38832.927    1664.9624 
  988800    297.49612   -38655.217    177.35589   -38832.573    4280.5192 
  989000    328.04184   -38631.145    195.56608   -38826.711   -1617.0826 
  989200    295.12526    -38633.13    175.94247   -38809.073    25031.268 
  989400    290.81786   -38663.383    173.37456   -38836.757   -8530.6963 
  989600    314.25513   -38636.278    187.34697   -38823.625    15906.426 
  989800    286.32948   -38640.835    170.69876   -38811.534    -12011.03 
  990000    290.23353   -38649.749     173.0262   -38822.775    3987.3703 
  990200    268.96149   -38653.208    160.34462   -38813.552   -10260.392 
  990400    319.08768   -38643.976    190.22795   -38834.203   -8804.3569 
  990600    297.08553   -38667.067    177.11111   -38844.178   -24598.626 
  990800    316.51252   -38652.966    188.69274   -38841.659    4409.8895 
  991000    310.06781   -38635.493    184.85065   -38820.343   -613.36512 
  991200    282.72919   -38674.492     168.5524   -38843.044    28409.499 
  991400    284.31494   -38652.592    169.49777    -38822.09   -12960.604 
  991600    309.45698   -38643.042    184.48649   -38827.529    15888.418 
  991800    287.32056    -38666.59     171.2896    -38837.88    35827.647 
  992000    268.17957   -38685.451    159.87847   -38845.329    1825.4705 
  992200     307.3606   -38641.531    183.23672   -38824.768   -7981.0107 
  992400    306.60578    -38641.74    182.78672   -38824.527    18704.238 
  992600    285.01176   -38674.623    169.91318   -38844.536    28572.942 
  992800    288.92068   -38645.836    172.24353    -38818.08    10535.543 
  993000    284.66342   -38649.356    169.70552   -38819.062   -6147.3637 
  993200    304.07859   -38662.782     181.2801   -38844.062    4463.1135 
  993400     292.2555   -38661.125    174.23163   -38835.357   -2411.2487 
  993600    312.79306   -38637.636    186.47534   -38824.112   -15809.963 
  993800    282.54995   -38664.734    168.44555    -38833.18    7208.7892 
  994000     285.6593   -38664.984    170.29922   -38835.283    21355.202 
  994200    316.41806   -38632.546    188.63643   -38821.182     37943.62 
  994400    315.06416   -38657.405    187.82928   -38845.234   -7230.4908 
  994600    288.95018   -38661.454    172.26112   -38833.715    14468.952 
  994800    297.58027   -38639.365    177.40605   -38816.771      2845.34 
  995000    284.26688   -38670.635    169.46912   -38840.104    24882.179 
  995200    289.16431   -38666.171    172.38878    -38838.56   -32357.062 
  995400    324.26098    -38638.33    193.31208   -38831.642     -9449.46 
  995600    284.19531   -38661.094    169.42645   -38830.521    26546.833 
  995800    272.71883   -38673.101    162.58461   -38835.686    25007.151 
  996000    286.03098   -38649.183     170.5208   -38819.704   -19566.995 
  996200     315.2827   -38645.039    187.95957   -38832.999   -32246.473 
  996400    304.61186   -38629.539    181.59802   -38811.137   -25659.662 
  996600     287.9599   -38665.646    171.67075   -38837.317    13365.524 
  996800    314.11175   -38651.795     187.2615   -38839.057   -15376.669 
  997000    324.62115   -38631.466    193.52679   -38824.993   -10441.139 
  997200    325.55417   -38616.995    194.08303   -38811.078     24080.36 
  997400    298.30422   -38657.474    177.83765   -38835.311    603.85284 
  997600    293.63406   -38650.365    175.05347   -38825.419    23217.897 
  997800    319.82577   -38627.715    190.66798   -38818.383    22799.206 
  998000    306.82696   -38648.226    182.91858   -38831.145   -2807.9401 
  998200     284.5603   -38657.883    169.64404   -38827.527   -14235.135 
  998400    282.10897     -38669.7    168.18265   -38837.882    3978.8976 
  998600    330.73548   -38636.747    197.17193   -38833.919   -25218.765 
  998800    287.42401   -38656.554    171.35128   -38827.906   -20.650594 
  999000    284.14398   -38675.868    169.39584   -38845.264   -28364.896 
  999200    293.41257   -38646.727    174.92143   -38821.648   -46107.963 
  999400    309.33954   -38640.377    184.41648   -38824.794    5825.6512 
  999600    258.61142   -38675.986     154.1743   -38830.161    2071.7637 
  999800    306.87512   -38646.761    182.94729   -38829.708   -18980.561 
 1000000    313.92312   -38648.546    187.14904   -38835.695    4143.9087 
Loop time of 7932.9 on 8 procs for 1000000 steps with 201 atoms

Performance: 2.723 ns/day, 8.814 hours/ns, 126.057 timesteps/s
99.2% CPU use with 8 MPI tasks x no OpenMP threads

MPI task timing breakdown:
Section |  min time  |  avg time  |  max time  |%varavg| %total
---------------------------------------------------------------
Pair    | 6812.4     | 6925.9     | 7123.2     | 113.5 | 87.31
Neigh   | 0          | 0          | 0          |   0.0 |  0.00
Comm    | 41.272     | 238.24     | 351.79     | 611.0 |  3.00
Output  | 0.098491   | 0.10963    | 0.17735    |   7.7 |  0.00
Modify  | 763.05     | 763.43     | 763.75     |   0.8 |  9.62
Other   |            | 5.206      |            |       |  0.07

Nlocal:    25.125 ave 28 max 22 min
Histogram: 1 0 0 3 0 0 2 0 1 1
Nghost:    966 ave 973 max 962 min
Histogram: 3 0 1 0 2 1 0 0 0 1
Neighs:    4309.25 ave 4717 max 3858 min
Histogram: 1 0 0 3 0 0 2 0 1 1

Total # of neighbors = 34474
Ave neighs/atom = 171.512
Neighbor list builds = 0
Dangerous builds = 0

Please see the log.cite file for references relevant to this simulation

Total wall time: 2:12:20
