ITEM: TIMESTEP
0
ITEM: NUMBER OF ATOMS
35
ITEM: BOX BOUNDS pp pp pp
0.0000000000000000e+00 7.0970000000000004e+00
0.0000000000000000e+00 7.0970000000000004e+00
0.0000000000000000e+00 2.4588000000000001e+01
ITEM: ATOMS id type x y z 
2 1 3.339 1.632 13.319 
5 1 4.651 1.581 18.133 
7 1 3.391 1.602 15.981 
8 1 2.166 1.581 18.134 
18 1 3.408 1.581 17.416 
21 1 3.338 2.875 12.602 
23 1 3.367 1.619 14.753 
24 1 3.338 0.39 12.601 
17 1 7.023 2.875 24.28 
19 1 6.997 1.619 22.129 
20 1 7.023 0.39 24.281 
22 1 6.957 1.581 19.466 
25 1 5.714 1.581 18.748 
27 1 6.974 1.602 20.9 
28 1 1.102 1.581 18.748 
30 1 7.024 1.631 23.563 
10 1 6.954 5.232 5.122 
13 1 7.023 3.938 0.307 
15 1 6.994 5.194 2.459 
16 1 7.023 6.423 0.307 
26 1 7.022 5.181 1.025 
29 1 5.711 5.232 5.839 
31 1 6.97 5.211 3.688 
32 1 1.098 5.232 5.84 
1 1 4.647 5.232 6.454 
3 1 3.388 5.211 8.606 
4 1 2.163 5.232 6.454 
6 1 3.338 5.182 11.269 
9 1 3.338 3.939 11.986 
11 1 3.365 5.194 9.834 
12 1 3.338 6.423 11.987 
14 1 3.404 5.232 7.171 
33 2 4.738 5.211 8.606 
34 2 6.054 4.712 9.116 
35 3 5.529 4.772 9.932 
ITEM: TIMESTEP
10
ITEM: NUMBER OF ATOMS
35
ITEM: BOX BOUNDS pp pp pp
0.0000000000000000e+00 7.0970000000000004e+00
0.0000000000000000e+00 7.0970000000000004e+00
0.0000000000000000e+00 2.4588000000000001e+01
ITEM: ATOMS id type x y z 
2 1 3.34034 1.63119 13.3333 
5 1 4.65562 1.58095 18.1347 
7 1 3.39101 1.6017 15.9824 
8 1 2.16254 1.58091 18.137 
18 1 3.40785 1.58102 17.4168 
21 1 3.33828 2.8672 12.6081 
23 1 3.3682 1.61966 14.7629 
24 1 3.33856 0.397093 12.6028 
17 1 7.02421 2.88046 24.2783 
19 1 6.99691 1.61951 22.1246 
20 1 7.02477 0.38909 24.2865 
22 1 6.95697 1.58119 19.4659 
25 1 5.71023 1.58098 18.7468 
27 1 6.97353 1.60159 20.9044 
28 1 1.10487 1.58092 18.7453 
30 1 7.02293 1.63101 23.5627 
10 1 6.95439 5.23109 5.12014 
13 1 7.02205 3.93202 0.308688 
15 1 6.99347 5.19353 2.46142 
16 1 7.02187 6.42393 0.301308 
26 1 7.02273 5.1816 1.02361 
29 1 5.71259 5.23409 5.8365 
31 1 6.96997 5.21091 3.67924 
32 1 1.08721 5.23105 5.83825 
1 1 4.65198 5.23118 6.448 
3 1 3.45091 5.21146 8.59903 
4 1 2.15351 5.23417 6.44486 
6 1 3.32709 5.18206 11.2748 
9 1 3.33486 3.92412 11.9978 
11 1 3.35278 5.19807 9.86722 
12 1 3.33354 6.43768 12.0019 
14 1 3.39321 5.23352 7.1068 
33 2 4.68602 5.21927 8.58189 
34 2 6.05936 4.70622 9.1445 
35 3 5.56464 4.76358 9.92748 
ITEM: TIMESTEP
20
ITEM: NUMBER OF ATOMS
35
ITEM: BOX BOUNDS pp pp pp
0.0000000000000000e+00 7.0970000000000004e+00
0.0000000000000000e+00 7.0970000000000004e+00
0.0000000000000000e+00 2.4588000000000001e+01
ITEM: ATOMS id type x y z 
2 1 3.34107 1.63078 13.3479 
5 1 4.65796 1.58012 18.1353 
7 1 3.38876 1.60234 15.9964 
8 1 2.16082 1.58033 18.1405 
18 1 3.40834 1.5807 17.4272 
21 1 3.34399 2.86851 12.6114 
23 1 3.37406 1.62167 14.7764 
24 1 3.33883 0.39985 12.6052 
17 1 7.0253 2.87951 24.2766 
19 1 6.99882 1.62059 22.1242 
20 1 7.02618 0.390359 24.2877 
22 1 6.957 1.5816 19.4679 
25 1 5.71321 1.58075 18.7499 
27 1 6.97171 1.60193 20.9049 
28 1 1.10129 1.58002 18.7456 
30 1 7.02166 1.63233 23.5626 
10 1 6.94567 5.23128 5.11626 
13 1 7.02095 3.93028 0.308378 
15 1 6.98994 5.19175 2.45252 
16 1 7.02052 6.42555 0.297492 
26 1 7.02571 5.18034 1.01495 
29 1 5.71537 5.23532 5.84039 
31 1 6.97114 5.21035 3.67125 
32 1 1.07775 5.23016 5.8368 
1 1 4.64258 5.23283 6.43671 
3 1 3.52906 5.21413 8.61867 
4 1 2.14734 5.23553 6.43638 
6 1 3.30602 5.1822 11.2778 
9 1 3.32393 3.92093 12.0007 
11 1 3.31913 5.19988 9.86662 
12 1 3.32292 6.43778 12.0109 
14 1 3.39058 5.23689 7.0764 
33 2 4.63134 5.2318 8.51514 
34 2 6.07678 4.69854 9.15893 
35 3 5.62328 4.7471 9.95993 
ITEM: TIMESTEP
30
ITEM: NUMBER OF ATOMS
35
ITEM: BOX BOUNDS pp pp pp
0.0000000000000000e+00 7.0970000000000004e+00
0.0000000000000000e+00 7.0970000000000004e+00
0.0000000000000000e+00 2.4588000000000001e+01
ITEM: ATOMS id type x y z 
2 1 3.34694 1.63133 13.3518 
5 1 4.65906 1.58021 18.1366 
7 1 3.39047 1.60228 15.9997 
8 1 2.1607 1.58018 18.1421 
18 1 3.40828 1.57961 17.4304 
21 1 3.33953 2.86171 12.6157 
23 1 3.37147 1.62423 14.778 
24 1 3.33634 0.406724 12.6107 
17 1 7.0247 2.87938 24.2753 
19 1 6.99718 1.62181 22.1254 
20 1 7.02503 0.392796 24.2883 
22 1 6.95686 1.58063 19.4691 
25 1 5.71383 1.58044 18.7505 
27 1 6.97233 1.60258 20.9054 
28 1 1.09999 1.58022 18.7459 
30 1 7.02281 1.63144 23.5623 
10 1 6.94467 5.23175 5.11452 
13 1 7.02194 3.92979 0.308404 
15 1 6.99259 5.18995 2.4509 
16 1 7.02243 6.42384 0.295067 
26 1 7.02349 5.18138 1.01361 
29 1 5.71246 5.23367 5.8411 
31 1 6.96912 5.20982 3.66989 
32 1 1.0756 5.23221 5.83655 
1 1 4.63928 5.23467 6.43176 
3 1 3.53177 5.21587 8.60924 
4 1 2.14689 5.23495 6.4352 
6 1 3.29121 5.18278 11.2834 
9 1 3.32686 3.91574 12.0051 
11 1 3.28992 5.20193 9.85956 
12 1 3.32113 6.44078 12.0154 
14 1 3.3874 5.2374 7.08183 
33 2 4.65058 5.23587 8.48337 
34 2 6.08455 4.69582 9.16057 
35 3 5.65157 4.7402 9.9734 
ITEM: TIMESTEP
40
ITEM: NUMBER OF ATOMS
35
ITEM: BOX BOUNDS pp pp pp
0.0000000000000000e+00 7.0970000000000004e+00
0.0000000000000000e+00 7.0970000000000004e+00
0.0000000000000000e+00 2.4588000000000001e+01
ITEM: ATOMS id type x y z 
2 1 3.35705 1.63282 13.3657 
5 1 4.66168 1.57838 18.1419 
7 1 3.38629 1.60564 16.0143 
8 1 2.16105 1.5787 18.1531 
18 1 3.40828 1.57778 17.4428 
21 1 3.34681 2.87058 12.6197 
23 1 3.38072 1.63012 14.7931 
24 1 3.33585 0.399587 12.615 
17 1 7.02499 2.88214 24.2684 
19 1 6.9982 1.62729 22.1283 
20 1 7.02814 0.39686 24.2941 
22 1 6.95633 1.58095 19.4743 
25 1 5.71787 1.57954 18.7541 
27 1 6.97082 1.60435 20.908 
28 1 1.09431 1.5758 18.7463 
30 1 7.02185 1.63133 23.5632 
10 1 6.93674 5.23126 5.10878 
13 1 7.02355 3.92772 0.310512 
15 1 6.98898 5.18518 2.4462 
16 1 7.01964 6.41868 0.284389 
26 1 7.02559 5.18136 1.00976 
29 1 5.69945 5.23409 5.841 
31 1 6.96926 5.20766 3.66573 
32 1 1.06761 5.23666 5.8335 
1 1 4.61947 5.24055 6.4147 
3 1 3.58773 5.22485 8.61012 
4 1 2.13771 5.23314 6.43252 
6 1 3.2405 5.18468 11.2765 
9 1 3.30529 3.91683 12.005 
11 1 3.17631 5.2074 9.84939 
12 1 3.29861 6.43437 12.0249 
14 1 3.36989 5.23841 7.09741 
33 2 4.70957 5.25205 8.37068 
34 2 6.1179 4.6839 9.1687 
35 3 5.76497 4.71334 10.0239 
ITEM: TIMESTEP
50
ITEM: NUMBER OF ATOMS
35
ITEM: BOX BOUNDS pp pp pp
0.0000000000000000e+00 7.0970000000000004e+00
0.0000000000000000e+00 7.0970000000000004e+00
0.0000000000000000e+00 2.4588000000000001e+01
ITEM: ATOMS id type x y z 
2 1 3.36787 1.63355 13.3605 
5 1 4.66042 1.57851 18.1428 
7 1 3.38865 1.60598 16.01 
8 1 2.16186 1.57779 18.1541 
18 1 3.40805 1.57718 17.4421 
21 1 3.33941 2.8721 12.6183 
23 1 3.37808 1.63039 14.7888 
24 1 3.33233 0.398088 12.6185 
17 1 7.02459 2.88119 24.2708 
19 1 6.99636 1.62655 22.13 
20 1 7.02455 0.394856 24.2918 
22 1 6.9564 1.57999 19.4751 
25 1 5.71721 1.57899 18.7539 
27 1 6.97159 1.60478 20.9096 
28 1 1.095 1.57731 18.747 
30 1 7.0242 1.63302 23.5647 
10 1 6.93271 5.23132 5.11068 
13 1 7.02376 3.93006 0.308372 
15 1 6.99236 5.18482 2.44809 
16 1 7.02389 6.41946 0.286918 
26 1 7.02346 5.17982 1.01062 
29 1 5.69293 5.23506 5.8403 
31 1 6.96457 5.20858 3.66759 
32 1 1.06567 5.23531 5.83243 
1 1 4.61322 5.23858 6.41425 
3 1 3.60387 5.22763 8.60067 
4 1 2.13257 5.23534 6.43536 
6 1 3.22203 5.18401 11.2724 
9 1 3.30373 3.91655 12.0064 
11 1 3.17871 5.20651 9.84786 
12 1 3.29537 6.43564 12.0255 
14 1 3.36742 5.23845 7.10174 
33 2 4.7244 5.25419 8.36954 
34 2 6.12287 4.68191 9.17073 
35 3 5.77892 4.71048 10.0285 
ITEM: TIMESTEP
60
ITEM: NUMBER OF ATOMS
35
ITEM: BOX BOUNDS pp pp pp
0.0000000000000000e+00 7.0970000000000004e+00
0.0000000000000000e+00 7.0970000000000004e+00
0.0000000000000000e+00 2.4588000000000001e+01
ITEM: ATOMS id type x y z 
2 1 3.37183 1.63394 13.3587 
5 1 4.65976 1.5784 18.1433 
7 1 3.38849 1.606 16.0087 
8 1 2.16221 1.57738 18.1542 
18 1 3.40786 1.57728 17.4411 
21 1 3.33647 2.8718 12.6188 
23 1 3.37971 1.6302 14.7871 
24 1 3.3318 0.396301 12.6197 
17 1 7.02434 2.881 24.2722 
19 1 6.99594 1.62606 22.1304 
20 1 7.02454 0.393694 24.2906 
22 1 6.95626 1.57983 19.4754 
25 1 5.71688 1.57873 18.7537 
27 1 6.97173 1.60491 20.9101 
28 1 1.09552 1.57778 18.7476 
30 1 7.02456 1.63321 23.5653 
10 1 6.93047 5.23255 5.1114 
13 1 7.02408 3.93102 0.307261 
15 1 6.99202 5.18632 2.44917 
16 1 7.02429 6.41985 0.288419 
26 1 7.02401 5.1797 1.01153 
29 1 5.68988 5.23568 5.83889 
31 1 6.96247 5.20652 3.66842 
32 1 1.06428 5.2344 5.83246 
1 1 4.61035 5.23736 6.41337 
3 1 3.61195 5.22901 8.59964 
4 1 2.13035 5.23641 6.43714 
6 1 3.21178 5.18435 11.2696 
9 1 3.3015 3.91905 12.0056 
11 1 3.18117 5.20626 9.84646 
12 1 3.29176 6.43521 12.0256 
14 1 3.3662 5.2387 7.10346 
33 2 4.73135 5.25577 8.36717 
34 2 6.12617 4.6806 9.17186 
35 3 5.78702 4.70875 10.0316 
ITEM: TIMESTEP
70
ITEM: NUMBER OF ATOMS
35
ITEM: BOX BOUNDS pp pp pp
0.0000000000000000e+00 7.0970000000000004e+00
0.0000000000000000e+00 7.0970000000000004e+00
0.0000000000000000e+00 2.4588000000000001e+01
ITEM: ATOMS id type x y z 
2 1 3.4038 1.63651 13.342 
5 1 4.65336 1.57794 18.1474 
7 1 3.38883 1.60545 15.9943 
8 1 2.16345 1.57863 18.1535 
18 1 3.4056 1.57598 17.4303 
21 1 3.32766 2.88849 12.62 
23 1 3.39588 1.62879 14.7728 
24 1 3.32552 0.379685 12.6304 
17 1 7.0254 2.87853 24.2839 
19 1 6.99541 1.62372 22.133 
20 1 7.02628 0.384011 24.2803 
22 1 6.95566 1.57982 19.4766 
25 1 5.71333 1.57875 18.7521 
27 1 6.97124 1.60222 20.9128 
28 1 1.10156 1.57687 18.7554 
30 1 7.0229 1.63287 23.5697 
10 1 6.90684 5.21988 5.1222 
13 1 7.02706 3.94037 0.298367 
15 1 6.97887 5.17051 2.45864 
16 1 7.02812 6.42339 0.301712 
26 1 7.02996 5.17986 1.0207 
29 1 5.65922 5.23127 5.82491 
31 1 6.95371 5.24161 3.67542 
32 1 1.05484 5.23286 5.83178 
1 1 4.58002 5.23801 6.40117 
3 1 3.68488 5.24204 8.59237 
4 1 2.10829 5.23844 6.45501 
6 1 3.11127 5.18552 11.2473 
9 1 3.26373 3.93031 12.0023 
11 1 3.21214 5.2057 9.83467 
12 1 3.2526 6.42573 12.0241 
14 1 3.35519 5.23923 7.12194 
33 2 4.7965 5.27333 8.34057 
34 2 6.16083 4.66661 9.18478 
35 3 5.86904 4.69108 10.0636 
ITEM: TIMESTEP
80
ITEM: NUMBER OF ATOMS
35
ITEM: BOX BOUNDS pp pp pp
0.0000000000000000e+00 7.0970000000000004e+00
0.0000000000000000e+00 7.0970000000000004e+00
0.0000000000000000e+00 2.4588000000000001e+01
ITEM: ATOMS id type x y z 
2 1 3.4057 1.63652 13.3416 
5 1 4.65276 1.57744 18.1474 
7 1 3.39025 1.60509 15.9932 
8 1 2.16413 1.57501 18.1542 
18 1 3.40581 1.578 17.4284 
21 1 3.33179 2.88862 12.6179 
23 1 3.39642 1.62877 14.7715 
24 1 3.32374 0.377614 12.6304 
17 1 7.02577 2.87803 24.2838 
19 1 6.99505 1.62277 22.1325 
20 1 7.02558 0.384216 24.281 
22 1 6.95562 1.57858 19.4758 
25 1 5.7127 1.57793 18.752 
27 1 6.97078 1.6041 20.9123 
28 1 1.10143 1.58031 18.7543 
30 1 7.0238 1.63255 23.569 
10 1 6.90891 5.22786 5.12342 
13 1 7.02758 3.93986 0.298307 
15 1 6.98314 5.17894 2.45845 
16 1 7.0272 6.42323 0.301642 
26 1 7.0286 5.17956 1.02013 
29 1 5.65716 5.23074 5.82365 
31 1 6.95056 5.22949 3.6762 
32 1 1.05365 5.2306 5.83425 
1 1 4.57631 5.23616 6.39648 
3 1 3.6856 5.24241 8.59351 
4 1 2.10698 5.23762 6.45826 
6 1 3.10496 5.18525 11.2467 
9 1 3.25477 3.93061 12.0034 
11 1 3.22028 5.20708 9.83666 
12 1 3.24741 6.42719 12.0241 
14 1 3.35408 5.24167 7.12279 
33 2 4.7994 5.2759 8.33934 
34 2 6.16478 4.66481 9.18719 
35 3 5.87632 4.68947 10.0661 
ITEM: TIMESTEP
90
ITEM: NUMBER OF ATOMS
35
ITEM: BOX BOUNDS pp pp pp
0.0000000000000000e+00 7.0970000000000004e+00
0.0000000000000000e+00 7.0970000000000004e+00
0.0000000000000000e+00 2.4588000000000001e+01
ITEM: ATOMS id type x y z 
2 1 3.42164 1.63526 13.3358 
5 1 4.6514 1.57387 18.1452 
7 1 3.3928 1.60556 15.9893 
8 1 2.16419 1.57897 18.1518 
18 1 3.40499 1.57777 17.425 
21 1 3.32216 2.89199 12.6194 
23 1 3.40598 1.62792 14.7655 
24 1 3.31889 0.374361 12.6303 
17 1 7.02612 2.87713 24.2835 
19 1 6.99494 1.62372 22.1294 
20 1 7.02495 0.385289 24.2835 
22 1 6.95521 1.57874 19.4724 
25 1 5.70965 1.58189 18.7523 
27 1 6.96933 1.60249 20.9094 
28 1 1.10392 1.57639 18.7542 
30 1 7.02528 1.6311 23.5667 
10 1 6.90921 5.2371 5.12286 
13 1 7.02699 3.93775 0.299349 
15 1 6.98839 5.20215 2.46 
16 1 7.02744 6.4229 0.300854 
26 1 7.02833 5.18036 1.02189 
29 1 5.64952 5.23643 5.81488 
31 1 6.94294 5.19354 3.67997 
32 1 1.0473 5.23637 5.847 
1 1 4.56395 5.23497 6.378 
3 1 3.70019 5.24601 8.5943 
4 1 2.10091 5.23511 6.47153 
6 1 3.07754 5.18584 11.2459 
9 1 3.23124 3.92993 12.0038 
11 1 3.24927 5.21087 9.84463 
12 1 3.22217 6.4274 12.0227 
14 1 3.3525 5.23878 7.12644 
33 2 4.80901 5.2869 8.33345 
34 2 6.18295 4.65669 9.19583 
35 3 5.90773 4.68246 10.0789 
ITEM: TIMESTEP
100
ITEM: NUMBER OF ATOMS
35
ITEM: BOX BOUNDS pp pp pp
0.0000000000000000e+00 7.0970000000000004e+00
0.0000000000000000e+00 7.0970000000000004e+00
0.0000000000000000e+00 2.4588000000000001e+01
ITEM: ATOMS id type x y z 
2 1 3.42525 1.63558 13.3354 
5 1 4.64892 1.5804 18.1484 
7 1 3.39444 1.60474 15.9867 
8 1 2.16517 1.57664 18.1519 
18 1 3.40541 1.57704 17.4218 
21 1 3.32203 2.89046 12.6185 
23 1 3.40812 1.62796 14.7651 
24 1 3.31653 0.374695 12.6308 
17 1 7.02654 2.87749 24.2834 
19 1 6.99444 1.62292 22.1294 
20 1 7.0262 0.386296 24.2844 
22 1 6.95468 1.57936 19.4731 
25 1 5.71132 1.57505 18.7484 
27 1 6.96926 1.60348 20.9091 
28 1 1.10273 1.5792 18.7526 
30 1 7.024 1.63144 23.5662 
10 1 6.90841 5.23104 5.12446 
13 1 7.028 3.93752 0.300576 
15 1 6.98378 5.19391 2.461 
16 1 7.02844 6.42242 0.300264 
26 1 7.02985 5.18025 1.02161 
29 1 5.64641 5.23508 5.81139 
31 1 6.94276 5.20754 3.67932 
32 1 1.04575 5.23463 5.85088 
1 1 4.56086 5.23672 6.37457 
3 1 3.70509 5.24763 8.59443 
4 1 2.09828 5.23705 6.47592 
6 1 3.0709 5.1852 11.2445 
9 1 3.22152 3.93215 12.0042 
11 1 3.25541 5.21109 9.84596 
12 1 3.21523 6.42701 12.0214 
14 1 3.35259 5.23721 7.12775 
33 2 4.8148 5.29035 8.33162 
34 2 6.18867 4.65408 9.19843 
35 3 5.91724 4.68037 10.0826 
ITEM: TIMESTEP
110
ITEM: NUMBER OF ATOMS
35
ITEM: BOX BOUNDS pp pp pp
0.0000000000000000e+00 7.0970000000000004e+00
0.0000000000000000e+00 7.0970000000000004e+00
0.0000000000000000e+00 2.4588000000000001e+01
ITEM: ATOMS id type x y z 
2 1 3.42918 1.63546 13.3333 
5 1 4.64898 1.5775 18.1469 
7 1 3.39596 1.6051 15.9853 
8 1 2.16498 1.578 18.1508 
18 1 3.40511 1.57764 17.422 
21 1 3.31872 2.89136 12.6183 
23 1 3.411 1.62739 14.7635 
24 1 3.31437 0.373952 12.6301 
17 1 7.02747 2.87731 24.2843 
19 1 6.99414 1.62311 22.1288 
20 1 7.02578 0.386659 24.285 
22 1 6.95467 1.57931 19.471 
25 1 5.71043 1.578 18.749 
27 1 6.96901 1.60275 20.9087 
28 1 1.1029 1.57752 18.7522 
30 1 7.02379 1.63177 23.566 
10 1 6.90685 5.23132 5.12382 
13 1 7.028 3.93766 0.300848 
15 1 6.98385 5.19184 2.46178 
16 1 7.02943 6.42247 0.29997 
26 1 7.02949 5.18041 1.0229 
29 1 5.64326 5.23427 5.80781 
31 1 6.94223 5.20958 3.68061 
32 1 1.04396 5.23408 5.8541 
1 1 4.55771 5.23644 6.37109 
3 1 3.71082 5.24922 8.59457 
4 1 2.09545 5.2363 6.48073 
6 1 3.06431 5.18517 11.2435 
9 1 3.21338 3.93226 12.0046 
11 1 3.26154 5.21128 9.84707 
12 1 3.20845 6.42729 12.0204 
14 1 3.35241 5.23803 7.12957 
33 2 4.81988 5.29397 8.33008 
34 2 6.19465 4.65133 9.20111 
35 3 5.92687 4.67825 10.0864 
ITEM: TIMESTEP
120
ITEM: NUMBER OF ATOMS
35
ITEM: BOX BOUNDS pp pp pp
0.0000000000000000e+00 7.0970000000000004e+00
0.0000000000000000e+00 7.0970000000000004e+00
0.0000000000000000e+00 2.4588000000000001e+01
ITEM: ATOMS id type x y z 
2 1 3.45394 1.63512 13.3213 
5 1 4.65117 1.57904 18.1332 
7 1 3.40891 1.60358 15.9757 
8 1 2.16274 1.57879 18.1406 
18 1 3.40458 1.57884 17.4113 
21 1 3.29414 2.89554 12.6171 
23 1 3.43043 1.62541 14.7516 
24 1 3.2975 0.369807 12.6229 
17 1 7.02921 2.8758 24.2902 
19 1 6.99415 1.62177 22.1239 
20 1 7.02381 0.390121 24.2899 
22 1 6.95314 1.57863 19.4666 
25 1 5.70103 1.5784 18.755 
27 1 6.96679 1.60249 20.9038 
28 1 1.10571 1.57624 18.7513 
30 1 7.02631 1.63341 23.5635 
10 1 6.89981 5.23529 5.12933 
13 1 7.02432 3.93808 0.303092 
15 1 6.97712 5.18537 2.46711 
16 1 7.0324 6.42223 0.297645 
26 1 7.0361 5.18288 1.02712 
29 1 5.61705 5.23416 5.78157 
31 1 6.94594 5.20763 3.68603 
32 1 1.03015 5.23192 5.87931 
1 1 4.53273 5.23367 6.34646 
3 1 3.75232 5.26068 8.59549 
4 1 2.07403 5.23453 6.51668 
6 1 3.0148 5.18434 11.2353 
9 1 3.15328 3.93347 12.0048 
11 1 3.30652 5.21379 9.85654 
12 1 3.16233 6.42966 12.0119 
14 1 3.34856 5.23872 7.14324 
33 2 4.85861 5.322 8.32039 
34 2 6.2404 4.63008 9.22155 
35 3 5.99897 4.6625 10.1144 
ITEM: TIMESTEP
130
ITEM: NUMBER OF ATOMS
35
ITEM: BOX BOUNDS pp pp pp
0.0000000000000000e+00 7.0970000000000004e+00
0.0000000000000000e+00 7.0970000000000004e+00
0.0000000000000000e+00 2.4588000000000001e+01
ITEM: ATOMS id type x y z 
2 1 3.44952 1.63507 13.32 
5 1 4.65055 1.5786 18.1337 
7 1 3.41156 1.60396 15.9719 
8 1 2.16229 1.5783 18.1398 
18 1 3.40469 1.5788 17.4095 
21 1 3.28999 2.89491 12.6134 
23 1 3.42998 1.62509 14.75 
24 1 3.29538 0.370757 12.6197 
17 1 7.02743 2.87676 24.289 
19 1 6.9933 1.62208 22.1249 
20 1 7.02836 0.389569 24.2883 
22 1 6.95297 1.57805 19.4661 
25 1 5.7017 1.57841 18.7536 
27 1 6.96737 1.60189 20.905 
28 1 1.10582 1.57809 18.7505 
30 1 7.02425 1.63325 23.5643 
10 1 6.89969 5.23319 5.1302 
13 1 7.02922 3.93791 0.303984 
15 1 6.98527 5.18425 2.46787 
16 1 7.02977 6.42342 0.299683 
26 1 7.03023 5.18166 1.027 
29 1 5.61435 5.23374 5.77915 
31 1 6.94232 5.20909 3.68671 
32 1 1.02709 5.23385 5.88612 
1 1 4.53052 5.23444 6.34518 
3 1 3.75467 5.26085 8.59667 
4 1 2.07395 5.2344 6.51903 
6 1 3.00922 5.1844 11.2317 
9 1 3.15637 3.93457 12.0048 
11 1 3.30855 5.21521 9.85839 
12 1 3.16215 6.42818 12.0113 
14 1 3.34891 5.23725 7.14679 
33 2 4.86123 5.32508 8.32153 
34 2 6.2452 4.62767 9.22362 
35 3 6.00513 4.66126 10.1165 
ITEM: TIMESTEP
140
ITEM: NUMBER OF ATOMS
35
ITEM: BOX BOUNDS pp pp pp
0.0000000000000000e+00 7.0970000000000004e+00
0.0000000000000000e+00 7.0970000000000004e+00
0.0000000000000000e+00 2.4588000000000001e+01
ITEM: ATOMS id type x y z 
2 1 3.44577 1.63497 13.3181 
5 1 4.65016 1.57862 18.1339 
7 1 3.41374 1.60398 15.9705 
8 1 2.16208 1.57839 18.1386 
18 1 3.40484 1.57889 17.4083 
21 1 3.28885 2.89549 12.6109 
23 1 3.42937 1.62513 14.7487 
24 1 3.29331 0.370448 12.6173 
17 1 7.02737 2.87752 24.2879 
19 1 6.99346 1.62202 22.125 
20 1 7.0278 0.388558 24.2875 
22 1 6.95306 1.57811 19.466 
25 1 5.70197 1.5782 18.7525 
27 1 6.9673 1.60196 20.9051 
28 1 1.10591 1.57814 18.7497 
30 1 7.02461 1.63327 23.5646 
10 1 6.89915 5.23349 5.1314 
13 1 7.02938 3.9374 0.305086 
15 1 6.98419 5.18532 2.46872 
16 1 7.0299 6.42387 0.301388 
26 1 7.03114 5.18145 1.02797 
29 1 5.61232 5.2332 5.77716 
31 1 6.94373 5.20819 3.68776 
32 1 1.02487 5.23302 5.89085 
1 1 4.52884 5.2348 6.34398 
3 1 3.75746 5.26141 8.59753 
4 1 2.07286 5.23522 6.52187 
6 1 3.00617 5.18449 11.2308 
9 1 3.15566 3.93441 12.0036 
11 1 3.31193 5.21558 9.85893 
12 1 3.16053 6.42817 12.0103 
14 1 3.34888 5.23654 7.14776 
33 2 4.86362 5.32785 8.32274 
34 2 6.24967 4.62543 9.22541 
35 3 6.0091 4.66048 10.1183 
ITEM: TIMESTEP
142
ITEM: NUMBER OF ATOMS
35
ITEM: BOX BOUNDS pp pp pp
0.0000000000000000e+00 7.0970000000000004e+00
0.0000000000000000e+00 7.0970000000000004e+00
0.0000000000000000e+00 2.4588000000000001e+01
ITEM: ATOMS id type x y z 
2 1 3.44549 1.63494 13.318 
5 1 4.65013 1.57857 18.1339 
7 1 3.41392 1.60397 15.9704 
8 1 2.16207 1.57836 18.1385 
18 1 3.40486 1.57893 17.4082 
21 1 3.2888 2.89479 12.6111 
23 1 3.42933 1.62514 14.7485 
24 1 3.29316 0.370853 12.6174 
17 1 7.02739 2.87759 24.2878 
19 1 6.99346 1.62201 22.125 
20 1 7.0278 0.38848 24.2874 
22 1 6.95307 1.57809 19.466 
25 1 5.702 1.57823 18.7524 
27 1 6.9673 1.60196 20.9051 
28 1 1.1059 1.57819 18.7496 
30 1 7.02461 1.63326 23.5646 
10 1 6.89913 5.23355 5.13151 
13 1 7.02938 3.93736 0.305176 
15 1 6.98428 5.18556 2.46882 
16 1 7.02989 6.42391 0.301524 
26 1 7.03114 5.18142 1.02806 
29 1 5.61214 5.23324 5.777 
31 1 6.94372 5.20785 3.68785 
32 1 1.02468 5.23307 5.89124 
1 1 4.52869 5.23477 6.34387 
3 1 3.75771 5.26146 8.59757 
4 1 2.07274 5.23519 6.52213 
6 1 3.00592 5.18455 11.2306 
9 1 3.15551 3.93502 12.0031 
11 1 3.31218 5.21561 9.85902 
12 1 3.16032 6.42783 12.0099 
14 1 3.34888 5.23651 7.14786 
33 2 4.86383 5.3281 8.32284 
34 2 6.25007 4.62522 9.22558 
35 3 6.00948 4.66041 10.1185 
ITEM: TIMESTEP
144
ITEM: NUMBER OF ATOMS
35
ITEM: BOX BOUNDS pp pp pp
0.0000000000000000e+00 7.0970000000000004e+00
0.0000000000000000e+00 7.0970000000000004e+00
0.0000000000000000e+00 2.4588000000000001e+01
ITEM: ATOMS id type x y z 
2 1 3.44542 1.63496 13.3179 
5 1 4.65013 1.57856 18.1339 
7 1 3.41396 1.60397 15.9703 
8 1 2.16206 1.57836 18.1385 
18 1 3.40486 1.57893 17.4082 
21 1 3.2887 2.8953 12.6108 
23 1 3.42932 1.62514 14.7485 
24 1 3.29307 0.370523 12.6171 
17 1 7.02739 2.8776 24.2878 
19 1 6.99346 1.62201 22.125 
20 1 7.0278 0.388464 24.2874 
22 1 6.95308 1.57809 19.466 
25 1 5.702 1.57824 18.7524 
27 1 6.9673 1.60196 20.9051 
28 1 1.10591 1.57819 18.7496 
30 1 7.02462 1.63326 23.5646 
10 1 6.89911 5.23351 5.13153 
13 1 7.02938 3.93735 0.305194 
15 1 6.98427 5.18562 2.46883 
16 1 7.02988 6.42391 0.301552 
26 1 7.03116 5.18142 1.02808 
29 1 5.6121 5.2333 5.77696 
31 1 6.94376 5.20776 3.68788 
32 1 1.02464 5.23317 5.89133 
1 1 4.52866 5.23472 6.34385 
3 1 3.75778 5.26147 8.59759 
4 1 2.07272 5.23513 6.52219 
6 1 3.00589 5.18452 11.2307 
9 1 3.15555 3.93457 12.0033 
11 1 3.31221 5.21563 9.85901 
12 1 3.16032 6.42811 12.0101 
14 1 3.34888 5.23651 7.14787 
33 2 4.86388 5.32815 8.32286 
34 2 6.25016 4.62518 9.22562 
35 3 6.00958 4.66038 10.1185 
ITEM: TIMESTEP
150
ITEM: NUMBER OF ATOMS
35
ITEM: BOX BOUNDS pp pp pp
-1.2620502116890806e-03 7.0982620502116891e+00
-1.0645219399891639e-03 7.0980645219399898e+00
-7.3764000000000008e-03 2.4595376399999999e+01
ITEM: ATOMS id type x y z 
2 1 3.44538 1.63438 13.3186 
5 1 4.65052 1.57797 18.1374 
7 1 3.41391 1.60338 15.9725 
8 1 2.16156 1.57777 18.142 
18 1 3.40481 1.57834 17.4113 
21 1 3.28861 2.8951 12.611 
23 1 3.42928 1.62457 14.75 
24 1 3.29297 0.369565 12.6173 
17 1 7.02863 2.87741 24.295 
19 1 6.99469 1.62143 22.1309 
20 1 7.02903 0.387508 24.2946 
22 1 6.95429 1.5775 19.4703 
25 1 5.70276 1.57765 18.7563 
27 1 6.96851 1.60137 20.9102 
28 1 1.10504 1.5776 18.7534 
30 1 7.02585 1.63268 23.5713 
10 1 6.9003 5.23401 5.12723 
13 1 7.03062 3.93746 0.297999 
15 1 6.98549 5.18612 2.46295 
16 1 7.03112 6.42478 0.294355 
26 1 7.0324 5.18191 1.02132 
29 1 5.61283 5.23382 5.77305 
31 1 6.94497 5.20825 3.6827 
32 1 1.02375 5.23369 5.8875 
1 1 4.52901 5.23522 6.34027 
3 1 3.75786 5.26199 8.59537 
4 1 2.07219 5.23563 6.51873 
6 1 3.0057 5.18501 11.23 
9 1 3.15541 3.93469 12.0032 
11 1 3.31213 5.21613 9.85755 
12 1 3.16018 6.42897 12.0099 
14 1 3.34881 5.23702 7.14479 
33 2 4.86435 5.32869 8.32048 
34 2 6.25113 4.6255 9.22378 
35 3 6.01046 4.66072 10.1172 
ITEM: TIMESTEP
160
ITEM: NUMBER OF ATOMS
35
ITEM: BOX BOUNDS pp pp pp
-2.3745369589057894e-03 7.0993745369589059e+00
-1.9424959074354662e-03 7.0989424959074370e+00
-1.4866750683073512e-02 2.4602866750683070e+01
ITEM: ATOMS id type x y z 
2 1 3.44532 1.63391 13.3192 
5 1 4.65092 1.57748 18.141 
7 1 3.41388 1.6029 15.9746 
8 1 2.16107 1.57729 18.1456 
18 1 3.40477 1.57786 17.4144 
21 1 3.2885 2.89504 12.6111 
23 1 3.42924 1.62409 14.7516 
24 1 3.29287 0.368657 12.6174 
17 1 7.02972 2.8773 24.3023 
19 1 6.99577 1.62095 22.1368 
20 1 7.03012 0.386671 24.302 
22 1 6.95536 1.57701 19.4747 
25 1 5.70338 1.57716 18.7602 
27 1 6.96959 1.60089 20.9156 
28 1 1.10433 1.57711 18.7573 
30 1 7.02694 1.63221 23.5782 
10 1 6.90134 5.23441 5.12289 
13 1 7.03171 3.93751 0.290671 
15 1 6.98656 5.18654 2.45706 
16 1 7.03221 6.42555 0.287029 
26 1 7.03349 5.18231 1.01447 
29 1 5.61332 5.23425 5.76914 
31 1 6.94605 5.20864 3.67738 
32 1 1.02308 5.23413 5.8837 
1 1 4.52947 5.23563 6.33656 
3 1 3.75792 5.26241 8.5931 
4 1 2.07157 5.23603 6.51514 
6 1 3.00554 5.18542 11.2294 
9 1 3.15529 3.93473 12.003 
11 1 3.31209 5.21654 9.85608 
12 1 3.16005 6.42977 12.0098 
14 1 3.34875 5.23744 7.14167 
33 2 4.86477 5.32915 8.31807 
34 2 6.252 4.62575 9.22193 
35 3 6.01125 4.66099 10.1159 
ITEM: TIMESTEP
170
ITEM: NUMBER OF ATOMS
35
ITEM: BOX BOUNDS pp pp pp
-3.0968264550324939e-03 7.1000968264550322e+00
-2.3236168181227515e-03 7.0993236168181237e+00
-1.8135942877035075e-02 2.4606135942877025e+01
ITEM: ATOMS id type x y z 
2 1 3.44527 1.6337 13.3195 
5 1 4.65123 1.57726 18.1426 
7 1 3.41387 1.6027 15.9754 
8 1 2.1607 1.57708 18.1472 
18 1 3.40474 1.57765 17.4157 
21 1 3.28842 2.89512 12.6111 
23 1 3.42921 1.62388 14.7524 
24 1 3.29277 0.36814 12.6174 
17 1 7.03043 2.87731 24.3055 
19 1 6.99646 1.62074 22.1392 
20 1 7.03083 0.386248 24.3052 
22 1 6.95605 1.5768 19.4766 
25 1 5.70374 1.57695 18.7618 
27 1 6.97029 1.60069 20.918 
28 1 1.10392 1.5769 18.759 
30 1 7.02765 1.632 23.5812 
10 1 6.902 5.23457 5.12101 
13 1 7.03242 3.93747 0.287446 
15 1 6.98725 5.18674 2.45463 
16 1 7.03292 6.42594 0.283809 
26 1 7.0342 5.18249 1.0115 
29 1 5.61352 5.23445 5.7675 
31 1 6.94677 5.2088 3.67494 
32 1 1.02272 5.23435 5.88213 
1 1 4.5299 5.23579 6.33485 
3 1 3.75797 5.2626 8.59209 
4 1 2.07107 5.23619 6.51351 
6 1 3.00545 5.18561 11.2292 
9 1 3.15521 3.93467 12.003 
11 1 3.31207 5.21672 9.85545 
12 1 3.15997 6.43019 12.0098 
14 1 3.34873 5.23762 7.14034 
33 2 4.86505 5.32936 8.31702 
34 2 6.25258 4.62585 9.22113 
35 3 6.01177 4.66111 10.1153 
ITEM: TIMESTEP
171
ITEM: NUMBER OF ATOMS
35
ITEM: BOX BOUNDS pp pp pp
-3.0968264550324939e-03 7.1000968264550322e+00
-2.3236168181227515e-03 7.0993236168181237e+00
-1.8135942877035075e-02 2.4606135942877025e+01
ITEM: ATOMS id type x y z 
2 1 3.44527 1.6337 13.3195 
5 1 4.65123 1.57726 18.1426 
7 1 3.41387 1.6027 15.9754 
8 1 2.1607 1.57708 18.1472 
18 1 3.40474 1.57765 17.4157 
21 1 3.28842 2.89512 12.6111 
23 1 3.42921 1.62388 14.7524 
24 1 3.29277 0.36814 12.6174 
17 1 7.03043 2.87731 24.3055 
19 1 6.99646 1.62074 22.1392 
20 1 7.03083 0.386248 24.3052 
22 1 6.95605 1.5768 19.4766 
25 1 5.70374 1.57695 18.7618 
27 1 6.97029 1.60069 20.918 
28 1 1.10392 1.5769 18.759 
30 1 7.02765 1.632 23.5812 
10 1 6.902 5.23457 5.12101 
13 1 7.03242 3.93747 0.287446 
15 1 6.98725 5.18674 2.45463 
16 1 7.03292 6.42594 0.283809 
26 1 7.0342 5.18249 1.0115 
29 1 5.61352 5.23445 5.7675 
31 1 6.94677 5.2088 3.67494 
32 1 1.02272 5.23435 5.88213 
1 1 4.5299 5.23579 6.33485 
3 1 3.75797 5.2626 8.59209 
4 1 2.07107 5.23619 6.51351 
6 1 3.00545 5.18561 11.2292 
9 1 3.15521 3.93467 12.003 
11 1 3.31207 5.21672 9.85545 
12 1 3.15997 6.43019 12.0098 
14 1 3.34873 5.23762 7.14034 
33 2 4.86505 5.32936 8.31702 
34 2 6.25258 4.62585 9.22113 
35 3 6.01177 4.66111 10.1153 
ITEM: TIMESTEP
172
ITEM: NUMBER OF ATOMS
35
ITEM: BOX BOUNDS pp pp pp
-3.0968264550324939e-03 7.1000968264550322e+00
-2.3236168181227515e-03 7.0993236168181237e+00
-1.8135942877035075e-02 2.4606135942877025e+01
ITEM: ATOMS id type x y z 
2 1 3.44527 1.6337 13.3195 
5 1 4.65123 1.57726 18.1426 
7 1 3.41387 1.6027 15.9754 
8 1 2.1607 1.57708 18.1472 
18 1 3.40474 1.57765 17.4157 
21 1 3.28842 2.89512 12.6111 
23 1 3.42921 1.62388 14.7524 
24 1 3.29277 0.36814 12.6174 
17 1 7.03043 2.87731 24.3055 
19 1 6.99646 1.62074 22.1392 
20 1 7.03083 0.386248 24.3052 
22 1 6.95605 1.5768 19.4766 
25 1 5.70374 1.57695 18.7618 
27 1 6.97029 1.60069 20.918 
28 1 1.10392 1.5769 18.759 
30 1 7.02765 1.632 23.5812 
10 1 6.902 5.23457 5.12101 
13 1 7.03242 3.93747 0.287446 
15 1 6.98725 5.18674 2.45463 
16 1 7.03292 6.42594 0.283809 
26 1 7.0342 5.18249 1.0115 
29 1 5.61352 5.23445 5.7675 
31 1 6.94677 5.2088 3.67494 
32 1 1.02272 5.23435 5.88213 
1 1 4.5299 5.23579 6.33485 
3 1 3.75797 5.2626 8.59209 
4 1 2.07107 5.23619 6.51351 
6 1 3.00545 5.18561 11.2292 
9 1 3.15521 3.93467 12.003 
11 1 3.31207 5.21672 9.85545 
12 1 3.15997 6.43019 12.0098 
14 1 3.34873 5.23762 7.14034 
33 2 4.86505 5.32936 8.31702 
34 2 6.25258 4.62585 9.22113 
35 3 6.01177 4.66111 10.1153 
ITEM: TIMESTEP
173
ITEM: NUMBER OF ATOMS
35
ITEM: BOX BOUNDS pp pp pp
-3.0968264550324939e-03 7.1000968264550322e+00
-2.3236168181227515e-03 7.0993236168181237e+00
-1.8135942877035075e-02 2.4606135942877025e+01
ITEM: ATOMS id type x y z 
2 1 3.44527 1.6337 13.3195 
5 1 4.65123 1.57726 18.1426 
7 1 3.41387 1.6027 15.9754 
8 1 2.1607 1.57708 18.1472 
18 1 3.40474 1.57765 17.4157 
21 1 3.28842 2.89512 12.6111 
23 1 3.42921 1.62388 14.7524 
24 1 3.29277 0.36814 12.6174 
17 1 7.03043 2.87731 24.3055 
19 1 6.99646 1.62074 22.1392 
20 1 7.03083 0.386248 24.3052 
22 1 6.95605 1.5768 19.4766 
25 1 5.70374 1.57695 18.7618 
27 1 6.97029 1.60069 20.918 
28 1 1.10392 1.5769 18.759 
30 1 7.02765 1.632 23.5812 
10 1 6.902 5.23457 5.12101 
13 1 7.03242 3.93747 0.287446 
15 1 6.98725 5.18674 2.45463 
16 1 7.03292 6.42594 0.283809 
26 1 7.0342 5.18249 1.0115 
29 1 5.61352 5.23445 5.7675 
31 1 6.94677 5.2088 3.67494 
32 1 1.02272 5.23435 5.88213 
1 1 4.5299 5.23579 6.33485 
3 1 3.75797 5.2626 8.59209 
4 1 2.07107 5.23619 6.51351 
6 1 3.00545 5.18561 11.2292 
9 1 3.15521 3.93467 12.003 
11 1 3.31207 5.21672 9.85545 
12 1 3.15997 6.43019 12.0098 
14 1 3.34873 5.23762 7.14034 
33 2 4.86505 5.32936 8.31702 
34 2 6.25258 4.62585 9.22113 
35 3 6.01177 4.66111 10.1153 
