ITEM: TIMESTEP
0
ITEM: NUMBER OF ATOMS
57
ITEM: BOX BOUNDS pp pp pp
0.0000000000000000e+00 3.2808000000000000e+01
0.0000000000000000e+00 1.7780000000000001e+01
0.0000000000000000e+00 2.4729999999999999e+00
ITEM: ATOMS id type x y z 
13 1 7.043 0.849 2.464 
29 1 7.397 1.432 1.228 
37 1 8.035 2.733 1.228 
57 2 5.666 0.556 2.222 
1 1 6.173 17.398 2.464 
5 1 5.371 17.398 1.228 
9 1 3.973 17.398 1.228 
16 1 7.043 16.167 2.464 
32 1 7.397 15.584 1.228 
40 1 8.035 14.283 1.228 
45 1 3.236 17.398 2.464 
49 1 1.81 17.398 2.464 
53 1 1.083 17.398 1.228 
4 1 10.968 8.508 2.464 
8 1 11.771 8.508 1.228 
12 1 13.168 8.508 1.228 
18 1 10.098 7.277 2.464 
21 1 8.308 3.392 2.464 
26 1 8.833 4.734 2.464 
34 1 9.745 6.694 1.228 
42 1 9.106 5.393 1.228 
48 1 13.906 8.508 2.464 
52 1 15.331 8.508 2.464 
56 1 16.058 8.508 1.228 
19 1 10.098 9.739 2.464 
24 1 8.308 13.624 2.464 
27 1 8.833 12.282 2.464 
35 1 9.745 10.322 1.228 
43 1 9.106 11.623 1.228 
3 1 22.577 8.508 2.464 
7 1 21.775 8.508 1.228 
11 1 20.377 8.508 1.228 
20 1 23.447 7.277 2.464 
36 1 23.801 6.694 1.228 
44 1 24.439 5.393 1.228 
47 1 19.64 8.508 2.464 
51 1 18.214 8.508 2.464 
55 1 17.487 8.508 1.228 
17 1 23.447 9.739 2.464 
33 1 23.801 10.322 1.228 
41 1 24.439 11.623 1.228 
15 1 26.502 0.849 2.464 
23 1 25.237 3.392 2.464 
28 1 24.712 4.734 2.464 
31 1 26.149 1.432 1.228 
39 1 25.511 2.733 1.228 
2 1 27.373 17.398 2.464 
6 1 28.175 17.398 1.228 
10 1 29.572 17.398 1.228 
14 1 26.502 16.167 2.464 
22 1 25.237 13.624 2.464 
25 1 24.712 12.282 2.464 
30 1 26.149 15.584 1.228 
38 1 25.511 14.283 1.228 
46 1 30.31 17.398 2.464 
50 1 31.735 17.398 2.464 
54 1 32.462 17.398 1.228 
ITEM: TIMESTEP
10
ITEM: NUMBER OF ATOMS
57
ITEM: BOX BOUNDS pp pp pp
0.0000000000000000e+00 3.2808000000000000e+01
0.0000000000000000e+00 1.7780000000000001e+01
0.0000000000000000e+00 2.4729999999999999e+00
ITEM: ATOMS id type x y z 
13 1 7.05251 0.819406 2.45676 
29 1 7.44176 1.35307 1.22186 
37 1 8.0487 2.69648 1.22763 
57 2 5.59351 0.632135 2.17039 
1 1 6.14295 17.4086 2.51596 
5 1 5.36469 17.4129 1.26483 
9 1 4.00668 17.3694 1.21278 
16 1 7.07797 16.1771 2.46496 
32 1 7.42869 15.5816 1.2276 
40 1 8.04641 14.3241 1.22775 
45 1 3.28734 17.3947 2.45582 
49 1 1.78837 17.3987 2.46387 
53 1 1.07866 17.3981 1.22754 
4 1 10.9764 8.51307 2.4642 
8 1 11.8024 8.50854 1.22774 
12 1 13.2097 8.50803 1.22776 
18 1 10.0517 7.28722 2.46426 
21 1 8.31024 3.37155 2.46403 
26 1 8.82611 4.7444 2.46424 
34 1 9.69377 6.66219 1.22778 
42 1 9.09788 5.44424 1.22775 
48 1 13.9082 8.50801 2.46425 
52 1 15.3184 8.508 2.46425 
56 1 16.0487 8.508 1.22775 
19 1 10.0517 9.73141 2.46426 
24 1 8.30677 13.6526 2.46422 
27 1 8.82878 12.2661 2.46423 
35 1 9.69477 10.3532 1.22778 
43 1 9.09265 11.5871 1.22776 
3 1 22.5817 8.508 2.46419 
7 1 21.7458 8.508 1.22774 
11 1 20.3337 8.508 1.22776 
20 1 23.4926 7.28575 2.46426 
36 1 23.8473 6.66984 1.22779 
44 1 24.4503 5.43394 1.22776 
47 1 19.6406 8.508 2.46425 
51 1 18.2306 8.508 2.46425 
55 1 17.4903 8.508 1.22775 
17 1 23.4926 9.73025 2.46426 
33 1 23.8473 10.3462 1.22779 
41 1 24.4503 11.5821 1.22776 
15 1 26.4558 0.840452 2.46426 
23 1 25.2358 3.36803 2.46423 
28 1 24.713 4.75796 2.46423 
31 1 26.1021 1.45762 1.22779 
39 1 25.4996 2.69239 1.22776 
2 1 27.3651 17.398 2.46419 
6 1 28.2048 17.398 1.22774 
10 1 29.6086 17.398 1.22776 
14 1 26.4558 16.1755 2.46426 
22 1 25.2358 13.648 2.46423 
25 1 24.713 12.258 2.46423 
30 1 26.1021 15.5584 1.22779 
38 1 25.4996 14.3236 1.22776 
46 1 30.289 17.398 2.46425 
50 1 31.7582 17.398 2.46425 
54 1 32.5188 17.398 1.22774 
ITEM: TIMESTEP
20
ITEM: NUMBER OF ATOMS
57
ITEM: BOX BOUNDS pp pp pp
0.0000000000000000e+00 3.2808000000000000e+01
0.0000000000000000e+00 1.7780000000000001e+01
0.0000000000000000e+00 2.4729999999999999e+00
ITEM: ATOMS id type x y z 
13 1 7.15082 0.764823 2.48043 
29 1 7.51278 1.31601 1.2316 
37 1 8.09394 2.73538 1.22732 
57 2 5.4481 0.622212 2.08226 
1 1 6.15626 17.4199 2.54732 
5 1 5.34862 17.4484 1.2997 
9 1 4.00062 17.3373 1.2062 
16 1 7.08773 16.1771 2.4672 
32 1 7.44964 15.5897 1.22948 
40 1 8.06254 14.3373 1.22787 
45 1 3.25043 17.3849 2.44937 
49 1 1.78439 17.4001 2.46279 
53 1 1.11226 17.3989 1.22663 
4 1 10.9834 8.51496 2.46423 
8 1 11.7745 8.51134 1.22773 
12 1 13.1522 8.50788 1.22775 
18 1 10.0473 7.30358 2.46426 
21 1 8.31337 3.36842 2.46371 
26 1 8.81696 4.75557 2.46422 
34 1 9.68933 6.70499 1.22776 
42 1 9.07399 5.44253 1.22773 
48 1 13.916 8.50789 2.46425 
52 1 15.3701 8.50798 2.46425 
56 1 16.0332 8.508 1.22775 
19 1 10.0453 9.72433 2.46426 
24 1 8.31541 13.6575 2.4643 
27 1 8.81806 12.2666 2.46424 
35 1 9.68488 10.3213 1.22777 
43 1 9.07335 11.5849 1.22775 
3 1 22.5729 8.508 2.46423 
7 1 21.7722 8.508 1.22773 
11 1 20.3531 8.508 1.22775 
20 1 23.5044 7.2927 2.46426 
36 1 23.866 6.68804 1.22777 
44 1 24.4693 5.44022 1.22775 
47 1 19.6139 8.508 2.46425 
51 1 18.2457 8.508 2.46425 
55 1 17.4641 8.508 1.22775 
17 1 23.5044 9.7233 2.46426 
33 1 23.866 10.328 1.22777 
41 1 24.4693 11.5758 1.22775 
15 1 26.4413 0.833811 2.46426 
23 1 25.2253 3.36718 2.46424 
28 1 24.7241 4.75743 2.46424 
31 1 26.0838 1.43853 1.22777 
39 1 25.4784 2.69177 1.22775 
2 1 27.3648 17.398 2.46423 
6 1 28.1918 17.398 1.22773 
10 1 29.5909 17.398 1.22775 
14 1 26.4413 16.1822 2.46426 
22 1 25.2253 13.6488 2.46424 
25 1 24.7241 12.2586 2.46424 
30 1 26.0838 15.5775 1.22777 
38 1 25.4784 14.3242 1.22775 
46 1 30.3217 17.398 2.46425 
50 1 31.7736 17.398 2.46418 
54 1 32.5216 17.3981 1.22767 
ITEM: TIMESTEP
30
ITEM: NUMBER OF ATOMS
57
ITEM: BOX BOUNDS pp pp pp
0.0000000000000000e+00 3.2808000000000000e+01
0.0000000000000000e+00 1.7780000000000001e+01
0.0000000000000000e+00 2.4729999999999999e+00
ITEM: ATOMS id type x y z 
13 1 7.16746 0.727123 2.4885 
29 1 7.55441 1.31998 1.24809 
37 1 8.10351 2.70869 1.22791 
57 2 5.43204 0.652751 2.02021 
1 1 6.17516 17.4263 2.5783 
5 1 5.34319 17.4805 1.31301 
9 1 4.00157 17.3031 1.20122 
16 1 7.07986 16.1688 2.46806 
32 1 7.46465 15.5918 1.23067 
40 1 8.07807 14.3439 1.22815 
45 1 3.27716 17.3714 2.44564 
49 1 1.79006 17.4022 2.46213 
53 1 1.06854 17.4003 1.22575 
4 1 10.9473 8.5176 2.46424 
8 1 11.78 8.51409 1.22774 
12 1 13.1653 8.50752 1.22775 
18 1 10.03 7.30185 2.46425 
21 1 8.31865 3.3752 2.46436 
26 1 8.80507 4.7578 2.46421 
34 1 9.66143 6.69386 1.22775 
42 1 9.06158 5.45774 1.22771 
48 1 13.9277 8.50744 2.46425 
52 1 15.3737 8.50792 2.46425 
56 1 16.0314 8.50802 1.22775 
19 1 10.0273 9.7316 2.46426 
24 1 8.32245 13.6623 2.46456 
27 1 8.81086 12.2634 2.46426 
35 1 9.6561 10.3351 1.22776 
43 1 9.05772 11.5815 1.22775 
3 1 22.5809 8.508 2.46424 
7 1 21.7717 8.508 1.22774 
11 1 20.3536 8.508 1.22775 
20 1 23.5124 7.29633 2.46426 
36 1 23.8836 6.69434 1.22776 
44 1 24.4847 5.44568 1.22775 
47 1 19.6217 8.508 2.46425 
51 1 18.2462 8.508 2.46425 
55 1 17.4927 8.50801 1.22775 
17 1 23.5124 9.71967 2.46426 
33 1 23.8836 10.3217 1.22776 
41 1 24.4847 11.5703 1.22775 
15 1 26.4352 0.828518 2.46426 
23 1 25.2173 3.36512 2.46425 
28 1 24.731 4.76226 2.46425 
31 1 26.0678 1.42959 1.22776 
39 1 25.4649 2.68288 1.22775 
2 1 27.3633 17.398 2.46424 
6 1 28.1884 17.398 1.22774 
10 1 29.5875 17.398 1.22774 
14 1 26.4352 16.1875 2.46426 
22 1 25.2173 13.6509 2.46425 
25 1 24.731 12.2537 2.46425 
30 1 26.0678 15.5864 1.22776 
38 1 25.4649 14.3331 1.22775 
46 1 30.3186 17.398 2.46424 
50 1 31.7825 17.3979 2.46404 
54 1 32.5239 17.3983 1.22748 
ITEM: TIMESTEP
40
ITEM: NUMBER OF ATOMS
57
ITEM: BOX BOUNDS pp pp pp
0.0000000000000000e+00 3.2808000000000000e+01
0.0000000000000000e+00 1.7780000000000001e+01
0.0000000000000000e+00 2.4729999999999999e+00
ITEM: ATOMS id type x y z 
13 1 7.32443 0.660705 0.0942772 
29 1 7.74207 1.26279 1.31827 
37 1 8.1814 2.63033 1.23792 
57 2 5.22306 1.08185 1.61184 
1 1 6.30077 17.3386 0.322325 
5 1 5.4375 17.6894 1.36768 
9 1 3.99161 17.0838 1.19035 
16 1 7.00812 16.0986 0.0040514 
32 1 7.55474 15.5804 1.23116 
53 1 1.08356 17.414 1.22134 
45 1 3.29105 17.2561 2.42637 
49 1 1.82115 17.4219 2.45712 
4 1 10.9191 8.50777 2.46426 
8 1 11.7341 8.52582 1.22776 
12 1 13.1334 8.50716 1.22775 
18 1 9.97543 7.32594 2.46422 
21 1 8.33048 3.35915 2.47063 
26 1 8.72434 4.75962 2.4646 
34 1 9.58896 6.77032 1.22772 
42 1 8.95193 5.46286 1.22789 
48 1 13.891 8.50316 2.46425 
52 1 15.3369 8.50713 2.46425 
56 1 16.0806 8.50826 1.22775 
19 1 9.97311 9.7167 2.46425 
24 1 8.38091 13.6713 2.46638 
27 1 8.7625 12.2477 2.4644 
35 1 9.56273 10.2903 1.22775 
43 1 8.96109 11.5518 1.22788 
40 1 8.18705 14.3851 1.22991 
3 1 22.6115 8.508 2.46426 
7 1 21.801 8.508 1.22776 
11 1 20.3693 8.508 1.22775 
20 1 23.5529 7.30649 2.46424 
36 1 23.9754 6.74028 1.22774 
44 1 24.5805 5.47386 1.22775 
47 1 19.6489 8.50799 2.46425 
51 1 18.2946 8.508 2.46425 
55 1 17.536 8.50817 1.22775 
17 1 23.5529 9.70951 2.46424 
33 1 23.9754 10.2757 1.22774 
41 1 24.5805 11.5421 1.22775 
15 1 26.3954 0.816316 2.46424 
23 1 25.1676 3.35538 2.46425 
28 1 24.7801 4.77388 2.46425 
31 1 25.9755 1.38735 1.22774 
39 1 25.3716 2.65409 1.22776 
2 1 27.3661 17.398 2.46426 
6 1 28.1464 17.398 1.22776 
10 1 29.5612 17.398 1.22768 
14 1 26.3954 16.1997 2.46424 
22 1 25.1676 13.6606 2.46425 
25 1 24.7801 12.2421 2.46425 
30 1 25.9755 15.6287 1.22774 
38 1 25.3716 14.3619 1.22776 
46 1 30.311 17.3975 2.46411 
50 1 31.7327 17.3966 2.46278 
54 1 32.5074 17.4011 1.22608 
ITEM: TIMESTEP
50
ITEM: NUMBER OF ATOMS
57
ITEM: BOX BOUNDS pp pp pp
0.0000000000000000e+00 3.2808000000000000e+01
0.0000000000000000e+00 1.7780000000000001e+01
0.0000000000000000e+00 2.4729999999999999e+00
ITEM: ATOMS id type x y z 
13 1 7.33534 0.638133 0.0994331 
29 1 7.75883 1.25346 1.32753 
37 1 8.19505 2.62852 1.24114 
57 2 5.23488 1.05457 1.59761 
1 1 6.28053 17.3746 0.2434 
5 1 5.3847 17.7095 1.40479 
9 1 3.99807 17.1019 1.19726 
16 1 6.97507 16.0967 0.0145316 
32 1 7.54365 15.6027 1.24161 
53 1 1.10977 17.4192 1.22077 
45 1 3.30065 17.228 2.43299 
49 1 1.85364 17.4168 2.45632 
4 1 10.928 8.52526 2.46426 
8 1 11.7531 8.52626 1.22775 
12 1 13.1463 8.50731 1.22775 
18 1 9.97876 7.33102 2.46424 
21 1 8.33101 3.35963 2.47467 
26 1 8.71073 4.75019 2.46486 
34 1 9.56875 6.76289 1.22774 
42 1 8.93141 5.46219 1.22825 
48 1 13.8961 8.5025 2.46425 
52 1 15.3459 8.5068 2.46425 
56 1 16.0678 8.50833 1.22775 
19 1 9.97175 9.71903 2.46426 
24 1 8.39342 13.6747 2.46671 
27 1 8.75543 12.2431 2.46445 
35 1 9.54925 10.2909 1.22776 
43 1 8.94974 11.5409 1.22793 
40 1 8.20781 14.3826 1.23059 
3 1 22.6099 8.508 2.46426 
7 1 21.8057 8.508 1.22776 
11 1 20.384 8.508 1.22775 
20 1 23.5559 7.30632 2.46424 
36 1 23.9841 6.74249 1.22774 
44 1 24.592 5.47954 1.22775 
47 1 19.6461 8.50798 2.46425 
51 1 18.2736 8.50801 2.46425 
55 1 17.5273 8.50826 1.22775 
17 1 23.5559 9.70968 2.46424 
33 1 23.9841 10.2735 1.22774 
41 1 24.592 11.5365 1.22775 
15 1 26.3915 0.816542 2.46424 
23 1 25.1615 3.35009 2.46425 
28 1 24.7869 4.77698 2.46425 
31 1 25.9688 1.38246 1.22774 
39 1 25.36 2.64944 1.22775 
2 1 27.3409 17.398 2.46425 
6 1 28.1608 17.3981 1.22775 
10 1 29.563 17.398 1.22761 
14 1 26.3915 16.1995 2.46424 
22 1 25.1615 13.6659 2.46425 
25 1 24.7869 12.239 2.46425 
30 1 25.9689 15.6336 1.22774 
38 1 25.36 14.3666 1.22775 
46 1 30.307 17.3972 2.46409 
50 1 31.7579 17.3963 2.46256 
54 1 32.5039 17.4026 1.22589 
ITEM: TIMESTEP
60
ITEM: NUMBER OF ATOMS
57
ITEM: BOX BOUNDS pp pp pp
0.0000000000000000e+00 3.2808000000000000e+01
0.0000000000000000e+00 1.7780000000000001e+01
0.0000000000000000e+00 2.4729999999999999e+00
ITEM: ATOMS id type x y z 
13 1 7.36393 0.624881 0.106363 
29 1 7.78076 1.24059 1.33674 
37 1 8.2125 2.62038 1.24861 
57 2 5.24128 1.06112 1.5829 
1 1 6.26284 17.3988 0.175899 
5 1 5.38241 17.7377 1.40125 
9 1 4.00607 17.1018 1.20836 
16 1 6.92171 16.1026 0.0276084 
32 1 7.516 15.6379 1.25831 
53 1 1.13475 17.4299 1.21986 
45 1 3.31385 17.1814 2.44386 
49 1 1.88055 17.4079 2.45588 
4 1 10.9187 8.51938 2.46426 
8 1 11.7458 8.52568 1.22776 
12 1 13.1371 8.50724 1.22775 
18 1 9.9765 7.32411 2.46429 
21 1 8.33423 3.35097 2.48146 
26 1 8.69105 4.75167 2.46584 
34 1 9.55404 6.76513 1.2278 
42 1 8.90339 5.4652 1.22905 
48 1 13.8923 8.50075 2.46425 
52 1 15.3391 8.50613 2.46425 
56 1 16.0629 8.50859 1.22775 
19 1 9.96986 9.71719 2.46428 
24 1 8.41698 13.6795 2.46836 
27 1 8.73799 12.25 2.46462 
35 1 9.53396 10.2779 1.22779 
43 1 8.92278 11.5313 1.22805 
40 1 8.2378 14.3893 1.23259 
3 1 22.6209 8.508 2.46426 
7 1 21.8289 8.508 1.22775 
11 1 20.3963 8.50799 1.22775 
20 1 23.5656 7.30367 2.46425 
36 1 24.0013 6.74548 1.22775 
44 1 24.6163 5.48467 1.22775 
47 1 19.6292 8.50794 2.46425 
51 1 18.2713 8.50802 2.46425 
55 1 17.5276 8.50849 1.22775 
17 1 23.5656 9.71233 2.46425 
33 1 24.0013 10.2705 1.22775 
41 1 24.6164 11.5313 1.22775 
15 1 26.3906 0.814193 2.46425 
23 1 25.1477 3.34566 2.46425 
28 1 24.8019 4.77819 2.46425 
31 1 25.9569 1.37382 1.22775 
39 1 25.3379 2.64075 1.22775 
2 1 27.3408 17.398 2.46424 
6 1 28.1645 17.3982 1.22773 
10 1 29.561 17.3979 1.22753 
14 1 26.3906 16.2018 2.46425 
22 1 25.1477 13.6703 2.46425 
25 1 24.8019 12.2378 2.46425 
30 1 25.9569 15.6422 1.22775 
38 1 25.3379 14.3753 1.22775 
46 1 30.311 17.3963 2.46398 
50 1 31.7584 17.3957 2.46219 
54 1 32.4995 17.4064 1.22555 
ITEM: TIMESTEP
70
ITEM: NUMBER OF ATOMS
57
ITEM: BOX BOUNDS pp pp pp
0.0000000000000000e+00 3.2808000000000000e+01
0.0000000000000000e+00 1.7780000000000001e+01
0.0000000000000000e+00 2.4729999999999999e+00
ITEM: ATOMS id type x y z 
13 1 7.3888 0.610292 0.108092 
29 1 7.80252 1.22669 1.34045 
37 1 8.22923 2.61318 1.25608 
57 2 5.24278 1.08841 1.56683 
1 1 6.27008 17.4113 0.144603 
5 1 5.38044 17.7676 1.38048 
9 1 4.01501 17.0973 1.21835 
16 1 6.89039 16.0956 0.0371069 
32 1 7.49083 15.64 1.26903 
53 1 1.14554 17.4396 1.21961 
45 1 3.31687 17.1387 2.45371 
49 1 1.88474 17.3923 2.45586 
4 1 10.9126 8.51114 2.46427 
8 1 11.7382 8.52259 1.22777 
12 1 13.1282 8.50724 1.22775 
18 1 9.97018 7.31491 2.46442 
21 1 8.34124 3.34665 2.48885 
26 1 8.66926 4.75279 2.46742 
34 1 9.53892 6.76159 1.22795 
42 1 8.87533 5.46592 1.23038 
48 1 13.8861 8.49928 2.46425 
52 1 15.333 8.50532 2.46425 
56 1 16.0593 8.50884 1.22775 
19 1 9.96637 9.70939 2.46432 
24 1 8.43728 13.6919 2.47067 
27 1 8.71602 12.2741 2.46496 
35 1 9.52338 10.2595 1.22782 
43 1 8.88263 11.5425 1.22833 
40 1 8.25512 14.4148 1.23548 
3 1 22.6295 8.508 2.46425 
7 1 21.8321 8.50801 1.22775 
11 1 20.4084 8.50798 1.22775 
20 1 23.5755 7.30508 2.46425 
36 1 24.0162 6.75407 1.22775 
44 1 24.6452 5.48915 1.22775 
47 1 19.639 8.50788 2.46425 
51 1 18.2631 8.50807 2.46425 
55 1 17.5203 8.50884 1.22775 
17 1 23.5755 9.71093 2.46425 
33 1 24.0162 10.2619 1.22775 
41 1 24.6452 11.5269 1.22775 
15 1 26.3909 0.810829 2.46424 
23 1 25.131 3.34164 2.46425 
28 1 24.8207 4.77562 2.46425 
31 1 25.9468 1.36095 1.22775 
39 1 25.3117 2.63244 1.22775 
2 1 27.3479 17.398 2.46422 
6 1 28.1686 17.3983 1.22771 
10 1 29.5644 17.3976 1.22741 
14 1 26.391 16.2052 2.46424 
22 1 25.1311 13.6744 2.46425 
25 1 24.8207 12.2404 2.46425 
30 1 25.9469 15.6551 1.22775 
38 1 25.3117 14.3836 1.22775 
46 1 30.3212 17.3949 2.46384 
50 1 31.7678 17.3959 2.46185 
54 1 32.5083 17.4129 1.22514 
ITEM: TIMESTEP
80
ITEM: NUMBER OF ATOMS
57
ITEM: BOX BOUNDS pp pp pp
0.0000000000000000e+00 3.2808000000000000e+01
0.0000000000000000e+00 1.7780000000000001e+01
0.0000000000000000e+00 2.4729999999999999e+00
ITEM: ATOMS id type x y z 
13 1 7.45042 0.579538 0.103436 
29 1 7.85773 1.20708 1.33899 
37 1 8.2668 2.59372 1.27329 
57 2 5.23963 1.16126 1.51722 
1 1 6.29764 17.4358 0.0988819 
5 1 5.38327 17.8361 1.34434 
9 1 4.04801 17.078 1.23956 
16 1 6.83296 16.0824 0.0518342 
32 1 7.42652 15.612 1.2856 
53 1 1.16811 17.4564 1.22041 
45 1 3.32261 17.0473 2.47538 
49 1 1.89128 17.3491 2.45723 
4 1 10.8804 8.50839 2.46434 
8 1 11.7056 8.51365 1.22782 
12 1 13.1027 8.50699 1.22775 
18 1 9.95048 7.30063 2.46498 
21 1 8.36068 3.33326 2.50616 
26 1 8.61458 4.75594 2.47229 
34 1 9.51037 6.75178 1.22866 
42 1 8.81198 5.46953 1.23487 
48 1 13.8597 8.49722 2.46425 
52 1 15.3036 8.50321 2.46425 
56 1 16.0438 8.50932 1.22775 
19 1 9.93216 9.70936 2.46443 
24 1 8.48174 13.7289 2.4781 
27 1 8.6782 12.2891 2.46639 
35 1 9.49395 10.2601 1.228 
43 1 8.8157 11.5611 1.22936 
40 1 8.28957 14.4521 1.24387 
3 1 22.6513 8.50804 2.46425 
7 1 21.8386 8.50803 1.22775 
11 1 20.4323 8.50791 1.22775 
20 1 23.5975 7.31042 2.46425 
36 1 24.0548 6.77707 1.22775 
44 1 24.7288 5.49279 1.22775 
47 1 19.6662 8.50765 2.46425 
51 1 18.238 8.50827 2.46425 
55 1 17.4953 8.50998 1.22775 
17 1 23.5975 9.70561 2.46425 
33 1 24.0548 10.239 1.22775 
41 1 24.7288 11.5233 1.22775 
15 1 26.3977 0.799038 2.46424 
23 1 25.0855 3.33664 2.46425 
28 1 24.8726 4.7578 2.46425 
31 1 25.9262 1.32592 1.22774 
39 1 25.2406 2.6086 1.22775 
2 1 27.3656 17.3981 2.46416 
6 1 28.1863 17.3987 1.22763 
10 1 29.5852 17.3959 1.22704 
14 1 26.398 16.2169 2.46424 
22 1 25.0856 13.6795 2.46425 
25 1 24.8726 12.2583 2.46425 
30 1 25.9264 15.6901 1.22774 
38 1 25.2407 14.4075 1.22775 
46 1 30.3371 17.3906 2.46347 
50 1 31.7888 17.3991 2.46095 
54 1 32.5241 17.4342 1.22436 
ITEM: TIMESTEP
90
ITEM: NUMBER OF ATOMS
57
ITEM: BOX BOUNDS pp pp pp
0.0000000000000000e+00 3.2808000000000000e+01
0.0000000000000000e+00 1.7780000000000001e+01
0.0000000000000000e+00 2.4729999999999999e+00
ITEM: ATOMS id type x y z 
13 1 7.46512 0.578866 0.0972146 
29 1 7.87363 1.20453 1.3327 
37 1 8.27715 2.59484 1.27707 
57 2 5.23192 1.175 1.48643 
1 1 6.3037 17.4443 0.0987853 
5 1 5.39244 17.8414 1.34668 
9 1 4.05961 17.0812 1.24569 
16 1 6.83207 16.0915 0.0517489 
32 1 7.39994 15.5885 1.28577 
53 1 1.1779 17.4466 1.22231 
45 1 3.33138 17.0309 2.48102 
49 1 1.90011 17.3313 2.45933 
4 1 10.8736 8.51014 2.46445 
8 1 11.6947 8.5176 1.22793 
12 1 13.0961 8.50483 1.22777 
18 1 9.93707 7.30404 2.46568 
21 1 8.3686 3.33605 2.51036 
26 1 8.60173 4.76034 2.47546 
34 1 9.51171 6.74863 1.22938 
42 1 8.80656 5.47392 1.23796 
48 1 13.8517 8.49909 2.46426 
52 1 15.2944 8.50311 2.46425 
56 1 16.0387 8.50831 1.22775 
19 1 9.91872 9.70913 2.46462 
24 1 8.49451 13.7263 2.48223 
27 1 8.67581 12.2938 2.46743 
35 1 9.49234 10.2649 1.22816 
43 1 8.82156 11.5581 1.23062 
40 1 8.27856 14.4459 1.24715 
3 1 22.6489 8.50808 2.46425 
7 1 21.8322 8.50805 1.22775 
11 1 20.4296 8.50779 1.22775 
20 1 23.6066 7.3183 2.46425 
36 1 24.0583 6.77803 1.22775 
44 1 24.7487 5.49267 1.22775 
47 1 19.6661 8.50763 2.46425 
51 1 18.2301 8.50874 2.46425 
55 1 17.4859 8.51017 1.22775 
17 1 23.6067 9.6978 2.46425 
33 1 24.0583 10.2381 1.22775 
41 1 24.7487 11.5235 1.22775 
15 1 26.3951 0.797613 2.46422 
23 1 25.0709 3.32541 2.46425 
28 1 24.8884 4.76645 2.46425 
31 1 25.9262 1.3249 1.22773 
39 1 25.2199 2.604 1.22775 
2 1 27.3683 17.3982 2.46411 
6 1 28.1864 17.3986 1.22757 
10 1 29.5887 17.3937 1.22687 
14 1 26.3956 16.2183 2.46422 
22 1 25.071 13.6907 2.46425 
25 1 24.8884 12.2497 2.46425 
30 1 25.9266 15.6911 1.22773 
38 1 25.2201 14.4121 1.22775 
46 1 30.3457 17.3889 2.46325 
50 1 31.7912 17.4071 2.46089 
54 1 32.5328 17.445 1.22424 
ITEM: TIMESTEP
100
ITEM: NUMBER OF ATOMS
57
ITEM: BOX BOUNDS pp pp pp
0.0000000000000000e+00 3.2808000000000000e+01
0.0000000000000000e+00 1.7780000000000001e+01
0.0000000000000000e+00 2.4729999999999999e+00
ITEM: ATOMS id type x y z 
13 1 7.48354 0.583911 0.0913222 
29 1 7.89485 1.1981 1.32489 
37 1 8.29427 2.59476 1.28228 
57 2 5.22064 1.18956 1.44384 
1 1 6.30681 17.4588 0.0971261 
5 1 5.39748 17.8526 1.34199 
9 1 4.06029 17.0887 1.25468 
16 1 6.82794 16.092 0.0529805 
32 1 7.36263 15.5675 1.28661 
53 1 1.17543 17.4227 1.22568 
45 1 3.33766 17.0228 2.48935 
49 1 1.90019 17.302 2.46304 
4 1 10.866 8.52074 2.46477 
8 1 11.687 8.51985 1.22818 
12 1 13.0886 8.50502 1.22781 
18 1 9.93154 7.31023 2.46695 
21 1 8.37475 3.32619 2.51407 
26 1 8.58565 4.76714 2.48077 
34 1 9.50712 6.75148 1.23101 
42 1 8.79035 5.47419 1.24203 
48 1 13.8526 8.49978 2.46429 
52 1 15.2893 8.50318 2.46425 
56 1 16.0391 8.50697 1.22775 
19 1 9.91035 9.70541 2.46502 
24 1 8.50483 13.7251 2.48719 
27 1 8.68049 12.2942 2.46961 
35 1 9.48545 10.2691 1.22863 
43 1 8.82511 11.5619 1.23257 
40 1 8.26203 14.4361 1.25201 
3 1 22.653 8.50813 2.46425 
7 1 21.83 8.50803 1.22775 
11 1 20.4323 8.50763 1.22775 
20 1 23.6203 7.31737 2.46425 
36 1 24.06 6.77374 1.22775 
44 1 24.7498 5.49145 1.22775 
47 1 19.6758 8.50778 2.46425 
51 1 18.2294 8.50942 2.46425 
55 1 17.4851 8.51006 1.22775 
17 1 23.6203 9.69879 2.46425 
33 1 24.06 10.2425 1.22775 
41 1 24.7497 11.5248 1.22775 
15 1 26.388 0.796469 2.4642 
23 1 25.0568 3.32716 2.46425 
28 1 24.9039 4.76051 2.46425 
31 1 25.934 1.33038 1.22771 
39 1 25.2212 2.59467 1.22774 
2 1 27.3724 17.3984 2.46402 
6 1 28.1892 17.3974 1.22746 
10 1 29.5898 17.3899 1.22657 
14 1 26.3885 16.2196 2.4642 
22 1 25.057 13.6891 2.46425 
25 1 24.9038 12.2557 2.46425 
30 1 25.9347 15.6856 1.22771 
38 1 25.2216 14.4215 1.22774 
46 1 30.3476 17.3903 2.46296 
50 1 31.7895 17.4236 2.46102 
54 1 32.5314 17.4543 1.22447 
ITEM: TIMESTEP
110
ITEM: NUMBER OF ATOMS
57
ITEM: BOX BOUNDS pp pp pp
0.0000000000000000e+00 3.2808000000000000e+01
0.0000000000000000e+00 1.7780000000000001e+01
0.0000000000000000e+00 2.4729999999999999e+00
ITEM: ATOMS id type x y z 
13 1 7.4851 0.583461 0.0884748 
29 1 7.90299 1.19993 1.32353 
37 1 8.30016 2.59402 1.28256 
57 2 5.21756 1.19269 1.4288 
1 1 6.31135 17.4629 0.0946401 
5 1 5.39738 17.8586 1.33903 
9 1 4.06424 17.0936 1.25759 
16 1 6.82309 16.0962 0.053449 
32 1 7.35062 15.562 1.28738 
53 1 1.17818 17.4122 1.22725 
45 1 3.33947 17.0218 2.49258 
49 1 1.90078 17.2895 2.46471 
4 1 10.8692 8.5147 2.46497 
8 1 11.6893 8.51914 1.22836 
12 1 13.0916 8.50532 1.22784 
18 1 9.9289 7.30821 2.46776 
21 1 8.37857 3.33271 2.51606 
26 1 8.58219 4.76698 2.48219 
34 1 9.50504 6.75049 1.23172 
42 1 8.79008 5.47859 1.24429 
48 1 13.8513 8.50028 2.46432 
52 1 15.2916 8.50307 2.46426 
56 1 16.0389 8.50658 1.22776 
19 1 9.90836 9.70338 2.46527 
24 1 8.5049 13.7287 2.48879 
27 1 8.68412 12.2934 2.47063 
35 1 9.48565 10.2641 1.22892 
43 1 8.82529 11.5644 1.23344 
40 1 8.25357 14.434 1.25392 
3 1 22.6513 8.50812 2.46425 
7 1 21.8336 8.50799 1.22775 
11 1 20.4305 8.50763 1.22775 
20 1 23.6182 7.32193 2.46425 
36 1 24.059 6.77488 1.22775 
44 1 24.7514 5.49101 1.22775 
47 1 19.6713 8.50792 2.46425 
51 1 18.2306 8.50956 2.46425 
55 1 17.483 8.5099 1.22775 
17 1 23.6182 9.69424 2.46425 
33 1 24.059 10.2413 1.22775 
41 1 24.7513 11.5252 1.22775 
15 1 26.3916 0.795832 2.46418 
23 1 25.0555 3.32372 2.46424 
28 1 24.9043 4.76528 2.46425 
31 1 25.9346 1.33026 1.22769 
39 1 25.2155 2.59968 1.22774 
2 1 27.3709 17.3985 2.46397 
6 1 28.1882 17.3966 1.22741 
10 1 29.5915 17.389 1.22649 
14 1 26.392 16.2203 2.46418 
22 1 25.0557 13.6925 2.46424 
25 1 24.9042 12.251 2.46425 
30 1 25.9353 15.6858 1.22769 
38 1 25.2159 14.4165 1.22774 
46 1 30.3487 17.3918 2.46288 
50 1 31.7922 17.4295 2.46125 
54 1 32.5339 17.4572 1.22477 
ITEM: TIMESTEP
120
ITEM: NUMBER OF ATOMS
57
ITEM: BOX BOUNDS pp pp pp
0.0000000000000000e+00 3.2808000000000000e+01
0.0000000000000000e+00 1.7780000000000001e+01
0.0000000000000000e+00 2.4729999999999999e+00
ITEM: ATOMS id type x y z 
13 1 7.53067 0.607472 0.0594124 
29 1 7.98148 1.19897 1.29635 
37 1 8.3832 2.59441 1.29369 
57 2 5.18599 1.25275 1.23989 
1 1 6.33489 17.5212 0.0548158 
5 1 5.42145 17.9193 1.2875 
9 1 4.08655 17.1586 1.29409 
16 1 6.77407 16.1227 0.0588894 
32 1 7.19529 15.5105 1.29508 
53 1 1.17721 17.2549 1.25092 
45 1 3.36019 17.0243 2.52906 
49 1 1.89932 17.1204 2.4903 
4 1 10.8669 8.50325 2.46901 
8 1 11.6869 8.51346 1.23198 
12 1 13.0894 8.5108 1.22865 
18 1 9.91637 7.30321 2.47988 
21 1 8.4211 3.33641 2.52929 
26 1 8.54239 4.78127 2.50692 
34 1 9.47602 6.75691 1.24461 
42 1 8.73882 5.49666 1.26898 
48 1 13.8498 8.50645 2.46501 
52 1 15.2896 8.50088 2.46437 
56 1 16.039 8.5022 1.22784 
19 1 9.89357 9.67852 2.47019 
24 1 8.46398 13.7309 2.5116 
27 1 8.74742 12.3084 2.48561 
35 1 9.47397 10.2471 1.23421 
43 1 8.87545 11.5812 1.24768 
40 1 8.1123 14.3875 1.27675 
3 1 22.652 8.50759 2.46425 
7 1 21.8349 8.50742 1.22775 
11 1 20.4303 8.50825 1.22775 
20 1 23.6191 7.32274 2.46425 
36 1 24.0618 6.77496 1.22775 
44 1 24.7545 5.48781 1.22774 
47 1 19.6698 8.50978 2.46425 
51 1 18.23 8.51059 2.46426 
55 1 17.4815 8.50806 1.22776 
17 1 23.6186 9.69304 2.46425 
33 1 24.0614 10.2406 1.22775 
41 1 24.7546 11.5274 1.22774 
15 1 26.4134 0.806196 2.46391 
23 1 25.0487 3.31736 2.46419 
28 1 24.9005 4.76399 2.46424 
31 1 25.9566 1.33747 1.22745 
39 1 25.2116 2.59702 1.22768 
2 1 27.3823 17.398 2.46332 
6 1 28.1957 17.3842 1.22671 
10 1 29.6055 17.3879 1.22582 
14 1 26.4099 16.2113 2.46391 
22 1 25.0484 13.6978 2.46419 
25 1 24.9005 12.2513 2.46424 
30 1 25.9543 15.6784 1.22745 
38 1 25.2106 14.4182 1.22768 
46 1 30.363 17.4263 2.46246 
50 1 31.805 17.5041 2.46655 
54 1 32.5491 17.4756 1.23114 
ITEM: TIMESTEP
130
ITEM: NUMBER OF ATOMS
57
ITEM: BOX BOUNDS pp pp pp
0.0000000000000000e+00 3.2808000000000000e+01
0.0000000000000000e+00 1.7780000000000001e+01
0.0000000000000000e+00 2.4729999999999999e+00
ITEM: ATOMS id type x y z 
13 1 7.52794 0.605158 0.0567456 
29 1 7.97622 1.19978 1.29407 
37 1 8.38368 2.59224 1.29146 
57 2 5.20032 1.2487 1.24783 
1 1 6.32662 17.5281 0.0508377 
5 1 5.41049 17.9236 1.28055 
9 1 4.07532 17.1678 1.28989 
16 1 6.76254 16.1296 0.055476 
32 1 7.19766 15.5239 1.29186 
53 1 1.17957 17.2436 1.2539 
45 1 3.36364 17.0293 2.52536 
49 1 1.90091 17.1164 2.49224 
4 1 10.8693 8.4984 2.47045 
8 1 11.6871 8.51103 1.23337 
12 1 13.0907 8.51069 1.22916 
18 1 9.91418 7.30131 2.48209 
21 1 8.42835 3.33443 2.52709 
26 1 8.54496 4.77924 2.50709 
34 1 9.47468 6.75553 1.24672 
42 1 8.73642 5.49603 1.26939 
48 1 13.8524 8.5069 2.46547 
52 1 15.2903 8.5016 2.46448 
56 1 16.0376 8.50217 1.22793 
19 1 9.89542 9.67609 2.47191 
24 1 8.43523 13.7254 2.51159 
27 1 8.75053 12.3107 2.48738 
35 1 9.48369 10.2484 1.23583 
43 1 8.89165 11.585 1.24965 
40 1 8.0915 14.3881 1.27661 
3 1 22.6506 8.50713 2.46425 
7 1 21.8355 8.50728 1.22775 
11 1 20.43 8.50871 1.22775 
20 1 23.6206 7.32336 2.46425 
36 1 24.0575 6.77303 1.22775 
44 1 24.7432 5.48469 1.22774 
47 1 19.6683 8.50984 2.46425 
51 1 18.2306 8.51001 2.46427 
55 1 17.4821 8.50781 1.22778 
17 1 23.6198 9.69173 2.46425 
33 1 24.0568 10.2418 1.22775 
41 1 24.7436 11.5295 1.22774 
15 1 26.4164 0.80096 2.46385 
23 1 25.0529 3.31743 2.46416 
28 1 24.8964 4.76049 2.46423 
31 1 25.9644 1.33711 1.22738 
39 1 25.2255 2.59829 1.22765 
2 1 27.388 17.3965 2.46333 
6 1 28.2043 17.3858 1.22679 
10 1 29.6091 17.3996 1.22657 
14 1 26.4104 16.216 2.46385 
22 1 25.0518 13.6968 2.46416 
25 1 24.8967 12.2538 2.46423 
30 1 25.9592 15.6789 1.22738 
38 1 25.2228 14.4164 1.22765 
46 1 30.3644 17.436 2.46329 
50 1 31.8085 17.496 2.46907 
54 1 32.5485 17.4598 1.23344 
ITEM: TIMESTEP
140
ITEM: NUMBER OF ATOMS
57
ITEM: BOX BOUNDS pp pp pp
0.0000000000000000e+00 3.2808000000000000e+01
0.0000000000000000e+00 1.7780000000000001e+01
0.0000000000000000e+00 2.4729999999999999e+00
ITEM: ATOMS id type x y z 
13 1 7.52772 0.605102 0.0560067 
29 1 7.975 1.19965 1.29259 
37 1 8.38455 2.5916 1.2901 
57 2 5.20414 1.25738 1.25295 
1 1 6.32376 17.5302 0.0493405 
5 1 5.41281 17.9266 1.28039 
9 1 4.07441 17.1685 1.28729 
16 1 6.75727 16.1309 0.0535909 
32 1 7.19718 15.5287 1.29003 
53 1 1.1797 17.2402 1.25436 
45 1 3.36398 17.0279 2.52307 
49 1 1.90241 17.1136 2.49288 
4 1 10.8672 8.49686 2.47123 
8 1 11.6866 8.50929 1.23407 
12 1 13.0892 8.51054 1.22947 
18 1 9.91375 7.29989 2.48294 
21 1 8.43062 3.33335 2.52586 
26 1 8.54585 4.77748 2.50692 
34 1 9.47257 6.75389 1.24759 
42 1 8.73546 5.49599 1.26904 
48 1 13.8486 8.50714 2.46576 
52 1 15.2898 8.50188 2.46456 
56 1 16.0374 8.5023 1.228 
19 1 9.89722 9.67631 2.4727 
24 1 8.42362 13.7222 2.51127 
27 1 8.75065 12.3115 2.48815 
35 1 9.48775 10.2507 1.23676 
43 1 8.89823 11.5867 1.25031 
40 1 8.08508 14.3861 1.27588 
3 1 22.6512 8.50688 2.46425 
7 1 21.8319 8.50716 1.22775 
11 1 20.4301 8.50884 1.22775 
20 1 23.6199 7.32213 2.46425 
36 1 24.058 6.77243 1.22775 
44 1 24.7426 5.48339 1.22773 
47 1 19.6703 8.50989 2.46425 
51 1 18.2292 8.50982 2.46428 
55 1 17.4818 8.50764 1.22779 
17 1 23.6191 9.69262 2.46425 
33 1 24.0573 10.242 1.22775 
41 1 24.7432 11.5303 1.22773 
15 1 26.4182 0.801011 2.46383 
23 1 25.0546 3.31744 2.46415 
28 1 24.895 4.75793 2.46423 
31 1 25.9656 1.33704 1.22736 
39 1 25.2288 2.59585 1.22763 
2 1 27.3889 17.3957 2.4634 
6 1 28.206 17.3867 1.22688 
10 1 29.6095 17.4047 1.22704 
14 1 26.4114 16.2159 2.46383 
22 1 25.0531 13.6965 2.46415 
25 1 24.8954 12.2559 2.46423 
30 1 25.959 15.6789 1.22736 
38 1 25.2252 14.4186 1.22763 
46 1 30.3679 17.4402 2.46383 
50 1 31.8088 17.4922 2.47014 
54 1 32.5524 17.4536 1.23468 
ITEM: TIMESTEP
150
ITEM: NUMBER OF ATOMS
57
ITEM: BOX BOUNDS pp pp pp
0.0000000000000000e+00 3.2808000000000000e+01
0.0000000000000000e+00 1.7780000000000001e+01
0.0000000000000000e+00 2.4729999999999999e+00
ITEM: ATOMS id type x y z 
13 1 7.52771 0.602617 0.053129 
29 1 7.97619 1.19753 1.29049 
37 1 8.38866 2.58832 1.28734 
57 2 5.21087 1.27112 1.26228 
1 1 6.31941 17.5339 0.0472015 
5 1 5.40722 17.9399 1.28006 
9 1 4.07788 17.1735 1.28257 
16 1 6.74668 16.1356 0.049844 
32 1 7.19189 15.5351 1.28628 
53 1 1.18451 17.2306 1.25538 
45 1 3.37007 17.025 2.51834 
49 1 1.90381 17.106 2.49351 
4 1 10.8694 8.49103 2.4729 
8 1 11.6859 8.50455 1.23568 
12 1 13.0909 8.50991 1.23025 
18 1 9.91175 7.29679 2.48469 
21 1 8.43529 3.33168 2.52323 
26 1 8.54594 4.77562 2.50616 
34 1 9.4697 6.75358 1.24919 
42 1 8.73125 5.49502 1.26868 
48 1 13.8475 8.50772 2.46647 
52 1 15.2897 8.50261 2.46478 
56 1 16.0381 8.50263 1.2282 
19 1 9.90189 9.67578 2.47465 
24 1 8.40234 13.7207 2.51013 
27 1 8.75098 12.3125 2.4894 
35 1 9.49719 10.2525 1.23859 
43 1 8.9088 11.589 1.25186 
40 1 8.06765 14.3867 1.27453 
3 1 22.6502 8.50656 2.46425 
7 1 21.8332 8.50692 1.22775 
11 1 20.4295 8.50905 1.22776 
20 1 23.6183 7.32209 2.46425 
36 1 24.0557 6.77237 1.22774 
44 1 24.7386 5.48272 1.22772 
47 1 19.6676 8.51 2.46426 
51 1 18.2303 8.50941 2.46432 
55 1 17.4784 8.50726 1.22784 
17 1 23.6175 9.69199 2.46425 
33 1 24.0551 10.2413 1.22774 