LAMMPS (3 Mar 2020)
Reading data file ...
  orthogonal box = (0 0 0) to (32.808 17.78 2.473)
  4 by 2 by 1 MPI processor grid
  reading atoms ...
  59 atoms
  read_data CPU = 0.0344819 secs
WARNING: Changed valency_val to valency_boc for X (../reaxc_ffield.cpp:315)
WARNING: Using 'neigh_modify every 1 delay 0 check yes' setting during minimization (../min.cpp:190)
Neighbor list info ...
  update every 1 steps, delay 0 steps, check yes
  max neighbors/atom: 2000, page size: 100000
  master list distance cutoff = 12
  ghost atom cutoff = 12
  binsize = 6, bins = 6 3 1
  2 neighbor lists, perpetual/occasional/extra = 2 0 0
  (1) pair reax/c, perpetual
      attributes: half, newton off, ghost
      pair build: half/bin/newtoff/ghost
      stencil: half/ghost/bin/3d/newtoff
      bin: standard
  (2) fix qeq/reax, perpetual, copy from (1)
      attributes: half, newton off, ghost
      pair build: copy
      stencil: none
      bin: none
Setting up cg style minimization ...
  Unit style    : real
  Current step  : 0
Per MPI rank memory allocation (min/avg/max) = 29.15 | 29.34 | 29.53 Mbytes
Step Temp E_pair E_mol TotEng Press 
       0            0   -10879.085            0   -10879.085    602477.04 
     163            0   -11218.361            0   -11218.361    118520.46 
Loop time of 9.26865 on 8 procs for 163 steps with 59 atoms

99.2% CPU use with 8 MPI tasks x no OpenMP threads

Minimization stats:
  Stopping criterion = energy tolerance
  Energy initial, next-to-last, final = 
        -10879.0854489     -11218.3606885     -11218.3607623
  Force two-norm initial, final = 287.244 30.3871
  Force max component initial, final = 110.882 11.5284
  Final line search alpha, max atom move = 0.000270183 0.00311479
  Iterations, force evaluations = 163 944

MPI task timing breakdown:
Section |  min time  |  avg time  |  max time  |%varavg| %total
---------------------------------------------------------------
Pair    | 8.1621     | 8.3239     | 8.5057     |   3.8 | 89.81
Neigh   | 0          | 0          | 0          |   0.0 |  0.00
Comm    | 0.03243    | 0.21449    | 0.37659    |  23.7 |  2.31
Output  | 0.00048311 | 0.00068362 | 0.0010956  |   0.0 |  0.01
Modify  | 0.7186     | 0.71907    | 0.7196     |   0.0 |  7.76
Other   |            | 0.01046    |            |       |  0.11

Nlocal:    7.375 ave 14 max 3 min
Histogram: 2 2 0 0 0 2 0 1 0 1
Nghost:    1161.62 ave 1175 max 1149 min
Histogram: 2 0 2 0 0 0 1 1 0 2
Neighs:    2125.5 ave 4200 max 839 min
Histogram: 2 1 1 0 1 1 1 0 0 1

Total # of neighbors = 17004
Ave neighs/atom = 288.203
Neighbor list builds = 0
Dangerous builds = 0
WARNING: Using 'neigh_modify every 1 delay 0 check yes' setting during minimization (../min.cpp:190)
Setting up cg style minimization ...
  Unit style    : real
  Current step  : 163
Per MPI rank memory allocation (min/avg/max) = 29.15 | 29.34 | 29.52 Mbytes
Step Temp E_pair E_mol TotEng Press 
     163            0   -11218.361            0   -11218.361    118520.46 
     164            0   -11218.361            0   -11218.361    118520.77 
Loop time of 0.0864702 on 8 procs for 1 steps with 59 atoms

99.3% CPU use with 8 MPI tasks x no OpenMP threads

Minimization stats:
  Stopping criterion = energy tolerance
  Energy initial, next-to-last, final = 
         -11218.360761      -11218.360761      -11218.360791
  Force two-norm initial, final = 30.387 30.3633
  Force max component initial, final = 11.5284 11.5135
  Final line search alpha, max atom move = 0.000271069 0.00312095
  Iterations, force evaluations = 1 8

MPI task timing breakdown:
Section |  min time  |  avg time  |  max time  |%varavg| %total
---------------------------------------------------------------
Pair    | 0.076401   | 0.078422   | 0.07988    |   0.4 | 90.69
Neigh   | 0          | 0          | 0          |   0.0 |  0.00
Comm    | 0.00028858 | 0.0017536  | 0.0037726  |   2.5 |  2.03
Output  | 0          | 0          | 0          |   0.0 |  0.00
Modify  | 0.0061113  | 0.0061162  | 0.0061208  |   0.0 |  7.07
Other   |            | 0.0001784  |            |       |  0.21

Nlocal:    7.375 ave 13 max 2 min
Histogram: 1 1 0 2 0 2 0 0 0 2
Nghost:    1161.62 ave 1174 max 1150 min
Histogram: 2 1 1 0 0 0 0 2 0 2
Neighs:    2121.88 ave 3911 max 551 min
Histogram: 1 0 1 2 1 1 0 0 1 1

Total # of neighbors = 16975
Ave neighs/atom = 287.712
Neighbor list builds = 0
Dangerous builds = 0
WARNING: Using 'neigh_modify every 1 delay 0 check yes' setting during minimization (../min.cpp:190)
Setting up cg style minimization ...
  Unit style    : real
  Current step  : 164
WARNING: Energy due to 3 extra global DOFs will be included in minimizer energies
Per MPI rank memory allocation (min/avg/max) = 29.15 | 29.34 | 29.52 Mbytes
Step Temp E_pair E_mol TotEng Press Volume 
     164            0   -11218.361            0   -11218.361    118520.78    1442.5658 
    2543            0   -11262.438            0   -11262.438    341.45565    1467.9468 
Loop time of 33.5511 on 8 procs for 2379 steps with 59 atoms

99.2% CPU use with 8 MPI tasks x no OpenMP threads

Minimization stats:
  Stopping criterion = energy tolerance
  Energy initial, next-to-last, final = 
        -11218.3607897     -11262.4375273     -11262.4376207
  Force two-norm initial, final = 4645.99 20.4411
  Force max component initial, final = 3879.24 16.2908
  Final line search alpha, max atom move = 9.32993e-06 0.000151992
  Iterations, force evaluations = 2379 3588

MPI task timing breakdown:
Section |  min time  |  avg time  |  max time  |%varavg| %total
---------------------------------------------------------------
Pair    | 30.3       | 31.124     | 31.812     |   8.0 | 92.76
Neigh   | 0          | 0          | 0          |   0.0 |  0.00
Comm    | 0.10207    | 0.79239    | 1.6157     |  49.9 |  2.36
Output  | 0.0055704  | 0.0071437  | 0.011368   |   2.0 |  0.02
Modify  | 1.5099     | 1.5111     | 1.5122     |   0.1 |  4.50
Other   |            | 0.1169     |            |       |  0.35

Nlocal:    7.375 ave 13 max 2 min
Histogram: 1 1 0 2 0 2 0 0 0 2
Nghost:    1161.62 ave 1174 max 1150 min
Histogram: 2 1 1 0 0 0 0 2 0 2
Neighs:    2121.88 ave 3911 max 551 min
Histogram: 1 0 1 2 1 1 0 0 1 1

Total # of neighbors = 16975
Ave neighs/atom = 287.712
Neighbor list builds = 0
Dangerous builds = 0
WARNING: Using 'neigh_modify every 1 delay 0 check yes' setting during minimization (../min.cpp:190)
Setting up cg style minimization ...
  Unit style    : real
  Current step  : 2543
Per MPI rank memory allocation (min/avg/max) = 29.15 | 29.34 | 29.53 Mbytes
Step Temp E_pair E_mol TotEng Press 
    2543            0   -11262.438            0   -11262.438    341.45693 
    2580            0   -11263.703            0   -11263.703    22341.142 
Loop time of 2.38384 on 8 procs for 37 steps with 59 atoms

99.2% CPU use with 8 MPI tasks x no OpenMP threads

Minimization stats:
  Stopping criterion = energy tolerance
  Energy initial, next-to-last, final = 
        -11262.4376204      -11263.703087     -11263.7031162
  Force two-norm initial, final = 11.1835 35.3854
  Force max component initial, final = 2.20793 12.8925
  Final line search alpha, max atom move = 0.000242306 0.00312393
  Iterations, force evaluations = 37 249

MPI task timing breakdown:
Section |  min time  |  avg time  |  max time  |%varavg| %total
---------------------------------------------------------------
Pair    | 2.1135     | 2.1501     | 2.1945     |   2.0 | 90.20
Neigh   | 0          | 0          | 0          |   0.0 |  0.00
Comm    | 0.014538   | 0.059021   | 0.095566   |  11.9 |  2.48
Output  | 7.6693e-05 | 9.7479e-05 | 0.00015561 |   0.0 |  0.00
Modify  | 0.17177    | 0.1719     | 0.172      |   0.0 |  7.21
Other   |            | 0.002676   |            |       |  0.11

Nlocal:    7.375 ave 13 max 3 min
Histogram: 1 1 2 0 0 0 2 0 1 1
Nghost:    1156.12 ave 1175 max 1138 min
Histogram: 1 1 1 0 2 0 0 1 1 1
Neighs:    2092.5 ave 3840 max 819 min
Histogram: 1 2 1 0 0 2 0 1 0 1

Total # of neighbors = 16740
Ave neighs/atom = 283.729
Neighbor list builds = 0
Dangerous builds = 0
WARNING: Using 'neigh_modify every 1 delay 0 check yes' setting during minimization (../min.cpp:190)
Setting up cg style minimization ...
  Unit style    : real
  Current step  : 2580
WARNING: Energy due to 3 extra global DOFs will be included in minimizer energies
Per MPI rank memory allocation (min/avg/max) = 29.15 | 29.34 | 29.53 Mbytes
Step Temp E_pair E_mol TotEng Press Volume 
    2580            0   -11263.703            0   -11263.703    22341.143    1467.9468 
    2674            0   -11264.219            0   -11264.219    355.46707    1468.9764 
Loop time of 1.43603 on 8 procs for 94 steps with 59 atoms

99.3% CPU use with 8 MPI tasks x no OpenMP threads

Minimization stats:
  Stopping criterion = energy tolerance
  Energy initial, next-to-last, final = 
        -11263.7031157     -11264.2184863     -11264.2185883
  Force two-norm initial, final = 879.327 17.6543
  Force max component initial, final = 685.536 13.5313
  Final line search alpha, max atom move = 5.98866e-06 8.10342e-05
  Iterations, force evaluations = 94 154

MPI task timing breakdown:
Section |  min time  |  avg time  |  max time  |%varavg| %total
---------------------------------------------------------------
Pair    | 1.3057     | 1.3288     | 1.363      |   1.7 | 92.53
Neigh   | 0          | 0          | 0          |   0.0 |  0.00
Comm    | 0.0035167  | 0.037758   | 0.060858   |  10.0 |  2.63
Output  | 0.0002104  | 0.00026887 | 0.00044003 |   0.0 |  0.02
Modify  | 0.064154   | 0.064206   | 0.064252   |   0.0 |  4.47
Other   |            | 0.005005   |            |       |  0.35

Nlocal:    7.375 ave 12 max 3 min
Histogram: 1 1 1 1 0 0 2 0 1 1
Nghost:    1156.12 ave 1174 max 1138 min
Histogram: 1 1 0 1 1 1 0 1 1 1
Neighs:    2094.38 ave 3554 max 819 min
Histogram: 1 1 1 1 0 1 1 1 0 1

Total # of neighbors = 16755
Ave neighs/atom = 283.983
Neighbor list builds = 0
Dangerous builds = 0
WARNING: Using 'neigh_modify every 1 delay 0 check yes' setting during minimization (../min.cpp:190)
Setting up cg style minimization ...
  Unit style    : real
  Current step  : 2674
Per MPI rank memory allocation (min/avg/max) = 29.15 | 29.34 | 29.53 Mbytes
Step Temp E_pair E_mol TotEng Press 
    2674            0   -11264.219            0   -11264.219    355.46911 
    2736            0   -11265.167            0   -11265.167    9943.0459 
Loop time of 3.87352 on 8 procs for 62 steps with 59 atoms

99.2% CPU use with 8 MPI tasks x no OpenMP threads

Minimization stats:
  Stopping criterion = energy tolerance
  Energy initial, next-to-last, final = 
         -11264.218588     -11265.1673057     -11265.1673039
  Force two-norm initial, final = 9.14319 38.7774
  Force max component initial, final = 2.3449 23.9361
  Final line search alpha, max atom move = 0.00288798 0.0691268
  Iterations, force evaluations = 62 403

MPI task timing breakdown:
Section |  min time  |  avg time  |  max time  |%varavg| %total
---------------------------------------------------------------
Pair    | 3.4263     | 3.4908     | 3.5795     |   2.7 | 90.12
Neigh   | 0          | 0          | 0          |   0.0 |  0.00
Comm    | 0.013895   | 0.1028     | 0.16737    |  15.8 |  2.65
Output  | 0.00016525 | 0.00021268 | 0.00034536 |   0.0 |  0.01
Modify  | 0.27508    | 0.27523    | 0.27542    |   0.0 |  7.11
Other   |            | 0.004443   |            |       |  0.11

Nlocal:    7.375 ave 12 max 3 min
Histogram: 1 1 1 1 0 0 2 0 1 1
Nghost:    1156.12 ave 1174 max 1138 min
Histogram: 1 1 0 1 1 1 0 1 1 1
Neighs:    2092.88 ave 3550 max 819 min
Histogram: 1 1 1 1 0 1 1 1 0 1

Total # of neighbors = 16743
Ave neighs/atom = 283.78
Neighbor list builds = 0
Dangerous builds = 0
Setting up Verlet run ...
  Unit style    : real
  Current step  : 0
  Time step     : 0.25
Per MPI rank memory allocation (min/avg/max) = 28.02 | 28.21 | 28.4 Mbytes
Step Temp TotEng KinEng PotEng Press 
       0          300   -11213.301    51.866095   -11265.167     11557.02 
     200     254.0957   -11192.794    43.929839   -11236.724    40209.498 
     400    291.94536   -11170.065    50.473552   -11220.539       -61005 
     600    298.25721   -11181.024    51.564789   -11232.589    -29752.16 
     800    308.03745   -11172.192    53.255665   -11225.448   -4561.3986 
    1000    280.05677   -11171.118     48.41817   -11219.536    3344.1877 
    1200    315.83788   -11167.945    54.604258   -11222.549    17865.797 
    1400     233.8595   -11183.856    40.431263   -11224.287    34530.332 
    1600    322.19217   -11167.965    55.702832   -11223.668   -8889.3234 
    1800     252.7174   -11176.629     43.69155    -11220.32    13715.992 
    2000     363.8141   -11173.112    62.898722   -11236.011   -9446.1655 
    2200    383.39552   -11159.849    66.284095   -11226.133   -8331.0131 
    2400     284.6029   -11178.184    49.204137   -11227.388    6310.1779 
    2600    237.90602   -11177.332    41.130854   -11218.463   -2555.0784 
    2800    254.64834   -11167.764    44.025383    -11211.79    17421.647 
    3000    290.40365   -11179.415    50.207012   -11229.622   -13343.215 
    3200    374.24545   -11158.273    64.702166   -11222.975   -26650.381 
    3400    268.12986   -11175.021    46.356162   -11221.377    18079.385 
    3600    308.05782   -11183.077    53.259187   -11236.336   -19475.064 
    3800    249.09742   -11190.214    43.065701    -11233.28    3016.2736 
    4000    306.57785   -11177.872    53.003319   -11230.875   -31888.549 
    4200    312.10252   -11173.858    53.958463   -11227.817    4516.9453 
    4400    357.72005   -11161.848    61.845141   -11223.694    4230.2121 
    4600    296.80729   -11174.961    51.314116   -11226.275   -43148.861 
    4800    295.27266   -11178.456    51.048799   -11229.505   -23120.058 
    5000    234.63809   -11194.369    40.565871   -11234.935   -7974.4781 
    5200    270.57743   -11173.545    46.779315   -11220.325    28882.487 
    5400    267.18487   -11169.359    46.192786   -11215.552    35602.742 
    5600    259.45265   -11185.378    44.855986   -11230.234     17419.92 
    5800     297.4749   -11181.079    51.429539   -11232.509   -42959.031 
    6000    642.98117   -11171.046    111.16307   -11282.209   -54302.783 
    6200    332.28839   -11240.653    57.448336   -11298.101    10207.146 
    6400    315.34009   -11257.462    54.518196   -11311.981    4118.4989 
    6600     303.4939   -11252.327    52.470145   -11304.797   -36975.152 
    6800    387.70214   -11233.398    67.028653   -11300.427    -1069.968 
    7000    319.78028   -11246.817    55.285847   -11302.103    44206.325 
    7200    280.99637   -11251.067    48.580614   -11299.647    14681.384 
    7400    317.62433   -11240.463    54.913112   -11295.376    2378.0669 
    7600    271.60786   -11251.937    46.957464   -11298.894   -16807.722 
    7800    278.86353   -11249.504    48.211874   -11297.716    663.86329 
    8000    323.60601   -11233.653    55.947267     -11289.6    23178.528 
    8200    239.91096   -11251.598    41.477481   -11293.075    52781.913 
    8400    236.36637   -11245.695    40.864669    -11286.56   -20739.812 
    8600    274.94213   -11241.376    47.533915    -11288.91   -18228.921 
    8800    228.22578   -11257.494    39.457267   -11296.951    5367.0285 
    9000    278.90071   -11241.537    48.218303   -11289.755   -38579.605 
    9200    324.09548   -11245.133     56.03189   -11301.165   -14631.926 
    9400    257.14884    -11256.03    44.457687   -11300.488    41485.556 
    9600    241.01441   -11261.653    41.668253   -11303.322    17680.308 
    9800    337.92868   -11243.075    58.423471   -11301.498    18903.392 
   10000    361.05736   -11242.526    62.422118   -11304.948    82169.193 
   10200    299.85819   -11255.126    51.841578   -11306.968     15146.78 
   10400    376.44872   -11235.131    65.083084   -11300.214   -41338.869 
   10600    258.12153   -11236.829    44.625853   -11281.455   -19842.176 
   10800    297.26436   -11248.995    51.393139   -11300.388    28204.084 
   11000    332.82624   -11250.547    57.541325   -11308.088   -9487.4029 
   11200    297.85307   -11233.065    51.494919    -11284.56    9534.7703 
   11400    350.22503   -11231.797    60.549348   -11292.346    24365.133 
   11600    306.19932   -11252.358    52.937876   -11305.296   -727.91455 
   11800    283.11673    -11249.83    48.947198   -11298.777   -24385.891 
   12000    304.91955   -11240.616    52.716621   -11293.333    70434.217 
   12200    265.54534   -11249.069    45.909333   -11294.978     -26995.4 
   12400    274.73626   -11244.647    47.498324   -11292.145   -64102.699 
   12600    279.30772   -11245.431    48.288669    -11293.72   -35413.432 
   12800    264.93832   -11246.913    45.804386   -11292.718   -13051.025 
   13000    334.54554   -11225.218    57.838569   -11283.057   -25704.773 
   13200    219.42336   -11243.062    37.935442   -11280.998    15826.277 
   13400    282.71767   -11244.823    48.878205   -11293.701    42138.332 
   13600    373.22225   -11237.303    64.525269   -11301.828    36533.405 
   13800    254.53474   -11254.675    44.005743    -11298.68    34182.503 
   14000    281.93426   -11248.527    48.742764    -11297.27   -23239.585 
   14200    350.58659    -11220.78    60.611859   -11281.392    41467.662 
   14400    280.01061   -11239.495     48.41019   -11287.906    34252.746 
   14600    271.97209   -11256.153    47.020435   -11303.174    -29394.61 
   14800    246.12794   -11242.204    42.552316   -11284.757   -16776.209 
   15000    284.31399   -11239.364    49.154189   -11288.518   -20856.758 
   15200    273.66011   -11251.859    47.312271   -11299.171    25168.175 
   15400    248.48004   -11255.398    42.958964   -11298.357    69228.281 
   15600      371.364   -11236.103    64.204002   -11300.307   -10006.529 
   15800     289.3458   -11248.973    50.024122   -11298.997    3610.4365 
   16000     310.7469   -11247.903    53.724093   -11301.627   -33027.251 
   16200     328.8061   -11250.155    56.846294   -11307.001   -31492.294 
   16400    310.22625   -11262.149    53.634081   -11315.783   -54985.186 
   16600    286.54861   -11245.096    49.540524   -11294.637    57643.684 
   16800    309.13089   -11245.511    53.444706   -11298.955   -20988.661 
   17000    278.85821   -11253.677    48.210954   -11301.888    4549.1117 
   17200    285.22983   -11247.146    49.312525   -11296.458   -1403.6547 
   17400    259.47068   -11235.907    44.859103   -11280.766   -11180.196 
   17600    260.73756   -11245.708    45.078131   -11290.786     -8026.16 
   17800    301.24979   -11247.352    52.082167   -11299.434    26298.094 
   18000    301.91131   -11243.556    52.196536   -11295.752    1176.1961 
   18200    299.38257   -11261.338     51.75935   -11313.097    -15805.29 
   18400    307.88174   -11250.554    53.228745   -11303.782   -11897.789 
   18600    341.92445   -11239.847    59.114287   -11298.962    31543.175 
   18800    279.87777   -11255.425    48.387224   -11303.812   -9391.9555 
   19000     331.2682   -11253.462    57.271959   -11310.734    20951.698 
   19200    328.37354   -11241.343    56.771511   -11298.115     2483.561 
   19400    251.67267   -11241.671    43.510928   -11285.182   -8723.6707 
   19600    240.39971   -11254.612    41.561981   -11296.174    1523.4515 
   19800    258.51474   -11251.183    44.693833   -11295.877   -47278.971 
   20000    331.61528   -11243.424    57.331965   -11300.756    57273.505 
   20200    320.58946   -11235.946    55.425745   -11291.372    2676.7077 
   20400    258.08404   -11252.051    44.619371    -11296.67   -15795.449 
   20600    271.00267   -11246.819    46.852835   -11293.672   -20938.023 
   20800     346.7966   -11235.121    59.956618   -11295.078   -32097.043 
   21000     348.1289   -11246.612    60.186956   -11306.799    14232.941 
   21200      251.387   -11249.709     43.46154    -11293.17   -14324.265 
   21400    389.98064   -11233.491    67.422576   -11300.914    24726.576 
   21600      311.532   -11252.391    53.859827   -11306.251   -12124.863 
   21800    358.62189    -11243.73    62.001056   -11305.731   -20278.138 
   22000    337.66633   -11239.858    58.378113   -11298.236    14467.347 
   22200    323.20208   -11246.766    55.877432   -11302.643    35229.466 
   22400    299.83305   -11244.221    51.837232   -11296.059   -673.42386 
   22600    289.29717   -11244.703    50.015716   -11294.719   -10483.128 
   22800    312.76162   -11254.366    54.072413   -11308.438    11540.331 
   23000    325.95163   -11234.163    56.352794   -11290.515   -28715.471 
   23200    293.78238    -11245.86    50.791148   -11296.651    10238.001 
   23400     285.0075   -11252.728    49.274086   -11302.002   -7967.8691 
   23600    314.69523   -11239.788    54.406708   -11294.195    14280.843 
   23800    368.72989   -11225.064    63.748599   -11288.813      37093.6 
   24000    368.36303   -11244.411    63.685172   -11308.096    19721.089 
   24200    331.97634   -11251.409    57.394387   -11308.803    30261.199 
   24400    396.03657    -11227.65    68.469568   -11296.119   -32764.916 
   24600    364.95833   -11241.623    63.096544   -11304.719    9637.5806 
   24800    324.45322   -11249.581    56.093738   -11305.675    41102.473 
   25000    345.88284   -11242.949    59.798641   -11302.748    39003.514 
   25200    346.95213   -11243.912    59.983506   -11303.896    7622.0365 
   25400    285.91127   -11256.279    49.430336   -11305.709     4920.189 
   25600    348.47795   -11245.254    60.247301   -11305.501      53513.2 
   25800    347.69879    -11241.02    60.112595   -11301.132   -32738.268 
   26000    285.85131   -11251.162    49.419971   -11300.581   -46226.216 
   26200    301.61234   -11247.745    52.144848   -11299.889   -10656.534 
   26400    297.71316   -11242.944     51.47073   -11294.415    4863.7405 
   26600    328.35335   -11236.228    56.768019   -11292.996   -19539.563 
   26800    262.93816    -11255.51    45.458585   -11300.968    68419.286 
   27000    322.43537   -11243.812    55.744878   -11299.557   -45430.272 
   27200    287.43726   -11245.065     49.69416   -11294.759   -11898.879 
   27400    248.48425   -11245.035    42.959692   -11287.994    33071.801 
   27600    241.80919    -11247.11    41.805662   -11288.916   -24432.019 
   27800    299.72281     -11248.2    51.818172   -11300.018    1406.4475 
   28000    261.94016    -11257.19    45.286044   -11302.476    -1026.559 
   28200    323.08978   -11238.806    55.858016   -11294.664    63034.613 
   28400    213.90055   -11248.265    36.980621   -11285.245    44824.022 
   28600    190.20737   -11268.855    32.884378   -11301.739    18404.038 
   28800    254.56514   -11258.058    44.010999   -11302.069   -12390.357 
   29000    275.57858   -11241.171    47.643949   -11288.814       -17866 
   29200    249.25856   -11250.321     43.09356   -11293.414    32189.753 
   29400    244.41562   -11252.664    42.256279    -11294.92    28703.987 
   29600    264.57668   -11241.637    45.741864   -11287.379   -10128.774 
   29800    276.52605   -11253.027    47.807754   -11300.835   -36536.076 
   30000    306.71038   -11260.696    53.026232   -11313.722    30442.698 
   30200    348.82858   -11245.623     60.30792   -11305.931   -5205.5836 
   30400    255.78681   -11259.747     44.22221    -11303.97    26996.226 
   30600    289.94322   -11259.133    50.127409    -11309.26   -28663.019 
   30800    344.24355   -11249.796    59.515229   -11309.311    8716.0442 
   31000    317.89031   -11243.922    54.959097   -11298.881   -50168.684 
   31200    265.37745   -11255.205    45.880307   -11301.085    69708.161 
   31400    337.07405   -11249.223    58.275716   -11307.499   -43436.522 
   31600    350.69658   -11248.469    60.630873     -11309.1    12882.655 
   31800    283.48397   -11251.728    49.010689   -11300.739    31752.255 
   32000    317.08147   -11240.712    54.819259   -11295.531   -18112.029 
   32200    278.62898   -11255.857    48.171324   -11304.028   -27307.384 
   32400     329.7382   -11251.368    57.007443   -11308.375    43144.797 
   32600    298.60431   -11234.443    51.624799   -11286.067   -43053.631 
   32800    316.38928   -11252.851    54.699587    -11307.55    4847.5767 
   33000     268.3972   -11258.846    46.402382   -11305.248   -15619.845 
   33200    315.64156   -11241.956    54.570318   -11296.526   -20723.595 
   33400    300.73633   -11251.064    51.993397   -11303.057    49969.754 
   33600    287.79131   -11258.431    49.755371   -11308.187   -21787.591 
   33800    316.35188   -11235.644    54.693123   -11290.337     6607.243 
   34000     268.0822   -11248.036    46.347923   -11294.384    33621.112 
   34200    210.96788   -11258.968    36.473599   -11295.442    23713.381 
   34400    350.88741   -11241.454    60.663865   -11302.118    34823.877 
   34600    342.47205   -11252.644     59.20896   -11311.853    34522.408 
   34800    307.76475   -11242.819    53.208519   -11296.027    43753.653 
   35000    311.75339   -11246.046    53.898103   -11299.944    16455.955 
   35200     266.5702   -11257.125    46.086518   -11303.212   -31067.252 
   35400    296.19617   -11239.861    51.208462    -11291.07    20785.669 
   35600    259.47513   -11255.255    44.859873   -11300.115   -7547.7426 
   35800    257.01472    -11253.42      44.4345   -11297.854   -14572.579 
   36000    297.34897   -11241.985    51.407767   -11293.393   -15101.616 
   36200    269.44533   -11258.785     46.58359   -11305.368    15372.103 
   36400    277.75497   -11255.629    48.020218   -11303.649    23924.358 
   36600    297.02763   -11244.921     51.35221   -11296.273    20576.268 
   36800    293.20741   -11250.831    50.691744   -11301.523   -16085.587 
   37000     262.2278   -11261.982    45.335774   -11307.318   -2177.4835 
   37200    334.46297   -11241.845    57.824293    -11299.67   -8277.0788 
   37400    318.59074   -11250.725    55.080192   -11305.805    200.92818 
   37600    248.48758   -11267.124    42.960267   -11310.084   -22334.424 
   37800    380.39906   -11242.479    65.766046   -11308.245    -8589.596 
   38000    276.92038   -11255.367    47.875929   -11303.242    30519.325 
   38200    321.59584   -11244.447    55.599734   -11300.047    10653.599 
   38400    326.93452     -11246.5    56.522723   -11303.023   -11242.997 
   38600    293.96596   -11249.026    50.822888   -11299.849    -29253.15 
   38800    298.08417   -11249.639    51.534873   -11301.173    6407.7297 
   39000    385.82377   -11236.624    66.703907   -11303.327     24506.13 
   39200    296.08966   -11256.571    51.190048   -11307.761    25325.789 
   39400     334.4249   -11251.403    57.817712   -11309.221    -71226.66 
   39600    344.77811   -11239.281    59.607647   -11298.889    1891.4067 
   39800    300.42392   -11251.213    51.939385   -11303.153    31200.203 
   40000     310.2192   -11245.926    53.632861   -11299.559    48023.753 
   40200    371.75326   -11238.631    64.271299   -11302.902    29234.188 
   40400    279.20529   -11253.618     48.27096   -11301.889   -50987.377 
   40600    307.40613   -11241.567    53.146518   -11294.713    49563.476 
   40800    280.26873   -11234.141    48.454815   -11282.596   -45445.545 
   41000    277.58036   -11244.006    47.990032   -11291.996   -8389.6736 
   41200    248.72943   -11251.387    43.002081    -11294.39   -109.58678 
   41400     306.2098   -11249.535    52.939688   -11302.475    51077.121 
   41600     362.4013   -11240.826    62.654468    -11303.48   -25164.842 
   41800    293.21513   -11257.526    50.693079   -11308.219    46050.163 
   42000    324.51792   -11237.987    56.104925   -11294.092    16375.236 
   42200    328.52041   -11246.404    56.796903   -11303.201    920.06077 
   42400    309.84115   -11255.087    53.567502   -11308.655    22071.708 
   42600    310.84041   -11234.305    53.740261   -11288.045    3253.3146 
   42800    317.27712   -11239.364    54.853083   -11294.217    -44625.13 
   43000    278.78838   -11245.519    48.198882   -11293.718   -7429.8366 
   43200     281.3004   -11234.474    48.633177   -11283.107   -6915.5235 
   43400    363.74764   -11236.144    62.887233   -11299.031   -51067.185 
   43600    337.18005   -11250.292    58.294042   -11308.587   -65072.416 
   43800    300.34745   -11248.142    51.926164   -11300.068    51988.484 
   44000    292.06391   -11238.126    50.494048    -11288.62     5255.092 
   44200    253.70052   -11258.385    43.861517   -11302.246    49192.911 
   44400    309.47342   -11251.998    53.503925   -11305.502    8323.4742 
   44600    340.24019   -11242.623      58.8231   -11301.446    21098.457 
   44800    258.61734   -11251.185    44.711571   -11295.897    8578.5287 
   45000    287.53404   -11255.064    49.710893   -11304.775   -2467.8248 
   45200    276.50957   -11241.782    47.804905   -11289.587    13524.682 
   45400    288.79815   -11250.624    49.929441   -11300.553   -42565.208 
   45600    256.39242   -11267.947    44.326912   -11312.274   -32633.687 
   45800    326.60833   -11250.944    56.466328    -11307.41   -17502.961 
   46000    255.00105   -11246.688    44.086362   -11290.774   -26253.174 
   46200    296.42238   -11235.934    51.247572   -11287.182     18889.78 
   46400    280.63042   -11248.745    48.517346   -11297.262   -3387.4003 
   46600    292.72678   -11256.608     50.60865   -11307.216   -7632.1909 
   46800    285.22346   -11254.945    49.311424   -11304.256     15269.45 
   47000    352.09009   -11240.537    60.871794   -11301.409   -29452.014 
   47200     264.9466   -11258.374    45.805818    -11304.18   -42567.541 
   47400    259.28832   -11252.834    44.827575   -11297.661   -56684.585 
   47600    292.19287   -11245.913    50.516345   -11296.429    32805.099 
   47800     318.2142   -11237.072    55.015092   -11292.087   -15862.109 
   48000    275.66734   -11259.108    47.659294   -11306.767    27322.908 
   48200    336.95433   -11245.354    58.255018   -11303.609    60265.518 
   48400    283.34239   -11250.871    48.986211   -11299.857    28591.583 
   48600     267.5783   -11260.554    46.260804   -11306.815   -1099.8134 
   48800    318.64183   -11247.271    55.089024    -11302.36    -44684.76 
   49000    294.96996   -11253.677    50.996466   -11304.673   -14853.055 
   49200    210.38375    -11274.31    36.372611   -11310.683   -16052.478 
   49400    288.42608   -11254.127    49.865115   -11303.992   -20797.517 
   49600    286.95789   -11242.713    49.611284   -11292.324   -1257.9889 
   49800    274.67631   -11252.712    47.487959     -11300.2    30160.378 
   50000     246.1074   -11261.301    42.548765    -11303.85    30300.286 
   50200     288.0698   -11243.925    49.803519   -11293.729   -11318.828 
   50400    296.14609   -11252.912    51.199803   -11304.112   -6312.1824 
   50600    277.66257   -11253.305    48.004244   -11301.309    29310.074 
   50800    373.68359   -11246.358    64.605029   -11310.963   -10944.411 
   51000    279.92425   -11258.246    48.395259   -11306.641    42189.486 
   51200    267.05702   -11246.693    46.170682   -11292.864    50495.551 
   51400    298.60893   -11249.947    51.625597   -11301.573    1349.5746 
   51600    229.86666   -11258.515    39.740953   -11298.255   -11094.492 
   51800    285.28309    -11242.29    49.321733   -11291.612    1647.3014 
   52000    340.44156   -11242.357    58.857915   -11301.215   -48448.493 
   52200    279.87468   -11257.317    48.386689   -11305.704    24557.839 
   52400    356.71158   -11243.008    61.670788   -11304.678    40530.903 
   52600    269.21139   -11250.378    46.543144   -11296.921    8118.8824 
   52800    292.25097   -11255.257    50.526389   -11305.784    24903.294 
   53000    340.47381   -11248.495     58.86349   -11307.359   -1615.1179 
   53200    237.06481   -11263.375    40.985421   -11304.361     41922.62 
   53400    299.25644   -11245.791    51.737543   -11297.529    40453.565 
   53600    332.90217   -11250.346    57.554452     -11307.9   -20293.765 
   53800    266.04823   -11262.945    45.996275   -11308.942     33888.37 
   54000     264.8979   -11248.626    45.797398   -11294.423   -53721.066 
   54200    327.37966   -11250.219    56.599682   -11306.819   -26940.292 
   54400    304.04406   -11254.403     52.56526   -11306.969   -21296.882 
   54600    289.05686   -11249.492    49.974169   -11299.466    -6507.515 
   54800    293.59559   -11252.098    50.758856   -11302.857   -9945.6751 
   55000    307.60495   -11249.738    53.180892   -11302.918   -29926.971 
   55200    349.70234   -11235.949    60.458983   -11296.408    45134.498 
   55400    279.34675   -11258.384    48.295417    -11306.68    17112.131 
   55600    294.58194   -11249.927    50.929382   -11300.857   -58846.267 
   55800    328.00803   -11239.987     56.70832   -11296.695    10334.646 
   56000    308.60619   -11248.077    53.353994   -11301.431    2844.4565 
   56200    302.75728   -11247.844    52.342793   -11300.186   -11488.259 
   56400    252.19038   -11260.114    43.600433   -11303.715    5788.4462 
   56600    321.32145   -11243.201    55.552296   -11298.753    21879.823 
   56800    309.61612   -11249.662    53.528597   -11303.191   -27957.589 
   57000    320.67782   -11243.855    55.441021   -11299.296    19949.729 
   57200    332.17784   -11238.906    57.429225   -11296.335    21925.532 
   57400    281.12964   -11251.074    48.603655   -11299.677   -52709.456 
   57600    315.93643   -11255.848    54.621297    -11310.47    8495.5814 
   57800     255.4822   -11262.623    44.169546   -11306.792   -21603.284 
   58000    289.74478   -11247.979      50.0931   -11298.072    3048.9396 
   58200    278.33697   -11239.817    48.120839   -11287.938     12992.35 
   58400    311.31211   -11243.866    53.821812   -11297.688   -4735.9817 
   58600    301.24178   -11256.744    52.080783   -11308.825    67173.644 
   58800    310.48618   -11239.265    53.679019   -11292.944   -8595.2729 
   59000    327.14087   -11236.009    56.558398   -11292.568    62962.531 
   59200    290.37121   -11256.632    50.201403   -11306.833    21186.931 
   59400     274.9362   -11251.598    47.532889    -11299.13    18626.473 
   59600    287.71929   -11243.253     49.74292   -11292.996    -7552.963 
   59800    247.84958   -11250.305    42.849967   -11293.155     5926.749 
   60000    330.01889   -11246.627    57.055969   -11303.683   -37788.745 
   60200    374.50033   -11231.746    64.746231   -11296.492   -46355.102 
   60400    300.69791   -11248.951    51.986754   -11300.938    83.649211 
   60600    314.09295   -11254.898    54.302582     -11309.2    43448.423 
   60800    336.43186   -11239.936     58.16469     -11298.1   -21420.018 
   61000    290.26852   -11250.999    50.183649   -11301.182   -23229.592 
   61200    300.38963   -11249.493    51.933456   -11301.427    33070.249 
   61400    324.38427   -11246.849    56.081818   -11302.931    18736.997 
   61600    302.70699   -11245.714    52.334099   -11298.048   -31644.267 
   61800     285.4301   -11247.319     49.34715   -11296.666    32444.487 
   62000    284.98481   -11255.575    49.270164   -11304.845    3200.3038 
   62200    339.60179   -11238.721    58.712729   -11297.433   -27158.147 
   62400    247.09069   -11254.992    42.718763   -11297.711    840.96857 
   62600    302.52579   -11250.666    52.302771   -11302.969   -13127.697 
   62800    319.03227   -11248.351    55.156526   -11303.508    24948.982 
   63000    269.09807   -11266.468    46.523553   -11312.991    1899.9293 
   63200    265.60664   -11248.989     45.91993   -11294.909    53501.752 
   63400    322.27794   -11243.678     55.71766   -11299.395   -12447.788 
   63600    293.82554   -11260.779    50.798611   -11311.577    55769.997 
   63800    283.59557   -11247.242    49.029983   -11296.272   -41175.237 
   64000    296.25345    -11254.62    51.218365   -11305.838   -8504.1819 
   64200    271.06742   -11262.632    46.864029   -11309.496    19687.424 
   64400    279.33757   -11254.636     48.29383    -11302.93   -9520.9474 
   64600    295.58104   -11242.291    51.102114   -11293.393    21542.742 
   64800    254.43129   -11256.449    43.987858   -11300.437    35395.811 
   65000    269.05194   -11248.335    46.515579   -11294.851    -16577.14 
   65200    332.64256   -11247.551    57.509568   -11305.061   -3978.1451 
   65400    266.14472   -11253.699    46.012957   -11299.712    7114.5185 
   65600    327.23967   -11246.571    56.575479   -11303.146   -32583.296 
   65800    420.63068   -11221.975    72.721569   -11294.696   -2233.2499 
   66000    306.91854   -11244.045    53.062221   -11297.107   -55711.565 
   66200    320.60484   -11251.671    55.428404     -11307.1    810.90919 
   66400    266.65758   -11255.725    46.101625   -11301.827    14226.304 
   66600    295.73023   -11248.522    51.127908    -11299.65    20255.475 
   66800    316.43265   -11237.199    54.707085   -11291.906   -19499.798 
   67000    256.17582   -11255.523    44.289465   -11299.813   -6583.6846 
   67200    319.73183   -11246.895    55.277471   -11302.173    -19350.51 
   67400    272.34893   -11265.956    47.085584   -11313.042   -31426.214 
   67600    321.27003   -11255.929    55.543407   -11311.473   -10798.428 
   67800    263.80514   -11248.698    45.608475   -11294.306    9906.9443 
   68000    249.79047    -11249.08    43.185521   -11292.265    31979.134 
   68200    245.47031   -11263.381    42.438622   -11305.819   -56494.826 
   68400    336.18336   -11248.713    58.121726   -11306.834    -12570.93 
   68600    298.44663   -11255.659    51.597537   -11307.257   -20952.909 
   68800    339.48037   -11230.751    58.691738   -11289.443   -28154.437 
   69000    335.29867   -11247.122    57.968776   -11305.091   -59879.079 
   69200    339.12551   -11256.873    58.630386   -11315.504    3579.1721 
   69400     264.6136   -11253.173    45.748246   -11298.921    14676.654 
   69600    323.10999   -11239.018    55.861511    -11294.88    4474.2616 
   69800    264.21388     -11254.8    45.679141   -11300.479   -1610.1572 
   70000    347.34132   -11249.937    60.050793   -11309.987    31015.652 
   70200    296.76144   -11241.195    51.306189   -11292.501    41204.465 
   70400    332.71175    -11236.94     57.52153   -11294.462   -4209.4861 
   70600    311.43671   -11256.535    53.843353   -11310.379   -22564.223 
   70800     314.7786   -11253.347    54.421122   -11307.768   -38001.655 
   71000    298.20382   -11233.944    51.555559   -11285.499   -27585.879 
   71200    332.42705   -11242.089    57.472309   -11299.561   -47283.895 
   71400    295.55786   -11249.602    51.098107     -11300.7     18034.27 
   71600     274.4695   -11264.364    47.452204   -11311.816     1179.845 
   71800    230.21467    -11260.24     39.80112   -11300.041    15972.204 
   72000    303.15173   -11246.453    52.410988   -11298.864   -7890.7244 
   72200    213.28417    -11262.57    36.874056   -11299.444   -16390.507 
   72400    284.50263   -11250.316    49.186802   -11299.503   -22567.815 
   72600    282.76686   -11246.873     48.88671    -11295.76    1145.5166 
   72800    280.40817   -11262.063    48.478922   -11310.542    27575.266 
   73000    300.84217   -11256.078    52.011695    -11308.09    12249.357 
   73200    292.05276   -11248.069     50.49212   -11298.561     16801.13 
   73400    304.04907   -11243.967    52.566127   -11296.533   -64788.375 
   73600    286.32415   -11245.561    49.501719   -11295.063   -14746.606 
   73800    293.62165    -11256.44    50.763361   -11307.204   -14424.023 
   74000    372.94372   -11240.448    64.477114   -11304.925   -28438.435 
   74200     296.0897   -11251.388    51.190056   -11302.578    24681.695 
   74400    297.60123   -11261.697    51.451378   -11313.148   -2502.1082 
   74600    331.73159    -11245.12    57.352074   -11302.472    8123.7149 
   74800    290.28456   -11248.262    50.186421   -11298.448    21468.427 
   75000    264.64959   -11256.256    45.754469    -11302.01   -3322.9381 
   75200    267.29494   -11252.383    46.211816   -11298.595   -2242.0505 
   75400    313.84148   -11244.188    54.259106   -11298.447    -26834.09 
   75600    280.42219   -11263.609    48.481347   -11312.091   -30547.297 
   75800    315.81801   -11249.387    54.600822   -11303.988   -513.37488 
   76000     317.1449   -11248.632    54.830225   -11303.462    -12065.52 
   76200    273.28132   -11252.337    47.246783   -11299.584    37750.265 
   76400    279.78649   -11258.974    48.371442   -11307.346     35175.07 
   76600    300.37617   -11245.012     51.93113   -11296.943     -4445.62 
   76800    331.89086   -11252.523    57.379609   -11309.902   -33266.529 
   77000     284.6106   -11249.701    49.205468   -11298.907    46043.611 
   77200    366.69195   -11236.058    63.396264   -11299.454    15207.966 
   77400    310.86242   -11253.604    53.744065   -11307.348     13807.84 
   77600     291.8676   -11250.957    50.460109   -11301.417    15906.199 
   77800    285.99105   -11245.056    49.444131     -11294.5    32146.843 
   78000    289.44309   -11251.585    50.040942   -11301.626    2653.1816 
   78200    304.53719   -11248.685    52.650516   -11301.336    49666.056 
   78400    282.96301   -11258.636     48.92062   -11307.557    6390.4796 
   78600     283.9711   -11251.973    49.094907   -11301.068   -7417.2137 
   78800    305.72722   -11245.418    52.856257   -11298.274    7266.1741 
   79000    293.70984   -11250.083    50.778609   -11300.862    12041.688 
   79200    234.89143     -11266.3    40.609671    -11306.91    8046.0718 
   79400    272.65753   -11253.812    47.138937    -11300.95   -40389.256 
   79600    316.46575   -11244.028    54.712809   -11298.741    51374.343 
   79800    414.48305   -11222.934    71.658725   -11294.593   -14873.125 
   80000    309.41446   -11245.781    53.493732   -11299.274     15254.01 
   80200    281.54731   -11252.192    48.675865   -11300.868   -29384.547 
   80400    282.98412   -11254.249    48.924271   -11303.173    63915.604 
   80600    380.18754   -11236.894    65.729477   -11302.624   -5898.6984 
   80800    289.23215   -11253.289    50.004474   -11303.294    43326.503 
   81000    249.72783   -11256.612     43.17469   -11299.786     8488.646 
   81200    299.66377   -11244.538    51.807965   -11296.346   -45666.257 
   81400    323.74801   -11240.667    55.971816   -11296.638   -4281.8116 
   81600    276.44057   -11252.593    47.792976   -11300.386    12466.322 
   81800    268.63574     -11257.3    46.443623   -11303.744   -32049.298 
   82000    377.10779   -11235.453    65.197029    -11300.65     21645.78 
   82200    304.04408   -11252.273    52.565264   -11304.839   -13532.771 
   82400    299.77678   -11255.821    51.827504   -11307.649    13256.502 
   82600    296.89093   -11255.416    51.328576   -11306.744    30317.738 
   82800    291.93209   -11245.781    50.471258   -11296.252    24116.219 
   83000    308.21656   -11260.088     53.28663   -11313.375    14715.009 
   83200    346.41007   -11251.801    59.889792   -11311.691    15970.159 
   83400    250.19607   -11245.224    43.255643   -11288.479    43163.185 
   83600    278.65627    -11244.75    48.176042   -11292.926    56556.335 
   83800      305.819   -11249.488    52.872125    -11302.36   -37335.267 
   84000    306.79074    -11246.18    53.040126    -11299.22    21950.762 
   84200    350.14107   -11232.058    60.534834   -11292.593   -34276.144 
   84400    278.25769   -11251.877    48.107133   -11299.984    28216.792 
   84600    275.38832   -11251.945    47.611055   -11299.556   -28682.655 
   84800    362.49582   -11230.496    62.670809   -11293.167   -11469.435 
   85000    247.66641   -11245.696    42.818299   -11288.515   -44585.146 
   85200     308.3765   -11246.453    53.314284   -11299.767   -4591.1088 
   85400    251.00343   -11259.594    43.395226   -11302.989   -38227.478 
   85600    313.35329   -11249.641    54.174705   -11303.816    5429.5023 
   85800    284.46152   -11250.193    49.179693   -11299.373    -7775.456 
   86000    310.46647    -11246.95    53.675611   -11300.626     23985.87 
   86200    321.00538   -11238.644    55.497652   -11294.142   -29675.991 
   86400     263.5436   -11255.912    45.563259   -11301.476    3060.9643 
   86600    332.20157   -11246.617    57.433328    -11304.05    4766.9832 
   86800    318.91371   -11250.913    55.136028   -11306.049   -3748.9789 
   87000    260.72138   -11261.781    45.075334   -11306.856   -33960.039 
   87200     299.1157    -11245.64    51.713212   -11297.353    26768.533 
   87400    298.00185   -11251.006     51.52064   -11302.527     11882.22 
   87600    258.60916   -11264.695    44.710158   -11309.405    -18993.76 
   87800    269.42521   -11249.577    46.580112   -11296.157   -38297.052 
   88000    269.38105   -11250.827    46.572477     -11297.4    16082.442 
   88200    338.92975   -11259.079    58.596542   -11317.675    147.63548 
   88400    261.63754    -11257.15    45.233725   -11302.384   -25523.953 
   88600    344.58098   -11242.253    59.573566   -11301.827    38798.282 
   88800    345.84207   -11259.169    59.791592    -11318.96    79756.369 
   89000    303.15776   -11253.026    52.412031   -11305.438    71058.442 
   89200    297.47608   -11254.058    51.429742   -11305.488   -37559.439 
   89400    291.52376   -11270.811    50.400664   -11321.212    25302.523 
   89600    274.71925    -11258.47    47.495382   -11305.965   -45002.838 
   89800    271.24672   -11243.505    46.895027     -11290.4   -44952.441 
   90000    288.86859   -11258.794    49.941618   -11308.736   -26592.229 
   90200    279.11288   -11260.647    48.254984   -11308.902    16214.265 
   90400     280.6904   -11252.361    48.527716   -11300.888   -3724.7829 
   90600    372.90049   -11235.112    64.469641   -11299.581     54314.32 
   90800     342.6794   -11250.467    59.244808   -11309.712   -26695.744 
   91000    313.11319   -11251.298    54.133194   -11305.431     46570.78 
   91200    334.34423   -11240.848    57.803765   -11298.651   -64364.497 
   91400    260.05765   -11253.827    44.960582   -11298.787     20544.53 
   91600    317.72501   -11250.113    54.930519   -11305.043   -6230.7783 
   91800    313.35224   -11230.347    54.174523   -11284.522   -14179.744 
   92000    269.62794   -11250.483    46.615161   -11297.098     17286.74 
   92200    317.90702   -11248.636    54.961986   -11303.598   -26271.972 
   92400    342.42965   -11239.185     59.20163   -11298.387   -19995.987 
   92600    283.54401   -11250.714    49.021069   -11299.735      18582.6 
   92800    299.05445   -11252.021    51.702621   -11303.723    26164.283 
   93000    325.01212   -11238.801    56.190365   -11294.992    8530.5193 
   93200    266.96791   -11246.029    46.155277   -11292.184    31440.189 
   93400    274.10584   -11254.933    47.389332   -11302.322    -11229.18 
   93600    333.57265    -11239.64    57.670369   -11297.311    1645.7107 
   93800    295.26861   -11247.876      51.0481   -11298.924   -14596.083 
   94000    258.55228   -11253.173    44.700324   -11297.873    5098.5258 
   94200    308.07326   -11240.507    53.261856   -11293.769   -7222.2524 
   94400    326.39793   -11235.455    56.429954   -11291.885    64342.675 
   94600    323.24254   -11253.906    55.884428    -11309.79   -12859.181 
   94800    292.59989   -11255.711    50.586713   -11306.298    12807.779 
   95000    349.36169   -11238.185    60.400088   -11298.585   -11089.705 
   95200    293.60672   -11253.355    50.760781   -11304.116     3.814847 
   95400     288.7311   -11255.118    49.917849   -11305.036    18281.468 
   95600    360.26089   -11244.792    62.284418   -11307.077    50616.391 
   95800    242.74367   -11258.206    41.967221   -11300.173   -23395.879 
   96000    266.81504   -11250.423    46.128848   -11296.552    -49581.66 
   96200    278.75226   -11242.449    48.192636   -11290.641     34874.49 
   96400    261.53359   -11259.282    45.215753   -11304.497   -48667.674 
   96600    315.32064   -11243.836    54.514833   -11298.351   -25886.989 
   96800     273.8407   -11244.682    47.343493   -11292.025    68159.411 
   97000    292.37598    -11252.56    50.548001   -11303.108   -16288.896 
   97200    281.01274   -11255.612    48.583445   -11304.195    16032.458 
   97400    323.39893    -11238.18    55.911465   -11294.091    808.22151 
   97600    301.18196   -11246.093     52.07044   -11298.164   -66437.875 
   97800    301.33348   -11251.494    52.096636   -11303.591    2202.4955 
   98000    305.32948   -11236.012    52.787492     -11288.8   -21861.776 
   98200    311.26683   -11254.848    53.813984   -11308.662    -16062.56 
   98400     302.3283   -11247.392    52.268628   -11299.661   -35126.638 
   98600    365.02478   -11236.627    63.108032   -11299.735    20411.602 
   98800    279.41267   -11257.099    48.306813   -11305.406    -8870.438 
   99000     298.9135   -11246.317    51.678254   -11297.995   -303.49784 
   99200    331.40096   -11242.104    57.294911   -11299.399    31170.032 
   99400    290.52581   -11246.935     50.22813   -11297.163    13688.232 
   99600    327.46716   -11243.881    56.614809   -11300.496    4694.5537 
   99800    345.43133   -11235.611    59.720581   -11295.331    41035.645 
  100000    265.95682   -11253.628    45.980472   -11299.608   -19802.186 
  100200    308.24528   -11243.829    53.291597   -11297.121   -12069.711 
  100400    339.21917   -11231.867     58.64658   -11290.513    28707.593 
  100600     304.8845   -11249.092    52.710562   -11301.802   -71980.654 
  100800    289.08567   -11251.087    49.979149   -11301.066    26673.401 
  101000    347.40877   -11233.158    60.062454    -11293.22    29855.918 
  101200    292.79023   -11252.517     50.61962   -11303.137    19997.791 
  101400    339.94297    -11245.69    58.771715   -11304.461   -61495.609 
  101600    277.75784   -11247.676    48.020715   -11295.696    86901.966 
  101800    324.40081   -11259.351    56.084677   -11315.436    47773.217 
  102000    279.53114   -11250.324    48.327295   -11298.651    -52117.13 
  102200    294.03325   -11242.466    50.834521     -11293.3   -32762.381 
  102400    262.87239    -11259.83    45.447215   -11305.277    24438.776 
  102600    303.99526   -11253.114    52.556823   -11305.671   -43558.767 
  102800    285.11907   -11247.015    49.293376   -11296.308    -5880.473 
  103000    354.06652   -11228.347    61.213492    -11289.56    59914.149 
  103200    299.41778   -11252.344    51.765436   -11304.109   -36452.981 
  103400     296.4921   -11249.649    51.259625   -11300.909   -13361.636 
  103600    314.38873   -11238.198    54.353719   -11292.552    15748.211 
  103800    296.74783   -11256.955    51.303836   -11308.259    10138.583 
  104000    304.40755   -11247.403    52.628102   -11300.031    16389.785 
  104200    307.91134   -11245.346    53.233862    -11298.58   -32732.281 
  104400    311.75939   -11249.353     53.89914   -11303.252    64594.778 
  104600    268.89487   -11258.665    46.488423   -11305.153    47093.002 
  104800    300.94205   -11244.062    52.028963    -11296.09     2239.334 
  105000    318.69782   -11242.603    55.098704   -11297.701    3478.1423 
  105200    275.38709   -11261.106    47.610844   -11308.717    30174.739 
  105400     275.9738   -11253.997    47.712278   -11301.709    -49270.97 
  105600    308.26171   -11246.682    53.294436   -11299.977    48715.511 
  105800    284.12032   -11262.442    49.120705   -11311.563    48591.191 
  106000     299.9644   -11249.119    51.859941   -11300.979   -4475.1271 
  106200     272.0174   -11247.938    47.028268   -11294.966    52298.383 
  106400    343.49789   -11235.876    59.386314   -11295.263   -53796.766 
  106600    244.20827   -11248.873    42.220431   -11291.093   -9983.8371 
  106800    338.03004   -11248.847    58.440994   -11307.288   -15342.416 
  107000    305.37778   -11238.454    52.795842    -11291.25   -28670.234 
  107200    316.11472   -11239.125     54.65212   -11293.777   -35118.229 
  107400    318.19096    -11257.81    55.011075   -11312.821   -16506.323 
  107600    327.35252   -11245.958     56.59499   -11302.553   -4423.4288 
  107800     351.8968   -11240.757    60.838377   -11301.596   -16548.897 
  108000    305.64855   -11255.389    52.842656   -11308.231    42910.646 
  108200    322.15724   -11240.787    55.696792   -11296.484    39545.505 
  108400    355.86507   -11228.242    61.524438   -11289.767   -40516.306 
  108600    295.64294   -11248.703    51.112815   -11299.816   -25846.141 
  108800    311.88242   -11247.476     53.92041   -11301.396   -59160.669 
  109000    328.14259   -11246.204    56.731583   -11302.936    4068.2448 
  109200    285.66072   -11258.159    49.387021   -11307.546    20382.979 
  109400    325.53869    -11243.82    56.281402   -11300.101   -11924.859 
  109600     324.4044   -11247.165    56.085297    -11303.25    41176.915 
  109800    273.99216   -11254.792    47.369678   -11302.161    93302.156 
  110000    325.43766   -11250.886    56.263935    -11307.15   -30403.327 
  110200    372.57505   -11242.104    64.413377   -11306.518   -16402.079 
  110400    289.69462   -11252.671    50.084429   -11302.755   -29237.836 
  110600    282.91062   -11249.074    48.911564   -11297.986   -15938.342 
  110800    364.03447   -11226.071    62.936821   -11289.008   -32696.678 
  111000    310.74295   -11247.663    53.723411   -11301.387   -31343.725 
  111200    265.95061   -11248.931    45.979398    -11294.91   -14730.162 
  111400    334.71694   -11232.739    57.868202   -11290.607   -12595.336 
  111600    246.92451   -11249.248    42.690034   -11291.938   -5330.6773 
  111800     289.0937   -11249.264    49.980537   -11299.245    38340.993 
  112000    297.94477   -11236.796    51.510773   -11288.307    26329.456 
  112200    365.20536    -11246.36    63.139252   -11309.499   -64818.219 
  112400    261.35707   -11255.087    45.185235   -11300.272    11429.911 
  112600     315.2184   -11240.999    54.497158   -11295.496   -4167.6569 
  112800    331.20107   -11239.386    57.260354   -11296.647    43747.977 
  113000     285.8384   -11251.295    49.417739   -11300.713    35188.747 
  113200    288.53863   -11247.775    49.884573    -11297.66   -81557.979 
  113400    329.47517   -11236.791    56.961967   -11293.752    66506.778 
  113600    324.66673   -11249.424    56.130652   -11305.554    53196.511 
  113800    248.76628   -11252.044    43.008451   -11295.053   -22027.012 
  114000    357.20496   -11241.676    61.756087   -11303.432   -7986.5638 
  114200    319.08029   -11246.835    55.164829       -11302    39517.042 
  114400    254.65689   -11254.905    44.026862   -11298.932    7225.3488 
  114600    314.46355   -11250.501    54.366654   -11304.868    40932.559 
  114800    313.49362   -11238.176    54.198965   -11292.375    7623.6218 
  115000    252.69214   -11254.853    43.687181   -11298.541   -17179.717 
  115200    267.70788   -11256.182    46.283207   -11302.465   -23062.052 
  115400    372.54109   -11232.869    64.407505   -11297.276   -4625.4608 
  115600    307.79147   -11247.912    53.213139   -11301.125   -11351.829 
  115800     321.8382   -11250.796    55.641636   -11306.437   -3789.3677 
  116000    271.50262    -11260.96    46.939269   -11307.899   -16686.599 
  116200    304.66783   -11249.707    52.673102    -11302.38   -30690.368 
  116400    339.62879   -11237.866    58.717397   -11296.583   -28791.496 
  116600    317.06109   -11255.781    54.815736   -11310.597   -4101.7932 
  116800    242.03246   -11258.029    41.844262   -11299.874    52428.785 
  117000    351.65241   -11238.307    60.796125   -11299.103   -7730.9025 
  117200    363.69183   -11245.163    62.877583    -11308.04   -10346.276 
  117400    303.38534    -11254.97    52.451376   -11307.422    3322.6805 
  117600    249.38099   -11262.126    43.114728   -11305.241    27496.161 
  117800    283.55779   -11246.798    49.023451   -11295.821   -17135.836 
  118000    322.81627    -11245.66    55.810732    -11301.47    15261.588 
  118200    279.86319   -11259.134    48.384702   -11307.519   -47652.037 
  118400     278.1546   -11250.643     48.08931   -11298.732    37792.585 
  118600    357.40512   -11235.976    61.790693   -11297.767   -7814.0695 
  118800    334.65582   -11244.803    57.857634   -11302.661   -27671.411 
  119000      307.079   -11254.844    53.089963   -11307.934    18479.267 
  119200    308.88961   -11240.988    53.402993   -11294.391    41924.451 
  119400    280.42697   -11246.911    48.482173   -11295.394    1901.2067 
  119600      306.248   -11255.585    52.946293   -11308.531   -11052.163 
  119800     321.2436   -11238.152    55.538837   -11293.691   -8183.4217 
  120000     318.9935   -11248.121    55.149824   -11303.271   -31927.909 
  120200      287.974   -11250.113    49.786956     -11299.9   -10047.366 
  120400     344.3588   -11245.281    59.535155   -11304.816     41652.35 
  120600    247.38993   -11254.291    42.770499   -11297.062   -5268.1413 
  120800    312.95194   -11245.195    54.105317     -11299.3   -19225.655 
  121000    266.94844   -11252.377     46.15191   -11298.529   -26591.722 
  121200    311.15742   -11247.408    53.795068   -11301.203     55460.32 
  121400    343.36604    -11237.89    59.363518   -11297.254    61573.203 
  121600     310.1705   -11255.218    53.624443   -11308.843   -8671.7497 
  121800    292.01918   -11256.899    50.486315   -11307.385   -4092.9811 
  122000    327.46294   -11240.512    56.614079   -11297.126   -12948.856 
  122200     283.4314   -11254.491      49.0016   -11303.492    -37429.91 
  122400    268.38216   -11253.548    46.399782   -11299.948   -25071.395 
  122600    336.76332   -11237.136    58.221995   -11295.358    -23445.04 
  122800    287.86174   -11250.721    49.767549   -11300.489    18828.633 
  123000    315.58782   -11255.027    54.561027   -11309.588    54350.954 
  123200    245.83928    -11262.46    42.502411   -11304.962    12187.669 
  123400    310.29268   -11245.508    53.645565   -11299.153    27566.363 
  123600    251.61054   -11258.362    43.500188   -11301.863    31599.225 
  123800    248.80383   -11272.364    43.014943   -11315.379    17420.084 
  124000    269.00285   -11256.407     46.50709   -11302.914   -47542.524 
  124200    294.27499   -11247.187    50.876315   -11298.063    71087.948 
  124400    277.25104   -11259.265    47.933096   -11307.198   -2268.3069 
  124600    301.25406   -11252.845    52.082906   -11304.928   -8702.9672 
  124800    328.70644   -11246.064    56.829065   -11302.893    54257.149 
  125000     304.4521   -11251.268    52.635805   -11303.904   -36685.621 
  125200    248.65371   -11265.792     42.98899   -11308.781     75806.18 
  125400     348.6237   -11244.981    60.272499   -11305.253   -32845.844 
  125600     280.0774   -11251.862    48.421736   -11300.284    1073.7429 
  125800    290.19018   -11254.528    50.170105   -11304.699    8275.3177 
  126000     335.6264   -11238.323    58.025436   -11296.348   -35127.062 
  126200    256.51589   -11255.854    44.348259   -11300.202    25783.115 
  126400     307.1411   -11254.576    53.100698   -11307.677    18475.016 
  126600    320.04797   -11236.207    55.332129   -11291.539    11107.612 
  126800    341.32957   -11247.781     59.01144   -11306.792    9910.3754 
  127000    305.45577    -11250.94    52.809327   -11303.749   -29870.397 
  127200    311.23805   -11242.133    53.809007   -11295.942   -69569.954 
  127400    228.68584   -11261.244    39.536804   -11300.781   -38571.235 
  127600    310.85346   -11254.189    53.742516   -11307.932    31414.328 
  127800    320.87458   -11247.037    55.475038   -11302.512   -6969.7639 
  128000    284.52007   -11247.347    49.189816   -11296.537   -17486.992 
  128200    278.56058   -11260.172    48.159498   -11308.332    11899.503 
  128400    300.21766   -11247.495    51.903725   -11299.399    59847.207 
  128600    255.37221   -11252.702     44.15053   -11296.852   -29565.726 
  128800    285.49814   -11241.879    49.358911   -11291.238   -10685.161 
  129000    304.01356   -11235.312    52.559988   -11287.872   -34611.481 
  129200    276.82453   -11251.146    47.859359   -11299.006    28821.612 
  129400    301.86256   -11251.058    52.188108   -11303.246   -17366.269 
  129600    239.50893   -11259.997    41.407976   -11301.405    33791.413 
  129800    331.92494   -11247.344    57.385502    -11304.73   -57050.653 
  130000    298.64463   -11235.107    51.631769   -11286.738   -30669.164 
  130200    252.98679   -11255.328    43.738122   -11299.066    29356.089 
  130400    272.71645   -11248.817    47.149125   -11295.966    39533.854 
  130600    343.81357   -11244.321     59.44089   -11303.761    48909.834 
  130800    282.29455   -11251.303    48.805053   -11300.108    3493.2671 
  131000    327.28486   -11243.444    56.583293   -11300.028   -4092.5812 
  131200    360.41984   -11232.595    62.311898   -11294.906    38267.212 
  131400    294.14936    -11254.43    50.854595   -11305.285   -2728.0896 
  131600    278.53653   -11248.463     48.15534   -11296.618   -28394.906 
  131800    297.49319   -11238.901    51.432699   -11290.334   -44444.826 
  132000    282.43677   -11248.606    48.829641   -11297.435     25237.51 
  132200    286.71585   -11235.178    49.569438   -11284.747    -53809.36 
  132400     343.1256   -11233.342     59.32195   -11292.664   -26580.866 
  132600    295.61279   -11248.256    51.107603   -11299.364   -25056.823 
  132800    256.44887   -11258.726    44.336672   -11303.063    26813.289 
  133000    323.27983   -11235.848    55.890875   -11291.739   -4925.1397 
  133200    287.53394    -11250.24    49.710875   -11299.951    5853.2623 
  133400    294.15111    -11249.49    50.854898   -11300.345    35717.506 
  133600    306.68949   -11249.028    53.022621    -11302.05    16774.192 
  133800    269.64557    -11250.72    46.618209   -11297.338   -39220.563 
  134000    246.62196   -11258.077    42.637726   -11300.715   -3624.1124 
  134200     324.4813    -11245.54    56.098594   -11301.638   -18187.359 
  134400    320.93867     -11244.6    55.486117   -11300.086   -17337.532 
  134600    266.62929   -11263.859    46.096734   -11309.955    6363.6659 
  134800    255.92961   -11257.639    44.246898   -11301.886   -46916.614 
  135000     322.7533   -11244.107    55.799844   -11299.907   -5540.6192 
  135200    382.50226   -11231.503    66.129662   -11297.632    10929.451 
  135400    284.06692   -11250.434    49.111472   -11299.545    11539.055 
  135600    293.60436   -11251.137    50.760371   -11301.897   -11554.749 
  135800    367.55306   -11233.037    63.545139   -11296.582    29393.079 
  136000    288.78479   -11255.241    49.927131   -11305.168   -18950.083 
  136200    299.26607   -11251.161    51.739208     -11302.9    43215.031 
  136400    317.81765   -11238.481    54.946534   -11293.427   -15791.218 
  136600    266.82654   -11256.109    46.130835   -11302.239   -30515.983 
  136800    256.18664   -11260.827    44.291336   -11305.118     7467.899 
  137000     303.7573   -11246.212    52.515683   -11298.728    45390.899 
  137200    273.88225   -11254.156    47.350675   -11301.506    7124.9873 
  137400    277.38011   -11260.459    47.955411   -11308.414   -15388.583 
  137600    275.26672   -11246.272    47.590032   -11293.862    75033.771 
  137800    272.98337   -11244.292    47.195271   -11291.487   -61418.387 
  138000    286.33909   -11261.402    49.504301   -11310.907    34532.612 
  138200    272.89232   -11245.671     47.17953    -11292.85    59522.765 
  138400    297.04854   -11244.349    51.355826   -11295.704   -9803.8766 
  138600    301.09943   -11258.082    52.056173   -11310.138   -8223.5531 
  138800    363.16551   -11248.626    62.786589   -11311.412   -33957.278 
  139000    290.64034   -11249.211    50.247931   -11299.459    79778.656 
  139200    263.48187   -11255.019    45.552585   -11300.572   -22009.559 
  139400    340.12064   -11238.764    58.802431   -11297.566    15554.535 
  139600    264.51054   -11249.704    45.730429   -11295.435   -3432.6962 
  139800    299.51363   -11243.784    51.782008   -11295.566    28539.258 
  140000    385.08129   -11236.774    66.575542   -11303.349    9299.8442 
  140200    255.53854   -11253.634    44.179286   -11297.814     33355.57 
  140400    306.72414   -11244.021    53.028612   -11297.049    65751.199 
  140600     332.7263   -11229.005    57.524046   -11286.529    10309.759 
  140800    315.26222   -11250.717    54.504733   -11305.222    61273.605 
  141000    329.38957   -11253.906    56.947169   -11310.853    -2539.753 
  141200    263.85396    -11259.82    45.616916   -11305.437    4516.3059 
  141400    337.50504   -11243.447    58.350228   -11301.797    15491.315 
  141600    269.22924   -11259.032    46.546231   -11305.578   -37625.919 
  141800    286.19851   -11256.923    49.479996   -11306.403   -27698.882 
  142000    358.40828   -11249.313    61.964126   -11311.277    -54387.31 
  142200    306.75043    -11255.63    53.033157   -11308.663   -12862.885 
  142400    256.22498   -11260.424    44.297964   -11304.722   -28561.993 
  142600    287.76302   -11245.491     49.75048   -11295.241     13380.85 
  142800    337.41141    -11242.07     58.33404   -11300.404   -955.25517 
  143000    292.30989   -11262.071    50.536575   -11312.608    604.25426 
  143200    289.17682   -11247.563    49.994907   -11297.558     58280.84 
  143400    305.06312    -11247.74    52.741442   -11300.481   -24979.665 
  143600      255.447   -11252.845    44.163462   -11297.009   -37721.489 
  143800    346.42889   -11243.241    59.893045   -11303.134   -29742.582 
  144000    392.81454   -11220.538     67.91252   -11288.451    77836.193 
  144200    363.76499   -11241.716    62.890232   -11304.606    16883.518 
  144400    309.77961   -11254.724    53.556863   -11308.281   -3195.3673 
  144600    223.49949   -11264.846    38.640153   -11303.486     15671.95 
  144800    303.49562   -11246.916    52.470442   -11299.386     48122.49 
  145000    266.34361   -11245.804    46.047344   -11291.852   -23031.342 
  145200    307.50043   -11262.763    53.162821   -11315.926    22212.749 
  145400     285.6582   -11250.561    49.386584   -11299.948   -42129.058 
  145600    320.88606   -11248.047    55.477023   -11303.524   -5661.3533 
  145800    255.90702    -11265.05    44.242992   -11309.293   -2748.0246 
  146000     280.3144   -11250.021     48.46271   -11298.484   -9796.3259 
  146200    319.19773   -11243.078    55.185132   -11298.263    6271.4451 
  146400    385.30867   -11227.717    66.614853   -11294.332    -15247.51 
  146600    360.42537   -11252.828    62.312854   -11315.141    13302.955 
  146800    307.29385   -11252.988    53.127107   -11306.115   -8921.2169 
  147000     374.9635   -11233.966    64.826309   -11298.793    45399.973 
  147200    317.77456   -11246.647    54.939086   -11301.586   -50409.304 
  147400    242.18992   -11252.191    41.871485   -11294.063   -24094.663 
  147600    310.20563   -11252.593    53.630516   -11306.223   -24847.932 
  147800    341.24083   -11254.924    58.996097    -11313.92   -12847.242 
  148000    350.33962   -11240.533     60.56916   -11301.103   -37236.763 
  148200    285.86549   -11249.171    49.422422   -11298.593     11129.04 
  148400    251.91854   -11258.704    43.553436   -11302.257    -14302.16 
  148600    348.21273    -11237.87    60.201448   -11298.071   -27123.567 
  148800    308.15192   -11242.285    53.275455    -11295.56    19944.915 
  149000    284.14004   -11252.219    49.124114   -11301.343    50932.409 
  149200    341.78446   -11251.561    59.090085   -11310.651   -444.80873 
  149400    315.11264   -11242.474    54.478873   -11296.953   -51642.452 
  149600    265.00357   -11257.341    45.815668   -11303.157    17826.404 
  149800    283.23112   -11252.512    48.966974   -11301.479    5708.9609 
  150000    314.03779   -11248.282    54.293045   -11302.575   -47635.887 
  150200     316.4157   -11253.684    54.704155   -11308.388   -17355.491 
  150400    268.48968   -11263.816    46.418372   -11310.234    15044.873 
  150600    342.47892   -11244.723    59.210147   -11303.934   -27965.397 
  150800    310.65982   -11247.001    53.709039    -11300.71   -8621.4294 
  151000    260.90361     -11264.5    45.106838   -11309.607    19953.379 
  151200     297.8303   -11248.633    51.490982   -11300.123    47578.202 
  151400     321.2668   -11247.273    55.542847   -11302.816   -46584.062 
  151600    266.49366   -11265.858    46.073285   -11311.931   -1816.3498 
  151800    308.33106    -11249.76    53.306426   -11303.067   -11036.093 
  152000    367.62829    -11246.95    63.558147   -11310.508   -11087.644 
  152200    251.21039   -11258.831    43.431007   -11302.262   -7386.4412 
  152400    304.93665   -11238.971    52.719577   -11291.691    69053.555 
  152600    337.45848   -11251.017    58.342179   -11309.359    12200.115 
  152800    270.36988   -11249.484    46.743433   -11296.227    32311.215 
  153000    355.58671   -11238.077    61.476313   -11299.553    6470.1478 
  153200    251.85808     -11259.3    43.542983   -11302.843    23357.525 
  153400    278.13243   -11245.639    48.085476   -11293.724   -13883.622 
  153600    352.03015   -11248.825    60.861431   -11309.686   -50919.322 
  153800    287.34744   -11267.193    49.678632   -11316.872    5777.0524 
  154000     251.5072   -11255.916    43.482322   -11299.398   -43981.613 
  154200    320.15101   -11243.989    55.349943   -11299.339   -14961.267 
  154400    316.46048   -11262.362    54.711898   -11317.074   -22717.125 
  154600    296.30072   -11256.771    51.226537   -11307.997    -29505.88 
  154800    256.59789   -11249.529    44.362435   -11293.892   -40875.923 
  155000    330.55908   -11251.754    57.149362   -11308.904    13247.176 
  155200    289.22305   -11263.375      50.0029   -11313.378    39624.584 
  155400    315.88389   -11245.395    54.612212   -11300.007   -442.41394 
  155600    340.88769   -11253.275    58.935045    -11312.21   -10849.843 
  155800    229.47155   -11270.816    39.672643   -11310.489   -14713.569 
  156000    328.55578   -11252.705    56.803018   -11309.508   -4560.0361 
  156200    308.88184   -11240.831    53.401649   -11294.232   -39202.934 
  156400     334.0122   -11248.365    57.746361   -11306.111    5022.7446 
  156600    273.41565   -11261.155    47.270007   -11308.425   -6713.1972 
  156800    318.68429    -11247.75    55.096366   -11302.846    660.99428 
  157000    325.01987   -11244.883    56.191705   -11301.074    -23072.45 
  157200     315.4457   -11232.554    54.536455   -11287.091    35896.665 
  157400    264.08635   -11251.737    45.657092   -11297.394   -21481.566 
  157600    336.01456   -11246.798    58.092543    -11304.89   -31787.293 
  157800    329.03881   -11230.917    56.886528   -11287.804    24606.476 
  158000    314.70942    -11248.04    54.409162   -11302.449   -1965.0482 
  158200    277.70058   -11254.127    48.010816   -11302.138   -1982.8052 
  158400    339.12102   -11240.085     58.62961   -11298.714   -11604.905 
  158600    341.26324   -11237.514    58.999972   -11296.514    34960.279 
  158800    251.79471   -11250.951    43.532027   -11294.483    44647.456 
  159000    273.63406   -11255.216    47.307767   -11302.524   -1661.4999 
  159200    379.76047    -11239.92    65.655641   -11305.576    54128.575 
  159400    318.80206   -11256.895    55.116726   -11312.011      20002.5 
  159600    256.73487   -11250.619    44.386116   -11295.005    22853.905 
  159800    269.23907   -11245.361    46.547931   -11291.908   -20241.183 
  160000    314.33909   -11233.167    54.345138   -11287.512   -19200.362 
  160200     313.2989   -11250.328    54.165302   -11304.493    40520.157 
  160400     323.2574   -11250.043    55.886997    -11305.93   -22565.334 
  160600    296.48763   -11233.943    51.258852   -11285.202   -33097.185 
  160800    307.73125   -11242.771    53.202727   -11295.974   -54474.676 
  161000    291.06777   -11248.355    50.321829   -11298.677   -41049.186 
  161200      303.548   -11233.816    52.479497   -11286.295    4093.7851 
  161400    320.32297   -11240.035    55.379672   -11295.415    16537.072 
  161600    308.84848   -11247.065    53.395882    -11300.46   -46788.361 
  161800     301.2393   -11246.697    52.080354   -11298.778   -43662.725 
  162000    253.00629   -11258.452    43.741494   -11302.194    14898.078 
  162200    316.14382   -11238.957    54.657152   -11293.614    28871.457 
  162400    303.38567   -11251.749    52.451434   -11304.201    26440.792 
  162600     290.4492   -11254.776    50.214885   -11304.991   -33255.976 
  162800     343.4926   -11240.271    59.385399   -11299.656    2579.2795 
  163000    319.12363   -11246.411    55.172321   -11301.584    448.20719 
  163200    312.43507   -11254.425    54.015956   -11308.441    29429.613 
  163400    337.43424   -11242.178    58.337988   -11300.516     31614.27 
  163600    355.39334    -11225.37    61.442882   -11286.813    60749.137 
  163800    277.97047   -11248.497    48.057475   -11296.555    18880.221 
  164000    291.20011   -11252.375    50.344708    -11302.72   -42398.224 
  164200    285.34301    -11261.23    49.332092   -11310.562    11874.422 
  164400    317.83857   -11245.961    54.950151   -11300.911    -2830.194 
  164600    327.01077   -11239.549    56.535905   -11296.085     34737.71 
  164800    279.34328   -11262.014    48.294817   -11310.309        16732 
  165000    280.26284   -11253.391    48.453797   -11301.844    35875.066 
  165200    293.03209    -11252.02    50.661434   -11302.682   -12671.952 
  165400     368.8661   -11247.871    63.772147   -11311.643    4429.8864 
  165600    306.71687   -11245.293    53.027354   -11298.321    29668.066 
  165800    331.98882   -11243.591    57.396546   -11300.987    2385.0063 
  166000    291.41643   -11248.555    50.382108   -11298.937    37684.444 
  166200    257.71969   -11258.241    44.556379   -11302.797    31183.579 
  166400    289.19549   -11242.505    49.998135   -11292.503   -5013.8336 
  166600    318.04374   -11234.864    54.985623    -11289.85    21185.251 
  166800    299.75274   -11250.147    51.823347    -11301.97    31095.054 
  167000    280.62579   -11252.773    48.516546    -11301.29   -29715.674 
  167200    322.80635   -11233.927    55.809017   -11289.736   -43692.698 
  167400    310.36638   -11239.043    53.658308   -11292.702    5455.6053 
  167600    273.56279   -11258.279    47.295446   -11305.575    25612.037 
  167800    336.73934   -11245.658    58.217849   -11303.876   -25061.128 
  168000    265.54529   -11236.882    45.909324   -11282.791   -19338.212 
  168200    300.65176    -11247.75    51.978776   -11299.729    26744.126 
  168400    274.81522   -11261.769    47.511974   -11309.281    22249.078 
  168600    267.25986   -11262.481    46.205751   -11308.686   -7391.2661 
  168800     321.5189   -11246.385    55.586433   -11301.972   -22421.061 
  169000    243.77903   -11252.399    42.146221   -11294.545    -40296.35 
  169200    312.33613   -11246.208     53.99885   -11300.207   -38265.287 
  169400    337.46947   -11242.229    58.344079   -11300.573   -49629.437 
  169600    272.76926   -11257.221    47.158255   -11304.379   -15237.046 
  169800    304.16838   -11243.857    52.586754   -11296.444   -1604.1884 
  170000     328.7157   -11238.492    56.830665   -11295.322    20092.439 
  170200    317.87312   -11244.777    54.956124   -11299.733    20422.997 
  170400    282.53651   -11258.871    48.846884   -11307.717     33716.48 
  170600    287.29399   -11262.675     49.66939   -11312.344   -32786.464 
  170800    300.51893    -11245.67    51.955812   -11297.626   -8771.2779 
  171000     319.6855   -11241.591    55.269462    -11296.86   -70002.756 
  171200    270.32736   -11263.916    46.736082   -11310.652   -1866.3668 
  171400    273.68316   -11249.755    47.316256   -11297.071   -226.85769 
  171600    304.83915   -11241.666    52.702721   -11294.369    35668.048 
  171800    313.45725   -11239.052    54.192679   -11293.245   -2567.6588 
  172000    291.09402   -11258.553    50.326366   -11308.879   -27360.694 
  172200    320.22246   -11252.248    55.362295    -11307.61    15965.939 
  172400    346.92825   -11229.267    59.979378   -11289.246    11439.323 
  172600     326.6641   -11244.404    56.475971    -11300.88    16777.573 
  172800    346.27291    -11249.83    59.866079   -11309.696    -2683.812 
  173000    304.20515   -11250.588     52.59311   -11303.181    8601.5164 
  173200    271.29921   -11258.729    46.904102   -11305.633    84787.874 
  173400    305.40562   -11240.257    52.800657   -11293.058    29417.737 
  173600    293.21384   -11247.154    50.692856   -11297.847   -28857.583 
  173800    276.46873   -11266.131    47.797845   -11313.929   -4539.1466 
  174000    265.08179    -11263.92    45.829191   -11309.749   -12196.029 
  174200    297.28097   -11250.984     51.39601    -11302.38   -9805.3703 
  174400    296.18056   -11240.161    51.205764   -11291.367    45678.451 
  174600    323.57442   -11249.101    55.941805   -11305.043   -26928.941 
  174800    310.15454   -11257.316    53.621683   -11310.938    59362.617 
  175000    320.65363   -11247.786    55.436838   -11303.223    9744.7553 
  175200    293.54316   -11252.879    50.749792   -11303.629    32561.651 
  175400    395.38493    -11234.04    68.356907   -11302.397   -18397.049 
  175600    321.00803   -11248.392    55.498111    -11303.89   -22267.407 
  175800    331.23599    -11251.22    57.266392   -11308.486   -3357.1776 
  176000    271.85701   -11241.644    47.000538   -11288.645   -30539.788 
  176200    335.49214   -11248.774    58.002224   -11306.777   -3394.7137 
  176400    250.64592   -11252.726    43.333417    -11296.06    4298.7268 
  176600    337.37644   -11247.148    58.327995   -11305.476   -143.83688 
  176800    271.89988   -11255.191    47.007949   -11302.199   -66039.037 
  177000    300.32872   -11244.895    51.922926   -11296.818   -8145.9552 
  177200    331.76014   -11242.377    57.357009   -11299.734   -55894.767 
  177400    300.41008   -11255.222    51.936992   -11307.159    11538.488 
  177600    291.20698   -11262.024    50.345896   -11312.369   -20381.579 
  177800    305.98399    -11250.71    52.900649   -11303.611   -11184.353 
  178000    313.91862   -11243.117    54.272443   -11297.389   -18275.524 
  178200    263.92534    -11251.47    45.629255   -11297.099    58800.465 
  178400    207.03716    -11262.18    35.794029   -11297.974    14176.102 
  178600    300.36231   -11246.526    51.928733   -11298.455    15090.556 
  178800    288.96681   -11250.489      49.9586   -11300.447    42243.003 
  179000    277.62483   -11257.734     47.99772   -11305.732    85253.341 
  179200    371.13171   -11241.487    64.163841   -11305.651   -38429.849 
  179400     317.9393   -11255.661    54.967566   -11310.628     31105.21 
  179600    308.64885   -11249.864    53.361368   -11303.226   -6627.5863 
  179800    304.66731   -11226.102    52.673013   -11278.775   -42217.794 
  180000    323.11775   -11245.263    55.862853   -11301.126   -1292.4482 
  180200    283.49312   -11257.643     49.01227   -11306.655    44285.131 
  180400    300.05898   -11248.203    51.876291    -11300.08   -43842.517 
  180600    316.30821   -11241.468    54.685572   -11296.154    33415.011 
  180800    269.37455   -11253.829    46.571354   -11300.401   -12240.503 
  181000    276.47869   -11266.101    47.799566     -11313.9    53255.943 
  181200    277.83347   -11249.044     48.03379   -11297.078    1673.6984 
[...]
  950000    259.33551   -11269.189    44.835734   -11314.025    42926.025 
  950200    299.28789   -11251.765     51.74298   -11303.508   -13836.033 
  950400    320.53282   -11253.726    55.415952   -11309.141   -22476.228 
  950600    279.62554   -11248.848    48.343616   -11297.192    21250.541 
  950800    293.57385   -11253.585    50.755097    -11304.34   -20505.294 
  951000    260.89608   -11261.467    45.105536   -11306.573    8903.8997 
  951200    271.31628   -11249.716    46.907053   -11296.623    45993.144 
  951400    308.72954   -11248.951    53.375319   -11302.326    59036.597 
  951600    280.34403   -11259.552    48.467833    -11308.02   -15491.486 
  951800    320.51334   -11262.463    55.412585   -11317.876   -48154.228 
  952000    315.87763   -11245.378     54.61113   -11299.989    -11844.76 
  952200    298.01043   -11259.276    51.522124   -11310.798    36396.692 
  952400    245.22703   -11263.347    42.396562   -11305.744   -18807.368 
  952600    353.94311   -11251.802    61.192156   -11312.995    32336.404 
  952800    244.09516   -11256.032    42.200875   -11298.233   -29748.317 
  953000    232.79614   -11261.469    40.247422   -11301.716    12899.519 
  953200    299.54353   -11245.096    51.787177   -11296.883    29694.493 
  953400    279.98369   -11256.699    48.405536   -11305.104    11770.396 
  953600    263.32842   -11267.704    45.526057    -11313.23   -23666.876 
  953800    283.46246   -11248.379    49.006969   -11297.386   -30438.514 
  954000    301.02565   -11245.149    52.043417   -11297.192   -26597.916 
  954200    242.28345    -11261.62    41.887655   -11303.508   -15991.177 
  954400    343.80911   -11244.628    59.440119   -11304.068    -14445.41 
  954600    303.94934   -11250.567    52.548885   -11303.116    1085.7656 
  954800    278.72132   -11257.185    48.187288   -11305.372   -37907.792 
  955000    271.00492   -11252.731    46.853224   -11299.584    4594.4687 
  955200     284.1395   -11250.721    49.124021   -11299.845    7247.5301 
  955400    252.86943   -11259.937    43.717833   -11303.655   -27345.709 
  955600    299.09184   -11256.999    51.709086   -11308.708   -40047.449 
  955800    298.43619   -11245.722    51.595733   -11297.317    23420.348 
  956000    306.66724    -11259.18    53.018774   -11312.199    -28882.65 
  956200    256.81328   -11279.573    44.399673   -11323.973    15893.005 
  956400    293.70207   -11259.066    50.777264   -11309.844   -25539.768 
  956600     314.0134    -11245.64     54.28883   -11299.929    34860.603 
  956800    249.39388   -11251.305    43.116955   -11294.422     34994.46 
  957000    327.86096   -11243.721    56.682892   -11300.404   -35431.321 
  957200    260.59439   -11240.309    45.053378   -11285.363   -36702.344 
  957400    278.33256   -11258.711    48.120076   -11306.831    -21559.32 
  957600    291.68877   -11249.428    50.429192   -11299.857   -35534.855 
  957800    318.89977   -11244.584    55.133618   -11299.717    11048.556 
  958000    273.29331   -11253.913    47.248856   -11301.161    19035.821 
  958200    325.73014   -11235.913    56.314502   -11292.227   -38041.934 
  958400    263.89397   -11242.976    45.623832     -11288.6   -6660.6667 
  958600    312.49648   -11253.034    54.026573    -11307.06    10365.926 
  958800    336.76403   -11247.155    58.222117   -11305.377    73999.346 
  959000    331.79547   -11247.327    57.363118   -11304.691   -12045.393 
  959200    243.35564   -11258.629    42.073023   -11300.702    247.94305 
  959400    320.87999   -11244.897    55.475973   -11300.373   -19565.594 
  959600     328.1341   -11251.134    56.730114   -11307.864    -28609.59 
  959800    277.07997   -11251.728     47.90352   -11299.632   -16205.089 
  960000    404.28531   -11235.573    69.895667   -11305.469    26962.149 
  960200    288.08823   -11252.534    49.806705   -11302.341   -67695.711 
  960400    263.06515   -11250.898     45.48054   -11296.379   -28157.532 
  960600     377.7947   -11232.206    65.315786   -11297.522   -731.88287 
  960800    278.33439   -11250.123    48.120393   -11298.243    201.53715 
  961000     316.0383   -11255.312    54.638908   -11309.951   -3993.4615 
  961200    299.02191   -11244.161    51.696995   -11295.858    70.831728 
  961400    331.49291   -11241.359     57.31081    -11298.67    4691.3568 
  961600    271.09132   -11254.639    46.868161   -11301.507   -11177.113 
  961800    296.11479   -11242.295    51.194393   -11293.489    79300.531 
  962000    286.67497   -11243.304    49.562371   -11292.867   -3194.9125 
  962200    286.92716   -11252.703     49.60597   -11302.309   -717.94946 
  962400     312.0765   -11246.282    53.953964   -11300.236   -19306.248 
  962600    305.16346   -11249.133     52.75879   -11301.891   -44043.542 
  962800    268.13633   -11262.196    46.357282   -11308.553   -31309.348 
  963000    307.30504   -11248.039    53.129042   -11301.168    -7340.899 
  963200    325.58211   -11243.248    56.288909   -11299.537    23455.084 
  963400    282.51813   -11260.077    48.843708   -11308.921   -38720.678 
  963600    296.14182   -11250.565    51.199066   -11301.764   -28305.322 
  963800     351.7669   -11244.477    60.815918   -11305.293    16437.019 
  964000    296.35512   -11264.958    51.235943   -11316.194    -30676.48 
  964200    311.59589   -11248.587    53.870873   -11302.458    44637.826 
  964400    329.80137   -11248.078    57.018363   -11305.096   -9892.0021 
  964600    276.13945   -11261.512    47.740917   -11309.253    41950.766 
  964800    339.82782   -11235.967    58.751807   -11294.719    92819.012 
  965000    310.78485   -11256.856    53.730656   -11310.586   -3749.3047 
  965200    337.44672   -11252.757    58.340145   -11311.098    32250.637 
  965400    322.97267   -11237.838    55.837771   -11293.676    41247.592 
  965600    286.74497   -11249.452    49.574472   -11299.027   -17082.732 
  965800    342.15701   -11251.438    59.154492   -11310.592   -25281.015 
  966000    341.85596   -11246.411    59.102445   -11305.514   -30411.108 
  966200    277.36603   -11259.939    47.952976   -11307.892    43842.237 
  966400    292.56394   -11245.037    50.580496   -11295.618    26300.484 
  966600    283.65405   -11243.877    49.040092   -11292.917    18809.628 
  966800     249.2127   -11259.847    43.085633   -11302.932   -6073.5114 
  967000    374.47791   -11243.467    64.742356   -11308.209   -1751.5796 
  967200    256.19447   -11249.604    44.292688   -11293.897   -38139.625 
  967400    291.56072   -11253.903    50.407053   -11304.311   -58568.208 
  967600    357.72048   -11237.638    61.845215   -11299.483     50719.05 
  967800    321.61125   -11246.484    55.602399   -11302.087    34034.201 
  968000    255.42573   -11255.607    44.159785   -11299.766      11563.6 
  968200    403.94148   -11242.068    69.836223   -11311.905    8648.3208 
  968400    282.36055   -11262.513    48.816463    -11311.33    -7064.151 
  968600    313.24067   -11251.348    54.155234   -11305.503   -40997.996 
  968800     264.1095   -11247.803    45.661094   -11293.464   -19502.436 
  969000    298.87092   -11266.368    51.670892   -11318.039    54113.218 
  969200    314.17634   -11253.098    54.316999   -11307.415    15685.818 
  969400    341.20099   -11246.538    58.989209   -11305.527    46393.657 
  969600    269.82136   -11264.687    46.648601   -11311.335   -7801.7964 
  969800    259.47388   -11257.978    44.859656   -11302.837    30764.487 
  970000    291.70713   -11251.483    50.432365   -11301.916   -3016.1856 
  970200    295.64243    -11265.81    51.112727   -11316.923    10105.258 
  970400    264.33556   -11262.558    45.700177   -11308.258    -2268.624 
  970600     243.2663   -11251.665    42.057576   -11293.723    26485.371 
  970800    299.67384   -11251.566    51.809706   -11303.376   -11774.571 
  971000    282.62161   -11262.715    48.861597   -11311.577    37427.471 
  971200    265.42098   -11261.483    45.887832   -11307.371    25357.163 
  971400    326.54246   -11246.718    56.454941   -11303.173   -19642.319 
  971600    312.19706   -11261.156    53.974807    -11315.13    17425.096 
  971800    274.42909   -11257.072    47.445217   -11304.517   -34881.286 
  972000    245.79721   -11251.459    42.495138   -11293.954    65973.763 
  972200    283.40445   -11263.874    48.996941   -11312.871    1802.5787 
  972400    310.17096   -11258.348    53.624521   -11311.973   -60595.964 
  972600    315.62904   -11246.132    54.568152     -11300.7    34261.547 
  972800    278.35851   -11253.214    48.124563   -11301.338    18731.148 
  973000     269.5368   -11261.762    46.599404   -11308.361    25990.079 
  973200    293.03651   -11257.733    50.662198   -11308.396    34977.571 
  973400    307.48548   -11248.306    53.160237   -11301.466    39564.447 
  973600    227.95649   -11265.194    39.410711   -11304.604   -33680.634 
  973800    289.99368   -11251.299    50.136133   -11301.435    38957.845 
  974000    355.99336   -11248.983    61.546618    -11310.53   -42754.345 
  974200    299.35555   -11263.683    51.754678   -11315.438      62954.2 
  974400    240.05588   -11252.145    41.502536   -11293.648    19006.887 
  974600     433.3061   -11222.276    74.912984   -11297.189   -32357.306 
  974800    329.66398   -11240.776     56.99461   -11297.771    44391.516 
  975000    281.33396   -11257.664     48.63898   -11306.303    1076.1749 
  975200    317.54341   -11247.819    54.899122   -11302.718    5293.9668 
  975400     323.2474   -11240.522    55.885268   -11296.408   -17256.236 
  975600    219.62142   -11261.724    37.969684   -11299.694    34685.773 
  975800    347.00005   -11245.168    59.991791   -11305.159    45213.871 
  976000    299.51953   -11251.926    51.783028   -11303.709   -42581.843 
  976200    222.18042   -11274.249    38.412103   -11312.661   -3875.7375 
  976400    280.47529   -11259.935    48.490527   -11308.425   -14814.784 
  976600    317.32518   -11245.042    54.861392   -11299.903   -13601.169 
  976800    302.72922   -11254.929    52.337941   -11307.267    42553.052 
  977000    249.54882   -11255.319    43.143743   -11298.462    54770.127 
  977200    328.98928    -11241.87    56.877964   -11298.747    18063.417 
  977400    279.40804   -11257.645    48.306012   -11305.951    45574.186 
  977600    310.13105   -11255.965    53.617622   -11309.583     -23844.2 
  977800     320.0316   -11244.477    55.329298   -11299.806   -23637.552 
  978000      333.237   -11249.951     57.61234   -11307.563   -11836.339 
  978200    298.07399   -11254.074    51.533113   -11305.607    8970.5197 
  978400    248.29298   -11260.286    42.926624   -11303.212    8051.4339 
  978600    311.89687   -11250.183    53.922909   -11304.106    89725.698 
  978800    373.59297   -11238.902    64.589361   -11303.491     765.8705 
  979000    336.99187   -11250.457    58.261507   -11308.719    42677.852 
  979200    297.11957   -11250.001    51.368107   -11301.369   -29475.645 
  979400    311.62896   -11257.353    53.876591   -11311.229   -49259.822 
  979600    239.35361   -11263.743    41.381124   -11305.124    33093.939 
  979800    330.79635   -11249.752    57.190383   -11306.942    65277.981 
  980000    330.55081   -11254.782    57.147932   -11311.929    14298.246 
  980200    267.03438   -11264.706    46.166768   -11310.873   -29002.808 
  980400    291.55206    -11246.18    50.405557   -11296.585   -43765.857 
  980600    294.34284   -11254.232    50.888046    -11305.12   -52748.429 
  980800    281.18466   -11263.267    48.613168    -11311.88   -58033.222 
  981000    319.99195   -11243.456    55.322443   -11298.778   -29006.303 
  981200    290.24509   -11257.146    50.179598   -11307.326   -38732.838 
  981400    299.50414   -11246.124    51.780367   -11297.905    23505.013 
  981600    292.18754   -11241.982    50.515422   -11292.498    23715.889 
  981800    282.09112   -11253.447    48.769882   -11302.217   -27297.973 
  982000    281.13597   -11251.792     48.60475   -11300.396    56744.578 
  982200    311.21669   -11233.519    53.805314   -11287.324    20486.213 
  982400     278.0041   -11251.417     48.06329   -11299.481    51251.953 
  982600    366.83357    -11254.71    63.420749    -11318.13    3857.2943 
  982800    236.90192   -11269.731    40.957259   -11310.688     28986.25 
  983000     307.8714   -11249.621    53.226957   -11302.848    16170.039 
  983200    304.51282   -11249.176    52.646303   -11301.822    7439.0074 
  983400    276.93737   -11265.388    47.878866   -11313.266   -45172.831 
  983600    302.65083   -11250.717    52.324388   -11303.041   -4388.3406 
  983800    340.11301   -11248.006    58.801113   -11306.807    45852.263 
  984000    262.90056   -11257.667    45.452085   -11303.119   -23083.422 
  984200    344.82136   -11237.003    59.615125   -11296.618    3451.1738 
  984400    294.99607   -11247.375    51.000981   -11298.376    25675.056 
  984600    326.82953   -11255.696    56.504572   -11312.201   -20328.259 
  984800    372.58277   -11236.792    64.414711   -11301.207    11282.218 
  985000    284.76191   -11250.145    49.231627   -11299.377   -53.080551 
  985200    310.56387   -11248.916    53.692451   -11302.608   -11703.658 
  985400      306.595   -11243.626    53.006284   -11296.632    86527.634 
  985600    283.90103    -11258.92    49.082793   -11308.003    20256.072 
  985800    359.65826   -11247.835    62.180231   -11310.015   -13959.245 
  986000    289.44109   -11248.475    50.040597   -11298.515   -8435.2878 
  986200    265.70461   -11258.458    45.936868   -11304.395   -42310.386 
  986400    258.85561   -11258.797    44.752766    -11303.55   -23038.653 
  986600    322.20433   -11241.144    55.704934   -11296.849   -12780.659 
  986800    315.30996   -11247.139    54.512988   -11301.652    -25721.83 
  987000    260.36231   -11257.364    45.013255   -11302.377   -23887.548 
  987200    331.69468   -11243.042    57.345693   -11300.388    36853.409 
  987400    318.12581   -11241.746    54.999812   -11296.746    44708.641 
  987600    350.34334   -11245.665    60.569803   -11306.234   -34063.481 
  987800    275.70872   -11259.497    47.666449   -11307.163    50404.609 
  988000    251.54009   -11252.732    43.488008    -11296.22    2982.1205 
  988200    329.66409    -11239.31     56.99463   -11296.305   -46436.853 
  988400    240.47444   -11253.868    41.574901   -11295.443   -24391.289 
  988600    352.86432   -11238.241    61.005647   -11299.247   -66025.657 
  988800    313.51782   -11247.895     54.20315   -11302.098    7878.1414 
  989000    280.30394   -11255.419    48.460902    -11303.88   -42972.897 
  989200    327.17078   -11241.123    56.563569   -11297.687   -30533.124 
  989400    362.90313   -11222.303    62.741227   -11285.045   -25227.618 
  989600    304.05578   -11250.332    52.567287   -11302.899   -5026.8851 
  989800    294.06158   -11253.212     50.83942   -11304.051     7133.452 
  990000    297.88914   -11258.338    51.501155    -11309.84    31785.646 
  990200    273.71204   -11252.353    47.321248   -11299.674   -32197.442 
  990400    304.13275   -11242.152    52.580594   -11294.732   -4682.5776 
  990600    235.53357   -11261.124    40.720688   -11301.845    39098.091 
  990800    301.85111   -11251.955    52.186127   -11304.141   -42253.784 
  991000    346.52835   -11251.917    59.910242   -11311.827    -36348.22 
  991200    310.98609   -11260.966    53.765447   -11314.732   -39932.832 
  991400    256.23154   -11258.108    44.299099   -11302.407   -10048.159 
  991600    306.45425   -11248.264     52.98195   -11301.246     1333.234 
  991800    275.38782   -11256.554     47.61097   -11304.165   -33467.868 
  992000    295.45414   -11253.506    51.080176   -11304.586    -63668.12 
  992200    312.18878   -11243.702    53.973376   -11297.676   -735.53903 
  992400     291.9002   -11256.992    50.465746   -11307.458   -23933.107 
  992600    283.79086   -11249.316    49.063746   -11298.379   -10490.942 
  992800    333.12636   -11237.634    57.593211   -11295.227   -36077.076 
  993000    299.91848   -11254.821    51.852001   -11306.673   -47254.261 
  993200    323.74224   -11253.006    55.970819   -11308.977    26737.984 
  993400    313.71217   -11241.203    54.236751    -11295.44    11249.373 
  993600    269.98432   -11260.907    46.676774   -11307.584   -39173.801 
  993800    352.29505   -11243.994    60.907228   -11304.901    630.88219 
  994000     327.6791   -11247.771    56.651451   -11304.423   -5342.1589 
  994200    270.21007   -11262.087    46.715804   -11308.803    9207.0289 
  994400    315.06232   -11247.257    54.470174   -11301.727     16720.01 
  994600     295.4959    -11258.81    51.087394   -11309.897   -10729.328 
  994800    259.92453   -11257.561    44.937568   -11302.499    29713.699 
  995000    308.74939   -11245.469     53.37875   -11298.847     7874.808 
  995200    240.98861   -11264.043    41.663794   -11305.707   -29992.727 
  995400    311.88706   -11255.231    53.921212   -11309.153   -49102.585 
  995600    278.56129   -11248.505     48.15962   -11296.665   -30584.044 
  995800    322.82366   -11244.064    55.812009   -11299.876    -31612.72 
  996000    268.56806   -11248.389    46.431921   -11294.821    37039.187 
  996200    267.26289   -11259.437    46.206275   -11305.643    3602.4863 
  996400    319.36453    -11245.51     55.21397   -11300.724    64410.066 
  996600    341.35303    -11242.29    59.015495   -11301.305   -5654.6946 
  996800    260.95662    -11256.74    45.116003   -11301.856    28217.101 
  997000    233.39725    -11249.68    40.351347   -11290.031    -5714.292 
  997200    310.46239   -11246.076    53.674905   -11299.751    13446.831 
  997400    248.50006   -11262.204    42.962425   -11305.167    72380.598 
  997600    286.80165   -11247.363    49.584272   -11296.947   -34512.886 
  997800    352.45933   -11245.394     60.93563    -11306.33   -21895.284 
  998000    312.27075   -11246.546    53.987549   -11300.533     21910.68 
  998200    265.80941   -11248.711    45.954987   -11294.666    28832.727 
  998400    288.80871   -11253.447    49.931267   -11303.378   -42249.374 
  998600    288.35349   -11248.471    49.852565   -11298.323    6018.9893 
  998800     269.5712   -11240.168    46.605351   -11286.773   -30741.878 
  999000     255.9085   -11260.601    44.243249   -11304.844   -12283.961 
  999200    304.12903   -11251.626     52.57995   -11304.206   -27491.069 
  999400    330.66086   -11250.022    57.166958   -11307.189    25839.062 
  999600    282.98043   -11263.015    48.923632   -11311.939    -3640.582 
  999800    295.00039   -11254.707    51.001727   -11305.709   -39735.965 
 1000000    302.31509   -11244.006    52.266344   -11296.272   -4776.0944 
Loop time of 9372.6 on 8 procs for 1000000 steps with 59 atoms

Performance: 2.305 ns/day, 10.414 hours/ns, 106.694 timesteps/s
99.3% CPU use with 8 MPI tasks x no OpenMP threads

MPI task timing breakdown:
Section |  min time  |  avg time  |  max time  |%varavg| %total
---------------------------------------------------------------
Pair    | 8716.2     | 8764.3     | 8805.6     |  35.3 | 93.51
Neigh   | 3.3202     | 3.5443     | 3.7802     |   8.9 |  0.04
Comm    | 150.55     | 191.58     | 239.57     | 237.9 |  2.04
Output  | 0.099783   | 0.11031    | 0.17367    |   7.2 |  0.00
Modify  | 408.86     | 409.27     | 409.52     |   1.0 |  4.37
Other   |            | 3.755      |            |       |  0.04

Nlocal:    7.375 ave 13 max 1 min
Histogram: 1 1 0 1 0 1 1 1 1 1
Nghost:    1212.12 ave 1223 max 1204 min
Histogram: 1 1 1 1 1 1 0 1 0 1
Neighs:    2084.5 ave 3471 max 278 min
Histogram: 1 1 0 1 0 1 0 1 2 1

Total # of neighbors = 16676
Ave neighs/atom = 282.644
Neighbor list builds = 1549
Dangerous builds = 0

Please see the log.cite file for references relevant to this simulation

Total wall time: 2:37:03
