ITEM: TIMESTEP
0
ITEM: NUMBER OF ATOMS
51
ITEM: BOX BOUNDS pp pp pp
0.0000000000000000e+00 1.1000000000000000e+01
0.0000000000000000e+00 1.1002000000000001e+01
0.0000000000000000e+00 1.1000000000000000e+01
ITEM: ATOMS id type x y z 
10 1 4.603 4.603 4.603 
11 1 3.085 3.085 3.085 
12 1 3.796 3.796 3.796 
46 1 0.726 0.725 0.725 
47 1 2.26 2.259 2.26 
48 1 1.551 1.55 1.55 
19 1 4.546 4.545 6.226 
20 1 3.013 3.013 7.764 
21 1 3.721 3.721 7.053 
31 1 0.668 0.667 10.103 
32 1 2.187 2.187 8.589 
33 1 1.476 1.475 9.298 
16 1 4.546 6.225 4.546 
17 1 3.013 7.765 3.013 
18 1 3.721 7.053 3.722 
25 1 0.668 10.103 0.668 
26 1 2.188 8.589 2.188 
27 1 1.476 9.298 1.476 
4 1 4.608 6.169 6.169 
5 1 3.086 7.684 7.684 
6 1 3.799 6.974 6.974 
37 1 0.729 10.046 10.046 
38 1 2.259 8.509 8.508 
39 1 1.552 9.219 9.219 
13 1 6.225 4.546 4.546 
14 1 7.764 3.013 3.013 
15 1 7.053 3.721 3.722 
28 1 10.102 0.667 0.668 
29 1 8.589 2.187 2.188 
30 1 9.298 1.475 1.476 
1 1 6.168 4.608 6.169 
2 1 7.684 3.086 7.684 
3 1 6.974 3.799 6.974 
40 1 10.045 0.728 10.046 
41 1 8.508 2.259 8.508 
42 1 9.218 1.551 9.218 
7 1 6.169 6.169 4.608 
8 1 7.684 7.684 3.086 
9 1 6.974 6.974 3.799 
43 1 10.046 10.047 0.729 
44 1 8.508 8.509 2.259 
45 1 9.219 9.219 1.552 
22 1 6.229 6.229 6.229 
23 1 7.764 7.765 7.765 
24 1 7.055 7.056 7.055 
34 1 10.108 10.108 10.107 
35 1 8.59 8.59 8.59 
36 1 9.301 9.301 9.3 
49 2 8.821 10.52 10.029 
50 2 7.482 10.702 9.369 
51 3 7.018 10.699 10.238 
ITEM: TIMESTEP
10
ITEM: NUMBER OF ATOMS
51
ITEM: BOX BOUNDS pp pp pp
0.0000000000000000e+00 1.1000000000000000e+01
0.0000000000000000e+00 1.1002000000000001e+01
0.0000000000000000e+00 1.1000000000000000e+01
ITEM: ATOMS id type x y z 
10 1 4.59619 4.59537 4.59957 
11 1 3.07442 3.07573 3.08053 
12 1 3.79012 3.78759 3.77848 
46 1 0.736773 0.727376 0.74006 
47 1 2.271 2.27239 2.2737 
48 1 1.56734 1.56187 1.56139 
19 1 4.54114 4.53788 6.23452 
20 1 2.99897 2.99607 7.77999 
21 1 3.70305 3.70819 7.06792 
31 1 0.698807 0.671562 10.091 
32 1 2.20206 2.20095 8.58059 
33 1 1.4861 1.48634 9.27588 
16 1 4.5401 6.23376 4.53819 
17 1 2.99923 7.77994 2.99673 
18 1 3.70297 7.06897 3.70873 
25 1 0.672984 10.0954 0.669387 
26 1 2.1972 8.58587 2.19706 
27 1 1.48253 9.28031 1.4824 
4 1 4.60084 6.17424 6.17397 
5 1 3.07339 7.69093 7.69041 
6 1 3.79527 6.98829 6.98909 
37 1 0.788888 10.0394 10.0473 
38 1 2.26767 8.49457 8.49305 
39 1 1.57341 9.20909 9.21015 
13 1 6.23295 4.5402 4.53895 
14 1 7.77814 2.99891 2.997 
15 1 7.06904 3.70485 3.71005 
28 1 10.0903 0.671131 0.697435 
29 1 8.57788 2.19758 2.20473 
30 1 9.28008 1.49332 1.48242 
1 1 6.17734 4.60557 6.17759 
2 1 7.69673 3.07701 7.69861 
3 1 6.98615 3.77892 6.98256 
40 1 10.0838 0.856757 10.0292 
41 1 8.48211 2.276 8.48478 
42 1 9.20579 1.58314 9.19922 
7 1 6.17395 6.17271 4.60055 
8 1 7.68988 7.69081 3.07368 
9 1 6.98932 6.98777 3.79532 
43 1 10.0589 10.0366 0.791817 
44 1 8.49205 8.49499 2.26801 
45 1 9.21025 9.20727 1.5739 
22 1 6.24224 6.24257 6.24083 
23 1 7.77778 7.77927 7.78074 
24 1 7.06489 7.06411 7.06934 
34 1 10.1139 10.0877 10.1231 
35 1 8.53234 8.52951 8.52413 
36 1 9.32377 9.13328 9.18232 
49 2 8.71344 10.5918 10.1043 
50 2 7.44851 10.7045 9.39565 
51 3 7.02099 10.7037 10.2056 
ITEM: TIMESTEP
20
ITEM: NUMBER OF ATOMS
51
ITEM: BOX BOUNDS pp pp pp
0.0000000000000000e+00 1.1000000000000000e+01
0.0000000000000000e+00 1.1002000000000001e+01
0.0000000000000000e+00 1.1000000000000000e+01
ITEM: ATOMS id type x y z 
10 1 4.59463 4.59479 4.58902 
11 1 3.08299 3.0819 3.07892 
12 1 3.78591 3.78868 3.79281 
46 1 0.740941 0.732776 0.756116 
47 1 2.27366 2.27204 2.26898 
48 1 1.56223 1.56037 1.57095 
19 1 4.53369 4.53715 6.23233 
20 1 3.00284 3.00548 7.77161 
21 1 3.71343 3.71048 7.06615 
31 1 0.702148 0.654451 10.0937 
32 1 2.19298 2.20365 8.57521 
33 1 1.50859 1.47661 9.28662 
16 1 4.53455 6.23347 4.53643 
17 1 3.00098 7.77489 3.00367 
18 1 3.71029 7.06862 3.70736 
25 1 0.676611 10.0917 0.657891 
26 1 2.19177 8.58688 2.19683 
27 1 1.48727 9.28324 1.4753 
4 1 4.57628 6.17691 6.17402 
5 1 3.08087 7.69527 7.69485 
6 1 3.77626 6.98206 6.98101 
37 1 0.78897 10.0404 10.0508 
38 1 2.26198 8.50298 8.50173 
39 1 1.56718 9.21548 9.2186 
13 1 6.23463 4.53559 4.53388 
14 1 7.77577 3.0011 3.002 
15 1 7.06734 3.70735 3.70744 
28 1 10.1043 0.669797 0.675556 
29 1 8.58225 2.19461 2.18759 
30 1 9.29185 1.4754 1.49417 
1 1 6.17287 4.57532 6.1713 
2 1 7.68623 3.08328 7.68704 
3 1 6.97641 3.78912 6.97595 
40 1 10.1088 0.87995 10.05 
41 1 8.48397 2.26295 8.4894 
42 1 9.22752 1.59988 9.20835 
7 1 6.17303 6.17406 4.57719 
8 1 7.69255 7.69321 3.08282 
9 1 6.97873 6.97985 3.77816 
43 1 10.0538 10.0484 0.798561 
44 1 8.4963 8.49744 2.26007 
45 1 9.21871 9.21693 1.58016 
22 1 6.22076 6.22173 6.22052 
23 1 7.75074 7.7622 7.75785 
24 1 7.04588 7.04933 7.04991 
34 1 10.0599 10.1343 10.1204 
35 1 8.57522 8.54801 8.55394 
36 1 9.39194 9.16737 9.22541 
49 2 8.68595 10.515 10.1452 
50 2 7.41587 10.709 9.36657 
51 3 7.05472 10.7106 10.2116 
ITEM: TIMESTEP
30
ITEM: NUMBER OF ATOMS
51
ITEM: BOX BOUNDS pp pp pp
0.0000000000000000e+00 1.1000000000000000e+01
0.0000000000000000e+00 1.1002000000000001e+01
0.0000000000000000e+00 1.1000000000000000e+01
ITEM: ATOMS id type x y z 
10 1 4.59469 4.59472 4.58979 
11 1 3.08186 3.08283 3.08316 
12 1 3.79236 3.79212 3.78796 
46 1 0.747979 0.732393 0.759234 
47 1 2.27497 2.27522 2.27345 
48 1 1.56695 1.56016 1.57155 
19 1 4.53022 4.53466 6.23173 
20 1 3.00531 3.00562 7.7743 
21 1 3.70699 3.71152 7.0608 
31 1 0.710553 0.651188 10.0961 
32 1 2.19603 2.1948 8.58221 
33 1 1.4973 1.47667 9.28666 
16 1 4.53152 6.23597 4.53084 
17 1 3.00297 7.77874 3.00219 
18 1 3.70379 7.06447 3.70794 
25 1 0.678067 10.0846 0.655942 
26 1 2.19048 8.58794 2.19169 
27 1 1.48353 9.28679 1.47641 
4 1 4.57276 6.17709 6.17171 
5 1 3.07802 7.69505 7.69512 
6 1 3.77544 6.98323 6.98024 
37 1 0.777299 10.0499 10.0554 
38 1 2.25691 8.50359 8.50325 
39 1 1.57474 9.22176 9.22533 
13 1 6.23376 4.5308 4.52578 
14 1 7.77738 2.9992 2.99983 
15 1 7.06814 3.70598 3.7049 
28 1 10.1048 0.672529 0.678495 
29 1 8.58643 2.18562 2.19025 
30 1 9.29481 1.48106 1.48081 
1 1 6.17063 4.57633 6.16488 
2 1 7.68475 3.07957 7.68746 
3 1 6.97789 3.7853 6.97571 
40 1 10.1121 0.873848 10.0581 
41 1 8.48718 2.25705 8.49033 
42 1 9.23973 1.61647 9.2162 
7 1 6.17128 6.17081 4.57303 
8 1 7.6911 7.69212 3.08031 
9 1 6.97809 6.97871 3.77809 
43 1 10.0626 10.0574 0.801977 
44 1 8.4979 8.49888 2.26045 
45 1 9.2217 9.22039 1.58402 
22 1 6.21935 6.22343 6.21972 
23 1 7.73841 7.75495 7.75017 
24 1 7.03709 7.04766 7.04386 
34 1 10.0291 10.1522 10.1145 
35 1 8.60081 8.54143 8.55641 
36 1 9.4177 9.15834 9.21872 
49 2 8.63698 10.5057 10.1855 
50 2 7.38984 10.7138 9.34327 
51 3 7.11273 10.7114 10.2162 
ITEM: TIMESTEP
40
ITEM: NUMBER OF ATOMS
51
ITEM: BOX BOUNDS pp pp pp
0.0000000000000000e+00 1.1000000000000000e+01
0.0000000000000000e+00 1.1002000000000001e+01
0.0000000000000000e+00 1.1000000000000000e+01
ITEM: ATOMS id type x y z 
10 1 4.60683 4.59625 4.58549 
11 1 3.09551 3.08734 3.06846 
12 1 3.77089 3.78471 3.81946 
46 1 0.763579 0.729732 0.759322 
47 1 2.28502 2.27375 2.27484 
48 1 1.55882 1.57171 1.57809 
19 1 4.52539 4.53628 6.22296 
20 1 2.99379 3.00825 7.7661 
21 1 3.72204 3.70856 7.07257 
31 1 0.690941 0.692276 10.1075 
32 1 2.18373 2.19968 8.57019 
33 1 1.54334 1.46131 9.30967 
16 1 4.52188 6.23429 4.52456 
17 1 2.99016 7.77671 3.00493 
18 1 3.7156 7.07904 3.69919 
25 1 0.659412 10.091 0.694642 
26 1 2.17877 8.58618 2.20089 
27 1 1.50701 9.2856 1.45011 
4 1 4.56427 6.17032 6.1669 
5 1 3.05834 7.68671 7.68296 
6 1 3.80587 6.99483 6.99955 
37 1 0.74507 10.0465 10.0428 
38 1 2.28025 8.50227 8.5057 
39 1 1.55896 9.20478 9.2031 
13 1 6.24108 4.52989 4.52359 
14 1 7.78517 2.99735 2.99914 
15 1 7.05718 3.69712 3.68997 
28 1 10.1181 0.685801 0.664413 
29 1 8.58528 2.19133 2.17439 
30 1 9.31158 1.46272 1.50949 
1 1 6.17247 4.59368 6.16606 
2 1 7.68623 3.08344 7.68776 
3 1 6.95707 3.75243 6.96432 
40 1 10.0977 0.830971 10.0644 
41 1 8.5013 2.2783 8.50754 
42 1 9.25802 1.61384 9.20305 
7 1 6.164 6.16391 4.56745 
8 1 7.67944 7.6849 3.05511 
9 1 7.00129 6.99297 3.80526 
43 1 10.0501 10.0641 0.756448 
44 1 8.49875 8.50347 2.25574 
45 1 9.2358 9.23041 1.60371 
22 1 6.21396 6.22585 6.21042 
23 1 7.74639 7.7679 7.7574 
24 1 7.03544 7.04989 7.06531 
34 1 10.1358 10.0983 10.087 
35 1 8.6733 8.52045 8.54583 
36 1 9.42903 9.19551 9.23638 
49 2 8.31517 10.512 10.2927 
50 2 7.27466 10.7349 9.27121 
51 3 7.32314 10.7026 10.2179 
ITEM: TIMESTEP
50
ITEM: NUMBER OF ATOMS
51
ITEM: BOX BOUNDS pp pp pp
0.0000000000000000e+00 1.1000000000000000e+01
0.0000000000000000e+00 1.1002000000000001e+01
0.0000000000000000e+00 1.1000000000000000e+01
ITEM: ATOMS id type x y z 
10 1 4.59754 4.59913 4.59706 
11 1 3.08792 3.08857 3.09431 
12 1 3.80098 3.7957 3.78971 
46 1 0.754332 0.727373 0.757462 
47 1 2.2795 2.2819 2.27925 
48 1 1.57929 1.56687 1.57495 
19 1 4.53933 4.53514 6.23483 
20 1 3.00056 3.00613 7.76902 
21 1 3.70645 3.71128 7.05973 
31 1 0.692083 0.691364 10.1139 
32 1 2.20292 2.18707 8.58152 
33 1 1.50742 1.48165 9.302 
16 1 4.53817 6.23656 4.52601 
17 1 2.99709 7.77739 3.00531 
18 1 3.71033 7.06934 3.70873 
25 1 0.669182 10.0951 0.682541 
26 1 2.19232 8.58308 2.18102 
27 1 1.47773 9.29145 1.48365 
4 1 4.59886 6.17771 6.16659 
5 1 3.07981 7.68137 7.68647 
6 1 3.7942 6.98283 6.97331 
37 1 0.738716 10.0365 10.0319 
38 1 2.27364 8.50051 8.50177 
39 1 1.56802 9.20527 9.20445 
13 1 6.23696 4.5352 4.52847 
14 1 7.77475 2.99618 2.99593 
15 1 7.06408 3.70698 3.69705 
28 1 10.1098 0.67821 0.66936 
29 1 8.59437 2.17969 2.19289 
30 1 9.30252 1.48268 1.47767 
1 1 6.17415 4.5916 6.1626 
2 1 7.67463 3.06398 7.68482 
3 1 6.97856 3.78052 6.97379 
40 1 10.0799 0.76503 10.039 
41 1 8.51736 2.28342 8.5061 
42 1 9.24936 1.60613 9.21594 
7 1 6.1772 6.17334 4.59593 
8 1 7.68865 7.68764 3.07083 
9 1 6.97918 6.98197 3.78048 
43 1 10.037 10.0482 0.720454 
44 1 8.50657 8.50884 2.26662 
45 1 9.22223 9.226 1.57949 
22 1 6.22843 6.23463 6.22893 
23 1 7.76643 7.76269 7.76724 
24 1 7.04944 7.07022 7.06598 
34 1 10.135 10.0948 10.078 
35 1 8.68007 8.51562 8.54445 
36 1 9.4099 9.21907 9.24258 
49 2 8.25363 10.5323 10.3263 
50 2 7.25783 10.7385 9.26647 
51 3 7.33858 10.6993 10.209 
ITEM: TIMESTEP
60
ITEM: NUMBER OF ATOMS
51
ITEM: BOX BOUNDS pp pp pp
0.0000000000000000e+00 1.1000000000000000e+01
0.0000000000000000e+00 1.1002000000000001e+01
0.0000000000000000e+00 1.1000000000000000e+01
ITEM: ATOMS id type x y z 
10 1 4.60154 4.60017 4.59634 
11 1 3.08874 3.08762 3.09011 
12 1 3.79782 3.79645 3.79576 
46 1 0.753823 0.727448 0.755397 
47 1 2.27971 2.28112 2.27765 
48 1 1.57632 1.56486 1.57589 
19 1 4.53933 4.53613 6.23394 
20 1 2.99986 3.00632 7.76764 
21 1 3.70914 3.71151 7.0607 
31 1 0.693261 0.691158 10.1156 
32 1 2.20531 2.18542 8.58315 
33 1 1.5017 1.48405 9.30132 
16 1 4.53918 6.23803 4.52722 
17 1 2.99781 7.77843 3.00524 
18 1 3.70795 7.06868 3.70645 
25 1 0.667186 10.097 0.685034 
26 1 2.19184 8.58283 2.18273 
27 1 1.47822 9.29151 1.48167 
4 1 4.59915 6.17827 6.16643 
5 1 3.08216 7.68275 7.6849 
6 1 3.79154 6.97911 6.97479 
37 1 0.741467 10.0371 10.0328 
38 1 2.27608 8.49685 8.49835 
39 1 1.57007 9.20527 9.20417 
13 1 6.2377 4.53603 4.52843 
14 1 7.77405 2.99687 2.99515 
15 1 7.06587 3.70542 3.69848 
28 1 10.1106 0.678692 0.666655 
29 1 8.59415 2.1819 2.19141 
30 1 9.30234 1.4789 1.48013 
1 1 6.17631 4.59191 6.16341 
2 1 7.6768 3.06605 7.68471 
3 1 6.97529 3.77735 6.97486 
40 1 10.0779 0.762418 10.0383 
41 1 8.51873 2.28444 8.50602 
42 1 9.24786 1.60362 9.21521 
7 1 6.17741 6.1743 4.59327 
8 1 7.68705 7.688 3.07053 
9 1 6.98222 6.98122 3.7815 
43 1 10.0371 10.0479 0.720112 
44 1 8.50767 8.50984 2.26796 
45 1 9.22024 9.22468 1.57603 
22 1 6.22944 6.23488 6.22955 
23 1 7.77085 7.76555 7.77008 
24 1 7.05149 7.06966 7.06643 
34 1 10.1354 10.0948 10.0781 
35 1 8.68282 8.51678 8.54553 
36 1 9.40591 9.21934 9.24134 
49 2 8.24779 10.5346 10.3301 
50 2 7.25734 10.7386 9.2659 
51 3 7.33341 10.7003 10.2094 
ITEM: TIMESTEP
70
ITEM: NUMBER OF ATOMS
51
ITEM: BOX BOUNDS pp pp pp
0.0000000000000000e+00 1.1000000000000000e+01
0.0000000000000000e+00 1.1002000000000001e+01
0.0000000000000000e+00 1.1000000000000000e+01
ITEM: ATOMS id type x y z 
10 1 4.60866 4.60558 4.59905 
11 1 3.08924 3.0899 3.0912 
12 1 3.79975 3.79832 3.79523 
46 1 0.745766 0.729854 0.750993 
47 1 2.27905 2.27666 2.27809 
48 1 1.57402 1.56425 1.575 
19 1 4.54463 4.53664 6.23471 
20 1 3.00162 3.00391 7.76732 
21 1 3.71145 3.70969 7.06198 
31 1 0.688183 0.687308 10.1141 
32 1 2.20721 2.18509 8.58771 
33 1 1.49231 1.48869 9.29975 
16 1 4.54408 6.24146 4.5285 
17 1 2.99854 7.77566 3.00214 
18 1 3.71015 7.07052 3.70581 
25 1 0.663746 10.099 0.684856 
26 1 2.1895 8.58434 2.18382 
27 1 1.47361 9.29183 1.48406 
4 1 4.6057 6.17488 6.1661 
5 1 3.08597 7.67834 7.68018 
6 1 3.79817 6.97654 6.97127 
37 1 0.761993 10.0395 10.037 
38 1 2.27812 8.491 8.49224 
39 1 1.5801 9.20408 9.20373 
13 1 6.24605 4.54007 4.53384 
14 1 7.77299 2.99567 2.99387 
15 1 7.07194 3.70573 3.70332 
28 1 10.1058 0.673988 0.660298 
29 1 8.59492 2.18194 2.18756 
30 1 9.30061 1.47624 1.47672 
1 1 6.18172 4.59699 6.16869 
2 1 7.6801 3.06738 7.68665 
3 1 6.98034 3.78188 6.97835 
40 1 10.0656 0.742919 10.0299 
41 1 8.52625 2.29179 8.50631 
42 1 9.23675 1.58397 9.20723 
7 1 6.18095 6.17543 4.59584 
8 1 7.6895 7.68948 3.07158 
9 1 6.98513 6.98243 3.78254 
43 1 10.0337 10.0409 0.713849 
44 1 8.50913 8.51425 2.27447 
45 1 9.2104 9.21666 1.55582 
22 1 6.23975 6.2364 6.23287 
23 1 7.78415 7.76351 7.77082 
24 1 7.06782 7.06548 7.06664 
34 1 10.149 10.0892 10.0722 
35 1 8.69312 8.51764 8.54435 
36 1 9.39347 9.23668 9.24717 
49 2 8.20037 10.5531 10.3628 
50 2 7.25326 10.7398 9.26341 
51 3 7.28852 10.7093 10.2101 
ITEM: TIMESTEP
80
ITEM: NUMBER OF ATOMS
51
ITEM: BOX BOUNDS pp pp pp
0.0000000000000000e+00 1.1000000000000000e+01
0.0000000000000000e+00 1.1002000000000001e+01
0.0000000000000000e+00 1.1000000000000000e+01
ITEM: ATOMS id type x y z 
10 1 4.60901 4.60487 4.59849 
11 1 3.08968 3.09028 3.09134 
12 1 3.80011 3.7986 3.79545 
46 1 0.744485 0.73049 0.750446 
47 1 2.27919 2.27599 2.27823 
48 1 1.57317 1.56472 1.57513 
19 1 4.54496 4.53646 6.23411 
20 1 3.00259 3.00436 7.76708 
21 1 3.71226 3.70948 7.06144 
31 1 0.687879 0.687972 10.1133 
32 1 2.20439 2.18645 8.58776 
33 1 1.49545 1.48604 9.30115 
16 1 4.545 6.24109 4.52897 
17 1 2.99889 7.7759 3.00229 
18 1 3.7104 7.06953 3.70497 
25 1 0.664272 10.0994 0.684776 
26 1 2.18796 8.58398 2.18477 
27 1 1.47517 9.29272 1.48332 
4 1 4.60733 6.17444 6.16573 
5 1 3.08651 7.67862 7.67957 
6 1 3.79798 6.97532 6.97146 
37 1 0.763597 10.0405 10.0381 
38 1 2.27795 8.49124 8.49258 
39 1 1.58129 9.20393 9.20358 
13 1 6.24648 4.53989 4.53421 
14 1 7.77375 2.99565 2.99457 
15 1 7.07156 3.7057 3.70252 
28 1 10.1055 0.67315 0.661228 
29 1 8.59454 2.18143 2.18773 
30 1 9.30017 1.4772 1.47514 
1 1 6.18185 4.5974 6.16917 
2 1 7.68117 3.06897 7.6869 
3 1 6.98044 3.78204 6.97812 
40 1 10.0656 0.742079 10.0285 
41 1 8.52625 2.29183 8.50606 
42 1 9.23568 1.58143 9.20648 
7 1 6.1818 6.1756 4.59544 
8 1 7.68967 7.68978 3.07218 
9 1 6.98549 6.98264 3.78347 
43 1 10.0338 10.0399 0.713048 
44 1 8.50867 8.51408 2.2731 
45 1 9.20982 9.21579 1.55611 
22 1 6.24023 6.23671 6.23305 
23 1 7.78697 7.76298 7.77086 
24 1 7.07014 7.06465 7.06632 
34 1 10.1503 10.0883 10.0712 
35 1 8.69344 8.51815 8.54383 
36 1 9.39235 9.23768 9.2475 
49 2 8.19393 10.5559 10.3682 
50 2 7.25254 10.74 9.26328 
51 3 7.2814 10.7107 10.2098 
ITEM: TIMESTEP
90
ITEM: NUMBER OF ATOMS
51
ITEM: BOX BOUNDS pp pp pp
0.0000000000000000e+00 1.1000000000000000e+01
0.0000000000000000e+00 1.1002000000000001e+01
0.0000000000000000e+00 1.1000000000000000e+01
ITEM: ATOMS id type x y z 
10 1 4.61844 4.60503 4.58873 
11 1 3.09202 3.09242 3.08523 
12 1 3.80001 3.79262 3.79893 
46 1 0.727899 0.746012 0.746682 
47 1 2.28111 2.27049 2.27768 
48 1 1.56019 1.56719 1.58384 
19 1 4.55242 4.53117 6.22752 
20 1 3.01025 3.00269 7.76833 
21 1 3.71757 3.70608 7.06133 
31 1 0.695405 0.683971 10.1104 
32 1 2.1989 2.19368 8.58938 
33 1 1.49425 1.4892 9.30209 
16 1 4.55603 6.23633 4.52714 
17 1 3.0051 7.77002 3.00215 
18 1 3.71718 7.06569 3.70289 
25 1 0.674274 10.1084 0.684112 
26 1 2.18033 8.58171 2.19269 
27 1 1.47533 9.2956 1.48975 
4 1 4.62061 6.16605 6.16632 
5 1 3.0905 7.66999 7.67523 
6 1 3.8062 6.97677 6.96057 
37 1 0.785998 10.0442 10.0473 
38 1 2.27905 8.48174 8.48883 
39 1 1.60837 9.21332 9.20587 
13 1 6.25146 4.53734 4.53295 
14 1 7.77863 2.99341 2.99644 
15 1 7.0792 3.70613 3.7041 
28 1 10.0965 0.662645 0.653894 
29 1 8.59083 2.18186 2.17874 
30 1 9.2938 1.47222 1.46862 
1 1 6.18488 4.60089 6.17307 
2 1 7.69961 3.08704 7.69159 
3 1 6.9896 3.78983 6.98211 
40 1 10.0636 0.722392 10.0155 
41 1 8.52873 2.28399 8.50551 
42 1 9.22057 1.54789 9.19467 
7 1 6.18886 6.17599 4.59506 
8 1 7.69528 7.69711 3.08115 
9 1 6.9918 6.98688 3.78961 
43 1 10.0398 10.0314 0.705941 
44 1 8.50303 8.51255 2.25971 
45 1 9.20574 9.20709 1.53998 
22 1 6.25218 6.23944 6.23591 
23 1 7.82578 7.74732 7.76406 
24 1 7.1029 7.05237 7.0597 
34 1 10.1574 10.0863 10.0673 
35 1 8.70101 8.52788 8.54008 
36 1 9.3784 9.25816 9.25487 
49 2 8.08754 10.6002 10.4525 
50 2 7.24037 10.7434 9.25899 
51 3 7.17806 10.73 10.207 
ITEM: TIMESTEP
100
ITEM: NUMBER OF ATOMS
51
ITEM: BOX BOUNDS pp pp pp
0.0000000000000000e+00 1.1000000000000000e+01
0.0000000000000000e+00 1.1002000000000001e+01
0.0000000000000000e+00 1.1000000000000000e+01
ITEM: ATOMS id type x y z 
10 1 4.62029 4.60103 4.591 
11 1 3.09034 3.08917 3.08814 
12 1 3.80688 3.79476 3.78857 
46 1 0.720081 0.749522 0.748197 
47 1 2.27859 2.26868 2.28109 
48 1 1.55727 1.56958 1.58139 
19 1 4.55551 4.52908 6.22663 
20 1 3.01348 3.00247 7.76886 
21 1 3.72246 3.70496 7.06006 
31 1 0.697326 0.678477 10.1108 
32 1 2.19698 2.20051 8.58961 
33 1 1.49676 1.48861 9.30017 
16 1 4.56032 6.23644 4.52585 
17 1 3.00582 7.76852 3.00034 
18 1 3.72028 7.0644 3.70162 
25 1 0.679739 10.1122 0.681639 
26 1 2.17706 8.58096 2.19908 
27 1 1.47755 9.29576 1.49104 
4 1 4.62702 6.16818 6.16239 
5 1 3.09224 7.67167 7.6679 
6 1 3.80837 6.96715 6.96618 
37 1 0.799321 10.0486 10.0516 
38 1 2.28267 8.4829 8.48963 
39 1 1.61436 9.21334 9.20884 
13 1 6.25679 4.53834 4.53456 
14 1 7.78296 2.99333 2.99688 
15 1 7.08087 3.7041 3.70431 
28 1 10.0904 0.658766 0.6525 
29 1 8.58864 2.17981 2.17471 
30 1 9.29088 1.47138 1.46273 
1 1 6.187 4.60032 6.17376 
2 1 7.70724 3.09478 7.69381 
3 1 6.99752 3.79779 6.98398 
40 1 10.0602 0.712137 10.009 
41 1 8.52299 2.27715 8.50093 
42 1 9.21941 1.54167 9.18847 
7 1 6.19385 6.17494 4.59732 
8 1 7.6984 7.70185 3.08503 
9 1 6.9953 6.98857 3.7913 
43 1 10.0436 10.0248 0.703685 
44 1 8.49767 8.50861 2.25151 
45 1 9.2068 9.20525 1.53709 
22 1 6.25884 6.23702 6.23514 
23 1 7.84591 7.73666 7.75672 
24 1 7.11599 7.04669 7.05676 
34 1 10.1604 10.0862 10.0677 
35 1 8.69799 8.53647 8.54076 
36 1 9.38195 9.26085 9.25432 
49 2 8.02796 10.6234 10.4957 
50 2 7.23294 10.7452 9.25896 
51 3 7.12976 10.7389 10.2038 
ITEM: TIMESTEP
110
ITEM: NUMBER OF ATOMS
51
ITEM: BOX BOUNDS pp pp pp
0.0000000000000000e+00 1.1000000000000000e+01
0.0000000000000000e+00 1.1002000000000001e+01
0.0000000000000000e+00 1.1000000000000000e+01
ITEM: ATOMS id type x y z 
10 1 4.62068 4.6011 4.59044 
11 1 3.09166 3.08896 3.08775 
12 1 3.80592 3.79516 3.78988 
46 1 0.720135 0.748273 0.749032 
47 1 2.27683 2.26882 2.28221 
48 1 1.55889 1.5699 1.57906 
19 1 4.55536 4.52994 6.22687 
20 1 3.01368 3.00296 7.76868 
21 1 3.72267 3.7052 7.05969 
31 1 0.696984 0.678704 10.1105 
32 1 2.19738 2.20015 8.58971 
33 1 1.49637 1.48911 9.30029 
16 1 4.55999 6.23651 4.52625 
17 1 3.00584 7.76832 3.00066 
18 1 3.72019 7.06421 3.70186 
25 1 0.679901 10.1114 0.68228 
26 1 2.17731 8.58115 2.19934 
27 1 1.47797 9.29578 1.49089 
4 1 4.62579 6.16796 6.16279 
5 1 3.09181 7.67076 7.66878 
6 1 3.80847 6.96863 6.96521 
37 1 0.799637 10.0493 10.0512 
38 1 2.28487 8.48452 8.48963 
39 1 1.61207 9.211 9.20889 
13 1 6.257 4.53816 4.53456 
14 1 7.78318 2.99323 2.99648 
15 1 7.0811 3.70391 3.70422 
28 1 10.0907 0.65942 0.651573 
29 1 8.58876 2.18014 2.17423 
30 1 9.29012 1.47001 1.46315 
1 1 6.18792 4.59976 6.17352 
2 1 7.70708 3.0951 7.69383 
3 1 6.99746 3.7979 6.98364 
40 1 10.0599 0.712909 10.0094 
41 1 8.52166 2.27518 8.50004 
42 1 9.22204 1.54501 9.18895 
7 1 6.19382 6.17496 4.5972 
8 1 7.69813 7.7017 3.08468 
9 1 6.99533 6.98851 3.79129 
43 1 10.0439 10.0248 0.704339 
44 1 8.49731 8.50837 2.2505 
45 1 9.20838 9.20584 1.53869 
22 1 6.25839 6.23637 6.23492 
23 1 7.84593 7.73621 7.75572 
24 1 7.11567 7.04631 7.05622 
34 1 10.1615 10.0857 10.0683 
35 1 8.69782 8.53634 8.54063 
36 1 9.38178 9.26038 9.25452 
49 2 8.02521 10.6238 10.4964 
50 2 7.2325 10.7453 9.25976 
51 3 7.12993 10.7388 10.2033 
ITEM: TIMESTEP
120
ITEM: NUMBER OF ATOMS
51
ITEM: BOX BOUNDS pp pp pp
0.0000000000000000e+00 1.1000000000000000e+01
0.0000000000000000e+00 1.1002000000000001e+01
0.0000000000000000e+00 1.1000000000000000e+01
ITEM: ATOMS id type x y z 
10 1 4.62068 4.60107 4.5905 
11 1 3.09169 3.08889 3.08781 
12 1 3.80592 3.79526 3.78977 
46 1 0.720138 0.748212 0.749063 
47 1 2.27672 2.26885 2.28228 
48 1 1.55901 1.56988 1.57891 
19 1 4.55535 4.52998 6.22689 
20 1 3.01369 3.00299 7.76868 
21 1 3.72265 3.70521 7.05967 
31 1 0.696963 0.67872 10.1105 
32 1 2.19742 2.2001 8.58969 
33 1 1.49633 1.4892 9.30032 
16 1 4.55998 6.2365 4.52626 
17 1 3.0058 7.76834 3.00064 
18 1 3.72021 7.06418 3.70191 
25 1 0.679914 10.1114 0.682335 
26 1 2.17732 8.58116 2.19935 
27 1 1.47802 9.29579 1.49089 
4 1 4.62573 6.16797 6.16279 
5 1 3.09179 7.67076 7.66882 
6 1 3.80845 6.96864 6.96519 
37 1 0.799651 10.0493 10.0511 
38 1 2.28501 8.48463 8.48964 
39 1 1.61192 9.21085 9.20888 
13 1 6.25704 4.53811 4.5346 
14 1 7.78319 2.99322 2.99655 
15 1 7.08109 3.70395 3.70407 
28 1 10.0907 0.659439 0.651524 
29 1 8.58873 2.18012 2.17421 
30 1 9.29014 1.46999 1.46314 
1 1 6.18796 4.59973 6.17348 
2 1 7.70707 3.0951 7.69383 
3 1 6.99747 3.79792 6.98365 
40 1 10.0599 0.712944 10.0095 
41 1 8.52157 2.27506 8.49996 
42 1 9.22223 1.54521 9.18901 
7 1 6.19382 6.17494 4.59718 
8 1 7.69813 7.70167 3.08464 
9 1 6.99531 6.98854 3.7913 
43 1 10.0439 10.0248 0.704364 
44 1 8.4973 8.50836 2.25043 
45 1 9.20846 9.20585 1.53882 
22 1 6.25837 6.23634 6.23491 
23 1 7.84594 7.73619 7.75567 
24 1 7.11565 7.04629 7.05618 
34 1 10.1615 10.0857 10.0684 
35 1 8.69779 8.53636 8.54063 
36 1 9.38182 9.26033 9.25453 
49 2 8.02507 10.6238 10.4965 
50 2 7.23247 10.7453 9.25979 
51 3 7.12987 10.7388 10.2032 
ITEM: TIMESTEP
130
ITEM: NUMBER OF ATOMS
51
ITEM: BOX BOUNDS pp pp pp
0.0000000000000000e+00 1.1000000000000000e+01
0.0000000000000000e+00 1.1002000000000001e+01
0.0000000000000000e+00 1.1000000000000000e+01
ITEM: ATOMS id type x y z 
10 1 4.62068 4.60107 4.59051 
11 1 3.09171 3.08888 3.08782 
12 1 3.80593 3.79526 3.78976 
46 1 0.720143 0.748167 0.749087 
47 1 2.27663 2.26887 2.28233 
48 1 1.5591 1.56988 1.57881 
19 1 4.55535 4.53001 6.22689 
20 1 3.0137 3.003 7.76867 
21 1 3.72265 3.70522 7.05966 
31 1 0.696945 0.678741 10.1105 
32 1 2.19744 2.20009 8.58969 
33 1 1.49632 1.48923 9.30033 
16 1 4.55996 6.2365 4.52626 
17 1 3.00579 7.76834 3.00064 
18 1 3.72021 7.06419 3.70194 
25 1 0.67993 10.1113 0.682362 
26 1 2.17734 8.58116 2.19936 
27 1 1.47803 9.29579 1.4909 
4 1 4.62568 6.16799 6.1628 
5 1 3.09178 7.67076 7.66884 
6 1 3.80844 6.96864 6.96519 
37 1 0.799659 10.0493 10.0511 
38 1 2.28512 8.4847 8.48965 
39 1 1.6118 9.21074 9.20888 
13 1 6.25705 4.53811 4.53458 
14 1 7.78318 2.99324 2.99652 
15 1 7.08112 3.70392 3.7041 
28 1 10.0907 0.659448 0.651499 
29 1 8.58872 2.1801 2.1742 
30 1 9.29013 1.46998 1.46313 
1 1 6.18799 4.59971 6.17345 
2 1 7.70706 3.0951 7.69384 
3 1 6.99748 3.79792 6.98364 
40 1 10.0599 0.712971 10.0095 
41 1 8.52151 2.27496 8.49991 
42 1 9.22236 1.54538 9.18904 
7 1 6.19382 6.17497 4.5972 
8 1 7.6981 7.70171 3.08463 
9 1 6.99535 6.98847 3.79125 
43 1 10.044 10.0248 0.704381 
44 1 8.49728 8.50835 2.25038 
45 1 9.20854 9.20586 1.53891 
22 1 6.25835 6.23631 6.23491 
23 1 7.84594 7.73618 7.75564 
24 1 7.11567 7.04627 7.05613 
34 1 10.1616 10.0856 10.0684 
35 1 8.69779 8.53635 8.54063 
36 1 9.38181 9.26032 9.25455 
49 2 8.02496 10.6239 10.4965 
50 2 7.23246 10.7453 9.25981 
51 3 7.12984 10.7388 10.2032 
ITEM: TIMESTEP
135
ITEM: NUMBER OF ATOMS
51
ITEM: BOX BOUNDS pp pp pp
0.0000000000000000e+00 1.1000000000000000e+01
0.0000000000000000e+00 1.1002000000000001e+01
0.0000000000000000e+00 1.1000000000000000e+01
ITEM: ATOMS id type x y z 
10 1 4.62068 4.60107 4.59051 
11 1 3.09171 3.08888 3.08782 
12 1 3.80593 3.79526 3.78976 
46 1 0.720143 0.748166 0.749088 
47 1 2.27663 2.26887 2.28233 
48 1 1.55911 1.56988 1.5788 
19 1 4.55535 4.53001 6.22689 
20 1 3.0137 3.003 7.76867 
21 1 3.72265 3.70522 7.05966 
31 1 0.696944 0.678743 10.1105 
32 1 2.19744 2.20009 8.58969 
33 1 1.49632 1.48923 9.30032 
16 1 4.55996 6.2365 4.52626 
17 1 3.00579 7.76834 3.00064 
18 1 3.72021 7.06419 3.70194 
25 1 0.679931 10.1114 0.682364 
26 1 2.17734 8.58116 2.19936 
27 1 1.47803 9.29578 1.4909 
4 1 4.62568 6.16799 6.1628 
5 1 3.09178 7.67076 7.66884 
6 1 3.80844 6.96865 6.96519 
37 1 0.799659 10.0493 10.0511 
38 1 2.28512 8.48471 8.48965 
39 1 1.6118 9.21074 9.20888 
13 1 6.25705 4.53811 4.53458 
14 1 7.78318 2.99323 2.99652 
15 1 7.08112 3.70392 3.7041 
28 1 10.0907 0.659448 0.651499 
29 1 8.58872 2.1801 2.1742 
30 1 9.29013 1.46998 1.46313 
1 1 6.18799 4.59971 6.17345 
2 1 7.70706 3.0951 7.69384 
3 1 6.99748 3.79792 6.98364 
40 1 10.0599 0.712972 10.0095 
41 1 8.52151 2.27496 8.49991 
42 1 9.22236 1.54538 9.18905 
7 1 6.19382 6.17497 4.5972 
8 1 7.6981 7.70171 3.08463 
9 1 6.99535 6.98847 3.79125 
43 1 10.044 10.0248 0.704382 
44 1 8.49728 8.50835 2.25038 
45 1 9.20854 9.20587 1.53891 
22 1 6.25835 6.23631 6.23491 
23 1 7.84594 7.73618 7.75564 
24 1 7.11567 7.04627 7.05613 
34 1 10.1616 10.0856 10.0684 
35 1 8.69779 8.53635 8.54063 
36 1 9.3818 9.26032 9.25455 
49 2 8.02495 10.6239 10.4965 
50 2 7.23246 10.7453 9.25981 
51 3 7.12983 10.7388 10.2032 
ITEM: TIMESTEP
136
ITEM: NUMBER OF ATOMS
51
ITEM: BOX BOUNDS pp pp pp
0.0000000000000000e+00 1.1000000000000000e+01
0.0000000000000000e+00 1.1002000000000001e+01
0.0000000000000000e+00 1.1000000000000000e+01
ITEM: ATOMS id type x y z 
10 1 4.62068 4.60107 4.59051 
11 1 3.09171 3.08888 3.08782 
12 1 3.80593 3.79526 3.78976 
46 1 0.720143 0.748166 0.749088 
47 1 2.27663 2.26887 2.28233 
48 1 1.55911 1.56988 1.5788 
19 1 4.55535 4.53001 6.22689 
20 1 3.0137 3.003 7.76867 
21 1 3.72265 3.70522 7.05966 
31 1 0.696944 0.678743 10.1105 
32 1 2.19744 2.20009 8.58969 
33 1 1.49632 1.48923 9.30032 
16 1 4.55996 6.2365 4.52626 
17 1 3.00579 7.76834 3.00064 
18 1 3.72021 7.06419 3.70194 
25 1 0.679931 10.1113 0.682364 
26 1 2.17734 8.58116 2.19936 
27 1 1.47803 9.29578 1.4909 
4 1 4.62568 6.16799 6.1628 
5 1 3.09178 7.67076 7.66884 
6 1 3.80844 6.96865 6.96519 
37 1 0.799659 10.0493 10.0511 
38 1 2.28512 8.48471 8.48965 
39 1 1.6118 9.21074 9.20888 
13 1 6.25705 4.53811 4.53458 
14 1 7.78318 2.99323 2.99652 
15 1 7.08112 3.70392 3.7041 
28 1 10.0907 0.659448 0.651499 
29 1 8.58872 2.1801 2.1742 
30 1 9.29013 1.46998 1.46313 
1 1 6.18799 4.59971 6.17345 
2 1 7.70706 3.0951 7.69384 
3 1 6.99748 3.79792 6.98364 
40 1 10.0599 0.712972 10.0095 
41 1 8.52151 2.27496 8.49991 
42 1 9.22236 1.54538 9.18905 
7 1 6.19382 6.17497 4.5972 
8 1 7.6981 7.70171 3.08463 
9 1 6.99535 6.98847 3.79125 
43 1 10.044 10.0248 0.704382 
44 1 8.49728 8.50835 2.25038 
45 1 9.20854 9.20587 1.53892 
22 1 6.25835 6.23631 6.23491 
23 1 7.84594 7.73618 7.75564 
24 1 7.11567 7.04627 7.05613 
34 1 10.1616 10.0856 10.0684 
35 1 8.69779 8.53635 8.54063 
36 1 9.3818 9.26032 9.25455 
49 2 8.02495 10.6239 10.4965 
50 2 7.23246 10.7453 9.25981 
51 3 7.12983 10.7388 10.2032 
ITEM: TIMESTEP
140
ITEM: NUMBER OF ATOMS
51
ITEM: BOX BOUNDS pp pp pp
-2.1999999999999997e-03 1.1002200000000002e+01
-2.1442065804159745e-03 1.1004144206580417e+01
-2.0953212273491892e-03 1.1002095321227349e+01
ITEM: ATOMS id type x y z 
10 1 4.62034 4.60073 4.59017 
11 1 3.09075 3.08794 3.0869 
12 1 3.80525 3.7946 3.78911 
46 1 0.718226 0.746305 0.747273 
47 1 2.27533 2.26761 2.28111 
48 1 1.55753 1.56834 1.5773 
19 1 4.55498 4.52964 6.22717 
20 1 3.01271 3.00203 7.76954 
21 1 3.72194 3.70453 7.06025 
31 1 0.695015 0.676855 10.1123 
32 1 2.19612 2.1988 8.59087 
33 1 1.49472 1.48767 9.30177 
16 1 4.55959 6.23678 4.5259 
17 1 3.00479 7.76922 2.99969 
18 1 3.7195 7.06479 3.70126 
25 1 0.677997 10.1132 0.680522 
26 1 2.17601 8.58237 2.1981 
27 1 1.47642 9.29726 1.48938 
4 1 4.62534 6.16824 6.16304 
5 1 3.09082 7.6716 7.66967 
6 1 3.80776 6.96922 6.96575 
37 1 0.797772 10.0511 10.0529 
38 1 2.28384 8.48588 8.49079 
39 1 1.61023 9.21219 9.21029 
13 1 6.25734 4.53774 4.53422 
14 1 7.7841 2.99226 2.99557 
15 1 7.08175 3.70322 3.70341 
28 1 10.0926 0.657554 0.649644 
29 1 8.58996 2.1788 2.17293 
30 1 9.29164 1.46841 1.46159 
1 1 6.18826 4.59937 6.1737 
2 1 7.70794 3.09416 7.69467 
3 1 6.99808 3.79725 6.98421 
40 1 10.0618 0.711101 10.0112 
41 1 8.52272 2.2737 8.50106 
42 1 9.22386 1.54384 9.19046 
7 1 6.19408 6.17522 4.59686 
8 1 7.69897 7.70256 3.08371 
9 1 6.99595 6.98905 3.7906 
43 1 10.0458 10.0266 0.70255 
44 1 8.49848 8.50952 2.24914 
45 1 9.21003 9.20732 1.5374 
22 1 6.25864 6.23659 6.23519 
23 1 7.84687 7.73705 7.7565 
24 1 7.11631 7.04686 7.05672 
34 1 10.1634 10.0874 10.0701 
35 1 8.69907 8.53753 8.5418 
36 1 9.38336 9.26179 9.25597 
49 2 8.02596 10.6259 10.4984 
50 2 7.23315 10.7474 9.26124 
51 3 7.13048 10.7409 10.205 
ITEM: TIMESTEP
150
ITEM: NUMBER OF ATOMS
51
ITEM: BOX BOUNDS pp pp pp
-6.5267149216228226e-03 1.1006526714921629e+01
-4.6916244493371674e-03 1.1006691624449338e+01
-2.9067581404709441e-03 1.1002906758140471e+01
ITEM: ATOMS id type x y z 
10 1 4.62037 4.60104 4.59077 
11 1 3.08908 3.08699 3.08674 
12 1 3.80369 3.79356 3.78863 
46 1 0.713932 0.743413 0.746001 
47 1 2.27224 2.26578 2.28034 
48 1 1.55428 1.56617 1.57621 
19 1 4.55483 4.52981 6.22668 
20 1 3.01113 3.00126 7.76945 
21 1 3.72089 3.7041 7.0602 