LAMMPS (3 Mar 2020)
# Alpha
clear
units		real
dimension 3
boundary        p p p
atom_style	charge
newton on
read_data       OH_5.lmp
  orthogonal box = (0 0 0) to (16.114 16.113 16.112)
  2 by 2 by 2 MPI processor grid
  reading atoms ...
  202 atoms
  read_data CPU = 0.00956374 secs

timestep 0.25

# ---------- Define Interatomic Potential ---------------------
pair_style      reax/c NULL checkqeq no
pair_coeff      * * ffield.reax C H O
WARNING: Changed valency_val to valency_boc for X (../reaxc_ffield.cpp:315)
fix             2 all qeq/reax 1 0.0 10.0 1.0e-6 reax/c

#------------ Equilibration of the system -------------------------
reset_timestep 0

dump 1 all custom 10 min.lammpstrj id type x y z

minimize 1.0e-8 1.0e-8 100000 100000
WARNING: Using 'neigh_modify every 1 delay 0 check yes' setting during minimization (../min.cpp:190)
Neighbor list info ...
  update every 1 steps, delay 0 steps, check yes
  max neighbors/atom: 2000, page size: 100000
  master list distance cutoff = 12
  ghost atom cutoff = 12
  binsize = 6, bins = 3 3 3
  2 neighbor lists, perpetual/occasional/extra = 2 0 0
  (1) pair reax/c, perpetual
      attributes: half, newton off, ghost
      pair build: half/bin/newtoff/ghost
      stencil: half/ghost/bin/3d/newtoff
      bin: standard
  (2) fix qeq/reax, perpetual, copy from (1)
      attributes: half, newton off, ghost
      pair build: copy
      stencil: none
      bin: none
Per MPI rank memory allocation (min/avg/max) = 37.11 | 37.12 | 37.13 Mbytes
Step Temp E_pair E_mol TotEng Press 
       0            0   -37673.978            0   -37673.978    673598.79 
      32            0   -38722.048            0   -38722.048    64718.684 
Loop time of 2.037 on 8 procs for 32 steps with 202 atoms

99.0% CPU use with 8 MPI tasks x no OpenMP threads

Minimization stats:
  Stopping criterion = energy tolerance
  Energy initial, next-to-last, final = 
        -37673.9784172     -38722.0479078     -38722.0482519
  Force two-norm initial, final = 1436.85 179.83
  Force max component initial, final = 112.16 44.3271
  Final line search alpha, max atom move = 0.000281968 0.0124988
  Iterations, force evaluations = 32 132

MPI task timing breakdown:
Section |  min time  |  avg time  |  max time  |%varavg| %total
---------------------------------------------------------------
Pair    | 1.758      | 1.7729     | 1.7987     |   0.8 | 87.03
Neigh   | 0          | 0          | 0          |   0.0 |  0.00
Comm    | 0.0096541  | 0.035535   | 0.050388   |   5.9 |  1.74
Output  | 0.00016039 | 0.00018898 | 0.00026572 |   0.0 |  0.01
Modify  | 0.22583    | 0.22595    | 0.22606    |   0.0 | 11.09
Other   |            | 0.002442   |            |       |  0.12

Nlocal:    25.25 ave 28 max 24 min
Histogram: 4 0 0 0 0 3 0 0 0 1
Nghost:    1590.75 ave 1592 max 1588 min
Histogram: 1 0 0 0 0 3 0 0 0 4
Neighs:    8429.88 ave 9309 max 7989 min
Histogram: 4 0 0 0 0 3 0 0 0 1

Total # of neighbors = 67439
Ave neighs/atom = 333.856
Neighbor list builds = 0
Dangerous builds = 0

###
min_style cg
minimize 1.0e-8 1.0e-8 100000 100000
WARNING: Using 'neigh_modify every 1 delay 0 check yes' setting during minimization (../min.cpp:190)
Per MPI rank memory allocation (min/avg/max) = 37.11 | 37.12 | 37.13 Mbytes
Step Temp E_pair E_mol TotEng Press 
      32            0   -38722.048            0   -38722.048     64718.68 
      33            0   -38722.048            0   -38722.048    64718.545 
Loop time of 0.106568 on 8 procs for 1 steps with 202 atoms

98.7% CPU use with 8 MPI tasks x no OpenMP threads

Minimization stats:
  Stopping criterion = energy tolerance
  Energy initial, next-to-last, final = 
        -38722.0482557     -38722.0482557     -38722.0484221
  Force two-norm initial, final = 179.83 179.819
  Force max component initial, final = 44.3271 44.325
  Final line search alpha, max atom move = 0.000281995 0.0124994
  Iterations, force evaluations = 1 6

MPI task timing breakdown:
Section |  min time  |  avg time  |  max time  |%varavg| %total
---------------------------------------------------------------
Pair    | 0.092485   | 0.093273   | 0.094656   |   0.2 | 87.52
Neigh   | 0          | 0          | 0          |   0.0 |  0.00
Comm    | 0.0004518  | 0.0018351  | 0.0026178  |   1.4 |  1.72
Output  | 0          | 0          | 0          |   0.0 |  0.00
Modify  | 0.011246   | 0.011249   | 0.011254   |   0.0 | 10.56
Other   |            | 0.0002112  |            |       |  0.20

Nlocal:    25.25 ave 28 max 24 min
Histogram: 4 0 0 0 0 3 0 0 0 1
Nghost:    1586.75 ave 1592 max 1582 min
Histogram: 1 0 3 0 0 0 1 0 2 1
Neighs:    8416.38 ave 9296 max 8004 min
Histogram: 4 0 0 0 0 3 0 0 0 1

Total # of neighbors = 67331
Ave neighs/atom = 333.322
Neighbor list builds = 0
Dangerous builds = 0

###
fix 1 all box/relax aniso 0.0
min_style cg
minimize 1.0e-8 1.0e-8 100000 100000
WARNING: Using 'neigh_modify every 1 delay 0 check yes' setting during minimization (../min.cpp:190)
Per MPI rank memory allocation (min/avg/max) = 37.11 | 37.12 | 37.13 Mbytes
Step Temp E_pair E_mol TotEng Press Volume 
      33            0   -38722.048            0   -38722.048    64718.541    4183.3983 
    1339            0   -38897.654            0   -38897.654    280.87926    4432.0823 
Loop time of 21.3032 on 8 procs for 1306 steps with 202 atoms

99.1% CPU use with 8 MPI tasks x no OpenMP threads

Minimization stats:
  Stopping criterion = energy tolerance
  Energy initial, next-to-last, final = 
        -38722.0484256     -38897.6532129     -38897.6535026
  Force two-norm initial, final = 6841.98 60.7134
  Force max component initial, final = 3985.5 39.1438
  Final line search alpha, max atom move = 7.61651e-08 2.98139e-06
  Iterations, force evaluations = 1306 1513

MPI task timing breakdown:
Section |  min time  |  avg time  |  max time  |%varavg| %total
---------------------------------------------------------------
Pair    | 19.479     | 19.692     | 19.997     |   3.1 | 92.44
Neigh   | 0          | 0          | 0          |   0.0 |  0.00
Comm    | 0.098964   | 0.40342    | 0.61738    |  21.6 |  1.89
Output  | 0.0055743  | 0.0065334  | 0.0093277  |   1.4 |  0.03
Modify  | 1.1305     | 1.1314     | 1.1327     |   0.1 |  5.31
Other   |            | 0.0697     |            |       |  0.33

Nlocal:    25.25 ave 28 max 24 min
Histogram: 4 0 0 0 0 3 0 0 0 1
Nghost:    1586.75 ave 1592 max 1582 min
Histogram: 1 0 3 0 0 0 1 0 2 1
Neighs:    8416.38 ave 9296 max 8004 min
Histogram: 4 0 0 0 0 3 0 0 0 1

Total # of neighbors = 67331
Ave neighs/atom = 333.322
Neighbor list builds = 0
Dangerous builds = 0

unfix 1
###
min_style cg
minimize 1.0e-8 1.0e-8 100000 100000
WARNING: Using 'neigh_modify every 1 delay 0 check yes' setting during minimization (../min.cpp:190)
Per MPI rank memory allocation (min/avg/max) = 37.11 | 37.11 | 37.12 Mbytes
Step Temp E_pair E_mol TotEng Press 
    1339            0   -38897.654            0   -38897.654    280.87861 
    1447            0   -38904.123            0   -38904.123    21652.946 
Loop time of 3.08709 on 8 procs for 108 steps with 202 atoms

99.0% CPU use with 8 MPI tasks x no OpenMP threads

Minimization stats:
  Stopping criterion = energy tolerance
  Energy initial, next-to-last, final = 
        -38897.6535035     -38904.1222546     -38904.1226089
  Force two-norm initial, final = 45.0285 1.62927
  Force max component initial, final = 4.38825 0.317893
  Final line search alpha, max atom move = 0.0183802 0.00584294
  Iterations, force evaluations = 108 216

MPI task timing breakdown:
Section |  min time  |  avg time  |  max time  |%varavg| %total
---------------------------------------------------------------
Pair    | 2.6485     | 2.6809     | 2.7102     |   1.4 | 86.84
Neigh   | 0          | 0          | 0          |   0.0 |  0.00
Comm    | 0.018311   | 0.047431   | 0.079633   |  10.7 |  1.54
Output  | 0.00049417 | 0.00057527 | 0.00081916 |   0.0 |  0.02
Modify  | 0.35373    | 0.35388    | 0.35405    |   0.0 | 11.46
Other   |            | 0.004337   |            |       |  0.14

Nlocal:    25.25 ave 28 max 24 min
Histogram: 4 0 0 0 0 3 0 0 0 1
Nghost:    1533.25 ave 1574 max 1492 min
Histogram: 1 0 1 1 1 0 2 1 0 1
Neighs:    7981.38 ave 8770 max 7609 min
Histogram: 4 0 0 0 0 3 0 0 0 1

Total # of neighbors = 63851
Ave neighs/atom = 316.094
Neighbor list builds = 0
Dangerous builds = 0

###
fix 1 all box/relax aniso 0.0
min_style cg
minimize 1.0e-8 1.0e-8 100000 100000
WARNING: Using 'neigh_modify every 1 delay 0 check yes' setting during minimization (../min.cpp:190)
Per MPI rank memory allocation (min/avg/max) = 37.11 | 37.11 | 37.12 Mbytes
Step Temp E_pair E_mol TotEng Press Volume 
    1447            0   -38904.123            0   -38904.123    21652.945    4432.0823 
    2047            0   -38917.813            0   -38917.813    169.23821     4503.584 
Loop time of 10.5143 on 8 procs for 600 steps with 202 atoms

99.1% CPU use with 8 MPI tasks x no OpenMP threads

Minimization stats:
  Stopping criterion = energy tolerance
  Energy initial, next-to-last, final = 
        -38904.1226097     -38917.8122613     -38917.8126328
  Force two-norm initial, final = 2424.17 22.9717
  Force max component initial, final = 1403.75 11.0884
  Final line search alpha, max atom move = 1.86115e-05 0.000206371
  Iterations, force evaluations = 600 787

MPI task timing breakdown:
Section |  min time  |  avg time  |  max time  |%varavg| %total
---------------------------------------------------------------
Pair    | 9.6063     | 9.7309     | 9.8458     |   3.1 | 92.55
Neigh   | 0          | 0          | 0          |   0.0 |  0.00
Comm    | 0.057004   | 0.17147    | 0.29548    |  23.2 |  1.63
Output  | 0.0025534  | 0.0029741  | 0.0042274  |   0.9 |  0.03
Modify  | 0.57383    | 0.57427    | 0.57486    |   0.0 |  5.46
Other   |            | 0.03471    |            |       |  0.33

Nlocal:    25.25 ave 28 max 24 min
Histogram: 4 0 0 0 0 3 0 0 0 1
Nghost:    1538.75 ave 1584 max 1492 min
Histogram: 1 0 0 3 0 0 3 0 0 1
Neighs:    7964.12 ave 8736 max 7597 min
Histogram: 4 0 0 0 0 3 0 0 0 1

Total # of neighbors = 63713
Ave neighs/atom = 315.411
Neighbor list builds = 0
Dangerous builds = 0

unfix 1
###
min_style cg
minimize 1.0e-8 1.0e-8 100000 100000
WARNING: Using 'neigh_modify every 1 delay 0 check yes' setting during minimization (../min.cpp:190)
Per MPI rank memory allocation (min/avg/max) = 37.11 | 37.11 | 37.12 Mbytes
Step Temp E_pair E_mol TotEng Press 
    2047            0   -38917.813            0   -38917.813    169.24241 
    2066            0   -38918.069            0   -38918.069    4731.4351 
Loop time of 0.679578 on 8 procs for 19 steps with 202 atoms

99.1% CPU use with 8 MPI tasks x no OpenMP threads

Minimization stats:
  Stopping criterion = energy tolerance
  Energy initial, next-to-last, final = 
        -38917.8126287     -38918.0686591     -38918.0689303
  Force two-norm initial, final = 12.6871 1.21025
  Force max component initial, final = 1.10716 0.183853
  Final line search alpha, max atom move = 0.25351 0.0466085
  Iterations, force evaluations = 19 48

MPI task timing breakdown:
Section |  min time  |  avg time  |  max time  |%varavg| %total
---------------------------------------------------------------
Pair    | 0.582      | 0.58869    | 0.59798    |   0.6 | 86.63
Neigh   | 0          | 0          | 0          |   0.0 |  0.00
Comm    | 0.0030467  | 0.012347   | 0.019043   |   3.8 |  1.82
Output  | 8.9246e-05 | 0.00010419 | 0.00015048 |   0.0 |  0.02
Modify  | 0.077418   | 0.077449   | 0.07748    |   0.0 | 11.40
Other   |            | 0.0009842  |            |       |  0.14

Nlocal:    25.25 ave 28 max 24 min
Histogram: 4 0 0 0 0 3 0 0 0 1
Nghost:    1490.75 ave 1494 max 1488 min
Histogram: 2 0 0 2 0 0 3 0 0 1
Neighs:    7880.12 ave 8655 max 7504 min
Histogram: 4 0 0 0 0 3 0 0 0 1

Total # of neighbors = 63041
Ave neighs/atom = 312.084
Neighbor list builds = 0
Dangerous builds = 0

undump 1
#############
#----------- Thermo ------------
reset_timestep 0
thermo  200

thermo_style    custom step temp etotal ke pe press
velocity all create 300 12345 mom yes rot yes
fix 1 all npt temp 300 300 25.0 iso 0.0 0.0 250.0

variable vpe equal pe
variable vtemp equal temp
variable vstep equal step

fix output all print 2500 "${vstep} ${vtemp} ${vpe}" file temp-tpdh-Pt.dat screen no

dump 1 all custom 2500 thermo-tpdh-Pt.lammpstrj id type x y z

run 1000000
Per MPI rank memory allocation (min/avg/max) = 35.98 | 35.99 | 36 Mbytes
Step Temp TotEng KinEng PotEng Press 
       0          300   -38738.326    179.74285   -38918.069    6555.8629 
     200    201.69469    -38680.77    120.84392   -38801.614    6214.2188 
     400    293.56432   -38588.919    175.88696   -38764.806   -2210.6653 
     600      322.172   -38534.153    193.02704    -38727.18   -4822.1168 
     800    293.08255   -38561.586    175.59831   -38737.184   -9620.0078 
    1000    291.21559   -38584.861    174.47973   -38759.341   -5549.7126 
    1200    312.65082   -38550.346    187.32249   -38737.668   -5544.3749 
    1400    288.42893   -38556.505    172.81012   -38729.315   -11199.468 
    1600    318.55376    -38561.04     190.8592     -38751.9   -2927.3112 
    1800    313.41167   -38569.909    187.77835   -38757.687    7601.8475 
    2000    322.02014    -38534.89    192.93605   -38727.826     455.1106 
    2200    281.26297   -38560.889    168.51669   -38729.406   -1834.0585 
    2400    313.35462   -38556.979    187.74417   -38744.723    256.87442 
    2600    279.58481   -38579.006    167.51123   -38746.517    7129.9514 
    2800    313.69317   -38553.546    187.94701   -38741.493     1878.265 
    3000    320.46676   -38548.222    192.00536   -38740.228   -1616.1598 
    3200    275.02098   -38580.131    164.77685   -38744.908   -3028.8781 
    3400    290.90993   -38563.088     174.2966   -38737.384   -5996.5336 
    3600    321.83522    -38550.87    192.82526   -38743.695   -680.50029 
    3800    279.76036   -38569.431    167.61641   -38737.048   -1681.0846 
    4000    343.13727   -38540.099    205.58823   -38745.687   -1759.8345 
    4200    319.61646   -38543.962    191.49591   -38735.458   -1160.6175 
    4400    274.83536   -38567.958    164.66563   -38732.623   -3772.1965 
    4600    298.07513   -38551.203    178.58957   -38729.793   -3750.8518 
    4800    299.41457   -38540.344    179.39209   -38719.736     -2127.96 
    5000    302.43096   -38564.731    181.19934   -38745.931   -78.454144 
    5200    316.60614   -38557.248     189.6923    -38746.94   -2842.9188 
    5400     335.6354   -38527.647    201.09354    -38728.74   -9023.0901 
    5600    326.23884   -38565.059    195.46366   -38760.523    79.010923 
    5800    307.34618   -38563.306    184.14425    -38747.45    1230.1189 
    6000    333.30066   -38528.059     199.6947   -38727.754   -11269.082 
    6200    268.02248   -38550.876    160.58374    -38711.46   -8875.3451 
    6400    302.77889   -38565.391     181.4078   -38746.798   -8657.4956 
    6600    282.93358   -38576.272    169.51762    -38745.79    995.04564 
    6800    297.36752   -38560.122    178.16561   -38738.287   -1623.3648 
    7000    303.50259   -38553.017     181.8414   -38734.858   -4707.2019 
    7200    311.43509   -38533.935     186.5941    -38720.53    1041.5955 
    7400    275.39517   -38570.933    165.00104   -38735.934    9615.4963 
    7600     304.0947   -38555.896    182.19615   -38738.092    4797.5269 
    7800     318.3713   -38524.615    190.74988   -38715.364    2850.9904 
    8000    313.02242   -38554.234    187.54514   -38741.779   -2938.3694 
    8200    292.95634   -38554.998    175.52269    -38730.52    -3966.879 
    8400    300.76498   -38550.173    180.20118   -38730.374    5647.6215 
    8600    273.12239   -38581.848    163.63932   -38745.487   -4167.6094 
    8800    301.44432   -38551.693     180.6082   -38732.301    1325.9704 
    9000    285.99964   -38556.983    171.35463   -38728.338   -3245.5674 
    9200    304.24073   -38548.301    182.28365   -38730.585    837.51536 
    9400    299.73458   -38551.059    179.58382   -38730.643   -1809.1957 
    9600    291.77225   -38576.275    174.81325   -38751.088    1043.8913 
    9800    303.53926   -38568.118    181.86337   -38749.981   -434.95327 
   10000     312.5949   -38542.029    187.28899   -38729.318   -3624.5047 
   10200    290.69574   -38570.534    174.16827   -38744.702    6301.2545 
   10400    306.43381   -38567.005    183.59762   -38750.603    11479.836 
   10600    326.58453   -38522.372    195.67078   -38718.043     6177.962 
   10800     308.7362   -38541.155    184.97708   -38726.132   -7906.1127 
   11000    284.21584   -38570.404    170.28588    -38740.69    4456.1766 
   11200    283.30362   -38552.508    169.73933   -38722.247    8777.6211 
   11400    320.85934   -38544.765    192.24057   -38737.006    7313.2324 
   11600    282.73511   -38568.131    169.39871    -38737.53   -2233.5478 
   11800    301.62912   -38558.687    180.71892   -38739.406   -1753.9863 
   12000    329.90261    -38519.59    197.65878   -38717.248   -2524.7478 
   12200    306.78475   -38556.731    183.80788   -38740.538   -124.04172 
   12400    320.83555   -38566.745    192.22631   -38758.971   -4388.0946 
   12600    299.33674   -38562.929    179.34546   -38742.274   -7107.0554 
   12800    308.20281   -38540.546     184.6575   -38725.204     176.3987 
   13000    290.87919   -38570.526    174.27818   -38744.805     3310.548 
   13200    291.73657   -38565.952    174.79187   -38740.744    5023.6489 
   13400    318.89251   -38528.379    191.06216   -38719.441    10232.172 
   13600     313.5378   -38557.307    187.85392   -38745.161    16731.985 
   13800    295.36389   -38558.323    176.96515   -38735.288    4082.4483 
   14000    323.57456   -38519.528    193.86737   -38713.395    7149.4737 
   14200    303.75703   -38551.766    181.99384    -38733.76    11343.185 
   14400    315.63223   -38567.752    189.10878   -38756.861    2700.2343 
   14600     319.9049   -38545.793    191.66872   -38737.461    -7195.665 
   14800    302.90869   -38544.889    181.48557   -38726.375   -10938.675 
   15000     298.7816   -38571.706    179.01285   -38750.719    -1876.304 
   15200    290.13333   -38551.375     173.8313   -38725.206   -5385.1164 
   15400    299.09206   -38554.333    179.19886   -38733.532   -15864.354 
   15600    277.00223   -38576.305     165.9639   -38742.269   -8493.4882 
   15800    338.49416   -38546.496    202.80635   -38749.302    11244.654 
   16000    304.18147   -38559.394    182.24815   -38741.642     11654.37 
   16200    293.78037    -38566.32     176.0164   -38742.336     3005.983 
   16400    325.96393   -38539.602    195.29895   -38734.901   -15649.475 
   16600    308.41358   -38561.644    184.78378   -38746.428    3999.9738 
   16800    284.74668   -38575.081    170.60393   -38745.685     9098.893 
   17000    282.47642   -38563.812    169.24372   -38733.056   -7214.6764 
   17200    293.33139   -38561.102     175.7474    -38736.85    4096.8339 
   17400    289.34063   -38562.653    173.35636    -38736.01    6407.0759 
   17600    316.28171   -38551.567    189.49792   -38741.065    9971.7501 
   17800    302.56361   -38540.384    181.27881   -38721.663    1711.8308 
   18000    284.37309   -38577.017     170.3801   -38747.397   -3151.9943 
   18200    305.18537   -38551.533    182.84963   -38734.383   -1831.5999 
   18400    295.00283   -38544.914    176.74882   -38721.663    7245.2744 
   18600    286.27846   -38556.337    171.52168   -38727.858    1283.9541 
   18800    293.81126    -38576.15    176.03491   -38752.184   -598.23557 
   19000    295.17322   -38552.088    176.85092   -38728.939    4903.0693 
   19200    302.56005   -38540.343    181.27668    -38721.62   -6105.6147 
   19400    294.72674   -38570.571    176.58341   -38747.154   -5239.1649 
   19600    296.91648   -38551.196    177.89538   -38729.091    11155.181 
   19800    311.25262   -38553.131    186.48477   -38739.616    6889.0258 
   20000    285.04986   -38573.015    170.78558   -38743.801   -10878.794 
   20200    323.12264   -38545.107    193.59661   -38738.704   -14713.174 
   20400    293.97293   -38557.737    176.13177   -38733.868   -9649.2912 
   20600     294.7105   -38575.918    176.57368   -38752.491    5379.0485 
   20800    319.79777   -38545.481    191.60454   -38737.085    8766.4143 
   21000    305.94538   -38558.905    183.30497    -38742.21   -868.17088 
   21200     285.4545   -38561.555    171.02801   -38732.583    -1240.312 
   21400    316.09426   -38547.257    189.38561   -38736.643    1263.9518 
   21600    286.34679   -38580.141    171.56262   -38751.704    3415.0974 
   21800    325.41327   -38555.392    194.96902   -38750.361   -2472.4862 
   22000    299.43318    -38553.02    179.40324   -38732.423      3319.45 
   22200    277.73756   -38579.616    166.40446   -38746.021   -4132.9749 
   22400    305.61933   -38574.107    183.10963   -38757.217   -4757.7528 
   22600    304.36492   -38559.586    182.35806   -38741.944     117.8226 
   22800    296.31415   -38553.249    177.53449   -38730.783   -1137.6033 
   23000    270.04321   -38578.621    161.79445   -38740.416   -5789.1392 
   23200    316.96934   -38552.349     189.9099   -38742.259   -1874.9913 
   23400    326.02898   -38550.468    195.33792   -38745.806   -9833.6698 
   23600     298.0396   -38572.861    178.56829   -38751.429   -9250.1674 
   23800    289.57183   -38564.148    173.49488   -38737.643   -4732.8596 
   24000    297.73266    -38552.88    178.38438   -38731.265   -1455.2036 
   24200    330.32699   -38533.177    197.91305    -38731.09   -5041.1442 
   24400    324.70781   -38566.811    194.54635   -38761.358   -9637.1516 
   24600    305.75324   -38559.036    183.18986   -38742.226    6820.0642 
   24800    336.44672    -38526.74    201.57964   -38728.319    10810.235 
   25000    283.33533   -38569.977    169.75833   -38739.735   -7845.0746 
   25200    294.10554   -38554.613    176.21122   -38730.824   -8654.2507 
   25400    313.42573    -38555.29    187.78678   -38743.077    -11173.22 
   25600     263.5508   -38572.109    157.90457   -38730.013   -1931.6006 
   25800    297.56371   -38549.482    178.28316   -38727.766   -3186.9302 
   26000    338.15826   -38515.675    202.60509   -38718.281   -8295.6113 
   26200    312.36779    -38553.69    187.15292   -38740.843   -6745.1646 
   26400    314.76963   -38567.845    188.59197   -38756.437    2747.8259 
   26600     323.7542   -38532.107      193.975   -38726.082     8904.474 
   26800    319.20502   -38549.054     191.2494   -38740.303   -1602.5266 
   27000    262.23964   -38567.641      157.119    -38724.76    8863.0222 
   27200     318.4472   -38549.342    190.79535   -38740.138    4330.2239 
   27400    313.38422   -38544.702    187.76191   -38732.464    362.81203 
   27600    296.68735   -38569.722     177.7581   -38747.481    3953.8775 
   27800    349.27235   -38538.594    209.26402   -38747.858   -4184.3696 
   28000    304.80602   -38549.088    182.62234    -38731.71   -10062.646 
   28200    277.06404   -38570.961    166.00093   -38736.962   -568.05785 
   28400    328.43253   -38543.853    196.77799   -38740.631   -2735.9804 
   28600    281.02193   -38574.546    168.37227   -38742.918    7450.4556 
   28800    305.76976   -38572.029    183.19976   -38755.229     -8953.27 
   29000    328.69897   -38552.936    196.93763   -38749.874   -8979.9085 
   29200    267.61653   -38579.877    160.34052   -38740.217   -4861.6373 
   29400    292.26826   -38575.969    175.11043    -38751.08    6867.4743 
   29600     288.8074   -38550.932    173.03688   -38723.969    5597.5592 
   29800    295.43009   -38553.273    177.00482   -38730.278   -5179.4772 
   30000    288.79633   -38580.143    173.03025   -38753.173    3705.9592 
   30200    324.75936   -38544.171    194.57724   -38738.748    8244.2062 
   30400    307.66427   -38544.778    184.33484   -38729.112    8973.2176 
   30600    276.15079    -38579.69    165.45376   -38745.144   -4700.5258 
   30800    301.02044   -38565.061    180.35424   -38745.415   -6901.3135 
   31000    281.85523   -38559.302    168.87154   -38728.174   -1274.2258 
   31200     306.0965   -38539.175    183.39552   -38722.571    8718.2212 
   31400    302.77712   -38555.562    181.40674   -38736.969    3839.3971 
   31600    281.59888   -38558.039    168.71794   -38726.757   -7221.4724 
   31800     297.4164   -38556.209     178.1949   -38734.404   -186.46059 
   32000    299.75797   -38589.337    179.59784   -38768.935    8307.4977 
   32200    316.72228   -38567.409    189.76188   -38757.171    6960.9328 
   32400    334.37279   -38546.369    200.33706   -38746.706    5366.2581 
   32600    310.16826   -38574.678    185.83508   -38760.513    11137.939 
   32800     297.5175   -38570.155    178.25548    -38748.41    6363.7841 
   33000    302.65171   -38557.064     181.3316   -38738.395   -2431.4715 
   33200    276.01439   -38567.814    165.37204   -38733.186    -3820.455 
   33400    301.79003   -38569.076    180.81533   -38749.892   -6290.3962 
   33600    317.88961   -38540.896    190.46128   -38731.357    -3696.899 
   33800    299.37522   -38577.697    179.36852   -38757.066   -290.89202 
   34000    292.43271   -38558.992    175.20896   -38734.201   -3223.3844 
   34200    334.59303   -38535.661    200.46901    -38736.13     3180.902 
   34400    282.20965   -38572.674    169.08388   -38741.757    2913.7132 
   34600    314.54385   -38559.343    188.45669     -38747.8   -1469.6795 
   34800     305.7913   -38547.476    183.21266   -38730.689    696.65301 
   35000    298.50347   -38564.755    178.84621   -38743.601    6262.5728 
   35200    296.65299   -38553.429    177.73751   -38731.167    3543.9706 
   35400    294.83698   -38549.769    176.64946   -38726.418   -1302.8246 
   35600    287.25403   -38574.534    172.10619    -38746.64   -788.36635 
   35800    295.88609   -38561.022    177.27803     -38738.3    243.60009 
   36000    302.80566   -38545.821    181.42384   -38727.245    1235.5223 
   36200    290.46324   -38565.781    174.02896    -38739.81    7834.7201 
   36400    270.60919   -38561.665    162.13355   -38723.799    8440.1844 
   36600    318.14923    -38550.24    190.61683   -38740.857    13136.182 
   36800    283.46665   -38575.086    169.83701   -38744.923      4768.85 
   37000    279.95071   -38572.517    167.73046   -38740.248     -5453.63 
   37200    337.00472   -38538.332    201.91396   -38740.246   -10537.554 
   37400    313.52819   -38561.105    187.84816   -38748.953    397.36508 
   37600    262.87572   -38599.317     157.5001   -38756.818    4177.3263 
   37800    277.70298   -38586.825    166.38375   -38753.209   -8618.5385 
   38000    281.98583   -38555.114    168.94979   -38724.063   -9366.5329 
   38200    320.60118   -38548.679    192.08589   -38740.764   -214.75376 
   38400    282.61462   -38581.913    169.32652    -38751.24    7303.8111 
   38600    287.89355   -38568.411    172.48935     -38740.9   -1654.9586 
   38800    299.45106   -38555.041    179.41395   -38734.455   -10055.865 
   39000    318.57927   -38547.504    190.87448   -38738.378   -1630.9517 
   39200    297.92585   -38558.784    178.50013   -38737.284    4489.1507 
   39400    294.16023   -38570.328    176.24399   -38746.572   -1627.0884 
   39600    311.88207   -38534.712     186.8619   -38721.574   -727.80386 
   39800    299.52884   -38562.347    179.46055   -38741.807    8431.0834 
   40000    312.44103   -38553.044     187.1968    -38740.24    8512.9456 
   40200    333.20126   -38522.295    199.63514    -38721.93   -11704.925 
   40400    296.97153   -38564.443    177.92836   -38742.372   -8831.2011 
   40600    308.35251   -38570.209    184.74719   -38754.956    4337.0753 
   40800    330.22606   -38536.686    197.85257   -38734.539    12880.974 
   41000    304.86494   -38553.721    182.65764   -38736.379    7920.7014 
   41200     283.4858   -38564.672    169.84848   -38734.521     3416.674 
   41400    300.84558   -38560.272    180.24947   -38740.521    1782.2726 
   41600    306.83785   -38555.743    183.83969   -38739.583     5511.941 
   41800     307.5276   -38536.782    184.25296   -38721.035    1534.3858 
   42000    296.80737   -38571.134       177.83   -38748.964   -2562.6974 
   42200    330.34671   -38549.366    197.92486    -38747.29    2527.2022 
   42400    311.04481   -38555.079    186.36027   -38741.439   -8046.8394 
   42600    289.82234   -38565.352    173.64498   -38738.997   -13451.308 
   42800     269.3591   -38554.647    161.38457   -38716.032   -6083.0838 
   43000    297.97562   -38543.028    178.52995   -38721.558   -4784.1282 
   43200    284.21488   -38576.984     170.2853   -38747.269   -3599.7922 
   43400    311.76372    -38552.95      186.791   -38739.741    -9808.665 
   43600    302.27229   -38551.674    181.10427   -38732.778    434.95368 
   43800    290.55207   -38583.111    174.08218   -38757.193    13146.417 
   44000    314.72549   -38547.896    188.56552   -38736.461    2058.9752 
   44200    297.66994   -38550.918    178.34681   -38729.265   -8894.5028 
   44400    302.54082   -38582.592    181.26516   -38763.857   -4717.7663 
   44600    320.94077   -38550.538    192.28936   -38742.827    214.21061 
   44800    300.73044     -38552.9    180.18048    -38733.08    7459.2305 
   45000    269.31698    -38568.65    161.35934   -38730.009    2602.9132 
   45200    284.08374    -38576.91    170.20674   -38747.117   -9267.5669 
   45400     288.6955   -38551.651    172.96984    -38724.62   -7888.2795 
   45600    281.36354   -38564.109    168.57695   -38732.686   -5498.1967 
   45800    279.74983   -38594.593     167.6101   -38762.203   -2325.7494 
   46000    320.95811   -38563.009    192.29974   -38755.309    1084.7062 
   46200    310.61752   -38546.845    186.10426   -38732.949    4068.3307 
   46400    286.53555   -38576.319    171.67572   -38747.994    11738.908 
   46600    313.11052   -38554.801    187.59792   -38742.398    113.77754 
   46800    304.76323   -38543.642     182.5967   -38726.239    2890.7008 
   47000     278.4251    -38576.39     166.8164   -38743.206    10323.373 
   47200    302.21475   -38563.598     181.0698   -38744.668    610.52932 
   47400    308.78401   -38552.143    185.00572   -38737.149   -1534.0681 
   47600    310.68034   -38544.796    186.14189   -38730.938   -69.571744 
   47800    290.78937   -38576.809    174.22436   -38751.034   -5844.5774 
   48000    317.09928   -38551.613    189.98776   -38741.601   -7519.3141 
   48200    305.54816   -38550.264    183.06698   -38733.331   -8609.0363 
   48400    323.35182     -38557.3    193.73392   -38751.034    2703.2563 
   48600    314.86563   -38553.601    188.64948   -38742.251   -1903.3569 
   48800     343.4901    -38549.89    205.79963   -38755.689    963.65281 
   49000    299.56927   -38568.488    179.48478   -38747.973   -5350.3004 
   49200    321.34759   -38548.449     192.5331   -38740.982   -2469.6417 
   49400    299.79173    -38549.07    179.61806   -38728.689    4703.0988 
   49600    266.44969   -38580.873    159.64142   -38740.514   -2502.3355 
   49800    300.76099    -38563.04    180.19879   -38743.239   -5713.3931 
   50000    294.68639   -38557.278    176.55923   -38733.837    4222.6082 
   50200    296.47072   -38566.305     177.6283   -38743.933    8811.6773 
   50400    294.78789   -38560.705    176.62005   -38737.325    3733.1698 
   50600     310.4601   -38538.636    186.00994   -38724.646   -15306.639 
   50800    298.39326   -38580.464    178.78018   -38759.244    109.95528 
   51000    288.85081   -38561.167    173.06289    -38734.23    5730.3252 
   51200    296.20433   -38551.067    177.46869   -38728.536   -3649.7936 
   51400    293.06372   -38558.823    175.58702    -38734.41   -9085.9318 
   51600    300.17963   -38560.593    179.85047   -38740.444     3218.383 
   51800    292.63375    -38557.52    175.32941   -38732.849    12627.413 
   52000    281.69952   -38583.793    168.77825   -38752.571    9777.2254 
   52200    306.08589   -38546.081    183.38916    -38729.47    679.95927 
   52400    302.04096   -38566.955    180.96567    -38747.92    795.69429 
   52600    287.71251   -38557.607    172.38088   -38729.988    1676.9025 
   52800    341.29477   -38537.564    204.48431   -38742.049    3632.9311 
   53000     293.4981   -38563.383    175.84728    -38739.23    7346.1712 
   53200    322.89971   -38547.105    193.46304   -38740.568   -4350.6577 
   53400     335.4669   -38542.497    200.99259    -38743.49    5560.0231 
   53600    292.10568   -38568.396    175.01302   -38743.409    5775.3691 
   53800    319.39567   -38547.341    191.36362   -38738.704   -1863.0987 
   54000    319.81096    -38534.99    191.61244   -38726.602    7131.0256 
   54200    290.02506   -38566.812    173.76643   -38740.579   -6792.0472 
   54400    291.52494    -38550.36    174.66508   -38725.025   -8881.0136 
   54600     303.2169   -38537.609    181.67023   -38719.279   -9312.6322 
   54800    292.77089   -38564.786    175.41158   -38740.198    -4260.013 
   55000    294.23753   -38546.274    176.29031   -38722.565   -9533.6238 
   55200    306.59381   -38545.659    183.69348   -38729.352     -10804.5 
   55400    290.58674   -38575.721    174.10296   -38749.824   -3082.7067 
   55600    296.84628   -38548.175    177.85332   -38726.028   -1561.1686 
   55800    311.16195   -38540.353    186.43045   -38726.784   -4510.9725 
   56000    293.23861   -38559.113    175.69181   -38734.805   -1297.0569 
   56200     247.4506   -38584.124    148.25825   -38732.382    1720.7171 
   56400      318.218   -38572.325    190.65803   -38762.983    4379.1416 
   56600    297.79843   -38545.552    178.42379   -38723.976     495.8115 
   56800      294.315   -38573.345    176.33672   -38749.682   -5083.2993 
   57000     300.0739   -38551.277    179.78712   -38731.064    3099.7092 
   57200    332.29906   -38533.205    199.09459   -38732.299    7146.9776 
   57400    291.59215    -38566.35    174.70534   -38741.056    10980.776 
   57600    302.28906   -38558.519    181.11432   -38739.634   -391.43528 
   57800    320.13296   -38533.676    191.80537   -38725.481   -4681.6677 
   58000    276.11274   -38574.092    165.43097   -38739.523   -3017.3907 
   58200    325.14641    -38559.12    194.80914   -38753.929   -13992.799 
   58400    313.89222   -38532.367    188.06627   -38720.433    10690.861 
   58600    298.71956   -38545.947    178.97568   -38724.922    2945.4082 
   58800    302.48863   -38566.914    181.23389   -38748.148    -1865.381 
   59000    316.88083   -38554.504    189.85688   -38744.361    11510.458 
   59200     297.9253   -38553.554    178.49981   -38732.054    4396.8034 
   59400    273.92354   -38569.354    164.11932   -38733.473   -5417.3531 
   59600    340.76991   -38530.307    204.16984   -38734.477    8.3941354 
   59800    319.22545   -38557.097    191.26164   -38748.358    1348.8482 
   60000    297.73483   -38568.985    178.38568   -38747.371   -6270.9135 
   60200    311.54414   -38558.964    186.65943   -38745.624   -466.30389 
   60400    284.74517   -38560.058    170.60303   -38730.661     5286.912 
   60600    311.15275    -38532.07    186.42493   -38718.495    602.29611 
   60800    299.84015   -38552.911    179.64707   -38732.558   -9165.4023 
   61000    292.63439   -38563.229    175.32979   -38738.559   -1941.0881 
   61200    330.25393     -38540.9    197.86927   -38738.769    1426.8569 
   61400     270.9441   -38571.567    162.33421   -38733.901    2329.7145 
   61600    318.63687   -38546.773    190.90899   -38737.682    3850.9619 
   61800    337.30035   -38528.615    202.09109   -38730.706    3348.3385 
   62000    289.37876   -38578.622    173.37921   -38752.001   -8903.9935 
   62200    287.01451   -38551.415    171.96268   -38723.378   -10335.933 
   62400    321.10055   -38555.215    192.38509     -38747.6   -11823.816 
   62600    287.34922   -38565.172    172.16322   -38737.335    -6437.638 
   62800    315.58369   -38552.285     189.0797   -38741.365   -9454.5439 
   63000    300.20096    -38572.27    179.86325   -38752.133   -6808.6047 
   63200    306.59366   -38571.151    183.69339   -38754.844   -3481.8102 
   63400    346.51212   -38536.848    207.61025   -38744.459   -7468.2724 
   63600     306.5654   -38558.208    183.67646   -38741.885    635.60404 
   63800    308.94521   -38564.044     185.1023   -38749.146   -16.629666 
   64000    316.81224    -38558.54    189.81578   -38748.355   -7455.6143 
   64200    298.69083   -38551.387    178.95847   -38730.345    1373.7401 
   64400      299.349   -38537.428     179.3528   -38716.781    8242.0332 
   64600    305.70726   -38559.119    183.16231   -38742.281    884.29154 
   64800    286.87773   -38566.334    171.88073   -38738.215    18313.273 
   65000    314.17364    -38550.34    188.23488   -38738.575     16948.42 
   65200    353.28485   -38536.251    211.66808   -38747.919    5559.8014 
   65400    302.61875    -38570.13    181.31185   -38751.442    3364.0638 
   65600    321.37194   -38551.015    192.54769   -38743.563    8768.5394 
   65800    348.11114   -38512.605    208.56829   -38721.173   -360.38564 
   66000    273.23423   -38558.888    163.70632   -38722.594   -12687.436 
   66200    275.09164   -38572.591    164.81918   -38737.411   -5297.7517 
   66400    330.04541   -38542.491    197.74434   -38740.236   -8858.6178 
   66600    292.47349   -38556.014    175.23339   -38731.247   -10781.714 
   66800    275.81382   -38575.578    165.25187    -38740.83   -12462.523 
   67000    295.92948   -38557.935    177.30402   -38735.239   -1783.3308 
   67200    289.90496   -38556.897    173.69447   -38730.591   -6404.4476 
   67400    276.66318   -38571.574    165.76076   -38737.334   -7070.1295 
   67600    286.98551   -38564.671    171.94531   -38736.616   -13788.958 
   67800    323.45862   -38537.474    193.79791   -38731.272   -14583.845 
   68000    301.11837   -38559.562    180.41291   -38739.975    149.60483 
   68200    294.91758    -38557.62    176.69775   -38734.318    3647.2394 
   68400     303.2889   -38564.542    181.71336   -38746.255    2789.5651 
   68600    294.34195   -38573.789    176.35287   -38750.142    5490.3904 
   68800    315.57989   -38543.272    189.07742   -38732.349    7079.8686 
   69000     328.1731   -38553.962    196.62256   -38750.584    1521.9553 
   69200    308.17427   -38560.289     184.6404   -38744.929    -378.6405 
   69400     304.0948   -38559.296    182.19622   -38741.492    2417.7631 
   69600    299.66816   -38570.099    179.54402   -38749.643   -1990.8292 
   69800    304.89412   -38548.431    182.67513   -38731.106   -8639.5238 
   70000    289.65429   -38550.315    173.54429   -38723.859   -7120.9139 
   70200    313.63944   -38564.512    187.91482   -38752.427   -7321.0021 
   70400     311.2887   -38563.629    186.50639   -38750.135   -4747.6963 
   70600    324.33038   -38539.622    194.32022   -38733.943    125.64225 
   70800      298.835     -38566.5    179.04484   -38745.545    291.18193 
   71000    282.84616   -38577.453    169.46525   -38746.919    11704.444 
   71200    317.60857   -38552.739    190.29289   -38743.032    7868.3492 
   71400    296.47147   -38558.432    177.62875   -38736.061    16055.172 
   71600    272.12262   -38588.431    163.04032   -38751.471    8396.7728 
   71800    275.84302   -38553.454    165.26936   -38718.724    3178.1514 
   72000    317.49705   -38557.327    190.22608   -38747.553   -67.044245 
   72200    301.74197   -38579.988    180.78653   -38760.775   -6696.4415 
   72400    307.14779   -38538.484    184.02539   -38722.509   -2682.4566 
   72600    301.66609   -38560.144    180.74107   -38740.885   -7359.0725 
   72800    286.10158   -38575.674    171.41571    -38747.09   -4214.7746 
   73000    307.17516    -38542.05    184.04179   -38726.092   -10003.137 
   73200    324.13685   -38562.121    194.20426   -38756.325   -3721.5647 
   73400     299.7871   -38566.354    179.61529    -38745.97    5613.6383 
   73600    340.38475   -38526.402    203.93908   -38730.341    7700.8936 
   73800    286.19664    -38569.22    171.47266   -38740.692   -5582.2486 
   74000    294.11088   -38561.394    176.21442   -38737.608   -7154.2444 
   74200    302.33247   -38560.223    181.14033   -38741.363    -324.1554 
   74400     265.3131   -38581.649    158.96044   -38740.609    247.04505 
   74600     294.5785    -38548.97    176.49459   -38725.465   -9381.1193 
   74800    286.59183   -38561.509    171.70943   -38733.218   -18273.506 
   75000    254.31353   -38599.741    152.37012   -38752.111   -12046.635 
   75200    305.27943    -38560.26    182.90598   -38743.166    10510.664 
   75400    322.80286   -38546.502    193.40502   -38739.907    8821.8676 
   75600    282.48161   -38568.559    169.24683   -38737.805     12338.55 
   75800    301.36443   -38567.071    180.56033   -38747.632    1578.0344 
   76000    296.30813   -38544.032    177.53089   -38721.563   -9078.6984 
   76200    258.75989   -38582.364    155.03413   -38737.398   -3336.7399 
   76400    296.35144   -38566.124    177.55684   -38743.681    1165.3652 
   76600    308.31269   -38545.683    184.72334   -38730.407   -447.05541 
   76800    301.92011   -38573.563    180.89326   -38754.456    -7254.232 
   77000    291.69499     -38570.2    174.76696   -38744.967    5653.5049 
   77200    297.20438   -38549.408    178.06787   -38727.476    4089.2089 
   77400    306.46342    -38533.56    183.61536   -38717.176   -8571.1135 
   77600     275.6796   -38572.967    165.17145   -38738.139   -15188.469 
   77800    297.22006   -38552.545    178.07726   -38730.622   -13457.881 
   78000    285.91784   -38528.621    171.30562   -38699.926   -2783.2948 
   78200     287.0134   -38560.401    171.96202   -38732.363    577.04791 
   78400    293.87342    -38573.13    176.07215   -38749.202   -1835.8805 
   78600    327.40889   -38536.925    196.16469    -38733.09     5909.078 
   78800    291.48264   -38553.685    174.63973   -38728.325    11930.714 
   79000    292.88128   -38565.376    175.47771   -38740.853     5276.438 
   79200    281.99497   -38555.385    168.95526   -38724.341     6048.512 
   79400    338.20081   -38537.784    202.63059   -38740.415    171.42832 
   79600    288.04994   -38567.918    172.58305   -38740.501   -5112.8876 
   79800    308.54501    -38551.49    184.86253   -38736.353    2315.2895 
   80000    328.04713   -38538.574    196.54708   -38735.121    2534.2846 
   80200    280.34513   -38574.385    167.96677   -38742.352    2667.6326 
   80400     303.0747    -38544.85    181.58503   -38726.435    -1798.776 
   80600    303.85209   -38555.644     182.0508   -38737.695    -13508.46 
   80800    293.58651   -38563.353    175.90025   -38739.254   -4547.8232 
   81000    307.57976   -38531.978    184.28421   -38716.262    320.00065 
   81200     305.6672   -38548.641    183.13831   -38731.779   -15643.193 
   81400    299.16712   -38564.307    179.24383   -38743.551   -14914.747 
   81600    323.92334    -38546.35    194.07634   -38740.426   -12976.354 
   81800    303.57543   -38527.993    181.88504   -38709.878   -163.49534 
   82000    271.37162    -38564.48    162.59036   -38727.071    335.97057 
   82200    337.50979   -38544.778    202.21657   -38746.994    5642.1674 
   82400     291.0148   -38563.991    174.35943    -38738.35    1943.2699 
   82600    285.83897    -38578.46    171.25836   -38749.718    1650.8371 
   82800    273.62238   -38554.377    163.93888   -38718.316    -9469.444 
   83000    327.48615   -38555.436    196.21098   -38751.647    2170.1928 
   83200     301.0265   -38576.275    180.35787   -38756.633   -223.46496 
   83400    300.46585   -38585.739    180.02196   -38765.761   -6502.0009 
   83600    308.09507   -38556.306    184.59295   -38740.899    2707.9964 
   83800    308.84319   -38556.834    185.04118   -38741.875    4214.2449 
   84000    283.88283   -38581.525    170.08636   -38751.612    6537.7467 
   84200     299.5152   -38550.873    179.45238   -38730.326    7716.3852 
   84400     290.8327   -38558.219    174.25032    -38732.47    4166.1533 
   84600    290.80517    -38567.53    174.23383   -38741.764   -2785.2494 
   84800    315.51565    -38532.96    189.03894   -38721.999    749.98471 
   85000    303.88095   -38557.227    182.06809   -38739.295    3960.7679 
   85200    279.52247   -38568.732    167.47388   -38736.206    4390.9675 
   85400    296.33854   -38535.096    177.54911   -38712.645   -4873.9196 
   85600      297.226   -38567.989    178.08082   -38746.069    -6606.518 
   85800    288.69813   -38560.422    172.97141   -38733.393   -6178.2855 
   86000    337.51861   -38531.822    202.22185   -38734.043    -5281.082 
   86200    314.15902   -38566.114    188.22612    -38754.34    1881.7666 
   86400    303.40461   -38560.596     181.7827   -38742.379   -5663.0112 
   86600    330.33376   -38532.751     197.9171   -38730.668     -2305.17 
   86800    300.07094   -38563.879    179.78535   -38743.664   -2030.1879 
   87000    272.45393   -38571.609    163.23882   -38734.848    3591.9441 
   87200    303.71267   -38540.269    181.96727   -38722.236    10979.282 
   87400    305.73105   -38554.061    183.17657   -38737.238    4103.0721 
   87600    300.19542   -38560.226    179.85993   -38740.086    514.20956 
   87800    338.45386   -38535.787     202.7822   -38738.569   -10537.733 
   88000    295.64323   -38562.708    177.13252   -38739.841    6151.2041 
   88200    311.67494   -38570.691     186.7378   -38757.428   -3902.0377 
   88400    320.18287   -38533.616    191.83527   -38725.451   -13807.454 
   88600    298.88889   -38557.548    179.07713   -38736.625   -8849.9834 
   88800    296.67285   -38563.339    177.74941   -38741.088    6197.9061 
   89000    333.89757   -38531.101    200.05233   -38731.154    7391.9052 
   89200    290.10748   -38562.132    173.81581   -38735.947    3467.4483 
   89400    315.12522   -38555.226    188.80501   -38744.031   -5575.1989 
   89600    313.60558   -38548.148    187.89453   -38736.043   -10405.599 
   89800    281.01346   -38573.289     168.3672   -38741.657   -10946.934 
   90000     295.9077   -38539.237    177.29097   -38716.528   -7041.2095 
   90200    294.89312   -38540.367    176.68309    -38717.05   -8029.5402 
   90400    283.72268   -38554.966    169.99041   -38724.957    -9022.427 
   90600    270.25755   -38563.437    161.92287    -38725.36   -857.71709 
   90800    281.89279   -38581.554    168.89404   -38750.448   -1425.6562 
   91000    289.70053    -38549.67    173.57199   -38723.242    6712.8539 
   91200    292.02161   -38554.015    174.96265   -38728.977    10637.971 
   91400    279.68528   -38582.549    167.57143   -38750.121    5044.1783 
   91600    298.38789    -38553.18    178.77696   -38731.957    3601.6311 
   91800    294.71559   -38557.377    176.57673   -38733.954    2823.9344 
   92000    292.23568   -38564.882    175.09091   -38739.973    8374.6789 
   92200    275.63626   -38565.496    165.14549   -38730.641    6980.3304 
   92400    298.22326   -38537.072    178.67832    -38715.75    -4671.303 
   92600    271.00133   -38577.015     162.3685   -38739.383   -12521.712 
   92800    304.31668   -38563.687    182.32915   -38746.016   -3036.5461 
   93000    296.72436   -38550.923    177.78027   -38728.703   -8511.3286 
   93200    286.54737   -38590.411     171.6828   -38762.094   -9469.3071 
   93400     281.4265   -38571.355    168.61467    -38739.97    -1627.082 
   93600    293.50675   -38553.322    175.85246   -38729.174    4476.3629 
   93800    286.91522   -38574.968     171.9032   -38746.871     6098.313 
   94000    304.13155   -38573.666    182.21823   -38755.884   -977.66892 
   94200     311.1342   -38553.892    186.41382   -38740.306   -2193.0292 
   94400    307.47025   -38562.053    184.21859   -38746.271    2231.0324 
   94600    287.68132   -38583.968     172.3622    -38756.33   -3032.8243 
   94800    317.42491   -38549.304    190.18286   -38739.487   -9742.9912 
   95000    284.68839   -38561.201    170.56901    -38731.77   -5438.8344 
   95200    261.49279   -38586.889    156.67153   -38743.561     4059.406 
   95400    334.61218   -38544.613    200.48049   -38745.093    3874.1795 
   95600    303.06275   -38562.005    181.57787   -38743.583    324.66605 
   95800    268.67319   -38585.281    160.97361   -38746.254    13148.222 
   96000    318.10634   -38554.745    190.59113   -38745.337   -4817.5583 
   96200    292.19937   -38557.227    175.06915   -38732.296   -12507.158 
   96400     306.3053   -38578.073    183.52062   -38761.594   -3256.7143 
   96600     279.7071   -38582.772     167.5845   -38750.357    5032.7952 
   96800    306.86754   -38553.521    183.85748   -38737.378   -5838.2462 
   97000    305.08959   -38548.932    182.79224   -38731.724   -5588.5171 
   97200    300.95212   -38579.154     180.3133   -38759.467    2928.8274 
   97400    329.95379   -38546.922    197.68944   -38744.611    13935.885 
   97600    308.80377   -38557.985    185.01756   -38743.002   -200.68191 
   97800    283.02048    -38568.43    169.56969       -38738    2570.7486 
   98000    289.22396   -38562.094    173.28646   -38735.381   -2987.3585 
   98200    305.43451   -38543.807    182.99889   -38726.806    6115.1039 
   98400    288.37777   -38585.517    172.77947   -38758.297      2717.89 
   98600    286.12117   -38563.525    171.42745   -38734.953    1161.3546 
   98800    292.92045   -38547.402    175.50118   -38722.903    4059.8046 
   99000    321.14484   -38563.052    192.41163   -38755.464   -574.79177 
   99200    248.06764   -38607.538    148.62795   -38756.166    2458.9326 
   99400    269.23195   -38582.006    161.30839   -38743.314    2404.1737 
   99600    319.16987   -38552.696    191.22833   -38743.925   -5441.5738 
   99800    300.37242   -38543.374    179.96598    -38723.34   -4056.9682 
  100000    291.10137   -38568.639     174.4113   -38743.051   -9699.1748 
  100200    279.40064   -38574.629    167.40089    -38742.03   -13557.968 
  100400    304.47846   -38538.317    182.42608   -38720.743   -15482.673 
  100600    280.81504   -38568.997    168.24831   -38737.246   -6524.7705 
  100800    284.74823   -38564.909    170.60486   -38735.514   -5096.1217 
  101000    334.61175   -38535.658    200.48023   -38736.138    2708.0534 
  101200    298.43957   -38563.247    178.80793   -38742.055    1285.8582 
  101400     295.1272   -38569.174    176.82334   -38745.997    2395.2269 
  101600    330.10584   -38543.318    197.78055   -38741.099    4828.3133 
  101800    303.24816   -38557.989    181.68896   -38739.678     5244.608 
  102000    294.11347   -38572.149    176.21597   -38748.365    5721.4879 
  102200     304.0468    -38575.91    182.16746   -38758.077    14206.784 
  102400    304.26447   -38547.721    182.29787   -38730.019    14864.581 
  102600    315.22505   -38558.641    188.86482   -38747.506    14377.237 
  102800    290.19425   -38590.491     173.8678   -38764.359   -1004.5983 
  103000    297.07069    -38562.14    177.98777   -38740.128   -201.95541 
  103200    310.29999    -38550.05    185.91401   -38735.964    1169.5834 
  103400    270.65175   -38572.737    162.15906   -38734.896   -2234.3092 
  103600    292.67099   -38566.235    175.35172   -38741.587   -5279.2551 
  103800    306.78301   -38546.018    183.80684   -38729.825   -10850.353 
  104000    303.39452   -38567.543    181.77665    -38749.32   -1244.5285 
  104200    327.64604    -38569.78    196.30677   -38766.086   -3594.0929 
  104400    331.75634    -38541.42    198.76943    -38740.19   -9280.2281 
  104600    281.50512   -38573.735    168.66177   -38742.397   -6485.3913 
  104800    283.97938   -38563.221    170.14421   -38733.365    -10072.02 
  105000    312.45849   -38560.624    187.20726   -38747.831   -4629.3557 
  105200    276.09949   -38563.067    165.42303    -38728.49    3060.8732 
  105400    309.69173   -38543.332    185.54958   -38728.882    720.00424 
  105600    289.20769   -38566.607    173.27671   -38739.884   -2999.9772 
  105800    261.23803   -38579.528    156.51889   -38736.047    8232.6466 
  106000    303.00604   -38560.767     181.5439   -38742.311    7635.9371 
  106200    297.42827   -38557.978    178.20201    -38736.18   -1561.4034 
  106400    321.89573   -38554.649    192.86152    -38747.51   -10449.265 
  106600    321.91144   -38565.387    192.87093   -38758.258   -760.94722 
  106800    321.11081   -38563.254    192.39123   -38755.646   -4945.7692 
  107000     334.6015   -38531.236    200.47409    -38731.71   -608.82826 
  107200    301.32948   -38558.754     180.5394   -38739.294   -6485.0023 
  107400    286.31614   -38554.401    171.54426   -38725.945   -9395.4038 
  107600    285.88904   -38547.918    171.28836   -38719.207    -9948.616 
  107800    295.21176   -38577.997    176.87401   -38754.871    -6442.978 
  108000    319.48208   -38552.099    191.41539   -38743.515   -3404.9621 
  108200    288.33853   -38549.431    172.75596   -38722.187   -5662.6636 
  108400    302.98776   -38554.029    181.53294   -38735.562   -14967.401 
  108600    274.05885   -38592.052    164.20039   -38756.252   -4007.4262 
  108800    313.28738   -38564.193    187.70388   -38751.897    10364.254 
  109000    303.41336   -38548.899    181.78794   -38730.687    5081.5369 
  109200    306.82921   -38575.284    183.83452   -38759.119   -940.42479 
  109400    274.02382   -38572.244    164.17941   -38736.423     10752.38 
  109600    310.72113    -38553.75    186.16634   -38739.917    8909.0867 
  109800     298.3598   -38561.315    178.76013   -38740.075    3061.9228 
  110000    286.16431   -38576.752    171.45329   -38748.205   -5138.7001 
  110200    304.23857   -38543.055    182.28235   -38725.338    7125.0374 
  110400    312.79439   -38554.432    187.40851   -38741.841    6814.5078 
  110600    276.21751   -38566.093    165.49374   -38731.587   -1506.2242 
  110800    300.55945   -38554.384    180.07803   -38734.462    767.08211 
  111000    339.76523   -38525.311     203.5679   -38728.879   -2503.7021 
  111200    290.47279    -38566.72    174.03469   -38740.754   -612.67681 
  111400    307.22533   -38557.757    184.07185   -38741.829     1551.826 
  111600     302.2507   -38545.206    181.09134   -38726.297   -2661.3092 
  111800    275.72111   -38574.326    165.19632   -38739.523    1756.9888 
  112000    306.27165   -38541.788    183.50046   -38725.289   -4370.3611 
  112200    341.65131   -38543.013    204.69793   -38747.711   -2439.4978 
  112400    299.07998   -38561.558    179.19163   -38740.749    1586.5849 
  112600    284.04523   -38557.102    170.18366   -38727.285    353.32933 
  112800    296.15695   -38568.748    177.44031   -38746.188   -4984.4396 
  113000    330.76127   -38548.228    198.17324   -38746.401    3153.9009 
  113200    332.97445   -38542.785    199.49925   -38742.284     5033.827 
  113400    272.06572   -38579.895    163.00622   -38742.901    757.03857 
  113600    293.10382   -38550.661    175.61105   -38726.272   -2991.2623 
  113800    334.46524     -38550.3    200.39244   -38750.693    -136.5033 
  114000    272.37721   -38574.739    163.19285   -38737.931    12942.435 
  114200    290.61586   -38576.383    174.12041   -38750.503    7429.9643 
  114400    294.90458   -38553.527    176.68996   -38730.217   -247.58185 
  114600    325.76993   -38552.783    195.18271   -38747.966   -4470.7181 
  114800     299.6229   -38575.161    179.51691   -38754.678   -7759.5224 
  115000    305.34502   -38557.548    182.94527   -38740.494   -19413.985 
  115200    294.52918   -38546.646    176.46504   -38723.111   -11595.724 
  115400    258.13436   -38591.101    154.65935   -38745.761   -456.04476 
  115600    302.45064   -38567.777    181.21113   -38748.988    1748.9087 
  115800    307.91626   -38554.253    184.48582   -38738.738    11131.477 
  116000    314.59402   -38560.616    188.48675   -38749.103     7328.895 
  116200    291.16936   -38580.889    174.45203   -38755.341    1151.0486 
  116400    283.09177   -38552.233     169.6124   -38721.845     257.6289 
  116600    291.09956   -38550.625    174.41021   -38725.035   -272.64604 
  116800    272.23102   -38579.543    163.10526   -38742.648    3632.8342 
  117000    310.29931   -38578.284     185.9136   -38764.198   -5513.2333 
  117200    309.58522   -38549.516    185.48576   -38735.001   -13316.949 
  117400    324.83308   -38536.738    194.62141   -38731.359    5137.0903 
  117600    291.06706   -38571.764    174.39074   -38746.155    13394.813 
  117800    321.56803   -38558.105    192.66517    -38750.77    12189.243 
  118000    318.19579   -38527.462    190.64472   -38718.107   -2147.6178 
  118200    314.45276   -38541.857    188.40211   -38730.259   -16631.712 
  118400    306.02165   -38566.089    183.35067    -38749.44   -12806.582 
  118600    288.06428   -38577.244    172.59164   -38749.836   -1389.0796 
  118800    286.75181   -38537.725    171.80529    -38709.53    10844.559 
  119000    300.97443   -38567.445    180.32667   -38747.772    350.02256 
  119200    289.23649   -38572.353    173.29397   -38745.647    599.79654 
  119400    315.21898   -38536.991    188.86119   -38725.852    137.01165 
  119600    312.66266   -38546.595    187.32959   -38733.925   -4477.5959 
  119800     292.3828   -38572.876    175.17906   -38748.055    2041.6798 
  120000    315.02403    -38549.86    188.74438   -38738.604   -6376.0365 
  120200    325.87789    -38534.78     195.2474   -38730.027   -766.30057 
  120400    289.68589   -38563.635    173.56322   -38737.198    5140.0812 
  120600    284.47873   -38571.361    170.44339   -38741.804    6905.4759 
  120800     274.5141    -38585.52    164.47315   -38749.993    2833.7318 
  121000    321.98387   -38550.171    192.91432   -38743.085    1675.2676 
  121200    283.72222   -38573.614    169.99013   -38743.604   -2304.5983 
  121400    325.76424   -38546.093     195.1793   -38741.272   -6004.8329 
  121600    312.79902   -38554.249    187.41129    -38741.66   -7537.0123 
  121800     299.8198   -38568.705    179.63488    -38748.34     6507.423 
  122000    308.85208   -38542.441    185.04651   -38727.487    3963.7423 
  122200     334.8606    -38532.33    200.62933   -38732.959    5344.5007 
  122400    315.04306   -38557.415    188.75579    -38746.17    11726.288 
  122600     288.1521   -38581.543    172.64426   -38754.187    3841.9581 
  122800    286.41429   -38568.544    171.60307   -38740.147    1097.6798 
  123000    329.64484   -38545.709    197.50434   -38743.213    2092.9076 
  123200    281.96791   -38573.629    168.93905   -38742.568   -1408.0817 
  123400    317.90038   -38544.985    190.46773   -38735.452    -4967.548 
  123600     323.9745   -38551.827      194.107   -38745.934   -5286.4561 
  123800    305.11384   -38566.256    182.80677   -38749.063    -7873.238 
  124000    310.82543    -38556.84    186.22882   -38743.068   -12652.007 
  124200    315.24462   -38544.369    188.87655   -38733.246    417.04429 
  124400    285.83139   -38569.336    171.25382    -38740.59   -2851.6716 
  124600    324.03899   -38548.117    194.14564   -38742.262   -3092.9352 
  124800    315.41542   -38538.928    188.97888   -38727.906   -4191.0295 
  125000     270.5567   -38564.923    162.10211   -38727.025    2531.6887 
  125200    308.23929   -38552.932    184.67936   -38737.611    4066.5124 
  125400    287.56073   -38561.108    172.28995   -38733.398    10848.274 
  125600    281.97764   -38577.263    168.94488   -38746.208    9828.8748 
  125800    318.47183   -38541.487    190.81011   -38732.298    1546.5438 
  126000    301.45627   -38559.829    180.61536   -38740.445    4604.1909 
  126200    251.02712   -38599.469     150.4011   -38749.871    347.36637 
  126400    276.74932   -38577.928    165.81237    -38743.74   -7376.1853 
  126600    308.71362   -38552.857    184.96355    -38737.82   -8900.6807 
  126800    297.87881   -38553.694    178.47195   -38732.166   -4108.3467 
  127000    268.50424   -38579.244    160.87239   -38740.116    133.94613 
  127200    315.49206   -38538.431     189.0248   -38727.456    7052.3927 
  127400    309.85781   -38557.827    185.64908   -38743.477     10905.43 
  127600    313.29068   -38567.818    187.70586   -38755.524   -1886.5476 
  127800    277.61977   -38589.478    166.33389   -38755.811    -15122.96 
  128000    292.43865   -38553.501    175.21252   -38728.713   -11840.758 
  128200    310.92835   -38563.526    186.29049   -38749.816   -1276.1695 
  128400    274.30287   -38576.783     164.3466    -38741.13    1867.6388 
  128600    307.10648   -38552.405    184.00064   -38736.406    6212.0387 
  128800    307.68538    -38557.35    184.34749   -38741.698    14480.559 
  129000    286.28932   -38564.602    171.52819    -38736.13    4197.2968 
  129200    295.13371   -38558.354    176.82724   -38735.181   -1344.9947 
  129400    315.08218   -38541.431    188.77923    -38730.21    3070.3228 
  129600    269.90839   -38574.037    161.71367   -38735.751    3127.4558 
  129800    294.03212   -38552.447    176.16724   -38728.614   -5563.6023 
  130000    313.06731   -38550.893    187.57203   -38738.465   -9909.0619 
  130200    301.79764   -38569.722    180.81989   -38750.542     7499.674 
  130400    295.71827    -38552.88    177.17748   -38730.057    12537.344 
  130600    315.94829   -38541.838    189.29815   -38731.136    12353.598 
  130800     304.7366   -38564.538    182.58075   -38747.119    12988.158 
  131000    305.78757   -38560.501    183.21043   -38743.711    5625.1499 
  131200    332.70384   -38538.108    199.33712   -38737.446    2987.3565 
  131400    306.30649    -38571.54    183.52133   -38755.062    1008.9007 
  131600    285.86988   -38568.649    171.27688   -38739.926    2470.3596 
  131800    311.15771   -38552.861    186.42791   -38739.289   -4808.6957 
  132000    333.08705   -38560.078    199.56671   -38759.645   -9421.4036 
  132200    284.92387   -38590.518    170.71009   -38761.228    1130.1863 
  132400    310.09566   -38564.726    185.79159   -38750.517   -1052.7357 
  132600    293.23814   -38544.493    175.69153   -38720.184   -64.210758 
  132800    295.25403   -38574.796    176.89933   -38751.695    2118.7055 
  133000    282.38716   -38551.669    169.19024   -38720.859    5327.2248 
  133200    330.81975   -38545.793    198.20828   -38744.001    7139.0193 
  133400    291.46085   -38564.852    174.62667   -38739.479    1347.2712 
  133600    337.26419    -38534.16    202.06942    -38736.23    2926.9035 
  133800    272.30278   -38560.464    163.14826   -38723.612    1294.2532 
  134000    308.16768   -38562.914    184.63645    -38747.55   -8047.3069 
  134200    299.86306    -38547.84     179.6608   -38727.501   -3787.1718 
  134400    289.30968   -38572.162    173.33782     -38745.5    -1168.932 
  134600    327.88704   -38545.394    196.45116   -38741.845     2407.263 
  134800     305.7791   -38559.678    183.20535   -38742.883    -13648.68 
  135000     300.7268   -38561.123     180.1783   -38741.301   -15776.246 
  135200    321.37549    -38533.74    192.54982    -38726.29    8156.5479 
  135400    327.30352   -38545.679    196.10155   -38741.781    15688.156 
  135600    284.70667   -38564.015    170.57996   -38734.595    11221.673 
  135800    312.94727   -38551.275    187.50011   -38738.775    2108.0546 
  136000     301.8461   -38557.699    180.84892   -38738.548    8125.8048 
  136200     294.9501   -38572.164    176.71724   -38748.881    7281.4539 
  136400    328.70223   -38537.015    196.93958   -38733.954    7761.1032 
  136600    290.78616   -38561.497    174.22244   -38735.719    2615.6443 
  136800    283.51823   -38571.238    169.86791   -38741.106     4390.796 
  137000    324.65307   -38537.855    194.51355   -38732.368   -5707.3964 
  137200    312.94723   -38563.487    187.50009   -38750.987    1822.5965 
  137400    308.59784   -38567.117    184.89418   -38752.011    9351.5464 
  137600    329.28107   -38532.681    197.28639   -38729.968    5420.6272 
  137800    255.82672   -38577.281    153.27674   -38730.558    3175.1665 
  138000    314.83269   -38558.241    188.62974   -38746.871    783.32289 
  138200    329.76467   -38537.742    197.57614   -38735.318    372.28737 
  138400    299.80356   -38577.205    179.62515    -38756.83    4026.1333 
  138600    294.75747    -38565.57    176.60182   -38742.172   -1659.7895 
  138800    308.71318   -38548.063    184.96329   -38733.027    119.45249 
  139000    293.51706   -38555.917    175.85864   -38731.775    5567.9424 
  139200    293.23176    -38565.23     175.6877   -38740.918    12882.557 
  139400    328.28281   -38532.332    196.68829    -38729.02    7753.0996 
  139600    297.28556   -38558.016    178.11651   -38736.133    1064.3131 
  139800    299.35188   -38563.373    179.35453   -38742.727    -2833.317 
  140000    337.23771   -38532.823    202.05355   -38734.877    3166.5227 
  140200    289.60376   -38555.702    173.51401   -38729.216    7743.1029 
  140400    289.71777   -38560.475    173.58232   -38734.057   -2042.5335 
  140600    321.18122   -38547.968    192.43342   -38740.401   -6934.4795 
  140800    294.32612   -38548.346    176.34338   -38724.689   -4803.6855 
  141000    278.95513   -38575.932    167.13396   -38743.066    10698.591 
  141200    323.34969   -38536.514    193.73265   -38730.247    14611.092 
  141400    304.95629   -38544.227    182.71237    -38726.94      4520.39 
  141600    299.77297   -38571.748    179.60682   -38751.354   -4177.6611 
  141800    298.11516   -38545.283    178.61356   -38723.896   -3703.4604 
  142000    322.55603   -38541.064    193.25713   -38734.321    6688.9522 
  142200    301.35044    -38571.45    180.55195   -38752.002    6996.3371 
  142400    303.71973   -38550.699    181.97149   -38732.671     1044.714 
  142600    303.47367   -38541.858    181.82407   -38723.682   -436.43681 
  142800    268.73489    -38571.56    161.01058   -38732.571     2007.706 
  143000    311.33593   -38542.726    186.53469    -38729.26      5235.85 
  143200    295.02701   -38543.683    176.76331   -38720.446   -197.24317 
  143400    293.00719   -38569.657    175.55316    -38745.21    -11018.84 
  143600    327.55712   -38547.814     196.2535   -38744.068    573.82589 
  143800    316.92077   -38515.137     189.8808   -38705.017    455.91487 
  144000     318.9636   -38560.304    191.10475   -38751.409    7611.3305 
  144200    315.68842   -38557.468    189.14245    -38746.61     5985.963 
  144400    311.83659    -38551.49    186.83465   -38738.325   -3864.2332 
  144600    299.45224   -38578.302    179.41466   -38757.716   -3941.9031 
  144800    338.68383    -38538.08    202.91998       -38741    624.39234 
  145000    285.92915   -38550.569     171.3124   -38721.882    4223.2829 
  145200    276.22052   -38565.837    165.49554   -38731.333   -3857.2342 
  145400    278.44285    -38586.97    166.82703   -38753.797    1006.8989 
  145600    263.19487   -38558.639    157.69132   -38716.331    5107.8771 
  145800    308.17324   -38550.234    184.63978   -38734.874    7656.7812 
  146000    289.18278     -38585.1    173.26179   -38758.362    9871.9555 
  146200    277.82971   -38571.822    166.45968   -38738.282    9680.1758 
  146400    331.34443   -38550.429    198.52264   -38748.952     6391.485 
  146600    300.54886    -38565.87    180.07169   -38745.942    551.02696 
  146800    288.59983   -38578.225    172.91252   -38751.137     6434.278 
  147000    302.01717   -38539.551    180.95142   -38720.503    1600.9147 
  147200     292.1558   -38561.208    175.04305   -38736.251   -6914.4684 
  147400    282.36473   -38575.978     169.1768   -38745.154   -5958.0624 
  147600    322.20279   -38536.708    193.04549   -38729.754     13115.71 
  147800    283.75709   -38567.359    170.01102    -38737.37    2086.7944 
  148000    288.28083   -38579.712    172.72139   -38752.434   -860.09571 
  148200    321.70818   -38550.785    192.74915   -38743.534    -9831.175 
  148400    296.81884   -38549.288    177.83687   -38727.124   -531.89573 
  148600    278.69695   -38583.851    166.97928    -38750.83   -2731.5162 
  148800    302.50314   -38556.531    181.24258   -38737.774    3065.2461 
  149000    307.01781   -38552.454    183.94752   -38736.402    13322.233 
  149200    281.21922   -38567.909    168.49047   -38736.399    4664.0022 
  149400    283.86756   -38557.135    170.07721   -38727.212    7492.8202 
  149600    291.31792   -38560.426    174.54104   -38734.967    1688.0375 
  149800    304.25225   -38563.835    182.29055   -38746.125    3843.9976 
  150000    306.12007   -38552.139    183.40964   -38735.549   -9820.1467 
  150200    341.54545   -38545.701    204.63451   -38750.335   -16682.212 
  150400    268.01153   -38580.197    160.57719   -38740.774   -12830.974 
  150600    296.14869   -38553.401    177.43536   -38730.836   -15028.322 
  150800    280.84042   -38555.112    168.26352   -38723.375   -12663.397 
  151000    311.18916   -38575.001    186.44675   -38761.448   -7949.4288 
  151200    300.95474   -38538.502    180.31487   -38718.817    13783.226 
  151400    294.07936   -38561.336    176.19554   -38737.532    9050.7293 
  151600    298.33366   -38583.158    178.74447   -38761.903     2693.652 
  151800    278.46308   -38574.501    166.83915    -38741.34   -709.24048 
  152000    309.55709   -38548.554    185.46891   -38734.023    12916.877 
  152200    296.81623   -38573.973    177.83531   -38751.808    9290.9234 
  152400    267.25963   -38579.354    160.12669    -38739.48   -10203.511 
  152600    311.16837   -38563.256    186.43429    -38749.69   -11375.426 
  152800    309.51926   -38544.477    185.44624   -38729.924    6625.0132 
  153000    288.69004   -38578.628    172.96657   -38751.595    6697.3739 
  153200    304.90565   -38557.595    182.68203   -38740.277   -1064.7113 
  153400    283.38032   -38554.582    169.78528   -38724.367    -1681.039 
  153600    274.56627   -38572.154    164.50441   -38736.658    9118.6898 
  153800    301.36268   -38572.053    180.55929   -38752.612    11101.321 
  154000     289.6075    -38558.61    173.51626   -38732.126    -136.7364 
  154200    296.67727   -38547.335    177.75206   -38725.087   -9578.0211 
  154400    298.28899   -38573.174    178.71771   -38751.892    5225.9174 
  154600    320.78306    -38558.61    192.19487   -38750.804    10897.648 
  154800      290.795   -38553.638    174.22774   -38727.866    2531.4493 
  155000    295.71687   -38560.678    177.17664   -38737.855   -4682.3499 
  155200    286.80043   -38590.566    171.83442     -38762.4    1281.2919 
  155400    296.36728   -38569.189    177.56633   -38746.755    6143.4973 
  155600    282.76318   -38553.796    169.41553   -38723.212    6246.9142 
  155800    307.98665   -38560.606    184.52799   -38745.134   -7951.6382 
  156000    292.27475    -38578.91    175.11432   -38754.024   -2842.4617 
  156200    326.75031   -38548.416     195.7701   -38744.187    3647.0667 
  156400     289.7981   -38564.996    173.63045   -38738.626    3255.9258 
  156600    281.59978   -38588.521    168.71849   -38757.239    3450.3628 
  156800    312.99547   -38561.742    187.52899   -38749.271   -4195.3484 
  157000    303.37565   -38547.309    181.76534   -38729.074    -5759.978 
  157200     299.4613   -38573.874    179.42009   -38753.294   -431.85819 
  157400    309.07942   -38547.488    185.18272    -38732.67    9983.7709 
  157600    325.09251    -38541.26    194.77684   -38736.037    3551.9464 
  157800    306.39547   -38561.609    183.57465   -38745.184    339.87065 
  158000    309.61457    -38554.66    185.50335   -38740.163    5052.8652 
  158200     303.4091   -38536.035    181.78538   -38717.821    9818.3359 
  158400    297.31407   -38568.632    178.13359   -38746.766    8708.8948 
  158600    302.25293   -38562.698    181.09267    -38743.79   -16194.997 
  158800    334.19702   -38522.064    200.23174   -38722.295   -6619.1164 
  159000    318.69719   -38547.414    190.94513    -38738.36    2468.3154 
  159200    323.80178   -38566.851    194.00351   -38760.855    2244.8237 
  159400    296.16447   -38563.133    177.44482   -38740.578    3869.1607 
  159600    324.05975   -38543.896    194.15807   -38738.054    -5343.269 
  159800    294.80088   -38568.702    176.62783    -38745.33    400.15483 
  160000    301.26163   -38562.222    180.49874   -38742.721    466.41371 
  160200    332.64919   -38536.586    199.30437   -38735.891    3291.6839 
  160400    298.72595   -38556.534    178.97951   -38735.514    480.36688 
  160600    290.47143   -38569.325    174.03387   -38743.359    2010.2957 
  160800    315.79953     -38559.2    189.20902   -38748.409    2333.2491 
  161000    321.29654   -38539.847    192.50251    -38732.35    3785.9426 
  161200    298.28141   -38583.198    178.71316   -38761.911    -2643.835 
  161400    298.20284   -38555.249    178.66609   -38733.915   -10817.327 
  161600    313.05614   -38549.251    187.56534   -38736.816   -3823.0449 
  161800    296.89227    -38580.21    177.88087    -38758.09   -5073.0528 
  162000    296.04737   -38556.974    177.37466   -38734.349   -3982.5763 
  162200    325.56429   -38550.662    195.05951   -38745.722    3545.8502 
  162400    277.30916   -38562.364    166.14779   -38728.512    11135.773 
  162600    313.01623   -38553.433    187.54143   -38740.975    8800.4534 
  162800    302.01543   -38569.384    180.95038   -38750.334    5222.0152 
  163000     297.8911   -38566.347    178.47931   -38744.827    2928.8052 
  163200    319.26286   -38531.288    191.28405   -38722.572   -3779.7679 
  163400    312.93261   -38558.029    187.49133    -38745.52   -12463.669 
  163600    293.23078   -38565.783    175.68712    -38741.47   -13420.278 
  163800    318.97727    -38559.52    191.11294   -38750.633   -8042.0131 
  164000    310.98626   -38547.079    186.32519   -38733.404   -7966.9569 
  164200    283.68258   -38581.685    169.96638   -38751.651   -563.85976 
  164400    295.30456   -38567.571    176.92961   -38744.501   -8785.3564 
  164600    323.48732   -38555.436     193.8151   -38749.251   -8053.4578 
  164800    254.66104   -38596.693    152.57834   -38749.272   -13997.108 
  165000    280.95704   -38577.366     168.3334     -38745.7   -3494.5337 
  165200    299.33528   -38554.325    179.34458   -38733.669    7302.6624 
  165400     308.4193   -38560.086    184.78721   -38744.873    9366.8122 
  165600    292.53296   -38583.801    175.26902    -38759.07    8211.4072 
  165800    289.24072   -38546.826     173.2965   -38720.122   -4042.2436 
  166000    306.59945   -38555.091    183.69686   -38738.788    1840.0208 
  166200    301.15322     -38568.7    180.43379   -38749.134   -3584.2879 
  166400      306.801   -38536.326    183.81761   -38720.143   -11221.572 
  166600    286.16159   -38572.076    171.45166   -38743.528   -3387.3639 
  166800    287.86654   -38567.986    172.47317    -38740.46   -355.02749 
  167000    309.14744   -38540.923    185.22347   -38726.146    3265.1321 
  167200    252.32545   -38572.022    151.17898   -38723.201    2195.1654 
  167400    293.68068   -38559.282    175.95667   -38735.238   -4957.1714 
  167600    301.55805    -38564.01    180.67634   -38744.686    3519.1946 
  167800    298.84201   -38565.065    179.04904   -38744.114   -3781.1614 
  168000    302.31423   -38545.308     181.1294   -38726.437   -14206.759 
  168200    271.35507   -38562.253    162.58044   -38724.833    2739.9093 
  168400    313.77019   -38565.508    187.99316   -38753.501    4510.0948 
  168600    327.04779   -38540.954    195.94834   -38736.902    778.09352 
  168800    296.23976   -38557.749    177.48992   -38735.239   -4705.1034 
  169000    330.50581   -38561.506    198.02019   -38759.526    5845.3748 
  169200    269.18576   -38572.259    161.28071    -38733.54   -2875.2044 
  169400    311.83757   -38544.811    186.83524   -38731.646    -8302.111 
  169600    268.23426   -38567.858    160.71063   -38728.569   -8731.9962 
  169800    260.49767   -38594.086    156.07531   -38750.161   -4944.3299 
  170000    284.48324   -38563.131    170.44609   -38733.577   -2121.3961 
  170200    303.23371   -38554.776     181.6803   -38736.457   -8798.1982 
  170400    308.84451   -38554.913    185.04197   -38739.955   -5074.6728 
  170600    328.59225   -38534.242    196.87369   -38731.116    2628.5791 
  170800    307.98896   -38561.125    184.52937   -38745.654    4376.7592 
  171000    294.08044    -38551.27    176.19618   -38727.466    -10398.47 
  171200    327.97177   -38541.055    196.50193   -38737.557   -12308.638 
  171400    299.74383   -38568.432    179.58936   -38748.022    -1380.882 
  171600    320.93482   -38545.652    192.28579   -38737.937   -660.54573 
  171800    305.70921   -38536.915    183.16348   -38720.078    11984.884 
  172000    293.71604   -38569.737    175.97786   -38745.715    12276.995 
  172200    287.29998   -38568.612    172.13372   -38740.746    1109.0942 
  172400    294.21873   -38535.353    176.27904   -38711.632   -12037.529 
  172600    291.28676    -38567.29    174.52237   -38741.812    4382.7217 
  172800    290.36609   -38562.257    173.97076   -38736.228    221.04522 
  173000    291.65936   -38551.978    174.74561   -38726.724     -6705.52 
  173200    274.55844   -38591.803    164.49972   -38756.303   -17839.745 
  173400    275.63003   -38578.182    165.14176   -38743.323   -13847.127 
  173600    292.26667   -38547.696    175.10947   -38722.806   -7036.8847 
  173800    279.78122   -38565.668    167.62891   -38733.297   -8551.7798 
  174000     272.3773   -38578.719     163.1929   -38741.912    670.92424 
  174200    309.37757   -38553.283    185.36135   -38738.645    -2024.244 
  174400    289.18171   -38551.453    173.26114   -38724.715    6541.6822 
  174600    293.40632   -38586.626    175.79229   -38762.419     6149.232 
  174800    303.82389   -38551.862     182.0339   -38733.896    7632.8617 
  175000     289.4194   -38553.198    173.40355   -38726.602    299.41809 
  175200    279.35327   -38575.381    167.37251   -38742.754   -272.78904 
  175400     293.7325   -38581.105    175.98772   -38757.093    -3815.619 
  175600    308.74854   -38541.935    184.98447    -38726.92   -9001.3693 
  175800    297.46887   -38563.164    178.22634    -38741.39    -6244.589 
  176000    280.07863   -38577.353     167.8071    -38745.16   -6567.1763 
  176200    312.17847   -38557.888    187.03949   -38744.927   -2497.3955 
  176400    339.78536   -38528.694    203.57996   -38732.274   -4033.9457 
  176600    300.20773   -38560.008    179.86731   -38739.876    5166.1465 
  176800    293.42246   -38570.665    175.80196   -38746.466   -826.50483 
  177000    300.96245   -38543.563    180.31949   -38723.883   -7303.2847 
  177200    294.06438   -38583.395    176.18656   -38759.582   -216.27936 
  177400    284.67597   -38570.688    170.56156    -38741.25    2844.0983 
  177600    317.01435   -38549.312    189.93687   -38739.249     -5468.95 
  177800    308.12961   -38556.038    184.61364   -38740.652    4449.2962 
  178000    306.39225   -38564.358    183.57271   -38747.931    3336.5079 
  178200    308.83609    -38543.25    185.03692   -38728.287    11061.654 
  178400    308.67823   -38559.577    184.94234   -38744.519    8787.5598 
  178600    263.26899   -38585.432    157.73572   -38743.168    5597.7055 
  178800    284.58921   -38560.239    170.50958   -38730.749    5571.4726 
  179000    311.42402   -38550.779    186.58747   -38737.366   -8185.3609 
  179200    278.47978   -38583.753    166.84916   -38750.602   -11785.891 
  179400     306.5426    -38555.59     183.6628   -38739.252   -10616.699 
  179600    304.80159   -38554.121    182.61968   -38736.741   -1141.7916 
[...]
  950000    328.71424   -38540.928    196.94678   -38737.875    13627.054 
  950200    354.57514   -38505.172    212.44115   -38717.613   -2653.3943 
  950400    291.21331   -38559.986    174.47837   -38734.465   -10149.378 
  950600    293.75781   -38577.685    176.00288   -38753.687   -9965.2932 
  950800    294.94977   -38543.792    176.71704   -38720.509    2508.0007 
  951000     306.2425   -38556.316    183.48299   -38739.799    1252.5554 
  951200    288.37915   -38579.956     172.7803   -38752.737    1129.9325 
  951400    320.75279   -38545.225    192.17673   -38737.402    48.061403 
  951600    307.76652   -38558.608     184.3961   -38743.005   -3704.2012 
  951800    278.98807   -38580.322     167.1537   -38747.476    5427.5012 
  952000    312.70525   -38548.581     187.3551   -38735.936    5112.3031 
  952200    287.36593   -38564.284    172.17324   -38736.457   -4859.7014 
  952400     258.9264   -38597.104     155.1339   -38752.238   -16242.071 
  952600    309.45748   -38558.719    185.40923   -38744.128   -4520.0102 
  952800    328.81372    -38546.97    197.00638   -38743.977    7483.0058 
  953000    297.05185   -38571.933    177.97648    -38749.91    4430.5538 
  953200    284.11585   -38568.829    170.22597   -38739.055   -7968.5756 
  953400    310.95887   -38548.767    186.30877   -38735.076   -8842.5237 
  953600    281.81121   -38569.556    168.84517   -38738.401    7626.6344 
  953800    280.71858   -38587.166    168.19052   -38755.356    14037.924 
  954000    315.51785   -38551.001    189.04025   -38740.041     1679.173 
  954200     311.4061   -38549.653    186.57673    -38736.23   -3893.1763 
  954400    289.08413   -38583.704    173.20268   -38756.906   -1563.9929 
  954600    283.49348   -38562.067    169.85308    -38731.92    -1980.068 
  954800    301.18951   -38558.009    180.45553   -38738.464    1419.8053 
  955000    320.28083   -38543.382    191.89396   -38735.276    1363.1474 
  955200    325.55556   -38555.209    195.05427   -38750.263    779.24499 
  955400    298.84167   -38574.588    179.04884   -38753.637   -1915.8249 
  955600    302.27572   -38546.132    181.10633   -38727.238     -7370.16 
  955800    288.69703   -38550.265    172.97075   -38723.236   -10933.657 
  956000    289.94658   -38575.439    173.71941   -38749.159   -4765.8426 
  956200    294.76875    -38565.89    176.60858   -38742.499   -12328.233 
  956400     278.4994   -38550.388    166.86092   -38717.249   -10033.555 
  956600    259.78416   -38576.434    155.64781   -38732.082   -3517.1795 
  956800    319.70427   -38541.908    191.54852   -38733.456    2595.4096 
  957000    321.55122   -38553.321    192.65511   -38745.976    5600.6157 
  957200    303.95858   -38574.205     182.1146    -38756.32    -1335.279 
  957400    300.95267   -38583.473    180.31363   -38763.787    1346.8497 
  957600    311.57547   -38556.065    186.67821   -38742.743    7630.1057 
  957800    326.61909   -38539.481    195.69148   -38735.172    5472.7482 
  958000    297.13996    -38569.22    178.02927    -38747.25    1012.6508 
  958200    289.55429   -38570.544    173.48437   -38744.029    13.745822 
  958400    328.52808   -38538.798    196.83524   -38735.633   -1504.5513 
  958600    288.75356    -38560.08    173.00462   -38733.085   -4045.8083 
  958800    281.75532   -38566.576    168.81168   -38735.387    2520.2616 
  959000    309.61679   -38543.518    185.50468   -38729.023    3897.5665 
  959200    298.25961   -38567.213    178.70011   -38745.913    2327.3532 
  959400    292.08793   -38565.951    175.00239   -38740.953   -4487.0955 
  959600    307.40669   -38546.372    184.18051   -38730.553   -6797.4868 
  959800       285.57   -38567.001    171.09721   -38738.098   -6779.9014 
  960000    279.08354   -38578.076     167.2109   -38745.287   -5460.4953 
  960200    303.42655    -38543.36    181.79584   -38725.156   -6314.6098 
  960400    296.13609       -38570    177.42781   -38747.427    7993.9396 
  960600    314.48208   -38556.384    188.41968   -38744.804   -1991.3719 
  960800    339.02011   -38525.343    203.12146   -38728.465   -1328.7544 
  961000    301.03613   -38562.253    180.36363   -38742.617   -3781.9077 
  961200    292.26741    -38578.35    175.10992    -38753.46   -1987.7326 
  961400    327.08163   -38540.783    195.96861   -38736.752   -6337.0062 
  961600    289.19298   -38554.841     173.2679   -38728.109   -14846.454 
  961800    290.45522   -38578.098    174.02416   -38752.122   -11001.013 
  962000     331.2573   -38551.882    198.47044   -38750.352    1638.2329 
  962200    288.11394   -38564.679     172.6214     -38737.3    2965.1008 
  962400    277.09196   -38579.419    166.01766   -38745.436    303.63813 
  962600    284.05218   -38557.227    170.18782   -38727.415    6102.5683 
  962800    306.56811   -38559.843    183.67808   -38743.521    777.61148 
  963000    284.21326   -38581.397    170.28434   -38751.681   -315.16996 
  963200    298.94502   -38559.948    179.11076   -38739.059   -9132.5367 
  963400    319.44191   -38550.842    191.39133   -38742.234   -1583.5611 
  963600     279.2521   -38580.777    167.31189   -38748.089    5024.0237 
  963800    307.22823   -38559.723    184.07359   -38743.797    4083.0769 
  964000    312.42248   -38547.457    187.18569   -38734.642    4974.1886 
  964200    284.51712   -38558.036    170.46639   -38728.502    51.462385 
  964400    307.01656   -38560.945    183.94677   -38744.891   -10786.948 
  964600    305.01644   -38552.669    182.74841   -38735.418    1555.3696 
  964800    328.68218   -38549.127    196.92757   -38746.055     1043.679 
  965000    288.74227   -38577.821    172.99786   -38750.819    5871.2811 
  965200    288.18312   -38555.959    172.66285   -38728.622    3237.0761 
  965400    320.69382   -38553.973     192.1414   -38746.114    1359.5646 
  965600    290.45817   -38574.875    174.02593   -38748.901    6704.0359 
  965800    271.06128   -38575.484    162.40442   -38737.889    1763.1815 
  966000    320.60541    -38549.62    192.08843   -38741.708    3785.0105 
  966200    293.92786   -38570.719    176.10477   -38746.823    -4432.812 
  966400    278.04311   -38594.041    166.58753   -38760.629   -5763.7988 
  966600    286.21804   -38559.825    171.48548    -38731.31   -9865.5219 
  966800    291.36923   -38552.923    174.57178   -38727.494   -1375.2548 
  967000    276.60961   -38578.984    165.72866   -38744.713    144.57797 
  967200    336.11635   -38539.873     201.3817   -38741.255    11173.251 
  967400      306.232   -38565.833     183.4767    -38749.31   -2288.6687 
  967600    299.05965   -38569.244    179.17944   -38748.424    3871.4524 
  967800    334.26755   -38530.761      200.274   -38731.035    2013.7727 
  968000    283.17216   -38565.216    169.66056   -38734.876   -1843.9066 
  968200    298.53166   -38559.319     178.8631   -38738.182   -1852.5628 
  968400    325.29778   -38524.408    194.89983   -38719.308   -3421.1175 
  968600    306.43351   -38558.886    183.59744   -38742.483   -4730.2122 
  968800        285.8   -38567.299    171.23502   -38738.534    -9289.029 
  969000    311.08963   -38535.488    186.38712   -38721.875   -2740.8122 
  969200    303.72011   -38564.653    181.97172   -38746.625   -2971.0709 
  969400     296.4036   -38564.294    177.58809   -38741.882   -7397.3284 
  969600    291.33661   -38552.238    174.55224    -38726.79   -7449.7962 
  969800    287.06672   -38582.657    171.99397   -38754.651   -2741.5017 
  970000     315.5033   -38563.508    189.03154   -38752.539    16176.061 
  970200    330.31934   -38544.393    197.90846   -38742.302     17502.07 
  970400    303.32758   -38575.373    181.73654    -38757.11    9280.8975 
  970600    278.89157   -38564.562    167.09588   -38731.658    7389.4133 
  970800    296.63572   -38557.937    177.72716   -38735.664   -4928.5462 
  971000     307.1647   -38526.556    184.03553   -38710.591   -6712.6233 
  971200    291.75204   -38556.094    174.80114   -38730.895   -7614.5719 
  971400    306.06615   -38567.187    183.37733   -38750.564   -2578.1134 
  971600    327.44183   -38544.284    196.18442   -38740.469    6224.6461 
  971800    302.50661   -38553.926    181.24466   -38735.171    -2191.732 
  972000    291.18187   -38571.641    174.45953     -38746.1   -10718.767 
  972200    301.41889   -38544.643    180.59296   -38725.236    6318.9214 
  972400    317.50545     -38533.1    190.23111   -38723.331    2538.8597 
  972600    289.37835   -38559.194    173.37896   -38732.573   -7665.7563 
  972800    280.34571   -38570.655    167.96712   -38738.622   -12852.339 
  973000     337.1652   -38531.843    202.01011   -38733.853   -2855.6165 
  973200    298.27072   -38555.736    178.70676   -38734.443    11572.589 
  973400    295.66422   -38565.189     177.1451   -38742.334    11587.979 
  973600    303.26931   -38529.228    181.70163   -38710.929    8441.4909 
  973800    306.50165   -38543.912    183.63826    -38727.55    644.31579 
  974000    282.11808   -38566.329    169.02902   -38735.358   -5077.6383 
  974200    304.59799   -38556.714     182.4977   -38739.212   -6815.8835 
  974400    303.00273   -38538.564    181.54191   -38720.106   -8813.1184 
  974600    287.25488   -38565.875     172.1067   -38737.981   -11933.773 
  974800    295.28593    -38559.79    176.91844   -38736.708   -7521.5664 
  975000    319.20071   -38545.838    191.24681   -38737.085   -4109.2189 
  975200    317.73323   -38545.456    190.36758   -38735.824    -1970.936 
  975400    287.47954   -38562.862     172.2413   -38735.103    925.30385 
  975600    296.88947   -38551.076    177.87919   -38728.955    7085.7274 
  975800    319.70119   -38537.483    191.54667    -38729.03    489.60473 
  976000    284.94989   -38572.314    170.72568   -38743.039   -4411.0203 
  976200     304.6622   -38550.698    182.53617   -38733.234    7004.2763 
  976400    304.94874   -38551.642    182.70785    -38734.35    6265.3252 
  976600    292.12644   -38579.199    175.02546   -38754.225    6351.9078 
  976800    310.08859   -38545.894    185.78735   -38731.681   -130.36231 
  977000    283.18877   -38559.453    169.67052   -38729.124   -9904.1367 
  977200    287.60027   -38559.317    172.31363   -38731.631   -7112.1474 
  977400    281.26058   -38561.956    168.51526   -38730.472   -3388.9344 
  977600    279.38001   -38563.186    167.38853   -38730.575    3965.3681 
  977800    298.33849   -38554.549    178.74736   -38733.296    2303.4441 
  978000    284.68313   -38568.046    170.56585   -38738.612    4348.0695 
  978200    291.41503   -38565.923    174.59922   -38740.522    1262.3694 
  978400    313.03338   -38539.382     187.5517   -38726.934   -3889.2849 
  978600     280.6668   -38579.454     168.1595   -38747.614   -1476.0471 
  978800    294.42545   -38563.746    176.40289   -38740.149    -8132.039 
  979000    309.19411   -38548.034    185.25143   -38733.285   -6689.0666 
  979200    272.94801   -38585.202    163.53484   -38748.736   -725.16567 
  979400    284.13887   -38578.942    170.23976   -38749.181    -236.7981 
  979600    315.71001   -38553.764    189.15538    -38742.92     4401.659 
  979800    289.69101   -38566.455    173.56629   -38740.022    2621.3795 
  980000    270.10872   -38584.538     161.8337   -38746.371     3674.472 
  980200    303.20799   -38548.768    181.66489   -38730.433    4297.5734 
  980400    295.99301    -38559.83    177.34209   -38737.172    3294.3495 
  980600    297.55339   -38585.131    178.27698   -38763.408   -3694.7443 
  980800    324.22475   -38544.708    194.25693   -38738.964   -4990.0224 
  981000    307.21025   -38565.332    184.06282   -38749.395   -266.01039 
  981200    312.60929   -38557.093    187.29761    -38744.39   -4982.9506 
  981400    329.65621   -38536.066    197.51115   -38733.577     -3190.85 
  981600    294.01743   -38564.611    176.15843    -38740.77   -2488.9996 
  981800    277.82377   -38566.978    166.45612   -38733.435   -12054.713 
  982000    335.55445   -38531.396    201.04504   -38732.441   -2035.4108 
  982200    299.16792   -38553.948    179.24431   -38733.192   -3972.6815 
  982400    308.74826   -38562.128     184.9843   -38747.112   -1303.8006 
  982600    288.77864   -38576.269    173.01965   -38749.289   -5665.1055 
  982800    281.34801   -38550.008    168.56764   -38718.576    1035.9437 
  983000    300.98675   -38554.066    180.33405     -38734.4    1802.1163 
  983200    305.44157   -38562.798    183.00312   -38745.801   -441.19743 
  983400    306.64474   -38564.414      183.724   -38748.138   -5441.7382 
  983600    320.84754   -38543.041     192.2335   -38735.274    1196.0959 
  983800    328.42477   -38549.142    196.77335   -38745.915   -583.13029 
  984000    296.91925   -38566.801    177.89704   -38744.698   -1847.1419 
  984200     303.5774   -38558.066    181.88622   -38739.952   -2600.1862 
  984400    321.91767   -38530.886    192.87466   -38723.761   -4168.3937 
  984600    270.15654   -38568.103    161.86235   -38729.965     4858.059 
  984800    304.97677    -38555.58    182.72464   -38738.304    7387.1603 
  985000    299.81307   -38557.214    179.63085   -38736.845    7284.7284 
  985200     275.1863   -38587.605    164.87589   -38752.481    3680.9976 
  985400    290.43387    -38549.79    174.01137   -38723.801     -1176.18 
  985600    321.47883   -38549.832    192.61173   -38742.444    1991.4734 
  985800    291.05899   -38581.562    174.38591   -38755.947    7464.1411 
  986000    277.58375   -38562.899    166.31231   -38729.211    544.36459 
  986200    292.41139   -38563.116    175.19618   -38738.313   -264.89453 
  986400    319.47112   -38545.052    191.40883   -38736.461    7800.7595 
  986600    298.75421   -38557.618    178.99644   -38736.614    9638.9874 
  986800     290.8048   -38566.775    174.23361   -38741.008    9347.8846 
  987000     300.8126   -38568.047    180.22971   -38748.276    3659.7614 
  987200    336.54409   -38531.905    201.63798   -38733.543   -6890.3875 
  987400    280.56129   -38566.436    168.09628   -38734.532   -4206.8791 
  987600    296.36229   -38557.109    177.56334   -38734.672   -3594.6811 
  987800    326.91605   -38532.376    195.86941   -38728.246   -6822.4642 
  988000    294.46706   -38556.233    176.42782   -38732.661   -11122.563 
  988200    303.94967   -38568.598    182.10926   -38750.707   -3407.6608 
  988400    331.51726   -38538.873    198.62619   -38737.499   -7765.7761 
  988600     293.5604   -38559.137    175.88461   -38735.022   -4944.3138 
  988800    301.66283    -38555.36    180.73912   -38736.099   -4144.9059 
  989000     291.8206   -38592.637    174.84222   -38767.479    -7437.075 
  989200    299.07057   -38562.768    179.18599   -38741.954    3628.3328 
  989400    310.08383   -38549.114     185.7845   -38734.898   -10977.375 
  989600    358.15567   -38529.276     214.5864   -38743.862    -10481.78 
  989800      292.373    -38566.37    175.17318   -38741.543   -5591.6683 
  990000     324.4923   -38548.222    194.41723   -38742.639   -2083.0776 
  990200    297.11087   -38524.589    178.01184   -38702.601    7654.9957 
  990400    319.85696   -38564.047       191.64   -38755.687    1556.6591 
  990600    277.20043   -38563.958    166.08265    -38730.04    6373.5932 
  990800    314.08186   -38538.036    188.17989   -38726.216    3998.9183 
  991000    270.46029   -38572.357    162.04434   -38734.402     13756.83 
  991200    304.08183   -38555.805    182.18844   -38737.993   -3613.1666 
  991400    281.31212   -38551.726    168.54614   -38720.272   -7801.5296 
  991600    286.11977   -38576.513    171.42661    -38747.94   -5663.4635 
  991800    284.64278    -38555.73    170.54168   -38726.271   -2002.9169 
  992000    322.75377   -38519.224     193.3756   -38712.599    1628.2388 
  992200    303.29031   -38553.405    181.71421    -38735.12   -8584.9199 
  992400    298.24787   -38568.573    178.69307   -38747.266   -9344.5134 
  992600    271.87947   -38588.343    162.89463   -38751.237    5317.4279 
  992800    316.41898   -38549.407    189.58016   -38738.988    8434.4547 
  993000    287.59888   -38562.313    172.31281   -38734.625    4612.6415 
  993200    281.53437   -38583.547    168.67929   -38752.227   -1491.7573 
  993400    309.12216   -38542.222    185.20832    -38727.43     3400.467 
  993600    296.85302    -38563.12    177.85735   -38740.978   -2355.1385 
  993800    275.92002   -38580.743     165.3155   -38746.059    1535.5949 
  994000    326.60198   -38542.141    195.68123   -38737.822   -3342.0615 
  994200    297.24153   -38567.713    178.09013   -38745.803   -11498.624 
  994400    316.55074   -38547.384     189.6591   -38737.043   -9986.6107 
  994600    305.70228   -38549.081    183.15933   -38732.241   -4224.4328 
  994800    286.43843   -38572.678    171.61753   -38744.295    8381.0608 
  995000    327.54122   -38542.661    196.24397   -38738.905   -537.37573 
  995200      308.184   -38543.727    184.64623   -38728.373    4058.2783 
  995400    301.37931   -38560.077    180.56925   -38740.646    7756.4018 
  995600    265.22082   -38584.014    158.90515    -38742.92    12766.399 
  995800     283.1068   -38545.329    169.62141   -38714.951    4770.8971 
  996000    296.49834   -38557.939    177.64485   -38735.584   -7455.1254 
  996200    294.91047   -38569.845    176.69349   -38746.538   -4540.0394 
  996400    309.77663   -38547.091    185.60044   -38732.692   -2927.6556 
  996600    250.77475   -38581.114    150.24989   -38731.364   -6037.0749 
  996800    293.42528   -38569.627    175.80365   -38745.431   -8842.0647 
  997000    301.99965   -38551.397    180.94092   -38732.337    -5743.146 
  997200    295.36843   -38554.004    176.96787   -38730.972   -1054.4261 
  997400    298.84503   -38573.655    179.05085   -38752.705   -44.791897 
  997600    301.34045    -38542.58    180.54596   -38723.126    4656.9199 
  997800    324.29349    -38522.77    194.29812   -38717.068    849.84846 
  998000    274.66815   -38570.786    164.56545   -38735.352   -2824.6944 
  998200     274.5491   -38569.236    164.49412    -38733.73    1196.2297 
  998400    324.36624   -38536.041     194.3417   -38730.383   -9327.6979 
  998600    290.73685    -38559.66    174.19289   -38733.853   -3143.7001 
  998800    306.57138   -38564.573    183.68004   -38748.253    12011.059 
  999000    295.05205   -38557.543    176.77832   -38734.321    14755.037 
  999200    311.73642    -38550.79    186.77464   -38737.565    4849.8408 
  999400    284.43948   -38582.336    170.41987   -38752.756     3946.256 
  999600    311.28843   -38559.791    186.50623   -38746.297   -867.29429 
  999800    293.88686   -38557.324     176.0802   -38733.404    2832.7344 
 1000000     308.1809   -38559.637    184.64438   -38744.281     -1806.72 
Loop time of 13432.8 on 8 procs for 1000000 steps with 202 atoms

Performance: 1.608 ns/day, 14.925 hours/ns, 74.445 timesteps/s
99.1% CPU use with 8 MPI tasks x no OpenMP threads

MPI task timing breakdown:
Section |  min time  |  avg time  |  max time  |%varavg| %total
---------------------------------------------------------------
Pair    | 12410      | 12493      | 12571      |  46.7 | 93.01
Neigh   | 15.297     | 15.484     | 15.655     |   3.1 |  0.12
Comm    | 115.56     | 192.95     | 276.84     | 375.6 |  1.44
Output  | 0.14168    | 0.15432    | 0.23102    |   7.4 |  0.00
Modify  | 722.06     | 722.58     | 723.04     |   1.0 |  5.38
Other   |            | 8.175      |            |       |  0.06

Nlocal:    25.25 ave 28 max 22 min
Histogram: 1 0 0 2 0 2 0 0 2 1
Nghost:    1522.75 ave 1556 max 1489 min
Histogram: 2 0 0 0 2 1 1 0 0 2
Neighs:    7883.88 ave 8668 max 6923 min
Histogram: 1 0 0 2 1 1 0 0 2 1

Total # of neighbors = 63071
Ave neighs/atom = 312.233
Neighbor list builds = 3657
Dangerous builds = 0

unfix 1
unfix output
undump 1

Please see the log.cite file for references relevant to this simulation

Total wall time: 3:44:30
