ITEM: TIMESTEP
0
ITEM: NUMBER OF ATOMS
202
ITEM: BOX BOUNDS pp pp pp
0.0000000000000000e+00 1.6114000000000001e+01
0.0000000000000000e+00 1.6113000000000000e+01
0.0000000000000000e+00 1.6111999999999998e+01
ITEM: ATOMS id type x y z 
5 1 5.384 5.384 5.384 
65 1 5.66 6.662 2.461 
66 1 5.336 7.323 3.711 
68 1 4.865 6.606 4.866 
79 1 5.364 7.322 1.219 
89 1 6.662 2.461 5.66 
90 1 7.323 3.711 5.336 
92 1 6.606 4.866 4.866 
101 1 7.322 1.219 5.364 
109 1 2.461 5.66 6.662 
110 1 3.71 5.336 7.323 
112 1 4.865 4.866 6.606 
121 1 1.218 5.364 7.322 
129 1 6.662 5.66 2.461 
130 1 7.323 5.336 3.711 
137 1 7.322 5.364 1.219 
141 1 2.461 6.662 5.66 
142 1 3.71 7.323 5.336 
149 1 1.218 7.322 5.364 
153 1 5.66 2.461 6.662 
154 1 5.336 3.711 7.323 
161 1 5.364 1.219 7.322 
201 2 4.347 4.676 4.896 
202 3 4.347 3.7 4.896 
7 1 6.662 5.66 13.616 
8 1 7.323 5.336 12.366 
10 1 6.606 4.866 11.211 
21 1 7.322 5.364 14.858 
32 1 1.218 7.322 10.713 
40 1 2.461 6.662 10.417 
41 1 3.71 7.323 10.741 
43 1 4.865 6.606 11.211 
47 1 5.364 1.219 8.755 
55 1 5.66 2.461 9.415 
56 1 5.336 3.711 8.754 
58 1 4.865 4.866 9.471 
64 1 5.629 6.643 16.094 
75 1 5.384 5.384 10.693 
118 1 6.643 5.629 16.094 
168 1 5.66 6.662 13.616 
169 1 5.336 7.323 12.366 
176 1 5.364 7.322 14.858 
182 1 7.322 1.219 10.713 
186 1 6.662 2.461 10.417 
187 1 7.323 3.711 10.741 
191 1 1.218 5.364 8.755 
195 1 2.461 5.66 9.415 
196 1 3.71 5.336 8.754 
9 1 7.322 10.713 1.219 
19 1 6.662 10.417 2.461 
20 1 7.323 10.741 3.711 
22 1 6.606 11.211 4.866 
27 1 1.218 8.755 5.364 
35 1 2.461 9.415 5.66 
36 1 3.71 8.754 5.336 
38 1 4.865 9.471 4.866 
44 1 6.643 16.095 5.63 
50 1 5.66 13.616 6.662 
51 1 5.336 12.366 7.323 
53 1 4.865 11.211 6.606 
62 1 5.364 14.858 7.322 
76 1 5.629 16.095 6.643 
81 1 5.384 10.693 5.384 
167 1 5.364 8.755 1.219 
171 1 5.66 9.415 2.461 
172 1 5.336 8.754 3.711 
180 1 6.662 13.616 5.66 
181 1 7.323 12.366 5.336 
188 1 7.322 14.858 5.364 
194 1 1.218 10.713 7.322 
198 1 2.461 10.417 6.662 
199 1 3.71 10.741 7.323 
17 1 5.384 10.693 10.693 
39 1 6.643 16.095 10.448 
49 1 5.629 9.434 16.095 
73 1 5.364 8.755 14.858 
82 1 5.629 16.095 9.434 
83 1 5.66 9.415 13.616 
84 1 5.336 8.754 12.366 
86 1 4.865 9.471 11.211 
91 1 7.322 14.858 10.713 
99 1 6.662 13.616 10.417 
100 1 7.323 12.366 10.741 
102 1 6.606 11.211 11.211 
113 1 6.643 10.448 16.094 
114 1 2.461 10.417 9.415 
115 1 3.71 10.741 8.754 
117 1 4.865 11.211 9.471 
126 1 1.218 10.713 8.755 
131 1 7.322 10.713 14.858 
135 1 6.662 10.417 13.616 
136 1 7.323 10.741 12.366 
144 1 2.461 9.415 10.417 
145 1 3.71 8.754 10.741 
152 1 1.218 8.755 10.713 
158 1 5.364 14.858 8.755 
162 1 5.66 13.616 9.415 
163 1 5.336 12.366 8.754 
3 1 8.755 5.364 1.219 
13 1 9.415 5.66 2.461 
14 1 8.754 5.336 3.711 
16 1 9.471 4.866 4.866 
24 1 16.095 5.629 6.643 
30 1 13.616 6.662 5.66 
31 1 12.367 7.323 5.336 
33 1 11.212 6.606 4.866 
42 1 14.859 7.322 5.364 
52 1 10.713 1.219 7.322 
60 1 10.417 2.461 6.662 
61 1 10.741 3.711 7.323 
63 1 11.212 4.866 6.606 
87 1 10.693 5.384 5.384 
98 1 16.095 6.643 5.63 
170 1 10.713 7.322 1.219 
174 1 10.417 6.662 2.461 
175 1 10.741 7.323 3.711 
179 1 8.755 1.219 5.364 
183 1 9.415 2.461 5.66 
184 1 8.754 3.711 5.336 
192 1 13.616 5.66 6.662 
193 1 12.367 5.336 7.323 
200 1 14.859 5.364 7.322 
6 1 16.096 5.629 9.434 
23 1 10.693 5.384 10.693 
59 1 10.448 6.643 16.095 
67 1 10.713 7.322 14.858 
77 1 10.417 6.662 13.616 
78 1 10.741 7.323 12.366 
80 1 11.212 6.606 11.211 
93 1 16.096 6.643 10.448 
94 1 9.415 2.461 10.417 
95 1 8.754 3.711 10.741 
97 1 9.471 4.866 11.211 
106 1 8.755 1.219 10.713 
116 1 14.859 5.364 8.755 
123 1 9.434 5.629 16.094 
124 1 13.616 5.66 9.415 
125 1 12.367 5.336 8.754 
127 1 11.212 4.866 9.471 
134 1 8.755 5.364 14.858 
138 1 9.415 5.66 13.616 
139 1 8.754 5.336 12.366 
143 1 14.859 7.322 10.713 
147 1 13.616 6.662 10.417 
148 1 12.367 7.323 10.741 
156 1 10.417 2.461 9.415 
157 1 10.741 3.711 8.754 
164 1 10.713 1.219 8.755 
11 1 10.693 10.693 5.384 
18 1 16.096 10.448 6.643 
29 1 9.434 16.095 5.63 
70 1 10.448 16.095 6.643 
71 1 10.417 9.415 2.461 
72 1 10.741 8.754 3.711 
74 1 11.212 9.471 4.866 
85 1 10.713 8.755 1.219 
96 1 8.755 14.858 5.364 
103 1 16.095 9.434 5.63 
104 1 9.415 13.616 5.66 
105 1 8.754 12.366 5.336 
107 1 9.471 11.211 4.866 
111 1 14.859 10.713 7.322 
119 1 13.616 10.417 6.662 
120 1 12.367 10.741 7.323 
122 1 11.212 11.211 6.606 
132 1 9.415 10.417 2.461 
133 1 8.754 10.741 3.711 
140 1 8.755 10.713 1.219 
146 1 14.859 8.755 5.364 
150 1 13.616 9.415 5.66 
151 1 12.367 8.754 5.336 
155 1 10.713 14.858 7.322 
159 1 10.417 13.616 6.662 
160 1 10.741 12.366 7.323 
1 1 9.415 10.417 13.616 
2 1 8.754 10.741 12.366 
4 1 9.471 11.211 11.211 
12 1 16.096 10.448 9.434 
15 1 8.755 10.713 14.858 
25 1 13.616 9.415 10.417 
26 1 12.367 8.754 10.741 
28 1 11.212 9.471 11.211 
34 1 9.434 16.095 10.448 
37 1 14.859 8.755 10.713 
45 1 10.417 13.616 9.415 
46 1 10.741 12.366 8.754 
48 1 11.212 11.211 9.471 
54 1 10.448 9.434 16.094 
57 1 10.713 14.858 8.755 
69 1 10.693 10.693 10.693 
88 1 10.448 16.095 9.434 
108 1 16.096 9.434 10.448 
128 1 9.434 10.448 16.094 
165 1 10.417 9.415 13.616 
166 1 10.741 8.754 12.366 
173 1 10.713 8.755 14.858 
177 1 9.415 13.616 10.417 
178 1 8.754 12.366 10.741 
185 1 8.755 14.858 10.713 
189 1 13.616 10.417 9.415 
190 1 12.367 10.741 8.754 
197 1 14.859 10.713 8.755 
ITEM: TIMESTEP
10
ITEM: NUMBER OF ATOMS
202
ITEM: BOX BOUNDS pp pp pp
0.0000000000000000e+00 1.6114000000000001e+01
0.0000000000000000e+00 1.6113000000000000e+01
0.0000000000000000e+00 1.6111999999999998e+01
ITEM: ATOMS id type x y z 
5 1 5.33547 5.35664 5.34847 
65 1 5.6082 6.61145 2.4301 
66 1 5.37628 7.33036 3.69951 
68 1 4.91639 6.66482 4.91072 
79 1 5.28162 7.31549 1.20686 
89 1 6.61873 2.43159 5.60343 
90 1 7.32666 3.70977 5.36952 
92 1 6.63742 4.90222 4.90025 
101 1 7.31774 1.20465 5.27986 
109 1 2.427 5.60566 6.60969 
110 1 3.70243 5.3864 7.32501 
112 1 4.94889 4.93838 6.69554 
121 1 1.20399 5.27867 7.31568 
129 1 6.61371 5.60586 2.43242 
130 1 7.32516 5.37134 3.70761 
137 1 7.31559 5.28209 1.20788 
141 1 2.43188 6.61537 5.60181 
142 1 3.70435 7.32752 5.37221 
149 1 1.20451 7.3164 5.27997 
153 1 5.6182 2.42782 6.62462 
154 1 5.39128 3.70189 7.33058 
161 1 5.27773 1.1994 7.31797 
201 2 4.27717 4.6004 4.81128 
202 3 4.27091 3.62288 4.81168 
7 1 6.61234 5.60445 13.6465 
8 1 7.32908 5.37264 12.3769 
10 1 6.61254 4.87583 11.2025 
21 1 7.31592 5.28132 14.8711 
32 1 1.20575 7.31636 10.7956 
40 1 2.43018 6.61207 10.4735 
41 1 3.70077 7.32832 10.7047 
43 1 4.8746 6.6128 11.2027 
47 1 5.27948 1.20444 8.76271 
55 1 5.60099 2.43244 9.46581 
56 1 5.36926 3.70323 8.75026 
58 1 4.87286 4.87504 9.46942 
64 1 5.56905 6.58866 16.0946 
75 1 5.35167 5.35208 10.7301 
118 1 6.58928 5.56875 16.0951 
168 1 5.60459 6.61217 13.646 
169 1 5.37253 7.32904 12.3768 
176 1 5.28119 7.31584 14.8712 
182 1 7.31712 1.20447 10.796 
186 1 6.61289 2.43047 10.4755 
187 1 7.32923 3.70289 10.7047 
191 1 1.20564 5.28068 8.76136 
195 1 2.43177 5.60243 9.46496 
196 1 3.70076 5.36904 8.75112 
9 1 7.31555 10.7956 1.20638 
19 1 6.61262 10.4726 2.43087 
20 1 7.32763 10.7057 3.70157 
22 1 6.61097 11.2005 4.87547 
27 1 1.20557 8.76204 5.28079 
35 1 2.43238 9.46453 5.6044 
36 1 3.70104 8.74914 5.37093 
38 1 4.87512 9.46681 4.8756 
44 1 6.5893 16.0938 5.56785 
50 1 5.60494 13.6446 6.612 
51 1 5.37092 12.3741 7.32759 
53 1 4.87466 11.2008 6.61098 
62 1 5.2805 14.8692 7.31618 
76 1 5.56769 16.092 6.58694 
81 1 5.35012 10.7246 5.35016 
167 1 5.2818 8.76038 1.20662 
171 1 5.60428 9.46464 2.43144 
172 1 5.37094 8.7499 3.70065 
180 1 6.61245 13.6454 5.60465 
181 1 7.32746 12.3743 5.37088 
188 1 7.31643 14.8695 5.28096 
194 1 1.20588 10.7957 7.31614 
198 1 2.43042 10.4728 6.61261 
199 1 3.70101 10.7058 7.32778 
17 1 5.35054 10.7263 10.7259 
39 1 6.58949 16.0946 10.5094 
49 1 5.56833 9.48765 16.0956 
73 1 5.28132 8.76141 14.8708 
82 1 5.56823 16.0941 9.48893 
83 1 5.60433 9.46442 13.6463 
84 1 5.37144 8.74882 12.3756 
86 1 4.87492 9.46547 11.2018 
91 1 7.31622 14.8704 10.7956 
99 1 6.61237 13.6465 10.4724 
100 1 7.32837 12.3757 10.7055 
102 1 6.61203 11.2016 11.2013 
113 1 6.58891 10.5085 16.0943 
114 1 2.43023 10.4724 9.46457 
115 1 3.70063 10.7059 8.74888 
117 1 4.87453 11.2019 9.46469 
126 1 1.20544 10.7955 8.7615 
131 1 7.31561 10.7958 14.871 
135 1 6.61217 10.4725 13.6463 
136 1 7.32832 10.7055 12.3755 
144 1 2.43027 9.46511 10.4722 
145 1 3.70051 8.7497 10.7056 
152 1 1.20528 8.76117 10.7956 
158 1 5.28109 14.8703 8.76176 
162 1 5.60464 13.6456 9.46459 
163 1 5.37135 12.3755 8.74819 
3 1 8.76072 5.28209 1.20711 
13 1 9.46258 5.60468 2.43376 
14 1 8.74617 5.37041 3.70142 
16 1 9.4652 4.87588 4.87481 
24 1 16.0942 5.56787 6.58757 
30 1 13.6454 6.61208 5.60463 
31 1 12.3747 7.32722 5.37049 
33 1 11.2011 6.61062 4.87521 
42 1 14.8704 7.31595 5.28081 
52 1 10.7952 1.20656 7.31574 
60 1 10.4716 2.43078 6.61226 
61 1 10.7058 3.7014 7.32769 
63 1 11.2012 4.87516 6.61078 
87 1 10.7235 5.3498 5.34982 
98 1 16.0943 6.58869 5.56798 
170 1 10.7953 7.3155 1.20689 
174 1 10.4713 6.6118 2.43096 
175 1 10.7058 7.32752 3.70145 
179 1 8.76342 1.20672 5.28151 
183 1 9.46386 2.43388 5.60497 
184 1 8.74764 3.70188 5.3704 
192 1 13.6452 5.60484 6.61175 
193 1 12.3744 5.37043 7.32731 
200 1 14.8701 5.28042 7.31562 
6 1 16.0968 5.56802 9.48842 
23 1 10.7264 5.35076 10.726 
59 1 10.5082 6.58871 16.0947 
67 1 10.7957 7.31555 14.871 
77 1 10.4724 6.61236 13.6463 
78 1 10.7056 7.3283 12.3756 
80 1 11.2023 6.61197 11.2017 
93 1 16.0956 6.58922 10.5092 
94 1 9.46525 2.43088 10.472 
95 1 8.75023 3.70106 10.7052 
97 1 9.46548 4.87586 11.2016 
106 1 8.76147 1.20575 10.7957 
116 1 14.8716 5.28068 8.76211 
123 1 9.4876 5.56859 16.0953 
124 1 13.6457 5.60466 9.46506 
125 1 12.376 5.37104 8.74837 
127 1 11.2023 4.87494 9.46468 
134 1 8.76124 5.28145 14.8711 
138 1 9.46462 5.6045 13.6462 
139 1 8.74891 5.37156 12.3757 
143 1 14.8711 7.31636 10.7957 
147 1 13.6471 6.61237 10.4725 
148 1 12.3761 7.32825 10.7059 
156 1 10.4723 2.43057 9.46441 
157 1 10.7057 3.70131 8.74845 
164 1 10.7953 1.20597 8.76102 
11 1 10.7263 10.7261 5.3507 
18 1 16.0954 10.5093 6.58954 
29 1 9.48818 16.095 5.56956 
70 1 10.5084 16.0951 6.58946 
71 1 10.4724 9.4645 2.43082 
72 1 10.7056 8.74838 3.70137 
74 1 11.2024 9.46465 4.87516 
85 1 10.7956 8.76105 1.20625 
96 1 8.76171 14.8711 5.28151 
103 1 16.0956 9.48847 5.56893 
104 1 9.46459 13.6459 5.60465 
105 1 8.74823 12.3757 5.37143 
107 1 9.46449 11.2018 4.87549 
111 1 14.8714 10.7958 7.31628 
119 1 13.6469 10.4726 6.61242 
120 1 12.3764 10.7058 7.32815 
122 1 11.2022 11.2019 6.61211 
132 1 9.46461 10.4724 2.43097 
133 1 8.74862 10.7055 3.70127 
140 1 8.7614 10.7957 1.20616 
146 1 14.8709 8.7617 5.28085 
150 1 13.6461 9.46488 5.60451 
151 1 12.376 8.74836 5.3711 
155 1 10.7955 14.871 7.31594 
159 1 10.4723 13.6464 6.6125 
160 1 10.7055 12.3759 7.32838 
1 1 9.46486 10.4725 13.6462 
2 1 8.74867 10.7055 12.3755 
4 1 9.46512 11.2015 11.2012 
12 1 16.0957 10.5081 9.48817 
15 1 8.76123 10.7958 14.8708 
25 1 13.6468 9.46488 10.4722 
26 1 12.3764 8.74884 10.7058 
28 1 11.2023 9.46507 11.2016 
34 1 9.48826 16.0947 10.5078 
37 1 14.8721 8.76116 10.7956 
45 1 10.4723 13.6466 9.46458 
46 1 10.7056 12.3757 8.74865 
48 1 11.2021 11.2018 9.46507 
54 1 10.5084 9.48814 16.0946 
57 1 10.7954 14.8711 8.76122 
69 1 10.7264 10.7262 10.7261 
88 1 10.508 16.0952 9.48801 
108 1 16.0955 9.48829 10.508 
128 1 9.48817 10.5085 16.0945 
165 1 10.4725 9.46475 13.6461 
166 1 10.7056 8.74859 12.3755 
173 1 10.7958 8.76099 14.8708 
177 1 9.46485 13.6463 10.4722 
178 1 8.74869 12.3758 10.7054 
185 1 8.76128 14.8714 10.7955 
189 1 13.6472 10.4723 9.46474 
190 1 12.3764 10.7058 8.74901 
197 1 14.8718 10.7955 8.76147 
ITEM: TIMESTEP
20
ITEM: NUMBER OF ATOMS
202
ITEM: BOX BOUNDS pp pp pp
0.0000000000000000e+00 1.6114000000000001e+01
0.0000000000000000e+00 1.6113000000000000e+01
0.0000000000000000e+00 1.6111999999999998e+01
ITEM: ATOMS id type x y z 
5 1 5.48098 5.50654 5.48324 
65 1 5.60569 6.62546 2.43517 
66 1 5.35697 7.34208 3.69359 
68 1 4.98294 6.7405 4.97572 
79 1 5.23877 7.30906 1.19522 
89 1 6.62828 2.43118 5.63598 
90 1 7.32083 3.6977 5.3434 
92 1 6.6678 4.95233 4.94805 
101 1 7.30809 1.20035 5.24899 
109 1 2.4585 5.60894 6.63962 
110 1 3.72561 5.34536 7.33524 
112 1 5.01084 5.011 6.71667 
121 1 1.21039 5.25178 7.30203 
129 1 6.62726 5.60302 2.43657 
130 1 7.32895 5.34707 3.69865 
137 1 7.31133 5.23782 1.19949 
141 1 2.43771 6.62322 5.61953 
142 1 3.69421 7.33284 5.34675 
149 1 1.20291 7.30469 5.24957 
153 1 5.6525 2.43606 6.67372 
154 1 5.3571 3.72121 7.3397 
161 1 5.2609 1.19927 7.3112 
201 2 4.01077 4.33512 4.59362 
202 3 4.06205 3.40097 4.62479 
7 1 6.6228 5.61148 13.6559 
8 1 7.33127 5.33658 12.3906 
10 1 6.59665 4.86186 11.217 
21 1 7.31362 5.24091 14.8782 
32 1 1.19602 7.31171 10.8352 
40 1 2.4206 6.62301 10.4669 
41 1 3.68342 7.32683 10.7409 
43 1 4.86055 6.59742 11.2166 
47 1 5.23868 1.18877 8.76327 
55 1 5.60807 2.4108 9.46169 
56 1 5.34458 3.6746 8.76322 
58 1 4.85435 4.85612 9.47598 
64 1 5.53716 6.56752 16.0912 
75 1 5.38171 5.3816 10.6899 
118 1 6.56835 5.53756 16.0918 
168 1 5.61209 6.62104 13.6557 
169 1 5.3362 7.33116 12.39 
176 1 5.24075 7.31351 14.8786 
182 1 7.31317 1.19308 10.8348 
186 1 6.61877 2.41831 10.4648 
187 1 7.32854 3.68646 10.7409 
191 1 1.18817 5.24247 8.75255 
195 1 2.40718 5.60642 9.45954 
196 1 3.67909 5.34565 8.75054 
9 1 7.31702 10.8361 1.19271 
19 1 6.62581 10.4728 2.41663 
20 1 7.33275 10.7393 3.68561 
22 1 6.60204 11.2208 4.85988 
27 1 1.18915 8.75406 5.2437 
35 1 2.40861 9.46004 5.60793 
36 1 3.67811 8.74711 5.3356 
38 1 4.8532 9.48046 4.86315 
44 1 6.57154 16.0985 5.54566 
50 1 5.61395 13.6607 6.62271 
51 1 5.33837 12.3953 7.33066 
53 1 4.85842 11.2201 6.60294 
62 1 5.24569 14.8827 7.31113 
76 1 5.54338 16.0983 6.57112 
81 1 5.38329 10.6951 5.38389 
167 1 5.23826 8.76501 1.18859 
171 1 5.60691 9.47082 2.40751 
172 1 5.33647 8.7576 3.68211 
180 1 6.622 13.6609 5.61412 
181 1 7.33059 12.3947 5.338 
188 1 7.31094 14.886 5.24648 
194 1 1.19197 10.8345 7.3121 
198 1 2.41613 10.4679 6.62243 
199 1 3.68386 10.7392 7.33122 
17 1 5.38423 10.693 10.6937 
39 1 6.5669 16.0932 10.5323 
49 1 5.54181 9.51139 16.0898 
73 1 5.24214 8.76552 14.8799 
82 1 5.54383 16.0897 9.50976 
83 1 5.6139 9.45841 13.656 
84 1 5.33689 8.74825 12.3916 
86 1 4.86202 9.48107 11.2177 
91 1 7.30996 14.881 10.8333 
99 1 6.62153 13.6566 10.4633 
100 1 7.32902 12.393 10.7402 
102 1 6.5985 11.2171 11.2173 
113 1 6.57 10.5363 16.0926 
114 1 2.41974 10.4652 9.45617 
115 1 3.68471 10.7407 8.74875 
117 1 4.86051 11.2179 9.47902 
126 1 1.19419 10.8349 8.76385 
131 1 7.31584 10.8333 14.8789 
135 1 6.6241 10.4647 13.6568 
136 1 7.33032 10.7403 12.3938 
144 1 2.41796 9.45642 10.4649 
145 1 3.68476 8.74705 10.7394 
152 1 1.19497 8.76634 10.8342 
158 1 5.24507 14.8826 8.76238 
162 1 5.61344 13.6573 9.45433 
163 1 5.33677 12.3941 8.74825 
3 1 8.76631 5.24048 1.19377 
13 1 9.45967 5.60821 2.41744 
14 1 8.74389 5.33266 3.68628 
16 1 9.4798 4.85657 4.86322 
24 1 16.0988 5.54402 6.57338 
30 1 13.6602 6.62383 5.61421 
31 1 12.3954 7.33021 5.33678 
33 1 11.2207 6.60045 4.8605 
42 1 14.8833 7.3131 5.24723 
52 1 10.8357 1.19564 7.31069 
60 1 10.4645 2.42053 6.61898 
61 1 10.7393 3.68702 7.33041 
63 1 11.2207 4.86127 6.59972 
87 1 10.6933 5.38305 5.38207 
98 1 16.0994 6.5719 5.54617 
170 1 10.834 7.31459 1.1947 
174 1 10.4679 6.62422 2.41858 
175 1 10.7399 7.33154 3.68727 
179 1 8.75771 1.19434 5.24399 
183 1 9.45201 2.41672 5.60718 
184 1 8.73712 3.68251 5.33129 
192 1 13.6616 5.61398 6.62298 
193 1 12.395 5.33698 7.32897 
200 1 14.8857 5.24781 7.3097 
6 1 16.0964 5.54141 9.50429 
23 1 10.694 5.38467 10.6933 
59 1 10.5371 6.57102 16.0946 
67 1 10.8337 7.3161 14.8804 
77 1 10.4648 6.62249 13.6573 
78 1 10.7406 7.3311 12.3922 
80 1 11.2181 6.59884 11.2172 
93 1 16.0939 6.5669 10.5339 
94 1 9.45307 2.41896 10.4675 
95 1 8.74705 3.68691 10.7396 
97 1 9.47984 4.86158 11.2181 
106 1 8.7636 1.19598 10.8345 
116 1 14.8825 5.24358 8.75907 
123 1 9.50992 5.54124 16.0933 
124 1 13.6578 5.61192 9.45308 
125 1 12.3938 5.33616 8.74568 
127 1 11.2182 4.86116 9.47914 
134 1 8.76506 5.24205 14.8794 
138 1 9.45593 5.61271 13.6549 
139 1 8.74773 5.3369 12.3925 
143 1 14.882 7.31108 10.8337 
147 1 13.6572 6.62174 10.4647 
148 1 12.3921 7.3308 10.741 
156 1 10.4663 2.42176 9.45697 
157 1 10.7408 3.68724 8.74758 
164 1 10.8367 1.19607 8.76431 
11 1 10.6935 10.6924 5.38404 
18 1 16.0935 10.5338 6.56922 
29 1 9.50419 16.0959 5.5392 
70 1 10.5354 16.0941 6.56668 
71 1 10.4636 9.45561 2.41983 
72 1 10.741 8.74894 3.68448 
74 1 11.2187 9.47852 4.86099 
85 1 10.8328 8.76491 1.19449 
96 1 8.7607 14.8814 5.24433 
103 1 16.0921 9.50615 5.54238 
104 1 9.45233 13.6577 5.61141 
105 1 8.74757 12.3928 5.33637 
107 1 9.47971 11.217 4.86092 
111 1 14.8813 10.8324 7.31137 
119 1 13.6579 10.463 6.62215 
120 1 12.3941 10.7407 7.32986 
122 1 11.2184 11.216 6.59815 
132 1 9.45516 10.4638 2.41889 
133 1 8.75107 10.7404 3.68407 
140 1 8.76717 10.8327 1.19461 
146 1 14.8815 8.7608 5.24613 
150 1 13.6584 9.45234 5.61307 
151 1 12.3942 8.74647 5.33574 
155 1 10.835 14.8805 7.31065 
159 1 10.464 13.6557 6.62015 
160 1 10.7407 12.3907 7.3298 
1 1 9.45364 10.4637 13.6591 
2 1 8.74704 10.7402 12.393 
4 1 9.47914 11.2157 11.2177 
12 1 16.0946 10.5357 9.50829 
15 1 8.76491 10.8316 14.8818 
25 1 13.6556 9.455 10.4653 
26 1 12.3921 8.74594 10.7409 
28 1 11.2172 9.4785 11.2176 
34 1 9.50649 16.0966 10.5389 
37 1 14.8828 8.7637 10.8347 
45 1 10.4665 13.6548 9.45597 
46 1 10.7409 12.3897 8.74515 
48 1 11.2181 11.2158 9.47937 
54 1 10.5338 9.50698 16.0923 
57 1 10.8366 14.8807 8.76346 
69 1 10.6928 10.693 10.6931 
88 1 10.5378 16.0948 9.50935 
108 1 16.0958 9.50868 10.5357 
128 1 9.50728 10.5336 16.0926 
165 1 10.4639 9.45382 13.6589 
166 1 10.7406 8.74732 12.3931 
173 1 10.8317 8.76529 14.8822 
177 1 9.45395 13.6556 10.4672 
178 1 8.74554 12.3905 10.7404 
185 1 8.76238 14.8807 10.8357 
189 1 13.6568 10.4658 9.45405 
190 1 12.3925 10.7408 8.74499 
197 1 14.882 10.8342 8.76196 
ITEM: TIMESTEP
30
ITEM: NUMBER OF ATOMS
202
ITEM: BOX BOUNDS pp pp pp
0.0000000000000000e+00 1.6114000000000001e+01
0.0000000000000000e+00 1.6113000000000000e+01
0.0000000000000000e+00 1.6111999999999998e+01
ITEM: ATOMS id type x y z 
5 1 5.48741 5.51416 5.48463 
65 1 5.60735 6.62265 2.42972 
66 1 5.35774 7.34346 3.69406 
68 1 4.98175 6.73153 4.97467 
79 1 5.23943 7.30832 1.1982 
89 1 6.62975 2.42816 5.63506 
90 1 7.32087 3.69712 5.34418 
92 1 6.66441 4.94974 4.949 
101 1 7.30592 1.2012 5.2503 
109 1 2.45159 5.6111 6.6344 
110 1 3.72411 5.34816 7.335 
112 1 5.01094 5.00016 6.7159 
121 1 1.2098 5.25215 7.30067 
129 1 6.62147 5.60597 2.42968 
130 1 7.33076 5.34746 3.69966 
137 1 7.30949 5.23854 1.19831 
141 1 2.43306 6.61921 5.62135 
142 1 3.69602 7.33195 5.3477 
149 1 1.2038 7.30369 5.25009 
153 1 5.65112 2.44147 6.67124 
154 1 5.35953 3.7213 7.34039 
161 1 5.26012 1.19572 7.31567 
201 2 4.00858 4.33076 4.59224 
202 3 4.06056 3.40268 4.62346 
7 1 6.62055 5.61222 13.6573 
8 1 7.32828 5.33618 12.3904 
10 1 6.59822 4.86029 11.2153 
21 1 7.31374 5.24027 14.8804 
32 1 1.1923 7.31248 10.8348 
40 1 2.41665 6.62007 10.4659 
41 1 3.68571 7.32901 10.7417 
43 1 4.86055 6.59851 11.2158 
47 1 5.23978 1.1873 8.76292 
55 1 5.60779 2.40352 9.46329 
56 1 5.3427 3.67796 8.75815 
58 1 4.85539 4.85757 9.47747 
64 1 5.5374 6.56591 16.0919 
75 1 5.38004 5.3807 10.6911 
118 1 6.5682 5.5371 16.0941 
168 1 5.612 6.62061 13.657 
169 1 5.33594 7.32911 12.3907 
176 1 5.24041 7.31371 14.8789 
182 1 7.30998 1.1929 10.8334 
186 1 6.62198 2.4164 10.467 
187 1 7.3268 3.68431 10.7411 
191 1 1.18957 5.24246 8.75308 
195 1 2.40601 5.60648 9.45951 
196 1 3.67702 5.34458 8.75751 
9 1 7.31669 10.8359 1.19004 
19 1 6.62467 10.4723 2.41549 
20 1 7.33055 10.7404 3.68594 
22 1 6.60165 11.2187 4.85973 
27 1 1.1883 8.75696 5.24454 
35 1 2.40696 9.45986 5.60812 
36 1 3.67483 8.7544 5.33544 
38 1 4.85586 9.48025 4.86133 
44 1 6.56984 16.0997 5.54619 
50 1 5.61444 13.6624 6.62164 
51 1 5.33748 12.395 7.32821 
53 1 4.85914 11.2191 6.60267 
62 1 5.24596 14.8859 7.31231 
76 1 5.54409 16.0971 6.5709 
81 1 5.38245 10.6966 5.38323 
167 1 5.23856 8.76524 1.18957 
171 1 5.60571 9.46847 2.40949 
172 1 5.33602 8.76463 3.67852 
180 1 6.62157 13.6633 5.61431 
181 1 7.32765 12.3953 5.3375 
188 1 7.31063 14.886 5.24671 
194 1 1.19077 10.8346 7.31284 
198 1 2.41541 10.4669 6.62089 
199 1 3.68347 10.74 7.32876 
17 1 5.38299 10.6952 10.6943 
39 1 6.569 16.0946 10.5344 
49 1 5.54206 9.51291 16.09 
73 1 5.2422 8.76587 14.8793 
82 1 5.54188 16.0914 9.50819 
83 1 5.61332 9.45802 13.6581 
84 1 5.33648 8.75003 12.3925 
86 1 4.85937 9.47793 11.2162 
91 1 7.31066 14.8827 10.833 
99 1 6.62013 13.66 10.463 
100 1 7.32736 12.3926 10.7405 
102 1 6.59916 11.2162 11.2171 
113 1 6.57122 10.537 16.0923 
114 1 2.41638 10.4658 9.45595 
115 1 3.68459 10.741 8.74989 
117 1 4.86088 11.2172 9.4783 
126 1 1.19306 10.8343 8.76486 
131 1 7.315 10.8331 14.8823 
135 1 6.62243 10.4644 13.66 
136 1 7.32893 10.741 12.3925 
144 1 2.41849 9.45599 10.4654 
145 1 3.68515 8.74848 10.7406 
152 1 1.1936 8.76429 10.8344 
158 1 5.24559 14.8819 8.76103 
162 1 5.61323 13.6621 9.4546 
163 1 5.33624 12.3934 8.74932 
3 1 8.76596 5.24017 1.19334 
13 1 9.46011 5.60856 2.41871 
14 1 8.7514 5.33211 3.68484 
16 1 9.47738 4.85694 4.86215 
24 1 16.1025 5.54476 6.57138 
30 1 13.663 6.62186 5.61478 
31 1 12.3949 7.32755 5.33628 
33 1 11.2188 6.60009 4.86055 
42 1 14.8859 7.31164 5.24736 
52 1 10.8355 1.19459 7.30996 
60 1 10.4639 2.41988 6.61816 
61 1 10.7399 3.68645 7.32765 
63 1 11.2184 4.86063 6.59963 
87 1 10.6946 5.38188 5.38126 
98 1 16.0983 6.57065 5.54639 
170 1 10.8343 7.3152 1.1932 
174 1 10.4667 6.62259 2.41823 
175 1 10.7403 7.32952 3.68628 
179 1 8.75722 1.19299 5.2433 
183 1 9.45315 2.41739 5.60806 
184 1 8.74071 3.68157 5.33076 
192 1 13.6626 5.61481 6.6209 
193 1 12.3954 5.33667 7.32683 
200 1 14.8866 5.24675 7.31059 
6 1 16.0939 5.54187 9.50551 
23 1 10.6953 5.38311 10.6946 
59 1 10.5366 6.57032 16.093 
67 1 10.8331 7.31439 14.8822 
77 1 10.465 6.62242 13.6599 
78 1 10.7408 7.3287 12.3931 
80 1 11.2165 6.59934 11.2175 
93 1 16.0959 6.56707 10.5341 
94 1 9.45502 2.41982 10.4663 
95 1 8.74691 3.68657 10.7401 
97 1 9.47887 4.86045 11.216 
106 1 8.7622 1.19418 10.8355 
116 1 14.8832 5.2442 8.76162 
123 1 9.51167 5.54206 16.0919 
124 1 13.6613 5.61257 9.45427 
125 1 12.3939 5.3357 8.74836 
127 1 11.218 4.86185 9.4781 
134 1 8.7665 5.24225 14.881 
138 1 9.4581 5.6134 13.6591 
139 1 8.74969 5.33658 12.3919 
143 1 14.8833 7.3115 10.8337 
147 1 13.6596 6.61977 10.4636 
148 1 12.3933 7.32768 10.7409 
156 1 10.4659 2.41956 9.45786 
157 1 10.7409 3.6863 8.74861 
164 1 10.8365 1.19528 8.76517 
11 1 10.695 10.6936 5.38273 
18 1 16.0938 10.5329 6.56739 
29 1 9.5058 16.0945 5.54035 
70 1 10.5346 16.0944 6.56509 
71 1 10.4639 9.45563 2.41641 
72 1 10.7413 8.75033 3.68426 
74 1 11.2174 9.47786 4.86067 
85 1 10.8319 8.7663 1.19335 
96 1 8.76092 14.8837 5.24427 
103 1 16.0939 9.50655 5.54286 
104 1 9.4543 13.6605 5.61218 
105 1 8.74911 12.3924 5.33596 
107 1 9.47893 11.2164 4.8613 
111 1 14.8827 10.8325 7.3119 
119 1 13.6608 10.462 6.61994 
120 1 12.3941 10.7408 7.32698 
122 1 11.2173 11.2155 6.59839 
132 1 9.45659 10.4634 2.41613 
133 1 8.75121 10.7406 3.68424 
140 1 8.76711 10.8325 1.19259 
146 1 14.8832 8.76164 5.24581 
150 1 13.661 9.45474 5.61417 
151 1 12.3941 8.74894 5.33549 
155 1 10.8349 14.8815 7.31009 
159 1 10.4637 13.658 6.61916 
160 1 10.7407 12.3915 7.32708 
1 1 9.45561 10.4623 13.6607 
2 1 8.74951 10.7403 12.3939 
4 1 9.47808 11.2155 11.2171 
12 1 16.0947 10.5363 9.50761 
15 1 8.76492 10.8316 14.8829 
25 1 13.6601 9.45625 10.4647 
26 1 12.3922 8.74929 10.7412 
28 1 11.2162 9.47817 11.2173 
34 1 9.50819 16.094 10.5378 
37 1 14.8828 8.76445 10.8341 
45 1 10.4662 13.6573 9.45684 
46 1 10.7411 12.3905 8.74817 
48 1 11.2171 11.2155 9.47869 
54 1 10.5332 9.50817 16.0944 
57 1 10.8363 14.8816 8.76458 
69 1 10.6945 10.6939 10.6946 
88 1 10.5371 16.0947 9.51064 
108 1 16.0951 9.5092 10.5359 
128 1 9.50856 10.5328 16.0934 
165 1 10.4624 9.45596 13.6607 
166 1 10.7408 8.74962 12.3937 
173 1 10.8319 8.76501 14.8829 
177 1 9.45521 13.6583 10.4667 
178 1 8.748 12.3906 10.7409 
185 1 8.76245 14.8827 10.8354 
189 1 13.6605 10.4651 9.45535 
190 1 12.393 10.741 8.74839 
197 1 14.8831 10.8337 8.76322 
ITEM: TIMESTEP
32
ITEM: NUMBER OF ATOMS
202
ITEM: BOX BOUNDS pp pp pp
0.0000000000000000e+00 1.6114000000000001e+01
0.0000000000000000e+00 1.6113000000000000e+01
0.0000000000000000e+00 1.6111999999999998e+01
ITEM: ATOMS id type x y z 
5 1 5.48741 5.51416 5.48463 
65 1 5.60735 6.62265 2.42972 
66 1 5.35774 7.34346 3.69406 
68 1 4.98175 6.73153 4.97467 
79 1 5.23943 7.30832 1.1982 
89 1 6.62975 2.42816 5.63506 
90 1 7.32087 3.69712 5.34418 
92 1 6.66441 4.94974 4.949 
101 1 7.30592 1.2012 5.2503 
109 1 2.45159 5.6111 6.6344 
110 1 3.72411 5.34816 7.335 
112 1 5.01093 5.00016 6.7159 
121 1 1.2098 5.25215 7.30067 
129 1 6.62147 5.60597 2.42968 
130 1 7.33076 5.34746 3.69966 
137 1 7.30949 5.23854 1.19831 
141 1 2.43306 6.61921 5.62134 
142 1 3.69602 7.33195 5.3477 
149 1 1.2038 7.30369 5.25009 
153 1 5.65112 2.44147 6.67124 
154 1 5.35953 3.7213 7.34039 
161 1 5.26012 1.19572 7.31567 
201 2 4.00858 4.33076 4.59224 
202 3 4.06056 3.40268 4.62346 
7 1 6.62055 5.61222 13.6573 
8 1 7.32828 5.33618 12.3904 
10 1 6.59822 4.86029 11.2153 
21 1 7.31374 5.24027 14.8804 
32 1 1.1923 7.31248 10.8348 
40 1 2.41665 6.62007 10.4659 
41 1 3.6857 7.32901 10.7417 
43 1 4.86055 6.59851 11.2158 
47 1 5.23978 1.1873 8.76292 
55 1 5.60779 2.40352 9.46329 
56 1 5.3427 3.67796 8.75815 
58 1 4.85539 4.85757 9.47747 
64 1 5.5374 6.56591 16.0919 
75 1 5.38004 5.3807 10.6911 
118 1 6.5682 5.5371 16.0941 
168 1 5.612 6.62061 13.657 
169 1 5.33594 7.32911 12.3907 
176 1 5.24041 7.31371 14.8789 
182 1 7.30998 1.1929 10.8334 
186 1 6.62198 2.4164 10.467 
187 1 7.3268 3.68431 10.7411 
191 1 1.18957 5.24246 8.75308 
195 1 2.40601 5.60648 9.45951 
196 1 3.67703 5.34458 8.75751 
9 1 7.31669 10.8359 1.19004 
19 1 6.62468 10.4723 2.41549 
20 1 7.33055 10.7404 3.68594 
22 1 6.60165 11.2187 4.85973 
27 1 1.1883 8.75696 5.24454 
35 1 2.40696 9.45986 5.60812 
36 1 3.67483 8.7544 5.33544 
38 1 4.85586 9.48025 4.86133 
44 1 6.56984 16.0997 5.54619 
50 1 5.61444 13.6624 6.62164 
51 1 5.33748 12.395 7.32821 
53 1 4.85914 11.2191 6.60267 
62 1 5.24596 14.8859 7.31231 
76 1 5.54409 16.0971 6.5709 
81 1 5.38245 10.6966 5.38323 
167 1 5.23857 8.76524 1.18957 
171 1 5.60571 9.46847 2.40949 
172 1 5.33602 8.76463 3.67852 
180 1 6.62157 13.6633 5.61431 
181 1 7.32765 12.3953 5.3375 
188 1 7.31063 14.886 5.24671 
194 1 1.19077 10.8346 7.31284 
198 1 2.41541 10.4669 6.62089 
199 1 3.68347 10.74 7.32876 
17 1 5.38299 10.6952 10.6943 
39 1 6.569 16.0946 10.5344 
49 1 5.54206 9.51291 16.09 
73 1 5.2422 8.76587 14.8793 
82 1 5.54188 16.0914 9.50819 
83 1 5.61332 9.45803 13.6581 
84 1 5.33648 8.75003 12.3925 
86 1 4.85937 9.47793 11.2162 
91 1 7.31066 14.8827 10.833 
99 1 6.62013 13.66 10.463 
100 1 7.32736 12.3926 10.7405 
102 1 6.59916 11.2162 11.2171 
113 1 6.57122 10.537 16.0923 
114 1 2.41638 10.4658 9.45595 
115 1 3.68459 10.741 8.74989 
117 1 4.86088 11.2172 9.4783 
126 1 1.19306 10.8343 8.76486 
131 1 7.315 10.8331 14.8823 
135 1 6.62243 10.4644 13.66 
136 1 7.32893 10.741 12.3925 
144 1 2.41849 9.45599 10.4654 
145 1 3.68515 8.74848 10.7406 
152 1 1.1936 8.76429 10.8344 
158 1 5.24559 14.8819 8.76103 
162 1 5.61323 13.6621 9.4546 
163 1 5.33623 12.3934 8.74932 
3 1 8.76596 5.24017 1.19334 
13 1 9.46011 5.60856 2.41871 
14 1 8.7514 5.33211 3.68484 
16 1 9.47738 4.85694 4.86215 
24 1 16.1025 5.54476 6.57138 
30 1 13.663 6.62186 5.61478 
31 1 12.3949 7.32755 5.33628 
33 1 11.2188 6.60009 4.86055 
42 1 14.8859 7.31164 5.24736 
52 1 10.8355 1.19459 7.30996 
60 1 10.4639 2.41988 6.61816 
61 1 10.7399 3.68645 7.32765 
63 1 11.2184 4.86063 6.59963 
87 1 10.6946 5.38188 5.38126 
98 1 16.0983 6.57065 5.54639 
170 1 10.8343 7.3152 1.1932 
174 1 10.4667 6.62259 2.41823 
175 1 10.7403 7.32952 3.68628 
179 1 8.75722 1.19299 5.2433 
183 1 9.45315 2.41739 5.60806 
184 1 8.74071 3.68157 5.33076 
192 1 13.6626 5.61481 6.62091 
193 1 12.3954 5.33667 7.32683 
200 1 14.8866 5.24675 7.31059 
6 1 16.0939 5.54187 9.50551 
23 1 10.6953 5.38311 10.6946 
59 1 10.5366 6.57032 16.093 
67 1 10.8331 7.31439 14.8822 
77 1 10.465 6.62242 13.6599 
78 1 10.7408 7.3287 12.3931 
80 1 11.2165 6.59934 11.2175 
93 1 16.0959 6.56707 10.5341 
94 1 9.45502 2.41982 10.4663 
95 1 8.74691 3.68657 10.7401 
97 1 9.47887 4.86045 11.216 
106 1 8.7622 1.19418 10.8355 
116 1 14.8832 5.2442 8.76162 
123 1 9.51167 5.54206 16.0919 
124 1 13.6613 5.61257 9.45427 
125 1 12.3939 5.3357 8.74836 
127 1 11.218 4.86185 9.4781 
134 1 8.7665 5.24225 14.881 
138 1 9.4581 5.6134 13.6591 
139 1 8.74969 5.33658 12.3919 
143 1 14.8833 7.3115 10.8337 
147 1 13.6596 6.61977 10.4636 
148 1 12.3933 7.32768 10.7409 
156 1 10.4659 2.41956 9.45786 
157 1 10.7409 3.6863 8.74861 
164 1 10.8365 1.19528 8.76517 
11 1 10.695 10.6936 5.38273 
18 1 16.0938 10.5329 6.56739 
29 1 9.5058 16.0945 5.54035 
70 1 10.5346 16.0944 6.56509 
71 1 10.4639 9.45563 2.41641 
72 1 10.7413 8.75033 3.68426 
74 1 11.2174 9.47786 4.86067 
85 1 10.8319 8.7663 1.19335 
96 1 8.76092 14.8837 5.24427 
103 1 16.0939 9.50655 5.54286 
104 1 9.4543 13.6605 5.61218 
105 1 8.74911 12.3924 5.33596 
107 1 9.47893 11.2164 4.8613 
111 1 14.8827 10.8325 7.3119 
119 1 13.6608 10.462 6.61994 
120 1 12.3941 10.7408 7.32698 
122 1 11.2173 11.2155 6.59839 
132 1 9.45659 10.4634 2.41613 
133 1 8.75121 10.7406 3.68424 
140 1 8.76711 10.8325 1.19259 
146 1 14.8832 8.76164 5.24581 
150 1 13.661 9.45474 5.61417 
151 1 12.3941 8.74894 5.33549 
155 1 10.8349 14.8815 7.31009 
159 1 10.4637 13.658 6.61916 
160 1 10.7407 12.3915 7.32708 
1 1 9.45561 10.4623 13.6607 
2 1 8.74951 10.7403 12.3939 
4 1 9.47807 11.2155 11.2171 
12 1 16.0947 10.5363 9.50761 
15 1 8.76492 10.8316 14.8829 
25 1 13.6601 9.45625 10.4647 
26 1 12.3922 8.74929 10.7412 
28 1 11.2162 9.47817 11.2173 