LAMMPS (3 Mar 2020)
Reading data file ...
  orthogonal box = (0 0 0) to (21.884 21.886 21.885)
  2 by 2 by 2 MPI processor grid
  reading atoms ...
  145 atoms
  read_data CPU = 0.0117477 secs
WARNING: Changed valency_val to valency_boc for X (../reaxc_ffield.cpp:315)
WARNING: Using 'neigh_modify every 1 delay 0 check yes' setting during minimization (../min.cpp:190)
Neighbor list info ...
  update every 1 steps, delay 0 steps, check yes
  max neighbors/atom: 2000, page size: 100000
  master list distance cutoff = 12
  ghost atom cutoff = 12
  binsize = 6, bins = 4 4 4
  2 neighbor lists, perpetual/occasional/extra = 2 0 0
  (1) pair reax/c, perpetual
      attributes: half, newton off, ghost
      pair build: half/bin/newtoff/ghost
      stencil: half/ghost/bin/3d/newtoff
      bin: standard
  (2) fix qeq/reax, perpetual, copy from (1)
      attributes: half, newton off, ghost
      pair build: copy
      stencil: none
      bin: none
Setting up cg style minimization ...
  Unit style    : real
  Current step  : 0
Per MPI rank memory allocation (min/avg/max) = 16.9 | 17.94 | 21.02 Mbytes
Step Temp E_pair E_mol TotEng Press 
       0            0   -25550.705            0   -25550.705    -31935.44 
      49            0   -25714.008            0   -25714.008   -4053.3254 
Loop time of 1.36993 on 8 procs for 49 steps with 145 atoms

99.3% CPU use with 8 MPI tasks x no OpenMP threads

Minimization stats:
  Stopping criterion = linesearch alpha is zero
  Energy initial, next-to-last, final = 
        -25550.7046435     -25714.0082775     -25714.0082778
  Force two-norm initial, final = 2097.67 112.12
  Force max component initial, final = 389.602 82.2317
  Final line search alpha, max atom move = 5.66281e-13 4.65662e-11
  Iterations, force evaluations = 49 400

MPI task timing breakdown:
Section |  min time  |  avg time  |  max time  |%varavg| %total
---------------------------------------------------------------
Pair    | 0.50188    | 0.64306    | 1.0581     |  29.7 | 46.94
Neigh   | 0          | 0          | 0          |   0.0 |  0.00
Comm    | 0.012788   | 0.4241     | 0.56806    |  36.2 | 30.96
Output  | 0.00025815 | 0.00028411 | 0.00037429 |   0.0 |  0.02
Modify  | 0.29609    | 0.29639    | 0.29666    |   0.0 | 21.64
Other   |            | 0.006085   |            |       |  0.44

Nlocal:    18.125 ave 73 max 0 min
Histogram: 6 0 0 0 0 0 0 0 0 2
Nghost:    578.125 ave 659 max 550 min
Histogram: 6 0 0 0 0 0 0 0 0 2
Neighs:    1126.5 ave 4540 max 0 min
Histogram: 6 0 0 0 0 0 0 0 0 2

Total # of neighbors = 9012
Ave neighs/atom = 62.1517
Neighbor list builds = 0
Dangerous builds = 0
WARNING: Using 'neigh_modify every 1 delay 0 check yes' setting during minimization (../min.cpp:190)
Setting up cg style minimization ...
  Unit style    : real
  Current step  : 49
Per MPI rank memory allocation (min/avg/max) = 16.9 | 17.94 | 21.02 Mbytes
Step Temp E_pair E_mol TotEng Press 
      49            0   -25714.008            0   -25714.008   -4053.3253 
      50            0   -25714.008            0   -25714.008   -4053.3255 
Loop time of 0.178361 on 8 procs for 1 steps with 145 atoms

99.4% CPU use with 8 MPI tasks x no OpenMP threads

Minimization stats:
  Stopping criterion = linesearch alpha is zero
  Energy initial, next-to-last, final = 
        -25714.0082774     -25714.0082774     -25714.0082778
  Force two-norm initial, final = 112.12 112.12
  Force max component initial, final = 82.2314 82.2316
  Final line search alpha, max atom move = 5.66281e-13 4.65662e-11
  Iterations, force evaluations = 1 56

MPI task timing breakdown:
Section |  min time  |  avg time  |  max time  |%varavg| %total
---------------------------------------------------------------
Pair    | 0.06839    | 0.088941   | 0.14944    |  11.6 | 49.87
Neigh   | 0          | 0          | 0          |   0.0 |  0.00
Comm    | 0.0014871  | 0.06155    | 0.082319   |  13.9 | 34.51
Output  | 0          | 0          | 0          |   0.0 |  0.00
Modify  | 0.027037   | 0.027086   | 0.027119   |   0.0 | 15.19
Other   |            | 0.0007838  |            |       |  0.44

Nlocal:    18.125 ave 73 max 0 min
Histogram: 6 0 0 0 0 0 0 0 0 2
Nghost:    578.125 ave 659 max 550 min
Histogram: 6 0 0 0 0 0 0 0 0 2
Neighs:    1126 ave 4538 max 0 min
Histogram: 6 0 0 0 0 0 0 0 0 2

Total # of neighbors = 9008
Ave neighs/atom = 62.1241
Neighbor list builds = 0
Dangerous builds = 0
WARNING: Using 'neigh_modify every 1 delay 0 check yes' setting during minimization (../min.cpp:190)
Setting up cg style minimization ...
  Unit style    : real
  Current step  : 50
WARNING: Energy due to 3 extra global DOFs will be included in minimizer energies
Per MPI rank memory allocation (min/avg/max) = 16.9 | 17.94 | 21.02 Mbytes
Step Temp E_pair E_mol TotEng Press Volume 
      50            0   -25714.008            0   -25714.008   -4053.3252    10481.891 
      53            0    -25714.08            0    -25714.08   -874.80605    10477.839 
Loop time of 0.162458 on 8 procs for 3 steps with 145 atoms

99.2% CPU use with 8 MPI tasks x no OpenMP threads

Minimization stats:
  Stopping criterion = linesearch alpha is zero
  Energy initial, next-to-last, final = 
        -25714.0082778     -25714.0801296     -25714.0801297
  Force two-norm initial, final = 1085.69 266.15
  Force max component initial, final = 709.181 166.212
  Final line search alpha, max atom move = 1.43443e-13 2.38419e-11
  Iterations, force evaluations = 3 51

MPI task timing breakdown:
Section |  min time  |  avg time  |  max time  |%varavg| %total
---------------------------------------------------------------
Pair    | 0.064001   | 0.083088   | 0.1391     |  11.2 | 51.14
Neigh   | 0          | 0          | 0          |   0.0 |  0.00
Comm    | 0.001257   | 0.057091   | 0.076334   |  13.5 | 35.14
Output  | 0          | 0          | 0          |   0.0 |  0.00
Modify  | 0.021218   | 0.021259   | 0.021295   |   0.0 | 13.09
Other   |            | 0.00102    |            |       |  0.63

Nlocal:    18.125 ave 73 max 0 min
Histogram: 6 0 0 0 0 0 0 0 0 2
Nghost:    578.125 ave 659 max 550 min
Histogram: 6 0 0 0 0 0 0 0 0 2
Neighs:    1126 ave 4538 max 0 min
Histogram: 6 0 0 0 0 0 0 0 0 2

Total # of neighbors = 9008
Ave neighs/atom = 62.1241
Neighbor list builds = 0
Dangerous builds = 0
WARNING: Using 'neigh_modify every 1 delay 0 check yes' setting during minimization (../min.cpp:190)
Setting up cg style minimization ...
  Unit style    : real
  Current step  : 53
Per MPI rank memory allocation (min/avg/max) = 16.9 | 17.94 | 21.02 Mbytes
Step Temp E_pair E_mol TotEng Press 
      53            0    -25714.08            0    -25714.08   -874.80616 
      59            0   -25714.305            0   -25714.305   -3105.9197 
Loop time of 0.354601 on 8 procs for 6 steps with 145 atoms

99.3% CPU use with 8 MPI tasks x no OpenMP threads

Minimization stats:
  Stopping criterion = energy tolerance
  Energy initial, next-to-last, final = 
        -25714.0801296     -25714.3054755     -25714.3054758
  Force two-norm initial, final = 124.874 127.93
  Force max component initial, final = 30.1745 71.352
  Final line search alpha, max atom move = 1.72239e-12 1.22896e-10
  Iterations, force evaluations = 6 108

MPI task timing breakdown:
Section |  min time  |  avg time  |  max time  |%varavg| %total
---------------------------------------------------------------
Pair    | 0.13195    | 0.17069    | 0.28488    |  15.8 | 48.14
Neigh   | 0          | 0          | 0          |   0.0 |  0.00
Comm    | 0.0027538  | 0.11622    | 0.15554    |  19.1 | 32.77
Output  | 0          | 0          | 0          |   0.0 |  0.00
Modify  | 0.066292   | 0.066378   | 0.066457   |   0.0 | 18.72
Other   |            | 0.00131    |            |       |  0.37

Nlocal:    18.125 ave 73 max 0 min
Histogram: 6 0 0 0 0 0 0 0 0 2
Nghost:    578.125 ave 659 max 550 min
Histogram: 6 0 0 0 0 0 0 0 0 2
Neighs:    1126 ave 4538 max 0 min
Histogram: 6 0 0 0 0 0 0 0 0 2

Total # of neighbors = 9008
Ave neighs/atom = 62.1241
Neighbor list builds = 0
Dangerous builds = 0
WARNING: Using 'neigh_modify every 1 delay 0 check yes' setting during minimization (../min.cpp:190)
Setting up cg style minimization ...
  Unit style    : real
  Current step  : 59
WARNING: Energy due to 3 extra global DOFs will be included in minimizer energies
Per MPI rank memory allocation (min/avg/max) = 16.9 | 17.94 | 21.02 Mbytes
Step Temp E_pair E_mol TotEng Press Volume 
      59            0   -25714.305            0   -25714.305   -3105.9199    10477.839 
      61            0   -25714.355            0   -25714.355   -1104.3731     10475.29 
Loop time of 0.146684 on 8 procs for 2 steps with 145 atoms

99.4% CPU use with 8 MPI tasks x no OpenMP threads

Minimization stats:
  Stopping criterion = linesearch alpha is zero
  Energy initial, next-to-last, final = 
         -25714.305477     -25714.3545334     -25714.3545307
  Force two-norm initial, final = 843.26 322.758
  Force max component initial, final = 585.254 187.263
  Final line search alpha, max atom move = 6.36589e-14 1.19209e-11
  Iterations, force evaluations = 2 47

MPI task timing breakdown:
Section |  min time  |  avg time  |  max time  |%varavg| %total
---------------------------------------------------------------
Pair    | 0.057844   | 0.075137   | 0.12541    |  10.6 | 51.22
Neigh   | 0          | 0          | 0          |   0.0 |  0.00
Comm    | 0.0011223  | 0.051263   | 0.068544   |  12.8 | 34.95
Output  | 6.1195e-05 | 6.5863e-05 | 7.7956e-05 |   0.0 |  0.04
Modify  | 0.019248   | 0.019278   | 0.019313   |   0.0 | 13.14
Other   |            | 0.0009398  |            |       |  0.64

Nlocal:    18.125 ave 73 max 0 min
Histogram: 6 0 0 0 0 0 0 0 0 2
Nghost:    578.125 ave 659 max 550 min
Histogram: 6 0 0 0 0 0 0 0 0 2
Neighs:    1126 ave 4538 max 0 min
Histogram: 6 0 0 0 0 0 0 0 0 2

Total # of neighbors = 9008
Ave neighs/atom = 62.1241
Neighbor list builds = 0
Dangerous builds = 0
WARNING: Using 'neigh_modify every 1 delay 0 check yes' setting during minimization (../min.cpp:190)
Setting up cg style minimization ...
  Unit style    : real
  Current step  : 61
Per MPI rank memory allocation (min/avg/max) = 16.9 | 17.94 | 21.02 Mbytes
Step Temp E_pair E_mol TotEng Press 
      61            0   -25714.355            0   -25714.355   -1104.3736 
      72            0   -25714.618            0   -25714.618   -3327.7916 
Loop time of 0.661361 on 8 procs for 11 steps with 145 atoms

99.4% CPU use with 8 MPI tasks x no OpenMP threads

Minimization stats:
  Stopping criterion = energy tolerance
  Energy initial, next-to-last, final = 
        -25714.3545319     -25714.6175447     -25714.6175435
  Force two-norm initial, final = 132.729 123.591
  Force max component initial, final = 32.6725 92.5674
  Final line search alpha, max atom move = 2.01962e-12 1.8695e-10
  Iterations, force evaluations = 11 203

MPI task timing breakdown:
Section |  min time  |  avg time  |  max time  |%varavg| %total
---------------------------------------------------------------
Pair    | 0.24596    | 0.31961    | 0.53523    |  21.9 | 48.33
Neigh   | 0          | 0          | 0          |   0.0 |  0.00
Comm    | 0.0051334  | 0.21961    | 0.29406    |  26.3 | 33.21
Output  | 6.3298e-05 | 7.0368e-05 | 9.4897e-05 |   0.0 |  0.01
Modify  | 0.11963    | 0.11981    | 0.11995    |   0.0 | 18.12
Other   |            | 0.002257   |            |       |  0.34

Nlocal:    18.125 ave 73 max 0 min
Histogram: 6 0 0 0 0 0 0 0 0 2
Nghost:    578.125 ave 659 max 550 min
Histogram: 6 0 0 0 0 0 0 0 0 2
Neighs:    1126 ave 4538 max 0 min
Histogram: 6 0 0 0 0 0 0 0 0 2

Total # of neighbors = 9008
Ave neighs/atom = 62.1241
Neighbor list builds = 0
Dangerous builds = 0
Setting up Verlet run ...
  Unit style    : real
  Current step  : 0
  Time step     : 0.25
Per MPI rank memory allocation (min/avg/max) = 15.77 | 16.82 | 19.89 Mbytes
Step Temp TotEng KinEng PotEng Press 
       0          300   -25585.847    128.77099   -25714.618   -2765.8589 
     200    240.75106    -25540.36    103.33918   -25643.699   -578.18475 
     400    297.40496   -25477.726    127.65711   -25605.383    1278.2701 
     600     277.8516    -25472.78    119.26409   -25592.044   -629.34461 
     800    267.26999   -25485.022    114.72207   -25599.744    2098.0505 
    1000    311.71562   -25469.308    133.79977   -25603.108    6967.3471 
    1200    330.76169   -25444.851    141.97504   -25586.826   -7354.8193 
    1400    303.24809   -25468.076    130.16519   -25598.241   -1915.5683 
    1600     296.4529   -25477.967    127.24845   -25605.216   -10404.747 
    1800    296.74395    -25451.68    127.37338   -25579.053    9664.4012 
    2000    281.73585   -25475.656    120.93135   -25596.587   -2534.8647 
    2200     299.8218   -25490.097    128.69451   -25618.791    2358.9363 
    2400    301.64884   -25487.754    129.47874   -25617.233    2020.7747 
    2600    312.53717   -25463.929    134.15241   -25598.081    1139.2791 
    2800    289.89242   -25491.841    124.43245   -25616.273   -955.97208 
    3000    309.04336   -25478.812    132.65274   -25611.465    -1098.949 
    3200    291.27228   -25466.566    125.02474   -25591.591    5911.3914 
    3400    302.42588   -25467.098    129.81227    -25596.91    4967.1146 
    3600    301.40819   -25462.125    129.37544   -25591.501    7224.6756 
    3800    349.83711   -25440.967    150.16291    -25591.13   -7829.3162 
    4000    285.50626   -25472.074    122.54975   -25594.623   -1172.3937 
    4200    323.44101   -25463.444    138.83274   -25602.276   -1579.3039 
    4400    342.55987   -25446.319    147.03925   -25593.358   -15480.842 
    4600    279.74699   -25479.811    120.07766   -25599.889   -5510.2009 
    4800    310.80553   -25467.418    133.40913   -25600.827   -7268.7372 
    5000    323.64395   -25462.721    138.91984   -25601.641    232.86406 
    5200    288.98272   -25488.279    124.04198   -25612.321   -2408.8098 
    5400    287.62361   -25473.554     123.4586   -25597.013    798.50499 
    5600    303.33147   -25458.866    130.20098   -25589.067    3795.0015 
    5800    297.11576   -25474.253    127.53297   -25601.785   -1858.7945 
    6000    302.98147   -25463.012    130.05075   -25593.063    -5643.722 
    6200    292.45957    -25456.14    125.53437   -25581.675   -53.374788 
    6400    291.48526   -25466.011    125.11615   -25591.127     2539.577 
    6600    289.66729   -25476.873    124.33581   -25601.208    2704.9471 
    6800    269.40448   -25508.248    115.63827   -25623.886   -1422.4604 
    7000    281.58868   -25495.268    120.86818   -25616.136    5977.8982 
    7200    290.78848   -25482.771    124.81707   -25607.588    152.34455 
    7400    304.79896   -25475.441    130.83088   -25606.272    249.21898 
    7600    292.81773   -25507.468     125.6881   -25633.156    959.68178 
    7800     312.6142   -25481.986    134.18547   -25616.172   -3763.1981 
    8000    304.77498    -25470.77    130.82059    -25601.59    719.55301 
    8200    322.40683   -25458.616    138.38883   -25597.005   -5887.5372 
    8400    309.82391   -25452.549    132.98778   -25585.537   -3659.3185 
    8600    307.96017   -25479.142    132.18779    -25611.33    1929.3873 
    8800    311.71414   -25462.535    133.79913   -25596.334   -12503.751 
    9000    325.30378   -25467.901     139.6323   -25607.533   -1265.3795 
    9200    265.65753   -25499.415    114.02995   -25613.444    1424.9197 
    9400    310.48049   -25482.464    133.26961   -25615.733   -5205.8975 
    9600    325.46962   -25459.811    139.70349   -25599.514    171.17721 
    9800     292.8037   -25493.485    125.68208   -25619.167    2852.8788 
   10000    293.98029   -25473.875    126.18711   -25600.062    -353.4263 
   10200    294.87518   -25475.644    126.57123   -25602.216    3085.4006 
   10400    247.99721    -25506.08    106.44949   -25612.529    3896.2464 
   10600    278.23757   -25475.114    119.42976   -25594.544   -8367.8982 
   10800    290.57736   -25466.081    124.72645   -25590.807   -3047.0939 
   11000    309.68034   -25469.451    132.92615   -25602.378    4979.6122 
   11200    277.53941   -25484.906    119.13008   -25604.036    1358.4321 
   11400    312.76145   -25487.882    134.24868   -25622.131    2491.4991 
   11600    332.43759   -25462.823     142.6944   -25605.518   -5214.5372 
   11800    288.64619   -25458.264    123.89752   -25582.162    3064.4663 
   12000    287.95035   -25480.178    123.59884   -25603.777   -2007.9872 
   12200    317.15208   -25475.822     136.1333   -25611.955    598.35785 
   12400    308.27324   -25452.914    132.32217   -25585.236    1872.3154 
   12600    305.01329   -25474.306    130.92288   -25605.229    1905.4933 
   12800    280.65119   -25481.119    120.46577   -25601.584   -1963.0421 
   13000    325.07899   -25446.743    139.53581   -25586.279   -3047.6493 
   13200    269.40138   -25467.721    115.63695   -25583.358    785.15613 
   13400    318.07968   -25463.027    136.53145   -25599.558   -758.21793 
   13600    300.07155   -25472.457    128.80171   -25601.258    1332.9123 
   13800    250.51932   -25506.886    107.53207   -25614.418    399.92207 
   14000    291.33343   -25484.731    125.05098   -25609.782   -4073.8725 
   14200    321.07651   -25472.515     137.8178   -25610.333    506.90261 
   14400    258.90016    -25498.87    111.12944   -25609.999    3146.9407 
   14600    299.54622   -25475.211    128.57622   -25603.787    3232.3434 
   14800    297.02521   -25474.845    127.49411   -25602.339   -416.58528 
   15000    281.96468   -25499.751    121.02957    -25620.78    3603.8723 
   15200    298.62422   -25474.007    128.18046   -25602.188   -1613.4235 
   15400    302.69428   -25456.467    129.92748   -25586.394    5860.2036 
   15600    305.76893    -25471.97    131.24723   -25603.217    3203.8408 
   15800    293.47139   -25488.631    125.96868     -25614.6   -4026.5944 
   16000    362.15372   -25454.117    155.44965   -25609.567    2516.1507 
   16200    279.65647   -25488.844    120.03881   -25608.883    116.48091 
   16400    328.66809   -25479.697    141.07639   -25620.774   -2190.4363 
   16600    266.45045   -25494.117     114.3703   -25608.488     7979.327 
   16800    304.85639   -25477.002    130.85553   -25607.857   -2168.0001 
   17000    281.81962   -25470.724    120.96731   -25591.691    204.81986 
   17200    297.54173   -25477.969    127.71582   -25605.685    546.52331 
   17400    296.33992   -25492.685    127.19996   -25619.885   -5848.9604 
   17600    291.12595   -25466.564    124.96193   -25591.526    10370.563 
   17800    299.08507   -25470.348    128.37827   -25598.726    3553.1391 
   18000    290.77087   -25488.331    124.80951   -25613.141    2207.3479 
   18200    302.91063   -25484.617    130.02034   -25614.637   -5910.7609 
   18400    312.05786   -25468.731    133.94667   -25602.678    6774.6137 
   18600    294.46806   -25480.463    126.39648    -25606.86   -1664.8037 
   18800    305.58075   -25479.047    131.16646   -25610.214   -3341.9328 
   19000    323.63415   -25450.261    138.91564   -25589.176   -2397.8302 
   19200    290.03709   -25476.649    124.49455   -25601.144   -1163.6625 
   19400    325.49753   -25457.068    139.71547   -25596.784   -712.00729 
   19600    275.54091   -25471.569    118.27226   -25589.841   -1095.6311 
   19800    307.18313   -25473.722    131.85426   -25605.577    374.94781 
   20000    296.83223   -25457.626    127.41127   -25585.037    154.25198 
   20200    330.92265   -25445.595    142.04413   -25587.639   -61.452508 
   20400    288.49325   -25475.641    123.83188   -25599.473    683.14597 
   20600    331.08929   -25469.049    142.11566   -25611.164   -2307.7273 
   20800    285.49254   -25483.228    122.54386   -25605.772    472.39878 
   21000    324.83164   -25461.665    139.42964   -25601.094    -3280.572 
   21200    283.99002   -25483.586    121.89892   -25605.485   -772.44115 
   21400    292.18703   -25476.538    125.41738   -25601.955   -536.71928 
   21600    336.58524   -25443.823    144.47472   -25588.298   -714.20504 
   21800    310.72513   -25469.466    133.37461   -25602.841    -1126.966 
   22000     296.2259   -25480.104    127.15101   -25607.255     5308.315 
   22200    299.28434   -25460.437    128.46381   -25588.901   -385.43773 
   22400    311.55692   -25454.019    133.73165   -25587.751    432.83756 
   22600    289.39875   -25471.121    124.22055   -25595.341    3666.9731 
   22800    318.83769   -25458.304    136.85682   -25595.161   -1687.1527 
   23000    314.42618   -25484.992    134.96324   -25619.955   -1770.6494 
   23200    297.50375   -25500.472    127.69951   -25628.172      8813.57 
   23400    273.03064   -25512.882    117.19476   -25630.076   -655.10298 
   23600    306.70992   -25481.112    131.65114   -25612.763    5647.7078 
   23800    281.60862   -25479.598    120.87674   -25600.475   -3653.0341 
   24000    312.63636   -25461.269    134.19498   -25595.464    7322.3769 
   24200     312.9504   -25478.645    134.32978   -25612.975   -2473.0801 
   24400     287.2418   -25482.452    123.29471   -25605.747    1302.7392 
   24600    304.02605   -25459.156    130.49912   -25589.655    1314.4735 
   24800    288.89653   -25476.012    124.00498   -25600.017    921.11472 
   25000    297.55404   -25473.048     127.7211    -25600.77    5766.6632 
   25200    273.84599    -25485.25    117.54473   -25602.795   -4776.1367 
   25400    308.36162   -25483.128    132.36011   -25615.488    3616.4348 
   25600    320.42453    -25470.94    137.53795   -25608.477   -1255.2799 
   25800    275.79636   -25486.702    118.38191   -25605.084   -3151.2594 
   26000    285.84431   -25472.521    122.69485   -25595.215   -1493.1507 
   26200    281.91437   -25484.811    121.00798   -25605.819    2705.6151 
   26400    303.01768    -25473.58    130.06629   -25603.646   -3095.3063 
   26600    297.66568    -25464.38    127.76902   -25592.149    1679.3963 
   26800    284.88002     -25479.8    122.28094   -25602.081    887.78363 
   27000    295.72224   -25473.204    126.93482   -25600.139    -4156.445 
   27200    307.09297    -25463.42    131.81556   -25595.235   -1135.6829 
   27400     277.8103   -25481.367    119.24636   -25600.614   -2112.7183 
   27600    330.07634   -25447.633    141.68086   -25589.314   -4268.9879 
   27800    292.85056   -25476.926    125.70219   -25602.629    2470.6532 
   28000    320.98916   -25474.753    137.78031   -25612.533    -4191.923 
   28200    284.06777   -25458.044     121.9323   -25579.976   -209.66453 
   28400    313.78099   -25448.439     134.6863   -25583.125   -1272.2796 
   28600    282.85098   -25482.386       121.41   -25603.796   -2983.9246 
   28800    282.34319   -25471.955    121.19204   -25593.147   -379.67352 
   29000     321.3049   -25456.865    137.91584   -25594.781    7412.4398 
   29200    295.05309   -25471.153     126.6476     -25597.8   -1942.1239 
   29400    313.63945   -25465.333    134.62555   -25599.959   -2505.5083 
   29600    335.38046   -25462.635    143.95758   -25606.592     506.1874 
   29800    273.73052    -25486.23    117.49517   -25603.725   -3940.3919 
   30000    332.76779   -25458.777    142.83613   -25601.613    5379.3647 
   30200    289.47057   -25469.267    124.25138   -25593.519   -695.25467 
   30400    293.45551   -25468.467    125.96186   -25594.429    4362.0805 
   30600    317.91069   -25457.722    136.45892   -25594.181    5844.5626 
   30800    276.84595   -25488.384    118.83243   -25607.216   -11487.096 
   31000    304.04798     -25470.7    130.50853   -25601.209    8090.5819 
   31200    319.98323   -25474.234    137.34853   -25611.582    3601.2196 
   31400     298.6938   -25484.498    128.21032   -25612.709    5592.3916 
   31600    296.53702    -25480.69    127.28456   -25607.974   -1741.6073 
   31800    310.39566   -25449.655    133.23319   -25582.888   -10009.343 
   32000    302.24951   -25470.127    129.73657   -25599.863   -3988.9537 
   32200     311.1024   -25480.147    133.53655   -25613.684    6199.4567 
   32400    284.94225   -25478.943    122.30766    -25601.25    116.80972 
   32600    319.40745   -25490.065    137.10138   -25627.167   -1997.2117 
   32800    275.73341   -25500.178    118.35488   -25618.533    2971.4606 
   33000    315.70578    -25469.18    135.51249   -25604.692    826.77196 
   33200    305.83159   -25476.131    131.27412   -25607.405     496.0376 
   33400    292.36724   -25475.527    125.49473   -25601.022   -3661.5424 
   33600    343.35858   -25451.054    147.38209   -25598.436    2715.3414 
   33800    310.11745    -25482.97    133.11378   -25616.084   -1657.5227 
   34000    277.68831   -25475.367      119.194   -25594.561    3589.1641 
   34200    337.96427   -25448.719    145.06665   -25593.786    4702.8367 
   34400    295.51942    -25475.29    126.84776   -25602.138   -3108.1122 
   34600    283.35054   -25485.226    121.62443   -25606.851     4030.264 
   34800    293.61087   -25491.172    126.02855     -25617.2   -3706.5519 
   35000    314.47104   -25464.629     134.9825   -25599.611   -5799.0272 
   35200    299.00643   -25483.762    128.34452   -25612.106    -2098.613 
   35400    285.02599    -25493.26     122.3436   -25615.604    6450.2855 
   35600    318.27951   -25466.384    136.61723   -25603.001    -4548.615 
   35800    283.08428   -25483.225    121.51015   -25604.735    2894.8224 
   36000    339.61249    -25457.98    145.77413   -25603.754     6068.061 
   36200    281.15589   -25476.483    120.68241   -25597.165   -10480.706 
   36400    330.94258   -25450.158    142.05268    -25592.21    4541.9768 
   36600    274.92013   -25460.283     118.0058   -25578.289    3186.6352 
   36800    271.69638   -25487.241    116.62204   -25603.863   -48.221539 
   37000    236.70514   -25519.249    101.60252   -25620.852   -2364.1382 
   37200     271.3856   -25482.135    116.48865   -25598.624    1911.2901 
   37400    336.42242   -25462.305    144.40483    -25606.71   -2801.7306 
   37600     296.8348    -25480.32    127.41237   -25607.732    2907.6883 
   37800    303.26075   -25485.532    130.17063   -25615.703    4242.1218 
   38000     289.7487   -25474.813    124.37076   -25599.183    2611.0164 
   38200    306.76234   -25461.151    131.67364   -25592.824   -1689.4974 
   38400     272.9694   -25472.949    117.16847   -25590.118    3888.7322 
   38600    280.55523     -25487.8    120.42458   -25608.225    4332.7567 
   38800    321.75215   -25472.342    138.10781    -25610.45   -2767.8292 
   39000    317.62649   -25467.248    136.33693   -25603.584    2137.1245 
   39200    291.10212    -25496.68     124.9517   -25621.631   -7368.9643 
   39400    305.53937   -25476.578     131.1487   -25607.727   -520.51457 
   39600    303.43807   -25472.492    130.24674   -25602.739    118.83105 
   39800    280.18983   -25498.424    120.26774   -25618.692   -8600.4279 
   40000    301.77135   -25476.168    129.53132   -25605.699   -414.80468 
   40200    291.20498   -25478.434    124.99585    -25603.43    4569.2868 
   40400     318.1372   -25478.514    136.55615    -25615.07   -6328.4895 
   40600    286.34714   -25477.773    122.91069   -25600.684   -3376.4306 
   40800    310.45032   -25455.895    133.25665   -25589.152    253.47456 
   41000    322.57603   -25466.707    138.46145   -25605.169   -30.081778 
   41200    289.41008   -25484.767    124.22541   -25608.992    4037.1382 
   41400    281.52315   -25487.713    120.84005   -25608.554    6402.9426 
   41600    311.23668   -25470.016    133.59419   -25603.611   -1070.4551 
   41800    304.45811    -25483.99    130.68458   -25614.674   -756.95104 
   42000    295.17745   -25484.907    126.70098   -25611.608   -279.58858 
   42200    315.03684   -25477.639    135.22536   -25612.864     215.8455 
   42400    323.83296   -25438.785    139.00097   -25577.786   -2368.9841 
   42600    308.51271   -25464.619    132.42496   -25597.044    2834.1973 
   42800    285.76886   -25476.107    122.66247   -25598.769    3936.7497 
   43000    268.59196   -25492.504    115.28951   -25607.793   -2205.8139 
   43200    292.35527   -25466.948     125.4896   -25592.438   -1129.5432 
   43400    324.76574   -25462.609    139.40136    -25602.01    3786.9689 
   43600    295.52292   -25482.056    126.84927   -25608.905   -3862.8128 
   43800    316.28689   -25457.766    135.76192   -25593.527     1375.896 
   44000    281.79068   -25483.059    120.95489   -25604.013    8443.1086 
   44200    309.26881   -25477.481    132.74951    -25610.23   -460.17044 
   44400     302.6242   -25475.969     129.8974   -25605.866   -1927.2757 
   44600    286.38454   -25472.409    122.92674   -25595.336   -684.96966 
   44800    320.81575   -25452.778    137.70588   -25590.484   -2255.2466 
   45000    298.78655   -25479.254    128.25014   -25607.505    7115.3272 
   45200    282.56993    -25484.13    121.28937   -25605.419    3214.5557 
   45400    313.07469   -25453.128    134.38313   -25587.511    62.245706 
   45600    306.44895   -25455.966    131.53912   -25587.505   -1900.6315 
   45800     307.8052    -25472.26    132.12127   -25604.381    2041.6585 
   46000    278.18029   -25477.609    119.40518   -25597.015    4864.5486 
   46200    313.45674   -25448.559    134.54712   -25583.106    3256.9447 
   46400    286.49408   -25473.317    122.97376   -25596.291    539.80446 
   46600    303.46659   -25471.399    130.25898   -25601.658    2832.5154 
   46800    332.23176   -25439.137    142.60605   -25581.743     5735.363 
   47000    311.48139   -25470.084    133.69923   -25603.784      1899.22 
   47200    293.11937   -25492.441    125.81757   -25618.259   -4467.9087 
   47400    327.11271   -25469.558    140.40876   -25609.966    6649.9378 
   47600    299.86856   -25472.758    128.71458   -25601.473   -4733.9008 
   47800    279.78047   -25494.473    120.09203   -25614.566   -1913.8648 
   48000    274.06058   -25487.798    117.63684   -25605.434   -774.70993 
   48200    288.36524   -25471.866    123.77693   -25595.643     1853.679 
   48400    295.05503   -25469.105    126.64843   -25595.753    4204.9098 
   48600    295.70855   -25491.509    126.92895   -25618.438   -420.46693 
   48800    322.62559   -25473.758    138.48273   -25612.241    4558.0628 
   49000    298.33479   -25479.756    128.05622   -25607.812    8952.1119 
   49200    288.23977   -25487.907    123.72307    -25611.63   -446.06019 
   49400    303.16224   -25458.656    130.12834   -25588.785    1742.9137 
   49600    285.65861   -25483.812    122.61515   -25606.427   -62.685786 
   49800    285.94692   -25476.786     122.7389   -25599.525    3147.1057 
   50000    290.41705   -25477.069    124.65764   -25601.726    4705.1883 
   50200    308.14821   -25469.436     132.2685   -25601.704   -2764.6052 
   50400    340.09701   -25455.408     145.9821    -25601.39   -8218.4185 
   50600    283.62609   -25476.839    121.74271   -25598.582   -1045.5351 
   50800    311.81699   -25480.773    133.84328   -25614.616   -3599.1023 
   51000    248.59371   -25498.272    106.70553   -25604.978      -4499.4 
   51200    273.18291   -25472.836    117.26012   -25590.097   -4122.8132 
   51400    286.81835    -25471.04    123.11295   -25594.153    4958.1117 
   51600    266.10151   -25496.634    114.22052   -25610.855   -1918.1065 
   51800    304.32098   -25466.414    130.62572   -25597.039    -3303.014 
   52000    311.64869   -25467.364    133.77104   -25601.135    1962.1993 
   52200    244.20257   -25489.382    104.82069   -25594.202   -4306.7315 
   52400     302.2376   -25468.349    129.73145    -25598.08   -206.22098 
   52600    279.66993   -25470.006    120.04458   -25590.051   -1091.0639 
   52800    280.40781   -25481.482    120.36131   -25601.843    -1316.187 
   53000    355.31747   -25446.889    152.51528   -25599.404     -87.7443 
   53200     276.7743   -25477.752    118.80167   -25596.553    2174.4183 
   53400    329.28817   -25463.281    141.34255   -25604.623    4582.3055 
   53600    308.63025   -25460.115    132.47541    -25592.59   -4793.9843 
   53800    297.90423   -25485.039    127.87141    -25612.91   -1609.0098 
   54000    310.58632   -25463.314    133.31503   -25596.629   -3252.8818 
   54200    316.84125   -25455.285    135.99988   -25591.285    -729.6168 
   54400    303.05719   -25481.488    130.08325   -25611.571    844.16188 
   54600    312.16025   -25461.818    133.99062   -25595.809   -679.33118 
   54800    302.82898   -25475.228     129.9853   -25605.214    1917.6611 
   55000    278.58134   -25483.381    119.57732   -25602.958    111.29814 
   55200    311.75161   -25462.462    133.81522   -25596.277   -11313.344 
   55400     283.6226   -25493.387    121.74121   -25615.128    2628.5566 
   55600    278.66298   -25480.181    119.61236   -25599.794    792.41292 
   55800    314.69646   -25459.691    135.07925   -25594.771   -3089.6491 
   56000     315.6144   -25474.831    135.47327   -25610.304    3978.5153 
   56200    306.43624   -25488.607    131.53366   -25620.141   -2912.0028 
   56400    291.73121   -25478.039    125.22173   -25603.261   -3478.0105 
   56600    328.16835    -25457.77    140.86188   -25598.632   -1296.5969 
   56800    292.38498   -25482.525    125.50235   -25608.027    7655.5857 
   57000    293.18463   -25489.031    125.84559   -25614.876    -1417.579 
   57200    320.00331   -25468.819    137.35715   -25606.176     5862.695 
   57400    311.33599   -25488.842    133.63682   -25622.479    -6895.463 
   57600    287.93563   -25489.784    123.59253   -25613.377    3637.9574 
   57800    321.17943   -25472.831    137.86198   -25610.693   -4954.2129 
   58000    274.87843   -25488.986     117.9879   -25606.974   -1118.8068 
   58200    297.24685   -25486.963    127.58924   -25614.552    4023.0966 
   58400    293.16778   -25472.697    125.83836   -25598.536    2593.5446 
   58600    305.52734   -25468.193    131.14353   -25599.337     4698.208 
   58800     315.9002   -25484.977    135.59594   -25620.573   -546.40655 
   59000     318.5325   -25451.379    136.72582   -25588.105   -1576.6832 
   59200    294.62771   -25472.472    126.46501   -25598.937    1607.0605 
   59400    289.83843   -25485.393    124.40927   -25609.802    4398.8887 
   59600    305.23688   -25465.243    131.01886   -25596.262   -2762.0889 
   59800     333.6844   -25460.818    143.22958   -25604.047   -326.61405 
   60000    300.86777   -25475.463    129.14347   -25604.607     -1147.47 
   60200    326.56587   -25463.518    140.17404   -25603.692    1812.8229 
   60400    288.04929   -25484.243    123.64131   -25607.884    2371.8426 
   60600     304.3391   -25468.695    130.63349   -25599.328    4205.3196 
   60800    314.96806   -25446.817    135.19583   -25582.012   -6342.1558 
   61000    299.21367   -25471.513    128.43347   -25599.946   -228.62518 
   61200    321.36232   -25463.822    137.94049   -25601.763   -4924.0705 
   61400    295.54656   -25465.407    126.85942   -25592.267    3158.3383 
   61600     278.0745   -25489.205    119.35977   -25608.564   -2202.9115 
   61800    305.70415   -25466.553    131.21942   -25597.772   -2807.7888 
   62000    303.02543   -25472.589    130.06962   -25602.659   -3609.1539 
   62200    311.06967   -25445.927     133.5225   -25579.449   -2723.4122 
   62400    274.35381   -25475.532    117.76271   -25593.295   -1088.3262 
   62600    287.93027   -25479.674    123.59022   -25603.264   -3099.9032 
   62800    288.88299   -25462.762    123.99916   -25586.761    601.52191 
   63000    323.72584   -25469.124    138.95499   -25608.079    -2011.911 
   63200    283.96227   -25481.035    121.88701   -25602.922   -3634.7362 
   63400    331.74429   -25461.283    142.39681    -25603.68   -2892.6168 
   63600    271.56239   -25490.832    116.56453   -25607.397    4485.6158 
   63800    316.49539   -25471.117    135.85142   -25606.968   -1221.1965 
   64000    291.46299   -25477.738     125.1066   -25602.845   -645.26316 
   64200    299.68742   -25480.767    128.63682   -25609.404   -5538.8746 
   64400     313.0106   -25450.359    134.35562   -25584.715   -7150.3641 
   64600    308.88474   -25470.418    132.58465   -25603.003   -972.01423 
   64800    282.67843   -25470.429    121.33594   -25591.765    3309.2809 
   65000    334.71542   -25476.819    143.67213   -25620.491   -3923.9727 
   65200    296.67138    -25484.22    127.34223   -25611.563   -1934.9071 
   65400    289.72458   -25480.563    124.36041   -25604.923   -3855.4018 
   65600    320.54524   -25454.956    137.58976   -25592.546    3980.6398 
   65800    312.50744   -25455.804    134.13965   -25589.944   -262.00479 
   66000    300.77561   -25477.854    129.10392   -25606.958     3596.544 
   66200    322.95957   -25458.351    138.62608   -25596.977   -4242.1229 
   66400    343.31817   -25458.843    147.36474   -25606.208    8005.8597 
   66600    284.25094   -25490.334    122.01092   -25612.345    1775.4994 
   66800    320.83758   -25468.105    137.71525    -25605.82    2208.0663 
   67000    323.23218   -25448.942     138.7431   -25587.685    278.48626 
   67200     319.5137    -25462.66    137.14699   -25599.807   -1401.8984 
   67400     281.0803   -25480.795    120.64996   -25601.445    3659.9558 
   67600    290.19307   -25459.422     124.5615   -25583.984   -475.18241 
   67800    296.38288   -25471.957    127.21839   -25599.175    6594.2501 
   68000    277.07409   -25476.594    118.93035   -25595.524    5322.9079 
   68200    297.15613   -25457.431     127.5503   -25584.982    5946.8803 
   68400     272.9288    -25477.03    117.15104   -25594.181    3032.4857 
   68600    284.25558   -25476.946    122.01291   -25598.959   -785.83816 
   68800    289.74666   -25474.903    124.36989   -25599.273   -388.12277 
   69000    298.69795    -25478.67    128.21211   -25606.882   -3801.6932 
   69200    326.53472   -25457.056    140.16067   -25597.217    10419.174 
   69400    288.39911   -25478.642    123.79147   -25602.434   -6674.4363 
   69600    293.53174    -25473.89    125.99458   -25599.885    -748.6906 
   69800    297.34334   -25472.643    127.63066   -25600.274    4386.8616 
   70000    268.48504   -25492.354    115.24362   -25607.597    982.07818 
   70200    308.02871   -25464.993    132.21721    -25597.21    2779.6535 
   70400    321.07413   -25472.962    137.81678   -25610.779     953.9674 
   70600    263.57976   -25497.096    113.13809   -25610.234   -189.62656 
   70800    312.22668    -25472.18    134.01913   -25606.199    1464.0193 
   71000    309.20613   -25481.326     132.7226   -25614.048   -962.04673 
   71200      272.377    -25491.84    116.91419   -25608.754    -3712.232 
   71400    317.56602   -25462.849    136.31097    -25599.16   -4123.5076 
   71600    286.32142   -25486.036    122.89965   -25608.935    6604.1193 
   71800     290.7502   -25470.279    124.80064   -25595.079    4359.9688 
   72000    301.72992   -25467.645    129.51354   -25597.159   -3097.8137 
   72200    288.26869   -25485.589    123.73549   -25609.324    489.46223 
   72400    281.20775   -25501.928    120.70467   -25622.632    717.32739 
   72600     298.6208   -25479.665    128.17899   -25607.844    96.868247 
   72800    300.93803    -25470.94    129.17363   -25600.113    860.89704 
   73000    353.69913   -25454.102    151.82063   -25605.922    1223.3298 
   73200    254.53999   -25483.434    109.25789   -25592.692    3417.9009 
   73400    336.22663   -25469.716    144.32079   -25614.037   -1276.7164 
   73600    288.26689   -25497.622    123.73471   -25621.357   -724.49594 
   73800    319.93328   -25474.107    137.32709   -25611.434   -11056.443 
   74000     319.2686   -25470.033    137.04179   -25607.075    6252.4161 
   74200    295.20229   -25478.355    126.71164   -25605.067   -1881.1901 
   74400    332.87869   -25458.523    142.88373   -25601.407    3996.9947 
   74600    301.75873   -25466.189     129.5259   -25595.715    1092.9229 
   74800    295.01852   -25470.547    126.63276    -25597.18    946.60687 
   75000    291.40639   -25465.513     125.0823   -25590.596    1740.5868 
   75200    327.65569   -25445.557    140.64183   -25586.199   -7690.6855 
   75400    276.88809    -25482.57    118.85052   -25601.421    5730.7546 
   75600    347.28941   -25465.952    149.06934   -25615.021    760.36709 
   75800    293.55747    -25484.15    126.00562   -25610.155   -3824.1474 
   76000    286.51216   -25484.343    122.98152   -25607.325    5185.4675 
   76200    286.36846   -25477.948    122.91984   -25600.868   -1036.3674 
   76400    283.12751   -25446.631     121.5287    -25568.16    312.35941 
   76600    306.40435    -25462.47    131.51998    -25593.99   -293.37115 
   76800    291.10044   -25473.932    124.95098   -25598.883   -576.59901 
   77000    305.62787   -25460.241    131.18668   -25591.428     355.7221 
   77200    275.89885   -25490.314     118.4259    -25608.74   -2964.6575 
   77400    296.03238   -25463.504    127.06795   -25590.572    1259.4709 
   77600    294.83864   -25470.525    126.55555    -25597.08   -899.47417 
   77800     282.5695   -25485.884    121.28918   -25607.174    1612.3838 
   78000    342.69101   -25450.127    147.09554   -25597.222   -1109.4206 
   78200    287.05646   -25475.499    123.21515   -25598.714   -1447.4231 
   78400    307.48822   -25469.627    131.98521   -25601.612   -2886.7872 
   78600    305.10241   -25465.102    130.96113   -25596.063   -3975.1207 
   78800    282.41679   -25474.165    121.22364   -25595.388    3393.6361 
   79000    304.51938   -25472.117    130.71088   -25602.828   -8012.3938 
   79200    283.76037   -25490.943    121.80035   -25612.743   -1831.2955 
   79400     305.8778   -25460.506    131.29396     -25591.8    524.87555 
   79600    327.08748   -25468.029    140.39793   -25608.427   -1282.8574 
   79800    316.70778   -25477.929    135.94258   -25613.872   -4397.1826 
   80000    294.85408   -25485.225    126.56218   -25611.787   -4161.9443 
   80200     276.4794   -25490.906    118.67509   -25609.581    6237.8913 
   80400    307.43868   -25463.004    131.96395   -25594.968   -5057.8665 
   80600     292.5029   -25481.413    125.55296   -25606.966   -1231.7763 
   80800    283.09165   -25497.803    121.51331   -25619.317    824.89411 
   81000    330.06691   -25455.773    141.67681    -25597.45   -2853.5841 
   81200     320.9855   -25481.627    137.77874   -25619.406   -7702.4939 
   81400    280.20917    -25484.05    120.27604   -25604.326     8036.659 
   81600    321.97924   -25465.039    138.20529   -25603.244   -3823.9627 
   81800    271.81661   -25476.379    116.67365   -25593.053    5638.8587 
   82000    275.36819   -25503.551    118.19812   -25621.749   -4636.0834 
   82200    287.38124   -25472.223    123.35456   -25595.577   -294.53096 
   82400    314.95939    -25472.26    135.19211   -25607.452    2463.8653 
   82600    313.44491   -25481.419    134.54204   -25615.961    10073.187 
   82800    307.52005   -25456.534    131.99887   -25588.533    1944.6267 
   83000    290.36081   -25483.905     124.6335   -25608.538   -2822.3814 
   83200      299.417   -25477.588    128.52075   -25606.109   -4868.9823 
   83400     339.2873   -25451.401    145.63454   -25597.035    601.21199 
   83600    309.57659   -25467.861    132.88162   -25600.742    2994.5066 
   83800    327.85569   -25464.953    140.72768   -25605.681    959.55264 
   84000    304.40866   -25464.717    130.66335    -25595.38   -240.91438 
   84200     285.1492   -25485.828    122.39649   -25608.224   -3067.9963 
   84400     292.3576   -25465.594     125.4906   -25591.085    2604.2401 
   84600    291.32611    -25463.88    125.04784   -25588.928   -1915.1815 
   84800    287.93579   -25495.336    123.59259   -25618.929    -5143.428 
   85000     276.9054   -25484.695    118.85795   -25603.553   -1295.3531 
   85200    294.62064   -25468.968    126.46198    -25595.43    -3055.721 
   85400    260.60553   -25490.643    111.86144   -25602.505    1043.9871 
   85600    334.06231   -25473.718    143.39179    -25617.11   -2334.1962 
   85800    287.95107   -25465.029    123.59915   -25588.628    3853.5922 
   86000     267.0541   -25487.092    114.62941   -25601.721   -142.86678 
   86200    291.14134   -25490.854    124.96853   -25615.823    9494.7359 
   86400    331.64499   -25466.385    142.35418   -25608.739   -3759.6615 
   86600    300.22417   -25485.136    128.86721   -25614.003    895.57432 
   86800    262.42843   -25502.389     112.6439   -25615.033    729.95688 
   87000    300.85116   -25473.936    129.13634   -25603.072   -632.52896 
   87200    321.02406   -25471.992    137.79529   -25609.787    4563.3325 
   87400    267.53013   -25500.256    114.83374    -25615.09    3497.4262 
   87600    288.04704   -25494.536    123.64034   -25618.177   -2209.2286 
   87800    302.72495   -25471.557    129.94064   -25601.497    1301.2862 
   88000    297.12341   -25462.424    127.53626    -25589.96    2156.6808 
   88200    277.63928   -25488.723    119.17295   -25607.896   -10266.051 
   88400    302.50876   -25473.572    129.84785    -25603.42    750.33536 
   88600    326.52379   -25442.068    140.15598   -25582.224    417.12361 
   88800    302.07204   -25473.845    129.66039   -25603.505   -9470.6517 
   89000     298.7776   -25477.226     128.2463   -25605.472   -2867.0799 
   89200    280.84787    -25496.26     120.5502    -25616.81   -1202.2665 
   89400    293.96462   -25479.975    126.18039   -25606.156   -692.22479 
   89600    292.82771   -25468.546    125.69238   -25594.238    5597.9017 
   89800    305.99849   -25456.129    131.34577   -25587.475    2688.2279 
   90000    258.64826   -25477.846    111.02131   -25588.868    4217.1082 
   90200    278.06325   -25477.303    119.35494   -25596.658     232.8075 
   90400    317.46049   -25451.412    136.26568   -25587.678   -3640.8633 
   90600    287.77187   -25477.839    123.52223   -25601.361    3669.5504 
   90800    308.84467   -25471.799    132.56745   -25604.367   -2420.5218 
   91000    305.22256   -25457.422    131.01271   -25588.434    762.67549 
   91200    302.11053   -25477.261    129.67691   -25606.938   -6551.5586 
   91400    269.07301   -25484.609    115.49599   -25600.105   -3446.9526 
   91600    320.45465   -25454.883    137.55088   -25592.433   -1433.9193 
   91800    310.29375   -25476.264    133.18945   -25609.454    93.862613 
   92000    292.47776   -25477.565    125.54217   -25603.107    6378.3067 
   92200      331.081   -25466.954     142.1121   -25609.067    2322.2664 
   92400      307.402   -25475.964     131.9482   -25607.912    474.24276 
   92600     303.6278   -25461.781    130.32818   -25592.109   -2277.2364 
   92800    332.25029   -25451.882      142.614   -25594.496   -5387.6738 
   93000    293.15501   -25472.915    125.83287   -25598.748    297.55895 
   93200     277.4133   -25482.296    119.07596   -25601.371     4259.662 
   93400    362.71398   -25454.703    155.69013   -25610.394   -2268.7295 
   93600    289.37636   -25481.595    124.21094   -25605.806    3015.6842 
   93800    282.16981   -25480.669    121.11762   -25601.787   -3136.2381 
   94000    316.69489   -25451.228    135.93705   -25587.165   -3303.3458 
   94200    335.44823   -25441.866    143.98667   -25585.852   -855.41768 
   94400    308.68461   -25477.031    132.49875    -25609.53   -2881.0733 
   94600    279.72015   -25489.842    120.06614   -25609.908   -4014.7769 
   94800    302.64293   -25463.608    129.90544   -25593.513    5511.4726 
   95000    274.42235   -25465.833    117.79213   -25583.625   -3448.2902 
   95200    343.64873   -25456.504    147.50663   -25604.011   -1190.2527 
   95400    277.73238   -25487.515    119.21292   -25606.728    489.33192 
   95600    336.37986   -25462.386    144.38656   -25606.773   -5099.0222 
   95800    299.65286   -25475.957    128.62199   -25604.579   -3451.0939 
   96000    295.38324   -25484.522    126.78931   -25611.312   -3494.5319 
   96200    313.83784   -25477.161     134.7107   -25611.871   -5227.3015 
   96400    290.88039   -25466.654    124.85652   -25591.511    4152.0662 
   96600    297.47047   -25488.285    127.68523    -25615.97    2208.4563 
   96800    287.79157   -25491.477    123.53069   -25615.008    554.67474 
   97000    305.41542   -25463.968    131.09549   -25595.064     153.1528 
   97200    297.51747   -25474.984     127.7054   -25602.689    2319.0901 
   97400    276.00996   -25488.729    118.47359   -25607.203    3522.5243 
   97600    321.65662   -25464.843    138.06681    -25602.91    2827.2205 
   97800      280.431   -25482.893    120.37126   -25603.264    1207.1089 
   98000     307.8672   -25477.328    132.14788   -25609.476   -7301.0253 
   98200    299.47537   -25478.723     128.5458   -25607.269    9001.6364 
   98400    346.21058   -25444.898    148.60627   -25593.504   -8088.0513 
   98600     314.3663   -25461.882    134.93754   -25596.819    2270.9763 
   98800    323.18564   -25467.794    138.72312   -25606.517    46.290839 
   99000    289.47865   -25479.067    124.25484   -25603.322   -7396.4415 
   99200    301.94192   -25483.693    129.60454   -25613.297    5726.2173 
   99400     339.9015    -25444.37    145.89818   -25590.268       754.91 
   99600    314.29509   -25470.496    134.90697   -25605.403    2080.8466 
   99800     292.7441   -25484.644     125.6565   -25610.301   -1267.5084 
  100000     326.4098   -25452.196    140.10705   -25592.303    4243.8594 
  100200     298.7308   -25468.499    128.22621   -25596.726   -8105.4836 
  100400     303.4793   -25480.523    130.26444   -25610.787    7777.0578 
  100600    324.36538   -25463.953    139.22951   -25603.183    -18.00962 
  100800    301.89986   -25476.284    129.58649    -25605.87    3831.5616 
  101000    294.05648   -25481.172    126.21982   -25607.392    4111.7682 
  101200    307.89845   -25446.431     132.1613   -25578.592    1401.5077 
  101400     290.0847   -25461.241    124.51498   -25585.756   -1950.1474 
  101600    294.53677   -25473.513    126.42598   -25599.939   -1560.8247 
  101800    304.24654    -25490.34    130.59377   -25620.934   -3366.8159 
  102000     305.8089   -25467.888    131.26439   -25599.152    -1640.923 
  102200    294.36207   -25469.416    126.35099   -25595.767     5288.729 
  102400    292.21629   -25493.663    125.42994   -25619.093    2019.3883 
  102600    286.44412   -25475.009    122.95231   -25597.961    2381.0462 
  102800     305.1008   -25466.484    130.96044   -25597.444    4764.8918 
  103000    272.73067   -25489.648      117.066   -25606.714   -5820.0028 
  103200    324.27626   -25475.301    139.19126   -25614.492   -5169.5484 
  103400    304.54469   -25471.645    130.72174   -25602.366    7264.4286 
  103600    262.13167    -25489.44    112.51652   -25601.957   -323.88107 
  103800    325.10548   -25463.585    139.54718   -25603.132    -933.4655 
  104000     307.0495   -25482.418     131.7969   -25614.215    4652.0289 
  104200    288.73253   -25494.424    123.93458   -25618.359   -7986.4597 
  104400    314.04593   -25476.609    134.80002   -25611.409   -1998.3964 
  104600    296.72323   -25482.077    127.36449   -25609.441    407.62607 
  104800    273.74477   -25481.215    117.50129   -25598.716   -6407.6451 
  105000    316.50592    -25462.43    135.85594   -25598.286   -3931.6208 
  105200    300.61101   -25485.846    129.03326   -25614.879    2107.5503 
  105400    273.56699   -25495.498    117.42498   -25612.923    365.60151 
  105600    333.26289   -25467.459    143.04865   -25610.508   -2091.1557 
  105800    313.29428   -25470.578    134.47738   -25605.055     6239.819 
  106000     275.9653   -25487.227    118.45442   -25605.682   -3131.9125 
  106200    291.58463   -25465.642    125.15881     -25590.8   -570.74707 
  106400    327.78377   -25478.499     140.6968   -25619.196   -5575.2037 
  106600    303.62622     -25485.6     130.3275   -25615.927     5537.401 
  106800     303.9415   -25458.866    130.46283   -25589.328   -1605.4957 
  107000    281.64626   -25480.895     120.8929   -25601.788    398.64025 
  107200    312.38139   -25475.371    134.08554   -25609.457   -1157.3859 
  107400    282.32228   -25474.308    121.18307   -25595.491    3161.0106 
  107600    275.04121   -25491.344    118.05777   -25609.402   -1196.1981 
  107800    307.88369   -25463.656    132.15496   -25595.811    6780.9344 
  108000    265.54146   -25472.515    113.98013   -25586.495    43.884708 
  108200     273.6537   -25484.695     117.4622   -25602.158    338.75565 
  108400    331.54129   -25456.332    142.30967   -25598.642    -1229.965 
  108600    299.17339   -25484.014    128.41618   -25612.431   -724.96385 
  108800    285.93822   -25477.509    122.73516   -25600.245    2457.7392 
  109000    324.61027   -25466.103    139.33462   -25605.437    3844.3251 
  109200    310.72073   -25472.313    133.37272   -25605.686    1006.1542 
  109400    313.56116   -25443.749    134.59194   -25578.341   -2812.8079 
  109600     288.1249    -25472.87    123.67377   -25596.544   -677.12859 
  109800    318.39139    -25472.68    136.66525   -25609.345    5471.9312 
  110000     289.5717   -25498.014    124.29479   -25622.309    713.57177 
  110200    270.69933   -25476.824    116.19407   -25593.018   -881.54253 
  110400    333.61325    -25462.99    143.19903   -25606.189    7044.2462 
  110600    296.98948   -25489.008    127.47877   -25616.486   -85.205309 
  110800    271.05181   -25496.056    116.34537   -25612.401     2672.375 
  111000    321.46134   -25468.718    137.98299   -25606.701    279.16436 
  111200    301.78269   -25481.262    129.53619   -25610.798    6187.5593 
  111400    319.72805   -25487.431      137.239    -25624.67   -6103.8524 
  111600    286.19679   -25470.028    122.84615   -25592.874   -7485.6068 
  111800    306.33368   -25464.938    131.48964   -25596.428    5021.5208 
  112000    281.86799   -25465.158    120.98807   -25586.146   -4158.7761 
  112200    296.84134   -25484.757    127.41518   -25612.172    9603.7821 
  112400    300.49882   -25461.204    128.98511   -25590.189    513.82115 
  112600    296.77846    -25483.33    127.38819   -25610.718   -3834.2166 
  112800    265.51872   -25484.237    113.97037   -25598.207   -3100.5194 
  113000    300.12248   -25458.945    128.82357   -25587.769    -779.9081 
  113200     300.2425   -25480.482    128.87508   -25609.357    2855.9522 
  113400    293.03131    -25485.15    125.77978    -25610.93    797.94888 
  113600    304.93722   -25468.922    130.89023   -25599.812    2356.3201 
  113800    288.04202   -25455.031    123.63819   -25578.669    189.61092 
  114000    286.44064   -25470.876    122.95082   -25593.827    3642.1769 
  114200    295.13247    -25482.88    126.68167   -25609.562    3454.0464 
  114400    259.60397   -25495.782    111.43154   -25607.214   -4393.9042 
  114600    293.46059   -25473.889    125.96404   -25599.853   -4080.3706 
  114800     258.9228   -25488.391    111.13916    -25599.53    2985.0438 
  115000    319.46687   -25461.257    137.12689   -25598.384    2348.3205 
  115200    328.27048   -25455.157    140.90572   -25596.062    3402.5539 
  115400    303.23128   -25474.198    130.15798   -25604.356     6907.809 
  115600    289.45319   -25489.707    124.24392   -25613.951   -3302.3434 
  115800    337.76688   -25454.907    144.98192   -25599.889   -969.53832 
  116000    295.61236   -25482.955    126.88766   -25609.842   -2565.4275 
  116200    330.59019   -25470.174    141.90142   -25612.075   -3794.8636 
  116400    316.45326   -25464.613    135.83334   -25600.446   -6268.5629 
  116600    271.21278   -25483.157    116.41447   -25599.572   -5619.6988 
  116800    295.77193   -25481.192    126.95615   -25608.149    1049.8668 
  117000    334.67117    -25462.16    143.65313   -25605.813   -4025.2069 
  117200    297.28748   -25465.304    127.60668   -25592.911   -5614.2063 
  117400    277.14174   -25482.597    118.95939   -25601.556   -123.57058 
  117600    350.48114   -25461.393    150.43935   -25611.833   -1006.5114 
  117800    295.53808   -25472.986    126.85577   -25599.842   -157.37812 
  118000    310.05281   -25480.346    133.08603   -25613.433    5759.6444 
  118200    285.78321    -25479.32    122.66863   -25601.989   -6028.3005 
  118400    299.48635   -25471.236    128.55052   -25599.786   -1512.6704 
  118600    274.44954   -25488.745     117.8038   -25606.549   -8028.9542 
  118800    320.93181   -25458.842    137.75569   -25596.598    4976.2318 
  119000    273.40006   -25480.264    117.35333   -25597.618   -4362.5596 
  119200    263.22822   -25499.976     112.9872   -25612.963   -3849.6145 
  119400    313.03182   -25475.899    134.36473   -25610.264   -8868.3769 
  119600    314.94846   -25467.484    135.18742   -25602.671    2667.3538 
  119800    271.79546   -25493.893    116.66457   -25610.557      1281.63 
  120000    345.24796   -25460.314    148.19308   -25608.507    273.89622 
  120200    295.00357   -25481.324    126.62634    -25607.95    -3384.664 
  120400    279.77119   -25484.349    120.08805   -25604.437   -604.17964 
  120600    300.90536   -25460.272    129.15961   -25589.432   -399.78648 
  120800    290.74818   -25480.936    124.79977   -25605.735   -3544.6894 
  121000    290.73825    -25479.63    124.79551   -25604.425   -369.35866 
  121200    327.81355    -25453.89    140.70959     -25594.6   -6210.5041 
  121400    291.40898   -25471.134    125.08341   -25596.217     4392.161 
  121600    305.91901   -25474.011    131.31165   -25605.323    2262.9454 
  121800    266.26077   -25497.142    114.28888   -25611.431   -4658.7313 
  122000    341.24464   -25467.599    146.47471   -25614.073   -2937.5972 
  122200    313.96823   -25476.171    134.76667   -25610.938    1158.7887 
  122400    270.85143   -25496.055    116.25936   -25612.314    2256.4991 
  122600    307.55306    -25460.43    132.01305   -25592.443     4733.743 
  122800    295.09708   -25478.039    126.66648   -25604.706    -3094.086 
  123000    294.91971   -25475.958    126.59035   -25602.548   -3163.7026 
  123200    279.24265   -25471.872    119.86118   -25591.733   -3115.7327 
  123400    316.66641   -25468.485    135.92483    -25604.41    1060.9124 
  123600    261.00461   -25500.479    112.03274   -25612.512     1375.825 
  123800    312.41783   -25478.266    134.10118   -25612.367   -1625.4251 
  124000    314.03056     -25472.9    134.79342   -25607.693   -1229.7511 
  124200    293.06675    -25479.35    125.79499   -25605.145   -4637.1199 
  124400     292.9911   -25483.857    125.76252   -25609.619   -5797.9121 
  124600    325.06855   -25457.154    139.53134   -25596.686    -2337.837 
  124800    289.21261   -25475.969    124.14065   -25600.109   -2641.6381 
  125000    328.47565   -25467.801    140.99379   -25608.795    4539.5244 
  125200    259.41778   -25485.303    111.35162   -25596.654     1526.857 
  125400    282.20137   -25471.788    121.13117   -25592.919    2560.1895 
  125600     299.5232   -25468.673    128.56634   -25597.239   -401.94307 
  125800    269.19974   -25498.849    115.55039   -25614.399    2128.3862 
  126000    299.73814   -25478.482     128.6586    -25607.14    -3064.349 
  126200    309.59851   -25465.612    132.89103   -25598.503   -6423.7281 
  126400     303.5176   -25446.668    130.28087   -25576.949   -2624.7883 
  126600    287.87154   -25478.989    123.56501   -25602.554   -2380.6874 
  126800    303.77906   -25475.215    130.39311   -25605.608   -570.99687 
  127000    320.11129   -25464.322    137.40349   -25601.726    4985.3305 
  127200    282.01891   -25487.041    121.05285   -25608.094    3117.7056 
  127400    303.51237    -25475.97    130.27863   -25606.249   -2083.4824 
  127600    313.01828   -25446.942    134.35892   -25581.301    236.10976 
  127800    281.39316   -25468.863    120.78426   -25589.647   -819.90981 
  128000    273.77019    -25475.12     117.5122   -25592.632    2772.0194 
  128200    283.65292   -25478.282    121.75423   -25600.036    83.149962 
  128400    307.39078   -25495.578    131.94339   -25627.521     389.8357 
  128600    320.20112   -25467.634    137.44205   -25605.076   -4756.3409 
  128800    325.11767   -25442.884    139.55242   -25582.437   -1071.4965 
  129000    308.34306   -25465.486    132.35214   -25597.838    3529.3508 
  129200    257.12494   -25490.928    110.36745   -25601.296   -5357.0751 
  129400    321.84391   -25461.995     138.1472   -25600.142    11213.863 
  129600    296.18464    -25466.88     127.1333   -25594.013    821.61637 
  129800    310.67833   -25477.943    133.35453   -25611.297    5541.2424 
  130000    292.30079   -25481.075    125.46621   -25606.541    490.31137 
  130200     330.4706   -25450.214    141.85009   -25592.064    3616.0962 
  130400    288.96643   -25476.781    124.03498   -25600.816   -8323.5004 
  130600    300.56382   -25484.228    129.01301   -25613.241   -2328.0046 
  130800    291.71018    -25491.35     125.2127   -25616.563   -3786.4914 
  131000    347.57814   -25454.564    149.19328   -25603.757    1909.7749 
  131200    270.20941   -25474.471    115.98378   -25590.455   -5878.8487 
  131400    267.47189   -25492.233    114.80874   -25607.042    439.09446 
  131600    304.71217   -25463.323    130.79363   -25594.116    -1676.231 
  131800    317.08766   -25460.017    136.10564   -25596.123    8221.8198 
  132000    307.59852   -25477.168    132.03256   -25609.201    396.92845 
  132200    303.92364   -25468.887    130.45516   -25599.342   -2721.4679 
  132400    316.26594   -25444.065    135.75293   -25579.818   -813.35589 
  132600    297.05856   -25475.337    127.50842   -25602.845    62.473673 
  132800    307.05175   -25480.803    131.79787   -25612.601   -5.3710518 
  133000    314.11301   -25471.954    134.82882   -25606.783   -4936.0635 
  133200    307.60376   -25476.801    132.03481   -25608.836   -6084.4087 
  133400    292.52268   -25491.723    125.56146   -25617.284    6186.7669 
  133600     315.6996   -25454.218    135.50984   -25589.728   -3332.1112 
  133800    298.72632    -25478.22    128.22428   -25606.444    1725.2117 
  134000    313.43731    -25473.75    134.53878   -25608.288    1793.9471 
  134200    346.38692   -25434.398    148.68196    -25583.08   -6384.8469 
  134400    299.29167   -25466.606    128.46695   -25595.073   -2647.7948 
  134600    309.47721    -25479.65    132.83896   -25612.489    8939.7793 
  134800    297.41429   -25477.685    127.66111   -25605.346      -2392.9 
  135000    321.98638   -25459.241    138.20835   -25597.449    331.29035 
  135200    272.76016   -25488.157    117.07866   -25605.235   -5173.3147 
  135400    307.82073   -25471.609    132.12794   -25603.737    3850.4176 
  135600    294.79803   -25468.229    126.53812   -25594.767    681.41776 
  135800    300.13583   -25477.617     128.8293   -25606.447   -1294.0435 
  136000    317.11316   -25478.272    136.11659   -25614.389    1017.3727 
  136200    325.61705   -25461.603    139.76677    -25601.37   -3475.3407 
  136400    265.22082   -25481.611     113.8425   -25595.454   -762.90469 
  136600    344.66396   -25456.048     147.9424    -25603.99    6499.5836 
  136800    302.72425   -25465.268    129.94034   -25595.209    8615.8627 
  137000    277.93968   -25482.388    119.30189    -25601.69    2310.1457 
  137200    301.04757   -25475.016    129.22065   -25604.237   -26.208734 
  137400    301.07077   -25466.441    129.23061   -25595.672   -1993.9808 
  137600    298.54123   -25487.584    128.14483   -25615.729     428.7889 
  137800    299.92799   -25476.552    128.74008   -25605.292   -5033.4143 
  138000    299.52089    -25473.13    128.56534   -25601.695   -1781.8505 
  138200    282.76932   -25495.597    121.37496   -25616.972   -4301.0494 
  138400    285.37307   -25475.258    122.49258    -25597.75   -617.93046 
  138600    294.58821   -25469.153    126.44806   -25595.601   -216.40268 
  138800    275.49323   -25489.587    118.25179   -25607.838    471.67269 
  139000    317.07753   -25462.683     136.1013   -25598.784   -1968.5224 
  139200     297.2178   -25464.493    127.57677    -25592.07    3100.7904 
  139400    297.00349   -25483.247    127.48478   -25610.731    -4611.669 
  139600    296.35115   -25476.809    127.20477   -25604.014    153.50494 
  139800    337.85674   -25445.779     145.0205     -25590.8     546.0394 
  140000    299.32087   -25477.104    128.47949   -25605.583    384.92674 
  140200    306.26367    -25470.17    131.45959   -25601.629    1587.1521 
  140400     351.0842   -25443.531    150.69821   -25594.229   -2063.7914 
  140600    300.83543   -25469.938    129.12959   -25599.068   -2496.5031 
  140800    300.96601   -25482.969    129.18564   -25612.154   -1560.7302 
  141000    276.75727   -25494.537    118.79436   -25613.331   -2501.2669 
  141200    317.13082   -25459.835    136.12417   -25595.959    145.84725 
  141400    281.33233   -25469.276    120.75815   -25590.034    5183.2838 
  141600    280.13534   -25498.543    120.24436   -25618.787   -360.59949 
  141800    290.87762   -25477.337    124.85533   -25602.193   -772.76035 
  142000    326.11093   -25467.874    139.97876   -25607.853   -2332.2124 
  142200    302.97044   -25465.207    130.04602   -25595.253   -3986.2482 
  142400    291.65141   -25490.447    125.18747   -25615.634    1266.9699 
  142600    289.90991   -25475.503    124.43996   -25599.943    337.46971 
  142800    297.84658   -25466.936    127.84667   -25594.782    544.22616 
  143000    296.01557   -25492.807    127.06073   -25619.867    1161.4659 
  143200    280.82181   -25488.665    120.53901   -25609.204     2509.998 
  143400    308.03423   -25466.879    132.21958   -25599.098    1975.0788 
  143600    346.31556   -25465.297    148.65133   -25613.948   -1383.2279 
  143800    251.56543   -25490.846     107.9811   -25598.827    9030.2747 
  144000    305.53463   -25467.986    131.14666   -25599.133   -4620.5069 
  144200    282.04035   -25494.524    121.06205   -25615.586    2969.1125 
  144400    293.09868   -25485.144    125.80869   -25610.953   -1221.5017 
  144600    327.44723   -25464.052    140.55235   -25604.605   -1862.4503 
  144800     300.7055   -25470.193    129.07382   -25599.266    10098.913 
  145000    321.98476   -25463.639    138.20766   -25601.846   -2925.7744 
  145200    306.67116   -25488.185     131.6345   -25619.819     1842.425 
  145400    311.31107    -25466.53    133.62612   -25600.156    3850.4898 
  145600    326.06068   -25470.453    139.95719    -25610.41   -5094.6665 
  145800    281.17903   -25488.762    120.69234   -25609.455    2516.6535 
  146000     254.5176   -25501.052    109.24828   -25610.301   -3548.8882 
  146200    306.19227   -25474.849    131.42895   -25606.278   -965.33535 
  146400    311.79245   -25461.769    133.83274   -25595.602    2472.0618 
  146600    291.42082   -25489.627    125.08849   -25614.716    1306.4183 
  146800    318.94766   -25468.913    136.90402   -25605.817   -8412.3937 
  147000    324.18642   -25470.096    139.15269   -25609.249    1225.9218 
  147200    309.76746   -25480.893    132.96354   -25613.857    76.952343 
  147400    310.59227   -25472.515    133.31758   -25605.833    3443.9736 
  147600    295.27827   -25474.641    126.74425   -25601.385    1163.0457 
  147800    303.88414   -25481.094    130.43821   -25611.532   -186.17303 
  148000    332.29164   -25469.551    142.63175   -25612.183    1460.6328 
  148200    310.14143   -25463.951    133.12407   -25597.075    2521.7363 
  148400    289.73317   -25488.256    124.36409    -25612.62    3269.8379 
  148600     321.5902   -25464.074     138.0383   -25602.113    1064.5221 
  148800    299.07878   -25461.572    128.37557   -25589.948    5044.3463 
  149000    284.63914   -25487.109    122.17755   -25609.287     974.9552 
  149200    330.18592   -25472.724     141.7279   -25614.452    4738.7447 
  149400    322.66666   -25451.433    138.50035   -25589.933    1023.3539 
  149600    288.62271   -25481.675    123.88744   -25605.563   -3981.2538 
  149800    288.69856   -25483.502       123.92   -25607.422    4086.6797 
  150000    289.21997    -25475.41    124.14381   -25599.554   -8161.3632 
  150200      324.686   -25455.706    139.36713   -25595.073     2647.226 
  150400     285.4593   -25482.186    122.52959   -25604.715   -4583.6725 
  150600    287.85729   -25482.958     123.5589   -25606.517    4339.3039 
  150800    309.21762   -25442.532    132.72753   -25575.259    1002.2639 
  151000    298.45651   -25462.311    128.10847   -25590.419    9310.2488 
  151200     276.4442   -25487.137    118.65998   -25605.797    603.32966 
  151400    301.88142   -25475.349    129.57857   -25604.928    3583.8749 
  151600    304.23352   -25461.628    130.58818   -25592.216    1498.4827 
  151800    301.23983   -25479.047    129.30318    -25608.35    -1389.953 
  152000    265.85498   -25497.733     114.1147   -25611.847    3272.4806 
  152200    285.51865   -25460.432    122.55507   -25582.987   -5217.0279 
  152400    289.96023    -25473.73    124.46156   -25598.191   -8795.4741 
  152600    289.38811   -25483.089    124.21598   -25607.305    4041.4534 
  152800      311.275   -25473.984    133.61064   -25607.595    698.03554 
  153000    275.32062   -25486.895     118.1777   -25605.073   -6576.5207 
  153200    314.13601   -25458.614    134.83869   -25593.453    4018.4014 
  153400    301.80675   -25476.225    129.54652   -25605.772    -6454.869 
  153600    307.03567   -25469.989    131.79096    -25601.78   -308.04865 
  153800    353.51454   -25445.489     151.7414    -25597.23     4957.906 
  154000    302.48858     -25471.1    129.83918   -25600.939    252.76479 
  154200    294.42228   -25475.476    126.37683   -25601.853    -2136.902 
  154400    330.12956   -25450.149    141.70371   -25591.853   -3151.7779 
  154600    316.81688   -25476.786    135.98942   -25612.775      860.944 
  154800    313.64766   -25465.241    134.62907    -25599.87    1443.9639 
  155000    274.64858   -25483.727    117.88923   -25601.616    3475.0973 
  155200    286.15172   -25480.839     122.8268   -25603.666    7967.5462 
  155400    298.90234   -25478.125    128.29984   -25606.424   -4003.2643 
  155600     281.2358    -25486.62    120.71671   -25607.337    1476.6356 
  155800    305.17352   -25467.189    130.99166    -25598.18     1729.775 
  156000    269.30202   -25488.531    115.59429   -25604.125    2326.8997 
  156200    291.58168   -25480.383    125.15754   -25605.541    1444.7802 
  156400     313.2581   -25462.841    134.46186   -25597.303     2748.327 
  156600    289.17248   -25480.208    124.12343   -25604.332   -2268.5958 
  156800    312.16214   -25444.797    133.99143   -25578.789     2163.948 
  157000    291.79789   -25474.489    125.25035   -25599.739   -4625.3259 
  157200    295.28177   -25480.196    126.74576   -25606.942    3785.7666 
  157400    328.84332   -25451.842     141.1516   -25592.994    2697.0168 
  157600    308.12406   -25476.203    132.25814   -25608.461   -11404.671 
  157800    294.10047   -25480.659     126.2387   -25606.898    2391.2185 
  158000    328.07666   -25458.261    140.82253   -25599.084     375.1828 
  158200    327.20661   -25451.132    140.44907   -25591.581    3186.8791 
  158400    278.47252   -25488.593    119.53061   -25608.124    3541.0462 
  158600    319.94404     -25467.5    137.33171   -25604.832   -7281.7784 
  158800    300.67451   -25461.742    129.06052   -25590.802    1551.7138 
  159000    274.87957   -25490.477    117.98838   -25608.466    1089.1353 
  159200    319.56132   -25463.778    137.16743   -25600.946   -1180.0339 
  159400    314.53019   -25470.773    135.00788    -25605.78    5020.1998 
  159600    262.77544   -25490.861    112.79285   -25603.654    847.93735 
  159800    278.51111   -25492.445    119.54717   -25611.992    4778.3149 
  160000     293.9276    -25466.46     126.1645   -25592.624    809.23766 
  160200    264.19691   -25485.371      113.403   -25598.774    3387.9255 
  160400    292.73523   -25484.639    125.65269   -25610.292   -7714.2411 
  160600     309.2108   -25462.378    132.72461   -25595.102   -761.47677 
  160800     283.8386   -25485.931    121.83393   -25607.765    4045.9035 
  161000    292.91794   -25460.331    125.73111   -25586.062   -885.65004 
  161200    319.13602   -25457.793    136.98487   -25594.778    590.96886 
  161400    286.69495   -25478.277    123.05998   -25601.337    -577.1333 
  161600    315.18016    -25477.25    135.28687   -25612.537   -6761.5329 
  161800     274.2403   -25492.799    117.71399   -25610.513    2157.7351 
  162000    266.92397   -25492.932    114.57355   -25607.506    647.03546 
  162200    292.87345   -25472.593    125.71202   -25598.305   -3598.9557 
  162400    334.35328   -25466.185    143.51668   -25609.702    -581.3148 
  162600    280.26948   -25488.845    120.30193   -25609.147    759.04731 
  162800    293.84811   -25466.463    126.13038   -25592.594    1695.1502 
  163000    325.03208   -25460.227    139.51568   -25599.743   -3155.1283 
  163200    288.77003   -25484.807    123.95068   -25608.757    2663.9113 
  163400    291.74635   -25476.745    125.22823   -25601.973    5711.7651 
  163600    330.20891   -25467.201    141.73776   -25608.939    1357.2569 
  163800    325.19416   -25467.511    139.58525   -25607.096   -3426.3762 
  164000    301.92152   -25495.183    129.59578   -25624.779   -5488.0901 
  164200    306.91177   -25473.395    131.73778   -25605.133    632.15865 
  164400    298.62772   -25481.554    128.18196   -25609.736    1123.3258 
  164600    292.71002   -25476.831    125.64187   -25602.472     7636.524 
  164800    281.40748   -25458.492     120.7904   -25579.283   -1907.4789 
  165000    292.33128   -25482.416     125.4793   -25607.896     5824.403 
  165200    268.52325   -25476.646    115.26002   -25591.906   -4924.7635 
  165400    301.05651   -25476.155    129.22449    -25605.38    4351.4034 
  165600    291.53479   -25487.592    125.13742    -25612.73   -956.68101 
  165800    322.19023   -25463.869    138.29585   -25602.165     -3079.73 
  166000    308.93158   -25467.315    132.60475   -25599.919    2136.8115 
  166200    283.72506   -25497.289    121.78519   -25619.075   -3451.0065 
  166400    293.36116   -25477.222    125.92136   -25603.144   -6309.2405 
  166600    307.15605    -25469.38    131.84263   -25601.223   -5646.2824 
  166800    249.95067    -25499.42    107.28799   -25606.708    3046.9656 
  167000    293.17323   -25479.948    125.84069   -25605.789   -1438.3926 
  167200    272.14724   -25471.804    116.81557    -25588.62   -1968.7007 
  167400    338.46611   -25458.216    145.28206   -25603.498   -3341.5673 
  167600    327.44665   -25448.694     140.5521   -25589.247   -2211.1209 
  167800    299.47655   -25479.372    128.54631   -25607.918   -3149.6101 
  168000    283.81357   -25491.676    121.82318   -25613.499    1436.7543 
  168200    305.11241    -25467.16    130.96543   -25598.126    5952.7221 
  168400    307.01234   -25461.001    131.78095   -25592.782    6667.6207 
  168600    301.29944   -25484.511    129.32876   -25613.839    4600.6879 
  168800    294.83683   -25473.592    126.55477   -25600.147    2755.8044 
  169000    302.56622   -25475.481    129.87251   -25605.354    2850.7347 
  169200     275.6008   -25501.545    118.29796   -25619.843    -2129.648 
  169400    266.31713   -25486.529    114.31307   -25600.842   -1686.1667 
  169600    321.99344   -25463.512    138.21138   -25601.723    315.62944 
  169800    307.30458   -25475.878    131.90639   -25607.784   -5265.6618 
  170000    288.45835   -25495.472     123.8169   -25619.289   -2505.7761 
  170200    323.24475   -25462.043    138.74849   -25600.791    1981.9886 
  170400    309.35755   -25474.157     132.7876   -25606.944    3217.8634 
  170600    269.76775   -25495.208    115.79421   -25611.002    -3148.265 
  170800    325.67955   -25463.998     139.7936   -25603.792   -5547.3827 
  171000    318.23698   -25467.408    136.59897   -25604.007   -2594.7581 
  171200    298.28042   -25496.121    128.03289   -25624.154   -2960.5265 
  171400    282.09068   -25480.813    121.08366   -25601.897    -33.95199 
  171600    272.25605   -25469.558    116.86227    -25586.42   -8272.3602 
  171800    320.16773     -25471.4    137.42772   -25608.828   -1544.1556 
  172000    272.54111   -25489.046    116.98463    -25606.03    4444.8465 
  172200    327.50837   -25458.228    140.57859   -25598.806   -2597.4422 
  172400    303.31244   -25466.998    130.19282   -25597.191    4601.8838 
  172600    274.06878   -25496.775    117.64036   -25614.416     1795.964 
  172800    301.19873   -25478.398    129.28553   -25607.684    5563.8655 
  173000    285.95175   -25472.725    122.74097   -25595.466   -733.81216 
  173200    283.58807   -25463.309    121.72639   -25585.035    94.664384 
  173400    287.28594   -25462.544    123.31366   -25585.858     3243.969 
  173600    289.61895   -25482.904    124.31507   -25607.219    4116.9124 
  173800    332.95169   -25467.991    142.91507   -25610.906   -1089.5989 
  174000    279.91334   -25499.878    120.14906   -25620.027    175.48791 
  174200    307.22601   -25480.263    131.87266   -25612.135   -3246.9538 
  174400    304.91144   -25463.985    130.87917   -25594.864   -3384.7229 
  174600    292.94271   -25486.966    125.74175   -25612.708    1059.4436 
  174800    276.32747   -25493.651    118.60988   -25612.261   -2219.6747 
  175000    316.12785   -25471.829    135.69366   -25607.523     1358.923 
  175200    276.16226   -25482.134    118.53896   -25600.673    1122.3377 
  175400    268.59047   -25487.566    115.28887   -25602.855    427.10187 
  175600    324.66702   -25466.157    139.35898   -25605.516    -6611.853 
  175800    316.05092   -25461.066    135.66064   -25596.726   -659.36181 
  176000    248.63316   -25497.228    106.72246    -25603.95   -7096.5992 
  176200    299.32765   -25496.852     128.4824   -25625.335    1143.6223 
  176400    306.50501   -25477.443    131.56318   -25609.006   -787.80776 
  176600    315.41734   -25461.596    135.38868   -25596.984   -1764.8319 
  176800    311.74674   -25469.567    133.81313    -25603.38    884.47347 
  177000    302.67291   -25476.442     129.9183    -25606.36    -1632.127 
  177200    323.66766   -25457.421    138.93002   -25596.351   -2113.5884 
  177400    272.31456   -25481.405    116.88739   -25598.292   -1236.2761 
  177600    337.57937   -25458.903    144.90144   -25603.804   -418.71318 
  177800    296.48261   -25459.018     127.2612   -25586.279    8148.7523 
  178000    317.76413   -25480.041    136.39601   -25616.437   -881.75317 
  178200    317.20548   -25456.949    136.15621   -25593.105   -2642.7849 
  178400    315.41744   -25471.339    135.38872   -25606.727    5208.8114 
  178600    275.14788   -25482.404    118.10355   -25600.508    3095.2708 
  178800    287.53239   -25461.415    123.41944   -25584.834   -2151.2243 
  179000    385.19286   -25428.538    165.33889   -25593.877    -10483.18 
  179200    312.42198   -25464.174    134.10296   -25598.277    8346.3177 
  179400    330.20499   -25480.695    141.73608   -25622.431    -870.6831 
  179600    255.77404   -25500.229    109.78759   -25610.017   -5574.5159 
  179800    327.60539    -25462.59    140.62024    -25603.21    5848.1199 
  180000    303.46326    -25476.85    130.25755   -25607.108     1185.326 
  180200      269.723   -25497.313    115.77499   -25613.088    66.992073 
  180400     311.3965    -25464.22    133.66279   -25597.883   -6574.0011 
  180600    286.32863   -25470.837    122.90274    -25593.74    10892.591 
  180800    303.02908   -25492.826    130.07119   -25622.897    2409.5346 
  181000    275.80033   -25472.496    118.38361   -25590.879   -1002.9634 
  181200    322.26672   -25459.827    138.32868   -25598.155    565.44301 
[...]
  950000    274.10863   -25477.018    117.65747   -25594.676    963.20465 
  950200    328.27997   -25442.894     140.9098   -25583.803    2644.1779 
  950400    314.79874   -25467.248    135.12315   -25602.371    4251.7367 
  950600    270.91996   -25481.264    116.28877   -25597.553    1381.2579 
  950800     306.2044    -25454.77    131.43415   -25586.204    5607.9619 
  951000    308.37819   -25475.577    132.36722   -25607.945    7432.2736 
  951200    268.23737   -25476.416    115.13731   -25591.553   -533.43515 
  951400    317.12052   -25462.102    136.11975   -25598.222   -969.42135 
  951600    307.92209   -25484.616    132.17145   -25616.787     327.5417 
  951800    279.26931   -25498.161    119.87262   -25618.033    251.55085 
  952000    305.40744   -25465.978    131.09206    -25597.07   -4305.7949 
  952200    305.60349   -25468.896    131.17622   -25600.072    3419.5961 
  952400    287.17488   -25493.714    123.26598    -25616.98    7439.8163 
  952600    305.32826   -25473.253    131.05808   -25604.312   -8263.7937 
  952800    309.90052   -25466.143    133.02066   -25599.164   -9683.7719 
  953000    361.13874   -25442.578    155.01398   -25597.592   -118.24796 
  953200    293.48502   -25477.949    125.97452   -25603.924    3784.8141 
  953400     309.8513   -25467.564    132.99953   -25600.564   -206.42175 
  953600    295.57111   -25461.625    126.86995   -25588.495    3306.5757 
  953800    306.71601   -25483.157    131.65375   -25614.811   -812.84621 
  954000    337.56982   -25467.437    144.89734   -25612.335     1738.944 
  954200    303.29455    -25471.67    130.18514   -25601.855   -1109.9219 
  954400    299.12745   -25491.615    128.39646   -25620.011   -5222.6108 
  954600    303.16725   -25464.574     130.1305   -25594.705   -1340.6608 
  954800    298.27225   -25464.167    128.02938   -25592.196    2410.1428 
  955000    285.90443   -25497.106    122.72066   -25619.827    2419.3154 
  955200    294.60309    -25484.56    126.45444   -25611.015   -4987.6959 
  955400     325.3958    -25469.26     139.6718   -25608.932    397.17756 
  955600    295.73889    -25484.38    126.94197   -25611.322   -1908.5958 
  955800    266.06676   -25481.364     114.2056   -25595.569     490.1066 
  956000    313.90331   -25466.126    134.73881   -25600.865    1952.4585 
  956200    297.09969   -25486.012    127.52607   -25613.538    6617.5951 
  956400    256.87511   -25503.172    110.26021   -25613.432   -2441.5361 
  956600    298.32405   -25468.404    128.05161   -25596.455    2268.7127 
  956800    294.32569   -25477.435    126.33537   -25603.771    3856.9822 
  957000    289.85497   -25473.656    124.41638   -25598.073    2137.5204 
  957200    312.21755   -25463.281    134.01521   -25597.297    1956.2332 
  957400    323.58865   -25482.733    138.89611   -25621.629   -1230.7623 
  957600    337.81331   -25460.876    145.00185   -25605.878    332.96021 
  957800    276.61877   -25463.947    118.73491   -25582.682    1120.1998 
  958000    251.77094   -25489.135    108.06931   -25597.205    4299.0903 
  958200    282.43654   -25497.318    121.23211    -25618.55   -1499.8894 
  958400    297.53452    -25469.57    127.71272   -25597.283   -6567.1172 
  958600    330.54933   -25482.272    141.88388   -25624.156    1942.9992 
  958800    278.03886    -25488.36    119.34447   -25607.704     830.0869 
  959000    302.64283   -25465.041     129.9054   -25594.946   -2732.5714 
  959200    285.07186   -25483.026    122.36329   -25605.389   -10466.594 
  959400    294.86404   -25479.914    126.56645    -25606.48   -154.43104 
  959600     314.2409   -25471.888    134.88371   -25606.772    2838.5512 
  959800    280.82878   -25498.555    120.54201   -25619.097    3679.9326 
  960000    287.78919   -25492.901    123.52967   -25616.431   -9905.1097 
  960200    277.85596   -25469.156    119.26596   -25588.422    1341.1006 
  960400    313.18657    -25465.95    134.43115   -25600.382    134.59999 
  960600    305.81142   -25478.356    131.26547   -25609.622    1503.7478 
  960800    323.50492   -25470.945    138.86017   -25609.805    4073.5538 
  961000    304.94591   -25470.198    130.89396   -25601.092    2692.7097 
  961200    346.01523   -25436.056    148.52242   -25584.578   -3372.6778 
  961400    314.57351   -25468.178    135.02648   -25603.205    13965.235 
  961600    298.10588    -25477.37    127.95797   -25605.328   -4243.2237 
  961800     300.5978   -25475.344    129.02759   -25604.371   -2934.1021 
  962000    322.65732   -25469.299    138.49635   -25607.796    4617.2272 
  962200    283.62067   -25493.989    121.74039   -25615.729    604.40611 
  962400    309.93515   -25464.748    133.03552   -25597.783    2288.6642 
  962600    308.30731   -25461.934     132.3368   -25594.271    5226.7338 
  962800    293.30034    -25485.92    125.89525   -25611.815    713.03751 
  963000    314.68832   -25459.812    135.07576   -25594.888    8589.5231 
  963200    311.34503   -25468.674     133.6407   -25602.315    1734.3078 
  963400    289.51942   -25481.644    124.27234   -25605.916    147.80107 
  963600    346.64661   -25459.914    148.79343   -25608.708   -5218.8409 
  963800    293.46272    -25468.54    125.96496   -25594.505    -1848.505 
  964000    288.15546   -25479.585    123.68688   -25603.272   -4492.2947 
  964200    311.72961   -25452.902    133.80577   -25586.708    5778.5135 
  964400     303.9893   -25470.078    130.48335   -25600.561    6871.7757 
  964600    283.22415   -25482.669    121.57018   -25604.239    -3203.386 
  964800    314.66703    -25470.94    135.06662   -25606.006   -3439.7105 
  965000    306.96434   -25449.983    131.76034   -25581.743   -3634.2995 
  965200    310.26254   -25483.209    133.17605   -25616.385   -4458.7801 
  965400    296.70829   -25476.239    127.35807   -25603.597    5581.6777 
  965600    328.68496   -25463.995    141.08363   -25605.078    3721.2782 
  965800    304.98497   -25476.487    130.91073   -25607.397    3722.1763 
  966000    287.58541   -25480.246     123.4422   -25603.689    31.268723 
  966200    288.43532   -25476.735    123.80701   -25600.542   -9565.4372 
  966400    340.76132   -25457.133    146.26725     -25603.4   -4590.4424 
  966600    285.10994   -25482.523    122.37964   -25604.902    6433.4049 
  966800    291.02765   -25480.613    124.91973   -25605.533   -290.65424 
  967000      310.622   -25451.062    133.33034   -25584.392    2693.4105 
  967200    302.27645     -25463.5    129.74813   -25593.249    3633.6299 
  967400    312.59716   -25471.403    134.17816   -25605.582    -7315.651 
  967600    286.15678    -25477.22    122.82898   -25600.049    5211.4536 
  967800    325.21379   -25483.772    139.59368   -25623.366     5696.663 
  968000    286.43295   -25502.169    122.94752   -25625.117    3811.1057 
  968200     302.7934   -25471.637    129.97002   -25601.607     73.71788 
  968400    287.59739   -25461.912    123.44734   -25585.359     1895.539 
  968600    287.82038   -25467.206    123.54306   -25590.749    4188.1862 
  968800     320.2068   -25464.373     137.4445   -25601.817    7559.7443 
  969000    276.05103   -25491.441    118.49122   -25609.932    8166.0904 
  969200    296.33847   -25468.226    127.19933   -25595.425    2762.2008 
  969400    316.33465   -25469.309    135.78242   -25605.091   -4056.2167 
  969600    289.18527   -25485.745    124.12891   -25609.874   -4898.5684 
  969800     323.5878    -25450.04    138.89574   -25588.936   -2263.0136 
  970000    306.73242   -25473.378    131.66079   -25605.039    3021.8096 
  970200    293.50164   -25470.674    125.98166   -25596.655   -7467.2782 
  970400    256.67354   -25492.766    110.17369   -25602.939    6843.6957 
  970600    270.42251   -25482.735    116.07525    -25598.81    407.45505 
  970800    282.43741   -25466.442    121.23249   -25587.675   -3972.2025 
  971000    291.89908   -25491.487    125.29378   -25616.781    729.76101 
  971200     276.8332   -25484.282    118.82695   -25603.109    2305.1329 
  971400    295.84101   -25473.824     126.9858    -25600.81   -3179.3565 
  971600     271.0374   -25481.966    116.33918   -25598.305    696.85884 
  971800    290.45543   -25487.415    124.67411   -25612.089   -2284.8991 
  972000     322.6739   -25466.886    138.50346    -25605.39    5309.1579 
  972200    270.37568   -25482.772    116.05515   -25598.827    556.09484 
  972400    343.83597   -25459.052      147.587   -25606.639    4282.5145 
  972600     286.6014   -25470.865    123.01983   -25593.885   -3206.3716 
  972800    281.49865   -25484.454    120.82954   -25605.283    1794.7229 
  973000    276.45381   -25500.426     118.6641    -25619.09   -3423.5915 
  973200    298.54025    -25465.97    128.14442   -25594.114   -4800.5379 
  973400    285.71858   -25463.674    122.64089   -25586.315    4679.0899 
  973600    274.66473   -25490.521    117.89617   -25608.417    2022.6346 
  973800    326.93583   -25473.586    140.33284   -25613.919   -1976.8727 
  974000    275.46916   -25475.535    118.24146   -25593.777   -2630.7727 
  974200    316.42143   -25476.995    135.81967   -25612.815    1467.3107 
  974400    319.40876   -25452.538    137.10195    -25589.64   -1391.7675 
  974600    299.52792   -25473.414    128.56836   -25601.982    5008.4061 
  974800    294.07038   -25478.591    126.22579   -25604.817    878.92432 
  975000     341.5701   -25465.825    146.61441    -25612.44   -874.24448 
  975200    338.99586   -25438.464    145.50945   -25583.973    6140.2329 
  975400    293.68291   -25469.874    126.05947   -25595.934    2467.1465 
  975600    287.17927   -25481.306    123.26787   -25604.574    647.63382 
  975800    327.96801   -25460.268    140.77589   -25601.044   -4624.6077 
  976000     320.7988   -25479.281     137.6986    -25616.98   -373.57873 
  976200    270.54353   -25485.359     116.1272   -25601.486    -2118.511 
  976400    321.74059   -25468.127    138.10285    -25606.23    2293.2196 
  976600    283.20994   -25486.315    121.56408   -25607.879   -3188.6896 
  976800    285.68598   -25481.947    122.62689   -25604.573    2223.9555 
  977000    285.90199   -25481.143    122.71961   -25603.863   -740.67918 
  977200    266.37165   -25476.209    114.33647   -25590.546   -693.59634 
  977400    332.66298   -25455.022    142.79114   -25597.813    4043.9753 
  977600    293.24742   -25478.956    125.87254   -25604.829   -2467.6583 
  977800     287.0742    -25479.45    123.22277   -25602.673   -5845.5447 
  978000    307.70031   -25449.582    132.07625   -25581.658   -890.25506 
  978200    293.65938   -25477.871    126.04937    -25603.92    -642.8412 
  978400    315.96721   -25470.829     135.6247   -25606.454    4140.1245 
  978600    283.85139   -25480.183    121.83942   -25602.022    4338.2252 
  978800    273.70523   -25496.427    117.48432   -25613.911    2480.7493 
  979000    319.06299   -25466.159    136.95353   -25603.112    4066.7564 
  979200    329.14265   -25472.984    141.28009   -25614.264    4458.7902 
  979400    273.28602   -25494.614    117.30437   -25611.918    4677.4741 
  979600    348.13847   -25465.531    149.43379   -25614.964   -2170.8425 
  979800    264.15611   -25484.432    113.38548   -25597.818    -2730.843 
  980000    330.99948    -25464.51    142.07711   -25606.588   -3796.1122 
  980200    324.34536   -25464.284    139.22091   -25603.504    6154.8105 
  980400    279.61628   -25480.151    120.02155   -25600.173   -2562.3095 
  980600    324.55215   -25455.931    139.30968    -25595.24   -4057.5245 
  980800    307.34602   -25487.952    131.92418   -25619.876    2659.2755 
  981000    290.10607   -25484.674    124.52416   -25609.198   -4977.7978 
  981200    300.00461   -25465.743    128.77297   -25594.516   -5060.8262 
  981400    303.69527   -25471.027    130.35714   -25601.384    4170.9894 
  981600     310.1522    -25476.91    133.12869   -25610.039   -1263.0179 
  981800    323.61432   -25464.309    138.90713   -25603.216   -2119.8319 
  982000    349.67658   -25439.753      150.094   -25589.847    1886.3418 
  982200    300.34823   -25477.903    128.92047   -25606.824   -11571.738 
  982400    309.96903   -25472.585    133.05007   -25605.635   -1184.3358 
  982600    292.18121   -25486.932    125.41488   -25612.347     17.79193 
  982800    302.74329   -25464.195    129.94851   -25594.143   -2964.4457 
  983000      288.983   -25478.831     124.0421   -25602.873    3115.8935 
  983200    297.95149    -25482.86     127.8917   -25610.752    657.84228 
  983400    295.42055   -25470.445    126.80532   -25597.251   -910.22999 
  983600    369.00401   -25437.255    158.39004   -25595.645    5658.8469 
  983800    318.76322   -25467.444    136.82485   -25604.269   -1776.2313 
  984000    307.81853   -25484.148    132.12699   -25616.275    3271.8102 
  984200    284.99759    -25476.53    122.33141   -25598.861    4287.1386 
  984400    345.39236   -25451.771    148.25506   -25600.026    -880.6603 
  984600    288.80438   -25470.022    123.96543   -25593.987   -3942.0857 
  984800    308.23813    -25476.79     132.3071   -25609.098    1547.5118 
  985000    267.58379   -25497.774    114.85677   -25612.631   -316.71648 
  985200    331.62311   -25461.612    142.34479   -25603.957    -6748.005 
  985400    264.73106   -25480.806    113.63227   -25594.438    7184.4678 
  985600    297.69062   -25460.723    127.77972   -25588.503    2796.3283 
  985800    316.34967   -25466.554    135.78887   -25602.343    1648.4352 
  986000      299.167   -25480.857    128.41344    -25609.27   -1740.7368 
  986200    294.57001   -25470.058    126.44024   -25596.499   -2496.4248 
  986400    332.77007   -25452.087    142.83711   -25594.924    595.11267 
  986600    288.15709   -25477.345    123.68758   -25601.033    327.73306 
  986800    289.21369   -25481.981    124.14111   -25606.122     381.3083 
  987000    327.68512   -25454.675    140.65446   -25595.329   -3412.7524 
  987200    298.97378   -25482.657     128.3305   -25610.987   -2344.9453 
  987400    327.41756   -25470.073    140.53962   -25610.613   -4746.5821 
  987600    285.67773   -25467.713    122.62335   -25590.336   -1228.8109 
  987800    319.55619   -25449.973    137.16523   -25587.138    1202.9508 
  988000     330.4797   -25477.735      141.854   -25619.589    2839.8932 
  988200    295.84024   -25478.206    126.98547   -25605.191    351.68064 
  988400     326.9604   -25447.011    140.34339   -25587.354    1846.6307 
  988600    303.81612   -25473.648    130.40901   -25604.057   -3753.6656 
  988800    292.36681    -25480.32    125.49455   -25605.815    2297.0868 
  989000    340.70412   -25458.448    146.24269   -25604.691    112.49076 
  989200    327.13542   -25463.358    140.41851   -25603.777    1190.1093 
  989400    306.77879   -25478.522     131.6807   -25610.203   -20.406463 
  989600    297.36106   -25479.419    127.63827   -25607.057   -5472.4104 
  989800    296.81159   -25453.549    127.40241   -25580.952    2798.2152 
  990000    321.57629    -25464.47    138.03233   -25602.502    -3379.615 
  990200    311.96754   -25476.353     133.9079   -25610.261    1490.9563 
  990400    303.87178   -25490.713     130.4329   -25621.146    4564.4911 
  990600    331.24786   -25461.789    142.18372   -25603.972   -1451.4691 
  990800    291.32128   -25475.644    125.04577    -25600.69   -828.39914 
  991000    277.28399   -25498.349    119.02045    -25617.37   -3188.9969 
  991200    319.16069   -25470.382    136.99547   -25607.377    2503.5738 
  991400    319.98081   -25473.102    137.34749    -25610.45   -4967.6089 
  991600    276.85113   -25500.575    118.83465    -25619.41    2974.4381 
  991800    298.27853   -25463.186    128.03208   -25591.218    2048.1279 
  992000    286.13465   -25472.101    122.81948   -25594.921   -223.69581 
  992200    282.91394   -25488.623    121.43703    -25610.06    5983.9629 
  992400    316.70745   -25457.485    135.94244   -25593.427   -1093.4095 
  992600    301.32308   -25484.861    129.33891     -25614.2   -713.84443 
  992800    313.78559   -25479.155    134.68827   -25613.844    1528.6994 
  993000    267.18321   -25474.438    114.68483   -25589.123   -4979.9139 
  993200    302.37329    -25476.16     129.7897    -25605.95   -7574.1463 
  993400    291.51546    -25481.74    125.12912   -25606.869    230.54663 
  993600    333.06892   -25455.136    142.96539   -25598.101   -3840.6588 
  993800    281.50305   -25482.399    120.83143    -25603.23    4162.7919 
  994000    310.25959   -25480.019    133.17479   -25613.194    968.00916 
  994200    316.94336   -25457.357    136.04371     -25593.4    570.46881 
  994400    333.45739   -25444.702    143.13213   -25587.834   -713.33748 
  994600    282.65577   -25481.635    121.32621   -25602.961    4904.5747 
  994800    297.88171   -25475.101    127.86175   -25602.963    1012.1504 
  995000     348.2255   -25446.879    149.47114    -25596.35   -2600.8461 
  995200    322.21956   -25468.999    138.30844   -25607.307    4493.4389 
  995400    286.92926   -25479.088    123.16055   -25602.249    1285.3515 
  995600    320.92105   -25443.204    137.75108   -25580.955    -2633.644 
  995800      305.258   -25478.851    131.02792   -25609.879   -363.46822 
  996000    298.59236   -25475.806    128.16678   -25603.973   -3250.4392 
  996200    282.89219   -25472.805    121.42769   -25594.232    3826.1406 
  996400    286.82374   -25481.483    123.11526   -25604.598   -9190.5259 
  996600    308.39598   -25458.691    132.37486   -25591.066    1636.0354 
  996800    302.18507    -25487.72    129.70891   -25617.429    1802.7179 
  997000    294.07714    -25476.08    126.22868   -25602.309    -1161.653 
  997200     280.2681   -25471.418    120.30134    -25591.72   -1613.4245 
  997400    316.01009   -25469.583    135.64311   -25605.226   -2923.1581 
  997600    269.91787   -25492.786    115.85864   -25608.644    749.76975 
  997800    316.33069   -25464.629    135.78073    -25600.41    1477.8553 
  998000    327.98608   -25472.418    140.78365   -25613.202   -546.99764 
  998200    231.24731   -25504.387    99.259819   -25603.647   -5414.3007 
  998400    316.90095   -25475.052     136.0255   -25611.078   -1967.5378 
  998600     285.7012   -25473.928    122.63343   -25596.561   -4637.2653 
  998800    268.79021    -25490.47    115.37461   -25605.844    39.100258 
  999000    324.93669   -25462.475    139.47474    -25601.95   -5690.7525 
  999200    271.14334   -25481.997    116.38466   -25598.382   -356.30202 
  999400    326.05943   -25456.998    139.95666   -25596.954    4289.4064 
  999600    316.49844   -25470.515    135.85273   -25606.368    1608.6956 
  999800     275.9447   -25486.821    118.44558   -25605.266   -5283.0895 
 1000000     315.7773   -25458.768    135.54319   -25594.311    2796.5832 
Loop time of 3156.01 on 8 procs for 1000000 steps with 145 atoms

Performance: 6.844 ns/day, 3.507 hours/ns, 316.856 timesteps/s
99.3% CPU use with 8 MPI tasks x no OpenMP threads

MPI task timing breakdown:
Section |  min time  |  avg time  |  max time  |%varavg| %total
---------------------------------------------------------------
Pair    | 1371.5     | 1716.7     | 2706.6     |1341.3 | 54.39
Neigh   | 0.76557    | 0.83519    | 0.95218    |   7.5 |  0.03
Comm    | 23.948     | 1013.6     | 1359.6     |1744.2 | 32.12
Output  | 0.1038     | 0.11735    | 0.19382    |   8.5 |  0.00
Modify  | 420.78     | 421.86     | 423.39     |   4.0 | 13.37
Other   |            | 2.946      |            |       |  0.09

Nlocal:    18.125 ave 68 max 1 min
Histogram: 6 0 0 0 0 0 0 0 0 2
Nghost:    601.25 ave 677 max 568 min
Histogram: 4 1 1 0 0 0 0 0 1 1
Neighs:    1201.5 ave 4332 max 97 min
Histogram: 6 0 0 0 0 0 0 0 0 2

Total # of neighbors = 9612
Ave neighs/atom = 66.2897
Neighbor list builds = 1215
Dangerous builds = 0

Please see the log.cite file for references relevant to this simulation

Total wall time: 0:52:38
