LAMMPS (3 Mar 2020)
Reading data file ...
  orthogonal box = (0 0 0) to (21.884 21.886 21.885)
  2 by 2 by 2 MPI processor grid
  reading atoms ...
  145 atoms
  read_data CPU = 0.0368255 secs
WARNING: Using 'neigh_modify every 1 delay 0 check yes' setting during minimization (../min.cpp:190)
WARNING: Total cutoff < 2*bond cutoff. May need to use an increased neighbor list skin. (../pair_reaxc.cpp:413)
Neighbor list info ...
  update every 1 steps, delay 0 steps, check yes
  max neighbors/atom: 2000, page size: 100000
  master list distance cutoff = 9.5
  ghost atom cutoff = 9.5
  binsize = 4.75, bins = 5 5 5
  2 neighbor lists, perpetual/occasional/extra = 2 0 0
  (1) pair reax/c, perpetual
      attributes: half, newton off, ghost
      pair build: half/bin/newtoff/ghost
      stencil: half/ghost/bin/3d/newtoff
      bin: standard
  (2) fix qeq/reax, perpetual, copy from (1)
      attributes: half, newton off, ghost
      pair build: copy
      stencil: none
      bin: none
Setting up cg style minimization ...
  Unit style    : real
  Current step  : 0
Per MPI rank memory allocation (min/avg/max) = 12.67 | 13.32 | 15.25 Mbytes
Step Temp E_pair E_mol TotEng Press 
       0            0   -26090.997            0   -26090.997    7102.7369 
     122            0   -26362.337            0   -26362.337    -1221.893 
Loop time of 5.53821 on 8 procs for 122 steps with 145 atoms

98.8% CPU use with 8 MPI tasks x no OpenMP threads

Minimization stats:
  Stopping criterion = linesearch alpha is zero
  Energy initial, next-to-last, final = 
        -26090.9967235     -26362.3367648     -26362.3367648
  Force two-norm initial, final = 1755.63 20.2112
  Force max component initial, final = 1188.23 7.70959
  Final line search alpha, max atom move = 2.41601e-11 1.86265e-10
  Iterations, force evaluations = 122 778

MPI task timing breakdown:
Section |  min time  |  avg time  |  max time  |%varavg| %total
---------------------------------------------------------------
Pair    | 1.8958     | 2.2752     | 3.4139     |  41.5 | 41.08
Neigh   | 0          | 0          | 0          |   0.0 |  0.00
Comm    | 0.034528   | 0.77418    | 1.5355     |  80.5 | 13.98
Output  | 0.0031048  | 0.0034852  | 0.0041491  |   0.5 |  0.06
Modify  | 2.0616     | 2.0623     | 2.063      |   0.0 | 37.24
Other   |            | 0.423      |            |       |  7.64

Nlocal:    18.125 ave 73 max 0 min
Histogram: 6 0 0 0 0 0 0 0 0 2
Nghost:    310.375 ave 319 max 307 min
Histogram: 5 0 1 0 0 0 1 0 0 1
Neighs:    596.25 ave 2406 max 0 min
Histogram: 6 0 0 0 0 0 0 0 0 2

Total # of neighbors = 4770
Ave neighs/atom = 32.8966
Neighbor list builds = 0
Dangerous builds = 0
WARNING: Using 'neigh_modify every 1 delay 0 check yes' setting during minimization (../min.cpp:190)
WARNING: Total cutoff < 2*bond cutoff. May need to use an increased neighbor list skin. (../pair_reaxc.cpp:413)
Setting up cg style minimization ...
  Unit style    : real
  Current step  : 122
Per MPI rank memory allocation (min/avg/max) = 12.67 | 13.34 | 15.25 Mbytes
Step Temp E_pair E_mol TotEng Press 
     122            0   -26362.337            0   -26362.337    -1221.893 
     123            0   -26362.337            0   -26362.337    -1221.893 
Loop time of 0.352657 on 8 procs for 1 steps with 145 atoms

98.8% CPU use with 8 MPI tasks x no OpenMP threads

Minimization stats:
  Stopping criterion = linesearch alpha is zero
  Energy initial, next-to-last, final = 
        -26362.3367648     -26362.3367648     -26362.3367648
  Force two-norm initial, final = 20.2112 20.2112
  Force max component initial, final = 7.70959 7.70959
  Final line search alpha, max atom move = 2.41601e-11 1.86265e-10
  Iterations, force evaluations = 1 56

MPI task timing breakdown:
Section |  min time  |  avg time  |  max time  |%varavg| %total
---------------------------------------------------------------
Pair    | 0.13347    | 0.1634     | 0.248      |  11.4 | 46.33
Neigh   | 0          | 0          | 0          |   0.0 |  0.00
Comm    | 0.0020641  | 0.057386   | 0.11253    |  21.6 | 16.27
Output  | 0          | 0          | 0          |   0.0 |  0.00
Modify  | 0.09949    | 0.099738   | 0.10034    |   0.1 | 28.28
Other   |            | 0.03213    |            |       |  9.11

Nlocal:    18.125 ave 73 max 0 min
Histogram: 6 0 0 0 0 0 0 0 0 2
Nghost:    309.125 ave 317 max 306 min
Histogram: 5 1 0 0 0 0 0 0 1 1
Neighs:    597.875 ave 2396 max 0 min
Histogram: 6 0 0 0 0 0 0 0 0 2

Total # of neighbors = 4783
Ave neighs/atom = 32.9862
Neighbor list builds = 0
Dangerous builds = 0
WARNING: Using 'neigh_modify every 1 delay 0 check yes' setting during minimization (../min.cpp:190)
WARNING: Total cutoff < 2*bond cutoff. May need to use an increased neighbor list skin. (../pair_reaxc.cpp:413)
Setting up cg style minimization ...
  Unit style    : real
  Current step  : 123
WARNING: Energy due to 3 extra global DOFs will be included in minimizer energies
Per MPI rank memory allocation (min/avg/max) = 12.67 | 13.34 | 15.25 Mbytes
Step Temp E_pair E_mol TotEng Press Volume 
     123            0   -26362.337            0   -26362.337    -1221.893    10481.891 
     137            0   -26362.455            0   -26362.455   -98.079954     10474.07 
Loop time of 0.400458 on 8 procs for 14 steps with 145 atoms

98.9% CPU use with 8 MPI tasks x no OpenMP threads

Minimization stats:
  Stopping criterion = linesearch alpha is zero
  Energy initial, next-to-last, final = 
        -26362.3367648     -26362.4554317     -26362.4554317
  Force two-norm initial, final = 325.197 78.163
  Force max component initial, final = 206.693 63.1091
  Final line search alpha, max atom move = 9.87176e-13 6.22998e-11
  Iterations, force evaluations = 14 66

MPI task timing breakdown:
Section |  min time  |  avg time  |  max time  |%varavg| %total
---------------------------------------------------------------
Pair    | 0.15968    | 0.1929     | 0.29278    |  12.2 | 48.17
Neigh   | 0          | 0          | 0          |   0.0 |  0.00
Comm    | 0.0028069  | 0.066682   | 0.13458    |  23.5 | 16.65
Output  | 0.0002402  | 0.0002779  | 0.00033079 |   0.0 |  0.07
Modify  | 0.10048    | 0.10054    | 0.10065    |   0.0 | 25.11
Other   |            | 0.04006    |            |       | 10.00

Nlocal:    18.125 ave 73 max 0 min
Histogram: 6 0 0 0 0 0 0 0 0 2
Nghost:    309.125 ave 317 max 306 min
Histogram: 5 1 0 0 0 0 0 0 1 1
Neighs:    597.875 ave 2396 max 0 min
Histogram: 6 0 0 0 0 0 0 0 0 2

Total # of neighbors = 4783
Ave neighs/atom = 32.9862
Neighbor list builds = 0
Dangerous builds = 0
WARNING: Using 'neigh_modify every 1 delay 0 check yes' setting during minimization (../min.cpp:190)
WARNING: Total cutoff < 2*bond cutoff. May need to use an increased neighbor list skin. (../pair_reaxc.cpp:413)
Setting up cg style minimization ...
  Unit style    : real
  Current step  : 137
Per MPI rank memory allocation (min/avg/max) = 12.67 | 13.34 | 15.25 Mbytes
Step Temp E_pair E_mol TotEng Press 
     137            0   -26362.455            0   -26362.455   -98.079954 
     140            0   -26362.471            0   -26362.471    151.91343 
Loop time of 0.194434 on 8 procs for 3 steps with 145 atoms

98.9% CPU use with 8 MPI tasks x no OpenMP threads

Minimization stats:
  Stopping criterion = energy tolerance
  Energy initial, next-to-last, final = 
        -26362.4554317     -26362.4709991     -26362.4711211
  Force two-norm initial, final = 36.7132 22.5242
  Force max component initial, final = 9.30868 8.29276
  Final line search alpha, max atom move = 0.000387391 0.00321254
  Iterations, force evaluations = 3 27

MPI task timing breakdown:
Section |  min time  |  avg time  |  max time  |%varavg| %total
---------------------------------------------------------------
Pair    | 0.066329   | 0.080079   | 0.12131    |   7.8 | 41.19
Neigh   | 0          | 0          | 0          |   0.0 |  0.00
Comm    | 0.0012234  | 0.027405   | 0.05524    |  14.9 | 14.09
Output  | 0          | 0          | 0          |   0.0 |  0.00
Modify  | 0.070754   | 0.070793   | 0.070834   |   0.0 | 36.41
Other   |            | 0.01616    |            |       |  8.31

Nlocal:    18.125 ave 73 max 0 min
Histogram: 6 0 0 0 0 0 0 0 0 2
Nghost:    309.125 ave 317 max 306 min
Histogram: 5 1 0 0 0 0 0 0 1 1
Neighs:    597.875 ave 2396 max 0 min
Histogram: 6 0 0 0 0 0 0 0 0 2

Total # of neighbors = 4783
Ave neighs/atom = 32.9862
Neighbor list builds = 0
Dangerous builds = 0
WARNING: Using 'neigh_modify every 1 delay 0 check yes' setting during minimization (../min.cpp:190)
WARNING: Total cutoff < 2*bond cutoff. May need to use an increased neighbor list skin. (../pair_reaxc.cpp:413)
Setting up cg style minimization ...
  Unit style    : real
  Current step  : 140
WARNING: Energy due to 3 extra global DOFs will be included in minimizer energies
Per MPI rank memory allocation (min/avg/max) = 12.67 | 13.34 | 15.25 Mbytes
Step Temp E_pair E_mol TotEng Press Volume 
     140            0   -26362.471            0   -26362.471    151.91343     10474.07 
     146            0    -26362.51            0    -26362.51   -75.302174    10475.492 
Loop time of 0.308148 on 8 procs for 6 steps with 145 atoms

98.8% CPU use with 8 MPI tasks x no OpenMP threads

Minimization stats:
  Stopping criterion = linesearch alpha is zero
  Energy initial, next-to-last, final = 
        -26362.4711211     -26362.5099733     -26362.5099733
  Force two-norm initial, final = 49.0213 59.2395
  Force max component initial, final = 31.8278 38.5983
  Final line search alpha, max atom move = 2.47077e-12 9.53674e-11
  Iterations, force evaluations = 6 51

MPI task timing breakdown:
Section |  min time  |  avg time  |  max time  |%varavg| %total
---------------------------------------------------------------
Pair    | 0.12332    | 0.14926    | 0.22738    |  10.7 | 48.44
Neigh   | 0          | 0          | 0          |   0.0 |  0.00
Comm    | 0.0022803  | 0.051703   | 0.10465    |  20.3 | 16.78
Output  | 0          | 0          | 0          |   0.0 |  0.00
Modify  | 0.07527    | 0.075346   | 0.075433   |   0.0 | 24.45
Other   |            | 0.03184    |            |       | 10.33

Nlocal:    18.125 ave 73 max 0 min
Histogram: 6 0 0 0 0 0 0 0 0 2
Nghost:    309.125 ave 317 max 306 min
Histogram: 5 1 0 0 0 0 0 0 1 1
Neighs:    597.875 ave 2396 max 0 min
Histogram: 6 0 0 0 0 0 0 0 0 2

Total # of neighbors = 4783
Ave neighs/atom = 32.9862
Neighbor list builds = 0
Dangerous builds = 0
WARNING: Using 'neigh_modify every 1 delay 0 check yes' setting during minimization (../min.cpp:190)
WARNING: Total cutoff < 2*bond cutoff. May need to use an increased neighbor list skin. (../pair_reaxc.cpp:413)
Setting up cg style minimization ...
  Unit style    : real
  Current step  : 146
Per MPI rank memory allocation (min/avg/max) = 12.67 | 13.34 | 15.25 Mbytes
Step Temp E_pair E_mol TotEng Press 
     146            0    -26362.51            0    -26362.51   -75.302174 
     148            0   -26362.518            0   -26362.518   -45.254281 
Loop time of 0.428192 on 8 procs for 2 steps with 145 atoms

98.8% CPU use with 8 MPI tasks x no OpenMP threads

Minimization stats:
  Stopping criterion = linesearch alpha is zero
  Energy initial, next-to-last, final = 
        -26362.5099733     -26362.5175354     -26362.5175354
  Force two-norm initial, final = 27.8821 21.6983
  Force max component initial, final = 8.1482 7.67901
  Final line search alpha, max atom move = 1.70219e-11 1.30711e-10
  Iterations, force evaluations = 2 67

MPI task timing breakdown:
Section |  min time  |  avg time  |  max time  |%varavg| %total
---------------------------------------------------------------
Pair    | 0.16112    | 0.19494    | 0.29746    |  12.5 | 45.53
Neigh   | 0          | 0          | 0          |   0.0 |  0.00
Comm    | 0.0026829  | 0.068274   | 0.13819    |  23.7 | 15.94
Output  | 0          | 0          | 0          |   0.0 |  0.00
Modify  | 0.126      | 0.1261     | 0.12621    |   0.0 | 29.45
Other   |            | 0.03888    |            |       |  9.08

Nlocal:    18.125 ave 73 max 0 min
Histogram: 6 0 0 0 0 0 0 0 0 2
Nghost:    309.125 ave 317 max 306 min
Histogram: 5 1 0 0 0 0 0 0 1 1
Neighs:    597.875 ave 2396 max 0 min
Histogram: 6 0 0 0 0 0 0 0 0 2

Total # of neighbors = 4783
Ave neighs/atom = 32.9862
Neighbor list builds = 0
Dangerous builds = 0
WARNING: Total cutoff < 2*bond cutoff. May need to use an increased neighbor list skin. (../pair_reaxc.cpp:413)
Setting up Verlet run ...
  Unit style    : real
  Current step  : 0
  Time step     : 0.25
Per MPI rank memory allocation (min/avg/max) = 11.54 | 12.34 | 14.12 Mbytes
Step Temp TotEng KinEng PotEng Press 
       0          300   -26233.747    128.77099   -26362.518    516.66827 
     200    216.31336   -26189.037    92.849619   -26281.887    2000.5453 
     400    292.19529   -26125.201    125.42093   -26250.622    340.53195 
     600    294.47395   -26092.999    126.39901   -26219.399   -898.69914 
     800    249.50729   -26112.726    107.09767   -26219.824   -2995.7327 
    1000    322.15671    -26080.74    138.28147   -26219.022    736.63649 
    1200    281.69911   -26100.189    120.91558   -26221.105    -4224.477 
    1400    336.64193   -26087.757    144.49905   -26232.256    738.01262 
    1600    303.54401    -26114.25    130.29221   -26244.542    4651.4244 
    1800    311.83788   -26112.842    133.85225   -26246.694     4870.805 
    2000    328.32959   -26091.716    140.93109   -26232.647    317.80987 
    2200    264.12826   -26116.192    113.37353   -26229.566    3767.7628 
    2400    297.96261   -26099.757    127.89647   -26227.654    5930.8149 
    2600     278.3962   -26102.284    119.49785   -26221.781    413.80857 
    2800    340.42211   -26077.521    146.12164   -26223.643   -285.69646 
    3000    292.57604   -26097.894    125.58436   -26223.479    635.95773 
    3200    319.03997   -26095.578    136.94365   -26232.521    1060.5668 
    3400    305.04635   -26104.961    130.93707   -26235.898    2233.9489 
    3600    303.02306   -26116.397     130.0686   -26246.466   -1600.0143 
    3800    322.32973    -26087.75    138.35573   -26226.106   -4664.5176 
    4000    284.46517    -26115.25    122.10288   -26237.353   -3686.7637 
    4200    304.28936   -26110.134    130.61215   -26240.747   -5788.9681 
    4400    303.70242   -26104.215    130.36021   -26234.575   -1717.2085 
    4600    299.43924   -26125.586     128.5303   -26254.116   -4182.1988 
    4800     338.5891   -26096.433    145.33485   -26241.768    526.98452 
    5000    324.22441   -26101.687      139.169   -26240.856   -9866.5205 
    5200    273.21903   -26113.665    117.27562    -26230.94   -1550.6313 
    5400    343.69165   -26086.358    147.52505   -26233.883   -1039.5556 
    5600    323.12132   -26116.803    138.69551   -26255.498   -522.15473 
    5800    284.37519   -26128.093    122.06425   -26250.158   -1264.5628 
    6000    338.96882   -26094.049    145.49784   -26239.547    4204.3577 
    6200    296.33395   -26118.311    127.19739   -26245.509    2606.5344 
    6400    286.77962   -26119.853    123.09632   -26242.949    347.94954 
    6600    327.06873   -26084.494    140.38989   -26224.883   -177.22503 
    6800    290.03221   -26100.611    124.49245   -26225.104    1221.9863 
    7000    317.02904   -26095.901    136.08048   -26231.982   -3613.9692 
    7200    326.88051   -26091.861    140.30909    -26232.17    1246.0645 
    7400    294.10786   -26117.046    126.24187   -26243.288   -1762.9752 
    7600     305.2046   -26091.076      131.005   -26222.081   -2226.8626 
    7800    307.82795   -26100.292    132.13104   -26232.423    3210.1472 
    8000    282.61616   -26102.964    121.30922   -26224.273   -2850.7533 
    8200    310.53886   -26094.989    133.29466   -26228.284    2965.6857 
    8400    306.48547    -26102.79     131.5548   -26234.345    8354.9596 
    8600    313.47914   -26099.354    134.55674   -26233.911   -967.63886 
    8800    283.41143   -26119.921    121.65057   -26241.571    2131.7008 
    9000    298.10635   -26087.994    127.95817   -26215.953   -7654.3703 
    9200    302.36379   -26094.714    129.78562     -26224.5   -2255.3921 
    9400    290.21604   -26108.673    124.57136   -26233.245   -2239.3249 
    9600    320.90004   -26078.492    137.74206   -26216.234    816.72196 
    9800    284.41959   -26106.469    122.08331   -26228.552   -3594.7973 
   10000    317.17803   -26106.237    136.14443   -26242.382   -6862.0634 
   10200    279.55316   -26136.288    119.99446   -26256.282   -2105.8703 
   10400    288.92496   -26114.642    124.01718   -26238.659    696.53187 
   10600    297.35077   -26099.738    127.63385   -26227.372    2326.3798 
   10800    319.21177   -26073.659    137.01739   -26210.676    2499.1267 
   11000    287.39694   -26106.755     123.3613   -26230.117     242.7246 
   11200    281.08228   -26111.489    120.65082   -26232.139   -4716.7229 
   11400    308.80093   -26098.096    132.54868   -26230.645    2108.6649 
   11600    324.85176   -26080.524    139.43828   -26219.962    922.81035 
   11800    295.74618   -26118.312     126.9451   -26245.258    -3583.308 
   12000    297.61764   -26099.959     127.7484   -26227.708    -2791.608 
   12200    284.18448   -26103.949    121.98239   -26225.931   -1651.0065 
   12400    283.09244   -26126.166    121.51365   -26247.679   -678.63428 
   12600    278.66194    -26123.97    119.61192   -26243.582   -2198.9131 
   12800    299.26258   -26101.964    128.45447   -26230.419   -3095.3032 
   13000    311.77822   -26113.439    133.82664   -26247.266   -2840.9391 
   13200    264.64526   -26124.919    113.59544   -26238.515   -3007.4931 
   13400    271.89611    -26104.94    116.70778   -26221.647   -2677.4823 
   13600    287.36337   -26090.072    123.34689   -26213.419   -7452.9688 
   13800    345.09715    -26059.96    148.12834   -26208.088   -875.45959 
   14000    285.65737   -26099.024    122.61461   -26221.639    4007.9102 
   14200    282.73123   -26120.057    121.35861   -26241.416    837.06712 
   14400    310.55861   -26101.302    133.30314   -26234.605    -2755.734 
   14600     287.6215   -26105.775    123.45769   -26229.233   -3233.1611 
   14800    308.97406   -26110.072    132.62299   -26242.695    8.8488509 
   15000    296.35944   -26091.533    127.20833   -26218.742    18.999454 
   15200    312.30464   -26090.236     134.0526   -26224.288   -5015.2067 
   15400    295.22456   -26110.278     126.7212   -26236.999     826.7881 
   15600    343.17529   -26086.183    147.30341   -26233.486    2438.7989 
   15800      303.236   -26113.753       130.16   -26243.913    4221.3943 
   16000    293.81804   -26128.696    126.11747   -26254.814   -4005.9174 
   16200    314.00209   -26098.427    134.78121   -26233.208   -4085.0402 
   16400    277.85603   -26113.186    119.26599   -26232.452   -3965.6828 
   16600    313.08718   -26104.043    134.38849   -26238.431    -5588.332 
   16800    332.22858   -26091.991    142.60468   -26234.596    -2936.546 
   17000     289.3204   -26110.811    124.18692   -26234.998    214.28741 
   17200    299.23873   -26115.656    128.44423     -26244.1    3831.1552 
   17400    323.69145   -26087.753    138.94023   -26226.694    -8.252292 
   17600    316.68311   -26093.876      135.932   -26229.808    5816.5927 
   17800    295.53465   -26107.996     126.8543   -26234.851    5790.5817 
   18000    286.56381   -26127.009    123.00369   -26250.013   -308.12584 
   18200    264.24573   -26131.289    113.42395   -26244.713   -5148.8991 
   18400    291.16722    -26103.82    124.97964     -26228.8   -5132.9748 
   18600    287.35703   -26116.524    123.34417   -26239.868    1136.5259 
   18800    276.75324   -26131.107    118.79263   -26249.899   -1203.8461 
   19000    303.12457   -26099.967    130.11218   -26230.079    3303.5564 
   19200    318.32226    -26091.49    136.63558   -26228.125   -2098.7821 
   19400    264.97589   -26115.329    113.73736   -26229.066   -3935.1555 
   19600    328.82024   -26091.583     141.1417   -26232.725    9080.8365 
   19800    288.95002   -26104.369    124.02794   -26228.397   -903.77517 
   20000    306.33341   -26109.774    131.48952   -26241.264    3502.2381 
   20200    330.34891   -26086.315    141.79786   -26228.112   -570.17453 
   20400    278.87689   -26118.169    119.70418   -26237.873    2242.3044 
   20600    300.21887   -26100.933    128.86494   -26229.798   -2123.7776 
   20800    300.62109   -26093.564    129.03759   -26222.601    783.01203 
   21000     336.7818   -26092.766    144.55909   -26237.325    2183.9811 
   21200    270.11836   -26119.995     115.9447    -26235.94    1850.3705 
   21400    293.05678   -26110.401    125.79071   -26236.192   -2358.7422 
   21600    287.77617   -26115.794    123.52408   -26239.319   -617.07424 
   21800    260.54778    -26126.94    111.83666   -26238.777    923.28015 
   22000    305.46737   -26101.301    131.11779   -26232.419     2819.049 
   22200    280.12355   -26117.279    120.23929   -26237.518    -343.5031 
   22400    323.79229    -26093.77    138.98352   -26232.753   -3682.0792 
   22600    328.11975   -26098.739    140.84102    -26239.58   -3304.5951 
   22800    292.38455   -26122.877    125.50216   -26248.379   -872.44334 
   23000    321.11759   -26093.019    137.83544   -26230.855    1186.9833 
   23200    293.03276   -26104.432     125.7804   -26230.212    4484.5896 
   23400    292.59686   -26118.039     125.5933   -26243.632    3027.6733 
   23600       279.29   -26134.426     119.8815   -26254.307    3081.2062 
   23800    304.98948   -26112.789    130.91266   -26243.702    2345.6566 
   24000    303.93481   -26103.666    130.45996   -26234.126    -227.2207 
   24200    351.48799   -26084.646    150.87153   -26235.517    4081.6369 
   24400    282.85352   -26115.439    121.41109    -26236.85    858.38302 
   24600    301.36114   -26098.816    129.35525   -26228.171   -1236.6959 
   24800    338.60557   -26071.567    145.34192   -26216.909    -41.42303 
   25000    288.45952   -26101.161     123.8174   -26224.978   -5987.6167 
   25200    304.61036   -26108.415    130.74993   -26239.165   -4926.2892 
   25400    259.45165   -26132.205    111.36616   -26243.571   -239.33798 
   25600    310.64234   -26100.529    133.33908   -26233.868   -2709.4255 
   25800    280.31189   -26116.648    120.32014   -26236.968   -8140.6266 
   26000    328.43538   -26091.013     140.9765    -26231.99    764.25262 
   26200    314.51985   -26090.696    135.00345   -26225.699   -2053.0043 
   26400    283.10154   -26115.998    121.51756   -26237.516   -8230.6492 
   26600    307.06812    -26101.54    131.80489   -26233.345   -2625.2915 
   26800    267.68815    -26119.67    114.90156   -26234.572    502.97537 
   27000    321.88641   -26111.618    138.16544   -26249.783    836.53955 
   27200    308.85309   -26104.441    132.57107   -26237.012     1614.298 
   27400    291.78515   -26121.211    125.24488   -26246.456    2184.3381 
   27600    269.60817   -26124.952    115.72571   -26240.678    82.595195 
   27800    319.85177   -26102.365     137.2921   -26239.657    2042.9303 
   28000    298.94262   -26104.484    128.31713   -26232.801    -2501.679 
   28200    279.36452   -26128.515    119.91349   -26248.429    716.56958 
   28400    299.80762   -26099.629    128.68842   -26228.317   -71.442358 
   28600    299.90844   -26111.136    128.73169   -26239.868   -280.78027 
   28800     289.0077   -26111.532     124.0527   -26235.585    1123.0784 
   29000    319.07207   -26086.986    136.95743   -26223.944   -768.10044 
   29200    310.94569   -26115.517    133.46928   -26248.987    6759.0249 
   29400    312.61416   -26109.949    134.18545   -26244.135    6201.5659 
   29600    348.54422   -26080.939    149.60795   -26230.547    -1410.781 
   29800     287.4921   -26114.457    123.40214    -26237.86    4859.0106 
   30000     273.5463   -26111.555     117.4161   -26228.972   -5413.0431 
   30200    319.72648   -26089.269    137.23832   -26226.507   -7828.9509 
   30400    275.54966   -26119.934    118.27601    -26238.21   -5051.4484 
   30600    311.13144   -26097.675    133.54902   -26231.224    -3009.196 
   30800    292.99054   -26103.763    125.76228   -26229.526   -3196.6537 
   31000    297.57791   -26127.951    127.73135   -26255.683   -3846.1712 
   31200    317.72819   -26100.579    136.38058    -26236.96    3872.4271 
   31400    293.53667   -26103.878     125.9967   -26229.875    366.90132 
   31600    256.56059   -26133.122    110.12521   -26243.247    636.91776 
   31800    261.21415   -26119.142    112.12268   -26231.265    1836.2126 
   32000     307.8778   -26104.626    132.15243   -26236.778   -3534.7781 
   32200    270.20835   -26121.144    115.98333   -26237.127   -3286.7486 
   32400    303.12737    -26091.77    130.11338   -26221.884   -1514.7893 
   32600    289.94054   -26104.691    124.45311   -26229.144   -2009.8148 
   32800    303.24589   -26112.031    130.16425   -26242.196   -4839.8248 
   33000    305.97169    -26104.01    131.33426   -26235.344   -1099.0194 
   33200    327.26586   -26083.786     140.4745   -26224.261   -1530.0376 
   33400    285.91177   -26113.366    122.72381    -26236.09    788.26994 
   33600    291.05085   -26100.859    124.92969   -26225.789    -336.4814 
   33800    307.77629   -26101.885    132.10886   -26233.994   -4857.8666 
   34000    282.00577   -26118.594    121.04721   -26239.642     308.7983 
   34200    319.70468   -26101.727    137.22897   -26238.956   -3046.1823 
   34400    269.28238   -26111.164    115.58587    -26226.75    5378.9398 
   34600     275.7267   -26121.972      118.352   -26240.324    1870.8112 
   34800    299.76667   -26102.732    128.67084   -26231.403   -291.58914 
   35000    284.23679    -26110.35    122.00485   -26232.354   -3453.7978 
   35200    306.53954   -26126.631      131.578   -26258.209   -2279.7964 
   35400    325.58354   -26096.016    139.75239   -26235.768    3390.3596 
   35600    291.61009    -26105.59    125.16974    -26230.76    3350.9399 
   35800    254.15028    -26128.65    109.09061    -26237.74   -1206.7288 
   36000    303.11248   -26096.011    130.10698   -26226.118    1115.4161 
   36200    294.86071   -26104.743    126.56502   -26231.308   -2710.0869 
   36400    288.90317   -26122.884    124.00783   -26246.892    784.90684 
   36600    290.48373    -26103.41    124.68626   -26228.097    4256.9207 
   36800    293.05218   -26095.951    125.78873    -26221.74   -4013.2452 
   37000    264.59325   -26118.564    113.57312   -26232.137    1855.2453 
   37200    324.06355   -26090.675    139.09995   -26229.775    91.420395 
   37400    308.36372   -26097.057    132.36101   -26229.418   -461.70473 
   37600    286.39052   -26115.048    122.92931   -26237.977    2440.3193 
   37800    308.85211   -26103.504    132.57064   -26236.075   -1199.7021 
   38000    312.74461   -26110.562    134.24145   -26244.804   -542.57677 
   38200    250.69558   -26131.084    107.60773   -26238.692    1671.3913 
   38400    318.22942   -26104.663    136.59573   -26241.259    -2369.225 
   38600     290.0278   -26106.626    124.49056   -26231.117    2962.2705 
   38800    296.65051     -26102.3    127.33327   -26229.633    46.861391 
   39000    280.75324   -26103.601    120.50958    -26224.11    1532.9314 
   39200    275.44084   -26124.397     118.2293   -26242.626    8447.8729 
   39400    316.86726   -26090.598    136.01104   -26226.609    -380.6772 
   39600    298.13332    -26104.47    127.96975   -26232.439    -281.7974 
   39800    284.20483   -26123.019    121.99113    -26245.01    -680.4431 
   40000    319.89694   -26090.321    137.31149   -26227.633   -188.84699 
   40200     294.6967   -26111.396    126.49463   -26237.891    2787.3769 
   40400    270.89028   -26120.315    116.27604   -26236.591    3607.7147 
   40600    327.55723   -26090.235    140.59957   -26230.835    3162.3269 
   40800    292.74988   -26115.092    125.65898   -26240.751   -264.95594 
   41000     318.6973   -26106.799    136.79656   -26243.595   -1231.1739 
   41200    284.70599   -26096.753    122.20625   -26218.959    -1950.349 
   41400    275.97511   -26113.784    118.45863   -26232.243    1743.6968 
   41600    288.65824   -26124.137    123.90269    -26248.04    1838.9953 
   41800    328.31855   -26100.423    140.92635   -26241.349    3276.1937 
   42000    277.24919   -26121.586    119.00551   -26240.591    5957.4134 
   42200    242.26063   -26139.087    103.98714   -26243.074    1462.9007 
   42400    294.01486   -26105.074    126.20195   -26231.276    566.86099 
   42600    328.12523   -26094.278    140.84337   -26235.122    1595.4407 
   42800    313.09057   -26100.497    134.38995   -26234.887    1537.0176 
   43000    273.91911   -26116.916    117.57612   -26234.492    4614.0152 
   43200    308.46345   -26095.261    132.40382   -26227.665   -6324.2095 
   43400    308.64199   -26099.465    132.48045   -26231.945    394.90178 
   43600    277.47903   -26123.108    119.10417   -26242.212   -2610.6995 
   43800    318.35119   -26103.682      136.648    -26240.33   -799.23641 
   44000    334.84253   -26071.369    143.72669   -26215.095    1425.4755 
   44200    318.59024   -26101.972    136.75061   -26238.723    2711.8192 
   44400    296.20102   -26108.294    127.14033   -26235.434   -1656.6271 
   44600    263.98468   -26133.542     113.3119   -26246.854    289.71025 
   44800    297.49206   -26105.325    127.69449   -26233.019    3615.2377 
   45000    309.01366   -26111.162    132.63999   -26243.802   -695.03976 
   45200    277.08191   -26123.263    118.93371   -26242.197    5083.1194 
   45400    320.29138   -26094.783     137.4808   -26232.264     4095.173 
   45600    297.35717   -26118.086    127.63659   -26245.722    -2648.253 
   45800    295.23634   -26116.873    126.72626   -26243.599    947.98702 
   46000    298.38104   -26097.467    128.07608   -26225.543   -707.67705 
   46200    300.07983   -26112.764    128.80526   -26241.569    104.90957 
   46400    303.26076   -26123.322    130.17063   -26253.493   -354.90066 
   46600    313.62448   -26092.654    134.61912   -26227.273   -596.93566 
   46800    301.78119   -26105.751    129.53555   -26235.287   -286.27748 
   47000    294.81727   -26110.238    126.54638   -26236.784   -1217.8157 
   47200    298.92333   -26123.102    128.30885   -26251.411    2196.0639 
   47400    302.02411   -26096.721    129.63982   -26226.361   -1330.9277 
   47600    289.09872   -26117.704    124.09177   -26241.795    3091.5274 
   47800    265.23623   -26117.479    113.84911   -26231.328    4099.6527 
   48000     289.4788   -26112.286    124.25491   -26236.541    3940.7083 
   48200     289.5169   -26093.319    124.27126    -26217.59    4397.3706 
   48400     331.5728    -26086.48     142.3232   -26228.803     2643.519 
   48600    294.76576   -26101.526    126.52426    -26228.05    1366.4881 
   48800    273.96736   -26118.937    117.59683   -26236.534    3178.3949 
   49000      271.795   -26133.008    116.66438   -26249.673    302.89697 
   49200    292.87038   -26110.824     125.7107   -26236.534   -3245.5191 
   49400    317.70186   -26094.354    136.36928   -26230.723    3586.6797 
   49600    281.96671   -26119.329    121.03045   -26240.359    428.53963 
   49800    295.95907   -26114.601    127.03648   -26241.638   -4669.9536 
   50000    308.79187   -26099.667    132.54479   -26232.212   -4279.7909 
   50200    296.86332   -26106.911    127.42462   -26234.336   -2909.4311 
   50400    275.54957   -26131.888    118.27597   -26250.164   -1841.9517 
   50600    309.13864   -26095.316    132.69363    -26228.01   -802.54214 
   50800    293.02029   -26107.168    125.77505   -26232.943   -1784.6406 
   51000    287.81955   -26121.795     123.5427   -26245.337   -2161.9479 
   51200     307.4975   -26088.143    131.98919   -26220.133    1084.0009 
   51400    296.30664   -26103.915    127.18567     -26231.1   -330.80782 
   51600    296.74708   -26113.193    127.37472   -26240.567   -1089.8321 
   51800    300.39541    -26109.46    128.94072     -26238.4   -746.95001 
   52000    354.32588    -26080.33    152.08965   -26232.419   -226.20185 
   52200    301.92934   -26104.874    129.59914   -26234.474   -202.43502 
   52400    286.08718   -26112.499     122.7991   -26235.298   -4660.4961 
   52600    281.17885   -26125.369    120.69227   -26246.061    319.85231 
   52800    323.90008   -26100.105    139.02979   -26239.135    -2130.018 
   53000    290.63493   -26101.053    124.75116   -26225.804   -1156.6617 
   53200    261.48061    -26125.09    112.23706   -26237.327    2306.0609 
   53400    303.06779   -26109.571     130.0878   -26239.659    1123.7342 
   53600      319.365   -26090.925    137.08316   -26228.008    3308.7464 
   53800    317.62912   -26079.718    136.33806   -26216.057   -3300.3489 
   54000     277.7055   -26102.586    119.20138   -26221.788   -26.841657 
   54200    291.18434   -26114.988    124.98699   -26239.975    2858.4138 
   54400    309.56454   -26113.991    132.87645   -26246.868    1934.5402 
   54600    308.07548   -26092.948    132.23729   -26225.185   -87.388757 
   54800    290.24239   -26121.466    124.58267   -26246.049   -242.17333 
   55000    293.17853   -26118.422    125.84297   -26244.265    -2911.246 
   55200    282.22502   -26102.705    121.14132   -26223.846    303.08351 
   55400    277.20111   -26101.658    118.98488   -26220.643    3136.9974 
   55600    276.08877   -26128.138    118.50742   -26246.645    697.49177 
   55800    327.54022   -26099.862    140.59227   -26240.454    -6735.751 
   56000    284.42621   -26115.495    122.08615   -26237.581    808.80975 
   56200    267.49358   -26127.569    114.81805   -26242.387    3898.7713 
   56400    279.47132   -26103.791    119.95933    -26223.75   -4227.4538 
   56600    283.09845   -26122.854    121.51623    -26244.37   -4574.3208 
   56800    328.34693   -26106.464    140.93853   -26247.402   -4817.1534 
   57000     282.7419   -26097.001    121.36319   -26218.364   -566.22001 
   57200    262.73498   -26118.278    112.77548   -26231.053    2451.5139 
   57400     312.4556    -26109.63     134.1174   -26243.748    1983.8574 
   57600    306.42173   -26097.415    131.52743   -26228.943    -619.2223 
   57800    341.24034   -26098.266    146.47286   -26244.739    25.987917 
   58000    270.54004   -26125.513     116.1257   -26241.638    1316.7843 
   58200    324.52581   -26101.268    139.29837   -26240.566    3669.2534 
   58400    306.09635   -26113.782    131.38777    -26245.17    5587.4163 
   58600    298.57038   -26107.852    128.15735    -26236.01    2085.4107 
   58800    296.64207   -26093.375    127.32965   -26220.704   -2975.8228 
   59000    290.73582   -26114.455    124.79447    -26239.25   -3076.6419 
   59200    287.00174   -26105.728    123.19167    -26228.92    2100.5315 
   59400    311.28961   -26097.209    133.61691   -26230.826    202.64894 
   59600    308.72905   -26102.674    132.51782   -26235.192   -6318.0936 
   59800    283.64071   -26118.133    121.74899   -26239.882    2931.7149 
   60000    294.75936   -26108.972    126.52152   -26235.494    2921.2898 
   60200     322.3484   -26104.205    138.36375   -26242.568    3918.5534 
   60400    244.59612    -26142.39    104.98962   -26247.379     871.2912 
   60600    294.51737   -26117.856    126.41765   -26244.273    477.64607 
   60800    313.11579   -26098.119    134.40077    -26232.52    4735.7049 
   61000    287.13677   -26109.853    123.24962   -26233.103    3401.6506 
   61200    312.02788   -26111.227     133.9338   -26245.161     603.6703 
   61400     346.4285   -26083.871    148.69981    -26232.57   -2360.2585 
   61600    279.31447   -26111.865    119.89201   -26231.757    4398.5527 
   61800    316.11844   -26103.206    135.68962   -26238.895    3700.5197 
   62000    307.12325    -26104.58    131.82855   -26236.409      702.284 
   62200     286.0655   -26133.384     122.7898   -26256.173    982.81104 
   62400    298.12384   -26107.402    127.96568   -26235.368    4543.4124 
   62600    307.95594   -26104.024    132.18597    -26236.21    2409.0633 
   62800    266.58905   -26131.528    114.42979   -26245.958     3901.393 
   63000    282.43797   -26101.334    121.23273   -26222.567    3081.8349 
   63200    306.79119   -26096.344    131.68602    -26228.03     2677.912 
   63400    295.70646   -26109.412    126.92805    -26236.34    3499.2537 
   63600    313.41194   -26117.731    134.52789   -26252.259    435.87466 
   63800    294.39166   -26115.858    126.36369   -26242.222    1554.9546 
   64000    317.10144   -26102.335    136.11156   -26238.447    4147.5282 
   64200    342.25001   -26090.652    146.90625   -26237.558    7172.0164 
   64400    285.59814     -26120.7    122.58919   -26243.289    4557.9679 
   64600    326.34693   -26103.121    140.08006   -26243.201    2540.8445 
   64800    280.29895   -26098.931    120.31458   -26219.245   -1304.9852 
   65000    295.24577   -26095.191    126.73031   -26221.921    2902.2415 
   65200    265.27008   -26131.374    113.86364   -26245.238     2880.251 
   65400     307.4416    -26102.27     131.9652   -26234.235   -2429.5019 
   65600    304.94443   -26106.217    130.89333   -26237.111    3287.6408 
   65800    291.06965   -26130.738    124.93776   -26255.676   -121.74828 
   66000     279.3865   -26107.735    119.92293   -26227.658   -1796.5031 
   66200    270.88426   -26102.956    116.27345    -26219.23    818.26137 
   66400    273.99034   -26123.175     117.6067   -26240.781   -1275.2047 
   66600    323.56814     -26110.6     138.8873   -26249.488    1448.7546 
   66800    306.86767   -26101.827    131.71885   -26233.545    205.47196 
   67000    255.00401   -26130.308    109.45707   -26239.765   -4016.9296 
   67200    283.36047   -26112.612     121.6287   -26234.241   -5279.6772 
   67400    308.07244   -26091.181    132.23598   -26223.417   -5134.1654 
   67600    299.11186   -26115.458    128.38977   -26243.848   -1630.8149 
   67800    312.01124   -26117.532    133.92666   -26251.458    7147.7471 
   68000    323.46435    -26096.37    138.84275   -26235.213      6678.77 
   68200     321.7779   -26109.991    138.11887    -26248.11   -923.70468 
   68400    299.31862   -26112.147    128.47852   -26240.625   -2761.7996 
   68600    291.37826    -26094.21    125.07023   -26219.281    1921.0692 
   68800     312.1223   -26089.114    133.97433   -26223.089   -512.22899 
   69000    297.94532   -26103.581    127.88905    -26231.47    3804.4523 
   69200    292.26106   -26114.017    125.44916   -26239.466    1740.6145 
   69400    274.57638   -26128.657    117.85825   -26246.516    4305.7276 
   69600    336.45913   -26100.746    144.42059   -26245.167   -2989.3547 
   69800    292.31564   -26102.094    125.47259   -26227.566    5865.5638 
   70000    327.70097   -26098.088    140.66127   -26238.749   -364.79218 
   70200    269.64339   -26119.919    115.74082    -26235.66   -2371.1212 
   70400    289.91784   -26103.586    124.44336   -26228.029   -1891.8049 
   70600    313.77138   -26099.913    134.68217   -26234.595    1908.1742 
   70800     285.6749   -26126.594    122.62214   -26249.216    722.67559 
   71000    263.82051   -26116.607    113.24143   -26229.849   -4679.8747 
   71200    292.00051   -26100.952    125.33732   -26226.289   -1229.0071 
   71400    303.56344   -26094.097    130.30055   -26224.398   -1577.4364 
   71600    308.43007   -26104.881    132.38949    -26237.27   -2976.0999 
   71800    307.23179   -26108.673    131.87515   -26240.548    -1726.597 
   72000      323.603   -26086.079    138.90227   -26224.981    4081.9501 
   72200    304.34218   -26111.518    130.63482   -26242.153    1579.5419 
   72400    307.22516   -26101.167     131.8723   -26233.039    1531.2964 
   72600    335.86671   -26090.808     144.1663   -26234.975   -75.176977 
   72800    298.77384   -26111.909    128.24468   -26240.154    1786.5538 
   73000    309.59245   -26095.152    132.88842    -26228.04    5776.8893 
   73200    332.96247   -26077.662     142.9197   -26220.581    2388.5106 
   73400    286.92718   -26114.272    123.15966   -26237.432    1080.8483 
   73600    284.60439   -26122.738    122.16264   -26244.901    5122.4938 
   73800    304.08604   -26111.854    130.52487   -26242.378   -762.22258 
   74000    305.17595   -26103.795     130.9927   -26234.787    -3445.378 
   74200    293.36509   -26125.608    125.92305   -26251.531   -2519.3058 
   74400    286.33084   -26113.268    122.90369   -26236.172   -1436.3464 
   74600    293.22956   -26107.627    125.86487   -26233.492   -2649.3121 
   74800    303.07698   -26108.016    130.09175   -26238.108    4750.5671 
   75000    271.70727    -26109.82    116.62672   -26226.446    2144.1653 
   75200    289.17787   -26127.062    124.12574   -26251.187    2467.2572 
   75400    334.39207    -26091.69    143.53333   -26235.223      6455.28 
   75600    292.59129   -26101.871    125.59091   -26227.462     73.56095 
   75800    271.96914   -26124.739    116.73912   -26241.478     -234.821 
   76000    281.92538   -26109.863    121.01271   -26230.876    759.44928 
   76200    276.80575   -26095.204    118.81517   -26214.019   -3171.3594 
   76400    252.35209   -26124.132    108.31877   -26232.451    -262.3507 
   76600    290.39102   -26104.081    124.64647   -26228.728   -3531.2793 
   76800     287.5955   -26102.086    123.44653   -26225.532   -3635.5851 
   77000    278.60895   -26104.989    119.58917   -26224.578     7360.668 
   77200    332.67428   -26070.111    142.79599   -26212.907    1798.8002 
   77400    289.64982   -26101.721    124.32832   -26226.049    4837.1254 
   77600    291.86507   -26116.811    125.27919    -26242.09    3714.3196 
   77800    357.59001   -26085.123    153.49074   -26238.614     303.7966 
   78000    335.86489    -26091.03    144.16552   -26235.196    403.82067 
   78200    313.07813   -26114.918    134.38461   -26249.302    4648.3524 
   78400    291.74657   -26109.359    125.22832   -26234.587    2781.2256 
   78600    319.85893   -26089.884    137.29518   -26227.179    5779.7792 
   78800    303.42859   -26117.654    130.24267   -26247.897     2600.862 
   79000     280.9197   -26109.641    120.58103   -26230.222    1556.2574 
   79200    352.41621   -26075.192    151.26995   -26226.462   -608.15729 
   79400    279.28728    -26105.18    119.88033   -26225.061   -5609.5336 
   79600    313.70211    -26115.04    134.65244   -26249.692   -2105.2068 
   79800    268.63061   -26125.245     115.3061   -26240.551   -362.98055 
   80000    323.61008    -26094.65     138.9053   -26233.556    3921.8186 
   80200    297.84839   -26120.606    127.84745   -26248.453    3047.0022 
   80400    277.98276   -26120.336    119.32039   -26239.657    3607.6394 
   80600    283.44607    -26108.87    121.66544   -26230.535    1520.2514 
   80800    287.23408   -26113.457    123.29139   -26236.748    2830.8905 
   81000    300.49653   -26104.987    128.98413   -26233.971   -454.28571 
   81200    308.08537   -26100.676    132.24153   -26232.917   -446.96776 
   81400    283.30554   -26110.427    121.60512   -26232.032    1550.4936 
   81600    290.20394   -26114.102    124.56616   -26238.668   -354.56239 
   81800     321.8956   -26094.153    138.16939   -26232.322   -962.57549 
   82000    276.92561   -26118.588    118.86662   -26237.455    2928.4669 
   82200    321.83343   -26110.817     138.1427    -26248.96    71.687951 
   82400    300.97714   -26096.821    129.19042   -26226.011    1495.3215 
   82600    297.27374   -26105.096    127.60079   -26232.697   -1973.7499 
   82800    281.28957   -26105.771    120.73979   -26226.511   -773.24512 
   83000    304.69537   -26096.951    130.78642   -26227.738    -4703.483 
   83200    281.81915   -26113.982    120.96711   -26234.949   -1843.3519 
   83400    281.72331   -26113.198    120.92597   -26234.124    2104.7006 
   83600    307.04839   -26103.088    131.79642   -26234.884    374.49181 
   83800    289.74675    -26107.78    124.36992    -26232.15    5209.4786 
   84000    322.49359   -26080.974    138.42607     -26219.4    4883.3019 
   84200    307.63758   -26111.647    132.04932   -26243.696   -473.35544 
   84400    290.18325   -26109.194    124.55728   -26233.751   -3792.6206 
   84600    308.89337   -26090.034    132.58835   -26222.623   -3474.7334 
   84800    268.23718   -26117.747    115.13723   -26232.885    -2007.674 
   85000    309.70578    -26100.24    132.93707   -26233.177   -344.95194 
   85200    350.83476   -26074.109    150.59114     -26224.7    127.25718 
   85400    285.69164   -26107.599    122.62932   -26230.229   -184.13966 
   85600    277.59687   -26115.604    119.15475   -26234.759   -4851.5667 
   85800    298.13635   -26101.638    127.97105   -26229.609   -5151.2403 
   86000    297.29019   -26121.561    127.60784   -26249.169    19.137324 
   86200    277.01951   -26122.135    118.90693   -26241.042   -612.68282 
   86400    318.68568   -26105.822    136.79157   -26242.614   -4477.1441 
   86600    314.66238   -26106.773    135.06462   -26241.838    1644.0972 
   86800    258.17709   -26125.673    110.81907   -26236.492    2137.7166 
   87000     292.3732   -26096.779    125.49729   -26222.276   -2121.8881 
   87200    310.37747   -26104.808    133.22538   -26238.033   -2018.5482 
   87400    300.18971   -26112.055    128.85242   -26240.907   -3430.8434 
   87600    322.06439   -26101.107    138.24184   -26239.349    1176.9862 
   87800    285.52485   -26097.711    122.55773   -26220.269    1156.5229 
   88000    256.99948   -26116.896    110.31359    -26227.21   -4767.6135 
   88200    310.28212   -26089.156    133.18446   -26222.341   -6831.0855 
   88400    292.43997   -26099.845    125.52595   -26225.371    99.301729 
   88600    286.94849   -26113.999    123.16881   -26237.168    2285.8149 
   88800     298.8343   -26105.516    128.27063   -26233.786   -5745.8435 
   89000    296.72543    -26102.49    127.36543   -26229.855   -4291.6195 
   89200    288.74605    -26100.82    123.94039   -26224.761   -584.30557 
   89400    286.99159   -26102.911    123.18731   -26226.098    244.20809 
   89600    301.13651    -26114.02    129.25882   -26243.279    1378.9943 
   89800    319.98486   -26107.333    137.34923   -26244.682   -902.93199 
   90000    327.87484    -26094.09     140.7359   -26234.825   -95.455261 
   90200    286.06362   -26124.886    122.78899   -26247.675    7346.1733 
   90400    315.72882   -26103.989    135.52238   -26239.512   -2850.8883 
   90600    326.31453   -26088.974    140.06615    -26229.04    2423.8985 
   90800    335.39053   -26088.169    143.96191   -26232.131    468.17646 
   91000     293.7871   -26106.081    126.10419   -26232.185   -2075.3227 
   91200    283.62331   -26130.192    121.74152   -26251.934    572.25492 
   91400    295.07409   -26116.846    126.65661   -26243.503    1150.0885 
   91600    292.33182   -26111.803    125.47953   -26237.282    849.51666 
   91800    281.42778    -26122.16    120.79912   -26242.959    1897.2065 
   92000    310.85619   -26099.763    133.43087   -26233.194    1854.3581 
   92200    314.80714   -26095.524    135.12676   -26230.651    3153.1323 
   92400    292.74764   -26121.176    125.65801   -26246.834   -4328.5125 
   92600    338.17693   -26099.365    145.15793   -26244.523   -1241.6991 
   92800    352.37714   -26079.957    151.25318   -26231.211     3512.312 
   93000     300.4293   -26116.543    128.95527   -26245.498   -5533.5366 
   93200    299.05072   -26111.781    128.36353   -26240.144   -7805.0436 
   93400    318.31987   -26096.218    136.63455   -26232.853    3649.1377 
   93600    287.39623    -26110.08    123.36099   -26233.441    2678.6169 
   93800    276.48797   -26128.748    118.67877   -26247.427    1721.3425 
   94000      290.619   -26099.529    124.74433   -26224.273    415.51123 
   94200    318.03617   -26105.589    136.51278   -26242.102    4349.2329 
   94400    259.20466   -26124.107    111.26014   -26235.367    1395.7818 
   94600    289.13995   -26115.929    124.10946   -26240.038   -986.60553 
   94800    274.29674   -26092.609    117.73821   -26210.347    1549.0232 
   95000    325.08753   -26091.932    139.53948   -26231.471    -1741.936 
   95200     298.3382   -26110.131    128.05769   -26238.188   -54.085376 
   95400    290.41857   -26105.335    124.65829   -26229.993    1538.8828 
   95600     261.7245   -26131.595    112.34175   -26243.936    1665.6656 
   95800    302.80463   -26105.391    129.97484   -26235.365    4004.9905 
   96000    328.63915   -26104.434    141.06397   -26245.498    4037.7837 
   96200    290.22736   -26119.875    124.57622   -26244.452   -4356.7896 
   96400    322.21348   -26097.252    138.30583   -26235.558   -2933.7609 
   96600    289.62823   -26101.454    124.31905   -26225.773    -783.7311 
   96800    274.03616   -26132.969    117.62636   -26250.595    972.61172 
   97000    315.71517   -26115.026    135.51652   -26250.542   -1633.6175 
   97200    320.27223   -26108.287    137.47258    -26245.76    837.58177 
   97400    291.78277   -26121.176    125.24386    -26246.42   -4708.5899 
   97600    279.31285   -26126.279    119.89131   -26246.171   -5106.6657 
   97800    287.88031   -26096.178    123.56878   -26219.747     1353.259 
   98000    272.67276   -26112.686    117.04114   -26229.728    4035.1883 
   98200    301.12815   -26121.005    129.25524    -26250.26    2927.5957 
   98400     317.2041   -26096.978    136.15562   -26233.134   -3708.0824 
   98600    282.83712   -26116.591    121.40406   -26237.995     3157.207 
   98800    309.06916   -26091.118    132.66381   -26223.781   -795.07414 
   99000    331.41934   -26095.461    142.25733   -26237.718   -3548.6019 
   99200    294.75578   -26105.716    126.51998   -26232.236    963.75941 
   99400    273.73305   -26107.746    117.49626   -26225.242   -4731.5928 
   99600    286.03305   -26124.481    122.77587   -26247.257   -3453.4283 
   99800    293.78761   -26096.135    126.10441    -26222.24   -104.41788 
  100000    285.35304   -26104.726    122.48398    -26227.21   -1091.5305 
  100200    307.97344   -26104.702    132.19349   -26236.895    6245.0394 
  100400    320.25143   -26099.742    137.46365   -26237.206    3247.8619 
  100600    302.37255   -26086.055    129.78938   -26215.845    5286.1856 
  100800    308.96032   -26088.182    132.61709     -26220.8   -2230.9298 
  101000    276.51432   -26113.159    118.69008    -26231.85    3225.2168 
  101200    343.33135    -26101.72     147.3704    -26249.09    3648.7905 
  101400    295.45529   -26099.107    126.82024   -26225.927   -4102.5086 
  101600    293.18673   -26118.323    125.84649   -26244.169   -2992.4087 
  101800    346.56009   -26089.562    148.75629   -26238.318   -1176.3693 
  102000    286.78956    -26094.13    123.10059   -26217.231    4793.9181 
  102200    291.65802   -26122.338    125.19031   -26247.528   -38.765409 
  102400    281.48369   -26117.027    120.82311    -26237.85   -456.06492 
  102600     318.7608   -26106.062    136.82382   -26242.886    3790.4594 
  102800    300.52776   -26118.181    128.99753   -26247.179    2734.9349 
  103000    315.78035   -26100.092     135.5445   -26235.637    -4698.554 
  103200    320.03499   -26091.775    137.37075   -26229.145    3893.4336 
  103400    293.27854   -26106.045     125.8859    -26231.93    3218.6099 
  103600    313.19405   -26110.153    134.43437   -26244.588   -2721.1366 
  103800    289.04375   -26097.561    124.06817    -26221.63   -228.27873 
  104000    294.22787   -26121.917    126.29338    -26248.21   -1110.3755 
  104200    286.52107   -26116.126    122.98534   -26239.111   -398.16447 
  104400    336.04213   -26088.296     144.2416   -26232.537    1191.1255 
  104600    296.82399   -26123.114    127.40773   -26250.522   -147.86612 
  104800    289.86572   -26102.638    124.42099   -26227.059   -139.30709 
  105000    321.80084   -26081.747    138.12871   -26219.876   -690.53035 
  105200    270.57282   -26119.005    116.13977   -26235.145    2854.0061 
  105400     334.6516    -26095.87    143.64473   -26239.514   -2943.4439 
  105600    281.59508   -26116.087    120.87093   -26236.958   -2620.9357 
  105800     311.2363   -26092.728    133.59402   -26226.322   -980.76969 
  106000    304.10545   -26092.385     130.5332   -26222.918    3212.4069 
  106200     289.5436   -26112.948    124.28272   -26237.231   -558.04354 
  106400    341.56781    -26077.72    146.61342   -26224.333   -2922.1893 
  106600    313.15228   -26094.906    134.41644   -26229.322   -1084.3604 
  106800    321.08775   -26110.715    137.82263   -26248.537   -1859.3213 
  107000    270.94631   -26115.899    116.30009   -26232.199   -7618.9441 
  107200     281.2675   -26100.357    120.73032   -26221.088    -7307.708 
  107400    317.20905   -26093.443    136.15775   -26229.601   -3106.4688 
  107600    268.28964   -26120.072    115.15975   -26235.231   -1661.7012 
  107800    318.40275   -26094.997    136.67013   -26231.667   -3004.5911 
  108000     288.4295   -26117.604    123.80451   -26241.409    1612.9379 
  108200     283.5465   -26126.684    121.70855   -26248.393    5134.7088 
  108400     293.9457   -26113.604    126.17227   -26239.776   -318.33825 
  108600    261.63528   -26118.622    112.30345   -26230.925   -741.26471 
  108800    309.55227   -26097.175    132.87118   -26230.046   -6.5699023 
  109000    275.37282   -26116.617    118.20011   -26234.817   -155.74422 
  109200    335.37472   -26088.615    143.95512    -26232.57    4317.8986 
  109400    258.98516   -26120.012    111.16592   -26231.178    3702.9221 
  109600    299.78056   -26108.942     128.6768   -26237.619    5027.4754 
  109800    278.01167   -26124.257     119.3328    -26243.59    -1408.967 
  110000    286.89113   -26126.135    123.14419    -26249.28    1279.9248 
  110200    325.20854   -26105.931    139.59142   -26245.523    2186.0136 
  110400     297.2646   -26114.687    127.59686   -26242.284    2117.5247 
  110600    297.00876   -26103.739    127.48705   -26231.226    2313.5122 
  110800    286.50977   -26103.016    122.98049   -26225.996   -5377.6053 
  111000    290.52602   -26121.367    124.70442   -26246.071   -567.18604 
  111200    339.11625   -26089.938    145.56112     -26235.5    3765.9264 
  111400    279.54827   -26105.492    119.99236   -26225.484    147.31977 
  111600    291.65876   -26103.482    125.19063   -26228.672   -3550.8102 
  111800    301.26132   -26101.874     129.3124   -26231.186    -86.68643 
  112000     282.9053   -26114.844    121.43332   -26236.277    1792.9566 
  112200    323.32206   -26089.876    138.78168   -26228.658   -145.73301 
  112400    307.10774   -26096.174     131.8219   -26227.996   -456.50676 
  112600    280.99833   -26122.199    120.61478   -26242.814    643.03085 
  112800    290.63879   -26102.415    124.75282   -26227.168    1837.4365 
  113000    302.16364   -26088.168    129.69971   -26217.868   -2000.8415 
  113200    306.40697   -26107.942     131.5211   -26239.463   -1334.9524 
  113400     286.9054   -26117.653    123.15031   -26240.803    879.33883 
  113600    300.32538   -26105.595    128.91066   -26234.506    3531.3013 
  113800    310.70273   -26105.365      133.365    -26238.73     2533.731 
  114000    269.73608   -26131.364    115.78061   -26247.145   -653.49084 
  114200    287.72761   -26121.004    123.50324   -26244.507   -2776.3357 
  114400    284.32847   -26101.458     122.0442   -26223.502   -1287.5411 
  114600    314.59795   -26104.122    135.03697   -26239.159    498.73397 
  114800    286.52979   -26123.971    122.98908    -26246.96    5390.3631 
  115000    303.26223   -26104.692    130.17126   -26234.863    3172.4892 
  115200    336.51491   -26086.738    144.44453   -26231.183    927.56695 
  115400    276.77821   -26118.115    118.80335   -26236.919   -1341.7208 
  115600    302.40081   -26114.396    129.80151   -26244.198    3775.7272 
  115800    271.79141   -26132.931    116.66283   -26249.594   -42.243372 
  116000    282.23593   -26108.248    121.14601   -26229.394    2381.5534 
  116200     274.5655   -26117.771    117.85357   -26235.625    5116.4086 
  116400    280.48214   -26123.229    120.39322   -26243.622    2584.9193 
  116600    329.31402   -26101.238    141.35364   -26242.592   -1471.8035 
  116800    282.46936   -26121.775     121.2462   -26243.021    3511.7488 
  117000    311.31142   -26093.258    133.62627   -26226.884    1805.3229 
  117200    290.14516   -26098.712    124.54094   -26223.253   -1865.9776 
  117400    264.48835   -26122.684    113.52809   -26236.212    4217.1045 
  117600     309.8112   -26102.252    132.98232   -26235.235    1123.0477 
  117800    292.79629   -26106.805     125.6789   -26232.484    1246.1995 
  118000    255.51312   -26123.612     109.6756   -26233.287    -4020.324 
  118200    307.98311   -26095.171    132.19764   -26227.369   -5162.9456 
  118400    299.07057   -26104.664    128.37205   -26233.036   -3974.1405 
  118600    309.06918   -26098.157    132.66382   -26230.821   -2619.3471 
  118800    282.77193    -26109.29    121.37607   -26230.666   -1007.0059 
  119000    276.36356   -26118.264    118.62537    -26236.89    1010.7896 
  119200    311.21025   -26089.911    133.58284   -26223.493    351.43536 
  119400    312.44888   -26108.533    134.11451   -26242.648    2802.3974 
  119600     304.8993   -26111.673    130.87395   -26242.547    8617.9383 
  119800    285.08299   -26095.927    122.36807   -26218.295   -191.21956 
  120000    324.91223   -26072.683    139.46423   -26212.147    -1524.502 
  120200    287.17298   -26107.885    123.26517    -26231.15    538.47749 
  120400    290.27649   -26122.001    124.59731   -26246.598   -485.08156 
  120600    320.38516   -26112.644    137.52105   -26250.165     1311.757 
  120800    293.47274   -26094.378    125.96926   -26220.348   -1765.0878 
  121000    290.16169   -26126.192    124.54803    -26250.74    490.00977 
  121200    313.60206   -26109.909     134.6095   -26244.518     1936.309 
  121400    313.37531   -26103.326    134.51217   -26237.839    1184.7787 
  121600    273.76374   -26125.655    117.50943   -26243.165    3309.6269 
  121800    283.87085   -26109.758    121.84777   -26231.606    7949.5735 
  122000    307.81649   -26112.004    132.12612    -26244.13     297.7712 
  122200    306.27335   -26121.425    131.46374   -26252.889    359.59165 
  122400    354.01988   -26086.806    151.95831   -26238.764    1833.1348 
  122600    299.31737   -26112.026    128.47798   -26240.504   -389.89754 
  122800    294.56289   -26115.257    126.43719   -26241.694    -2451.638 
  123000    326.42317   -26099.449    140.11279   -26239.562     -6622.47 
  123200    321.77301   -26084.632    138.11677   -26222.749     1614.261 
  123400    292.50377   -26110.912    125.55334   -26236.465    775.39047 
  123600     301.5621    -26125.36     129.4415   -26254.801   -2081.4645 
  123800    275.83756   -26120.882    118.39959   -26239.282     2136.775 
  124000    323.72144   -26097.294    138.95311   -26236.247    770.36485 
  124200    286.33109   -26108.888     122.9038   -26231.791    3531.7756 
  124400    286.36683    -26110.35    122.91914   -26233.269    6585.8324 
  124600     292.1472   -26092.159    125.40028   -26217.559   -739.09333 
  124800    286.50598   -26107.972    122.97887    -26230.95   -869.62365 
  125000    296.10302   -26107.515    127.09827   -26234.613   -777.31358 
  125200     291.5799   -26097.668    125.15678   -26222.824    6281.2961 
  125400    279.24221   -26114.316    119.86099   -26234.177    640.91745 
  125600    307.28065   -26104.544    131.89612   -26236.441   -1933.9622 
  125800    284.71192   -26116.011    122.20879   -26238.219    557.01341 
  126000    284.78698   -26128.379    122.24101    -26250.62   -2667.8442 
  126200    297.41811   -26109.474    127.66275   -26237.136    3420.0755 
  126400    317.84834   -26091.634    136.43215   -26228.066   -2557.1468 
  126600    293.66156   -26124.303     126.0503   -26250.354   -2080.5572 
  126800    272.46665   -26112.182    116.95267   -26229.135   -1897.4657 
  127000    312.76032   -26103.069    134.24819   -26237.318   -892.36739 
  127200    291.57691   -26117.517     125.1555   -26242.673   -795.34942 
  127400    273.09815   -26120.511    117.22373   -26237.734   -4502.0046 
  127600    309.96333   -26107.308    133.04762   -26240.356    395.93139 
  127800    306.61922   -26105.129    131.61221   -26236.741   -2489.2972 
  128000     301.8576   -26118.836    129.56834   -26248.404   -1921.1498 
  128200    295.64035   -26106.043    126.89967   -26232.943   -1326.8862 
  128400    314.67139   -26102.482    135.06849    -26237.55   -1899.4287 
  128600    296.46939   -26115.017    127.25553   -26242.272    -1122.429 
  128800    309.28394   -26096.702      132.756   -26229.458    1057.0076 
  129000    327.96743   -26095.388    140.77564   -26236.164   -715.72786 
  129200    286.96803   -26108.552    123.17719   -26231.729    260.50106 
  129400    308.62631    -26096.68    132.47372   -26229.154    1568.6147 
  129600    318.00234   -26085.437    136.49826   -26221.935    2914.4824 
  129800    270.96887   -26113.412    116.30977   -26229.722    4986.0741 
  130000    334.18472   -26104.122    143.44433   -26247.566      -2920.7 
  130200    305.56406   -26100.462    131.15929   -26231.621   -3354.6802 
  130400    327.51216   -26090.554    140.58022   -26231.134    -2013.654 
  130600    293.08232   -26105.296    125.80167   -26231.098   -93.500454 
  130800    303.47747   -26111.378    130.26365   -26241.642    -1432.018 
  131000    304.99476   -26094.032    130.91493   -26224.947   -4988.3358 
  131200    287.95485   -26103.769    123.60077    -26227.37   -4597.7093 
  131400    271.25561    -26126.96    116.43285   -26243.392   -2851.2497 
  131600    301.56124   -26121.709    129.44113    -26251.15   -1529.1027 
  131800    315.33217   -26103.949    135.35212   -26239.301   -3141.3472 
  132000    302.62233   -26098.239     129.8966   -26228.136   -6014.7383 
  132200     285.6611   -26111.233    122.61621   -26233.849   -13905.955 
  132400    287.78532   -26110.059    123.52801   -26233.587   -6020.3787 
  132600    294.73019   -26095.988      126.509   -26222.497    -603.4897 
  132800    305.77333   -26113.189    131.24912   -26244.438   -2557.3522 
  133000    300.66907   -26113.802    129.05818    -26242.86   -1430.0305 
  133200    330.25878   -26092.028    141.75917   -26233.787   -830.89183 
  133400    297.73055   -26113.726    127.79686   -26241.522    1913.7755 
  133600    318.62797    -26101.82     136.7668   -26238.586    4734.9603 
  133800     338.1248   -26091.699    145.13555   -26236.834    7499.8717 
  134000    289.09182   -26113.474     124.0888   -26237.563    696.05229 
  134200    305.19905   -26106.524    131.00262   -26237.526   -2669.8443 
  134400    330.91842   -26095.627    142.04231   -26237.669   -1845.4156 
  134600    277.42424   -26126.506    119.08065   -26245.587   -4244.8196 
  134800    290.90878    -26106.52    124.86871   -26231.389   -3464.4502 
  135000    309.11683   -26100.421    132.68427   -26233.105   -4305.6191 
  135200    269.42042   -26112.044    115.64512   -26227.689   -3365.1991 
  135400    308.05728   -26104.693    132.22947   -26236.923    41.715234 
  135600    305.56241   -26100.204    131.15859   -26231.363   -1612.8024 
  135800    305.83575   -26113.964    131.27591    -26245.24   -1465.9123 
  136000    299.30814   -26111.829    128.47402   -26240.303    1788.9106 
  136200     293.9946   -26086.466    126.19325   -26212.659    -1548.321 
  136400    287.61865    -26114.31    123.45646   -26237.767   -3049.0566 
  136600    265.66897   -26112.956    114.03486   -26226.991   -1979.5683 
  136800    316.60121   -26090.574    135.89684    -26226.47    -3077.494 
  137000    305.36017   -26116.385    131.07177   -26247.456   -3749.3548 
  137200    249.25096    -26119.09    106.98765   -26226.078   -2390.0687 
  137400    322.06341   -26095.208    138.24142    -26233.45    -258.5102 
  137600     271.3495   -26110.435    116.47315   -26226.908    3861.0491 
  137800    273.36275   -26110.735    117.33731   -26228.072   -686.54345 
  138000     312.3775   -26111.645    134.08387   -26245.728   -4611.5144 
  138200    314.80452   -26093.071    135.12564   -26228.197    2958.9395 
  138400    302.99142   -26105.272    130.05502   -26235.327    4916.9992 
  138600    275.14819   -26122.968    118.10369   -26241.072    1768.1668 
  138800    303.36549   -26104.011    130.21558   -26234.227    2398.2663 
  139000    292.78374   -26089.756    125.67351    -26215.43   -1474.1241 
  139200    315.90867   -26111.084    135.59958   -26246.683   -2106.7975 
  139400     277.6098   -26121.337     119.1603   -26240.497    4425.4271 
  139600    338.64989   -26090.301    145.36094   -26235.661   -1485.8248 
  139800    270.18563   -26111.826    115.97357     -26227.8   -2528.8626 
  140000     287.8565   -26110.195    123.55856   -26233.754    2803.4845 
  140200     336.2968   -26088.785    144.35091   -26233.136    1663.5237 
  140400     291.2499   -26120.307    125.01513   -26245.322    7105.1175 
  140600    326.70704   -26097.812    140.23464   -26238.046    3389.9955 
  140800    322.27928   -26098.528    138.33408   -26236.862    2270.2746 
  141000    311.73264    -26111.96    133.80707   -26245.767    3185.1485 
  141200    297.24578   -26106.886    127.58878   -26234.475    947.19592 
  141400    299.51918   -26100.073    128.56461   -26228.637    -1050.626 
  141600    284.00355   -26111.118    121.90473   -26233.022   -138.70431 
  141800     286.2774   -26115.616    122.88075   -26238.496    3174.0653 
  142000    306.62654   -26088.281    131.61535   -26219.897    1653.8441 
  142200    271.73704   -26108.884     116.6395   -26225.523    4106.3178 
  142400     270.5289   -26123.916    116.12092   -26240.037   -4446.7894 
  142600    321.65173   -26087.607    138.06471   -26225.672    1585.2412 
  142800    324.10649   -26105.664    139.11838   -26244.783   -3484.9699 
  143000    279.32165   -26114.983    119.89509   -26234.879   -1338.8898 
  143200    304.14155     -26104.9     130.5487   -26235.449   -1537.5668 
  143400    268.40471   -26110.731    115.20914   -26225.941    795.55327 
  143600    306.81022   -26103.309    131.69419   -26235.003   -3912.9208 
  143800    263.07928    -26114.02    112.92327   -26226.943   -225.22922 
  144000    281.59629   -26129.036    120.87145   -26249.907   -75.346901 
  144200    324.77422   -26104.467      139.405   -26243.872   -507.45285 
  144400    319.61692   -26101.042    137.19129   -26238.233   -2193.7729 
  144600    310.80468   -26130.072    133.40876   -26263.481    2020.6082 
  144800    312.22691   -26115.841    134.01923    -26249.86    3468.2978 
  145000    297.41256   -26099.094    127.66037   -26226.754   -1627.7824 
  145200    334.42108   -26080.572    143.54578   -26224.117   -2071.9608 
  145400    311.18873   -26116.219    133.57361   -26249.793    3778.3687 
  145600     269.5993   -26122.655     115.7219   -26238.377   -716.23992 
  145800    343.15752   -26095.195    147.29579   -26242.491    831.64316 
  146000    303.36529   -26106.997     130.2155   -26237.213     644.1726 
  146200    307.87237   -26109.616     132.1501   -26241.766    706.24225 
  146400    280.87965   -26139.045    120.56384   -26259.609   -3473.3528 
  146600     284.8591   -26117.356    122.27197   -26239.628    3099.3379 
  146800     296.5994   -26107.879    127.31133    -26235.19   -3461.7573 
  147000    308.61842   -26087.117    132.47034   -26219.587    80.971254 
  147200    285.86002   -26114.642     122.7016   -26237.344   -6009.9197 
  147400    295.98298   -26106.315    127.04674   -26233.361   -2298.7232 
  147600    348.41699   -26081.679    149.55334   -26231.232   -7105.7943 
  147800    322.74913   -26079.186    138.53575   -26217.722    7303.3387 
  148000    291.36168   -26111.601    125.06311   -26236.664   -1697.2597 
  148200    306.43825   -26111.672    131.53453   -26243.207   -3368.6818 
  148400    313.85127    -26085.16    134.71647   -26219.876    6349.4948 
  148600    307.82064   -26106.446     132.1279   -26238.574   -1313.0722 
  148800    297.82776    -26113.97    127.83859   -26241.809    2330.4159 
  149000    277.92528   -26132.917    119.29571   -26252.213    5018.2345 
  149200    324.84651    -26103.15    139.43603   -26242.586    1717.7509 
  149400    336.67274   -26090.815    144.51228   -26235.327   -550.43398 
  149600    276.42549   -26121.441    118.65195   -26240.093   -759.13423 
  149800    278.87491   -26111.732    119.70333   -26231.435    859.22836 
  150000    315.95976   -26098.607    135.62151   -26234.229   -1638.8232 
  150200    283.90797    -26124.16     121.8637   -26246.024   -4574.5443 
  150400    310.24283   -26110.241    133.16759   -26243.408   -970.90073 
  150600    316.61692    -26103.37    135.90358   -26239.274    6682.0431 
  150800    267.29825   -26128.431     114.7342   -26243.165    858.54397 
  151000    296.49767   -26111.655    127.26767   -26238.922    2385.3015 
  151200    271.84501   -26104.635    116.68584    -26221.32    913.03451 
  151400    299.42014   -26116.718     128.5221    -26245.24    262.32235 
  151600    274.25738   -26139.967    117.72132   -26257.688    7488.2485 
  151800    297.99708   -26107.416    127.91127   -26235.327     8443.662 
  152000    301.19296   -26113.876    129.28306   -26243.159   -3691.1734 
  152200    318.28651   -26101.518    136.62023   -26238.139   -1055.8284 
  152400    325.55158   -26103.975    139.73867   -26243.714    837.40185 
  152600    280.41682   -26116.887    120.36518   -26237.252   -1179.1762 
  152800    314.57568   -26098.423    135.02741    -26233.45     1160.151 
  153000    337.17105   -26069.784    144.72617    -26214.51    1081.8837 
  153200    312.17619    -26101.14    133.99746   -26235.137   -106.98111 
  153400    282.07575   -26112.514    121.07725   -26233.591   -3304.1578 
  153600    315.61079   -26086.553    135.47172   -26222.025    3331.4436 
  153800    321.46638   -26098.299    137.98515   -26236.284   -2659.6654 
  154000     288.4934   -26108.829    123.83194   -26232.661    277.43126 
  154200    288.42518   -26104.149    123.80266   -26227.951    2392.5386 
  154400    299.56229   -26086.564    128.58311   -26215.147   -241.99823 
  154600    294.64635   -26109.057    126.47301    -26235.53    4353.8999 
  154800    295.44586   -26101.124    126.81619   -26227.941   -2069.3365 
  155000    323.67228   -26089.734      138.932   -26228.666    4865.5331 
  155200    293.29187   -26104.078    125.89162    -26229.97    4960.0923 
  155400     309.8747   -26112.088    133.00958   -26245.098    5209.6822 
  155600    327.07013   -26085.351    140.39048   -26225.741    1225.6734 
  155800    329.45406   -26112.374    141.41376   -26253.788    3285.1539 
  156000    288.08995   -26117.134    123.65876   -26240.793   -2590.0394 
  156200    343.06442   -26087.284    147.25582    -26234.54   -2585.8905 
  156400    283.58485   -26107.143    121.72501   -26228.868   -845.22119 
  156600    295.65595   -26114.928    126.90637   -26241.834   -8411.7547 
  156800    334.44417   -26082.738    143.55569   -26226.293    -3307.667 
  157000    299.03351   -26108.607    128.35614   -26236.963    2797.6145 
  157200    321.07634   -26111.487    137.81773   -26249.305    561.46418 
  157400    334.18313   -26092.019    143.44364   -26235.463    880.46684 
  157600    278.70045    -26120.95    119.62844   -26240.579    4505.6087 
  157800    318.38085   -26113.309    136.66073    -26249.97    4110.4418 
  158000    336.76893   -26079.446    144.55357   -26223.999    2054.8594 
  158200    310.74796   -26106.446    133.38441    -26239.83    4937.6493 
  158400    279.19607   -26111.334    119.84118   -26231.175    3818.7474 
  158600    295.37282   -26103.142    126.78484   -26229.927   -3105.5337 
  158800    337.76695   -26090.463    144.98195   -26235.445   -4007.0432 
  159000    301.37314   -26117.359     129.3604   -26246.719   -3536.2342 
  159200     306.2028   -26098.489    131.43346   -26229.922    520.96049 
  159400    313.12485   -26099.988    134.40466   -26234.392   -2322.5804 
  159600    294.81548   -26111.396    126.54561   -26237.942   -2102.3454 
  159800    305.73185   -26097.887    131.23132   -26229.119   -4182.6446 
  160000    309.39185   -26098.161    132.80232   -26230.963    163.33456 
  160200    321.92361   -26105.827    138.18141   -26244.008    610.10122 
  160400    288.02106    -26116.16    123.62919   -26239.789   -2037.8341 
  160600    292.00532   -26108.902    125.33939   -26234.241     173.6375 
  160800    329.71212   -26094.935    141.52452   -26236.459    421.37045 
  161000    274.40551    -26125.46     117.7849   -26243.245    2185.8759 
  161200     276.5459   -26120.181    118.70363   -26238.885   -3688.9795 
  161400    325.67153   -26103.909    139.79016   -26243.699    3407.1166 
  161600    303.96173   -26103.052    130.47152   -26233.524   -1097.9413 
  161800    300.73626   -26116.765    129.08702   -26245.852   -999.40897 
  162000    307.74573   -26116.464    132.09575    -26248.56   -1871.7597 
  162200    317.23218   -26094.495    136.16768   -26230.663    4692.0981 
  162400    299.43735   -26111.517    128.52949   -26240.046   -1660.6035 
  162600    302.38763    -26115.73    129.79585   -26245.526    -6715.955 
  162800    295.26657   -26107.034    126.73923   -26233.774    1766.8553 
  163000    289.15326   -26108.567    124.11518   -26232.682   -1671.8192 
  163200    324.57393   -26110.359    139.31903   -26249.678   -4948.1536 
  163400    252.70823   -26132.671    108.47163   -26241.143   -2307.8966 
  163600    303.48272   -26106.949     130.2659   -26237.215   -3320.6334 
  163800    268.13005   -26122.609    115.09124   -26237.701    658.13765 
  164000    348.17695   -26095.641    149.45031   -26245.091    1293.1669 
  164200     302.6388   -26103.214    129.90366   -26233.117    2320.1359 
  164400    324.73962   -26110.399    139.39015   -26249.789    669.68209 
  164600    340.69772   -26090.562    146.23995   -26236.802    860.55657 
  164800    319.67059   -26092.831    137.21433   -26230.045    2900.8532 
  165000    315.19285   -26103.254    135.29232   -26238.547    3701.3312 
  165200    306.82999   -26101.796    131.70268   -26233.498    4437.2497 
  165400    303.59184   -26095.167    130.31275    -26225.48    4967.4226 
  165600    268.15879   -26112.687    115.10358   -26227.791   -1033.2019 
  165800     303.9155   -26111.906    130.45167   -26242.358   -3654.4087 
  166000    288.75485   -26090.266    123.94416    -26214.21    2755.0075 
  166200    271.94519   -26119.779    116.72884   -26236.507    2435.9417 
  166400     288.8579   -26113.626     123.9884   -26237.614    390.56266 
  166600     307.2114   -26102.133    131.86639       -26234    1600.1037 
  166800    293.05084   -26107.338    125.78816   -26233.126   -986.38872 
  167000    334.91713   -26076.976    143.75871   -26220.734   -2353.2151 
  167200    301.97421   -26107.512     129.6184    -26237.13    -1824.208 
  167400    276.96324   -26115.645    118.88277   -26234.528    2027.9698 
  167600    339.57587   -26081.973    145.75841   -26227.732    299.53556 
  167800     283.4286   -26110.476    121.65794   -26232.134    4620.3124 
  168000    297.10972   -26118.094    127.53038   -26245.624    -2629.719 
  168200    275.01536   -26140.806    118.04667   -26258.853    1415.6195 
  168400    297.72673   -26109.651    127.79522   -26237.446   -1610.7785 
  168600    300.10941   -26095.067    128.81796   -26223.885   -1756.5708 
  168800    266.74235   -26124.338    114.49559   -26238.834    -4049.454 
  169000    287.10773   -26116.075    123.23716   -26239.312    4339.9816 
  169200    297.74163   -26105.668    127.80162    -26233.47   -2184.4332 
  169400    297.26976   -26113.036    127.59907   -26240.635   -1511.6028 
  169600    333.08608   -26100.196    142.97275   -26243.168    434.75379 
  169800    285.10238   -26126.911    122.37639   -26249.287    3001.5158 
  170000    311.90272   -26109.052    133.88008   -26242.932    3233.7352 
  170200    305.05439   -26097.943    130.94052   -26228.883   -710.61374 
  170400    295.12358   -26121.863    126.67785   -26248.541    -1880.666 
  170600    313.24927   -26101.772    134.45806    -26236.23    2710.6714 
  170800    273.79643   -26107.938    117.52346   -26225.461    661.19219 
  171000    304.86081   -26103.494    130.85743   -26234.352   -2300.3752 
  171200    271.96526   -26094.887    116.73746   -26211.625    4551.7078 
  171400    290.46931   -26119.255    124.68007   -26243.935     1632.663 
  171600    271.47574    -26118.89    116.52734   -26235.418     4480.585 
  171800    304.33367   -26092.325    130.63116   -26222.957   -1247.7303 
  172000     286.5946   -26111.461    123.01691   -26234.478    1234.7454 
  172200    286.50103   -26115.899    122.97674   -26238.876    1776.8715 
  172400    271.24506   -26097.789    116.42832   -26214.217   -409.54866 
  172600    295.66118   -26107.414    126.90861   -26234.323    486.10165 
  172800    280.49239    -26103.84    120.39761   -26224.238    1493.6795 
  173000    302.28537     -26106.1    129.75196   -26235.852    261.37259 
  173200    303.43185     -26110.1    130.24407   -26240.344   -284.92856 
  173400    299.51093   -26122.584    128.56107   -26251.145   -956.41485 
  173600    330.60454   -26109.079    141.90759   -26250.986     526.8666 
  173800    266.10727   -26122.787    114.22299    -26237.01   -923.40815 
  174000    309.78921   -26099.659    132.97288   -26232.631    -4344.173 
  174200    310.86641   -26100.961    133.43525   -26234.396   -4643.7692 
  174400    278.44967   -26124.465     119.5208   -26243.986   -4502.7955 
  174600    300.51511   -26109.767     128.9921   -26238.759   -1165.8194 
  174800    316.41508   -26111.214    135.81695   -26247.031    1101.8707 
  175000    350.14315   -26109.562    150.29427   -26259.856   -2148.8476 
  175200    280.68478   -26121.575    120.48019   -26242.056    4831.5567 
  175400    330.11138   -26088.937     141.6959   -26230.633    8.8448354 
  175600    298.81541   -26114.592    128.26252   -26242.854   -1804.6404 
  175800    308.44122   -26104.204    132.39427   -26236.598   -2434.2561 
  176000    293.83534   -26101.991     126.1249   -26228.116    5344.3077 
  176200    316.76068   -26100.083    135.96529   -26236.048    -485.9428 
  176400    262.26765   -26119.234    112.57489   -26231.809   -993.71116 
  176600    317.60098   -26097.281    136.32598   -26233.607    323.37164 
  176800    331.76137    -26093.16    142.40414   -26235.564    442.81616 
  177000     271.8252   -26124.923    116.67734     -26241.6    2590.4842 
  177200    288.32585   -26101.739    123.76002   -26225.499   -3351.6789 
  177400    318.04918   -26097.776    136.51836   -26234.294   -2475.0675 
  177600    278.70577   -26111.547    119.63073   -26231.178     5158.083 
  177800    323.39973   -26104.868    138.81501   -26243.683    -1663.977 
  178000    304.92159   -26098.131    130.88352   -26229.015    3304.9945 
  178200    302.51698   -26075.066    129.85137   -26204.917    3242.9584 
  178400    299.35321   -26102.428    128.49337   -26230.922    607.90785 
  178600    301.84207   -26113.335    129.56168   -26242.896    -1059.947 
  178800    378.71308   -26082.003    162.55753   -26244.561    617.15388 
  179000    324.30189   -26101.984    139.20225   -26241.186     3021.864 
  179200      304.778   -26110.926    130.82189   -26241.748   -366.75408 
[...]
  950000    292.18315    -26128.42    125.41571   -26253.835   -435.30847 
  950200    298.69089   -26120.248    128.20908   -26248.457    3901.2893 
  950400    327.79954   -26102.875    140.70357   -26243.579    1011.8694 
  950600    290.95153   -26124.857    124.88706   -26249.744   -2657.9635 
  950800    294.46567   -26128.935    126.39546    -26255.33   -5530.5099 
  951000    300.26256   -26107.677    128.88369    -26236.56    1234.4668 
  951200    320.37216   -26104.276    137.51547   -26241.792    1779.5098 
  951400    281.90394   -26090.741     121.0035   -26211.744   -1442.9009 
  951600    307.59501   -26118.764    132.03105   -26250.795   -2556.3756 
  951800    314.24535   -26103.849    134.88562   -26238.735     97.48015 
  952000    302.77781   -26097.028    129.96333   -26226.991    4086.3181 
  952200    310.22353   -26125.923    133.15931   -26259.082    3805.0597 
  952400    281.10249   -26111.953    120.65949   -26232.612   -3995.6765 
  952600    258.05111    -26108.22    110.76499   -26218.985   -2341.2364 
  952800    301.88169   -26101.961    129.57869   -26231.539   -353.05022 
  953000    284.75634   -26120.002    122.22786    -26242.23   -475.56062 
  953200    353.86945   -26088.437    151.89374   -26240.331    498.62106 
  953400    312.27248   -26107.712    134.03879    -26241.75    6787.7014 
  953600    284.64345   -26110.056     122.1794   -26232.235   -908.24145 
  953800    304.81112   -26104.932     130.8361   -26235.769   -587.37494 
  954000    266.00196   -26125.129    114.17779   -26239.306   -775.80356 
  954200    304.88133   -26115.856    130.86624   -26246.722    243.55593 
  954400    293.91026   -26102.388    126.15706   -26228.545   -24.977879 
  954600    313.62538   -26092.107     134.6195   -26226.726   -5034.7535 
  954800    291.29318   -26116.101    125.03371   -26241.135   -1704.1244 
  955000    296.80177   -26108.473     127.3982   -26235.871    3243.1169 
  955200     321.0913   -26100.772    137.82415   -26238.596   -2917.6269 
  955400    297.31152   -26118.977      127.617   -26246.594    1455.1697 
  955600    346.22261   -26086.409    148.61143   -26235.021   -698.11581 
  955800    303.73393   -26102.069    130.37373   -26232.443    1980.8798 
  956000    283.80802   -26110.911     121.8208   -26232.732   -2011.3054 
  956200    305.01542   -26112.681     130.9238   -26243.605   -1639.9789 
  956400    271.32587   -26118.259    116.46301   -26234.722   -5888.7612 
  956600    330.13028   -26090.396    141.70402     -26232.1   -1515.8878 
  956800    280.95191   -26112.104    120.59486   -26232.699   -4404.8684 
  957000    305.44695   -26107.173    131.10902   -26238.282    3231.0146 
  957200    308.61911   -26096.093    132.47063   -26228.564    -990.3192 
  957400    318.79592   -26093.964    136.83889   -26230.803   -6121.3389 
  957600    298.40632   -26107.982    128.08693   -26236.068   -1808.1181 
  957800    295.70938   -26120.348     126.9293   -26247.277    8240.2996 
  958000    291.55659   -26120.132    125.14677   -26245.278    3118.5828 
  958200    308.49137   -26102.009     132.4158   -26234.425    1280.4718 
  958400    313.59399   -26100.015    134.60603   -26234.621   -342.11485 
  958600    277.00933   -26123.379    118.90255   -26242.281    5763.0284 
  958800    301.36257   -26118.562    129.35586   -26247.918    4035.0828 
  959000    307.45636   -26098.043    131.97154   -26230.015   -1301.4026 
  959200    334.33851   -26100.086    143.51034   -26243.596   -3330.3371 
  959400    285.45071   -26124.114    122.52591    -26246.64   -3876.8249 
  959600    291.68534   -26099.133    125.20204   -26224.335   -6033.6921 
  959800    347.36145   -26090.078    149.10027   -26239.178    3126.5435 
  960000    310.29063    -26106.24    133.18811   -26239.428   -5151.3233 
  960200    280.53958   -26122.102    120.41787   -26242.519   -1544.5376 
  960400     306.8613    -26117.54    131.71612   -26249.256   -788.06452 
  960600    302.22799   -26102.141    129.72733   -26231.869    1405.3573 
  960800    283.02833   -26117.642    121.48613   -26239.128    3311.9375 
  961000     276.6064   -26123.341     118.7296    -26242.07   -3707.3872 
  961200     296.8375   -26109.427    127.41353    -26236.84   -4297.5505 
  961400      272.812   -26102.098    117.10091   -26219.199    4665.8134 
  961600    266.73636   -26126.278    114.49302   -26240.771   -493.25268 
  961800    342.43505   -26094.443    146.98567   -26241.429    584.84019 
  962000    296.56686   -26115.528    127.29736   -26242.825     3354.276 
  962200     289.7013   -26117.719    124.35041    -26242.07   -4690.5003 
  962400     314.4407   -26088.131    134.96947     -26223.1   -3246.1376 
  962600    355.50952   -26060.544    152.59771   -26213.141   -7713.9134 
  962800    290.88959   -26102.433    124.86047   -26227.293    3462.0415 
  963000     291.4614   -26123.263    125.10591   -26248.369    2867.6598 
  963200    314.52442   -26097.923    135.00541   -26232.928   -1374.8419 
  963400      313.702   -26108.981     134.6524   -26243.634    5143.7216 
  963600    290.17589   -26130.622    124.55413   -26255.176    2452.8725 
  963800    313.83833   -26103.004    134.71091   -26237.715   -5755.4894 
  964000       302.45   -26093.551    129.82262   -26223.374   -4818.9863 
  964200    297.96251    -26118.35    127.89643   -26246.247   -1750.2724 
  964400     311.8527   -26107.052    133.85861    -26240.91    4511.1701 
  964600    324.79591   -26083.551    139.41431   -26222.965    4776.9624 
  964800    258.92127   -26113.124     111.1385   -26224.262    192.07408 
  965000    331.70739   -26104.918    142.38097   -26247.299    7335.4336 
  965200    274.45881   -26123.568    117.80778   -26241.375    5695.4462 
  965400    318.86714   -26104.051    136.86946    -26240.92   -4345.5698 
  965600    308.16899   -26095.609    132.27742   -26227.886   -1052.3702 
  965800    318.30963   -26112.722    136.63016   -26249.352    4616.0742 
  966000    269.72284   -26136.406    115.77493   -26252.181   -900.23855 
  966200    305.78918   -26108.014    131.25592    -26239.27   -3395.1287 
  966400    319.08083   -26104.203    136.96119   -26241.164   -2718.4288 
  966600    264.00716   -26127.703    113.32155   -26241.025   -2088.3787 
  966800    276.69213   -26107.845     118.7664   -26226.611     1488.699 
  967000     292.9417   -26102.416    125.74132   -26228.157     3416.725 
  967200    310.34223   -26099.164    133.21026   -26232.374   -2546.5717 
  967400    278.08124   -26126.851    119.36266   -26246.214   -4027.3408 
  967600    317.38792   -26102.814    136.23453   -26239.049    947.34195 
  967800    307.24351    -26101.63    131.88018    -26233.51    -3061.869 
  968000    276.81478   -26121.303    118.81905   -26240.122   -1239.5059 
  968200    286.55288   -26098.617      122.999   -26221.616     2694.884 
  968400    265.95399   -26095.005     114.1572   -26209.162   -346.16916 
  968600    288.74519   -26119.574    123.94002   -26243.514   -1896.5603 
  968800     255.4479   -26118.705     109.6476   -26228.352    995.23838 
  969000    311.77882   -26091.022     133.8269   -26224.849   -2231.6064 
  969200    296.86495   -26120.374    127.42532   -26247.799    3113.6117 
  969400    275.24492   -26117.358     118.1452   -26235.503   -314.64831 
  969600     324.4282    -26105.34    139.25647   -26244.597    1513.6984 
  969800    282.89831   -26118.077    121.43032   -26239.507    4513.2131 
  970000    301.67395   -26115.402    129.48952   -26244.891   -2464.5675 
  970200    320.17734   -26097.635    137.43185   -26235.067     3986.423 
  970400    297.78314   -26120.362    127.81944   -26248.181   -4096.2969 
  970600    316.41497   -26085.768     135.8169   -26221.584   -3671.0192 
  970800    311.95275   -26096.993    133.90155   -26230.894      4104.96 
  971000    287.63103   -26113.945    123.46178   -26237.407   -2372.6804 
  971200     332.9592   -26093.838    142.91829   -26236.757   -3468.0872 
  971400    301.44141   -26085.388     129.3897   -26214.778    1949.9246 
  971600    278.90346   -26117.415    119.71558    -26237.13    1907.3972 
  971800    302.40445   -26108.568    129.80307   -26238.371   -5766.6111 
  972000    308.32396   -26098.068    132.34394   -26230.412   -5096.0786 
  972200    318.80884   -26106.788    136.84444   -26243.633    420.34891 
  972400    289.20275   -26104.836    124.13642   -26228.972     1558.119 
  972600    333.98575    -26092.64    143.35892   -26235.999    2011.1779 
  972800    275.30152   -26120.225     118.1695   -26238.395   -850.13114 
  973000    288.99418   -26107.205    124.04689   -26231.252   -509.76604 
  973200    309.51537   -26113.211    132.85534   -26246.067    2366.8838 
  973400    274.27857   -26122.416    117.73041   -26240.146    657.04997 
  973600    323.02599   -26088.908    138.65459   -26227.562   -5815.4471 
  973800    283.23011    -26112.82    121.57274   -26234.393   -816.97462 
  974000     289.8471    -26116.78      124.413   -26241.193    217.62308 
  974200     314.7641   -26079.573    135.10829   -26214.681   -2564.3412 
  974400    279.49586   -26115.478    119.96987   -26235.448    1536.3488 
  974600    307.01631   -26102.917    131.78265   -26234.699    4077.9308 
  974800    297.29077   -26097.357    127.60809   -26224.965    3218.9759 
  975000    302.25964   -26122.672    129.74092   -26252.413    5503.7882 
  975200    339.25816   -26096.117    145.62204   -26241.739    168.06271 
  975400    297.53748   -26109.203    127.71399   -26236.917   -893.77569 
  975600    310.86142    -26096.74    133.43311   -26230.173   -1725.1424 
  975800    295.28617   -26080.463    126.74765   -26207.211   -2754.8603 
  976000    294.31119   -26110.878    126.32915   -26237.207   -4950.0736 
  976200    307.72749   -26105.182    132.08792    -26237.27   -497.51719 
  976400    289.09657   -26110.657    124.09084   -26234.748    3715.0659 
  976600     277.6152    -26108.47    119.16262   -26227.633    2726.0934 
  976800    343.38485   -26091.036    147.39336    -26238.43    274.83243 
  977000    277.50498   -26115.363    119.11531   -26234.478   -2177.1537 
  977200    317.73946   -26104.451    136.38542   -26240.837   -2492.8635 
  977400    342.43513   -26080.151    146.98571   -26227.137    144.88912 
  977600    298.63069   -26103.315    128.18324   -26231.498   -2270.2453 
  977800    290.65621   -26113.666     124.7603   -26238.426   -2452.7107 
  978000    322.28407   -26086.942    138.33613   -26225.278    464.38193 
  978200    308.36547   -26106.869    132.36176   -26239.231    350.13225 
  978400    320.14802   -26116.839    137.41926   -26254.258    5896.0917 
  978600    296.64756   -26100.325    127.33201   -26227.657   -1683.9245 
  978800    320.47713   -26091.673    137.56053   -26229.234   -3146.5881 
  979000    270.82161   -26109.466    116.24656   -26225.713    5087.1575 
  979200    320.25442   -26099.324    137.46493   -26236.789   -337.58377 
  979400    306.54638   -26107.281    131.58094   -26238.861   -379.21296 
  979600     291.9496   -26123.728    125.31547   -26249.043   -1008.1742 
  979800    343.26653   -26091.321    147.34258   -26238.664   -394.65981 
  980000    288.03065   -26114.333    123.63331   -26237.966    5684.8367 
  980200    328.36128   -26107.709     140.9447   -26248.653   -2921.1353 
  980400    339.87024   -26069.973    145.88476   -26215.857   -777.94851 
  980600    292.68805   -26097.156    125.63244   -26222.788   -1223.6344 
  980800    296.55126    -26117.55    127.29067    -26244.84    1710.0985 
  981000    309.54778   -26105.381    132.86925    -26238.25   -709.24922 
  981200     302.2602   -26090.632    129.74116   -26220.373   -295.57256 
  981400    298.50279   -26110.229    128.12834   -26238.357    99.621474 
  981600    290.85227   -26109.508    124.84445   -26234.353   -561.55396 
  981800    255.62132   -26131.783    109.72204   -26241.505    456.22749 
  982000    311.23312   -26114.302    133.59266   -26247.895    5670.1522 
  982200    315.94627    -26096.59    135.61572   -26232.206    1473.9573 
  982400    301.05094   -26094.312    129.22209   -26223.534   -4921.5981 
  982600    280.22227   -26120.857    120.28167   -26241.139   -1239.3579 
  982800    314.63432   -26091.634    135.05258   -26226.686   -3062.1887 
  983000    327.66837   -26099.463    140.64727    -26240.11    1103.5917 
  983200    281.08221   -26112.915    120.65078   -26233.566    1601.3795 
  983400    334.43343   -26082.735    143.55108   -26226.286    399.36132 
  983600    312.23889   -26105.855    134.02437   -26239.879   -2501.2729 
  983800    323.51679   -26105.337    138.86526   -26244.202   -3377.4369 
  984000    297.26272   -26102.088    127.59605   -26229.684     1387.545 
  984200     286.1463   -26118.914    122.82448   -26241.739    3515.6704 
  984400    285.28524   -26104.428    122.45488   -26226.883   -2363.9873 
  984600    293.56794   -26117.738    126.01012   -26243.748   -4909.2461 
  984800    286.84455   -26114.099    123.12419   -26237.223   -2923.6095 
  985000    328.77143   -26098.896    141.12075   -26240.017   -2104.4529 
  985200     267.0968   -26128.817    114.64774   -26243.465     3180.039 
  985400    303.26506   -26112.371    130.17248   -26242.543   -2564.6309 
  985600    308.20539   -26089.562    132.29305   -26221.855    1444.8472 
  985800    293.79386   -26103.623    126.10709    -26229.73   -54.806416 
  986000    259.90732   -26128.128    111.56175   -26239.689    406.54925 
  986200    332.18596   -26106.929    142.58639   -26249.515    1105.7115 
  986400    322.78968   -26102.619    138.55316   -26241.173   -3268.4193 
  986600    255.87279   -26126.689    109.82998   -26236.519    8821.2589 
  986800    322.90548   -26099.487    138.60287    -26238.09    982.86183 
  987000     299.0047   -26110.784    128.34377   -26239.127   -6046.7552 
  987200     285.5538   -26109.398    122.57015   -26231.968   -1602.5381 
  987400    309.85462   -26093.717    133.00096   -26226.718    490.07857 
  987600    298.89157   -26111.033    128.29522   -26239.328   -2316.1011 
  987800     279.1805   -26119.605     119.8345    -26239.44   -68.304283 
  988000    285.15337   -26097.808    122.39828   -26220.206    3003.5604 
  988200    319.37284   -26091.898    137.08653   -26228.985    3030.9884 
  988400    282.53699   -26116.866    121.27523   -26238.142    1012.5091 
  988600    317.48003    -26098.11    136.27406   -26234.384   -2017.8774 
  988800    314.60104   -26097.199     135.0383   -26232.237   -7226.0627 
  989000    271.66418   -26119.793    116.60822   -26236.402   -4563.5585 
  989200    319.53805   -26090.111    137.15744   -26227.268   -1336.4345 
  989400    286.76356   -26102.181    123.08943   -26225.271   -2527.2193 
  989600    275.97323   -26123.295    118.45782   -26241.753   -3774.1913 
  989800    326.19983   -26104.734    140.01692   -26244.751     -1766.29 
  990000    283.75636   -26103.783    121.79863   -26225.581   -648.22758 
  990200    305.35217   -26115.109    131.06834   -26246.177     104.8389 
  990400    301.56924    -26114.63    129.44457   -26244.075    1421.3706 
  990600    299.08576   -26102.953    128.37857   -26231.332   -1419.3515 
  990800    304.72155   -26114.561    130.79765   -26245.358   -1293.4519 
  991000    316.51492   -26106.318     135.8598   -26242.177    5060.6497 
  991200    303.04674   -26102.689    130.07877   -26232.767    7082.5469 
  991400    285.79652   -26113.934    122.67434   -26236.608   -3782.3076 
  991600    306.37553   -26095.634    131.50761   -26227.142    1112.7555 
  991800    320.98767   -26103.394    137.77967   -26241.173    9061.2586 
  992000    298.35866   -26123.318    128.06647   -26251.385    2522.1945 
  992200    318.67976   -26091.731    136.78903    -26228.52   -4243.6362 
  992400     320.1499   -26104.164    137.42007   -26241.584   -2965.9494 
  992600    297.60388   -26119.095    127.74249   -26246.838    2095.9347 
  992800    326.61607   -26089.835    140.19559    -26230.03    875.48192 
  993000    323.60704   -26084.789      138.904   -26223.693    836.29265 
  993200     301.1091   -26109.995    129.24706   -26239.242    1410.3098 
  993400    304.26625   -26100.474    130.60223   -26231.077   -112.28164 
  993600    305.17619   -26093.103    130.99281   -26224.095   -2051.5304 
  993800    282.83771   -26110.734    121.40431   -26232.139    1746.4129 
  994000    272.61105   -26114.352    117.01465   -26231.366    4383.0409 
  994200     307.3711   -26088.133    131.93494   -26220.067   -3678.8956 
  994400    284.22234    -26116.65    121.99864   -26238.648   -1933.3093 
  994600    286.60452   -26106.612    123.02116   -26229.633    405.71542 
  994800    312.47712   -26097.042    134.12663   -26231.169    895.29667 
  995000    302.81907   -26129.044    129.98104   -26259.025    1780.4414 
  995200     290.7824   -26105.537    124.81446   -26230.351    1526.0865 
  995400    304.55596   -26101.455    130.72658   -26232.182   -374.86087 
  995600    272.54156   -26126.101    116.98483   -26243.086   -2172.8662 
  995800     315.1768   -26109.755    135.28543    -26245.04   -2221.3514 
  996000    306.64057   -26098.734    131.62137   -26230.355    612.52492 
  996200     318.2366   -26107.852    136.59881    -26244.45    3864.0783 
  996400    274.88682   -26111.645     117.9915   -26229.637    942.80484 
  996600    285.84317   -26111.818    122.69436   -26234.513   -2281.3373 
  996800    301.75202   -26101.384    129.52303   -26230.907     76.72544 
  997000    270.36781   -26116.492    116.05177   -26232.544    1947.8762 
  997200    280.18682   -26123.346    120.26645   -26243.612   -3646.8344 
  997400    305.62261   -26097.808    131.18442   -26228.992    603.30452 
  997600    274.32106   -26105.141    117.74865    -26222.89   -3772.5332 
  997800    273.92409   -26123.353    117.57826   -26240.931   -803.86234 
  998000    285.31207    -26113.69     122.4664   -26236.156    219.44736 
  998200    312.69397   -26106.892    134.21971   -26241.112   -547.63015 
  998400    303.24483   -26103.362    130.16379   -26233.526   -2844.0575 
  998600    316.97945   -26098.335     136.0592   -26234.395    1897.4407 
  998800    303.22421   -26101.416    130.15494   -26231.571    5284.3442 
  999000    254.25878   -26126.697    109.13719   -26235.835     3873.783 
  999200    310.29737   -26098.125      133.191   -26231.316     3546.639 
  999400     266.3256   -26112.248    114.31671   -26226.565   -2608.4092 
  999600    269.83973   -26121.772     115.8251   -26237.597    3306.8311 
  999800    327.39113   -26086.997    140.52827   -26227.526    2032.7308 
 1000000    273.41896   -26106.093    117.36144   -26223.455   -730.35649 
Loop time of 6182.27 on 8 procs for 1000000 steps with 145 atoms

Performance: 3.494 ns/day, 6.869 hours/ns, 161.753 timesteps/s
98.7% CPU use with 8 MPI tasks x no OpenMP threads

MPI task timing breakdown:
Section |  min time  |  avg time  |  max time  |%varavg| %total
---------------------------------------------------------------
Pair    | 2712.2     | 3216.7     | 4670.5     |1455.0 | 52.03
Neigh   | 0.44794    | 0.47272    | 0.52946    |   4.2 |  0.01
Comm    | 87.572     | 1536.4     | 2042.8     |2097.2 | 24.85
Output  | 0.41381    | 0.45153    | 0.6096     |   9.0 |  0.01
Modify  | 1415.7     | 1419.5     | 1424.7     |   8.5 | 22.96
Other   |            | 8.777      |            |       |  0.14

Nlocal:    18.125 ave 66 max 2 min
Histogram: 6 0 0 0 0 0 0 0 0 2
Nghost:    333.375 ave 359 max 323 min
Histogram: 4 2 0 0 0 0 0 0 0 2
Neighs:    643.625 ave 2305 max 79 min
Histogram: 6 0 0 0 0 0 0 0 0 2

Total # of neighbors = 5149
Ave neighs/atom = 35.5103
Neighbor list builds = 488
Dangerous builds = 0

Please see the log.cite file for references relevant to this simulation

Total wall time: 1:43:09
