ITEM: TIMESTEP
0
ITEM: NUMBER OF ATOMS
64
ITEM: BOX BOUNDS pp pp pp
0.0000000000000000e+00 1.3499700000000001e+01
0.0000000000000000e+00 1.3499700000000001e+01
0.0000000000000000e+00 1.3499700000000001e+01
ITEM: ATOMS id type x y z 
57 1 2.21436 1.16057 2.21436 
58 1 3.02515 0.349777 3.02515 
59 1 1.16057 1.16057 1.16057 
60 1 0.349777 0.349777 0.349777 
61 1 1.16057 2.21436 2.21436 
62 1 0.349777 3.02515 3.02515 
63 1 2.21436 2.21436 1.16057 
64 1 3.02515 3.02515 0.349777 
41 1 4.53549 4.53549 12.3391 
42 1 3.7247 3.7247 13.1499 
43 1 4.53549 5.58928 11.2853 
44 1 3.7247 6.40007 10.4746 
45 1 5.58928 5.58928 12.3391 
46 1 6.40007 6.40007 13.1499 
47 1 5.58928 4.53549 11.2853 
48 1 6.40007 3.7247 10.4746 
25 1 4.53549 12.3391 4.53549 
26 1 3.7247 13.1499 3.7247 
27 1 5.58928 11.2853 4.53549 
28 1 6.40007 10.4746 3.7247 
29 1 5.58928 12.3391 5.58928 
30 1 6.40007 13.1499 6.40007 
31 1 4.53549 11.2853 5.58928 
32 1 3.7247 10.4746 6.40007 
1 1 1.16057 8.96421 8.96421 
2 1 0.349777 9.775 9.775 
3 1 2.21436 7.91042 8.96421 
4 1 3.02515 7.09963 9.775 
5 1 1.16057 7.91042 7.91042 
6 1 0.349777 7.09963 7.09963 
7 1 2.21436 8.96421 7.91042 
8 1 3.02515 9.775 7.09963 
33 1 12.3391 4.53549 4.53549 
34 1 13.1499 3.7247 3.7247 
35 1 11.2853 4.53549 5.58928 
36 1 10.4746 3.7247 6.40007 
37 1 12.3391 5.58928 5.58928 
38 1 13.1499 6.40007 6.40007 
39 1 11.2853 5.58928 4.53549 
40 1 10.4746 6.40007 3.7247 
9 1 8.96421 1.16057 8.96421 
10 1 9.775 0.349777 9.775 
11 1 8.96421 2.21436 7.91042 
12 1 9.775 3.02515 7.09963 
13 1 7.91042 1.16057 7.91042 
14 1 7.09963 0.349777 7.09963 
15 1 7.91042 2.21436 8.96421 
16 1 7.09963 3.02515 9.775 
17 1 8.96421 8.96421 1.16057 
18 1 9.775 9.775 0.349777 
19 1 7.91042 8.96421 2.21436 
20 1 7.09963 9.775 3.02515 
21 1 7.91042 7.91042 1.16057 
22 1 7.09963 7.09963 0.349777 
23 1 8.96421 7.91042 2.21436 
24 1 9.775 7.09963 3.02515 
49 1 12.3391 12.3391 12.3391 
50 1 13.1499 13.1499 13.1499 
51 1 12.3391 11.2853 11.2853 
52 1 13.1499 10.4746 10.4746 
53 1 11.2853 11.2853 12.3391 
54 1 10.4746 10.4746 13.1499 
55 1 11.2853 12.3391 11.2853 
56 1 10.4746 13.1499 10.4746 
ITEM: TIMESTEP
10
ITEM: NUMBER OF ATOMS
64
ITEM: BOX BOUNDS pp pp pp
0.0000000000000000e+00 1.3499700000000001e+01
0.0000000000000000e+00 1.3499700000000001e+01
0.0000000000000000e+00 1.3499700000000001e+01
ITEM: ATOMS id type x y z 
57 1 2.31653 1.05856 2.3165 
58 1 3.00344 0.371536 3.00343 
59 1 1.05855 1.05855 1.05854 
60 1 0.37153 0.37153 0.371387 
61 1 1.05856 2.31653 2.3165 
62 1 0.371536 3.00344 3.00343 
63 1 2.31655 2.31655 1.0585 
64 1 3.00331 3.00331 0.371323 
41 1 4.43334 4.43334 12.4411 
42 1 3.74654 3.74654 13.1284 
43 1 4.43305 5.69145 11.1834 
44 1 3.74696 6.3781 10.4957 
45 1 5.69115 5.69115 12.4413 
46 1 6.37858 6.37858 13.1279 
47 1 5.69145 4.43305 11.1834 
48 1 6.3781 3.74696 10.4957 
25 1 4.43355 12.4413 4.43355 
26 1 3.74628 13.1279 3.74627 
27 1 5.69147 11.1829 4.43348 
28 1 6.37804 10.4966 3.74611 
29 1 5.69119 12.4413 5.69117 
30 1 6.3786 13.1279 6.37857 
31 1 4.43321 11.1833 5.69149 
32 1 3.74682 10.4959 6.37827 
1 1 1.05857 9.06651 9.06651 
2 1 0.37134 9.75317 9.75316 
3 1 2.31637 7.80833 9.0665 
4 1 3.00343 7.12154 9.75324 
5 1 1.0588 7.80838 7.8084 
6 1 0.37152 7.12128 7.12129 
7 1 2.31642 9.06668 7.80859 
8 1 3.00333 9.75291 7.12106 
33 1 12.4413 4.43355 4.43355 
34 1 13.1279 3.74628 3.74627 
35 1 11.1833 4.43321 5.69149 
36 1 10.4959 3.74682 6.37827 
37 1 12.4413 5.69119 5.69117 
38 1 13.1279 6.3786 6.37857 
39 1 11.1829 5.69147 4.43348 
40 1 10.4966 6.37804 3.74611 
9 1 9.06651 1.05857 9.06651 
10 1 9.75317 0.37134 9.75316 
11 1 9.06668 2.31642 7.80859 
12 1 9.75291 3.00333 7.12106 
13 1 7.80838 1.0588 7.8084 
14 1 7.12128 0.37152 7.12129 
15 1 7.80833 2.31637 9.0665 
16 1 7.12154 3.00343 9.75324 
17 1 9.06647 9.06647 1.05862 
18 1 9.75317 9.75317 0.371335 
19 1 7.80831 9.06646 2.31645 
20 1 7.12167 9.75292 3.00375 
21 1 7.80842 7.80842 1.05881 
22 1 7.12127 7.12127 0.371511 
23 1 9.06646 7.80831 2.31645 
24 1 9.75292 7.12167 3.00375 
49 1 12.4411 12.4411 12.441 
50 1 13.1282 13.1282 13.1283 
51 1 12.4413 11.1832 11.1832 
52 1 13.1281 10.4963 10.4963 
53 1 11.1832 11.1832 12.4413 
54 1 10.4963 10.4963 13.1281 
55 1 11.1832 12.4413 11.1832 
56 1 10.4963 13.1281 10.4963 
ITEM: TIMESTEP
20
ITEM: NUMBER OF ATOMS
64
ITEM: BOX BOUNDS pp pp pp
0.0000000000000000e+00 1.3499700000000001e+01
0.0000000000000000e+00 1.3499700000000001e+01
0.0000000000000000e+00 1.3499700000000001e+01
ITEM: ATOMS id type x y z 
57 1 2.31642 1.05855 2.31641 
58 1 3.00346 0.371511 3.00342 
59 1 1.0586 1.0586 1.05856 
60 1 0.371511 0.371511 0.371486 
61 1 1.05855 2.31642 2.31641 
62 1 0.371511 3.00346 3.00342 
63 1 2.31644 2.31644 1.05853 
64 1 3.00342 3.00342 0.371493 
41 1 4.43344 4.43344 12.4412 
42 1 3.74641 3.74641 13.1282 
43 1 4.43346 5.69127 11.1831 
44 1 3.74645 6.37834 10.4962 
45 1 5.69125 5.69125 12.441 
46 1 6.37836 6.37836 13.1282 
47 1 5.69127 4.43346 11.1831 
48 1 6.37834 3.74645 10.4962 
25 1 4.43349 12.4411 4.4335 
26 1 3.74643 13.1282 3.74643 
27 1 5.6913 11.1831 4.43344 
28 1 6.37832 10.4962 3.74641 
29 1 5.69129 12.4411 5.69125 
30 1 6.37838 13.1282 6.37837 
31 1 4.43349 11.1831 5.69128 
32 1 3.74644 10.4962 6.37833 
1 1 1.05851 9.06634 9.06634 
2 1 0.371484 9.75333 9.75333 
3 1 2.31645 7.80842 9.06626 
4 1 3.00346 7.12137 9.75328 
5 1 1.05873 7.80843 7.80845 
6 1 0.371548 7.12137 7.12136 
7 1 2.3164 9.0663 7.80843 
8 1 3.00343 9.75327 7.12136 
33 1 12.4411 4.43349 4.4335 
34 1 13.1282 3.74643 3.74643 
35 1 11.1831 4.43349 5.69128 
36 1 10.4962 3.74644 6.37833 
37 1 12.4411 5.69129 5.69125 
38 1 13.1282 6.37838 6.37837 
39 1 11.1831 5.6913 4.43344 
40 1 10.4962 6.37832 3.74641 
9 1 9.06634 1.05851 9.06634 
10 1 9.75333 0.371484 9.75333 
11 1 9.0663 2.3164 7.80843 
12 1 9.75327 3.00343 7.12136 
13 1 7.80843 1.05873 7.80845 
14 1 7.12137 0.371548 7.12136 
15 1 7.80842 2.31645 9.06626 
16 1 7.12137 3.00346 9.75328 
17 1 9.06631 9.06631 1.05854 
18 1 9.75332 9.75332 0.371517 
19 1 7.80847 9.06631 2.31648 
20 1 7.12137 9.75327 3.00347 
21 1 7.80846 7.80846 1.05872 
22 1 7.12136 7.12136 0.371539 
23 1 9.06631 7.80847 2.31648 
24 1 9.75327 7.12137 3.00347 
49 1 12.441 12.441 12.4411 
50 1 13.1282 13.1282 13.1282 
51 1 12.4411 11.1832 11.1832 
52 1 13.1282 10.4963 10.4963 
53 1 11.1832 11.1832 12.4411 
54 1 10.4963 10.4963 13.1282 
55 1 11.1832 12.4411 11.1832 
56 1 10.4963 13.1282 10.4963 
ITEM: TIMESTEP
29
ITEM: NUMBER OF ATOMS
64
ITEM: BOX BOUNDS pp pp pp
0.0000000000000000e+00 1.3499700000000001e+01
0.0000000000000000e+00 1.3499700000000001e+01
0.0000000000000000e+00 1.3499700000000001e+01
ITEM: ATOMS id type x y z 
57 1 2.31643 1.05855 2.3164 
58 1 3.00344 0.371506 3.00343 
59 1 1.0586 1.0586 1.05855 
60 1 0.37151 0.37151 0.371483 
61 1 1.05855 2.31643 2.3164 
62 1 0.371506 3.00344 3.00343 
63 1 2.31644 2.31644 1.05852 
64 1 3.00343 3.00343 0.371505 
41 1 4.43344 4.43344 12.4412 
42 1 3.74641 3.74641 13.1282 
43 1 4.43346 5.69128 11.1832 
44 1 3.74645 6.37833 10.4962 
45 1 5.69125 5.69125 12.441 
46 1 6.37836 6.37836 13.1282 
47 1 5.69128 4.43346 11.1832 
48 1 6.37833 3.74645 10.4962 
25 1 4.43349 12.4411 4.4335 
26 1 3.74643 13.1282 3.74643 
27 1 5.69128 11.1831 4.43342 
28 1 6.37834 10.4962 3.74644 
29 1 5.6913 12.4411 5.69126 
30 1 6.37837 13.1282 6.37836 
31 1 4.43348 11.1831 5.69128 
32 1 3.74645 10.4962 6.37833 
1 1 1.05853 9.06635 9.06634 
2 1 0.371478 9.75332 9.75332 
3 1 2.31645 7.80843 9.06628 
4 1 3.00347 7.12136 9.75326 
5 1 1.05871 7.80844 7.80845 
6 1 0.371561 7.12136 7.12136 
7 1 2.31639 9.0663 7.80843 
8 1 3.00344 9.75326 7.12136 
33 1 12.4411 4.43349 4.4335 
34 1 13.1282 3.74643 3.74643 
35 1 11.1831 4.43348 5.69128 
36 1 10.4962 3.74645 6.37833 
37 1 12.4411 5.6913 5.69126 
38 1 13.1282 6.37837 6.37836 
39 1 11.1831 5.69128 4.43342 
40 1 10.4962 6.37834 3.74644 
9 1 9.06635 1.05853 9.06634 
10 1 9.75332 0.371478 9.75332 
11 1 9.0663 2.31639 7.80843 
12 1 9.75326 3.00344 7.12136 
13 1 7.80844 1.05871 7.80845 
14 1 7.12136 0.371561 7.12136 
15 1 7.80843 2.31645 9.06628 
16 1 7.12136 3.00347 9.75326 
17 1 9.06632 9.06632 1.05856 
18 1 9.75331 9.75331 0.371496 
19 1 7.80846 9.06631 2.31647 
20 1 7.12138 9.75327 3.00347 
21 1 7.80846 7.80846 1.05871 
22 1 7.12135 7.12135 0.371547 
23 1 9.06631 7.80846 2.31647 
24 1 9.75327 7.12138 3.00347 
49 1 12.441 12.441 12.4411 
50 1 13.1282 13.1282 13.1282 
51 1 12.4411 11.1832 11.1832 
52 1 13.1281 10.4963 10.4963 
53 1 11.1832 11.1832 12.4411 
54 1 10.4963 10.4963 13.1282 
55 1 11.1832 12.4411 11.1832 
56 1 10.4963 13.1281 10.4963 
ITEM: TIMESTEP
30
ITEM: NUMBER OF ATOMS
64
ITEM: BOX BOUNDS pp pp pp
0.0000000000000000e+00 1.3499700000000001e+01
0.0000000000000000e+00 1.3499700000000001e+01
0.0000000000000000e+00 1.3499700000000001e+01
ITEM: ATOMS id type x y z 
57 1 2.31643 1.05855 2.3164 
58 1 3.00345 0.371506 3.00343 
59 1 1.0586 1.0586 1.05855 
60 1 0.37151 0.37151 0.371483 
61 1 1.05855 2.31643 2.3164 
62 1 0.371506 3.00345 3.00343 
63 1 2.31644 2.31644 1.05852 
64 1 3.00343 3.00343 0.371505 
41 1 4.43344 4.43344 12.4412 
42 1 3.74641 3.74641 13.1282 
43 1 4.43346 5.69128 11.1832 
44 1 3.74645 6.37833 10.4962 
45 1 5.69125 5.69125 12.441 
46 1 6.37836 6.37836 13.1282 
47 1 5.69128 4.43346 11.1832 
48 1 6.37833 3.74645 10.4962 
25 1 4.43349 12.4411 4.4335 
26 1 3.74643 13.1282 3.74643 
27 1 5.69128 11.1831 4.43342 
28 1 6.37834 10.4962 3.74644 
29 1 5.6913 12.4411 5.69126 
30 1 6.37837 13.1282 6.37836 
31 1 4.43348 11.1831 5.69128 
32 1 3.74645 10.4962 6.37833 
1 1 1.05853 9.06635 9.06634 
2 1 0.371478 9.75332 9.75332 
3 1 2.31645 7.80843 9.06628 
4 1 3.00347 7.12136 9.75326 
5 1 1.05871 7.80844 7.80845 
6 1 0.371561 7.12136 7.12136 
7 1 2.31639 9.0663 7.80843 
8 1 3.00344 9.75326 7.12136 
33 1 12.4411 4.43349 4.4335 
34 1 13.1282 3.74643 3.74643 
35 1 11.1831 4.43348 5.69128 
36 1 10.4962 3.74645 6.37833 
37 1 12.4411 5.6913 5.69126 
38 1 13.1282 6.37837 6.37836 
39 1 11.1831 5.69128 4.43342 
40 1 10.4962 6.37834 3.74644 
9 1 9.06635 1.05853 9.06634 
10 1 9.75332 0.371478 9.75332 
11 1 9.0663 2.31639 7.80843 
12 1 9.75326 3.00344 7.12136 
13 1 7.80844 1.05871 7.80845 
14 1 7.12136 0.371561 7.12136 
15 1 7.80843 2.31645 9.06628 
16 1 7.12136 3.00347 9.75326 
17 1 9.06632 9.06632 1.05856 
18 1 9.75331 9.75331 0.371496 
19 1 7.80846 9.06631 2.31647 
20 1 7.12138 9.75327 3.00347 
21 1 7.80846 7.80846 1.05871 
22 1 7.12135 7.12135 0.371546 
23 1 9.06631 7.80846 2.31647 
24 1 9.75327 7.12138 3.00347 
49 1 12.441 12.441 12.4411 
50 1 13.1282 13.1282 13.1282 
51 1 12.4411 11.1832 11.1832 
52 1 13.1281 10.4963 10.4963 
53 1 11.1832 11.1832 12.4411 
54 1 10.4963 10.4963 13.1282 
55 1 11.1832 12.4411 11.1832 
56 1 10.4963 13.1281 10.4963 
ITEM: TIMESTEP
40
ITEM: NUMBER OF ATOMS
64
ITEM: BOX BOUNDS pp pp pp
-6.7498443042779367e-03 1.3506449844304280e+01
-6.7498452528021299e-03 1.3506449845252799e+01
-6.7498500000000025e-03 1.3506449849999999e+01
ITEM: ATOMS id type x y z 
57 1 2.31199 1.05286 2.31197 
58 1 2.9997 0.365127 2.99969 
59 1 1.05291 1.05291 1.05286 
60 1 0.36513 0.36513 0.365104 
61 1 1.05286 2.31199 2.31197 
62 1 0.365127 2.9997 2.99969 
63 1 2.312 2.312 1.05283 
64 1 2.99968 2.99968 0.365128 
41 1 4.43112 4.43112 12.4469 
42 1 3.74341 3.74341 13.1346 
43 1 4.43114 5.69022 11.1876 
44 1 3.74345 6.37796 10.4999 
45 1 5.6902 5.6902 12.4467 
46 1 6.37799 6.37799 13.1346 
47 1 5.69022 4.43114 11.1876 
48 1 6.37796 3.74345 10.4999 
25 1 4.43117 12.4468 4.43118 
26 1 3.74343 13.1346 3.74342 
27 1 5.69023 11.1875 4.4311 
28 1 6.37797 10.4999 3.74343 
29 1 5.69024 12.4468 5.69021 
30 1 6.378 13.1346 6.37799 
31 1 4.43117 11.1875 5.69022 
32 1 3.74344 10.4999 6.37796 
1 1 1.05283 9.06869 9.06864 
2 1 0.365106 9.75628 9.75637 
3 1 2.31201 7.80949 9.06859 
4 1 2.99972 7.12173 9.75626 
5 1 1.05302 7.8095 7.80951 
6 1 0.365183 7.12173 7.12173 
7 1 2.31196 9.06862 7.80949 
8 1 2.9997 9.75627 7.12173 
33 1 12.4468 4.43117 4.43118 
34 1 13.1346 3.74343 3.74342 
35 1 11.1875 4.43117 5.69022 
36 1 10.4999 3.74344 6.37796 
37 1 12.4468 5.69024 5.69021 
38 1 13.1346 6.378 6.37799 
39 1 11.1875 5.69023 4.4311 
40 1 10.4999 6.37797 3.74343 
9 1 9.06866 1.05283 9.06866 
10 1 9.75633 0.365099 9.75632 
11 1 9.06862 2.31196 7.80949 
12 1 9.75627 2.9997 7.12173 
13 1 7.8095 1.05302 7.80951 
14 1 7.12173 0.365183 7.12173 
15 1 7.80949 2.31201 9.06859 
16 1 7.12173 2.99972 9.75626 
17 1 9.06862 9.06862 1.05284 
18 1 9.75634 9.75634 0.365172 
19 1 7.80951 9.06863 2.31204 
20 1 7.12175 9.75627 2.99973 
21 1 7.80952 7.80952 1.05302 
22 1 7.12172 7.12172 0.365167 
23 1 9.06863 7.80951 2.31204 
24 1 9.75627 7.12175 2.99973 
49 1 12.4467 12.4467 12.4468 
50 1 13.1346 13.1346 13.1346 
51 1 12.4468 11.1877 11.1877 
52 1 13.1345 10.5 10.5 
53 1 11.1877 11.1877 12.4468 
54 1 10.5 10.5 13.1345 
55 1 11.1877 12.4468 11.1877 
56 1 10.5 13.1345 10.5 
ITEM: TIMESTEP
50
ITEM: NUMBER OF ATOMS
64
ITEM: BOX BOUNDS pp pp pp
-1.3499685606984205e-02 1.3513199685606983e+01
-1.3499688225003529e-02 1.3513199688224999e+01
-1.3499699999999998e-02 1.3513199699999998e+01
ITEM: ATOMS id type x y z 
57 1 2.30756 1.04717 2.30754 
58 1 2.99596 0.358745 2.99594 
59 1 1.04721 1.04721 1.04717 
60 1 0.358749 0.358749 0.358723 
61 1 1.04717 2.30756 2.30754 
62 1 0.358745 2.99596 2.99594 
63 1 2.30757 2.30757 1.04713 
64 1 2.99594 2.99594 0.358746 
41 1 4.4288 4.4288 12.4525 
42 1 3.7404 3.7404 13.141 
43 1 4.42882 5.68916 11.192 
44 1 3.74044 6.37759 10.5037 
45 1 5.68914 5.68914 12.4524 
46 1 6.37762 6.37762 13.141 
47 1 5.68916 4.42882 11.192 
48 1 6.37759 3.74044 10.5037 
25 1 4.42886 12.4525 4.42886 
26 1 3.74042 13.141 3.74042 
27 1 5.68917 11.192 4.42879 
28 1 6.3776 10.5037 3.74043 
29 1 5.68918 12.4525 5.68915 
30 1 6.37764 13.141 6.37762 
31 1 4.42885 11.192 5.68916 
32 1 3.74045 10.5036 6.37759 
1 1 1.04714 9.071 9.07095 
2 1 0.358724 9.75929 9.75938 
3 1 2.30758 7.81054 9.07091 
4 1 2.99598 7.1221 9.75927 
5 1 1.04733 7.81056 7.81057 
6 1 0.358802 7.1221 7.1221 
7 1 2.30755 9.07092 7.81054 
8 1 2.99592 9.75931 7.1221 
33 1 12.4525 4.42886 4.42886 
34 1 13.141 3.74042 3.74042 
35 1 11.192 4.42885 5.68916 
36 1 10.5037 3.74044 6.3776 
37 1 12.4525 5.68918 5.68915 
38 1 13.141 6.37764 6.37762 
39 1 11.192 5.68917 4.42879 
40 1 10.5037 6.3776 3.74043 
9 1 9.07098 1.04714 9.07098 
10 1 9.75933 0.358717 9.75933 
11 1 9.07094 2.30753 7.81054 
12 1 9.75927 2.99595 7.1221 
13 1 7.81056 1.04733 7.81057 
14 1 7.1221 0.358802 7.1221 
15 1 7.81054 2.30758 9.07091 
16 1 7.1221 2.99598 9.75927 
17 1 9.07094 9.07094 1.04715 
18 1 9.75934 9.75934 0.358787 
19 1 7.81057 9.07095 2.30761 
20 1 7.12212 9.75928 2.99598 
21 1 7.81057 7.81057 1.04732 
22 1 7.12209 7.12209 0.358786 
23 1 9.07095 7.81057 2.30761 
24 1 9.75928 7.12212 2.99598 
49 1 12.4524 12.4524 12.4525 
50 1 13.1409 13.1409 13.1409 
51 1 12.4525 11.1921 11.1921 
52 1 13.1409 10.5038 10.5037 
53 1 11.1921 11.1921 12.4525 
54 1 10.5037 10.5037 13.1409 
55 1 11.1921 12.4525 11.1921 
56 1 10.5038 13.1409 10.5038 
ITEM: TIMESTEP
60
ITEM: NUMBER OF ATOMS
64
ITEM: BOX BOUNDS pp pp pp
-2.0249525135953076e-02 1.3519949525135951e+01
-2.0249529001405451e-02 1.3519949529001403e+01
-2.0249549999999995e-02 1.3519949549999996e+01
ITEM: ATOMS id type x y z 
57 1 2.30313 1.04147 2.30311 
58 1 2.99222 0.352362 2.9922 
59 1 1.04152 1.04152 1.04147 
60 1 0.352365 0.352365 0.35234 
61 1 1.04147 2.30313 2.30311 
62 1 0.352362 2.99222 2.9922 
63 1 2.30314 2.30314 1.04144 
64 1 2.9922 2.9922 0.352364 
41 1 4.42648 4.42648 12.4582 
42 1 3.73739 3.73739 13.1473 
43 1 4.4265 5.6881 11.1965 
44 1 3.73743 6.37723 10.5074 
45 1 5.68808 5.68808 12.4581 
46 1 6.37725 6.37725 13.1473 
47 1 5.6881 4.4265 11.1965 
48 1 6.37722 3.73743 10.5074 
25 1 4.42654 12.4582 4.42654 
26 1 3.73741 13.1473 3.73741 
27 1 5.68811 11.1964 4.42647 
28 1 6.37723 10.5074 3.73742 
29 1 5.68813 12.4581 5.6881 
30 1 6.37727 13.1474 6.37725 
31 1 4.42653 11.1964 5.68811 
32 1 3.73744 10.5074 6.37723 
1 1 1.04144 9.07332 9.07327 
2 1 0.352341 9.76231 9.76238 
3 1 2.30315 7.8116 9.07323 
4 1 2.99224 7.12246 9.76228 
5 1 1.04163 7.81161 7.81163 
6 1 0.352419 7.12246 7.12246 
7 1 2.30311 9.07324 7.8116 
8 1 2.99218 9.76231 7.12247 
33 1 12.4582 4.42654 4.42654 
34 1 13.1473 3.73741 3.73741 
35 1 11.1964 4.42653 5.68811 
36 1 10.5074 3.73743 6.37723 
37 1 12.4581 5.68813 5.6881 
38 1 13.1474 6.37727 6.37725 
39 1 11.1964 5.68811 4.42647 
40 1 10.5074 6.37722 3.73743 
9 1 9.0733 1.04145 9.0733 
10 1 9.76232 0.35233 9.76236 
11 1 9.07326 2.3031 7.8116 
12 1 9.76228 2.99221 7.12247 
13 1 7.81161 1.04163 7.81163 
14 1 7.12246 0.352419 7.12246 
15 1 7.8116 2.30315 9.07323 
16 1 7.12246 2.99224 9.76228 
17 1 9.07326 9.07326 1.04146 
18 1 9.76235 9.76235 0.352399 
19 1 7.81163 9.07327 2.30318 
20 1 7.12249 9.76228 2.99224 
21 1 7.81163 7.81163 1.04163 
22 1 7.12246 7.12246 0.352402 
23 1 9.07324 7.81161 2.30319 
24 1 9.76233 7.12251 2.99222 
49 1 12.4581 12.4581 12.4582 
50 1 13.1473 13.1473 13.1473 
51 1 12.4582 11.1965 11.1965 
52 1 13.1473 10.5075 10.5075 
53 1 11.1965 11.1965 12.4582 
54 1 10.5075 10.5075 13.1473 
55 1 11.1965 12.4582 11.1966 
56 1 10.5076 13.1473 10.5075 
ITEM: TIMESTEP
70
ITEM: NUMBER OF ATOMS
64
ITEM: BOX BOUNDS pp pp pp
-2.6999362220112819e-02 1.3526699362220111e+01
-2.6999365473291261e-02 1.3526699365473288e+01
-2.6999399999999989e-02 1.3526699399999995e+01
ITEM: ATOMS id type x y z 
57 1 2.2987 1.03578 2.29868 
58 1 2.98848 0.345977 2.98846 
59 1 1.03583 1.03583 1.03578 
60 1 0.34598 0.34598 0.345955 
61 1 1.03578 2.2987 2.29868 
62 1 0.345977 2.98848 2.98846 
63 1 2.29871 2.29871 1.03575 
64 1 2.98846 2.98846 0.345978 
41 1 4.42416 4.42416 12.4639 
42 1 3.73438 3.73438 13.1537 
43 1 4.42418 5.68705 11.2009 
44 1 3.73442 6.37686 10.5112 
45 1 5.68702 5.68702 12.4638 
46 1 6.37688 6.37688 13.1537 
47 1 5.68705 4.42419 11.2009 
48 1 6.37686 3.73442 10.5112 
25 1 4.42422 12.4639 4.42422 
26 1 3.7344 13.1537 3.7344 
27 1 5.68706 11.2008 4.42415 
28 1 6.37687 10.5111 3.73441 
29 1 5.68707 12.4638 5.68704 
30 1 6.3769 13.1537 6.37689 
31 1 4.42421 11.2008 5.68705 
32 1 3.73443 10.5111 6.37686 
1 1 1.03575 9.07564 9.0756 
2 1 0.345956 9.76532 9.76539 
3 1 2.29872 7.81266 9.07555 
4 1 2.9885 7.12283 9.76529 
5 1 1.03594 7.81267 7.81268 
6 1 0.346035 7.12283 7.12283 
7 1 2.29868 9.07556 7.81265 
8 1 2.98844 9.76532 7.12283 
33 1 12.4639 4.42422 4.42422 
34 1 13.1537 3.7344 3.7344 
35 1 11.2008 4.42421 5.68705 
36 1 10.5111 3.73442 6.37686 
37 1 12.4638 5.68707 5.68704 
38 1 13.1537 6.3769 6.37689 
39 1 11.2008 5.68706 4.42415 
40 1 10.5111 6.37686 3.73442 
9 1 9.07562 1.03575 9.07562 
10 1 9.76533 0.345947 9.76536 
11 1 9.07558 2.29867 7.81266 
12 1 9.76529 2.98847 7.12283 
13 1 7.81267 1.03594 7.81268 
14 1 7.12283 0.346035 7.12283 
15 1 7.81266 2.29872 9.07555 
16 1 7.12283 2.9885 9.76529 
17 1 9.07558 9.07558 1.03576 
18 1 9.76536 9.76536 0.34601 
19 1 7.81268 9.07559 2.29875 
20 1 7.12285 9.76529 2.9885 
21 1 7.81267 7.81267 1.03597 
22 1 7.12285 7.12285 0.345961 
23 1 9.07556 7.81267 2.29876 
24 1 9.76534 7.12287 2.98848 
49 1 12.4638 12.4638 12.4638 
50 1 13.1537 13.1537 13.1537 
51 1 12.4639 11.201 11.201 
52 1 13.1537 10.5113 10.5112 
53 1 11.201 11.201 12.4639 
54 1 10.5112 10.5112 13.1537 
55 1 11.2009 12.4639 11.201 
56 1 10.5113 13.1537 10.5112 
ITEM: TIMESTEP
80
ITEM: NUMBER OF ATOMS
64
ITEM: BOX BOUNDS pp pp pp
-3.3749193244475104e-02 1.3533449193244474e+01
-3.3749193629691414e-02 1.3533449193629691e+01
-3.3749249999999995e-02 1.3533449249999993e+01
ITEM: ATOMS id type x y z 
57 1 2.29427 1.03008 2.29425 
58 1 2.98474 0.339591 2.98472 
59 1 1.03013 1.03013 1.03008 
60 1 0.339594 0.339594 0.33957 
61 1 1.03008 2.29427 2.29425 
62 1 0.339592 2.98474 2.98472 
63 1 2.29428 2.29428 1.03005 
64 1 2.98472 2.98472 0.339593 
41 1 4.42184 4.42184 12.4696 
42 1 3.73137 3.73137 13.1601 
43 1 4.42186 5.68599 11.2053 
44 1 3.73141 6.3765 10.5149 
45 1 5.68597 5.68597 12.4695 
46 1 6.37652 6.37652 13.1601 
47 1 5.686 4.42186 11.2053 
48 1 6.3765 3.73141 10.5149 
25 1 4.4219 12.4696 4.4219 
26 1 3.73139 13.1601 3.73139 
27 1 5.686 11.2053 4.42183 
28 1 6.37651 10.5149 3.7314 
29 1 5.68602 12.4695 5.68599 
30 1 6.37654 13.1601 6.37652 
31 1 4.42189 11.2053 5.686 
32 1 3.73141 10.5149 6.3765 
1 1 1.03005 9.07796 9.07792 
2 1 0.33957 9.76833 9.7684 
3 1 2.29429 7.81371 9.07787 
4 1 2.98476 7.12319 9.7683 
5 1 1.03024 7.81372 7.81373 
6 1 0.339641 7.12321 7.12318 
7 1 2.29425 9.07788 7.81371 
8 1 2.98471 9.76833 7.1232 
33 1 12.4696 4.4219 4.4219 
34 1 13.1601 3.73139 3.73139 
35 1 11.2053 4.42189 5.686 
36 1 10.5149 3.73141 6.3765 
37 1 12.4695 5.68604 5.68598 
38 1 13.1601 6.3765 6.37654 
39 1 11.2053 5.686 4.42183 
40 1 10.5149 6.3765 3.7314 
9 1 9.07794 1.03006 9.07794 
10 1 9.76835 0.339562 9.76837 
11 1 9.0779 2.29424 7.81371 
12 1 9.7683 2.98473 7.1232 
13 1 7.81372 1.03024 7.81374 
14 1 7.12319 0.33965 7.12319 
15 1 7.81371 2.29429 9.07787 
16 1 7.12319 2.98476 9.7683 
17 1 9.0779 9.0779 1.03007 
18 1 9.76837 9.76837 0.33962 
19 1 7.81374 9.07791 2.29432 
20 1 7.12322 9.76831 2.98476 
21 1 7.81372 7.81372 1.03027 
22 1 7.12322 7.12321 0.339579 
23 1 9.07789 7.81373 2.29433 
24 1 9.76834 7.12324 2.98475 
49 1 12.4695 12.4695 12.4695 
50 1 13.1601 13.1601 13.1601 
51 1 12.4696 11.2054 11.2054 
52 1 13.1601 10.515 10.515 
53 1 11.2054 11.2054 12.4696 
54 1 10.515 10.515 13.1601 
55 1 11.2054 12.4696 11.2054 
56 1 10.515 13.1601 10.5149 
ITEM: TIMESTEP
90
ITEM: NUMBER OF ATOMS
64
ITEM: BOX BOUNDS pp pp pp
-4.0499022306769980e-02 1.3540199022306771e+01
-4.0499019644004847e-02 1.3540199019644005e+01
-4.0499100000000024e-02 1.3540199099999992e+01
ITEM: ATOMS id type x y z 
57 1 2.28984 1.02439 2.28982 
58 1 2.981 0.333205 2.98098 
59 1 1.02443 1.02443 1.02438 
60 1 0.333208 0.333208 0.333183 
61 1 1.02439 2.28984 2.28982 
62 1 0.333205 2.981 2.98098 
63 1 2.28985 2.28985 1.02435 
64 1 2.98098 2.98098 0.333206 
41 1 4.41952 4.41952 12.4753 
42 1 3.72836 3.72836 13.1665 
43 1 4.41954 5.68494 11.2097 
44 1 3.72841 6.37612 10.5186 
45 1 5.68492 5.68492 12.4752 
46 1 6.37616 6.37616 13.1665 
47 1 5.68494 4.41954 11.2097 
48 1 6.37613 3.7284 10.5186 
25 1 4.41957 12.4753 4.41958 
26 1 3.72838 13.1665 3.72838 
27 1 5.68495 11.2097 4.4195 
28 1 6.37614 10.5186 3.72839 
29 1 5.68496 12.4752 5.68493 
30 1 6.37618 13.1665 6.37616 
31 1 4.41957 11.2097 5.68495 
32 1 3.7284 10.5186 6.37613 
1 1 1.02436 9.08028 9.08024 
2 1 0.333184 9.77135 9.7714 
3 1 2.28987 7.81474 9.08017 
4 1 2.98101 7.12359 9.77136 
5 1 1.02455 7.81478 7.81479 
6 1 0.333257 7.12357 7.12355 
7 1 2.28982 9.0802 7.81476 
8 1 2.98097 9.77134 7.12356 
33 1 12.4753 4.41957 4.41958 
34 1 13.1665 3.72838 3.72838 
35 1 11.2097 4.41957 5.68495 
36 1 10.5186 3.7284 6.37614 
37 1 12.4752 5.68498 5.68493 
38 1 13.1665 6.37614 6.37618 
39 1 11.2097 5.68495 4.41951 
40 1 10.5186 6.37614 3.72839 
9 1 9.08026 1.02436 9.08027 
10 1 9.77136 0.333177 9.77138 
11 1 9.08022 2.28981 7.81476 
12 1 9.77131 2.98099 7.12356 
13 1 7.81477 1.02455 7.81479 
14 1 7.12355 0.333263 7.12355 
15 1 7.81476 2.28986 9.08019 
16 1 7.12356 2.98102 9.77131 
17 1 9.08023 9.08023 1.02437 
18 1 9.77138 9.77138 0.33323 
19 1 7.81479 9.08023 2.28989 
20 1 7.12358 9.77132 2.98103 
21 1 7.81478 7.81478 1.02457 
22 1 7.12358 7.12358 0.333197 
23 1 9.08021 7.81478 2.2899 
24 1 9.77135 7.1236 2.98101 
49 1 12.4752 12.4752 12.4752 
50 1 13.1665 13.1665 13.1665 
51 1 12.4753 11.2098 11.2098 
52 1 13.1664 10.5187 10.5187 
53 1 11.2098 11.2098 12.4753 
54 1 10.5187 10.5187 13.1665 
55 1 11.2098 12.4753 11.2098 
56 1 10.5188 13.1665 10.5187 
ITEM: TIMESTEP
100
ITEM: NUMBER OF ATOMS
64
ITEM: BOX BOUNDS pp pp pp
-4.7248846334073238e-02 1.3546948846334073e+01
-4.7248840835235881e-02 1.3546948840835235e+01
-4.7248950000000053e-02 1.3546948949999990e+01
ITEM: ATOMS id type x y z 
57 1 2.28542 1.01869 2.28539 
58 1 2.97726 0.326819 2.97725 
59 1 1.01873 1.01873 1.01869 
60 1 0.326822 0.326822 0.326797 
61 1 1.0187 2.28541 2.28542 
62 1 0.326786 2.97728 2.97719 
63 1 2.28543 2.28543 1.01866 
64 1 2.97724 2.97724 0.32682 
41 1 4.4172 4.4172 12.481 
42 1 3.72535 3.72535 13.1729 
43 1 4.41722 5.68389 11.2142 
44 1 3.72539 6.37576 10.5224 
45 1 5.68386 5.68386 12.4809 
46 1 6.37579 6.37579 13.1729 
47 1 5.68389 4.41722 11.2142 
48 1 6.37577 3.72539 10.5224 
25 1 4.41725 12.481 4.41726 
26 1 3.72537 13.1729 3.72536 
27 1 5.6839 11.2141 4.41718 
28 1 6.37578 10.5224 3.72537 
29 1 5.68391 12.4809 5.68388 
30 1 6.37581 13.1729 6.3758 
31 1 4.41725 11.2141 5.68389 
32 1 3.72538 10.5224 6.37577 
1 1 1.01866 9.0826 9.08257 
2 1 0.326797 9.77436 9.77441 
3 1 2.28544 7.8158 9.08249 
4 1 2.97727 7.12395 9.77437 
5 1 1.01885 7.81583 7.81584 
6 1 0.326873 7.12393 7.12391 
7 1 2.28539 9.08253 7.81581 
8 1 2.97724 9.77434 7.12392 
33 1 12.481 4.41725 4.41726 
34 1 13.1729 3.72536 3.72539 
35 1 11.2141 4.41724 5.68389 
36 1 10.5224 3.72538 6.37577 
37 1 12.4809 5.68393 5.68387 
38 1 13.1729 6.37578 6.37581 
39 1 11.2141 5.68389 4.41718 
40 1 10.5224 6.37578 3.72538 
9 1 9.08258 1.01866 9.08259 
10 1 9.77438 0.326792 9.77439 
11 1 9.08254 2.28538 7.81581 
12 1 9.77432 2.97726 7.12392 
13 1 7.81583 1.01885 7.81584 
14 1 7.12392 0.326877 7.12392 
15 1 7.81581 2.28544 9.08252 
16 1 7.12392 2.97728 9.77432 
17 1 9.08255 9.08255 1.01868 
18 1 9.77438 9.77438 0.326839 
19 1 7.81584 9.08255 2.28546 
20 1 7.12394 9.77433 2.97729 
21 1 7.81583 7.81583 1.01887 
22 1 7.12394 7.12394 0.326814 
23 1 9.08253 7.81583 2.28547 
24 1 9.77436 7.12396 2.97727 
49 1 12.4809 12.4809 12.4809 
50 1 13.1729 13.1729 13.1729 
51 1 12.481 11.2143 11.2142 
52 1 13.1728 10.5225 10.5225 
53 1 11.2142 11.2142 12.481 
54 1 10.5224 10.5224 13.1728 
55 1 11.2142 12.481 11.2143 
56 1 10.5225 13.1728 10.5224 
ITEM: TIMESTEP
110
ITEM: NUMBER OF ATOMS
64
ITEM: BOX BOUNDS pp pp pp
-5.3998674778205760e-02 1.3553698674778204e+01
-5.3998672727527244e-02 1.3553698672727524e+01
-5.3998800000000083e-02 1.3553698799999989e+01
ITEM: ATOMS id type x y z 
57 1 2.28099 1.01299 2.28097 
58 1 2.97352 0.320432 2.97351 
59 1 1.01304 1.01302 1.013 
60 1 0.320436 0.320467 0.320379 
61 1 1.01301 2.28098 2.28099 
62 1 0.320402 2.97354 2.97346 
63 1 2.281 2.281 1.01296 
64 1 2.97351 2.97351 0.320433 
41 1 4.41487 4.41487 12.4867 
42 1 3.72234 3.72234 13.1793 
43 1 4.4149 5.68284 11.2186 
44 1 3.72238 6.3754 10.5261 
45 1 5.68281 5.68281 12.4866 
46 1 6.37543 6.37543 13.1793 
47 1 5.68285 4.41492 11.2186 
48 1 6.37539 3.72232 10.5262 
25 1 4.41493 12.4867 4.41493 
26 1 3.72236 13.1793 3.72235 
27 1 5.68286 11.2186 4.41483 
28 1 6.3754 10.526 3.72242 
29 1 5.68286 12.4866 5.68283 
30 1 6.37545 13.1793 6.37543 
31 1 4.41493 11.2185 5.68284 
32 1 3.72237 10.5261 6.37541 
1 1 1.01296 9.08492 9.08489 
2 1 0.32041 9.77738 9.77742 
3 1 2.28102 7.81685 9.08482 
4 1 2.97353 7.12431 9.77738 
5 1 1.01315 7.81688 7.81689 
6 1 0.320489 7.12429 7.12428 
7 1 2.28097 9.08485 7.81686 
8 1 2.9735 9.77735 7.12429 
33 1 12.4867 4.41493 4.41493 
34 1 13.1793 3.72235 3.72238 
35 1 11.2186 4.41492 5.68284 
36 1 10.5261 3.72237 6.37541 
37 1 12.4866 5.68288 5.68282 
38 1 13.1793 6.37542 6.37545 
39 1 11.2185 5.68284 4.41486 
40 1 10.5261 6.37541 3.72236 
9 1 9.0849 1.01296 9.08491 
10 1 9.7774 0.320406 9.7774 
11 1 9.08487 2.28096 7.81687 
12 1 9.77734 2.97352 7.12429 
13 1 7.81688 1.01315 7.81689 
14 1 7.12428 0.320491 7.12428 
15 1 7.81687 2.28101 9.08484 
16 1 7.12429 2.97357 9.77732 
17 1 9.08487 9.08487 1.01298 
18 1 9.77739 9.77739 0.320448 
19 1 7.81689 9.08487 2.28104 
20 1 7.12432 9.77737 2.97352 
21 1 7.81688 7.81688 1.01317 
22 1 7.1243 7.1243 0.320432 
23 1 9.08486 7.81688 2.28104 
24 1 9.77736 7.12432 2.97354 
49 1 12.4866 12.4866 12.4866 
50 1 13.1793 13.1792 13.1793 
51 1 12.4867 11.2187 11.2187 
52 1 13.1792 10.5262 10.5262 
53 1 11.2187 11.2187 12.4866 
54 1 10.5262 10.5262 13.1792 
55 1 11.2187 12.4867 11.2187 
56 1 10.5262 13.1792 10.5262 
ITEM: TIMESTEP
120
ITEM: NUMBER OF ATOMS
64
ITEM: BOX BOUNDS pp pp pp
-6.0748500992719189e-02 1.3560448500992717e+01
-6.0748509977546536e-02 1.3560448509977542e+01
-6.0748650000000112e-02 1.3560448649999987e+01
ITEM: ATOMS id type x y z 
57 1 2.27657 1.00729 2.27654 
58 1 2.96978 0.314046 2.96977 
59 1 1.00734 1.00732 1.0073 
60 1 0.31405 0.314077 0.313996 
61 1 1.00731 2.27656 2.27657 
62 1 0.314019 2.9698 2.96972 
63 1 2.27658 2.27658 1.00726 
64 1 2.96977 2.96977 0.314047 
41 1 4.41255 4.41255 12.4924 
42 1 3.71933 3.71933 13.1857 
43 1 4.41257 5.68178 11.223 
44 1 3.71937 6.37503 10.5298 
45 1 5.68176 5.68176 12.4923 
46 1 6.37507 6.37507 13.1856 
47 1 5.6818 4.4126 11.223 
48 1 6.37503 3.71931 10.5299 
25 1 4.4126 12.4924 4.41261 
26 1 3.71935 13.1857 3.71934 
27 1 5.68181 11.223 4.41251 
28 1 6.37503 10.5298 3.7194 
29 1 5.68181 12.4923 5.68178 
30 1 6.37509 13.1857 6.37507 
31 1 4.4126 11.223 5.68179 
32 1 3.71936 10.5298 6.37505 
1 1 1.00726 9.08725 9.08722 
2 1 0.314023 9.78039 9.78043 
3 1 2.27659 7.8179 9.08714 
4 1 2.96979 7.12467 9.78038 
5 1 1.00745 7.81794 7.81794 
6 1 0.314105 7.12464 7.12465 
7 1 2.27654 9.08718 7.81792 
8 1 2.96977 9.78036 7.12465 
33 1 12.4924 4.4126 4.41261 
34 1 13.1857 3.71934 3.71936 
35 1 11.223 4.4126 5.68179 
36 1 10.5298 3.71936 6.37505 
37 1 12.4923 5.68182 5.68177 
38 1 13.1857 6.37506 6.37508 
39 1 11.223 5.68179 4.41254 
40 1 10.5298 6.37505 3.71935 
9 1 9.08723 1.00726 9.08724 
10 1 9.78041 0.31402 9.78041 
11 1 9.08719 2.27653 7.81792 
12 1 9.78035 2.96978 7.12465 
13 1 7.81793 1.00745 7.81794 
14 1 7.12465 0.314105 7.12465 
15 1 7.81792 2.27659 9.08716 
16 1 7.12466 2.96983 9.78033 
17 1 9.0872 9.0872 1.00728 
18 1 9.7804 9.7804 0.314059 
19 1 7.81794 9.0872 2.27661 
20 1 7.12468 9.78038 2.96979 
21 1 7.81793 7.81793 1.00747 
22 1 7.12466 7.12466 0.31405 
23 1 9.08718 7.81794 2.27662 
24 1 9.78037 7.12468 2.9698 
49 1 12.4923 12.4923 12.4923 
50 1 13.1856 13.1856 13.1857 
51 1 12.4924 11.2231 11.2231 
52 1 13.1856 10.5299 10.5299 
53 1 11.2231 11.2231 12.4923 
54 1 10.5299 10.5299 13.1856 
55 1 11.2231 12.4924 11.2231 
56 1 10.53 13.1856 10.5299 
ITEM: TIMESTEP
130
ITEM: NUMBER OF ATOMS
64
ITEM: BOX BOUNDS pp pp pp