 # C1
  
          64  atoms
           1  atom types
 
      0.000000000000      13.499700000000  xlo xhi
      0.000000000000      13.499700000000  ylo yhi
      0.000000000000      13.499700000000  zlo zhi
 
Masses
 
            1   12.01100000             # C
 
Atoms # charge
 
         1    1   0.000000        1.160569209000       8.964205791000       8.964205791000
         2    1   0.000000        0.349777227000       9.774997773000       9.774997773000
         3    1   0.000000        2.214355791000       7.910419209000       8.964205791000
         4    1   0.000000        3.025147773000       7.099627227000       9.774997773000
         5    1   0.000000        1.160569209000       7.910419209000       7.910419209000
         6    1   0.000000        0.349777227000       7.099627227000       7.099627227000
         7    1   0.000000        2.214355791000       8.964205791000       7.910419209000
         8    1   0.000000        3.025147773000       9.774997773000       7.099627227000
         9    1   0.000000        8.964205791000       1.160569209000       8.964205791000
        10    1   0.000000        9.774997773000       0.349777227000       9.774997773000
        11    1   0.000000        8.964205791000       2.214355791000       7.910419209000
        12    1   0.000000        9.774997773000       3.025147773000       7.099627227000
        13    1   0.000000        7.910419209000       1.160569209000       7.910419209000
        14    1   0.000000        7.099627227000       0.349777227000       7.099627227000
        15    1   0.000000        7.910419209000       2.214355791000       8.964205791000
        16    1   0.000000        7.099627227000       3.025147773000       9.774997773000
        17    1   0.000000        8.964205791000       8.964205791000       1.160569209000
        18    1   0.000000        9.774997773000       9.774997773000       0.349777227000
        19    1   0.000000        7.910419209000       8.964205791000       2.214355791000
        20    1   0.000000        7.099627227000       9.774997773000       3.025147773000
        21    1   0.000000        7.910419209000       7.910419209000       1.160569209000
        22    1   0.000000        7.099627227000       7.099627227000       0.349777227000
        23    1   0.000000        8.964205791000       7.910419209000       2.214355791000
        24    1   0.000000        9.774997773000       7.099627227000       3.025147773000
        25    1   0.000000        4.535494209000      12.339130791000       4.535494209000
        26    1   0.000000        3.724702227000      13.149922773000       3.724702227000
        27    1   0.000000        5.589280791000      11.285344209000       4.535494209000
        28    1   0.000000        6.400072773000      10.474552227000       3.724702227000
        29    1   0.000000        5.589280791000      12.339130791000       5.589280791000
        30    1   0.000000        6.400072773000      13.149922773000       6.400072773000
        31    1   0.000000        4.535494209000      11.285344209000       5.589280791000
        32    1   0.000000        3.724702227000      10.474552227000       6.400072773000
        33    1   0.000000       12.339130791000       4.535494209000       4.535494209000
        34    1   0.000000       13.149922773000       3.724702227000       3.724702227000
        35    1   0.000000       11.285344209000       4.535494209000       5.589280791000
        36    1   0.000000       10.474552227000       3.724702227000       6.400072773000
        37    1   0.000000       12.339130791000       5.589280791000       5.589280791000
        38    1   0.000000       13.149922773000       6.400072773000       6.400072773000
        39    1   0.000000       11.285344209000       5.589280791000       4.535494209000
        40    1   0.000000       10.474552227000       6.400072773000       3.724702227000
        41    1   0.000000        4.535494209000       4.535494209000      12.339130791000
        42    1   0.000000        3.724702227000       3.724702227000      13.149922773000
        43    1   0.000000        4.535494209000       5.589280791000      11.285344209000
        44    1   0.000000        3.724702227000       6.400072773000      10.474552227000
        45    1   0.000000        5.589280791000       5.589280791000      12.339130791000
        46    1   0.000000        6.400072773000       6.400072773000      13.149922773000
        47    1   0.000000        5.589280791000       4.535494209000      11.285344209000
        48    1   0.000000        6.400072773000       3.724702227000      10.474552227000
        49    1   0.000000       12.339130791000      12.339130791000      12.339130791000
        50    1   0.000000       13.149922773000      13.149922773000      13.149922773000
        51    1   0.000000       12.339130791000      11.285344209000      11.285344209000
        52    1   0.000000       13.149922773000      10.474552227000      10.474552227000
        53    1   0.000000       11.285344209000      11.285344209000      12.339130791000
        54    1   0.000000       10.474552227000      10.474552227000      13.149922773000
        55    1   0.000000       11.285344209000      12.339130791000      11.285344209000
        56    1   0.000000       10.474552227000      13.149922773000      10.474552227000
        57    1   0.000000        2.214355791000       1.160569209000       2.214355791000
        58    1   0.000000        3.025147773000       0.349777227000       3.025147773000
        59    1   0.000000        1.160569209000       1.160569209000       1.160569209000
        60    1   0.000000        0.349777227000       0.349777227000       0.349777227000
        61    1   0.000000        1.160569209000       2.214355791000       2.214355791000
        62    1   0.000000        0.349777227000       3.025147773000       3.025147773000
        63    1   0.000000        2.214355791000       2.214355791000       1.160569209000
        64    1   0.000000        3.025147773000       3.025147773000       0.349777227000
