ITEM: TIMESTEP
0
ITEM: NUMBER OF ATOMS
64
ITEM: BOX BOUNDS pp pp pp
0.0000000000000000e+00 1.3499700000000001e+01
0.0000000000000000e+00 1.3499700000000001e+01
0.0000000000000000e+00 1.3499700000000001e+01
ITEM: ATOMS id type x y z 
57 1 2.21436 1.16057 2.21436 
58 1 3.02515 0.349777 3.02515 
59 1 1.16057 1.16057 1.16057 
60 1 0.349777 0.349777 0.349777 
61 1 1.16057 2.21436 2.21436 
62 1 0.349777 3.02515 3.02515 
63 1 2.21436 2.21436 1.16057 
64 1 3.02515 3.02515 0.349777 
41 1 4.53549 4.53549 12.3391 
42 1 3.7247 3.7247 13.1499 
43 1 4.53549 5.58928 11.2853 
44 1 3.7247 6.40007 10.4746 
45 1 5.58928 5.58928 12.3391 
46 1 6.40007 6.40007 13.1499 
47 1 5.58928 4.53549 11.2853 
48 1 6.40007 3.7247 10.4746 
25 1 4.53549 12.3391 4.53549 
26 1 3.7247 13.1499 3.7247 
27 1 5.58928 11.2853 4.53549 
28 1 6.40007 10.4746 3.7247 
29 1 5.58928 12.3391 5.58928 
30 1 6.40007 13.1499 6.40007 
31 1 4.53549 11.2853 5.58928 
32 1 3.7247 10.4746 6.40007 
1 1 1.16057 8.96421 8.96421 
2 1 0.349777 9.775 9.775 
3 1 2.21436 7.91042 8.96421 
4 1 3.02515 7.09963 9.775 
5 1 1.16057 7.91042 7.91042 
6 1 0.349777 7.09963 7.09963 
7 1 2.21436 8.96421 7.91042 
8 1 3.02515 9.775 7.09963 
33 1 12.3391 4.53549 4.53549 
34 1 13.1499 3.7247 3.7247 
35 1 11.2853 4.53549 5.58928 
36 1 10.4746 3.7247 6.40007 
37 1 12.3391 5.58928 5.58928 
38 1 13.1499 6.40007 6.40007 
39 1 11.2853 5.58928 4.53549 
40 1 10.4746 6.40007 3.7247 
9 1 8.96421 1.16057 8.96421 
10 1 9.775 0.349777 9.775 
11 1 8.96421 2.21436 7.91042 
12 1 9.775 3.02515 7.09963 
13 1 7.91042 1.16057 7.91042 
14 1 7.09963 0.349777 7.09963 
15 1 7.91042 2.21436 8.96421 
16 1 7.09963 3.02515 9.775 
17 1 8.96421 8.96421 1.16057 
18 1 9.775 9.775 0.349777 
19 1 7.91042 8.96421 2.21436 
20 1 7.09963 9.775 3.02515 
21 1 7.91042 7.91042 1.16057 
22 1 7.09963 7.09963 0.349777 
23 1 8.96421 7.91042 2.21436 
24 1 9.775 7.09963 3.02515 
49 1 12.3391 12.3391 12.3391 
50 1 13.1499 13.1499 13.1499 
51 1 12.3391 11.2853 11.2853 
52 1 13.1499 10.4746 10.4746 
53 1 11.2853 11.2853 12.3391 
54 1 10.4746 10.4746 13.1499 
55 1 11.2853 12.3391 11.2853 
56 1 10.4746 13.1499 10.4746 
ITEM: TIMESTEP
10
ITEM: NUMBER OF ATOMS
64
ITEM: BOX BOUNDS pp pp pp
0.0000000000000000e+00 1.3499700000000001e+01
0.0000000000000000e+00 1.3499700000000001e+01
0.0000000000000000e+00 1.3499700000000001e+01
ITEM: ATOMS id type x y z 
57 1 2.27859 1.09617 2.27868 
58 1 3.03789 0.336977 3.03797 
59 1 1.09605 1.09676 1.09549 
60 1 0.336981 0.336203 0.337697 
61 1 1.09618 2.2786 2.27873 
62 1 0.336932 3.03795 3.03799 
63 1 2.27879 2.27874 1.09616 
64 1 3.03811 3.0381 0.336859 
41 1 4.47116 4.47116 12.4034 
42 1 3.71192 3.71192 13.1627 
43 1 4.47119 5.65366 11.2209 
44 1 3.71172 6.41296 10.4618 
45 1 5.65382 5.65382 12.4036 
46 1 6.41279 6.41279 13.1628 
47 1 5.65366 4.47119 11.2209 
48 1 6.41296 3.71172 10.4618 
25 1 4.47115 12.4035 4.47111 
26 1 3.71193 13.1627 3.71192 
27 1 5.65374 11.2209 4.47134 
28 1 6.41283 10.4618 3.71159 
29 1 5.6538 12.4036 5.65383 
30 1 6.41278 13.1628 6.41277 
31 1 4.47113 11.2209 5.65351 
32 1 3.71185 10.4618 6.41305 
1 1 1.09622 9.02843 9.02843 
2 1 0.336985 9.78782 9.78784 
3 1 2.27876 7.84605 9.02857 
4 1 3.03786 7.08677 9.78795 
5 1 1.09592 7.84593 7.84596 
6 1 0.33701 7.08681 7.08681 
7 1 2.27871 9.02847 7.84586 
8 1 3.03792 9.78813 7.08702 
33 1 12.4035 4.47117 4.47109 
34 1 13.1627 3.7119 3.71196 
35 1 11.2209 4.47113 5.65351 
36 1 10.4618 3.71185 6.41305 
37 1 12.4036 5.6538 5.65383 
38 1 13.1628 6.41278 6.41277 
39 1 11.2209 5.65374 4.47134 
40 1 10.4618 6.41283 3.71159 
9 1 9.02841 1.09623 9.02844 
10 1 9.78783 0.336999 9.7878 
11 1 9.02847 2.27872 7.84585 
12 1 9.78813 3.03792 7.08701 
13 1 7.84592 1.09592 7.84596 
14 1 7.08681 0.337008 7.08681 
15 1 7.84605 2.27877 9.02857 
16 1 7.08677 3.03787 9.78795 
17 1 9.02843 9.02842 1.09622 
18 1 9.78784 9.78784 0.336986 
19 1 7.84608 9.02849 2.27886 
20 1 7.08677 9.78811 3.03779 
21 1 7.84595 7.84595 1.09593 
22 1 7.08681 7.08681 0.33702 
23 1 9.02849 7.84608 2.27886 
24 1 9.78811 7.08677 3.03779 
49 1 12.4037 12.4043 12.403 
50 1 13.1627 13.162 13.1635 
51 1 12.4033 11.2209 11.2211 
52 1 13.163 10.4618 10.4618 
53 1 11.2211 11.2209 12.4033 
54 1 10.4618 10.4618 13.1629 
55 1 11.2208 12.4033 11.2209 
56 1 10.4617 13.1631 10.4617 
ITEM: TIMESTEP
20
ITEM: NUMBER OF ATOMS
64
ITEM: BOX BOUNDS pp pp pp
0.0000000000000000e+00 1.3499700000000001e+01
0.0000000000000000e+00 1.3499700000000001e+01
0.0000000000000000e+00 1.3499700000000001e+01
ITEM: ATOMS id type x y z 
57 1 2.27862 1.0962 2.2787 
58 1 3.03791 0.336919 3.03796 
59 1 1.09606 1.09655 1.09568 
60 1 0.336909 0.336385 0.337489 
61 1 1.0962 2.27861 2.27877 
62 1 0.336886 3.03796 3.03801 
63 1 2.27883 2.27879 1.0962 
64 1 3.0381 3.03807 0.336759 
41 1 4.47115 4.47117 12.4035 
42 1 3.7119 3.71189 13.1628 
43 1 4.47112 5.65367 11.221 
44 1 3.71177 6.41298 10.4617 
45 1 5.65379 5.65378 12.4037 
46 1 6.41287 6.41288 13.1628 
47 1 5.65367 4.47112 11.221 
48 1 6.41298 3.71177 10.4617 
25 1 4.47117 12.4035 4.47112 
26 1 3.71186 13.1627 3.71187 
27 1 5.65366 11.221 4.47113 
28 1 6.41299 10.4617 3.71178 
29 1 5.65376 12.4037 5.65377 
30 1 6.41286 13.1627 6.41289 
31 1 4.47112 11.221 5.65366 
32 1 3.71181 10.4617 6.41297 
1 1 1.09627 9.02849 9.02847 
2 1 0.336951 9.78784 9.78786 
3 1 2.2787 7.84603 9.02863 
4 1 3.03796 7.08677 9.78791 
5 1 1.096 7.8459 7.84591 
6 1 0.33693 7.08679 7.0868 
7 1 2.2787 9.02866 7.84602 
8 1 3.03798 9.78791 7.08679 
33 1 12.4035 4.47116 4.47112 
34 1 13.1627 3.71188 3.71188 
35 1 11.221 4.47112 5.65366 
36 1 10.4617 3.71181 6.41297 
37 1 12.4037 5.65376 5.65377 
38 1 13.1627 6.41286 6.41289 
39 1 11.221 5.65366 4.47113 
40 1 10.4617 6.41299 3.71178 
9 1 9.02849 1.09631 9.02848 
10 1 9.78782 0.336954 9.78782 
11 1 9.02866 2.27871 7.84602 
12 1 9.78791 3.03798 7.08678 
13 1 7.84589 1.09599 7.84591 
14 1 7.08679 0.336931 7.08679 
15 1 7.84603 2.27871 9.02864 
16 1 7.08677 3.03796 9.78791 
17 1 9.02846 9.02849 1.09627 
18 1 9.78786 9.78785 0.336936 
19 1 7.84603 9.02865 2.27868 
20 1 7.08674 9.78793 3.03799 
21 1 7.84591 7.84591 1.09601 
22 1 7.08681 7.0868 0.336928 
23 1 9.02865 7.84603 2.27868 
24 1 9.78793 7.08674 3.03799 
49 1 12.4037 12.4041 12.4032 
50 1 13.1628 13.1622 13.1633 
51 1 12.4035 11.2209 11.2211 
52 1 13.1628 10.4617 10.4617 
53 1 11.2211 11.221 12.4035 
54 1 10.4618 10.4617 13.1628 
55 1 11.2209 12.4035 11.2209 
56 1 10.4616 13.1629 10.4616 
ITEM: TIMESTEP
30
ITEM: NUMBER OF ATOMS
64
ITEM: BOX BOUNDS pp pp pp
0.0000000000000000e+00 1.3499700000000001e+01
0.0000000000000000e+00 1.3499700000000001e+01
0.0000000000000000e+00 1.3499700000000001e+01
ITEM: ATOMS id type x y z 
57 1 2.27861 1.09619 2.2787 
58 1 3.03792 0.336931 3.03797 
59 1 1.09606 1.09654 1.09569 
60 1 0.336909 0.336397 0.337473 
61 1 1.09618 2.27861 2.27875 
62 1 0.336897 3.03796 3.03803 
63 1 2.27882 2.27878 1.09619 
64 1 3.03812 3.03809 0.336801 
41 1 4.47116 4.47117 12.4035 
42 1 3.71188 3.71188 13.1627 
43 1 4.47111 5.65367 11.221 
44 1 3.71178 6.41298 10.4617 
45 1 5.65378 5.65378 12.4037 
46 1 6.41288 6.41288 13.1628 
47 1 5.65367 4.47111 11.221 
48 1 6.41298 3.71178 10.4617 
25 1 4.47116 12.4035 4.47112 
26 1 3.71187 13.1627 3.71188 
27 1 5.65366 11.221 4.47113 
28 1 6.41298 10.4617 3.71178 
29 1 5.65376 12.4037 5.65378 
30 1 6.41287 13.1627 6.41289 
31 1 4.47112 11.221 5.65367 
32 1 3.71181 10.4617 6.41296 
1 1 1.09628 9.02849 9.02847 
2 1 0.336944 9.78784 9.78786 
3 1 2.27869 7.84603 9.02864 
4 1 3.03797 7.08677 9.7879 
5 1 1.096 7.8459 7.84591 
6 1 0.336927 7.08679 7.0868 
7 1 2.27871 9.02866 7.84603 
8 1 3.03798 9.78791 7.08678 
33 1 12.4035 4.47116 4.47111 
34 1 13.1627 3.71188 3.71189 
35 1 11.221 4.47112 5.65367 
36 1 10.4617 3.71181 6.41296 
37 1 12.4037 5.65376 5.65378 
38 1 13.1628 6.41287 6.41289 
39 1 11.221 5.65366 4.47113 
40 1 10.4617 6.41299 3.71178 
9 1 9.02849 1.09631 9.02849 
10 1 9.78781 0.336951 9.78783 
11 1 9.02867 2.27871 7.84602 
12 1 9.78791 3.03798 7.08678 
13 1 7.84589 1.09599 7.84591 
14 1 7.08679 0.336927 7.0868 
15 1 7.84603 2.2787 9.02865 
16 1 7.08677 3.03797 9.7879 
17 1 9.02846 9.02849 1.09628 
18 1 9.78786 9.78785 0.336935 
19 1 7.84603 9.02865 2.27868 
20 1 7.08674 9.78793 3.03799 
21 1 7.84591 7.84591 1.096 
22 1 7.0868 7.0868 0.336937 
23 1 9.02865 7.84603 2.27868 
24 1 9.78793 7.08674 3.03799 
49 1 12.4037 12.4041 12.4032 
50 1 13.1628 13.1622 13.1633 
51 1 12.4035 11.221 11.2211 
52 1 13.1628 10.4617 10.4617 
53 1 11.2211 11.221 12.4035 
54 1 10.4618 10.4617 13.1628 
55 1 11.2209 12.4035 11.2209 
56 1 10.4616 13.1629 10.4616 
ITEM: TIMESTEP
32
ITEM: NUMBER OF ATOMS
64
ITEM: BOX BOUNDS pp pp pp
0.0000000000000000e+00 1.3499700000000001e+01
0.0000000000000000e+00 1.3499700000000001e+01
0.0000000000000000e+00 1.3499700000000001e+01
ITEM: ATOMS id type x y z 
57 1 2.2786 1.09618 2.2787 
58 1 3.03792 0.336931 3.03797 
59 1 1.09606 1.09654 1.09569 
60 1 0.336909 0.336398 0.337472 
61 1 1.09618 2.27861 2.27875 
62 1 0.336898 3.03796 3.03803 
63 1 2.27882 2.27878 1.09619 
64 1 3.03812 3.03809 0.336802 
41 1 4.47116 4.47117 12.4035 
42 1 3.71188 3.71188 13.1627 
43 1 4.47111 5.65367 11.221 
44 1 3.71178 6.41298 10.4617 
45 1 5.65378 5.65378 12.4037 
46 1 6.41288 6.41288 13.1628 
47 1 5.65367 4.47111 11.221 
48 1 6.41298 3.71178 10.4617 
25 1 4.47116 12.4035 4.47111 
26 1 3.71187 13.1627 3.71188 
27 1 5.65366 11.221 4.47113 
28 1 6.41298 10.4617 3.71178 
29 1 5.65376 12.4037 5.65378 
30 1 6.41287 13.1627 6.41288 
31 1 4.47112 11.221 5.65366 
32 1 3.71181 10.4617 6.41296 
1 1 1.09628 9.0285 9.02847 
2 1 0.336944 9.78783 9.78786 
3 1 2.27869 7.84603 9.02864 
4 1 3.03797 7.08677 9.7879 
5 1 1.096 7.8459 7.84591 
6 1 0.336927 7.08679 7.0868 
7 1 2.27871 9.02866 7.84603 
8 1 3.03798 9.7879 7.08678 
33 1 12.4035 4.47116 4.47111 
34 1 13.1627 3.71188 3.71189 
35 1 11.221 4.47112 5.65367 
36 1 10.4617 3.71181 6.41296 
37 1 12.4037 5.65376 5.65378 
38 1 13.1627 6.41287 6.41289 
39 1 11.221 5.65366 4.47113 
40 1 10.4617 6.41299 3.71178 
9 1 9.02849 1.09631 9.02849 
10 1 9.78781 0.33695 9.78783 
11 1 9.02867 2.27871 7.84602 
12 1 9.78791 3.03798 7.08678 
13 1 7.84589 1.09599 7.84591 
14 1 7.08678 0.336927 7.0868 
15 1 7.84603 2.2787 9.02864 
16 1 7.08677 3.03797 9.78791 
17 1 9.02846 9.02849 1.09628 
18 1 9.78786 9.78785 0.336934 
19 1 7.84603 9.02865 2.27868 
20 1 7.08674 9.78793 3.03799 
21 1 7.84591 7.84591 1.096 
22 1 7.0868 7.0868 0.336938 
23 1 9.02865 7.84603 2.27868 
24 1 9.78793 7.08674 3.03799 
49 1 12.4037 12.4041 12.4032 
50 1 13.1628 13.1622 13.1633 
51 1 12.4035 11.221 11.2211 
52 1 13.1628 10.4617 10.4617 
53 1 11.2211 11.221 12.4035 
54 1 10.4618 10.4617 13.1628 
55 1 11.2209 12.4035 11.2209 
56 1 10.4616 13.1629 10.4616 
ITEM: TIMESTEP
33
ITEM: NUMBER OF ATOMS
64
ITEM: BOX BOUNDS pp pp pp
0.0000000000000000e+00 1.3499700000000001e+01
0.0000000000000000e+00 1.3499700000000001e+01
0.0000000000000000e+00 1.3499700000000001e+01
ITEM: ATOMS id type x y z 
57 1 2.2786 1.09618 2.2787 
58 1 3.03792 0.336931 3.03797 
59 1 1.09606 1.09654 1.09569 
60 1 0.336909 0.336398 0.337472 
61 1 1.09618 2.27861 2.27875 
62 1 0.336898 3.03796 3.03803 
63 1 2.27882 2.27878 1.09619 
64 1 3.03812 3.03809 0.336802 
41 1 4.47116 4.47117 12.4035 
42 1 3.71188 3.71188 13.1627 
43 1 4.47111 5.65367 11.221 
44 1 3.71178 6.41298 10.4617 
45 1 5.65378 5.65378 12.4037 
46 1 6.41288 6.41288 13.1628 
47 1 5.65367 4.47111 11.221 
48 1 6.41298 3.71178 10.4617 
25 1 4.47116 12.4035 4.47111 
26 1 3.71187 13.1627 3.71188 
27 1 5.65366 11.221 4.47113 
28 1 6.41298 10.4617 3.71178 
29 1 5.65376 12.4037 5.65378 
30 1 6.41287 13.1627 6.41288 
31 1 4.47112 11.221 5.65366 
32 1 3.71181 10.4617 6.41296 
1 1 1.09628 9.0285 9.02847 
2 1 0.336944 9.78783 9.78786 
3 1 2.27869 7.84603 9.02864 
4 1 3.03797 7.08677 9.7879 
5 1 1.096 7.8459 7.84591 
6 1 0.336927 7.08679 7.0868 
7 1 2.27871 9.02866 7.84603 
8 1 3.03798 9.78791 7.08678 
33 1 12.4035 4.47116 4.47111 
34 1 13.1627 3.71188 3.71189 
35 1 11.221 4.47112 5.65367 
36 1 10.4617 3.71181 6.41296 
37 1 12.4037 5.65376 5.65378 
38 1 13.1627 6.41287 6.41289 
39 1 11.221 5.65366 4.47113 
40 1 10.4617 6.41299 3.71178 
9 1 9.02849 1.09631 9.02849 
10 1 9.78781 0.33695 9.78782 
11 1 9.02867 2.27871 7.84602 
12 1 9.78791 3.03798 7.08678 
13 1 7.84589 1.09599 7.84591 
14 1 7.08678 0.336927 7.0868 
15 1 7.84603 2.2787 9.02864 
16 1 7.08677 3.03797 9.78791 
17 1 9.02846 9.02849 1.09628 
18 1 9.78786 9.78785 0.336934 
19 1 7.84603 9.02865 2.27868 
20 1 7.08674 9.78793 3.03799 
21 1 7.84591 7.84591 1.096 
22 1 7.0868 7.0868 0.336938 
23 1 9.02865 7.84603 2.27868 
24 1 9.78793 7.08674 3.03799 
49 1 12.4037 12.4041 12.4032 
50 1 13.1628 13.1622 13.1633 
51 1 12.4035 11.221 11.2211 
52 1 13.1628 10.4617 10.4617 
53 1 11.2211 11.221 12.4035 
54 1 10.4618 10.4617 13.1628 
55 1 11.2209 12.4035 11.2209 
56 1 10.4616 13.1629 10.4616 
ITEM: TIMESTEP
40
ITEM: NUMBER OF ATOMS
64
ITEM: BOX BOUNDS pp pp pp
-4.7248950000000015e-03 1.3504424895000000e+01
-4.7248950000000015e-03 1.3504424895000000e+01
-4.7248950000000015e-03 1.3504424895000000e+01
ITEM: ATOMS id type x y z 
57 1 2.27547 1.09223 2.27557 
58 1 3.03532 0.332442 3.03537 
59 1 1.0921 1.09258 1.09174 
60 1 0.33242 0.331909 0.332983 
61 1 1.09223 2.27548 2.27562 
62 1 0.332409 3.03536 3.03543 
63 1 2.27569 2.27565 1.09223 
64 1 3.03552 3.0355 0.332314 
41 1 4.46956 4.46958 12.4074 
42 1 3.70976 3.70975 13.1672 
43 1 4.46951 5.6529 11.2241 
44 1 3.70965 6.41274 10.4643 
45 1 5.65301 5.65301 12.4077 
46 1 6.41265 6.41265 13.1672 
47 1 5.6529 4.46951 11.2241 
48 1 6.41274 3.70965 10.4643 
25 1 4.46956 12.4075 4.46952 
26 1 3.70975 13.1672 3.70975 
27 1 5.65289 11.2241 4.46953 
28 1 6.41275 10.4643 3.70965 
29 1 5.65299 12.4076 5.65301 
30 1 6.41264 13.1672 6.41265 
31 1 4.46952 11.2241 5.6529 
32 1 3.70968 10.4643 6.41272 
1 1 1.09233 9.03009 9.03006 
2 1 0.332454 9.78996 9.78998 
3 1 2.27556 7.8468 9.03024 
4 1 3.03537 7.08701 9.79003 
5 1 1.09204 7.84667 7.84668 
6 1 0.332439 7.08702 7.08704 
7 1 2.27558 9.03026 7.8468 
8 1 3.03538 9.79003 7.08701 
33 1 12.4075 4.46957 4.46951 
34 1 13.1672 3.70975 3.70976 
35 1 11.2241 4.46952 5.6529 
36 1 10.4643 3.70968 6.41272 
37 1 12.4076 5.65299 5.65301 
38 1 13.1672 6.41264 6.41265 
39 1 11.2241 5.6529 4.46953 
40 1 10.4643 6.41275 3.70965 
9 1 9.03008 1.09235 9.03008 
10 1 9.78994 0.332461 9.78995 
11 1 9.03026 2.27558 7.84679 
12 1 9.79003 3.03538 7.08701 
13 1 7.84666 1.09204 7.84668 
14 1 7.08702 0.332438 7.08703 
15 1 7.8468 2.27557 9.03024 
16 1 7.087 3.03537 9.79003 
17 1 9.03006 9.03009 1.09232 
18 1 9.78999 9.78997 0.332445 
19 1 7.84679 9.03024 2.27555 
20 1 7.08698 9.79006 3.03539 
21 1 7.84668 7.84668 1.09205 
22 1 7.08703 7.08704 0.332449 
23 1 9.03024 7.84679 2.27555 
24 1 9.79006 7.08698 3.03539 
49 1 12.4076 12.408 12.4072 
50 1 13.1673 13.1667 13.1678 
51 1 12.4074 11.2241 11.2242 
52 1 13.1673 10.4643 10.4643 
53 1 11.2242 11.2241 12.4074 
54 1 10.4644 10.4643 13.1673 
55 1 11.224 12.4075 11.2241 
56 1 10.4642 13.1674 10.4642 
ITEM: TIMESTEP
50
ITEM: NUMBER OF ATOMS
64
ITEM: BOX BOUNDS pp pp pp
-1.1474745000000000e-02 1.3511174744999998e+01
-1.1474745000000000e-02 1.3511174744999998e+01
-1.1474745000000000e-02 1.3511174744999998e+01
ITEM: ATOMS id type x y z 
57 1 2.271 1.08658 2.27109 
58 1 3.03161 0.326031 3.03165 
59 1 1.08646 1.08693 1.08609 
60 1 0.326009 0.325498 0.326572 
61 1 1.08658 2.27101 2.27115 
62 1 0.325998 3.03165 3.03172 
63 1 2.27121 2.27117 1.08658 
64 1 3.03181 3.03178 0.325903 
41 1 4.46729 4.4673 12.4131 
42 1 3.70672 3.70671 13.1736 
43 1 4.46724 5.6518 11.2286 
44 1 3.70662 6.4124 10.468 
45 1 5.65191 5.65191 12.4133 
46 1 6.41231 6.41231 13.1737 
47 1 5.6518 4.46724 11.2286 
48 1 6.4124 3.70662 10.468 
25 1 4.46729 12.4131 4.46725 
26 1 3.70671 13.1736 3.70672 
27 1 5.65179 11.2286 4.46726 
28 1 6.41241 10.468 3.70661 
29 1 5.65189 12.4133 5.65191 
30 1 6.4123 13.1736 6.41231 
31 1 4.46725 11.2286 5.6518 
32 1 3.70665 10.468 6.41238 
1 1 1.08668 9.03236 9.03233 
2 1 0.326043 9.793 9.79302 
3 1 2.27108 7.8479 9.03251 
4 1 3.03166 7.08735 9.79307 
5 1 1.08639 7.84777 7.84778 
6 1 0.326028 7.08736 7.08738 
7 1 2.2711 9.03253 7.8479 
8 1 3.03166 9.79307 7.08735 
33 1 12.4131 4.4673 4.46724 
34 1 13.1736 3.70672 3.70673 
35 1 11.2286 4.46725 5.6518 
36 1 10.468 3.70665 6.41238 
37 1 12.4133 5.65189 5.65191 
38 1 13.1736 6.4123 6.41231 
39 1 11.2286 5.65179 4.46726 
40 1 10.468 6.41241 3.70661 
9 1 9.03236 1.08671 9.03235 
10 1 9.79298 0.32605 9.79299 
11 1 9.03253 2.27111 7.84789 
12 1 9.79307 3.03167 7.08735 
13 1 7.84776 1.08639 7.84778 
14 1 7.08736 0.326027 7.08737 
15 1 7.8479 2.27109 9.03251 
16 1 7.08734 3.03166 9.79307 
17 1 9.03233 9.03236 1.08668 
18 1 9.79302 9.79301 0.326033 
19 1 7.8479 9.03252 2.27107 
20 1 7.08732 9.79309 3.03168 
21 1 7.84778 7.84778 1.0864 
22 1 7.08737 7.08737 0.326037 
23 1 9.03252 7.8479 2.27107 
24 1 9.79309 7.08732 3.03168 
49 1 12.4133 12.4137 12.4128 
50 1 13.1737 13.1731 13.1742 
51 1 12.4131 11.2286 11.2287 
52 1 13.1737 10.468 10.468 
53 1 11.2287 11.2286 12.4131 
54 1 10.4681 10.468 13.1737 
55 1 11.2285 12.4131 11.2285 
56 1 10.4679 13.1738 10.4679 
ITEM: TIMESTEP
60
ITEM: NUMBER OF ATOMS
64
ITEM: BOX BOUNDS pp pp pp
-1.8224594999999996e-02 1.3517924594999997e+01
-1.8224594999999996e-02 1.3517924594999997e+01
-1.8224594999999996e-02 1.3517924594999997e+01
ITEM: ATOMS id type x y z 
57 1 2.26649 1.08097 2.26658 
58 1 3.02788 0.319635 3.02793 
59 1 1.08084 1.08132 1.08048 
60 1 0.319611 0.319102 0.320173 
61 1 1.08096 2.2665 2.26663 
62 1 0.319601 3.02792 3.02799 
63 1 2.2667 2.26666 1.08096 
64 1 3.02808 3.02806 0.319509 
41 1 4.46505 4.46506 12.4187 
42 1 3.7037 3.70369 13.18 
43 1 4.465 5.65066 11.2331 
44 1 3.70359 6.41205 10.4717 
45 1 5.65078 5.65078 12.4189 
46 1 6.41195 6.41196 13.1801 
47 1 5.65066 4.465 11.2331 
48 1 6.41205 3.70359 10.4717 
25 1 4.46505 12.4187 4.46501 
26 1 3.70369 13.18 3.70369 
27 1 5.65066 11.2331 4.46502 
28 1 6.41206 10.4717 3.70359 
29 1 5.65075 12.4189 5.65077 
30 1 6.41194 13.18 6.41196 
31 1 4.46501 11.2331 5.65066 
32 1 3.70362 10.4718 6.41203 
1 1 1.08107 9.0346 9.03457 
2 1 0.319645 9.79602 9.79604 
3 1 2.26657 7.84904 9.03475 
4 1 3.02793 7.0877 9.79609 
5 1 1.08078 7.8489 7.84892 
6 1 0.319629 7.08771 7.08773 
7 1 2.26659 9.03477 7.84903 
8 1 3.02794 9.79609 7.08771 
33 1 12.4187 4.46506 4.465 
34 1 13.18 3.70369 3.7037 
35 1 11.2331 4.46501 5.65066 
36 1 10.4718 3.70362 6.41203 
37 1 12.4189 5.65075 5.65077 
38 1 13.18 6.41194 6.41196 
39 1 11.2331 5.65066 4.46502 
40 1 10.4717 6.41206 3.70359 
9 1 9.0346 1.08109 9.03459 
10 1 9.796 0.319653 9.79601 
11 1 9.03477 2.26659 7.84903 
12 1 9.79609 3.02794 7.0877 
13 1 7.8489 1.08078 7.84891 
14 1 7.08771 0.319628 7.08773 
15 1 7.84903 2.26658 9.03475 
16 1 7.08769 3.02793 9.79609 
17 1 9.03457 9.0346 1.08106 
18 1 9.79604 9.79603 0.319634 
19 1 7.84903 9.03476 2.26656 
20 1 7.08767 9.79612 3.02795 
21 1 7.8489 7.84892 1.08079 
22 1 7.08775 7.08772 0.319622 
23 1 9.03475 7.84903 2.26656 
24 1 9.79612 7.08767 3.02795 
49 1 12.4189 12.4193 12.4184 
50 1 13.1801 13.1795 13.1806 
51 1 12.4187 11.2331 11.2332 
52 1 13.1801 10.4717 10.4718 
53 1 11.2332 11.2331 12.4187 
54 1 10.4718 10.4718 13.1801 
55 1 11.233 12.4187 11.2331 
56 1 10.4716 13.1802 10.4716 
ITEM: TIMESTEP
70
ITEM: NUMBER OF ATOMS
64
ITEM: BOX BOUNDS pp pp pp
-2.4974444999999991e-02 1.3524674444999995e+01
-2.4974444999999991e-02 1.3524674444999995e+01
-2.4974444999999991e-02 1.3524674444999995e+01
ITEM: ATOMS id type x y z 
57 1 2.2609 1.07644 2.26102 
58 1 3.02376 0.313614 3.02372 
59 1 1.0763 1.07672 1.07599 
60 1 0.31363 0.31317 0.314131 
61 1 1.07643 2.26094 2.26105 
62 1 0.313576 3.02371 3.02387 
63 1 2.26113 2.26109 1.07643 
64 1 3.02391 3.02386 0.313463 
41 1 4.46386 4.46387 12.4232 
42 1 3.70113 3.70113 13.1861 
43 1 4.46383 5.64847 11.2387 
44 1 3.701 6.41122 10.4758 
45 1 5.64859 5.64857 12.4234 
46 1 6.41113 6.41122 13.1861 
47 1 5.64847 4.46382 11.2387 
48 1 6.41125 3.70103 10.4758 
25 1 4.46389 12.4233 4.46382 
26 1 3.70105 13.1861 3.70115 
27 1 5.64847 11.2387 4.46385 
28 1 6.41123 10.4758 3.70099 
29 1 5.64854 12.4235 5.64856 
30 1 6.41122 13.186 6.41122 
31 1 4.46386 11.2387 5.64845 
32 1 3.70098 10.476 6.41128 
1 1 1.07654 9.03578 9.03576 
2 1 0.313609 9.79864 9.79859 
3 1 2.261 7.85122 9.0359 
4 1 3.02378 7.08852 9.79875 
5 1 1.07622 7.8511 7.85114 
6 1 0.313683 7.08851 7.08843 
7 1 2.261 9.03596 7.85125 
8 1 3.02383 9.79863 7.08845 
33 1 12.4233 4.46386 4.46384 
34 1 13.1861 3.70115 3.70107 
35 1 11.2387 4.46383 5.64846 
36 1 10.4758 3.70106 6.41124 
37 1 12.4235 5.64856 5.64855 
38 1 13.186 6.41115 6.41126 
39 1 11.2387 5.64843 4.46384 
40 1 10.4759 6.41135 3.70103 
9 1 9.03576 1.07656 9.03578 
10 1 9.79863 0.313631 9.79855 
11 1 9.03592 2.26103 7.85123 
12 1 9.79876 3.02375 7.0885 
13 1 7.85111 1.07621 7.85112 
14 1 7.08844 0.313711 7.08847 
15 1 7.85123 2.26101 9.0359 
16 1 7.08849 3.02375 9.79876 
17 1 9.03574 9.03576 1.0765 
18 1 9.79867 9.79868 0.313715 
19 1 7.85122 9.03591 2.26099 
20 1 7.0885 9.79878 3.0238 
21 1 7.85109 7.85114 1.07626 
22 1 7.08857 7.08845 0.313609 
23 1 9.03593 7.85126 2.261 
24 1 9.79869 7.08838 3.02377 
49 1 12.4234 12.4238 12.423 
50 1 13.1861 13.1856 13.1865 
51 1 12.4232 11.2387 11.2388 
52 1 13.1861 10.4758 10.476 
53 1 11.2388 11.2387 12.4233 
54 1 10.4759 10.4759 13.186 
55 1 11.2386 12.4232 11.2386 
56 1 10.4757 13.1862 10.4758 
ITEM: TIMESTEP
80
ITEM: NUMBER OF ATOMS
64
ITEM: BOX BOUNDS pp pp pp
-2.9024354999999988e-02 1.3528724354999994e+01
-2.9024354999999988e-02 1.3528724354999994e+01
-2.9024354999999988e-02 1.3528724354999994e+01
ITEM: ATOMS id type x y z 
57 1 2.25678 1.07446 2.25678 
58 1 3.02087 0.310497 3.02121 
59 1 1.07438 1.07472 1.07414 
60 1 0.310338 0.30995 0.31076 
61 1 1.07446 2.2567 2.25693 
62 1 0.310464 3.0212 3.02099 
63 1 2.25694 2.25688 1.07443 
64 1 3.02122 3.02124 0.310455 
41 1 4.464 4.46403 12.4252 
42 1 3.69975 3.6997 13.1891 
43 1 4.46394 5.64627 11.2428 
44 1 3.69972 6.41069 10.4789 
45 1 5.64638 5.64647 12.4254 
46 1 6.41065 6.41036 13.1892 
47 1 5.6463 4.46397 11.2428 
48 1 6.4106 3.69961 10.4789 
25 1 4.46396 12.4252 4.464 
26 1 3.69988 13.1892 3.6996 
27 1 5.64627 11.2428 4.46396 
28 1 6.41069 10.4789 3.69972 
29 1 5.64646 12.4253 5.64646 
30 1 6.41029 13.1895 6.41037 
31 1 4.46391 11.2429 5.64635 
32 1 3.69989 10.4785 6.41042 
1 1 1.07455 9.03569 9.03558 
2 1 0.310531 9.79986 9.80012 
3 1 2.25684 7.85342 9.03587 
4 1 3.02101 7.08906 9.79977 
5 1 1.07436 7.85326 7.85319 
6 1 0.310238 7.08914 7.08946 
7 1 2.2569 9.03577 7.85334 
8 1 3.02087 9.80017 7.08931 
33 1 12.4252 4.46405 4.46391 
34 1 13.1892 3.6996 3.69989 
35 1 11.2428 4.46399 5.6463 
36 1 10.4789 3.69963 6.41058 
37 1 12.4253 5.64639 5.6465 
38 1 13.1894 6.41053 6.41023 
39 1 11.2429 5.64639 4.46399 
40 1 10.4786 6.41031 3.69962 
9 1 9.03569 1.07459 9.0356 
10 1 9.79979 0.310501 9.8001 
11 1 9.0359 2.25683 7.85339 
12 1 9.79975 3.02113 7.08915 
13 1 7.85319 1.07438 7.85322 
14 1 7.08937 0.310142 7.08933 
15 1 7.85339 2.25681 9.03588 
16 1 7.08914 3.02112 9.79975 
17 1 9.03566 9.03572 1.07466 
18 1 9.79987 9.79976 0.310151 
19 1 7.85342 9.03588 2.25683 
20 1 7.08903 9.79979 3.02104 
21 1 7.85331 7.85322 1.0743 
22 1 7.08905 7.08932 0.310475 
23 1 9.03579 7.8533 2.2568 
24 1 9.80008 7.08942 3.02113 
49 1 12.4254 12.4256 12.425 
50 1 13.1894 13.189 13.1898 
51 1 12.4252 11.2428 11.243 
52 1 13.1892 10.4786 10.4785 
53 1 11.2429 11.2428 12.4251 
54 1 10.4788 10.4788 13.1895 
55 1 11.2427 12.4252 11.2429 
56 1 10.4786 13.1893 10.4784 
ITEM: TIMESTEP
90
ITEM: NUMBER OF ATOMS
64
ITEM: BOX BOUNDS pp pp pp
-3.4424234999999997e-02 1.3534124234999993e+01
-3.4424234999999997e-02 1.3534124234999993e+01
-3.4424234999999997e-02 1.3534124234999993e+01
ITEM: ATOMS id type x y z 
57 1 2.2529 1.07026 2.25292 
58 1 3.01782 0.30544 3.01807 
59 1 1.07016 1.07049 1.06994 
60 1 0.305317 0.304944 0.305723 
61 1 1.07025 2.25284 2.25304 
62 1 0.305405 3.01806 3.01793 
63 1 2.25307 2.25301 1.07023 
64 1 3.01812 3.01812 0.305377 
41 1 4.46247 4.46249 12.4294 
42 1 3.69745 3.69741 13.1942 
43 1 4.46242 5.64511 11.2467 
44 1 3.69741 6.41026 10.4819 
45 1 5.64522 5.64528 12.4296 
46 1 6.41021 6.41 13.1943 
47 1 5.64513 4.46244 11.2467 
48 1 6.41019 3.69733 10.4819 
25 1 4.46245 12.4294 4.46246 
26 1 3.69754 13.1942 3.69734 
27 1 5.6451 11.2467 4.46244 
28 1 6.41026 10.4819 3.69741 
29 1 5.64527 12.4295 5.64527 
30 1 6.40995 13.1945 6.41001 
31 1 4.4624 11.2468 5.64516 
32 1 3.69753 10.4816 6.41006 
1 1 1.07035 9.0372 9.03712 
2 1 0.305465 9.80219 9.80238 
3 1 2.25296 7.85459 9.03737 
4 1 3.01793 7.08949 9.80214 
5 1 1.07013 7.85444 7.85438 
6 1 0.30525 7.08955 7.08978 
7 1 2.25301 9.03731 7.85453 
8 1 3.01783 9.80243 7.08967 
33 1 12.4294 4.46251 4.4624 
34 1 13.1942 3.69734 3.69755 
35 1 11.2467 4.46246 5.64513 
36 1 10.4819 3.69735 6.41017 
37 1 12.4295 5.64522 5.6453 
38 1 13.1944 6.41012 6.40991 
39 1 11.2468 5.64519 4.46246 
40 1 10.4817 6.40999 3.69734 
9 1 9.03721 1.07038 9.03714 
10 1 9.80213 0.305445 9.80236 
11 1 9.0374 2.25296 7.85456 
12 1 9.80213 3.01802 7.08956 
13 1 7.85438 1.07015 7.85441 
14 1 7.08971 0.305181 7.08968 
15 1 7.85456 2.25294 9.03738 
16 1 7.08955 3.01801 9.80213 
17 1 9.03718 9.03722 1.07042 
18 1 9.8022 9.80212 0.305189 
19 1 7.85458 9.03738 2.25295 
20 1 7.08946 9.80216 3.01795 
21 1 7.85447 7.85441 1.07009 
22 1 7.08949 7.08968 0.305418 
23 1 9.03732 7.8545 2.25293 
24 1 9.80237 7.08974 3.01802 
49 1 12.4296 12.4298 12.4293 
50 1 13.1944 13.194 13.1948 
51 1 12.4294 11.2467 11.2469 
52 1 13.1943 10.4817 10.4816 
53 1 11.2468 11.2467 12.4293 
54 1 10.4819 10.4819 13.1945 
55 1 11.2466 12.4294 11.2467 
56 1 10.4817 13.1944 10.4815 
ITEM: TIMESTEP
100
ITEM: NUMBER OF ATOMS
64
ITEM: BOX BOUNDS pp pp pp
-3.8474145000000015e-02 1.3538174144999992e+01
-3.8474145000000015e-02 1.3538174144999992e+01
-3.8474145000000015e-02 1.3538174144999992e+01
ITEM: ATOMS id type x y z 
57 1 2.24964 1.06745 2.24971 
58 1 3.01543 0.301725 3.01553 
59 1 1.06733 1.06763 1.06713 
60 1 0.30167 0.301325 0.302046 
61 1 1.06745 2.24963 2.24979 
62 1 0.301687 3.01553 3.01554 
63 1 2.24984 2.24979 1.06743 
64 1 3.01564 3.01562 0.301624 
41 1 4.46165 4.46166 12.4322 
42 1 3.69587 3.69586 13.198 
43 1 4.46161 5.64392 11.25 
44 1 3.69579 6.40976 10.4842 
45 1 5.64403 5.64405 12.4324 
46 1 6.4097 6.40965 13.198 
47 1 5.64393 4.46162 11.25 
48 1 6.40974 3.69577 10.4842 
25 1 4.46165 12.4322 4.46162 
26 1 3.69588 13.198 3.69583 
27 1 5.64391 11.25 4.46163 
28 1 6.40976 10.4842 3.69579 
29 1 5.64403 12.4324 5.64404 
30 1 6.40962 13.198 6.40965 
31 1 4.46161 11.25 5.64393 
32 1 3.69584 10.4842 6.4097 
1 1 1.06754 9.03801 9.03796 
2 1 0.301733 9.80383 9.8039 
3 1 2.24972 7.85578 9.03815 
4 1 3.01549 7.08998 9.80386 
5 1 1.06728 7.85564 7.85564 
6 1 0.301664 7.09 7.09007 
7 1 2.24975 9.03815 7.85576 
8 1 3.01547 9.80394 7.09004 
33 1 12.4322 4.46167 4.4616 
34 1 13.1979 3.69583 3.69589 
35 1 11.2499 4.46163 5.64392 
36 1 10.4842 3.6958 6.40973 
37 1 12.4324 5.64402 5.64405 
38 1 13.198 6.40967 6.40962 
39 1 11.25 5.64394 4.46163 
40 1 10.4842 6.40969 3.69578 
9 1 9.038 1.06757 9.03798 
10 1 9.8038 0.301733 9.80387 
11 1 9.03817 2.24974 7.85576 
12 1 9.80386 3.01552 7.09001 
13 1 7.85562 1.06728 7.85564 
14 1 7.09004 0.301644 7.09005 
15 1 7.85576 2.24972 9.03815 
16 1 7.09 3.01551 9.80386 
17 1 9.03797 9.03801 1.06756 
18 1 9.80386 9.80382 0.301649 
19 1 7.85577 9.03816 2.24971 
20 1 7.08996 9.80388 3.01551 
21 1 7.85565 7.85564 1.06728 
22 1 7.09 7.09004 0.301705 
23 1 9.03814 7.85575 2.2497 
24 1 9.80393 7.09003 3.01553 
49 1 12.4324 12.4326 12.4321 
50 1 13.198 13.1977 13.1984 
51 1 12.4322 11.2499 11.2501 
52 1 13.198 10.4841 10.4842 
53 1 11.2501 11.25 12.4322 
54 1 10.4843 10.4842 13.198 
55 1 11.2499 12.4322 11.2499 
56 1 10.4841 13.1981 10.484 
ITEM: TIMESTEP
110
ITEM: NUMBER OF ATOMS
64
ITEM: BOX BOUNDS pp pp pp
-4.2524055000000033e-02 1.3542224054999991e+01
-4.2524055000000033e-02 1.3542224054999991e+01
-4.2524055000000033e-02 1.3542224054999991e+01
ITEM: ATOMS id type x y z 
57 1 2.24629 1.06473 2.24637 
58 1 3.01298 0.298095 3.01304 
59 1 1.06461 1.06487 1.06445 
60 1 0.298059 0.297749 0.298398 
61 1 1.06473 2.24629 2.24643 
62 1 0.298057 3.01303 3.01309 
63 1 2.24649 2.24644 1.06471 
64 1 3.01317 3.01314 0.297997 
41 1 4.46095 4.46096 12.4349 
42 1 3.69429 3.69429 13.2016 
43 1 4.46091 5.6426 11.2533 
44 1 3.69421 6.40929 10.4867 
45 1 5.64271 5.64272 12.4351 
46 1 6.40923 6.40922 13.2016 
47 1 5.6426 4.46091 11.2533 
48 1 6.40929 3.69421 10.4867 
25 1 4.46096 12.435 4.46091 
26 1 3.69428 13.2016 3.69427 
27 1 5.64259 11.2533 4.46093 
28 1 6.4093 10.4867 3.69421 
29 1 5.6427 12.4351 5.64271 
30 1 6.4092 13.2016 6.40922 
31 1 4.46092 11.2533 5.6426 
32 1 3.69424 10.4867 6.40927 
1 1 1.06483 9.0387 9.03867 
2 1 0.298098 9.80542 9.80546 
3 1 2.24637 7.8571 9.03884 
4 1 3.01302 7.09045 9.80547 
5 1 1.06455 7.85696 7.85697 
6 1 0.298071 7.09045 7.09048 
7 1 2.24639 9.03885 7.85709 
8 1 3.01302 9.80549 7.09047 
33 1 12.435 4.46096 4.4609 
34 1 13.2016 3.69427 3.6943 
35 1 11.2533 4.46093 5.6426 
36 1 10.4867 3.69423 6.40927 
37 1 12.4351 5.6427 5.64272 
38 1 13.2016 6.40922 6.40922 
39 1 11.2533 5.6426 4.46093 
40 1 10.4866 6.40928 3.69421 
9 1 9.03869 1.06485 9.03869 
10 1 9.8054 0.298103 9.80543 
11 1 9.03886 2.24639 7.85709 
12 1 9.80547 3.01303 7.09046 
13 1 7.85695 1.06455 7.85697 
14 1 7.09046 0.298064 7.09047 
15 1 7.85709 2.24638 9.03884 
16 1 7.09045 3.01303 9.80547 
17 1 9.03867 9.0387 1.06483 
18 1 9.80545 9.80543 0.298068 
19 1 7.85709 9.03884 2.24636 
20 1 7.09043 9.80549 3.01304 
21 1 7.85697 7.85698 1.06456 
22 1 7.09047 7.09046 0.298077 
23 1 9.03884 7.85709 2.24636 
24 1 9.8055 7.09044 3.01304 
49 1 12.4351 12.4353 12.4349 
50 1 13.2016 13.2013 13.202 
51 1 12.4349 11.2533 11.2534 
52 1 13.2016 10.4866 10.4867 
53 1 11.2534 11.2533 12.4349 
54 1 10.4867 10.4867 13.2016 
55 1 11.2532 12.435 11.2533 
56 1 10.4865 13.2017 10.4865 
ITEM: TIMESTEP
120
ITEM: NUMBER OF ATOMS
64
ITEM: BOX BOUNDS pp pp pp