ITEM: TIMESTEP
0
ITEM: NUMBER OF ATOMS
49
ITEM: BOX BOUNDS pp pp pp
0.0000000000000000e+00 1.1000000000000000e+01
0.0000000000000000e+00 1.1002000000000001e+01
0.0000000000000000e+00 1.1000000000000000e+01
ITEM: ATOMS id type x y z 
10 1 4.603 4.603 4.603 
11 1 3.085 3.085 3.085 
12 1 3.796 3.796 3.796 
46 1 0.726 0.725 0.725 
47 1 2.26 2.259 2.26 
48 1 1.551 1.55 1.55 
19 1 4.546 4.545 6.226 
20 1 3.013 3.013 7.764 
21 1 3.721 3.721 7.053 
31 1 0.668 0.667 10.103 
32 1 2.187 2.187 8.589 
33 1 1.476 1.475 9.298 
16 1 4.546 6.225 4.546 
17 1 3.013 7.765 3.013 
18 1 3.721 7.053 3.722 
25 1 0.668 10.103 0.668 
26 1 2.188 8.589 2.188 
27 1 1.476 9.298 1.476 
4 1 4.608 6.169 6.169 
5 1 3.086 7.684 7.684 
6 1 3.799 6.974 6.974 
37 1 0.729 10.046 10.046 
38 1 2.259 8.509 8.508 
39 1 1.552 9.219 9.219 
13 1 6.225 4.546 4.546 
14 1 7.764 3.013 3.013 
15 1 7.053 3.721 3.722 
28 1 10.102 0.667 0.668 
29 1 8.589 2.187 2.188 
30 1 9.298 1.475 1.476 
1 1 6.168 4.608 6.169 
2 1 7.684 3.086 7.684 
3 1 6.974 3.799 6.974 
40 1 10.045 0.728 10.046 
41 1 8.508 2.259 8.508 
42 1 9.218 1.551 9.218 
7 1 6.169 6.169 4.608 
8 1 7.684 7.684 3.086 
9 1 6.974 6.974 3.799 
43 1 10.046 10.047 0.729 
44 1 8.508 8.509 2.259 
45 1 9.219 9.219 1.552 
22 1 6.229 6.229 6.229 
23 1 7.764 7.765 7.765 
24 1 7.055 7.056 7.055 
34 1 10.108 10.108 10.107 
35 1 8.59 8.59 8.59 
36 1 9.301 9.301 9.3 
49 2 5.851 6.075 7.516 
ITEM: TIMESTEP
10
ITEM: NUMBER OF ATOMS
49
ITEM: BOX BOUNDS pp pp pp
0.0000000000000000e+00 1.1000000000000000e+01
0.0000000000000000e+00 1.1002000000000001e+01
0.0000000000000000e+00 1.1000000000000000e+01
ITEM: ATOMS id type x y z 
10 1 4.58982 4.58722 4.59126 
11 1 3.08198 3.08189 3.08269 
12 1 3.79504 3.79501 3.79456 
46 1 0.726456 0.7259 0.72566 
47 1 2.262 2.26096 2.26129 
48 1 1.55146 1.55083 1.55116 
19 1 4.55135 4.57124 6.22547 
20 1 3.00921 3.0078 7.7674 
21 1 3.71594 3.71618 7.0592 
31 1 0.664034 0.664 10.1048 
32 1 2.18536 2.18435 8.59108 
33 1 1.47289 1.47442 9.29974 
16 1 4.54018 6.22888 4.5758 
17 1 3.01217 7.76485 3.0088 
18 1 3.71151 7.0625 3.71875 
25 1 0.664991 10.1051 0.665142 
26 1 2.18532 8.59243 2.1848 
27 1 1.47188 9.30034 1.47299 
4 1 4.49853 6.17542 6.14646 
5 1 3.09767 7.68216 7.67552 
6 1 3.78001 6.9539 6.94993 
37 1 0.733776 10.0433 10.0423 
38 1 2.25823 8.51093 8.50952 
39 1 1.54946 9.22227 9.22338 
13 1 6.23176 4.53535 4.5489 
14 1 7.76724 3.01136 3.0102 
15 1 7.05525 3.71484 3.71956 
28 1 10.1041 0.663372 0.663337 
29 1 8.59167 2.1843 2.18531 
30 1 9.30016 1.47248 1.47264 
1 1 6.16367 4.51754 6.14206 
2 1 7.69235 3.08353 7.69379 
3 1 6.97529 3.7824 6.97298 
40 1 10.0439 0.730375 10.0457 
41 1 8.50743 2.25956 8.50817 
42 1 9.22038 1.55105 9.21923 
7 1 6.17755 6.17259 4.531 
8 1 7.69899 7.69911 3.07721 
9 1 6.98027 6.97978 3.77831 
43 1 10.0443 10.0464 0.732164 
44 1 8.50833 8.5097 2.25854 
45 1 9.22289 9.22185 1.55045 
22 1 6.19885 6.2166 6.20998 
23 1 7.82207 7.81215 7.78315 
24 1 7.06723 7.08378 7.1556 
34 1 10.097 10.102 10.0984 
35 1 8.59572 8.59862 8.59537 
36 1 9.31558 9.30946 9.31111 
49 2 5.91171 6.1059 7.58113 
ITEM: TIMESTEP
20
ITEM: NUMBER OF ATOMS
49
ITEM: BOX BOUNDS pp pp pp
0.0000000000000000e+00 1.1000000000000000e+01
0.0000000000000000e+00 1.1002000000000001e+01
0.0000000000000000e+00 1.1000000000000000e+01
ITEM: ATOMS id type x y z 
10 1 4.58817 4.58446 4.58958 
11 1 3.0795 3.08094 3.08025 
12 1 3.79423 3.79107 3.79422 
46 1 0.72888 0.727866 0.726981 
47 1 2.26133 2.26065 2.26059 
48 1 1.55107 1.55013 1.55078 
19 1 4.5388 4.55274 6.2347 
20 1 3.00839 3.00517 7.76795 
21 1 3.71348 3.71805 7.06168 
31 1 0.665517 0.662069 10.1053 
32 1 2.18341 2.18325 8.59309 
33 1 1.47094 1.47027 9.30121 
16 1 4.5277 6.238 4.55808 
17 1 3.00901 7.76782 3.00463 
18 1 3.7077 7.06539 3.7198 
25 1 0.667319 10.1059 0.66229 
26 1 2.18219 8.59384 2.18327 
27 1 1.47259 9.30265 1.46895 
4 1 4.49695 6.15267 6.12167 
5 1 3.08115 7.69621 7.69406 
6 1 3.75238 6.97247 6.95669 
37 1 0.735695 10.0446 10.0441 
38 1 2.26263 8.50863 8.50762 
39 1 1.55544 9.21987 9.2191 
13 1 6.23159 4.52966 4.5452 
14 1 7.77014 3.00648 3.0052 
15 1 7.06102 3.71067 3.71776 
28 1 10.1038 0.666853 0.665009 
29 1 8.59209 2.18253 2.18418 
30 1 9.30262 1.47292 1.47074 
1 1 6.15918 4.50749 6.13046 
2 1 7.69651 3.08185 7.69915 
3 1 6.97596 3.76966 6.97027 
40 1 10.0435 0.73469 10.044 
41 1 8.50932 2.25902 8.51028 
42 1 9.22228 1.55102 9.22135 
7 1 6.17544 6.16621 4.53173 
8 1 7.7053 7.70654 3.07275 
9 1 6.98473 6.98212 3.76554 
43 1 10.0439 10.0441 0.73681 
44 1 8.5123 8.5121 2.25691 
45 1 9.22426 9.22612 1.54892 
22 1 6.1875 6.20802 6.20327 
23 1 7.83326 7.82577 7.78248 
24 1 7.05014 7.07071 7.19419 
34 1 10.1093 10.1058 10.1032 
35 1 8.60755 8.60208 8.59734 
36 1 9.31637 9.31951 9.31409 
49 2 5.95048 6.12938 7.5946 
ITEM: TIMESTEP
30
ITEM: NUMBER OF ATOMS
49
ITEM: BOX BOUNDS pp pp pp
0.0000000000000000e+00 1.1000000000000000e+01
0.0000000000000000e+00 1.1002000000000001e+01
0.0000000000000000e+00 1.1000000000000000e+01
ITEM: ATOMS id type x y z 
10 1 4.58819 4.5791 4.59074 
11 1 3.07894 3.07838 3.07945 
12 1 3.79151 3.79017 3.7927 
46 1 0.732574 0.732383 0.730069 
47 1 2.26292 2.26272 2.26134 
48 1 1.55091 1.55032 1.5518 
19 1 4.51928 4.53828 6.22732 
20 1 3.00391 3.0009 7.77548 
21 1 3.70574 3.7155 7.06088 
31 1 0.670122 0.666559 10.1061 
32 1 2.18337 2.182 8.59344 
33 1 1.46973 1.46772 9.30225 
16 1 4.50477 6.2304 4.54494 
17 1 3.00328 7.77611 3.00111 
18 1 3.69922 7.06308 3.71759 
25 1 0.675233 10.108 0.664813 
26 1 2.17962 8.59456 2.18051 
27 1 1.47473 9.30642 1.4651 
4 1 4.47973 6.14602 6.10629 
5 1 3.08034 7.69345 7.68784 
6 1 3.73266 6.96028 6.93774 
37 1 0.745703 10.0463 10.0451 
38 1 2.26364 8.51304 8.51313 
39 1 1.55778 9.22468 9.22304 
13 1 6.22119 4.5128 4.53615 
14 1 7.77577 3.00516 3.00589 
15 1 7.05288 3.70396 3.71327 
28 1 10.1062 0.672766 0.667429 
29 1 8.59191 2.17918 2.18328 
30 1 9.30769 1.4771 1.46689 
1 1 6.15459 4.50058 6.11874 
2 1 7.69836 3.08026 7.7023 
3 1 6.97303 3.74925 6.95827 
40 1 10.0463 0.74314 10.0465 
41 1 8.5118 2.26036 8.514 
42 1 9.22577 1.55443 9.22545 
7 1 6.18458 6.16991 4.54424 
8 1 7.7102 7.71188 3.06602 
9 1 6.98904 6.98231 3.75248 
43 1 10.0482 10.0484 0.742568 
44 1 8.51753 8.51672 2.25501 
45 1 9.22911 9.23354 1.54966 
22 1 6.14653 6.18381 6.21246 
23 1 7.84547 7.84066 7.7857 
24 1 7.05677 7.07713 7.23387 
34 1 10.1134 10.1149 10.1098 
35 1 8.62334 8.62013 8.59525 
36 1 9.33742 9.3277 9.31549 
49 2 5.98196 6.13356 7.61247 
ITEM: TIMESTEP
40
ITEM: NUMBER OF ATOMS
49
ITEM: BOX BOUNDS pp pp pp
0.0000000000000000e+00 1.1000000000000000e+01
0.0000000000000000e+00 1.1002000000000001e+01
0.0000000000000000e+00 1.1000000000000000e+01
ITEM: ATOMS id type x y z 
10 1 4.58749 4.57946 4.58947 
11 1 3.07821 3.07857 3.07867 
12 1 3.79195 3.78846 3.79318 
46 1 0.733443 0.733421 0.731813 
47 1 2.26288 2.26273 2.26219 
48 1 1.55229 1.55174 1.55156 
19 1 4.51523 4.53486 6.22551 
20 1 3.00351 3.0011 7.77667 
21 1 3.70405 3.71419 7.05951 
31 1 0.670976 0.667105 10.105 
32 1 2.18277 2.18103 8.59298 
33 1 1.47095 1.46869 9.30367 
16 1 4.50316 6.22796 4.54304 
17 1 3.00186 7.77794 3.0007 
18 1 3.69836 7.06053 3.71768 
25 1 0.676944 10.1087 0.6642 
26 1 2.18143 8.59403 2.18037 
27 1 1.47354 9.30668 1.46579 
4 1 4.47713 6.14358 6.10205 
5 1 3.07789 7.6913 7.68526 
6 1 3.72981 6.96231 6.93759 
37 1 0.747309 10.0475 10.0457 
38 1 2.26617 8.51192 8.51163 
39 1 1.55969 9.22444 9.22361 
13 1 6.21781 4.51194 4.5342 
14 1 7.77554 3.00416 3.00513 
15 1 7.05261 3.7031 3.71393 
28 1 10.1073 0.674562 0.667369 
29 1 8.59219 2.18094 2.18332 
30 1 9.3068 1.47624 1.46793 
1 1 6.15432 4.49872 6.11672 
2 1 7.69696 3.08012 7.70012 
3 1 6.97265 3.74626 6.95753 
40 1 10.0472 0.744983 10.0468 
41 1 8.51206 2.26157 8.514 
42 1 9.22527 1.556 9.22621 
7 1 6.18487 6.17012 4.54753 
8 1 7.70874 7.71009 3.06473 
9 1 6.98948 6.98225 3.75504 
43 1 10.0489 10.0502 0.743798 
44 1 8.51801 8.51843 2.25478 
45 1 9.23106 9.23382 1.54985 
22 1 6.14107 6.18187 6.2149 
23 1 7.84853 7.84436 7.78674 
24 1 7.05642 7.0763 7.23531 
34 1 10.1167 10.1163 10.1118 
35 1 8.62802 8.62226 8.59323 
36 1 9.33888 9.33191 9.31686 
49 2 5.98449 6.1312 7.61623 
ITEM: TIMESTEP
50
ITEM: NUMBER OF ATOMS
49
ITEM: BOX BOUNDS pp pp pp
0.0000000000000000e+00 1.1000000000000000e+01
0.0000000000000000e+00 1.1002000000000001e+01
0.0000000000000000e+00 1.1000000000000000e+01
ITEM: ATOMS id type x y z 
10 1 4.5857 4.5775 4.58674 
11 1 3.07738 3.0775 3.07779 
12 1 3.79134 3.78714 3.79242 
46 1 0.735189 0.735328 0.733661 
47 1 2.26361 2.26352 2.26306 
48 1 1.55269 1.55264 1.55166 
19 1 4.51075 4.53047 6.22179 
20 1 3.00241 3.0021 7.77756 
21 1 3.70243 3.71128 7.0556 
31 1 0.671558 0.667709 10.1047 
32 1 2.18335 2.1815 8.59307 
33 1 1.47219 1.4689 9.30426 
16 1 4.50245 6.22436 4.54005 
17 1 3.00049 7.77783 3.00233 
18 1 3.69718 7.0573 3.71563 
25 1 0.678373 10.1096 0.663608 
26 1 2.18277 8.59414 2.18039 
27 1 1.47466 9.3072 1.46663 
4 1 4.47267 6.14037 6.09935 
5 1 3.07185 7.68909 7.68021 
6 1 3.7299 6.96142 6.93648 
37 1 0.751361 10.0489 10.0469 
38 1 2.26837 8.51073 8.5106 
39 1 1.56422 9.22454 9.22351 
13 1 6.21466 4.5123 4.53336 
14 1 7.7735 3.00336 3.00565 
15 1 7.05097 3.70251 3.71397 
28 1 10.1089 0.677776 0.666882 
29 1 8.59289 2.1843 2.18335 
30 1 9.30518 1.47466 1.47072 
1 1 6.1519 4.4954 6.11516 
2 1 7.6946 3.07825 7.69645 
3 1 6.9702 3.74376 6.95354 
40 1 10.0489 0.74849 10.0483 
41 1 8.51142 2.26418 8.51415 
42 1 9.22553 1.55979 9.22662 
7 1 6.18564 6.17097 4.55346 
8 1 7.70555 7.70542 3.06241 
9 1 6.99034 6.98389 3.76337 
43 1 10.0515 10.0536 0.745595 
44 1 8.51788 8.51921 2.25502 
45 1 9.23227 9.23422 1.55178 
22 1 6.13872 6.1831 6.22142 
23 1 7.84888 7.84439 7.78477 
24 1 7.05628 7.0752 7.23382 
34 1 10.1223 10.12 10.1164 
35 1 8.63423 8.62719 8.58949 
36 1 9.34203 9.33711 9.31598 
49 2 5.98589 6.12581 7.62229 
ITEM: TIMESTEP
60
ITEM: NUMBER OF ATOMS
49
ITEM: BOX BOUNDS pp pp pp
0.0000000000000000e+00 1.1000000000000000e+01
0.0000000000000000e+00 1.1002000000000001e+01
0.0000000000000000e+00 1.1000000000000000e+01
ITEM: ATOMS id type x y z 
10 1 4.58232 4.57539 4.57885 
11 1 3.07555 3.07418 3.07481 
12 1 3.78846 3.78412 3.79042 
46 1 0.737908 0.739549 0.73677 
47 1 2.2641 2.26458 2.26343 
48 1 1.55268 1.55273 1.55139 
19 1 4.50236 4.52024 6.21274 
20 1 2.99872 3.00047 7.77741 
21 1 3.6967 3.70698 7.05123 
31 1 0.672695 0.668907 10.1034 
32 1 2.18472 2.18269 8.59517 
33 1 1.4732 1.46862 9.30503 
16 1 4.50192 6.21757 4.53318 
17 1 2.99724 7.77474 3.00345 
18 1 3.69473 7.05282 3.71412 
25 1 0.681188 10.1108 0.663335 
26 1 2.18476 8.59568 2.18142 
27 1 1.47752 9.30857 1.46677 
4 1 4.46391 6.13268 6.09349 
5 1 3.06227 7.68412 7.66996 
6 1 3.72157 6.95524 6.92763 
37 1 0.761635 10.0526 10.0502 
38 1 2.27184 8.5103 8.50932 
39 1 1.5715 9.22559 9.22371 
13 1 6.21257 4.51353 4.53206 
14 1 7.7686 3.00096 3.0064 
15 1 7.04723 3.70224 3.71388 
28 1 10.1094 0.681238 0.667738 
29 1 8.59326 2.18673 2.18519 
30 1 9.30589 1.47817 1.47188 
1 1 6.14281 4.48733 6.1099 
2 1 7.69013 3.07151 7.68796 
3 1 6.96404 3.73648 6.94527 
40 1 10.0529 0.757128 10.052 
41 1 8.51127 2.26982 8.51506 
42 1 9.22681 1.56769 9.22878 
7 1 6.18768 6.17682 4.57247 
8 1 7.70273 7.70004 3.06244 
9 1 6.98966 6.98459 3.77175 
43 1 10.0567 10.0597 0.750308 
44 1 8.51808 8.51923 2.25516 
45 1 9.23302 9.2358 1.55585 
22 1 6.13075 6.1801 6.2334 
23 1 7.85317 7.84879 7.78381 
24 1 7.05856 7.07462 7.24235 
34 1 10.1317 10.1277 10.1246 
35 1 8.64893 8.64116 8.57784 
36 1 9.35186 9.34751 9.31261 
49 2 5.99576 6.118 7.63598 
ITEM: TIMESTEP
70
ITEM: NUMBER OF ATOMS
49
ITEM: BOX BOUNDS pp pp pp
0.0000000000000000e+00 1.1000000000000000e+01
0.0000000000000000e+00 1.1002000000000001e+01
0.0000000000000000e+00 1.1000000000000000e+01
ITEM: ATOMS id type x y z 
10 1 4.58548 4.57635 4.56814 
11 1 3.07678 3.06964 3.07233 
12 1 3.7837 3.78742 3.7863 
46 1 0.736964 0.740536 0.737755 
47 1 2.26284 2.26369 2.26213 
48 1 1.55135 1.55091 1.55111 
19 1 4.49438 4.51404 6.2071 
20 1 2.99367 2.99876 7.77701 
21 1 3.69258 3.69971 7.04488 
31 1 0.672877 0.666841 10.1023 
32 1 2.18603 2.18191 8.59874 
33 1 1.46952 1.47 9.30621 
16 1 4.50188 6.21539 4.52965 
17 1 2.99381 7.77158 3.00392 
18 1 3.69427 7.04918 3.71036 
25 1 0.68298 10.1096 0.66329 
26 1 2.18597 8.59729 2.18213 
27 1 1.47782 9.30973 1.46777 
4 1 4.45782 6.123 6.08842 
5 1 3.05146 7.67887 7.66025 
6 1 3.71268 6.94928 6.92017 
37 1 0.768447 10.0547 10.0534 
38 1 2.27294 8.51097 8.50717 
39 1 1.57516 9.22748 9.22353 
13 1 6.21436 4.5169 4.53191 
14 1 7.76414 2.99941 3.00539 
15 1 7.04665 3.7024 3.71533 
28 1 10.1078 0.683988 0.669087 
29 1 8.59304 2.18872 2.18682 
30 1 9.30467 1.47958 1.47303 
1 1 6.13374 4.4799 6.10688 
2 1 7.68618 3.06347 7.67996 
3 1 6.95707 3.72709 6.94008 
40 1 10.0548 0.763766 10.0548 
41 1 8.51255 2.2742 8.51511 
42 1 9.2285 1.57174 9.2306 
7 1 6.19147 6.18459 4.59032 
8 1 7.70389 7.6982 3.06428 
9 1 6.99011 6.98962 3.78047 
43 1 10.057 10.0612 0.753746 
44 1 8.51814 8.51918 2.25595 
45 1 9.23169 9.23363 1.55758 
22 1 6.12522 6.17457 6.24337 
23 1 7.86105 7.85837 7.78388 
24 1 7.06388 7.07621 7.25879 
34 1 10.137 10.1335 10.13 
35 1 8.66573 8.65607 8.56749 
36 1 9.36561 9.36089 9.30704 
49 2 6.00732 6.1118 7.64608 
ITEM: TIMESTEP
80
ITEM: NUMBER OF ATOMS
49
ITEM: BOX BOUNDS pp pp pp
0.0000000000000000e+00 1.1000000000000000e+01
0.0000000000000000e+00 1.1002000000000001e+01
0.0000000000000000e+00 1.1000000000000000e+01
ITEM: ATOMS id type x y z 
10 1 4.58518 4.57806 4.56476 
11 1 3.07479 3.06991 3.07242 
12 1 3.78667 3.78627 3.78289 
46 1 0.736502 0.740077 0.738998 
47 1 2.26317 2.26255 2.26197 
48 1 1.55035 1.55145 1.55076 
19 1 4.49218 4.51049 6.20411 
20 1 2.99279 2.99659 7.77583 
21 1 3.68987 3.69985 7.04423 
31 1 0.671895 0.667828 10.1018 
32 1 2.18478 2.18298 8.59913 
33 1 1.47154 1.46883 9.30733 
16 1 4.50341 6.21418 4.52713 
17 1 2.99265 7.77089 3.00247 
18 1 3.69324 7.04874 3.7106 
25 1 0.682098 10.1098 0.664288 
26 1 2.18629 8.59757 2.1829 
27 1 1.47825 9.3095 1.46796 
4 1 4.45669 6.12039 6.08834 
5 1 3.04832 7.67745 7.65672 
6 1 3.70889 6.94596 6.91778 
37 1 0.771312 10.0551 10.0539 
38 1 2.27321 8.51094 8.50523 
39 1 1.57723 9.22665 9.22333 
13 1 6.21499 4.51848 4.53221 
14 1 7.7633 2.99894 3.00618 
15 1 7.04522 3.70333 3.71449 
28 1 10.107 0.683282 0.670201 
29 1 8.59214 2.1888 2.18728 
30 1 9.30504 1.48092 1.47348 
1 1 6.1305 4.47757 6.10584 
2 1 7.68475 3.05969 7.6771 
3 1 6.95508 3.72519 6.93925 
40 1 10.0547 0.766266 10.0559 
41 1 8.51293 2.27476 8.51502 
42 1 9.22822 1.57481 9.23001 
7 1 6.19192 6.18829 4.59756 
8 1 7.70169 7.69786 3.06626 
9 1 6.99246 6.98902 3.78534 
43 1 10.0571 10.0616 0.754189 
44 1 8.5175 8.5178 2.25604 
45 1 9.23299 9.23522 1.55794 
22 1 6.1251 6.17352 6.24689 
23 1 7.86354 7.86052 7.78332 
24 1 7.06507 7.07646 7.26327 
34 1 10.1394 10.1368 10.1319 
35 1 8.67155 8.66244 8.56144 
36 1 9.36861 9.36273 9.30722 
49 2 6.01089 6.10953 7.64881 
ITEM: TIMESTEP
90
ITEM: NUMBER OF ATOMS
49
ITEM: BOX BOUNDS pp pp pp
0.0000000000000000e+00 1.1000000000000000e+01
0.0000000000000000e+00 1.1002000000000001e+01
0.0000000000000000e+00 1.1000000000000000e+01
ITEM: ATOMS id type x y z 
10 1 4.58498 4.57921 4.56311 
11 1 3.07356 3.07042 3.07305 
12 1 3.78988 3.78598 3.77986 
46 1 0.736063 0.739871 0.739804 
47 1 2.2634 2.26229 2.26211 
48 1 1.54998 1.55158 1.55107 
19 1 4.49134 4.50971 6.20294 
20 1 2.99223 2.99614 7.77507 
21 1 3.6894 3.69981 7.04392 
31 1 0.671611 0.667662 10.1019 
32 1 2.18443 2.18307 8.59916 
33 1 1.47184 1.46851 9.30757 
16 1 4.50344 6.21386 4.527 
17 1 2.99257 7.77051 3.0028 
18 1 3.69374 7.04811 3.70995 
25 1 0.681965 10.1097 0.664311 
26 1 2.18619 8.5975 2.18302 
27 1 1.47796 9.30931 1.46819 
4 1 4.45592 6.11905 6.08846 
5 1 3.04667 7.67673 7.65517 
6 1 3.70846 6.94483 6.91768 
37 1 0.7724 10.0554 10.0544 
38 1 2.27283 8.51064 8.50421 
39 1 1.57754 9.22648 9.22281 
13 1 6.21453 4.5187 4.53254 
14 1 7.76276 2.99946 3.00671 
15 1 7.04473 3.70403 3.71469 
28 1 10.107 0.683189 0.670496 
29 1 8.59165 2.18909 2.18759 
30 1 9.30429 1.48087 1.47395 
1 1 6.12957 4.47664 6.1057 
2 1 7.68388 3.05863 7.67607 
3 1 6.95405 3.72444 6.93861 
40 1 10.0548 0.767367 10.0566 
41 1 8.51288 2.2746 8.51446 
42 1 9.22829 1.57532 9.22993 
7 1 6.19299 6.18973 4.60073 
8 1 7.70181 7.6982 3.06745 
9 1 6.99303 6.98967 3.78745 
43 1 10.0569 10.0618 0.754414 
44 1 8.51719 8.51728 2.25615 
45 1 9.23282 9.23499 1.55831 
22 1 6.12633 6.17379 6.24836 
23 1 7.86448 7.86085 7.78251 
24 1 7.06532 7.07651 7.2641 
34 1 10.1406 10.1379 10.1324 
35 1 8.67322 8.66447 8.55898 
36 1 9.36986 9.36391 9.30592 
49 2 6.01163 6.10833 7.65038 
ITEM: TIMESTEP
100
ITEM: NUMBER OF ATOMS
49
ITEM: BOX BOUNDS pp pp pp
0.0000000000000000e+00 1.1000000000000000e+01
0.0000000000000000e+00 1.1002000000000001e+01
0.0000000000000000e+00 1.1000000000000000e+01
ITEM: ATOMS id type x y z 
10 1 4.5859 4.58055 4.55986 
11 1 3.07357 3.07052 3.07248 
12 1 3.79132 3.7863 3.77764 
46 1 0.735356 0.739817 0.740755 
47 1 2.26327 2.26231 2.26234 
48 1 1.54957 1.55094 1.55157 
19 1 4.49066 4.50924 6.20216 
20 1 2.99155 2.99579 7.77457 
21 1 3.68846 3.69911 7.04265 
31 1 0.671608 0.667147 10.1019 
32 1 2.18425 2.18267 8.59903 
33 1 1.47152 1.46898 9.30819 
16 1 4.50369 6.21348 4.52672 
17 1 2.99247 7.76997 3.0026 
18 1 3.69401 7.04775 3.70976 
25 1 0.681139 10.1095 0.664773 
26 1 2.18564 8.59714 2.18357 
27 1 1.47848 9.30926 1.46804 
4 1 4.45473 6.11703 6.08859 
5 1 3.04465 7.67576 7.65312 
6 1 3.7076 6.94296 6.91745 
37 1 0.773612 10.0557 10.0549 
38 1 2.27203 8.51035 8.50276 
39 1 1.57782 9.2264 9.22232 
13 1 6.21429 4.51905 4.53305 
14 1 7.76222 3.00005 3.0071 
15 1 7.0443 3.70454 3.71486 
28 1 10.1063 0.682942 0.671112 
29 1 8.59077 2.18919 2.18779 
30 1 9.30402 1.48099 1.47477 
1 1 6.12796 4.47553 6.10558 
2 1 7.68308 3.05723 7.6747 
3 1 6.95228 3.72287 6.93806 
40 1 10.0552 0.768528 10.0573 
41 1 8.51282 2.27433 8.51352 
42 1 9.22819 1.57602 9.22999 
7 1 6.19435 6.19181 4.60466 
8 1 7.70201 7.69858 3.06875 
9 1 6.99414 6.99105 3.79088 
43 1 10.0567 10.0618 0.754438 
44 1 8.51729 8.51696 2.25608 
45 1 9.23242 9.2348 1.55862 
22 1 6.12751 6.17369 6.25017 
23 1 7.86577 7.8617 7.78153 
24 1 7.06598 7.07671 7.26604 
34 1 10.1418 10.1389 10.1328 
35 1 8.6758 8.66728 8.55572 
36 1 9.37167 9.3657 9.30439 
49 2 6.01317 6.10709 7.65237 
ITEM: TIMESTEP
110
ITEM: NUMBER OF ATOMS
49
ITEM: BOX BOUNDS pp pp pp
0.0000000000000000e+00 1.1000000000000000e+01
0.0000000000000000e+00 1.1002000000000001e+01
0.0000000000000000e+00 1.1000000000000000e+01
ITEM: ATOMS id type x y z 
10 1 4.59255 4.58876 4.54127 
11 1 3.0756 3.06998 3.06813 
12 1 3.7951 3.79028 3.76678 
46 1 0.731866 0.738699 0.74612 
47 1 2.26229 2.26083 2.26321 
48 1 1.54717 1.54924 1.55415 
19 1 4.48692 4.50621 6.19801 
20 1 2.98697 2.99305 7.77024 
21 1 3.68445 3.69645 7.03925 
31 1 0.670872 0.665968 10.1035 
32 1 2.18299 2.18198 8.59991 
33 1 1.46997 1.46822 9.30851 
16 1 4.50594 6.21189 4.52601 
17 1 2.99268 7.76687 3.00203 
18 1 3.69478 7.04548 3.70903 
25 1 0.679378 10.1085 0.666115 
26 1 2.18478 8.59582 2.18493 
27 1 1.47711 9.30772 1.46984 
4 1 4.44982 6.10529 6.08968 
5 1 3.03516 7.67004 7.64474 
6 1 3.69933 6.93426 6.91279 
37 1 0.779641 10.0574 10.0576 
38 1 2.26725 8.5092 8.49545 
39 1 1.57855 9.22616 9.21891 
13 1 6.21343 4.52112 4.53481 
14 1 7.76008 3.00236 3.00774 
15 1 7.0428 3.70665 3.71652 
28 1 10.1033 0.682261 0.674345 
29 1 8.58712 2.18974 2.18959 
30 1 9.30089 1.48131 1.47738 
1 1 6.11777 4.46941 6.10651 
2 1 7.67775 3.04899 7.66823 
3 1 6.94479 3.71479 6.93391 
40 1 10.0569 0.774676 10.0617 
41 1 8.51276 2.27255 8.5098 
42 1 9.22855 1.57814 9.22933 
7 1 6.20139 6.20395 4.62763 
8 1 7.70388 7.70094 3.07724 
9 1 6.99933 6.9987 3.80772 
43 1 10.0551 10.0617 0.754398 
44 1 8.51686 8.51511 2.25691 
45 1 9.23135 9.23346 1.55903 
22 1 6.13241 6.17239 6.25931 
23 1 7.87386 7.86785 7.7773 
24 1 7.06946 7.07742 7.27691 
34 1 10.1482 10.145 10.1336 
35 1 8.68988 8.68213 8.53865 
36 1 9.38157 9.37585 9.29519 
49 2 6.02235 6.10118 7.66217 
ITEM: TIMESTEP
114
ITEM: NUMBER OF ATOMS
49
ITEM: BOX BOUNDS pp pp pp
0.0000000000000000e+00 1.1000000000000000e+01
0.0000000000000000e+00 1.1002000000000001e+01
0.0000000000000000e+00 1.1000000000000000e+01
ITEM: ATOMS id type x y z 
10 1 4.5927 4.58896 4.54093 
11 1 3.07566 3.06999 3.06796 
12 1 3.79514 3.79037 3.76667 
46 1 0.731939 0.738469 0.74614 
47 1 2.2623 2.26053 2.26306 
48 1 1.54688 1.54948 1.55433 
19 1 4.48709 4.50605 6.19821 
20 1 2.98708 2.99291 7.77013 
21 1 3.68413 3.69665 7.03932 
31 1 0.670756 0.666211 10.1036 
32 1 2.18267 2.18222 8.59989 
33 1 1.4704 1.46767 9.30853 
16 1 4.50624 6.21201 4.52588 
17 1 2.99277 7.76695 3.00187 
18 1 3.69447 7.04542 3.70919 
25 1 0.679648 10.1085 0.665966 
26 1 2.18502 8.59588 2.1847 
27 1 1.47654 9.30758 1.47024 
4 1 4.44971 6.10493 6.08971 
5 1 3.03483 7.6699 7.64476 
6 1 3.69953 6.93439 6.91281 
37 1 0.77962 10.0574 10.0576 
38 1 2.26707 8.50922 8.49543 
39 1 1.5785 9.22624 9.21885 
13 1 6.21358 4.52115 4.53497 
14 1 7.76025 3.00219 3.00782 
15 1 7.04266 3.70678 3.71617 
28 1 10.1036 0.682398 0.674565 
29 1 8.58738 2.18989 2.1897 
30 1 9.30035 1.48099 1.47718 
1 1 6.11742 4.4692 6.10651 
2 1 7.67753 3.04863 7.6681 
3 1 6.94497 3.71507 6.93402 
40 1 10.0567 0.774597 10.0616 
41 1 8.51249 2.27238 8.50976 
42 1 9.22896 1.57838 9.22921 
7 1 6.20157 6.20415 4.6283 
8 1 7.70398 7.70098 3.07768 
9 1 6.9992 6.99874 3.80772 
43 1 10.0552 10.0616 0.754382 
44 1 8.51685 8.51499 2.2571 
45 1 9.23131 9.23362 1.55878 
22 1 6.13228 6.17226 6.25923 
23 1 7.874 7.8681 7.77732 
24 1 7.06957 7.07742 7.27708 
34 1 10.1482 10.1449 10.1335 
35 1 8.6901 8.68222 8.53851 
36 1 9.3817 9.37611 9.29497 
49 2 6.02247 6.10125 7.66208 
ITEM: TIMESTEP
116
ITEM: NUMBER OF ATOMS
49
ITEM: BOX BOUNDS pp pp pp
0.0000000000000000e+00 1.1000000000000000e+01
0.0000000000000000e+00 1.1002000000000001e+01
0.0000000000000000e+00 1.1000000000000000e+01
ITEM: ATOMS id type x y z 
10 1 4.5927 4.58898 4.54092 
11 1 3.07565 3.06997 3.068 
12 1 3.79518 3.79043 3.76654 
46 1 0.731909 0.73848 0.746162 
47 1 2.26229 2.26057 2.26309 
48 1 1.54692 1.54942 1.55431 
19 1 4.48707 4.50606 6.19823 
20 1 2.98704 2.99291 7.77013 
21 1 3.68416 3.69661 7.03933 
31 1 0.67079 0.666183 10.1036 
32 1 2.1827 2.18218 8.5999 
33 1 1.47031 1.46773 9.30851 
16 1 4.50623 6.21201 4.52589 
17 1 2.99274 7.76694 3.00189 
18 1 3.69453 7.04543 3.70917 
25 1 0.679595 10.1085 0.666004 
26 1 2.18497 8.59586 2.18473 
27 1 1.47661 9.30759 1.47018 
4 1 4.44969 6.10493 6.0897 
5 1 3.03483 7.66987 7.64472 
6 1 3.69949 6.93439 6.91285 
37 1 0.779627 10.0574 10.0576 
38 1 2.26707 8.50922 8.49542 
39 1 1.57846 9.22623 9.21884 
13 1 6.21357 4.52115 4.53495 
14 1 7.76023 3.00219 3.0078 
15 1 7.04271 3.70677 3.7162 
28 1 10.1035 0.682366 0.674535 
29 1 8.58733 2.18987 2.18967 
30 1 9.30044 1.48102 1.47725 
1 1 6.1174 4.46917 6.1065 
2 1 7.67752 3.04859 7.66808 
3 1 6.94497 3.7151 6.93404 
40 1 10.0567 0.774611 10.0616 
41 1 8.51252 2.27237 8.50976 
42 1 9.22894 1.57834 9.22921 
7 1 6.2016 6.20419 4.62836 
8 1 7.70401 7.701 3.07772 
9 1 6.9992 6.99875 3.80771 
43 1 10.0551 10.0616 0.754359 
44 1 8.51685 8.51504 2.25706 
45 1 9.23135 9.23356 1.5588 
22 1 6.13227 6.17225 6.25923 
23 1 7.874 7.86812 7.77732 
24 1 7.06959 7.07743 7.27711 
34 1 10.1482 10.145 10.1334 
35 1 8.69011 8.68229 8.53846 
36 1 9.38174 9.37604 9.29501 
49 2 6.0225 6.10126 7.66208 
ITEM: TIMESTEP
120
ITEM: NUMBER OF ATOMS
49
ITEM: BOX BOUNDS pp pp pp
-2.1999999999999997e-03 1.1002200000000002e+01
-2.1546037303187744e-03 1.1004154603730321e+01
-1.7824979070731001e-03 1.1001782497907074e+01
ITEM: ATOMS id type x y z 
10 1 4.59235 4.58864 4.54061 
11 1 3.07469 3.06903 3.06721 
12 1 3.79449 3.78975 3.76599 
46 1 0.729988 0.736605 0.744613 
47 1 2.26099 2.2593 2.26204 
48 1 1.54534 1.54786 1.55302 
19 1 4.48667 4.50568 6.19845 
20 1 2.98603 2.99193 7.77087 
21 1 3.68345 3.69591 7.03982 
31 1 0.66885 0.664274 10.1051 
32 1 2.18138 2.18087 8.60091 
33 1 1.4687 1.46616 9.30974 
16 1 4.50584 6.21228 4.52559 
17 1 2.99174 7.76782 3.00108 
18 1 3.69382 7.04603 3.7086 
25 1 0.677651 10.1103 0.664429 
26 1 2.18364 8.59708 2.18366 
27 1 1.47501 9.30908 1.46887 
4 1 4.44927 6.10515 6.08987 
5 1 3.03385 7.67071 7.64541 
6 1 3.69877 6.93496 6.91331 
37 1 0.77773 10.0592 10.0591 
38 1 2.26577 8.51041 8.49639 
39 1 1.57688 9.2277 9.22006 
13 1 6.21385 4.52077 4.53465 
14 1 7.76112 3.00121 3.007 
15 1 7.04332 3.70608 3.71563 
28 1 10.1054 0.680467 0.672961 
29 1 8.58857 2.18858 2.1886 
30 1 9.30195 1.47944 1.47594 
1 1 6.11764 4.46876 6.10669 
2 1 7.67838 3.04763 7.66878 
3 1 6.94555 3.7144 6.93451 
40 1 10.0586 0.772752 10.0631 
41 1 8.51373 2.27111 8.51074 
42 1 9.23043 1.5768 9.23043 
7 1 6.20187 6.20446 4.62809 
8 1 7.70489 7.70186 3.07694 
9 1 6.9998 6.99933 3.80716 
43 1 10.057 10.0634 0.752809 
44 1 8.51806 8.51623 2.25601 
45 1 9.23285 9.23503 1.55752 
22 1 6.13252 6.17251 6.25947 
23 1 7.87494 7.86904 7.77805 
24 1 7.07022 7.07805 7.2777 
34 1 10.1501 10.1468 10.135 
35 1 8.6914 8.68353 8.53945 
36 1 9.38329 9.37757 9.29623 
49 2 6.02271 6.1015 7.66277 
ITEM: TIMESTEP
130
ITEM: NUMBER OF ATOMS
49
ITEM: BOX BOUNDS pp pp pp
-6.0391833494817179e-03 1.1006039183349488e+01
-5.0460835344193714e-03 1.1007046083534417e+01
1.3620052301725506e-03 1.0998637994769826e+01
ITEM: ATOMS id type x y z 
10 1 4.59209 4.58855 4.54142 
11 1 3.07315 3.06789 3.0687 
12 1 3.79318 3.78874 3.76683 
46 1 0.726288 0.733798 0.747061 
47 1 2.25853 2.25747 2.26376 
48 1 1.54247 1.54554 1.55507 
19 1 4.48619 4.50547 6.19785 
20 1 2.98436 2.99077 7.76941 
21 1 3.68244 3.69511 7.03873 
31 1 0.66514 0.661357 10.1028 
32 1 2.17895 2.17898 8.59927 
33 1 1.46594 1.46417 9.30743 
16 1 4.50538 6.21238 4.52647 
17 1 2.99009 7.76884 3.00267 
18 1 3.69276 7.04674 3.70971 
25 1 0.673906 10.1131 0.666845 
26 1 2.18119 8.59883 2.18545 
27 1 1.47232 9.31095 1.47125 
4 1 4.44859 6.10503 6.08911 
5 1 3.0322 7.67173 7.64405 
6 1 3.69737 6.9358 6.91265 
37 1 0.774158 10.062 10.0568 
38 1 2.26336 8.51215 8.49482 
39 1 1.5739 9.22984 9.21813 
13 1 6.21407 4.52051 4.53549 
14 1 7.76254 3.00003 3.00855 
15 1 7.04431 3.70528 3.7168 
28 1 10.1089 0.67757 0.675372 
29 1 8.59088 2.18673 2.19039 
30 1 9.30441 1.4774 1.47831 
1 1 6.11766 4.46825 6.1059 
2 1 7.67977 3.04638 7.66739 
3 1 6.94666 3.71339 6.93383 
40 1 10.0621 0.770001 10.0608 
41 1 8.51601 2.26926 8.50917 
42 1 9.23319 1.57449 9.2285 
7 1 6.20206 6.20453 4.62875 
8 1 7.70635 7.70293 3.07851 
9 1 7.00076 7.00006 3.8082 
43 1 10.0604 10.0661 0.755185 
44 1 8.52031 8.51801 2.25767 
45 1 9.23571 9.23714 1.55962 
22 1 6.13286 6.17275 6.2588 
23 1 7.87625 7.86995 7.77651 
24 1 7.07155 7.07909 7.27695 
34 1 10.1537 10.1496 10.1327 
35 1 8.69377 8.68534 8.53778 
36 1 9.38595 9.37956 9.29396 
49 2 6.02324 6.10194 7.66143 
ITEM: TIMESTEP
140
ITEM: NUMBER OF ATOMS
49
ITEM: BOX BOUNDS pp pp pp
-9.8062980591798153e-03 1.1009806298059191e+01
-8.1400229794280719e-03 1.1010140022979424e+01
4.4836180433191408e-03 1.0995516381956678e+01
ITEM: ATOMS id type x y z 
10 1 4.59185 4.58843 4.54228 
11 1 3.07165 3.06669 3.07018 
12 1 3.7919 3.78767 3.76765 
46 1 0.722622 0.730768 0.749457 
47 1 2.25602 2.2554 2.26536 
48 1 1.53968 1.54315 1.55719 
19 1 4.48575 4.50527 6.19723 
20 1 2.98283 2.98963 7.76784 
21 1 3.68142 3.69418 7.03772 
31 1 0.661456 0.658268 10.1005 
32 1 2.17651 2.17696 8.59764 
33 1 1.4633 1.46203 9.30516 
16 1 4.50497 6.21249 4.52735 
17 1 2.98855 7.76986 3.00434 
18 1 3.69165 7.04761 3.71071 
25 1 0.670203 10.116 0.669216 
26 1 2.17877 8.6007 2.18718 
27 1 1.46967 9.31297 1.47367 
4 1 4.44792 6.10485 6.08834 
5 1 3.03056 7.67288 7.64273 
6 1 3.69603 6.93663 6.912 
37 1 0.770628 10.0649 10.0545 
38 1 2.26088 8.51412 8.49336 
39 1 1.57104 9.23202 9.21612 
13 1 6.21428 4.52027 4.53635 
14 1 7.76385 2.99886 3.01019 
15 1 7.04532 3.70431 3.71786 
28 1 10.1125 0.674455 0.677729 
29 1 8.59314 2.18473 2.19213 
30 1 9.30687 1.47524 1.48072 
1 1 6.11763 4.46767 6.10509 
2 1 7.68113 3.04506 7.666 
3 1 6.94774 3.71228 6.9332 
40 1 10.0655 0.767058 10.0586 
41 1 8.51836 2.26719 8.50771 
42 1 9.23582 1.57211 9.2265 
7 1 6.20223 6.2046 4.62941 
8 1 7.70773 7.70404 3.08014 
9 1 7.00173 7.00085 3.80921 
43 1 10.0639 10.069 0.757502 
44 1 8.52265 8.51998 2.25922 
45 1 9.23842 9.23939 1.56179 
22 1 6.13319 6.173 6.25799 
23 1 7.87753 7.87097 7.775 
24 1 7.07285 7.08019 7.27626 
34 1 10.1572 10.1526 10.1304 
35 1 8.69611 8.68728 8.53615 
36 1 9.38857 9.38169 9.29167 
49 2 6.02377 6.10245 7.66017 
ITEM: TIMESTEP
150
ITEM: NUMBER OF ATOMS
49
ITEM: BOX BOUNDS pp pp pp
-1.3599719938809089e-02 1.1013599719938821e+01
-1.1076172592182396e-02 1.1013076172592177e+01
7.5595559668093833e-03 1.0992440444033187e+01
ITEM: ATOMS id type x y z 
10 1 4.5916 4.58831 4.54313 
11 1 3.07013 3.06554 3.07165 
12 1 3.79062 3.78666 3.76845 
46 1 0.718951 0.727839 0.751796 
47 1 2.25348 2.25334 2.26686 
48 1 1.53685 1.54095 1.55934 
19 1 4.48535 4.50508 6.19661 
20 1 2.98136 2.98858 7.76622 
21 1 3.6803 3.69334 7.03678 
31 1 0.657774 0.655333 10.0983 
32 1 2.17407 2.17503 8.59604 
33 1 1.46062 1.46 9.30289 
16 1 4.50458 6.21259 4.5282 
17 1 2.98703 7.77078 3.00603 
18 1 3.69048 7.04849 3.71164 
25 1 0.666479 10.1188 0.671562 
26 1 2.17633 8.60249 2.18889 
27 1 1.467 9.31487 1.47605 
4 1 4.44723 6.10462 6.0876 
5 1 3.02895 7.67395 7.6414 
6 1 3.69462 6.93741 6.91139 
37 1 0.767062 10.0677 10.0523 
38 1 2.25833 8.51603 8.49197 
39 1 1.56822 9.23408 9.21409 
13 1 6.21449 4.52008 4.5372 
14 1 7.76513 2.99778 3.01184 
15 1 7.0464 3.70336 3.71886 
28 1 10.116 0.671461 0.680064 
29 1 8.59541 2.1828 2.19384 
30 1 9.30936 1.47322 1.48309 
1 1 6.11759 4.46712 6.10429 
2 1 7.68252 3.04382 7.66461 
3 1 6.94877 3.71119 6.93259 
40 1 10.0691 0.764245 10.0564 
41 1 8.52078 2.26517 8.50631 
42 1 9.2384 1.56988 9.22449 
7 1 6.20242 6.20465 4.63006 
8 1 7.70908 7.70505 3.08181 
9 1 7.00272 7.00162 3.81019 
43 1 10.0674 10.0718 0.759795 
44 1 8.52507 8.52193 2.26072 
45 1 9.24108 9.24145 1.56392 
22 1 6.13354 6.17323 6.25711 
23 1 7.87885 7.87195 7.77353 