LAMMPS (3 Mar 2020)
Reading data file ...
  orthogonal box = (0 0 0) to (11 11.002 11)
  2 by 2 by 2 MPI processor grid
  reading atoms ...
  49 atoms
  read_data CPU = 0.0329442 secs
WARNING: Using 'neigh_modify every 1 delay 0 check yes' setting during minimization (../min.cpp:190)
WARNING: Total cutoff < 2*bond cutoff. May need to use an increased neighbor list skin. (../pair_reaxc.cpp:413)
Neighbor list info ...
  update every 1 steps, delay 0 steps, check yes
  max neighbors/atom: 2000, page size: 100000
  master list distance cutoff = 9.5
  ghost atom cutoff = 9.5
  binsize = 4.75, bins = 3 3 3
  2 neighbor lists, perpetual/occasional/extra = 2 0 0
  (1) pair reax/c, perpetual
      attributes: half, newton off, ghost
      pair build: half/bin/newtoff/ghost
      stencil: half/ghost/bin/3d/newtoff
      bin: standard
  (2) fix qeq/reax, perpetual, copy from (1)
      attributes: half, newton off, ghost
      pair build: copy
      stencil: none
      bin: none
Setting up cg style minimization ...
  Unit style    : real
  Current step  : 0
Per MPI rank memory allocation (min/avg/max) = 18.75 | 18.81 | 18.91 Mbytes
Step Temp E_pair E_mol TotEng Press 
       0            0   -8612.2986            0   -8612.2986    48926.886 
     114            0   -8746.2406            0   -8746.2406    38426.908 
Loop time of 2.38051 on 8 procs for 114 steps with 49 atoms

99.4% CPU use with 8 MPI tasks x no OpenMP threads

Minimization stats:
  Stopping criterion = linesearch alpha is zero
  Energy initial, next-to-last, final = 
        -8612.29857628      -8746.2406135      -8746.2406135
  Force two-norm initial, final = 1731.59 39.5158
  Force max component initial, final = 1168.72 11.9304
  Final line search alpha, max atom move = 6.29401e-12 7.50904e-11
  Iterations, force evaluations = 114 935

MPI task timing breakdown:
Section |  min time  |  avg time  |  max time  |%varavg| %total
---------------------------------------------------------------
Pair    | 1.8865     | 1.902      | 1.9196     |   0.9 | 79.90
Neigh   | 0          | 0          | 0          |   0.0 |  0.00
Comm    | 0.020072   | 0.03775    | 0.053144   |   6.1 |  1.59
Output  | 0.00023743 | 0.00029547 | 0.00043187 |   0.0 |  0.01
Modify  | 0.4352     | 0.43541    | 0.43556    |   0.0 | 18.29
Other   |            | 0.005077   |            |       |  0.21

Nlocal:    6.125 ave 7 max 6 min
Histogram: 7 0 0 0 0 0 0 0 0 1
Nghost:    598.125 ave 603 max 595 min
Histogram: 3 0 0 0 0 3 1 0 0 1
Neighs:    770.5 ave 869 max 755 min
Histogram: 7 0 0 0 0 0 0 0 0 1

Total # of neighbors = 6164
Ave neighs/atom = 125.796
Neighbor list builds = 0
Dangerous builds = 0
WARNING: Using 'neigh_modify every 1 delay 0 check yes' setting during minimization (../min.cpp:190)
WARNING: Total cutoff < 2*bond cutoff. May need to use an increased neighbor list skin. (../pair_reaxc.cpp:413)
Setting up cg style minimization ...
  Unit style    : real
  Current step  : 114
Per MPI rank memory allocation (min/avg/max) = 18.75 | 18.81 | 18.91 Mbytes
Step Temp E_pair E_mol TotEng Press 
     114            0   -8746.2406            0   -8746.2406    38426.908 
     116            0   -8746.2512            0   -8746.2512    38439.876 
Loop time of 0.167828 on 8 procs for 2 steps with 49 atoms

99.5% CPU use with 8 MPI tasks x no OpenMP threads

Minimization stats:
  Stopping criterion = linesearch alpha is zero
  Energy initial, next-to-last, final = 
         -8746.2406135     -8746.25120243     -8746.25120243
  Force two-norm initial, final = 39.5158 39.5327
  Force max component initial, final = 11.9304 12.9687
  Final line search alpha, max atom move = 6.35239e-12 8.23823e-11
  Iterations, force evaluations = 2 69

MPI task timing breakdown:
Section |  min time  |  avg time  |  max time  |%varavg| %total
---------------------------------------------------------------
Pair    | 0.14025    | 0.14114    | 0.14236    |   0.2 | 84.10
Neigh   | 0          | 0          | 0          |   0.0 |  0.00
Comm    | 0.001332   | 0.0025453  | 0.0034087  |   1.5 |  1.52
Output  | 0          | 0          | 0          |   0.0 |  0.00
Modify  | 0.023761   | 0.023775   | 0.023787   |   0.0 | 14.17
Other   |            | 0.0003679  |            |       |  0.22

Nlocal:    6.125 ave 7 max 6 min
Histogram: 7 0 0 0 0 0 0 0 0 1
Nghost:    598.125 ave 603 max 595 min
Histogram: 3 0 0 0 0 3 1 0 0 1
Neighs:    786 ave 886 max 769 min
Histogram: 7 0 0 0 0 0 0 0 0 1

Total # of neighbors = 6288
Ave neighs/atom = 128.327
Neighbor list builds = 0
Dangerous builds = 0
WARNING: Using 'neigh_modify every 1 delay 0 check yes' setting during minimization (../min.cpp:190)
WARNING: Total cutoff < 2*bond cutoff. May need to use an increased neighbor list skin. (../pair_reaxc.cpp:413)
Setting up cg style minimization ...
  Unit style    : real
  Current step  : 116
WARNING: Energy due to 3 extra global DOFs will be included in minimizer energies
Per MPI rank memory allocation (min/avg/max) = 18.75 | 18.81 | 18.91 Mbytes
Step Temp E_pair E_mol TotEng Press Volume 
     116            0   -8746.2512            0   -8746.2512    38439.876     1331.242 
     418            0   -8752.3922            0   -8752.3922    1346.0179    1347.5128 
Loop time of 0.964704 on 8 procs for 302 steps with 49 atoms

99.5% CPU use with 8 MPI tasks x no OpenMP threads

Minimization stats:
  Stopping criterion = energy tolerance
  Energy initial, next-to-last, final = 
        -8746.25120243     -8752.39218637     -8752.39220046
  Force two-norm initial, final = 1294.26 61.6013
  Force max component initial, final = 769.447 30.8264
  Final line search alpha, max atom move = 4.31559e-06 0.000133034
  Iterations, force evaluations = 302 410

MPI task timing breakdown:
Section |  min time  |  avg time  |  max time  |%varavg| %total
---------------------------------------------------------------
Pair    | 0.8197     | 0.82479    | 0.83156    |   0.5 | 85.50
Neigh   | 0          | 0          | 0          |   0.0 |  0.00
Comm    | 0.0096756  | 0.016433   | 0.021406   |   3.2 |  1.70
Output  | 0.00053757 | 0.00067294 | 0.00097776 |   0.0 |  0.07
Modify  | 0.11527    | 0.11533    | 0.11537    |   0.0 | 11.96
Other   |            | 0.007473   |            |       |  0.77

Nlocal:    6.125 ave 7 max 6 min
Histogram: 7 0 0 0 0 0 0 0 0 1
Nghost:    598.125 ave 603 max 595 min
Histogram: 3 0 0 0 0 3 1 0 0 1
Neighs:    786 ave 886 max 769 min
Histogram: 7 0 0 0 0 0 0 0 0 1

Total # of neighbors = 6288
Ave neighs/atom = 128.327
Neighbor list builds = 0
Dangerous builds = 0
WARNING: Using 'neigh_modify every 1 delay 0 check yes' setting during minimization (../min.cpp:190)
WARNING: Total cutoff < 2*bond cutoff. May need to use an increased neighbor list skin. (../pair_reaxc.cpp:413)
Setting up cg style minimization ...
  Unit style    : real
  Current step  : 418
Per MPI rank memory allocation (min/avg/max) = 18.75 | 18.81 | 18.91 Mbytes
Step Temp E_pair E_mol TotEng Press 
     418            0   -8752.3922            0   -8752.3922    1346.0179 
     480            0    -8761.794            0    -8761.794    17867.663 
Loop time of 1.08623 on 8 procs for 62 steps with 49 atoms

99.4% CPU use with 8 MPI tasks x no OpenMP threads

Minimization stats:
  Stopping criterion = energy tolerance
  Energy initial, next-to-last, final = 
        -8752.39220046     -8761.79396046     -8761.79402738
  Force two-norm initial, final = 40.1707 163.525
  Force max component initial, final = 9.65438 47.4747
  Final line search alpha, max atom move = 0.000131639 0.00624951
  Iterations, force evaluations = 62 436

MPI task timing breakdown:
Section |  min time  |  avg time  |  max time  |%varavg| %total
---------------------------------------------------------------
Pair    | 0.85546    | 0.86359    | 0.8704     |   0.6 | 79.50
Neigh   | 0          | 0          | 0          |   0.0 |  0.00
Comm    | 0.0083925  | 0.01505    | 0.022992   |   4.2 |  1.39
Output  | 0.00011734 | 0.00014088 | 0.00020759 |   0.0 |  0.01
Modify  | 0.205      | 0.2051     | 0.20519    |   0.0 | 18.88
Other   |            | 0.002346   |            |       |  0.22

Nlocal:    6.125 ave 7 max 6 min
Histogram: 7 0 0 0 0 0 0 0 0 1
Nghost:    581.25 ave 589 max 576 min
Histogram: 1 1 2 1 0 0 2 0 0 1
Neighs:    772.75 ave 885 max 750 min
Histogram: 6 1 0 0 0 0 0 0 0 1

Total # of neighbors = 6182
Ave neighs/atom = 126.163
Neighbor list builds = 0
Dangerous builds = 0
WARNING: Using 'neigh_modify every 1 delay 0 check yes' setting during minimization (../min.cpp:190)
WARNING: Total cutoff < 2*bond cutoff. May need to use an increased neighbor list skin. (../pair_reaxc.cpp:413)
Setting up cg style minimization ...
  Unit style    : real
  Current step  : 480
WARNING: Energy due to 3 extra global DOFs will be included in minimizer energies
Per MPI rank memory allocation (min/avg/max) = 18.75 | 18.81 | 18.91 Mbytes
Step Temp E_pair E_mol TotEng Press Volume 
     480            0    -8761.794            0    -8761.794    17867.663    1347.5128 
     510            0     -8764.09            0     -8764.09   -2359.6791    1350.7787 
Loop time of 0.186979 on 8 procs for 30 steps with 49 atoms

99.5% CPU use with 8 MPI tasks x no OpenMP threads

Minimization stats:
  Stopping criterion = linesearch alpha is zero
  Energy initial, next-to-last, final = 
        -8761.79402738      -8764.0900058      -8764.0900058
  Force two-norm initial, final = 630.898 132.028
  Force max component initial, final = 380.13 64.6831
  Final line search alpha, max atom move = 3.89658e-13 2.52043e-11
  Iterations, force evaluations = 30 80

MPI task timing breakdown:
Section |  min time  |  avg time  |  max time  |%varavg| %total
---------------------------------------------------------------
Pair    | 0.15823    | 0.16013    | 0.1617     |   0.3 | 85.64
Neigh   | 0          | 0          | 0          |   0.0 |  0.00
Comm    | 0.001476   | 0.0030363  | 0.004903   |   1.8 |  1.62
Output  | 3.4314e-05 | 4.1971e-05 | 6.2386e-05 |   0.0 |  0.02
Modify  | 0.022499   | 0.02251    | 0.022516   |   0.0 | 12.04
Other   |            | 0.001259   |            |       |  0.67

Nlocal:    6.125 ave 7 max 6 min
Histogram: 7 0 0 0 0 0 0 0 0 1
Nghost:    578.75 ave 589 max 573 min
Histogram: 1 3 0 2 0 0 0 1 0 1
Neighs:    776.25 ave 887 max 755 min
Histogram: 7 0 0 0 0 0 0 0 0 1

Total # of neighbors = 6210
Ave neighs/atom = 126.735
Neighbor list builds = 0
Dangerous builds = 0
WARNING: Using 'neigh_modify every 1 delay 0 check yes' setting during minimization (../min.cpp:190)
WARNING: Total cutoff < 2*bond cutoff. May need to use an increased neighbor list skin. (../pair_reaxc.cpp:413)
Setting up cg style minimization ...
  Unit style    : real
  Current step  : 510
Per MPI rank memory allocation (min/avg/max) = 18.75 | 18.81 | 18.91 Mbytes
Step Temp E_pair E_mol TotEng Press 
     510            0     -8764.09            0     -8764.09   -2359.6791 
     619            0   -8769.7912            0   -8769.7912    9403.5025 
Loop time of 2.58287 on 8 procs for 109 steps with 49 atoms

99.5% CPU use with 8 MPI tasks x no OpenMP threads

Minimization stats:
  Stopping criterion = linesearch alpha is zero
  Energy initial, next-to-last, final = 
         -8764.0900058     -8769.79119333     -8769.79119334
  Force two-norm initial, final = 95.4843 27.2803
  Force max component initial, final = 30.3636 8.03647
  Final line search alpha, max atom move = 8.49181e-12 6.82441e-11
  Iterations, force evaluations = 109 1054

MPI task timing breakdown:
Section |  min time  |  avg time  |  max time  |%varavg| %total
---------------------------------------------------------------
Pair    | 2.0632     | 2.0862     | 2.1052     |   0.8 | 80.77
Neigh   | 0          | 0          | 0          |   0.0 |  0.00
Comm    | 0.020496   | 0.03944    | 0.061952   |   6.0 |  1.53
Output  | 0.00019849 | 0.00023969 | 0.00034342 |   0.0 |  0.01
Modify  | 0.45129    | 0.45151    | 0.45172    |   0.0 | 17.48
Other   |            | 0.005527   |            |       |  0.21

Nlocal:    6.125 ave 7 max 6 min
Histogram: 7 0 0 0 0 0 0 0 0 1
Nghost:    578.75 ave 589 max 573 min
Histogram: 1 3 0 2 0 0 0 1 0 1
Neighs:    773.75 ave 882 max 751 min
Histogram: 6 1 0 0 0 0 0 0 0 1

Total # of neighbors = 6190
Ave neighs/atom = 126.327
Neighbor list builds = 0
Dangerous builds = 0
WARNING: Total cutoff < 2*bond cutoff. May need to use an increased neighbor list skin. (../pair_reaxc.cpp:413)
Setting up Verlet run ...
  Unit style    : real
  Current step  : 0
  Time step     : 0.25
Per MPI rank memory allocation (min/avg/max) = 17.63 | 17.68 | 17.78 Mbytes
Step Temp TotEng KinEng PotEng Press 
       0          300   -8726.8675    42.923665   -8769.7912    10856.101 
     200    338.85956   -8708.5506    48.483647   -8757.0342    5652.6845 
     400    324.88969   -8709.2371    46.484854   -8755.7219     41701.45 
     600    279.98081   -8728.1687    40.059342   -8768.2281   -5982.5896 
     800    317.35066     -8716.92    45.406178   -8762.3262   -18950.285 
    1000    259.20626   -8730.0654    37.086942   -8767.1523   -18378.886 
    1200    297.58948   -8726.4698     42.57877   -8769.0486   -32839.583 
    1400    270.05713   -8724.2159    38.639472   -8762.8554   -241.48966 
    1600    301.18908   -8714.9843    43.093797   -8758.0781   -13161.182 
    1800    308.83507   -8712.0605    44.187777   -8756.2483   -18390.025 
    2000     294.7863   -8723.0256    42.177694   -8765.2033   -20316.408 
    2200    290.34841   -8729.0615    41.542726   -8770.6042    8251.0294 
    2400    283.46353   -8732.6651    40.557645   -8773.2228   -31398.769 
    2600     298.8483   -8716.6913    42.758881   -8759.4502    8975.5121 
    2800    233.34494   -8731.4445    33.386733   -8764.8312   -10272.939 
    3000    315.55518   -8722.6033    45.149283   -8767.7526    26046.019 
    3200    285.19779   -8726.9515    40.805781   -8767.7573    2281.8665 
    3400    358.50292   -8712.5055    51.294198   -8763.7997   -3024.0939 
    3600     334.5148    -8725.792    47.862004    -8773.654   -25136.401 
    3800    302.52121   -8724.3132    43.284396   -8767.5975    -25319.24 
    4000    392.33199    -8706.217    56.134423   -8762.3514    9035.6071 
    4200      281.013   -8716.2724    40.207025   -8756.4794     2820.827 
    4400    294.71809   -8724.4904    42.167935   -8766.6584   -28843.751 
    4600    258.55066   -8737.0301    36.993139   -8774.0232   -5467.7313 
    4800    308.25434   -8720.9272    44.104686   -8765.0319   -8176.0113 
    5000    315.27768   -8726.9032    45.109577   -8772.0128    4879.9861 
    5200    280.11796   -8728.4673    40.078964   -8768.5462   -16717.961 
    5400    370.87026   -8713.8255    53.063702   -8766.8892   -18903.904 
    5600    284.62308   -8725.3724    40.723552    -8766.096   -18750.163 
    5800    341.93897   -8720.7465    48.924246   -8769.6707   -44938.724 
    6000    241.74975   -8734.2589    34.589284   -8768.8482    -11715.54 
    6200    296.23022   -8732.8708    42.384289   -8775.2551    48293.194 
    6400    330.81275   -8721.1069    47.332318   -8768.4392   -7176.2643 
    6600    276.80424   -8719.0537    39.604841   -8758.6585   -25015.942 
    6800    282.42439   -8730.8821    40.408966   -8771.2911    17016.831 
    7000    313.04837   -8721.6929    44.790612   -8766.4835    10030.699 
    7200    317.90874     -8716.21    45.486028    -8761.696   -7708.6235 
    7400    269.58896   -8727.8769    38.572488   -8766.4494   -765.00932 
    7600    296.82436   -8723.1004    42.469297   -8765.5697    1618.8422 
    7800     310.9699   -8723.0212    44.493226   -8767.5144   -1985.3902 
    8000    239.79988   -8721.0191    34.310298   -8755.3294    52840.087 
    8200    316.02125   -8721.3722    45.215967   -8766.5882    29477.751 
    8400    256.20762   -8727.0355      36.6579   -8763.6934   -16475.081 
    8600     359.7703   -8711.8072    51.475533   -8763.2827     1409.976 
    8800     297.8242   -8719.1386    42.612354   -8761.7509   -15783.759 
    9000    287.05996   -8729.2312    41.072219   -8770.3034    7717.5045 
    9200     275.6231   -8735.6033    39.435844   -8775.0391    5376.4675 
    9400    325.74092   -8718.7432    46.606647   -8765.3498   -1746.9749 
    9600     291.0514   -8721.0506    41.643309   -8762.6939    29138.647 
    9800    271.35335   -8732.4838    38.824934   -8771.3088    30617.914 
   10000    332.25869   -8713.6217    47.539203   -8761.1609   -19797.515 
   10200    266.55546   -8725.4193    38.138457   -8763.5578    14544.431 
   10400    319.01038   -8722.8511    45.643649   -8768.4947    -25627.83 
   10600    311.10194   -8715.8044    44.512118   -8760.3165   -9008.5202 
   10800    315.02916   -8724.0953     45.07402   -8769.1694   -15060.986 
   11000    300.83214   -8732.9781    43.042726   -8776.0209    28243.563 
   11200    311.18144    -8720.366    44.523492   -8764.8895    1988.1346 
   11400    327.01933   -8717.2294    46.789561   -8764.0189   -927.66299 
   11600    275.24757   -8725.3172    39.382115   -8764.6994    6388.1627 
   11800    266.98608   -8729.0702     38.20007   -8767.2703   -11853.074 
   12000    299.10055   -8713.1448    42.794972   -8755.9398    41248.041 
   12200    329.26713   -8721.0035    47.111173   -8768.1146    28578.596 
   12400    232.93209   -8735.2699    33.327663   -8768.5975    4728.0899 
   12600    326.27595   -8721.6763    46.683199   -8768.3595   -18271.048 
   12800    378.66898   -8710.3186    54.179535   -8764.4981   -47687.796 
   13000    218.01332   -8729.5074    31.193103   -8760.7005    8394.9543 
   13200    294.21979   -8720.5205    42.096638   -8762.6171    -966.7605 
   13400     300.9981   -8716.2091    43.066472   -8759.2755    41303.764 
   13600    273.71458   -8735.1818    39.162776   -8774.3446   -12295.032 
   13800    345.37119   -8721.8307    49.415324    -8771.246   -9025.7705 
   14000    288.24569   -8715.7542    41.241871   -8756.9961    25507.731 
   14200    377.05073   -8708.9774    53.947998   -8762.9254   -23367.326 
   14400    294.89055   -8721.7289     42.19261   -8763.9215   -9253.3843 
   14600    296.57837   -8721.4357    42.434102   -8763.8698   -590.88028 
   14800    322.29824   -8710.0435    46.114071   -8756.1576    23591.841 
   15000     303.5878   -8725.8121    43.437004   -8769.2491   -11477.384 
   15200    266.38631   -8728.6007    38.114255    -8766.715   -19902.272 
   15400    277.31889   -8720.3821    39.678477   -8760.0606   -12841.959 
   15600    317.26536   -8714.7963    45.393973   -8760.1903    4671.1428 
   15800    244.40979   -8727.6006    34.969879   -8762.5705   -7793.1169 
   16000    330.32113    -8720.328    47.261978     -8767.59    26779.024 
   16200    344.89716   -8719.4319    49.347501   -8768.7794   -13647.759 
   16400    290.70202   -8722.3472     41.59332   -8763.9405    40504.532 
   16600    341.04578    -8708.995     48.79645   -8757.7914    3694.2058 
   16800    269.41907   -8720.2043     38.54818   -8758.7525    28538.447 
   17000    302.20202   -8724.6943    43.238727    -8767.933   -41212.923 
   17200    290.87943    -8729.451    41.618704   -8771.0697    25231.979 
   17400    261.20919    -8722.902    37.373519   -8760.2756   -3064.2205 
   17600    271.98236   -8714.6924    38.914933   -8753.6074    23032.365 
   17800    247.32204   -8733.7493    35.386561   -8769.1359   -51628.131 
   18000    258.36587   -8725.9407      36.9667   -8762.9074   -7710.3399 
   18200    318.88961    -8714.376    45.626369   -8760.0024    1441.8857 
   18400     305.5663   -8729.9094    43.720084   -8773.6294   -15696.629 
   18600    247.81805   -8733.8895    35.457529   -8769.3471    26431.674 
   18800    324.47788   -8716.7239    46.425932   -8763.1498   -447.84033 
   19000    318.00673   -8727.8766    45.500048   -8773.3766   -8621.0559 
   19200     396.8404   -8716.4483    56.779481   -8773.2277   -42161.246 
   19400    329.04273    -8718.536    47.079066    -8765.615   -15447.727 
   19600    290.07659   -8728.2343    41.503834   -8769.7381   -27430.999 
   19800    356.98969   -8714.7296    51.077686   -8765.8073    24780.111 
   20000    316.90839   -8710.5426    45.342899   -8755.8855    7340.1773 
   20200    268.16536   -8724.9039      38.3688   -8763.2727    35974.034 
   20400    310.32974   -8730.3031    44.401632   -8774.7047   -7408.3654 
   20600     308.0805   -8711.3363    44.079814   -8755.4162    24330.192 
   20800    267.95931   -8724.0793    38.339319   -8762.4186   -39964.888 
   21000    269.50239   -8727.2875    38.560101   -8765.8476    9564.1824 
   21200    327.25947   -8720.2653     46.82392   -8767.0892   -32841.319 
   21400    265.82173   -8737.3458    38.033476   -8775.3793    20606.045 
   21600    297.52683   -8727.0578    42.569807   -8769.6277    39737.402 
   21800    298.89467   -8714.2603    42.765516   -8757.0259    12509.153 
   22000    274.21854   -8727.7251    39.234882     -8766.96    30303.309 
   22200    263.38087   -8728.3944     37.68424   -8766.0786    -26859.85 
   22400    286.74825   -8720.7042     41.02762   -8761.7318   -13243.992 
   22600    324.35004   -8720.2599    46.407642   -8766.6675   -11617.847 
   22800    225.62055   -8735.4391    32.281537   -8767.7206    8486.3463 
   23000    324.92586   -8717.7602    46.490029   -8764.2502    11508.391 
   23200    312.78551    -8721.811    44.753002    -8766.564    6182.0069 
   23400    220.06964   -8735.9178    31.487318   -8767.4051    361.95637 
   23600    264.68328   -8719.3195    37.870588   -8757.1901   -26551.188 
   23800    314.74146   -8720.7266    45.032856   -8765.7595   -7553.7848 
   24000    301.26585   -8729.9034    43.104782   -8773.0082   -18066.772 
   24200    296.69952   -8727.9054    42.451436   -8770.3568   -1770.7162 
   24400    327.16629   -8719.7107    46.810588   -8766.5212    50125.981 
   24600    283.33474   -8725.9912    40.539218   -8766.5305   -991.14644 
   24800    269.89248   -8729.7723    38.615915   -8768.3882    30576.263 
   25000    283.01542   -8722.4454     40.49353    -8762.939    12380.709 
   25200    343.09087   -8717.4691    49.089058   -8766.5581    377.64311 
   25400    315.46731   -8724.2269    45.136711   -8769.3636    22840.825 
   25600     277.9183   -8727.8963     39.76424   -8767.6605   -10274.433 
   25800    283.17024   -8711.7368    40.515682   -8752.2525   -41832.945 
   26000    265.69108   -8726.5155    38.014783   -8764.5303   -9476.1307 
   26200    274.99521   -8727.7044    39.346008   -8767.0505    1535.8951 
   26400    310.20669   -8713.0425    44.384027   -8757.4266    12928.613 
   26600    249.78148   -8728.6555    35.738455   -8764.3939   -5481.6595 
   26800    323.31136   -8726.4002    46.259028   -8772.6593    15048.578 
   27000    328.07745   -8711.3038    46.940955   -8758.2448    12507.536 
   27200    318.04807   -8717.9566    45.505962   -8763.4626   -38814.704 
   27400    304.82855   -8724.1545    43.614529   -8767.7691   -18462.182 
   27600    301.87443   -8715.0561    43.191855    -8758.248    -66144.25 
   27800    336.92195   -8719.6971    48.206416   -8767.9035    9874.7719 
   28000    328.83398   -8728.4064    47.049198   -8775.4556   -10298.227 
   28200    345.96482   -8718.2555    49.500259   -8767.7558   -12354.211 
   28400    345.62022   -8706.0794    49.450955   -8755.5303    35456.101 
   28600    283.04289   -8725.6923     40.49746   -8766.1898    1480.3119 
   28800    260.67134   -8728.0808    37.296564   -8765.3774    10825.088 
   29000    404.52435   -8710.5649    57.878892   -8768.4438   -12728.399 
   29200    300.41878    -8724.813    42.983583   -8767.7966   -30345.557 
   29400    292.58567   -8724.7911    41.862831   -8766.6539   -8742.4475 
   29600    309.87509   -8712.2992    44.336581   -8756.6358   -686.00074 
   29800    289.35082   -8722.7756    41.399992   -8764.1756    10911.868 
   30000    262.01606   -8727.3407    37.488965   -8764.8297    8308.9559 
   30200    298.65745   -8720.0971    42.731575   -8762.8287    8366.8161 
   30400    321.30217   -8720.2674    45.971556    -8766.239   -2205.2297 
   30600    294.10032   -8724.1826    42.079546   -8766.2622    3532.4571 
   30800    239.76666   -8736.3475    34.305546    -8770.653    32930.716 
   31000    300.92807   -8725.7966    43.056453   -8768.8531   -8699.3079 
   31200    308.30741    -8726.373     44.11228   -8770.4853    14992.649 
   31400     346.0227   -8712.0275    49.508541   -8761.5361   -45716.785 
   31600     261.1397   -8727.1894    37.363577    -8764.553   -35051.939 
   31800    318.49912   -8722.0247    45.570499   -8767.5952    3057.5332 
   32000    300.38543   -8720.0202    42.978812   -8762.9991    13902.566 
   32200    386.25798   -8709.6522    55.265359   -8764.9176    18717.731 
   32400    283.97834   -8725.8937    40.631303    -8766.525    433.56556 
   32600    300.32687   -8723.7181    42.970432   -8766.6885    10945.209 
   32800    312.28652    -8722.423    44.681607   -8767.1046   -30712.621 
   33000    300.32437   -8732.3533    42.970075   -8775.3234    2327.5252 
   33200    304.81724   -8714.5165     43.61291   -8758.1295   -13228.008 
   33400    316.04279   -8717.1015    45.219049   -8762.3206   -7261.7704 
   33600     298.6333   -8733.1766    42.728119   -8775.9047    32500.092 
   33800    291.82497   -8729.5124    41.753991   -8771.2664    6467.4444 
   34000    305.08715   -8717.5811    43.651528   -8761.2326   -17232.668 
   34200    280.99355   -8732.5248    40.204242    -8772.729    10738.007 
   34400    344.42376   -8725.7601    49.279767   -8775.0399    -30000.47 
   34600    286.09799   -8719.7081    40.934581   -8760.6427   -36816.163 
   34800    370.87276   -8707.7951     53.06406   -8760.8591    28279.663 
   35000    303.15335   -8720.5331    43.374842   -8763.9079    26794.305 
   35200    254.05535   -8731.4017    36.349955   -8767.7517   -29212.812 
   35400      279.916   -8729.9146    40.050069   -8769.9647   -223.40052 
   35600    307.32603   -8723.9652    43.971865    -8767.937   -21344.109 
   35800    307.59113   -8723.7702    44.009795     -8767.78    3075.2108 
   36000    293.79854    -8736.703    42.036367   -8778.7394    20659.222 
   36200    274.21491   -8723.7387    39.234363   -8762.9731    1503.0587 
   36400    317.02098   -8721.3908    45.359008   -8766.7498    10731.326 
   36600    303.38723   -8729.2603    43.408306   -8772.6686    24693.977 
   36800    311.01625   -8711.9929    44.499857   -8756.4927    27930.727 
   37000    315.79024   -8722.1726    45.182914   -8767.3555   -3663.0165 
   37200    251.37358   -8731.5563     35.96625   -8767.5226   -10582.884 
   37400    317.88009   -8721.1244    45.481928   -8766.6063    3751.6374 
   37600    264.05933   -8726.1708    37.781314   -8763.9521    23567.786 
   37800    268.01675   -8732.9291    38.347537   -8771.2767    12105.351 
   38000    327.80791   -8720.9719    46.902389   -8767.8743    6577.8665 
   38200    296.50665   -8725.4029     42.42384   -8767.8267    41501.938 
   38400     338.2839   -8713.2625    48.401282   -8761.6638    2678.4207 
   38600    327.60804   -8724.7053    46.873792   -8771.5791    -15989.48 
   38800    271.28321    -8727.703    38.814898   -8766.5179     4206.665 
   39000    343.59532   -8714.7318    49.161234    -8763.893    42698.844 
   39200    331.04888   -8707.2446    47.366104   -8754.6107    -10109.59 
   39400    271.38948   -8720.5597    38.830104   -8759.3898    11209.153 
   39600    257.15784   -8730.1009    36.793857   -8766.8948    6753.1593 
   39800    265.11774   -8734.1416     37.93275   -8772.0744    1263.1828 
   40000     299.8594    -8718.373    42.903548   -8761.2766    -339.9204 
   40200    324.59918   -8718.0445    46.443287   -8764.4878   -30112.413 
   40400    251.98275    -8733.081    36.053411   -8769.1344    5488.0909 
   40600    316.60093   -8723.5605    45.298908   -8768.8594   -27038.599 
   40800    290.87096   -8720.6579    41.617492   -8762.2754    5504.5364 
   41000    282.85138   -8731.5553    40.470059   -8772.0253    22857.325 
   41200    287.04613   -8731.9178    41.070239    -8772.988   -33767.207 
   41400     318.4345   -8713.9803    45.561252   -8759.5415   -9920.9484 
   41600    341.43249    -8720.995    48.851779   -8769.8468   -10282.023 
   41800    301.66871   -8732.2668    43.162421   -8775.4293   -13691.829 
   42000    315.17993   -8718.0625    45.095592   -8763.1581   -1333.7432 
   42200    309.61916   -8719.2452    44.299964   -8763.5451    8398.3608 
   42400    327.42055   -8722.0149    46.846966   -8768.8619   -23614.958 
   42600    230.88518   -8734.4826    33.034793   -8767.5174   -38139.254 
   42800    299.06132   -8719.8673    42.789359   -8762.6566    18858.159 
   43000    310.70287   -8719.8263     44.45502   -8764.2814   -21354.663 
   43200    291.50472   -8720.0359    41.708169   -8761.7441   -28141.901 
   43400    297.34943   -8723.6537    42.544424   -8766.1981   -23655.635 
   43600    273.63482    -8732.036    39.151364   -8771.1873    1487.0115 
   43800    329.66062   -8714.8428    47.167473   -8762.0103   -27670.141 
   44000    311.52424     -8723.81    44.572539   -8768.3825   -29530.587 
   44200    263.20587   -8730.9321    37.659202   -8768.5913    19325.009 
   44400    342.01169   -8711.5245     48.93465   -8760.4592    17937.961 
   44600    289.75351   -8723.9928    41.457608   -8765.4504    9597.0739 
   44800    343.81826   -8721.3496    49.193132   -8770.5428    9128.9602 
   45000    326.94543   -8707.7114    46.778987   -8754.4904   -4833.0084 
   45200    338.54389   -8723.7373    48.438482   -8772.1757    3136.2793 
   45400    272.45491   -8725.4008    38.982543   -8764.3833    43553.845 
   45600    350.76116   -8709.8341    50.186515   -8760.0206   -35793.641 
   45800    302.78138   -8723.6325    43.321621   -8766.9542    16135.388 
   46000    331.36664   -8723.4965    47.411569   -8770.9081   -12727.688 
   46200    271.13369    -8723.863    38.793506   -8762.6565   -12505.422 
   46400    318.37628   -8709.7106    45.552923   -8755.2636    4287.7923 
   46600    301.58889   -8723.8855    43.151002   -8767.0365   -21358.856 
   46800    257.00828    -8723.924    36.772457   -8760.6964   -45110.068 
   47000    335.90599   -8710.8268    48.061053   -8758.8879   -7766.8633 
   47200    294.85421   -8723.6562    42.187412   -8765.8436   -12698.694 
   47400    240.42521   -8724.6267    34.399771   -8759.0264     37323.98 
   47600    351.72049   -8716.0406    50.323775   -8766.3644    16329.857 
   47800    259.74813   -8723.2239    37.164473   -8760.3884    29861.684 
   48000    268.75672   -8725.2058    38.453412   -8763.6592   -35018.722 
   48200    296.53665   -8728.3747    42.428132   -8770.8028   -24688.506 
   48400    340.89105   -8716.5884     48.77431   -8765.3628   -9816.5897 
   48600    295.15812   -8719.0952    42.230894   -8761.3261   -40340.323 
   48800    269.64434   -8731.3321     38.58041   -8769.9125    20343.342 
   49000    354.62807   -8712.1018    50.739788   -8762.8416   -7114.2496 
   49200    313.88958   -8719.5125     44.91097   -8764.4234    -22441.68 
   49400    289.05017   -8732.2262    41.356976   -8773.5832    8896.6362 
   49600    275.91971   -8726.0672    39.478284   -8765.5455    7265.8277 
   49800    338.50505   -8717.9212    48.432925   -8766.3542    18151.153 
   50000    253.53221   -8731.5603    36.275106   -8767.8354     1400.909 
   50200    335.26926   -8715.5689     47.96995   -8763.5389   -21765.321 
   50400    312.67498   -8718.0081    44.737186   -8762.7453   -11272.738 
   50600    292.28056   -8727.6786    41.819176   -8769.4978     28841.48 
   50800    290.02154   -8733.0432    41.495958   -8774.5392   -15054.091 
   51000    322.88343   -8716.7671      46.1978   -8762.9649   -8982.8115 
   51200    299.71926   -8724.6783    42.883497   -8767.5618   -4647.3551 
   51400    264.50464   -8740.2753    37.845029   -8778.1204   -14969.327 
   51600    241.44068    -8735.163    34.545062    -8769.708    469.67117 
   51800    337.39283   -8720.9562    48.273789     -8769.23   -26882.734 
   52000    342.71029   -8714.3458    49.034605   -8763.3804    11870.491 
   52200    284.41164   -8726.1163    40.693299   -8766.8096    19050.049 
   52400    279.36009   -8728.0745     39.97053   -8768.0451    11485.282 
   52600     285.2926   -8707.5389    40.819347   -8748.3583   -5151.8697 
   52800    268.10065   -8718.7817    38.359542   -8757.1413   -5463.3793 
   53000    320.56987   -8724.2198    45.866779   -8770.0866    19231.117 
   53200     255.4387   -8736.6138    36.547884   -8773.1617    7544.9034 
   53400    311.47274    -8722.288    44.565171   -8766.8532    811.87987 
   53600    308.30496   -8720.2537     44.11193   -8764.3657   -8601.7226 
   53800    285.24732   -8723.6674    40.812867   -8764.4802    23241.374 
   54000    343.52846   -8718.0965    49.151669   -8767.2481    21384.869 
   54200    279.69546   -8734.5423    40.018513   -8774.5609   -23886.008 
   54400    279.40852    -8732.148    39.977458   -8772.1254   -2712.1095 
   54600     306.6007   -8722.5282    43.868086   -8766.3963   -21996.474 
   54800    313.41474   -8722.0034    44.843031   -8766.8464    34594.531 
   55000    289.81916   -8725.9757    41.467002   -8767.4427   -6281.1878 
   55200    371.07135   -8716.6145    53.092475    -8769.707    11979.776 
   55400    229.37689   -8723.5439     32.81899   -8756.3629     -5799.55 
   55600     245.5982   -8738.3415    35.139916   -8773.4814    8057.0567 
   55800    300.69243    -8723.133    43.022737   -8766.1558    14951.992 
   56000    309.53949   -8724.9402    44.288565   -8769.2288    9206.8501 
   56200    319.39883   -8718.8634    45.699228   -8764.5626   -37017.988 
   56400    275.27665   -8716.6373    39.386275   -8756.0236    58667.212 
   56600    346.66908   -8719.1825    49.601025   -8768.7835    3934.3133 
   56800    315.05455   -8728.0975    45.077653   -8773.1751    32812.763 
   57000    248.68821   -8743.7264     35.58203   -8779.3084   -1502.7528 
   57200    271.83313   -8726.5819    38.893581   -8765.4755   -24476.838 
   57400    279.47726   -8719.2828    39.987293   -8759.2701    8750.9914 
   57600    367.60528    -8708.067    52.596552   -8760.6636    30420.462 
   57800    333.85226   -8718.2591    47.767208   -8766.0264   -21528.597 
   58000    343.31894   -8720.7445     49.12169   -8769.8661    17935.529 
   58200     282.8851   -8726.1648    40.474884   -8766.6397   -8563.8962 
   58400    285.26272   -8731.2798    40.815072   -8772.0949    4448.2293 
   58600    333.54917   -8718.1769    47.723842   -8765.9007    20800.586 
   58800    279.12191   -8723.2806    39.936452   -8763.2171   -20555.303 
   59000    234.78108   -8738.6262    33.592214   -8772.2184    45568.244 
   59200    304.10086   -8725.9817    43.510412   -8769.4921   -17564.522 
   59400    354.77806    -8717.761    50.761248   -8768.5222   -5321.3577 
   59600    276.62649   -8733.4845    39.579409   -8773.0639    5867.5061 
   59800    287.37246   -8723.7389     41.11693   -8764.8558   -34051.606 
   60000    303.20396   -8724.5538    43.382084   -8767.9359    24846.328 
   60200    277.99914   -8732.7562    39.775806    -8772.532   -5027.3994 
   60400    329.27018   -8719.6651     47.11161   -8766.7767    323.54428 
   60600    251.95695   -8721.7034    36.049718   -8757.7532   -25631.972 
   60800    259.65574   -8738.3038    37.151253   -8775.4551    20301.747 
   61000    288.97966   -8728.2562    41.346886   -8769.6031   -15833.623 
   61200    343.27396   -8720.2731    49.115255   -8769.3883   -8841.8228 
   61400    215.30998   -8731.9075    30.806311   -8762.7138    8981.6924 
   61600    294.12811   -8728.2446    42.083521   -8770.3282      32634.9 
   61800    344.87608   -8716.2964    49.344484   -8765.6409   -98.155678 
   62000    307.50047   -8729.4316    43.996824   -8773.4285    3751.2122 
   62200    311.23765   -8715.9168    44.531535   -8760.4483    9532.9646 
   62400    326.67409   -8717.9532    46.740164   -8764.6933     6107.803 
   62600    308.31861   -8723.2481    44.113883    -8767.362    7535.4544 
   62800    322.11646   -8724.1036    46.088064   -8770.1917   -17409.774 
   63000     286.6426   -8722.7117    41.012503   -8763.7242   -16659.446 
   63200    345.91121   -8710.4078    49.492589   -8759.9003   -5511.9494 
   63400    300.13944   -8725.2786    42.943615   -8768.2222    4971.7205 
   63600    263.10384   -8729.1712    37.644604   -8766.8158    419.30053 
   63800    274.27725   -8731.9772    39.243283   -8771.2204   -23906.777 
   64000    371.23239   -8714.9914    53.115516   -8768.1069   -7723.7614 
   64200    274.88663   -8725.5336    39.330471   -8764.8641    33730.053 
   64400    272.41814   -8725.6981    38.977283   -8764.6753    25180.404 
   64600    290.69908   -8715.8898    41.592899   -8757.4827    -848.0875 
   64800    278.83045   -8729.2295    39.894749   -8769.1243   -18774.791 
   65000    286.91524   -8725.3305    41.051512    -8766.382    18771.986 
   65200    316.41239    -8714.912    45.271932   -8760.1839   -8771.5106 
   65400    266.60026   -8730.0535    38.144867   -8768.1984    13742.175 
   65600    257.86206   -8735.1496    36.894615   -8772.0443    6242.3123 
   65800    315.90961   -8725.0114    45.199994   -8770.2114   -49316.283 
   66000    343.55066   -8714.1294    49.154844   -8763.2842   -33524.743 
   66200    246.52239   -8728.7029    35.272148   -8763.9751    12885.917 
   66400    333.08006   -8724.8318    47.656723   -8772.4885   -6435.5795 
   66600    331.76215   -8702.0989    47.468158   -8749.5671   -34468.824 
   66800    286.75004    -8718.016    41.027876   -8759.0438    32769.511 
   67000    252.39376   -8732.5945    36.112217   -8768.7067     32134.41 
   67200    279.58081   -8719.3906     40.00211   -8759.3927   -26787.563 
   67400    295.48978    -8720.644    42.278348   -8762.9223   -14923.656 
   67600    288.83342   -8724.1111    41.325963   -8765.4371   -3111.6563 
   67800     380.0518   -8709.6792    54.377387   -8764.0566   -8064.7069 
   68000    295.73418   -8727.1594    42.313316   -8769.4727    6541.9905 
   68200    312.49202   -8721.7767    44.711009   -8766.4877    14440.715 
   68400    340.71223   -8707.5022    48.748726   -8756.2509    32720.605 
   68600     279.7709   -8722.3898    40.029308   -8762.4191    -689.9263 
   68800    288.10904   -8726.3349     41.22232   -8767.5572    44312.009 
   69000    331.17271   -8708.9828    47.383821   -8756.3666   -19990.697 
   69200    292.61478     -8719.66    41.866995    -8761.527   -554.02695 
   69400    265.39785   -8729.6123    37.972827   -8767.5851    25710.533 
   69600    341.33471   -8715.0132    48.837789    -8763.851   -2960.5657 
   69800    270.00941   -8722.4451    38.632644   -8761.0777    33932.305 
   70000    252.39861   -8724.5632    36.112911   -8760.6761    3280.5028 
   70200    319.89146   -8722.6077    45.769712   -8768.3774    43304.886 
   70400    282.95589    -8726.229    40.485012    -8766.714   -16876.871 
   70600     382.4408   -8712.3816    54.719202   -8767.1008   -13020.713 
   70800    281.33258   -8728.7889    40.252751   -8769.0416     20022.46 
   71000    295.84774   -8724.7953    42.329564   -8767.1249    28778.423 
   71200    385.07412   -8705.1236    55.095975   -8760.2196    22743.149 
   71400    309.25891   -8722.2059    44.248419   -8766.4544    8945.6021 
   71600    273.54361   -8731.8221    39.138313   -8770.9604   -171.06783 
   71800    204.65279   -8738.9853    29.281492   -8768.2668    9851.2662 
   72000    289.55741   -8720.5119     41.42955   -8761.9415   -14480.468 
   72200    330.75069   -8717.4309    47.323439   -8764.7544   -2699.5976 
   72400    261.21647   -8732.7594     37.37456   -8770.1339   -31493.881 
   72600    323.30328   -8718.4524    46.257872   -8764.7103    13281.693 
   72800    336.91962   -8719.3146    48.206083   -8767.5207    26852.875 
   73000    284.37471    -8731.203    40.688015    -8771.891    32744.069 
   73200    310.56933    -8725.131    44.435912   -8769.5669   -4944.4481 
   73400    359.18303   -8706.8729    51.391506   -8758.2644   -22379.441 
   73600    302.53858   -8715.4836    43.286882   -8758.7704    44331.997 
   73800    295.55201   -8720.8803    42.287251   -8763.1676    34615.019 
   74000    263.41326   -8735.8007    37.688875   -8773.4896    8584.5475 
   74200    331.98394   -8724.5521    47.499891   -8772.0519    25544.948 
   74400     338.5962   -8718.5835    48.445966   -8767.0295   -26247.633 
   74600    231.91528   -8736.3685     33.18218   -8769.5506   -20923.599 
   74800    261.49645   -8728.3044    37.414619   -8765.7191     6393.808 
   75000     320.7074   -8715.6751    45.886456   -8761.5615    27532.019 
   75200    242.93458   -8731.7737    34.758808   -8766.5325   -18017.392 
   75400    268.20665   -8731.6939    38.374707   -8770.0686     1843.604 
   75600    286.11921   -8718.7952    40.937617   -8759.7328   -10678.645 
   75800    324.31219   -8718.9236    46.402226   -8765.3259     30914.12 
   76000    315.28314    -8726.673     45.11036   -8771.7833    14641.906 
   76200    317.90369   -8713.2206    45.485305   -8758.7059   -51521.437 
   76400     330.7557   -8723.8777    47.324155   -8771.2019    29565.623 
   76600    316.24452   -8729.8226    45.247912   -8775.0705   -11297.434 
   76800     323.3623   -8713.2822    46.266317   -8759.5485   -30320.258 
   77000    321.33218    -8721.514    45.975849   -8767.4899    5571.0084 
   77200    329.23292   -8725.0154    47.106278   -8772.1217   -16141.277 
   77400    352.30159   -8701.6394    50.406917   -8752.0463    21177.952 
   77600    315.90277   -8714.6891    45.199015   -8759.8882    14416.652 
   77800    297.37498   -8727.8933     42.54808   -8770.4414    9578.3293 
   78000    304.22352   -8719.5995    43.527961   -8763.1275   -5183.2086 
   78200    276.75129   -8716.9836    39.597265   -8756.5809    380.65413 
   78400    281.50549   -8719.7327    40.277491   -8760.0102   -7496.9411 
   78600    237.18334   -8737.0682    33.935927   -8771.0041   -2743.1103 
   78800    311.77199   -8722.1503    44.607987   -8766.7583   -5746.1715 
   79000    285.28926   -8722.7588    40.818868   -8763.5777    13454.077 
   79200    307.86368   -8725.7186    44.048792   -8769.7674   -32303.845 
   79400    268.84116   -8728.0825    38.465492    -8766.548   -11755.683 
   79600    312.46053   -8719.8487    44.706503   -8764.5552   -9750.2309 
   79800    330.00011    -8721.127    47.216047    -8768.343    7464.4145 
   80000    398.59475    -8702.584    57.030492   -8759.6145   -15581.481 
   80200    335.53294   -8720.0184    48.007678   -8768.0261   -155.49866 
   80400    271.82921   -8731.1947     38.89302   -8770.0878   -13079.262 
   80600    313.27229   -8712.4851    44.822649   -8757.3078   -36717.975 
   80800    330.80901   -8723.0703    47.331784   -8770.4021    748.72343 
   81000    258.23113    -8726.994    36.947422   -8763.9414    7765.5581 
   81200    283.21667   -8722.8851    40.522324   -8763.4074     -18147.1 
   81400    291.29283   -8720.4713    41.677853   -8762.1491    27130.066 
   81600    232.02163   -8735.5976    33.197395    -8768.795   -9211.7144 
   81800    302.30865   -8724.4536    43.253984   -8767.7076    5958.5412 
   82000    266.06118   -8723.1946    38.067736   -8761.2624   -2402.6079 
   82200     339.2111   -8714.6769    48.533945   -8763.2109   -25560.774 
   82400    280.50525   -8729.8078    40.134378   -8769.9422   -7795.6646 
   82600    344.28826   -8715.9271    49.260379   -8765.1875    52654.434 
   82800    339.12607   -8711.0049    48.521779   -8759.5266   -10591.654 
   83000    311.29402   -8729.7455    44.539601   -8774.2851    11363.466 
   83200    265.95445   -8723.9675    38.052465   -8762.0199   -8186.5358 
   83400    317.14361   -8719.1799    45.376553   -8764.5565    12375.974 
   83600    238.25259   -8730.3515    34.088915   -8764.4404   -16588.755 
   83800    291.10571   -8735.6903     41.65108   -8777.3414   -40497.119 
   84000    266.75636     -8719.09    38.167201   -8757.2572   -45178.474 
   84200     297.8553     -8727.69    42.616803   -8770.3068   -34163.234 
   84400    274.70443   -8729.1427    39.304402   -8768.4471   -14623.075 
   84600    338.12219    -8721.564    48.378145   -8769.9421   -10432.024 
   84800    349.76806   -8718.7385    50.044423    -8768.783   -21016.919 
   85000    270.77465   -8725.4501    38.742134   -8764.1922    -8150.065 
   85200    272.18038   -8728.3238    38.943265    -8767.267   -20660.105 
   85400    297.35897   -8713.2211    42.545789   -8755.7669    38637.948 
   85600     313.2909   -8720.9799    44.825312   -8765.8052    562.41921 
   85800    301.67252   -8721.5728    43.162968   -8764.7357   -30921.662 
   86000    351.97381    -8710.409    50.360019    -8760.769    28042.432 
   86200    288.37412   -8716.8994    41.260247   -8758.1596    42362.523 
   86400    298.62616   -8731.4791    42.727097   -8774.2061   -20081.212 
   86600    292.35086   -8727.3261    41.829234   -8769.1553    17211.663 
   86800    281.37917   -8725.0666    40.259417   -8765.3261     -6641.29 
   87000    304.23585   -8710.1705    43.529725   -8753.7002   -45019.634 
   87200    352.30361   -8712.8716    50.407207   -8763.2788    42854.805 
   87400     317.5631   -8723.4513    45.436573   -8768.8878    19815.749 
   87600    299.08627   -8731.8192     42.79293   -8774.6121    31020.342 
   87800    224.93431   -8737.3054     32.18335   -8769.4887    29159.431 
   88000    309.14274   -8722.6022    44.231797    -8766.834    57152.264 
   88200    302.87018   -8713.4027    43.334327    -8756.737   -2553.8187 
   88400    288.69951   -8727.3037    41.306803   -8768.6105    -14859.66 
   88600    302.68617   -8723.8156    43.307999   -8767.1236    16503.082 
   88800    304.38071   -8714.2469    43.550452   -8757.7974    18624.514 
   89000    299.49871   -8716.1828     42.85194   -8759.0347    1803.0813 
   89200    276.83579   -8728.3646    39.609355   -8767.9739    -17551.65 
   89400    311.83836   -8712.1989    44.617484   -8756.8164    55348.329 
   89600    365.61595   -8713.3845    52.311921   -8765.6964   -1115.6164 
   89800    302.29225   -8725.7573    43.251637   -8769.0089    -47795.07 
   90000    283.32882   -8724.2795     40.53837   -8764.8179    27215.178 
   90200    338.99289    -8711.504    48.502724   -8760.0067    10486.605 
   90400    276.66145    -8725.674    39.584411   -8765.2584   -23076.328 
   90600    374.20792   -8717.1706    53.541252   -8770.7118    29057.186 
   90800    309.34221   -8711.6072    44.260337   -8755.8675    23103.532 
   91000    283.64442   -8730.6055    40.583527   -8771.1891    6086.1508 
   91200    267.93009   -8722.6658    38.335137    -8761.001   -13001.555 
   91400    280.35133   -8721.4441    40.112355   -8761.5564    16151.436 
   91600    307.61845    -8728.728    44.013703   -8772.7417    28292.551 
   91800    314.25727   -8714.8799    44.963579   -8759.8435   -18643.064 
   92000    280.48251    -8715.111    40.131124   -8755.2421   -26525.477 
   92200    316.77491   -8730.1334    45.323801   -8775.4572    17411.303 
   92400    319.92066   -8722.6525     45.77389   -8768.4264   -888.22384 
   92600    331.55828   -8715.1849    47.438988   -8762.6239    11280.016 
   92800    322.05262   -8720.4606    46.078929   -8766.5396    4395.9143 
   93000    256.31688   -8728.9361    36.673532   -8765.6097   -12724.169 
   93200    331.03456   -8720.3601    47.364055   -8767.7241    24672.106 
   93400    297.37968   -8716.5435    42.548752   -8759.0922    8581.3491 
   93600    253.62436    -8732.195     36.28829   -8768.4832    6413.5274 
   93800    240.29589   -8735.8401    34.381268   -8770.2214   -805.53853 
   94000    346.92634    -8721.917    49.637833   -8771.5549    5497.4154 
   94200    329.87945    -8712.484    47.198783   -8759.6828    8582.5252 
   94400    258.73097   -8731.8353    37.018938   -8768.8542   -17606.881 
   94600    301.20202    -8722.316    43.095648   -8765.4116    13922.869 
   94800    304.10514   -8718.4132    43.511024   -8761.9243    7610.5833 
   95000    261.57633    -8724.601    37.426049    -8762.027   -32634.913 
   95200    284.92899    -8731.905    40.767321   -8772.6723    -22829.43 
   95400    312.36149   -8715.8742    44.692333   -8760.5665   -21431.945 
   95600    327.51715   -8718.8806    46.860788   -8765.7414    12835.934 
   95800    272.01681   -8729.1621    38.919861   -8768.0819    11648.494 
   96000    313.24966    -8722.625    44.819412   -8767.4444    -6364.445 
   96200    361.54175   -8708.4956     51.72899   -8760.2246   -17938.647 
   96400    348.89107   -8717.5713    49.918945   -8767.4902   -19407.986 
   96600    326.78438   -8723.8154    46.755944   -8770.5713   -34837.295 
   96800    343.41666   -8710.9342    49.135672   -8760.0699   -33767.354 
   97000      249.744   -8731.2954    35.733093   -8767.0285    20370.553 
   97200    368.52972   -8723.6773     52.72882   -8776.4061    43959.218 
   97400    354.38582   -8712.8813    50.705127   -8763.5864   -1134.9693 
   97600    343.77641   -8713.3191    49.187144   -8762.5063   -11712.271 
   97800    273.90645   -8721.9981    39.190228   -8761.1883     41871.74 
   98000    321.42756   -8721.9614    45.989497   -8767.9509   -8940.2174 
   98200    272.71006   -8732.6002    39.019051   -8771.6192    8261.8542 
   98400    344.08986   -8716.9156    49.231993   -8766.1476   -31742.807 
   98600    297.46139     -8722.59    42.560443   -8765.1504    16791.109 
   98800     208.7201   -8745.0317    29.863439   -8774.8951   -20637.001 
   99000    255.46617   -8734.1367    36.551814   -8770.6886     2614.686 
   99200    295.81597   -8721.2685    42.325018   -8763.5935    8470.6081 
   99400    342.94372   -8722.3709    49.068005   -8771.4389   -6604.5303 
   99600    257.33054    -8731.965    36.818566   -8768.7835   -24279.924 
   99800     319.9822   -8718.1574    45.782695   -8763.9401    16584.838 
  100000    304.13182   -8721.6215    43.514841   -8765.1363    22983.748 
  100200    292.77254   -8709.7877    41.889567   -8751.6773    16900.294 
  100400    314.15512   -8723.8687    44.948963   -8768.8177   -11262.432 
  100600    271.95043   -8732.0588    38.910364   -8770.9692   -26725.705 
  100800    273.01479   -8734.7762    39.062652   -8773.8388    16382.658 
  101000    261.60115    -8729.078      37.4296   -8766.5076    2883.0101 
  101200    320.55385     -8718.03    45.864486   -8763.8945    22886.055 
  101400    294.49062   -8718.8159    42.135389   -8760.9513    34059.961 
  101600    249.03849   -8725.9125    35.632148   -8761.5447    -29969.97 
  101800    340.17741   -8713.2418    48.672203    -8761.914    32826.266 
  102000    278.63192   -8727.1767    39.866344   -8767.0431   -1430.6638 
  102200    318.66947   -8722.2286    45.594872   -8767.8235    3348.3194 
  102400    308.17356    -8719.035    44.093128   -8763.1281     26037.15 
  102600    277.50515   -8724.3274    39.705127   -8764.0325    2066.0556 
  102800    269.21781   -8725.6096    38.519384    -8764.129   -28437.617 
  103000    280.84197   -8729.2418    40.182556   -8769.4244   -5043.9829 
  103200    290.88315   -8718.7043    41.619237   -8760.3235   -4543.1367 
  103400    300.23521   -8724.3229    42.957319   -8767.2802    9732.0063 
  103600    271.17424    -8730.989    38.799306   -8769.7883    30110.029 
  103800    324.70719   -8722.6698    46.458742   -8769.1285    7517.3018 
  104000    275.03942   -8721.5784    39.352332   -8760.9308   -14838.499 
  104200     233.6462   -8731.9526    33.429837   -8765.3825    25847.969 
  104400    293.30633   -8723.9798    41.965942   -8765.9457    26003.254 
  104600    306.25894   -8720.1695    43.819187   -8763.9887    10730.613 
  104800    323.78352   -8724.2263    46.326584   -8770.5529   -11096.276 
  105000    286.52439    -8730.269    40.995589   -8771.2646   -12150.056 
  105200    316.65847   -8715.4878    45.307141    -8760.795    13291.112 
  105400    280.32771   -8729.1703    40.108976   -8769.2792   -6321.1163 
  105600    296.36421   -8728.4806     42.40346   -8770.8841    6281.2164 
  105800    361.00318   -8713.2637    51.651932   -8764.9156    37499.958 
  106000    320.50268   -8725.3977    45.857165   -8771.2549   -11029.058 
  106200    235.03605   -8725.7817    33.628695   -8759.4104    24824.559 
  106400    317.33181   -8715.2972    45.403481   -8760.7007    11099.602 
  106600    268.11359   -8730.8783    38.361393   -8769.2396    45809.483 
  106800    283.94969   -8725.6872    40.627204   -8766.3144    -17204.91 
  107000    325.19791   -8721.2326    46.528953   -8767.7615   -2273.3745 
  107200    316.04705   -8710.9936    45.219659   -8756.2133   -20731.854 
  107400    339.44773   -8713.8423    48.567803   -8762.4101   -27940.118 
  107600    278.23739   -8721.6481    39.809895    -8761.458   -5809.4514 
  107800    346.21523    -8709.345    49.536088   -8758.8811    23217.594 
  108000    344.15521    -8709.355    49.241343   -8758.5963    2618.5152 
  108200    319.83697   -8727.6734    45.761917   -8773.4353    11123.291 
  108400    294.33715   -8725.3698     42.11343   -8767.4832   -1211.7894 
  108600    280.90058   -8710.9965    40.190941   -8751.1875   -9991.9292 
  108800    281.30805   -8725.3861    40.249242   -8765.6354   -15749.902 
  109000    300.69421     -8722.75    43.022992    -8765.773    12878.387 
  109200    288.39957     -8717.24    41.263888   -8758.5039    20307.166 
  109400    249.81051   -8729.9712    35.742608   -8765.7138    26638.712 
  109600    253.62229   -8729.6154    36.287994   -8765.9034   -17395.025 
  109800    326.24419   -8716.6921    46.678654   -8763.3708    4620.6885 
  110000    314.41302   -8717.1336    44.985863   -8762.1195    1992.8384 
  110200    212.08719   -8736.4572    30.345198   -8766.8024   -6377.7972 
  110400    347.11383   -8721.4494    49.664659    -8771.114   -10128.461 
  110600    277.66452   -8724.6254    39.727929   -8764.3533    31372.458 
  110800    282.16219   -8720.0397     40.37145   -8760.4112   -8495.4868 
  111000    333.28788   -8707.9463    47.686458   -8755.6328   -30764.486 
  111200     268.0631   -8722.9907    38.354168   -8761.3449    13219.969 
  111400    298.04169   -8717.7632    42.643472   -8760.4067   -33142.711 
  111600    346.34758   -8710.0164    49.555025   -8759.5714   -3091.1181 
  111800    252.39204   -8729.5828    36.111971   -8765.6947   -16588.996 
  112000     338.5869   -8723.6833    48.444636    -8772.128   -6005.5011 
  112200     323.5088   -8706.3841    46.287278   -8752.6713    18230.489 
  112400    257.99566   -8720.4856     36.91373   -8757.3993    4456.5072 
  112600    297.92423   -8721.8767    42.626665   -8764.5034    3819.1362 
  112800    233.23625   -8735.9777    33.371182   -8769.3489    31074.326 
  113000    300.22613   -8722.5184    42.956019   -8765.4744   -8364.5685 
  113200    294.72349   -8725.9558    42.168708   -8768.1245    41717.972 
  113400    261.58411   -8728.3957    37.427162   -8765.8228   -22219.621 
  113600    350.08735   -8712.1208    50.090106   -8762.2109   -4545.3362 
  113800    273.84927   -8726.7696    39.182048   -8765.9516    14456.902 
  114000    351.80074   -8718.2728    50.335257   -8768.6081   -17641.787 
  114200    312.18128    -8719.002    44.666549   -8763.6685   -11529.593 
  114400    281.48165    -8730.069     40.27408   -8770.3431   -17844.725 
  114600    346.47262   -8715.3267    49.572915   -8764.8996    36185.717 
  114800    299.90286   -8716.5917    42.909765   -8759.5015   -4287.8148 
  115000    345.73913   -8721.6927    49.467968   -8771.1607   -5224.8135 
  115200    279.54319   -8727.0157    39.996727   -8767.0124    3523.3282 
  115400    289.48524   -8725.3704    41.419224   -8766.7896    8233.9095 
  115600     337.2817   -8715.2399    48.257889   -8763.4978   -32796.239 
  115800    284.07612   -8721.6649    40.645293   -8762.3102   -703.39354 
  116000    296.58824   -8720.6087    42.435514   -8763.0442   -46444.518 
  116200     363.2768   -8715.7658    51.977239    -8767.743    13290.848 
  116400    326.19404   -8711.2571    46.671478   -8757.9286     4414.857 
  116600    285.99709   -8730.7396    40.920144   -8771.6598   -6533.3304 
  116800    310.32246   -8722.5733     44.40059   -8766.9739    24621.853 
  117000    357.26084   -8714.9867    51.116481   -8766.1032   -18226.434 
  117200     339.1748   -8722.4238    48.528752   -8770.9525    -8958.028 
  117400    254.36507   -8732.0113    36.394269   -8768.4056    12996.607 
  117600     383.8937   -8713.9448    54.927081   -8768.8719    10412.429 
  117800    272.90759   -8728.2014    39.047313   -8767.2487   -22128.075 
  118000    333.97155   -8723.2399    47.784276   -8771.0242   -6159.0972 
  118200    355.63214   -8701.9095     50.88345    -8752.793    -11465.07 
  118400     319.3702   -8715.1059    45.695131   -8760.8011     43059.13 
  118600    289.10742   -8727.5837    41.365167   -8768.9488    6021.7553 
  118800    285.39237   -8726.9277    40.833621   -8767.7613   -6036.4232 
  119000    309.82858   -8721.8065    44.329927   -8766.1364    13237.771 
  119200    296.44369   -8737.6038    42.414833   -8780.0187   -25751.674 
  119400    259.04108   -8728.0128    37.063308   -8765.0762   -15047.608 
  119600     326.0936   -8717.7706    46.657108   -8764.4277   -21616.733 
  119800    266.41425   -8727.1943    38.118253   -8765.3126    -33673.21 
  120000    253.94791    -8726.364    36.334583   -8762.6986    30385.097 
  120200    338.80336   -8723.2196    48.475606   -8771.6952     -55474.9 
  120400     273.6865   -8726.1393    39.158759    -8765.298     36929.35 
  120600    370.82942   -8709.7773    53.057859   -8762.8352   -6304.1603 
  120800    287.37173   -8725.1811    41.116826    -8766.298    9550.0831 
  121000    292.08757   -8722.8721    41.791564   -8764.6636   -41239.572 
  121200    317.67019   -8719.1956    45.451895   -8764.6475       -23050 
  121400    324.60802   -8727.1253    46.444553   -8773.5698    5757.7723 
  121600    266.13536   -8735.6188    38.078351   -8773.6972   -12627.315 
  121800    390.77619   -8717.6025     55.91182   -8773.5144    17774.161 
  122000    250.65584   -8729.2175    35.863557    -8765.081    19388.572 
  122200    357.30553   -8713.1604    51.122876   -8764.2832    6073.2274 
  122400    274.40853   -8728.3422    39.262066   -8767.6042    13240.731 
  122600    251.11663   -8727.4495    35.929487    -8763.379    29856.428 
  122800     297.7636    -8718.314    42.603684   -8760.9177    24074.691 
  123000    336.81499   -8719.3971    48.191113   -8767.5882   -30220.986 
  123200    244.51564   -8730.2787    34.985025   -8765.2638    32963.321 
  123400    353.53975   -8712.5544    50.584072   -8763.1384   -29818.241 
  123600     271.1962   -8722.1867    38.802449   -8760.9891    4954.0099 
  123800    304.43242   -8727.3755     43.55785   -8770.9334    -58350.99 
  124000    303.07425    -8723.465    43.363525   -8766.8285    10418.082 
  124200    324.95277    -8724.328    46.493879   -8770.8219   -11404.563 
  124400    262.48472   -8728.4235    37.556021   -8765.9795   -11812.705 
  124600    281.29762   -8732.7905    40.247749   -8773.0383    3234.7943 
  124800    333.87011   -8719.0908    47.769762   -8766.8606   -1965.4764 
  125000     322.0286   -8719.3369    46.075492   -8765.4124    8714.1045 
  125200    256.22607   -8735.1033    36.660539   -8771.7639   -41422.737 
  125400    318.99554   -8720.3865    45.641525    -8766.028    5348.3522 
  125600    278.51989   -8719.5573    39.850315   -8759.4076    2239.9915 
  125800    237.75412   -8736.9261    34.017594   -8770.9437   -8367.4292 
  126000    325.71404   -8725.2557    46.602801   -8771.8585    2876.6771 
  126200    273.49861   -8722.2391    39.131875   -8761.3709    36651.794 
  126400    258.61375    -8728.441    37.002167   -8765.4432    -9317.655 
  126600    290.05639   -8736.4675    41.500944   -8777.9684    3458.5933 
  126800    271.39247   -8723.6632    38.830531   -8762.4938   -1807.0658 
  127000    322.63041   -8716.3708    46.161598   -8762.5324   -32894.673 
  127200     244.7156   -8732.9715    35.013635   -8767.9851   -9207.1946 
  127400    318.57059   -8724.2748    45.580725   -8769.8555    3312.3744 
  127600    356.00331   -8716.7985    50.936556   -8767.7351   -15335.998 
  127800    284.42498   -8727.2313    40.695208   -8767.9265   -22127.749 
  128000    327.29947   -8719.6095    46.829642   -8766.4392    4051.2006 
  128200    294.67914   -8716.0905    42.162362   -8758.2529    12035.946 
  128400    285.77285   -8728.0769     40.88806    -8768.965   -3161.3284 
  128600    258.93774   -8734.8347    37.048523   -8771.8832   -31257.324 
  128800    282.14793   -8721.9626     40.36941    -8762.332    1091.5408 
  129000    274.53462   -8720.1653    39.280106   -8759.4454    19989.558 
  129200    273.14018   -8736.1347    39.080592   -8775.2153    9595.7659 
  129400    294.24364   -8726.1062    42.100051   -8768.2063    1471.3779 
  129600    305.96068   -8719.1372    43.776512   -8762.9137   -7572.3247 
  129800    227.30759    -8734.588    32.522916   -8767.1109   -4071.2262 
  130000    268.59077   -8729.1786    38.429668   -8767.6083      6167.38 
  130200    302.75229   -8719.6192    43.317459   -8762.9367    13603.803 
  130400    285.36324    -8731.069    40.829454   -8771.8985    -12895.84 
  130600    337.37633   -8712.6673    48.271428   -8760.9387   -11868.932 
  130800    311.02945   -8724.0951    44.501746   -8768.5969    60078.487 
  131000    310.44355   -8722.7575    44.417916   -8767.1754   -11964.041 
  131200    281.39287    -8729.022    40.261378   -8769.2834   -8882.7872 
  131400     295.2099   -8731.9649    42.238303   -8774.2032    14554.038 
  131600     371.9487    -8716.619    53.218004    -8769.837   -16217.723 
  131800    271.53232   -8728.1462    38.850541   -8766.9967   -17702.215 
  132000    356.34941   -8721.1041    50.986076   -8772.0902     2420.392 
  132200    286.09026   -8725.0417    40.933474   -8765.9752    41453.597 
  132400    254.86717   -8731.8765     36.46611   -8768.3426   -20868.979 
  132600    268.41796   -8715.0268    38.404942   -8753.4317   -15209.779 
  132800    339.69953   -8724.6864     48.60383   -8773.2902    27094.262 
  133000    261.32359   -8726.3762    37.389888   -8763.7661   -34658.576 
  133200    282.82906   -8716.0931    40.466866   -8756.5599   -14948.364 
  133400    238.18427   -8732.0908    34.079139     -8766.17   -10499.571 
  133600    282.72002   -8725.9012    40.451264   -8766.3525    28567.991 
  133800    417.12197   -8704.1743    59.681345   -8763.8556   -7308.2853 
  134000     296.4437   -8728.4907    42.414833   -8770.9056   -20830.618 
  134200    265.25983   -8724.6756    37.953079   -8762.6287    5203.1962 
  134400    306.64877   -8714.2369    43.874963   -8758.1119    32944.971 
  134600    271.18878   -8725.6544    38.801388   -8764.4558    30454.104 
  134800    272.12526   -8732.7335    38.935378   -8771.6689    920.48115 
  135000    317.56305    -8716.322    45.436566   -8761.7586   -37512.998 
  135200    254.07381     -8728.44    36.352596   -8764.7926   -27699.728 
  135400    315.93633    -8722.113    45.203817   -8767.3168    5748.7697 
  135600    334.60596   -8700.9168    47.875047   -8748.7919   -12549.957 
  135800    346.33762   -8721.2324    49.553599    -8770.786    -12811.01 
  136000     304.7887   -8724.9995    43.608826   -8768.6084    -4785.706 
  136200    317.27835   -8719.1432    45.395831    -8764.539    11603.388 
  136400    274.39968   -8735.3888      39.2608   -8774.6496   -20357.366 
  136600    288.52844   -8721.6282    41.282327   -8762.9105   -6012.2323 
  136800    306.61684   -8720.6438    43.870394   -8764.5142    10990.305 
  137000    302.74257    -8717.651    43.316068   -8760.9671   -24305.351 
  137200     381.9781   -8709.3822       54.653   -8764.0352    35697.032 
  137400    319.16413   -8725.9635    45.665647   -8771.6292   -9980.7262 
  137600    305.68409   -8726.8652    43.736938   -8770.6022   -33677.442 
  137800    310.85045   -8726.1168    44.476135    -8770.593   -27323.025 
  138000    331.62959   -8715.0917    47.449191   -8762.5408    7958.6402 
  138200    263.28753    -8731.547    37.670885   -8769.2179   -13520.837 
  138400     314.7498    -8727.113    45.034049   -8772.1471   -34171.183 
  138600    349.47259     -8720.17    50.002148   -8770.1722    3539.8273 
  138800    275.08552   -8730.8691    39.358929   -8770.2281   -6814.6257 
  139000    232.96411   -8736.9576    33.332245   -8770.2899   -8176.5296 
  139200    342.89338   -8717.7055    49.060802   -8766.7663   -25938.773 
  139400    278.39646   -8723.2335    39.832654   -8763.0661    -21755.69 
  139600    274.78806   -8730.8029    39.316369   -8770.1192   -30441.817 
  139800    317.31684   -8725.4496    45.401339   -8770.8509    11776.282 
  140000    319.40635   -8717.7623    45.700304   -8763.4626    18719.368 
  140200    284.59658    -8736.209     40.71976   -8776.9287    7189.1661 
  140400     323.4634   -8724.7019    46.280782   -8770.9827   -9690.6585 
  140600    334.06203   -8718.9046    47.797222   -8766.7018   -21081.694 
  140800     262.1274   -8731.7458    37.504895   -8769.2507   -19924.129 
  141000    273.94671   -8736.8726    39.195989   -8776.0686    20692.585 
  141200    350.45977   -8725.8336    50.143393    -8775.977   -2699.6251 
  141400    304.32373   -8720.4114    43.542299   -8763.9537   -34899.726 
  141600    302.08472   -8719.8359    43.221944   -8763.0578   -5370.2174 
  141800     276.6959   -8730.6469     39.58934   -8770.2363    14271.436 
  142000    339.92099   -8712.4877    48.635516   -8761.1232    27622.252 
  142200    335.10407   -8720.4896    47.946315    -8768.436    40860.758 
  142400    352.25375   -8722.3015    50.400072   -8772.7016   -39980.084 
  142600    316.91875   -8724.0456    45.344381     -8769.39    4746.3074 
  142800    277.82686   -8730.4831    39.751157   -8770.2343    25697.756 
  143000    248.75246    -8728.095    35.591225   -8763.6862    117.10136 
  143200    285.86937   -8717.9866    40.901869   -8758.8885    19274.908 
  143400    262.42449   -8731.9867    37.547403   -8769.5341    23572.485 
  143600    276.50137   -8730.5612    39.561507   -8770.1227    16010.491 
  143800    273.69502   -8723.7956    39.159978   -8762.9556    36909.114 
  144000    294.60358   -8728.2173     42.15155   -8770.3688   -12598.142 
  144200    284.74037   -8732.6324    40.740335   -8773.3728   -11122.742 
  144400    391.34626   -8715.4153    55.993385   -8771.4087   -49409.215 
  144600    276.96558   -8721.8033    39.627926   -8761.4312   -15020.418 
  144800    246.10295   -8739.6064    35.212135   -8774.8185    -22369.69 
  145000    274.20558   -8729.3447    39.233028   -8768.5778   -26380.088 
  145200    318.06561   -8721.4183    45.508473   -8766.9267    4747.5483 
  145400    327.17467   -8712.8908    46.811787   -8759.7026   -9615.3563 
  145600    295.81689    -8730.004     42.32515   -8772.3291   -9119.8566 
  145800    316.35838   -8719.3343    45.264204   -8764.5985   -39709.144 
  146000    328.86184    -8709.267    47.053184   -8756.3202   -9104.7925 
  146200    237.19948    -8726.636    33.938237   -8760.5743    47883.002 
  146400    269.19686   -8725.0731    38.516386   -8763.5894    2660.0712 
  146600    339.07628   -8708.1022    48.514656   -8756.6168    36094.474 
  146800    263.25023   -8727.8721    37.665548   -8765.5377    11886.101 
  147000    280.04027    -8718.951    40.067848   -8759.0188    33477.606 
  147200    366.88909   -8707.7324     52.49408   -8760.2265    12303.272 
  147400    269.74901   -8729.5131    38.595386   -8768.1085   -5277.7528 
  147600    327.94776    -8724.214      46.9224   -8771.1364   -10213.896 
  147800    363.26115   -8709.4864       51.975   -8761.4614    24757.939 
  148000    262.41722   -8729.7738    37.546363   -8767.3201   -25810.688 
  148200    255.71047   -8724.7421    36.586768   -8761.3288    11145.535 
  148400    340.07049   -8707.2686    48.656906   -8755.9255   -33596.369 
  148600    244.55747   -8730.8587     34.99101   -8765.8497    4980.1065 
  148800    280.43658   -8729.5156    40.124553   -8769.6401   -2475.5071 
  149000    342.18679   -8711.9103    48.959703     -8760.87   -48302.668 
  149200    281.74787   -8721.8984    40.312171   -8762.2105    12704.605 
  149400    314.54596   -8720.7956    45.004884   -8765.8005    7600.9952 
  149600    355.25301   -8716.0737    50.829204   -8766.9029    4588.9633 
  149800    301.90054   -8727.6797    43.195592   -8770.8753   -8603.7999 
  150000    310.21653   -8731.0617    44.385434   -8775.4471    4841.7818 
  150200    303.14331   -8715.7832    43.373406   -8759.1566    1159.5047 
  150400     328.9013   -8713.4466     47.05883   -8760.5055   -34368.871 
  150600    292.36032   -8721.3072    41.830587   -8763.1378    -3297.567 
  150800    289.45101   -8727.4717    41.414327    -8768.886   -2010.0222 
  151000     381.3673   -8711.5894    54.565607    -8766.155    14948.018 
  151200    336.92951   -8718.2968    48.207498   -8766.5043   -24352.089 
  151400    291.52839   -8729.6003    41.711557   -8771.3118    27052.805 
  151600    300.63225    -8712.542    43.014127   -8755.5562   -4712.4742 
  151800    318.06438   -8710.7611    45.508296   -8756.2694   -435.39138 
  152000    270.73531   -8725.0152    38.736506   -8763.7517   -2368.3407 
  152200    280.72972   -8726.6577    40.166494   -8766.8242    24931.138 
  152400    301.77645   -8731.3325    43.177837   -8774.5104    45983.586 
  152600    292.60591   -8723.7978    41.865727   -8765.6635   -16689.881 
  152800    313.09732   -8713.4376    44.797614   -8758.2352    39218.843 
  153000    297.90775   -8721.1775    42.624308   -8763.8018    -11922.26 
  153200    281.87533   -8730.6437    40.330408   -8770.9741    39002.122 
  153400    341.33909   -8721.2548    48.838415   -8770.0932    7635.5586 
  153600    311.01657   -8723.7273    44.499904   -8768.2272   -27809.217 
  153800    277.70848   -8726.8197    39.734219   -8766.5539   -9317.0318 
  154000    285.54205   -8722.4429    40.855037   -8763.2979   -21701.658 
  154200    308.80854   -8714.4039    44.183981   -8758.5879     35364.75 
  154400    257.05907   -8731.6127    36.779724   -8768.3924    11526.406 
  154600    345.78761   -8721.4962    49.474905   -8770.9711   -15184.384 
  154800    273.89651   -8726.8492    39.188807    -8766.038    23451.713 
  155000    263.50576   -8730.4296    37.702109   -8768.1317   -13447.284 
  155200     315.2391   -8715.1768    45.104058   -8760.2809    36319.777 
  155400    285.35376   -8730.5822    40.828097   -8771.4103    9402.4278 
  155600    304.43771   -8728.6577    43.558607   -8772.2163    -4267.477 
  155800    291.84022   -8719.2391    41.756173   -8760.9953    25049.161 
  156000    333.48205   -8703.0043    47.714239   -8750.7185    24392.101 
  156200    294.20657   -8722.4198    42.094747   -8764.5145    51463.428 
  156400    280.92796   -8719.8469    40.194858   -8760.0417   -151.42714 
  156600    306.80929   -8708.0075    43.897931   -8751.9054    732.62084 
  156800    347.94358   -8718.6057    49.783379   -8768.3891    39935.122 
  157000    335.66213   -8725.0203    48.026163   -8773.0465   -7620.9599 
  157200    222.44922   -8723.2919    31.827786   -8755.1197    18488.274 
  157400     310.9553   -8724.3898    44.491136   -8768.8809    9064.4272 
  157600    234.47606   -8733.0713    33.548572   -8766.6199   -28619.504 
  157800    365.76065   -8717.3703    52.332625    -8769.703   -9241.4425 
  158000    310.83281   -8725.3253    44.473611   -8769.7989      10642.6 
  158200    295.80957    -8738.647    42.324103   -8780.9711   -29416.853 
  158400    285.60252   -8721.6113    40.863689    -8762.475    8472.4438 
  158600    292.84873   -8715.8608    41.900469   -8757.7612    5039.1283 
  158800    295.86855   -8728.6902    42.332542   -8771.0227   -6937.9715 
  159000     370.7843   -8713.5556    53.051403    -8766.607    -19927.12 
  159200    298.37069   -8715.7904    42.690545   -8758.4809   -14707.782 
  159400     304.1926   -8731.2685    43.523537    -8774.792   -14628.338 
  159600    283.34506   -8725.8037    40.540694   -8766.3444    5732.3668 
  159800    426.51871   -8706.3001    61.025821    -8767.326    10900.872 
  160000    309.52319   -8714.2332    44.286232   -8758.5195     32239.53 
  160200     304.5287    -8723.776    43.571626   -8767.3477    23750.524 
  160400    284.21079   -8725.7811    40.664562   -8766.4456    12627.473 
  160600    294.95394   -8715.9549     42.20168   -8758.1565   -318.71115 
  160800    315.57138   -8726.3986    45.151601   -8771.5502   -24836.644 
  161000    290.89154   -8734.2053    41.620436   -8775.8257    27451.704 
  161200    290.55024   -8716.6466    41.571603   -8758.2182    -30527.71 
  161400    325.96583   -8721.1124    46.638826   -8767.7512    10945.406 
  161600    243.98245   -8735.3261    34.908736   -8770.2348   -11029.958 
  161800    274.90201   -8721.4553    39.332673    -8760.788    10748.142 
  162000    280.65499    -8729.582    40.155802   -8769.7378   -34889.069 
  162200     307.3171   -8719.1127    43.970588   -8763.0833   -23825.638 
  162400    300.68161   -8719.1273    43.021189   -8762.1485    8309.5142 
  162600    295.50171   -8722.8243    42.280054   -8765.1044   -8886.2693 
  162800    383.66414   -8708.2584    54.894237   -8763.1526    12229.863 
  163000    290.92881   -8722.5659    41.625768   -8764.1916    4254.9335 
  163200    256.85346   -8731.9759    36.750305   -8768.7262    38892.564 
  163400    251.67415   -8730.5822    36.009256   -8766.5915    10786.273 
  163600    331.79204   -8715.3994    47.472434   -8762.8719   -7095.2834 
  163800      287.231   -8727.2162    41.096691   -8768.3129   -4105.9937 
  164000    389.18519   -8712.9604    55.684182   -8768.6446    -6737.629 
  164200    211.02101   -8724.5132     30.19265   -8754.7059    39911.519 
  164400    304.18434   -8726.1092    43.522355   -8769.6315    15380.176 
  164600    252.81554    -8731.201    36.172565   -8767.3736    37357.055 
  164800    335.27949   -8714.3539    47.971415   -8762.3253    26055.429 
  165000    284.50884   -8726.0892    40.707207   -8766.7964    8447.6832 
  165200    288.22498   -8730.7963    41.238908   -8772.0352   -11057.675 
  165400    308.60191   -8723.6875    44.154417   -8767.8419    50527.272 
  165600     351.3967   -8713.0767    50.277448   -8763.3542    10009.844 
  165800    280.55592   -8731.3872    40.141628   -8771.5288   -5367.0035 
  166000    289.66075   -8723.6704    41.444337   -8765.1148    12374.993 
  166200    301.45349   -8719.6689    43.131628   -8762.8005   -22714.135 
  166400    285.66592   -8727.5289    40.872761   -8768.4017    13269.431 
  166600    250.05506   -8741.1167    35.777598   -8776.8943   -22171.084 
  166800    301.73383   -8724.0343    43.171739    -8767.206   -19990.973 
  167000    378.45481   -8723.0741    54.148892    -8777.223     947.1392 
  167200    261.03662   -8732.6454    37.348828   -8769.9942   -20369.426 
  167400    336.25288   -8718.9613    48.110687    -8767.072   -27876.983 
  167600    295.27874   -8723.8429    42.248153   -8766.0911   -9573.4536 
  167800     246.7226   -8734.7567    35.300794   -8770.0575   -8790.7816 
  168000     332.5017   -8721.0882    47.573972   -8768.6622    31788.798 
  168200    308.50733   -8719.4993    44.140885   -8763.6402    12805.768 
  168400    301.04129   -8735.8356    43.072651   -8778.9082   -44602.202 
  168600    323.63402   -8718.8447    46.305193   -8765.1499    4602.1139 
  168800    302.94832   -8717.5653    43.345506   -8760.9108    4598.4091 
  169000    314.76182   -8727.1926    45.035769   -8772.2284     26926.51 
  169200    292.51357    -8734.567    41.852515   -8776.4195    28423.574 
  169400    307.41293   -8720.4119    43.984298   -8764.3961   -305.66044 
  169600    319.23933   -8723.1642    45.676406   -8768.8406    4499.4123 
  169800    310.78615   -8724.2576    44.466934   -8768.7246   -5120.2359 
  170000    329.92166   -8713.0916    47.204822   -8760.2964    -15842.11 
  170200    287.44401   -8728.5392    41.127168   -8769.6664   -2028.9016 
  170400    231.69891   -8746.9933    33.151221   -8780.1445    30517.912 
  170600    248.20009   -8738.9342    35.512192   -8774.4464   -1098.9884 
  170800    285.56581   -8721.3822    40.858436   -8762.2406    24655.442 
  171000    282.44623   -8714.1419     40.41209    -8754.554    3302.8048 
  171200    326.57482   -8731.2363     46.72596   -8777.9623   -17535.916 
  171400    276.76327    -8725.613    39.598979   -8765.2119     8655.842 
  171600    296.16565   -8719.7702     42.37505   -8762.1453    -85.67459 
  171800     290.0765    -8730.736    41.503821   -8772.2398   -26782.159 
  172000    232.93459   -8738.4385     33.32802   -8771.7665    400.62756 
  172200    302.46799   -8724.1303    43.276783   -8767.4071   -20300.638 
  172400    298.04973   -8717.1772    42.644623   -8759.8218    23421.263 
  172600    334.33831   -8709.9464    47.836752   -8757.7831     54672.02 
  172800    286.48733   -8727.0347    40.990287   -8768.0249   -13348.898 
  173000    285.61581   -8726.4414    40.865591    -8767.307   -44583.529 
  173200    374.79023   -8711.7355    53.624568   -8765.3601   -30362.907 
  173400    284.96527   -8728.3356    40.772512   -8769.1081     304.5115 
  173600    263.84444   -8730.1694    37.750568   -8767.9199    50563.985 
  173800    352.94561    -8718.178    50.499063    -8768.677     22489.42 
  174000    291.08634   -8727.2573    41.648308   -8768.9056    -6623.646 
  174200    274.96638   -8728.5004    39.341882   -8767.8423    1508.2833 
  174400    316.37834   -8718.8574    45.267059   -8764.1245   -16594.029 
  174600    237.20559   -8723.4693    33.939111   -8757.4084    47114.604 
  174800    294.97522   -8725.7833    42.204724   -8767.9881    15498.417 
  175000    359.36133   -8715.2654    51.417017   -8766.6824     16884.64 
  175200    274.84196   -8721.2807    39.324081   -8760.6048   -30030.057 
  175400    334.42075   -8723.0718    47.848547   -8770.9203   -3808.4835 
  175600    246.07366   -8737.9369    35.207944   -8773.1448   -22492.201 
  175800    302.18614   -8726.2384    43.236455   -8769.4749   -13588.645 
  176000    285.62169   -8718.7381    40.866432   -8759.6045   -5460.3109 
  176200    271.58283   -8735.3561    38.857768   -8774.2139    41648.852 
  176400    252.54455   -8729.0162    36.133792     -8765.15    47925.823 
  176600    290.06618   -8723.6336    41.502345    -8765.136    14685.098 
  176800    345.81367   -8725.4321    49.478633   -8774.9108   -29573.918 
  177000     306.2139   -8718.2249    43.812743   -8762.0376   -23210.146 
  177200    254.83625   -8729.8262    36.461686   -8766.2879   -8430.3821 
  177400    322.40942   -8719.9176    46.129979   -8766.0476   -4285.8268 
  177600    327.29261   -8713.2843    46.828661    -8760.113    24442.908 
  177800    254.27753   -8731.7838    36.381744   -8768.1656   -12422.217 
  178000    281.69329   -8724.8534    40.304361   -8765.1577    12867.105 
  178200     281.2012   -8715.3639    40.233953   -8755.5979   -32809.082 
  178400    345.16589   -8700.6122     49.38595   -8749.9981   -3481.6804 
  178600    333.32759   -8717.3704    47.692138   -8765.0626    24634.589 
  178800    277.21174   -8730.8599    39.663146   -8770.5231    12804.436 
  179000    304.11618   -8722.9071    43.512603   -8766.4197    21862.925 
  179200    302.09541   -8722.8421    43.223473   -8766.0656   -7784.5275 
  179400    299.33765   -8724.8383    42.828897   -8767.6672      15815.9 
[...]
  950000    331.93063   -8724.7954    47.492264   -8772.2877    3328.2311 
  950200    236.68454    -8735.685    33.864559   -8769.5496   -21595.012 
  950400    244.92097   -8734.5141    35.043019   -8769.5571   -18280.211 
  950600    306.44362   -8719.8853    43.845611   -8763.7309    56024.577 
  950800    294.04913   -8731.3868     42.07222   -8773.4591    32374.119 
  951000    286.70444   -8738.8206    41.021351    -8779.842    20214.702 
  951200    324.95272   -8723.4567    46.493871   -8769.9506   -33918.913 
  951400    300.76814    -8726.761     43.03357   -8769.7946   -37454.547 
  951600    279.85608   -8742.3147    40.041494   -8782.3562   -3262.5081 
  951800    263.23825   -8745.0432    37.663835   -8782.7071    10868.444 
  952000    262.07533   -8730.2372    37.497446   -8767.7346   -3095.6732 
  952200    306.09487   -8719.6163    43.795712    -8763.412    -659.9242 
  952400    342.89133   -8732.2749    49.060509   -8781.3354    -18858.52 
  952600    292.68569   -8734.9445    41.877142   -8776.8216    7518.6919 
  952800    326.69605   -8717.5531    46.743305   -8764.2964   -41776.495 
  953000    339.72672   -8722.7129     48.60772   -8771.3206   -8808.9777 
  953200    257.48984   -8737.7888    36.841358   -8774.6301   -12290.325 
  953400    237.30801   -8743.5878    33.953764   -8777.5416   -149.93489 
  953600    325.76488   -8724.4635    46.610075   -8771.0735   -5714.4789 
  953800    255.33552   -8731.4959    36.533122    -8768.029   -19153.854 
  954000    281.93354   -8739.4754    40.338736   -8779.8142    3554.5913 
  954200    329.66246   -8726.3742    47.167737   -8773.5419   -4257.1806 
  954400    318.06318   -8718.0503    45.508124   -8763.5584    12910.807 
  954600    276.41784   -8735.6385    39.549555    -8775.188   -41844.619 
  954800    270.00641   -8731.8048    38.632216    -8770.437   -1918.1328 
  955000    339.22288   -8718.2356     48.53563   -8766.7713   -4297.4542 
  955200    276.18362   -8736.3347    39.516044   -8775.8507   -891.08762 
  955400    300.57707     -8722.16    43.006232   -8765.1663   -21000.456 
  955600     321.1006   -8723.9092    45.942715   -8769.8519     22685.65 
  955800    303.56105   -8725.8846    43.433176   -8769.3178   -26369.401 
  956000    287.85189   -8726.4246    41.185526   -8767.6101   -27111.636 
  956200    285.41808   -8739.2377      40.8373    -8780.075    17749.715 
  956400    296.16785   -8726.8149    42.375365   -8769.1902    16435.245 
  956600    304.03602   -8724.7432    43.501133   -8768.2443   -14085.962 
  956800    363.37418   -8707.9288    51.991172     -8759.92    10734.477 
  957000    293.19388   -8729.3461    41.949853    -8771.296    15734.137 
  957200    289.27742    -8728.749    41.389491   -8770.1385    40096.049 
  957400    374.81593   -8713.7798    53.628244    -8767.408   -518.95376 
  957600    252.58781   -8735.6583    36.139982   -8771.7983   -29919.789 
  957800    308.52244   -8725.8785    44.143046   -8770.0215   -12402.433 
  958000    304.50942   -8721.4397    43.568867   -8765.0086   -889.73845 
  958200    236.39359   -8739.5098    33.822931   -8773.3328    21529.434 
  958400    329.37052    -8727.539    47.125966   -8774.6649   -42979.769 
  958600    253.90047   -8724.2742    36.327796    -8760.602    -16277.77 
  958800    313.04008   -8734.7986    44.789425    -8779.588   -4465.7225 
  959000    242.97229   -8743.5056    34.764204   -8778.2698    24903.165 
  959200    299.79742   -8722.8081    42.894679   -8765.7028   -50892.145 
  959400    306.32876   -8725.0234    43.829177   -8768.8526   -9726.9316 
  959600    257.96283   -8735.5487    36.909033   -8772.4577   -4641.2756 
  959800    309.65323   -8715.1991    44.304838    -8759.504    16801.647 
  960000    338.20587   -8724.8831    48.390117   -8773.2732    23939.187 
  960200    265.79597   -8733.8884     38.02979   -8771.9182    30805.103 
  960400    305.45643   -8724.6828    43.704365   -8768.3871   -31826.137 
  960600    296.02326   -8722.5928    42.354678   -8764.9475    -44329.06 
  960800    263.99681   -8734.9441    37.772369   -8772.7165   -7390.7375 
  961000    307.00421   -8727.7992     43.92582    -8771.725   -23518.907 
  961200    331.39095   -8721.0486    47.415047   -8768.4636    13636.614 
  961400    308.15085   -8727.0527    44.089879   -8771.1426   -33196.847 
  961600    282.79705   -8733.6561    40.462286   -8774.1183   -20391.323 
  961800    358.78701   -8717.7686    51.334844   -8769.1034    6865.8529 
  962000    311.94572   -8724.0237    44.632845   -8768.6566   -36045.451 
  962200    258.04737     -8734.71    36.921129   -8771.6311    43269.689 
  962400    291.61515   -8725.8675    41.723969   -8767.5915   -6731.9646 
  962600    369.01868   -8715.7065     52.79878   -8768.5053   -7902.2606 
  962800    237.43401   -8731.5206    33.971792   -8765.4924     4096.951 
  963000    278.07652    -8731.459    39.786878   -8771.2458   -9734.9504 
  963200    313.73641   -8713.5447    44.889055   -8758.4337    50269.887 
  963400    297.35503   -8722.7942    42.545226   -8765.3394   -28966.316 
  963600    286.94638   -8727.3344    41.055968   -8768.3904    19667.138 
  963800    326.25541   -8711.0533    46.680259   -8757.7336   -3461.2002 
  964000    281.42392   -8731.0321    40.265819    -8771.298   -55984.001 
  964200    347.68446   -8723.6088    49.746305   -8773.3551    19934.718 
  964400    260.77325   -8725.7897    37.311145   -8763.1009   -29205.891 
  964600    277.97619   -8735.1069    39.772523   -8774.8794    10073.173 
  964800    339.13824   -8718.0907     48.52352   -8766.6142    1201.0949 
  965000    247.25956   -8728.0848    35.377622   -8763.4624    27275.666 
  965200    229.70247   -8741.8068    32.865573   -8774.6724    50533.485 
  965400    236.34912   -8741.0129    33.816568   -8774.8295    15717.497 
  965600    252.97612   -8726.6067    36.195541   -8762.8022   -15083.908 
  965800     297.6835   -8725.2088    42.592223    -8767.801   -13242.627 
  966000    246.13207   -8739.6533    35.216301   -8774.8696   -18960.322 
  966200    357.07942    -8717.616    51.090524   -8768.7065   -39067.719 
  966400    303.53066   -8725.2566    43.428828   -8768.6854   -14984.297 
  966600    253.30335   -8736.9069     36.24236   -8773.1492    20251.022 
  966800    317.04533   -8718.5038    45.362491   -8763.8663    44948.479 
  967000    303.72733   -8726.7912    43.456966   -8770.2482   -6652.2261 
  967200    281.18974   -8732.0697    40.232314    -8772.302   -5491.3667 
  967400    334.15591   -8726.5085    47.810654   -8774.3192    1390.6565 
  967600    289.86127   -8728.3458    41.473027   -8769.8189     4796.277 
  967800    322.31609   -8722.6047    46.116626   -8768.7213   -26842.781 
  968000    352.27609   -8724.6288    50.403269   -8775.0321    4498.4118 
  968200    283.59224   -8732.4771    40.576061   -8773.0532   -23614.199 
  968400    303.31196   -8716.3462    43.397537   -8759.7438    191.63467 
  968600     297.5039   -8726.7875    42.566525   -8769.3541    20409.375 
  968800    275.77434   -8727.7311    39.457484   -8767.1886    13424.837 
  969000    278.79821   -8732.6542    39.890136   -8772.5443   -20788.346 
  969200    270.60036   -8736.7539    38.717197   -8775.4711    1595.2308 
  969400    277.51014   -8726.2417     39.70584   -8765.9476   -4264.6672 
  969600    304.75569   -8730.5132    43.604104   -8774.1173   -7836.1918 
  969800    284.24257   -8738.3962     40.66911   -8779.0653   -9086.0257 
  970000    313.29068    -8721.364    44.825281   -8766.1893   -23022.195 
  970200     349.9217   -8726.3254    50.066406   -8776.3918   -23843.264 
  970400    251.62476   -8739.6049    36.002189   -8775.6071   -21128.933 
  970600    349.02705   -8726.8939    49.938401   -8776.8323   -51018.582 
  970800    268.34847   -8729.3417       38.395   -8767.7367    -29580.44 
  971000    355.58052   -8724.3958    50.876063   -8775.2719   -5132.9428 
  971200    348.72178   -8725.9868    49.894722   -8775.8815   -3064.7694 
  971400    279.85717   -8731.2833    40.041651    -8771.325   -9801.6653 
  971600    334.25614   -8718.5064    47.824995   -8766.3314    9385.4529 
  971800     311.9633   -8729.6493    44.635361   -8774.2847     21532.04 
  972000    346.23152   -8714.3796    49.538419    -8763.918   -15000.795 
  972200     309.5182    -8721.937    44.285519   -8766.2225    27242.541 
  972400    313.64968   -8729.5662    44.876645   -8774.4429   -55422.107 
  972600    334.18682   -8720.6926    47.815076   -8768.5077   -12425.477 
  972800    223.16187   -8730.0523    31.929751    -8761.982   -11428.097 
  973000    325.05197   -8731.8502    46.508072   -8778.3583   -62520.223 
  973200    378.53217   -8712.1718     54.15996   -8766.3317    16551.136 
  973400     352.6683   -8727.1418    50.459386   -8777.6011   -1601.9212 
  973600    273.71902   -8730.2699    39.163412   -8769.4333    69480.568 
  973800    282.88886   -8720.8255    40.475422    -8761.301    17730.211 
  974000    330.12479   -8717.8279    47.233886   -8765.0618   -4585.7546 
  974200    291.96704   -8733.1167    41.774317    -8774.891   -14907.763 
  974400    285.15336   -8733.0379    40.799424   -8773.8373    12406.877 
  974600    327.28214   -8714.5497    46.827162   -8761.3768   -11416.821 
  974800    287.73758   -8733.1643    41.169171   -8774.3335   -15854.963 
  975000    246.00108   -8732.2643     35.19756   -8767.4619    36286.695 
  975200    320.96717   -8717.0964    45.923623     -8763.02   -8876.2402 
  975400    364.26496   -8729.5596    52.118624   -8781.6782   -53.427776 
  975600    262.73433    -8733.194    37.591735   -8770.7857   -5851.9626 
  975800    349.46022   -8723.9891    50.000377   -8773.9895    15816.637 
  976000    258.58666   -8733.1563    36.998291   -8770.1546   -16728.063 
  976200    306.49127   -8727.2113    43.852429   -8771.0638    40869.312 
  976400    296.63784   -8731.0382     42.44261   -8773.4808   -28480.059 
  976600    288.96649   -8723.2927    41.345002   -8764.6377   -21365.259 
  976800    306.72896   -8713.2692    43.886436   -8757.1556    13830.202 
  977000    291.08901   -8733.2205    41.648691   -8774.8692   -5331.4233 
  977200     284.5007   -8724.9345    40.706042   -8765.6405    14155.943 
  977400    364.04619    -8713.137    52.087322   -8765.2243    -5397.462 
  977600    268.79433   -8732.4375    38.458793   -8770.8963    8494.2569 
  977800    249.97943   -8727.5195    35.766778   -8763.2863    5401.2476 
  978000    379.96638    -8717.725    54.365165   -8772.0902    7425.0825 
  978200    300.60006   -8725.2968     43.00952   -8768.3063    54862.389 
  978400    289.09052   -8729.9147    41.362748   -8771.2774    8212.9208 
  978600      250.225   -8730.7269    35.801914   -8766.5288   -3851.0958 
  978800    298.38919   -8722.9132    42.693192   -8765.6064   -888.48511 
  979000    330.21254   -8721.6134    47.246441   -8768.8598    51070.501 
  979200    296.94154   -8736.3109    42.486064    -8778.797    63257.249 
  979400    286.51945   -8725.1279    40.994883   -8766.1228    11076.635 
  979600    328.08777   -8722.4074    46.942431   -8769.3498    2176.8207 
  979800    268.73941   -8736.1809    38.450935   -8774.6318      3047.21 
  980000    377.69315   -8721.3026    54.039914   -8775.3426     29433.09 
  980200    283.70166    -8727.335    40.591717   -8767.9267   -21295.568 
  980400    263.95787   -8727.9632    37.766797     -8765.73    713.53573 
  980600    264.30861    -8722.534    37.816981   -8760.3509    9773.6396 
  980800    328.64861   -8734.7956    47.022676   -8781.8183   -6260.0913 
  981000    289.00334   -8730.3354    41.350274   -8771.6857   -9605.1621 
  981200    316.10409   -8725.9556    45.227819   -8771.1835   -24897.894 
  981400    266.32234    -8731.474    38.105103   -8769.5791     51598.04 
  981600    329.87633   -8715.1329    47.198337   -8762.3312    36889.803 
  981800    298.48743   -8728.4293    42.707248   -8771.1365    15066.722 
  982000    305.56768   -8731.1007    43.720283    -8774.821    13654.234 
  982200    293.12799   -8720.6551    41.940425   -8762.5955    6214.0853 
  982400     371.7141    -8714.241    53.184437   -8767.4255     7571.686 
  982600    267.89745   -8733.2407    38.330468   -8771.5712    15248.509 
  982800    366.14715   -8723.7215    52.387925   -8776.1095    43384.417 
  983000     252.7159   -8735.7968    36.158308   -8771.9551   -480.50966 
  983200    304.08249   -8726.1771    43.507783   -8769.6849    19446.817 
  983400    315.60535   -8721.4695    45.156461    -8766.626    15973.373 
  983600    277.34707   -8727.5741    39.682509   -8767.2567   -558.93731 
  983800    344.92804   -8724.3969    49.351918   -8773.7488     8978.501 
  984000    308.57641   -8731.1609    44.150767   -8775.3116   -12350.445 
  984200    202.82289   -8738.7049    29.019673   -8767.7246   -30338.818 
  984400    316.84786   -8721.7853    45.334238   -8767.1195   -7998.5464 
  984600    341.54414   -8715.5212    48.867755    -8764.389    4330.9642 
  984800    325.63996   -8730.2101    46.592202   -8776.8023    -23777.23 
  985000    283.73284   -8732.0511    40.596178   -8772.6473    5743.6755 
  985200    288.58917   -8717.0808    41.291016   -8758.3718   -27875.618 
  985400    325.70272   -8727.4241    46.601181   -8774.0253   -10210.758 
  985600    289.98888   -8731.9623    41.491286   -8773.4536    11034.692 
  985800    321.82837    -8714.126    46.046843   -8760.1728   -1171.5572 
  986000    261.96612   -8725.7781    37.481819   -8763.2599    13840.742 
  986200    279.31298   -8731.0618     39.96379   -8771.0256    10827.391 
  986400    315.87429   -8717.3998     45.19494   -8762.5948   -12714.384 
  986600    317.52253   -8725.0716    45.430769   -8770.5023    848.10945 
  986800    287.44602   -8730.2985    41.127455    -8771.426   -21481.212 
  987000    286.90739   -8723.8666    41.050388    -8764.917    14630.864 
  987200    366.23548   -8720.2596    52.400563   -8772.6602   -33170.093 
  987400    279.60272   -8732.8475    40.005244   -8772.8527   -9200.4287 
  987600    325.64336   -8715.8414    46.592687   -8762.4341   -18648.617 
  987800    333.43115   -8720.1097    47.706956   -8767.8167   -6723.3237 
  988000     249.7351   -8730.6921    35.731819   -8766.4239   -17643.794 
  988200    297.26782    -8732.452    42.532747   -8774.9847    14434.811 
  988400    341.56143   -8714.7364    48.870228   -8763.6067    5434.7473 
  988600     278.0276   -8736.1652    39.779879   -8775.9451    -24785.73 
  988800    331.12352   -8728.6896    47.376783   -8776.0664     23339.21 
  989000     332.4192   -8723.2158    47.562168    -8770.778   -16269.502 
  989200    240.76987   -8739.5355    34.449084   -8773.9845   -26618.799 
  989400     255.8786   -8731.3684    36.610824   -8767.9792   -9595.0066 
  989600    327.37352    -8723.774    46.840238   -8770.6142    2023.6414 
  989800     246.0345   -8736.2186    35.202341    -8771.421   -13910.048 
  990000    315.16169   -8725.2736    45.092983   -8770.3665    24509.845 
  990200    290.60213   -8716.1578    41.579028   -8757.7368   -16869.193 
  990400    270.04456   -8735.5145    38.637674   -8774.1522    7600.6565 
  990600    325.35163   -8726.6007    46.550948   -8773.1516   -309.60699 
  990800    401.65433   -8716.7334    57.468252   -8774.2017   -13226.075 
  991000    294.40675   -8734.2693    42.123388   -8776.3927   -8462.4397 
  991200    264.00662   -8733.6908    37.773772   -8771.4645   -1642.7828 
  991400    259.21482   -8715.5521    37.088167   -8752.6402   -4374.7601 
  991600    305.43434   -8727.3602    43.701205   -8771.0614    -60622.22 
  991800    290.92915   -8725.6955    41.625817   -8767.3213    6658.2979 
  992000    266.66205   -8726.3235    38.153708   -8764.4772    51838.852 
  992200    284.92665    -8734.469    40.766987    -8775.236   -8674.5473 
  992400    317.10396   -8728.5026     45.37088   -8773.8734   -12166.187 
  992600    309.87206   -8731.6075    44.336148   -8775.9436    18974.237 
  992800    253.91082   -8743.5959    36.329277   -8779.9252     2765.444 
  993000    323.19171   -8727.6606    46.241908   -8773.9025    18868.077 
  993200     336.5664   -8731.3301    48.155544   -8779.4856    -45571.98 
  993400    227.83005   -8739.8902    32.597669   -8772.4879   -24218.793 
  993600    323.29692   -8723.5325    46.256962   -8769.7894    6224.7908 
  993800    380.03115   -8722.9051    54.374432   -8777.2796    3694.0143 
  994000    303.73863   -8737.4121    43.458584   -8780.8707    50371.285 
  994200    335.77805   -8729.8246    48.042749   -8777.8673    20775.335 
  994400    299.30859   -8727.7518    42.824738   -8770.5766   -8933.3226 
  994600    292.88455   -8722.6216    41.905594   -8764.5272    1092.0839 
  994800    360.86067    -8711.105    51.631542   -8762.7366    16657.831 
  995000    300.75938    -8727.804    43.032316   -8770.8363    13440.736 
  995200    288.91943   -8727.4262    41.338269   -8768.7645   -55004.733 
  995400    349.17653   -8715.2179    49.959787   -8765.1777   -5846.3577 
  995600    329.14465    -8731.462    47.093648   -8778.5556   -46140.366 
  995800    318.64877   -8726.6599     45.59191   -8772.2518   -17994.643 
  996000    344.89618   -8716.3265     49.34736   -8765.6739   -3958.7863 
  996200    305.80475   -8732.3664    43.754202   -8776.1206    214.68947 
  996400    261.91502   -8729.1111    37.474508   -8766.5856   -17594.633 
  996600    305.19087   -8720.7119    43.666369   -8764.3783    12219.758 
  996800    270.64774   -8726.3942    38.723976   -8765.1182    4266.1954 
  997000    263.98679   -8737.0908    37.770934   -8774.8618    25430.683 
  997200     323.0966   -8721.7768      46.2283   -8768.0051   -1011.3935 
  997400    328.33119   -8723.8631     46.97726   -8770.8404    2627.0059 
  997600    254.51646   -8737.8244    36.415931   -8774.2403   -20765.281 
  997800    304.03579   -8732.1867    43.501101   -8775.6878   -14168.829 
  998000       323.29   -8720.0792    46.255972   -8766.3351   -30092.524 
  998200    252.85033    -8734.732    36.177542   -8770.9095    17534.455 
  998400    321.40651   -8716.2328    45.986484   -8762.2193    11060.609 
  998600    270.49128   -8728.6045     38.70159   -8767.3061   -7030.8298 
  998800    285.23719   -8732.6284    40.811419   -8773.4398    -35223.63 
  999000    404.09491   -8713.4029    57.817448   -8771.2203    28537.887 
  999200    308.41551   -8727.8279    44.127747   -8771.9556   -38714.622 
  999400    318.75221   -8729.2921     45.60671   -8774.8988   -10824.151 
  999600    354.12243   -8727.6042    50.667441   -8778.2717   -22041.222 
  999800     302.5503   -8719.3635    43.288559   -8762.6521    13424.604 
 1000000    308.03106    -8737.249     44.07274   -8781.3218    18559.868 
Loop time of 2265.33 on 8 procs for 1000000 steps with 49 atoms

Performance: 9.535 ns/day, 2.517 hours/ns, 441.437 timesteps/s
99.4% CPU use with 8 MPI tasks x no OpenMP threads

MPI task timing breakdown:
Section |  min time  |  avg time  |  max time  |%varavg| %total
---------------------------------------------------------------
Pair    | 1928.5     | 1947.3     | 1968.2     |  31.4 | 85.96
Neigh   | 0.10796    | 0.10966    | 0.1107     |   0.2 |  0.00
Comm    | 23.668     | 44.438     | 63.185     | 207.4 |  1.96
Output  | 0.087456   | 0.094644   | 0.13968    |   5.5 |  0.00
Modify  | 271.54     | 271.73     | 271.97     |   0.9 | 12.00
Other   |            | 1.625      |            |       |  0.07

Nlocal:    6.125 ave 7 max 6 min
Histogram: 7 0 0 0 0 0 0 0 0 1
Nghost:    575.625 ave 584 max 569 min
Histogram: 2 0 1 0 2 0 1 1 0 1
Neighs:    770.5 ave 872 max 748 min
Histogram: 6 1 0 0 0 0 0 0 0 1

Total # of neighbors = 6164
Ave neighs/atom = 125.796
Neighbor list builds = 171
Dangerous builds = 0

Please see the log.cite file for references relevant to this simulation

Total wall time: 0:37:52
