ITEM: TIMESTEP
0
ITEM: NUMBER OF ATOMS
129
ITEM: BOX BOUNDS xy xz yz pp pp pp
0.0000000000000000e+00 2.3654499999999999e+01 7.8845000000000001e+00
0.0000000000000000e+00 1.3658086643083999e+01 0.0000000000000000e+00
0.0000000000000000e+00 2.5747000000000000e+01 0.0000000000000000e+00
ITEM: ATOMS id type x y z 
18 1 10.522 6.683 2.644 
28 1 5.247 4.273 12.803 
31 1 9.65 6.514 0.446 
62 1 9.171 5.15 12.405 
91 1 9.65 6.514 11.889 
92 1 10.81 6.18 11.007 
106 1 10.522 6.683 9.691 
127 1 10.81 6.18 1.328 
4 1 4.402 5.735 13.319 
5 1 3.307 5.568 14.201 
43 1 4.549 6.796 15.517 
52 1 9.172 5.15 25.677 
66 1 4.402 5.735 24.762 
67 1 5.003 6.76 23.881 
88 1 5.247 4.273 25.278 
107 1 3.307 5.568 23.881 
116 1 4.549 6.796 22.565 
117 1 5.003 6.76 14.201 
11 1 11.272 7.494 3.321 
12 1 10.477 8.871 4.018 
14 1 9.018 11.397 0.446 
15 1 10.114 11.565 1.328 
16 1 8.412 9.024 0.654 
19 1 10.477 8.871 5.569 
29 1 10.927 10.156 3.321 
32 1 8.77 7.648 1.328 
35 1 12.036 9.594 2.644 
45 1 9.231 8.963 3.321 
47 1 12.762 8.702 0.446 
49 1 11.224 11 0.654 
51 1 8.872 10.337 2.644 
53 1 11.272 7.494 9.014 
54 1 10.477 8.871 8.317 
56 1 9.018 11.397 11.889 
57 1 8.418 10.372 11.007 
58 1 11.224 11 11.681 
60 1 12.255 7.901 9.691 
61 1 10.477 8.871 6.766 
73 1 9.231 8.963 9.014 
75 1 12.762 8.702 11.889 
76 1 12.202 10.061 11.007 
79 1 9.224 7.617 9.691 
80 1 8.174 12.859 12.405 
89 1 10.927 10.156 9.014 
93 1 8.412 9.024 11.681 
95 1 9.951 11.095 9.691 
105 1 10.114 11.565 11.007 
109 1 8.77 7.648 11.007 
110 1 12.036 9.594 9.691 
114 1 8.872 10.337 9.691 
119 1 8.418 10.372 1.328 
120 1 12.255 7.901 2.644 
123 1 12.202 10.061 1.328 
124 1 9.224 7.617 2.644 
128 1 9.951 11.095 2.644 
6 1 5.009 8.108 13.527 
13 1 9.663 10.28 25.128 
17 1 9.204 8.965 25.162 
30 1 10.016 7.556 25.128 
34 1 11.289 7.464 25.162 
36 1 8.174 12.859 25.677 
46 1 11.752 8.777 25.128 
50 1 10.937 10.184 25.162 
55 1 9.663 10.28 12.954 
59 1 10.937 10.184 12.919 
74 1 11.752 8.777 12.954 
78 1 11.289 7.464 12.919 
90 1 10.016 7.556 12.954 
94 1 9.204 8.965 12.919 
101 1 5.009 8.108 24.555 
33 1 11.795 6.589 0.654 
77 1 11.795 6.589 11.681 
41 1 17.967 6.132 13.527 
68 1 17.967 6.132 24.554 
103 1 19.24 6.037 22.565 
126 1 19.24 6.037 15.517 
3 1 19.528 6.852 12.254 
7 1 19.987 8.167 12.289 
10 1 15.106 8.528 12.804 
22 1 19.175 9.576 12.254 
26 1 17.902 9.668 12.289 
38 1 17.439 8.356 12.254 
42 1 18.254 6.949 12.289 
44 1 20.019 11.982 12.804 
48 1 12.546 7.4 1.328 
65 1 19.528 6.852 0.081 
69 1 18.254 6.949 0.046 
82 1 17.439 8.356 0.081 
86 1 17.902 9.668 0.046 
96 1 14.084 8.604 12.405 
98 1 19.175 9.576 0.081 
102 1 19.987 8.167 0.046 
113 1 12.546 7.4 11.007 
1 1 17.919 9.638 16.194 
2 1 18.714 8.261 16.892 
8 1 18.669 10.449 15.517 
9 1 18.714 8.261 18.442 
20 1 14.084 8.604 25.677 
21 1 18.264 6.977 16.194 
23 1 19.541 10.618 13.32 
24 1 20.421 9.484 14.201 
25 1 17.396 10.544 13.527 
27 1 17.155 7.538 15.517 
37 1 19.96 8.169 16.194 
39 1 16.429 8.43 13.319 
40 1 16.644 9.732 14.201 
63 1 17.919 9.638 21.888 
64 1 18.714 8.261 21.19 
70 1 16.936 9.231 22.565 
71 1 18.714 8.261 19.64 
72 1 20.019 11.982 25.278 
81 1 19.96 8.169 21.888 
83 1 16.429 8.43 24.762 
84 1 16.989 7.071 23.881 
85 1 17.396 10.544 24.555 
87 1 19.967 9.515 22.565 
97 1 18.263 6.977 21.888 
99 1 19.541 10.618 24.762 
100 1 18.38 10.953 23.881 
104 1 15.106 8.528 25.278 
108 1 18.669 10.449 22.565 
111 1 20.421 9.484 23.881 
112 1 17.155 7.538 22.565 
115 1 16.644 9.732 23.881 
118 1 16.936 9.231 15.517 
121 1 16.989 7.071 14.201 
122 1 19.967 9.515 15.517 
125 1 18.38 10.953 14.201 
129 2 18.714 9.361 18.442 
ITEM: TIMESTEP
10
ITEM: NUMBER OF ATOMS
129
ITEM: BOX BOUNDS xy xz yz pp pp pp
0.0000000000000000e+00 2.3654499999999999e+01 7.8845000000000001e+00
0.0000000000000000e+00 1.3658086643083999e+01 0.0000000000000000e+00
0.0000000000000000e+00 2.5747000000000000e+01 0.0000000000000000e+00
ITEM: ATOMS id type x y z 
18 1 10.378 6.74556 2.64451 
28 1 5.16976 4.42982 12.8511 
31 1 9.43927 6.48469 0.418027 
62 1 9.16035 5.24939 12.3752 
91 1 9.43884 6.4809 11.9158 
92 1 10.8363 6.16983 10.9832 
106 1 10.3752 6.73871 9.68719 
127 1 10.8319 6.17059 1.3578 
4 1 4.43688 5.78849 13.2474 
5 1 3.22549 5.56949 14.2117 
43 1 4.59517 6.90509 15.5011 
52 1 9.1611 5.24935 25.7067 
66 1 4.44511 5.77807 24.832 
67 1 5.07746 6.89004 23.9163 
88 1 5.1732 4.42361 25.2312 
107 1 3.21523 5.57298 23.8731 
116 1 4.59545 6.9275 22.572 
117 1 5.08095 6.89085 14.1563 
11 1 11.3301 7.55293 3.33365 
12 1 10.4907 8.83121 4.11 
14 1 8.98049 11.3389 0.380348 
15 1 10.1947 11.5608 1.34137 
16 1 8.47285 8.93944 0.715437 
19 1 10.4738 8.8683 5.55715 
29 1 10.9425 10.1413 3.32621 
32 1 8.76888 7.72797 1.27439 
35 1 12.0128 9.56545 2.58296 
45 1 9.24799 8.97259 3.25529 
47 1 12.7695 8.74128 0.552946 
49 1 11.2808 10.9648 0.671445 
51 1 8.82838 10.2072 2.62759 
53 1 11.334 7.55099 8.99702 
54 1 10.4929 8.85031 8.23177 
56 1 8.98969 11.3482 11.9293 
57 1 8.36124 10.2434 11.0473 
58 1 11.2985 10.9112 11.6796 
60 1 12.2567 8.01266 9.64746 
61 1 10.4745 8.87027 6.78112 
73 1 9.24273 8.9722 9.08181 
75 1 12.7497 8.76525 11.7786 
76 1 12.2015 10.0603 11.0244 
79 1 9.23955 7.65628 9.77748 
80 1 8.25385 12.6983 12.3552 
89 1 10.9261 10.1386 9.01112 
93 1 8.46214 8.93876 11.6147 
95 1 10.0361 11.0663 9.69274 
105 1 10.2076 11.5386 11.0095 
109 1 8.7671 7.72269 11.056 
110 1 12.0301 9.58629 9.7527 
114 1 8.82821 10.1995 9.71319 
119 1 8.35327 10.2362 1.28562 
120 1 12.2517 8.03045 2.69021 
123 1 12.196 10.0611 1.26515 
124 1 9.24205 7.65302 2.55545 
128 1 10.0284 11.0668 2.64047 
6 1 4.94702 8.19692 13.585 
13 1 9.55281 10.3185 25.1524 
17 1 9.19616 8.95975 25.1991 
30 1 9.96321 7.68952 25.1129 
34 1 11.2958 7.46645 25.1259 
36 1 8.24975 12.7053 25.7242 
46 1 11.6661 8.79572 25.0548 
50 1 11.0443 10.1147 25.2445 
55 1 9.60246 10.3096 12.9552 
59 1 10.9975 10.1063 12.8689 
74 1 11.6533 8.83643 13.0014 
78 1 11.2959 7.49203 12.9475 
90 1 9.96095 7.68635 12.9726 
94 1 9.18677 8.9464 12.8862 
101 1 4.96986 8.1877 24.4865 
33 1 11.7538 6.56865 0.665158 
77 1 11.7527 6.57454 11.6759 
41 1 17.9127 6.16504 13.5412 
68 1 17.9073 6.16594 24.5229 
103 1 19.1578 6.05202 22.5634 
126 1 19.1713 6.04988 15.5087 
3 1 19.6409 6.8048 12.2784 
7 1 19.99 8.16626 12.3237 
10 1 15.1437 8.48404 12.8352 
22 1 19.2243 9.43924 12.2389 
26 1 17.8958 9.67254 12.2502 
38 1 17.5251 8.33621 12.178 
42 1 18.1533 7.02308 12.3732 
44 1 20.0312 11.8869 12.8321 
48 1 12.5991 7.51603 1.38277 
65 1 19.6668 6.76653 0.0716342 
69 1 18.1897 7.04834 -0.0373537 
82 1 17.5264 8.3588 0.165627 
86 1 17.8893 9.69016 0.092728 
96 1 14.0283 8.65059 12.3656 
98 1 19.2084 9.45321 0.0896529 
102 1 19.9315 8.13813 0.0450493 
113 1 12.5959 7.52163 10.9587 
1 1 17.8582 9.58161 16.2044 
2 1 18.6886 8.25881 16.8786 
8 1 18.8131 10.3929 15.5165 
9 1 18.7141 8.33849 18.5202 
20 1 14.0445 8.64438 25.7103 
21 1 18.2492 6.9877 16.212 
23 1 19.7531 10.6537 13.2907 
24 1 20.4255 9.40655 14.1366 
25 1 17.4372 10.5687 13.5362 
27 1 17.1564 7.5701 15.4453 
37 1 19.9638 8.15177 16.1399 
39 1 16.4208 8.38892 13.4235 
40 1 16.5852 9.6196 14.2545 
63 1 17.8407 9.59408 21.8796 
64 1 18.6883 8.29731 21.1005 
70 1 16.9372 9.10021 22.5148 
71 1 18.7138 8.14292 19.7501 
72 1 20.0305 11.886 25.2494 
81 1 19.9555 8.15367 21.9718 
83 1 16.4145 8.38866 24.6463 
84 1 17.0097 7.06862 23.9533 
85 1 17.4322 10.571 24.538 
87 1 19.9481 9.46869 22.636 
97 1 18.2563 6.98206 21.9 
99 1 19.7475 10.6515 24.7966 
100 1 18.3565 10.9674 23.8595 
104 1 15.1431 8.48704 25.2442 
108 1 18.8178 10.3974 22.5542 
111 1 20.4312 9.4166 23.9368 
112 1 17.1789 7.56384 22.6287 
115 1 16.5897 9.61405 23.8269 
118 1 16.9318 9.0972 15.565 
121 1 16.9933 7.06946 14.1361 
122 1 19.9569 9.5083 15.4169 
125 1 18.3567 10.9662 14.2306 
129 2 18.7179 9.4686 18.3509 
ITEM: TIMESTEP
20
ITEM: NUMBER OF ATOMS
129
ITEM: BOX BOUNDS xy xz yz pp pp pp
0.0000000000000000e+00 2.3654499999999999e+01 7.8845000000000001e+00
0.0000000000000000e+00 1.3658086643083999e+01 0.0000000000000000e+00
0.0000000000000000e+00 2.5747000000000000e+01 0.0000000000000000e+00
ITEM: ATOMS id type x y z 
18 1 10.3913 6.75533 2.63969 
28 1 5.13317 4.51489 12.8692 
31 1 9.43866 6.53294 0.418041 
62 1 9.12598 5.25199 12.3794 
91 1 9.43826 6.52698 11.9102 
92 1 10.8095 6.19087 10.9728 
106 1 10.3922 6.75281 9.69784 
127 1 10.808 6.18844 1.36541 
4 1 4.44111 5.81498 13.2545 
5 1 3.22202 5.57688 14.2083 
43 1 4.58624 6.91373 15.4721 
52 1 9.12715 5.25309 25.7024 
66 1 4.44684 5.80146 24.8224 
67 1 5.07778 6.92081 23.8927 
88 1 5.14039 4.50142 25.2133 
107 1 3.22257 5.58134 23.8745 
116 1 4.57779 6.93337 22.6007 
117 1 5.08435 6.90237 14.1863 
11 1 11.3213 7.57483 3.35361 
12 1 10.4859 8.851 4.0907 
14 1 8.98796 11.3099 0.388395 
15 1 10.1944 11.5503 1.33279 
16 1 8.41281 8.93202 0.702584 
19 1 10.4713 8.86593 5.55987 
29 1 10.9615 10.1314 3.32878 
32 1 8.73128 7.66759 1.29572 
35 1 12.0171 9.60197 2.57118 
45 1 9.23188 8.93275 3.26575 
47 1 12.732 8.74678 0.51715 
49 1 11.3078 11.013 0.685369 
51 1 8.84997 10.1916 2.60941 
53 1 11.3229 7.56713 8.9816 
54 1 10.4813 8.86412 8.25071 
56 1 8.9954 11.3321 11.9273 
57 1 8.34956 10.228 11.0198 
58 1 11.3526 10.9473 11.6674 
60 1 12.2629 8.00959 9.62104 
61 1 10.4719 8.86921 6.77668 
73 1 9.22652 8.93197 9.06943 
75 1 12.7004 8.80089 11.7853 
76 1 12.2455 10.0471 11.0109 
79 1 9.22357 7.66608 9.78058 
80 1 8.29734 12.604 12.3297 
89 1 10.9475 10.1375 8.9961 
93 1 8.40682 8.92832 11.6301 
95 1 10.0257 11.0534 9.68369 
105 1 10.2067 11.5038 11.0198 
109 1 8.7297 7.6704 11.0389 
110 1 12.0458 9.62643 9.74149 
114 1 8.85488 10.1919 9.73125 
119 1 8.34398 10.2289 1.31779 
120 1 12.2536 8.04027 2.71313 
123 1 12.1992 10.0571 1.2482 
124 1 9.22444 7.66969 2.55332 
128 1 10.0212 11.0454 2.65683 
6 1 5.00607 8.19639 13.5701 
13 1 9.62976 10.2837 25.15 
17 1 9.16571 8.94389 25.1508 
30 1 9.92302 7.70703 25.0927 
34 1 11.2789 7.49779 25.1205 
36 1 8.28998 12.6137 25.7445 
46 1 11.7093 8.79046 25.099 
50 1 11.0465 10.1383 25.2436 
55 1 9.61976 10.2707 12.9842 
59 1 10.9857 10.1249 12.9007 
74 1 11.6826 8.83863 12.9791 
78 1 11.2768 7.51797 12.9469 
90 1 9.92414 7.69866 12.9969 
94 1 9.16283 8.94289 12.9255 
101 1 5.00133 8.19603 24.5079 
33 1 11.7419 6.59331 0.688215 
77 1 11.7373 6.60462 11.658 
41 1 17.885 6.11763 13.5563 
68 1 17.8876 6.11643 24.521 
103 1 19.1763 6.06339 22.5542 
126 1 19.1857 6.06864 15.5164 
3 1 19.5615 6.85212 12.2689 
7 1 20.0232 8.18665 12.2823 
10 1 15.1393 8.47022 12.8379 
22 1 19.2683 9.41875 12.2219 
26 1 17.9129 9.6366 12.2451 
38 1 17.4842 8.34584 12.2232 
42 1 18.1485 6.99409 12.3701 
44 1 20.065 11.8816 12.8282 
48 1 12.5754 7.52267 1.38761 
65 1 19.5908 6.79535 0.0798869 
69 1 18.1934 7.03356 -0.0330458 
82 1 17.4847 8.37236 0.114534 
86 1 17.8977 9.66209 0.10004 
96 1 14.0331 8.66726 12.3637 
98 1 19.2461 9.43113 0.0970767 
102 1 19.9743 8.16145 0.0605713 
113 1 12.5689 7.5284 10.9499 
1 1 17.8682 9.54959 16.213 
2 1 18.703 8.25034 16.8676 
8 1 18.8084 10.3767 15.5084 
9 1 18.717 8.37679 18.5188 
20 1 14.0443 8.65908 25.7156 
21 1 18.2248 6.98536 16.2043 
23 1 19.7478 10.6063 13.2871 
24 1 20.4588 9.47107 14.1678 
25 1 17.4488 10.5426 13.5607 
27 1 17.1463 7.52915 15.4333 
37 1 19.9619 8.19399 16.1324 
39 1 16.4691 8.38843 13.3881 
40 1 16.6111 9.61413 14.2586 
63 1 17.8533 9.58704 21.866 
64 1 18.6974 8.27691 21.1228 
70 1 16.9314 9.09431 22.494 
71 1 18.7137 8.15698 19.739 
72 1 20.0632 11.8779 25.2527 
81 1 19.9646 8.18625 21.9623 
83 1 16.4581 8.38699 24.6961 
84 1 17.0007 7.0751 23.9646 
85 1 17.4443 10.5485 24.5104 
87 1 19.9681 9.45919 22.6533 
97 1 18.2324 6.9822 21.9018 
99 1 19.7493 10.596 24.7969 
100 1 18.3844 10.9441 23.8431 
104 1 15.1409 8.47239 25.2398 
108 1 18.797 10.3829 22.5694 
111 1 20.4608 9.45262 23.9287 
112 1 17.1755 7.52815 22.6424 
115 1 16.6142 9.61318 23.821 
118 1 16.9267 9.08919 15.5807 
121 1 16.9835 7.07005 14.1164 
122 1 19.9754 9.48173 15.4122 
125 1 18.381 10.9482 14.2365 
129 2 18.7209 9.48118 18.3779 
ITEM: TIMESTEP
30
ITEM: NUMBER OF ATOMS
129
ITEM: BOX BOUNDS xy xz yz pp pp pp
0.0000000000000000e+00 2.3654499999999999e+01 7.8845000000000001e+00
0.0000000000000000e+00 1.3658086643083999e+01 0.0000000000000000e+00
0.0000000000000000e+00 2.5747000000000000e+01 0.0000000000000000e+00
ITEM: ATOMS id type x y z 
18 1 10.3751 6.79063 2.66132 
28 1 5.08906 4.63466 12.8884 
31 1 9.38035 6.55366 0.411028 
62 1 9.0668 5.28406 12.3755 
91 1 9.38237 6.55243 11.9214 
92 1 10.7903 6.22071 10.9801 
106 1 10.3756 6.79127 9.68043 
127 1 10.7809 6.20924 1.35943 
4 1 4.43114 5.861 13.2608 
5 1 3.201 5.60802 14.2162 
43 1 4.58615 6.9479 15.4758 
52 1 9.06974 5.28872 25.7061 
66 1 4.4501 5.835 24.8095 
67 1 5.0804 6.97642 23.9165 
88 1 5.10372 4.60706 25.1916 
107 1 3.20248 5.60895 23.8646 
116 1 4.57942 6.96476 22.6013 
117 1 5.08782 6.97632 14.1525 
11 1 11.3222 7.60519 3.3726 
12 1 10.4937 8.84591 4.09868 
14 1 8.99344 11.266 0.395956 
15 1 10.2287 11.5135 1.3549 
16 1 8.35433 8.89229 0.691651 
19 1 10.4684 8.86522 5.55841 
29 1 10.9516 10.1277 3.32462 
32 1 8.65838 7.66714 1.26583 
35 1 12.0393 9.60913 2.57391 
45 1 9.2196 8.93632 3.26461 
47 1 12.6975 8.76049 0.515157 
49 1 11.3423 11.028 0.669461 
51 1 8.85658 10.1525 2.61323 
53 1 11.3261 7.59261 8.96813 
54 1 10.4907 8.84897 8.23459 
56 1 8.99561 11.2685 11.9385 
57 1 8.35328 10.1659 11.039 
58 1 11.3753 10.9282 11.6907 
60 1 12.2674 8.05891 9.58939 
61 1 10.4657 8.86676 6.77803 
73 1 9.22184 8.94037 9.07592 
75 1 12.6747 8.82129 11.7723 
76 1 12.2945 10.0989 10.9877 
79 1 9.20556 7.63988 9.77862 
80 1 8.33945 12.4974 12.3042 
89 1 10.9401 10.1347 8.99203 
93 1 8.33641 8.88735 11.6487 
95 1 10.0528 11.0479 9.69342 
105 1 10.2556 11.4562 11.0103 
109 1 8.66679 7.65505 11.0642 
110 1 12.0712 9.61941 9.71259 
114 1 8.85374 10.1606 9.72513 
119 1 8.33974 10.1469 1.29729 
120 1 12.2572 8.07462 2.72751 
123 1 12.2397 10.0893 1.25539 
124 1 9.2057 7.64476 2.5551 
128 1 10.0318 11.0476 2.65457 
6 1 5.06601 8.24386 13.5605 
13 1 9.6487 10.2257 25.1394 
17 1 9.12178 8.9581 25.1519 
30 1 9.92467 7.72413 25.0515 
34 1 11.2397 7.48576 25.1183 
36 1 8.3348 12.494 25.7658 
46 1 11.7107 8.8071 25.1302 
50 1 11.086 10.1805 25.2511 
55 1 9.6248 10.2328 13.0009 
59 1 11.0138 10.1545 12.887 
74 1 11.666 8.86131 12.9793 
78 1 11.2427 7.53324 12.9462 
90 1 9.90886 7.72319 13.0345 
94 1 9.12459 8.9369 12.9333 
101 1 5.04737 8.23176 24.5225 
33 1 11.7084 6.63241 0.694106 
77 1 11.7013 6.6426 11.6533 
41 1 17.8486 6.10037 13.5377 
68 1 17.8603 6.10147 24.5359 
103 1 19.1706 6.05649 22.5539 
126 1 19.1753 6.07094 15.5129 
3 1 19.5451 6.9029 12.2615 
7 1 20.0695 8.17713 12.2836 
10 1 15.1322 8.45976 12.8341 
22 1 19.2685 9.41092 12.1777 
26 1 17.9546 9.64618 12.2488 
38 1 17.4789 8.32349 12.2505 
42 1 18.105 6.95422 12.3772 
44 1 20.1218 11.8467 12.8302 
48 1 12.5581 7.58193 1.39797 
65 1 19.5934 6.81785 0.112607 
69 1 18.1876 7.02372 -0.0550319 
82 1 17.4473 8.36101 0.0874384 
86 1 17.9431 9.68645 0.0965469 
96 1 14.0396 8.67844 12.3638 
98 1 19.2455 9.43409 0.122601 
102 1 19.9646 8.13926 0.0675678 
113 1 12.5491 7.59059 10.936 
1 1 17.875 9.50628 16.222 
2 1 18.6844 8.25301 16.8816 
8 1 18.8183 10.3415 15.5235 
9 1 18.723 8.42184 18.5169 
20 1 14.0515 8.68445 25.7088 
21 1 18.2374 6.98543 16.1876 
23 1 19.8082 10.5858 13.2805 
24 1 20.5379 9.46381 14.1256 
25 1 17.4841 10.5028 13.5605 
27 1 17.1238 7.51486 15.4336 
37 1 19.9678 8.17564 16.1114 
39 1 16.5021 8.37115 13.3833 
40 1 16.6237 9.5572 14.2627 
63 1 17.845 9.56694 21.8507 
64 1 18.6814 8.27301 21.1019 
70 1 16.9272 9.05877 22.4785 
71 1 18.7142 8.17756 19.7352 
72 1 20.1213 11.8533 25.2552 
81 1 19.9626 8.18365 21.9804 
83 1 16.4926 8.3822 24.7031 
84 1 16.9736 7.04757 23.9687 
85 1 17.4802 10.515 24.5127 
87 1 19.9777 9.47345 22.6557 
97 1 18.248 6.97703 21.9207 
99 1 19.8109 10.567 24.8105 
100 1 18.4074 10.9244 23.8457 
104 1 15.1348 8.4474 25.2457 
108 1 18.8245 10.3363 22.5512 
111 1 20.5247 9.45829 23.9442 
112 1 17.1639 7.52661 22.6503 
115 1 16.6257 9.55031 23.8156 
118 1 16.92 9.04633 15.5856 
121 1 16.9395 7.03318 14.1258 
122 1 19.9918 9.49774 15.4228 
125 1 18.4081 10.9261 14.2322 
129 2 18.7272 9.53308 18.4115 
ITEM: TIMESTEP
40
ITEM: NUMBER OF ATOMS
129
ITEM: BOX BOUNDS xy xz yz pp pp pp
0.0000000000000000e+00 2.3654499999999999e+01 7.8845000000000001e+00
0.0000000000000000e+00 1.3658086643083999e+01 0.0000000000000000e+00
0.0000000000000000e+00 2.5747000000000000e+01 0.0000000000000000e+00
ITEM: ATOMS id type x y z 
18 1 10.3762 6.79651 2.64996 
28 1 5.09368 4.6381 12.8837 
31 1 9.37588 6.56171 0.410526 
62 1 9.04622 5.28797 12.3759 
91 1 9.3782 6.55954 11.924 
92 1 10.7738 6.23475 10.9718 
106 1 10.3751 6.79468 9.69033 
127 1 10.7654 6.22447 1.36817 
4 1 4.42024 5.8832 13.2597 
5 1 3.19168 5.60869 14.218 
43 1 4.58745 6.94478 15.4604 
52 1 9.04852 5.29157 25.7049 
66 1 4.44293 5.85111 24.8098 
67 1 5.08649 6.9909 23.9033 
88 1 5.11052 4.60684 25.1942 
107 1 3.19416 5.60842 23.8612 
116 1 4.57748 6.9616 22.6116 
117 1 5.09562 6.98217 14.1718 
11 1 11.3205 7.60846 3.37354 
12 1 10.4919 8.84077 4.09918 
14 1 9.00545 11.244 0.400495 
15 1 10.2327 11.5123 1.35435 
16 1 8.3389 8.88468 0.675005 
19 1 10.467 8.86459 5.55869 
29 1 10.9549 10.1196 3.32308 
32 1 8.64919 7.64764 1.28004 
35 1 12.0397 9.6236 2.57291 
45 1 9.22953 8.92408 3.26599 
47 1 12.7086 8.77182 0.517331 
49 1 11.3507 11.0408 0.675618 
51 1 8.85404 10.156 2.60039 
53 1 11.3247 7.59502 8.96261 
54 1 10.4835 8.84579 8.23799 
56 1 9.00834 11.2492 11.9376 
57 1 8.34886 10.1468 11.0248 
58 1 11.3864 10.9378 11.6835 
60 1 12.2699 8.05959 9.58492 
61 1 10.4645 8.86588 6.77756 
73 1 9.22629 8.92759 9.07612 
75 1 12.685 8.83674 11.7764 
76 1 12.3089 10.0942 10.9825 
79 1 9.19229 7.64953 9.78499 
80 1 8.33677 12.4927 12.3059 
89 1 10.9512 10.1285 8.98958 
93 1 8.32365 8.88128 11.66 
95 1 10.0365 11.0368 9.69066 
105 1 10.2643 11.4488 11.0151 
109 1 8.65452 7.64346 11.0549 
110 1 12.0779 9.64145 9.70749 
114 1 8.86023 10.1636 9.73698 
119 1 8.3358 10.1413 1.31312 
120 1 12.2547 8.08196 2.73474 
123 1 12.2478 10.0889 1.25182 
124 1 9.19228 7.65165 2.54676 
128 1 10.0231 11.0415 2.65682 
6 1 5.08635 8.24657 13.5442 
13 1 9.66478 10.2259 25.1421 
17 1 9.12553 8.93927 25.1468 
30 1 9.90729 7.73121 25.045 
34 1 11.2398 7.49481 25.1221 
36 1 8.3323 12.4866 25.763 
46 1 11.7057 8.79876 25.1232 
50 1 11.0846 10.173 25.253 
55 1 9.63157 10.2288 13.0035 
59 1 11.0071 10.1523 12.9002 
74 1 11.6651 8.85699 12.9765 
78 1 11.241 7.53761 12.9477 
90 1 9.90081 7.72581 13.0398 
94 1 9.11267 8.9286 12.936 
101 1 5.05557 8.23598 24.5349 
33 1 11.6979 6.64372 0.699479 
77 1 11.6995 6.65832 11.649 
41 1 17.8413 6.08577 13.5442 
68 1 17.8578 6.09448 24.5335 
103 1 19.1817 6.06258 22.5561 
126 1 19.1842 6.07639 15.5123 
3 1 19.5271 6.90499 12.2646 
7 1 20.065 8.19268 12.2707 
10 1 15.1306 8.45641 12.8319 
22 1 19.2836 9.40203 12.1705 
26 1 17.9513 9.64003 12.2462 
38 1 17.4857 8.33408 12.2459 
42 1 18.1079 6.95847 12.3779 
44 1 20.1429 11.8443 12.8286 
48 1 12.5539 7.58505 1.39238 
65 1 19.5818 6.8149 0.116178 
69 1 18.1886 7.0312 -0.0567444 
82 1 17.4599 8.37641 0.0927143 
86 1 17.925 9.67954 0.100035 
96 1 14.0363 8.68011 12.3615 
98 1 19.2584 9.4309 0.134227 
102 1 19.9668 8.14618 0.0687704 
113 1 12.5374 7.59723 10.9353 
1 1 17.8746 9.49724 16.2215 
2 1 18.6938 8.25098 16.8828 
8 1 18.8195 10.3333 15.5137 
9 1 18.7268 8.43909 18.5218 
20 1 14.0492 8.68823 25.7089 
21 1 18.228 6.99161 16.187 
23 1 19.8141 10.5782 13.2792 
24 1 20.546 9.48973 14.148 
25 1 17.4918 10.4931 13.569 
27 1 17.1226 7.49828 15.4333 
37 1 19.9554 8.1914 16.1177 
39 1 16.4913 8.35942 13.3852 
40 1 16.6286 9.55257 14.2566 
63 1 17.8481 9.55753 21.8461 
64 1 18.6853 8.2696 21.1086 
70 1 16.9288 9.05476 22.4732 
71 1 18.7135 8.18302 19.7315 
72 1 20.1407 11.8461 25.2552 
81 1 19.9565 8.19127 21.9731 
83 1 16.4804 8.37268 24.7016 
84 1 16.9678 7.04714 23.9743 
85 1 17.4859 10.5049 24.503 
87 1 19.9959 9.46721 22.6633 
97 1 18.2373 6.9825 21.9177 
99 1 19.8198 10.5654 24.8058 
100 1 18.4261 10.9111 23.8395 
104 1 15.1335 8.44308 25.2468 
108 1 18.8156 10.3375 22.5596 
111 1 20.5372 9.47166 23.9396 
112 1 17.1653 7.50982 22.6516 
115 1 16.6312 9.54992 23.8211 
118 1 16.923 9.03786 15.5892 
121 1 16.9308 7.03313 14.1164 
122 1 20.0066 9.48956 15.4078 
125 1 18.4228 10.913 14.2384 
129 2 18.7295 9.54778 18.4202 
ITEM: TIMESTEP
50
ITEM: NUMBER OF ATOMS
129
ITEM: BOX BOUNDS xy xz yz pp pp pp
0.0000000000000000e+00 2.3654499999999999e+01 7.8845000000000001e+00
0.0000000000000000e+00 1.3658086643083999e+01 0.0000000000000000e+00
0.0000000000000000e+00 2.5747000000000000e+01 0.0000000000000000e+00
ITEM: ATOMS id type x y z 
18 1 10.3665 6.81054 2.65427 
28 1 5.09393 4.65908 12.8794 
31 1 9.3606 6.56652 0.405853 
62 1 9.01036 5.29538 12.377 
91 1 9.36285 6.56923 11.9276 
92 1 10.7578 6.25079 10.9776 
106 1 10.3655 6.80646 9.68682 
127 1 10.7476 6.23869 1.36539 
4 1 4.41375 5.90612 13.2671 
5 1 3.1831 5.61596 14.2175 
43 1 4.58869 6.95497 15.4562 
52 1 9.01177 5.29819 25.7033 
66 1 4.43559 5.869 24.8061 
67 1 5.09025 7.00437 23.9076 
88 1 5.11375 4.62334 25.1937 
107 1 3.19063 5.61459 23.8639 
116 1 4.58079 6.97077 22.6144 
117 1 5.10015 7.00638 14.164 
11 1 11.3237 7.61252 3.37278 
12 1 10.4937 8.83201 4.09891 
14 1 9.01422 11.2193 0.406456 
15 1 10.2406 11.5073 1.35684 
16 1 8.31753 8.87158 0.666823 
19 1 10.4649 8.86307 5.56299 
29 1 10.9528 10.1206 3.32225 
32 1 8.61963 7.63729 1.27559 
35 1 12.0488 9.63254 2.57419 
45 1 9.22751 8.92274 3.26144 
47 1 12.7154 8.78461 0.512345 
49 1 11.3649 11.0469 0.6765 
51 1 8.85149 10.1468 2.60137 
53 1 11.3272 7.59745 8.9584 
54 1 10.4889 8.83896 8.23704 
56 1 9.02184 11.2248 11.9318 
57 1 8.34216 10.1279 11.0325 
58 1 11.4037 10.9395 11.6802 
60 1 12.2705 8.07367 9.57793 
61 1 10.462 8.86395 6.77321 
73 1 9.22563 8.92653 9.07748 
75 1 12.6881 8.85713 11.7724 
76 1 12.3273 10.099 10.974 
79 1 9.17563 7.64822 9.79284 
80 1 8.33961 12.4703 12.305 
89 1 10.9482 10.1224 8.99131 
93 1 8.30472 8.86197 11.6662 
95 1 10.0426 11.0343 9.69745 
105 1 10.2644 11.4313 11.0143 
109 1 8.62965 7.63529 11.0597 
110 1 12.0912 9.65439 9.70145 
114 1 8.85544 10.1557 9.74136 
119 1 8.32979 10.1203 1.3078 
120 1 12.2521 8.09445 2.73761 
123 1 12.2662 10.1028 1.25555 
124 1 9.17909 7.65068 2.54872 
128 1 10.0182 11.0356 2.6568 
6 1 5.10278 8.26192 13.5323 
13 1 9.66827 10.217 25.1441 
17 1 9.1173 8.93943 25.1426 
30 1 9.90131 7.72608 25.0338 
34 1 11.2345 7.49559 25.1174 
36 1 8.33215 12.4651 25.7601 
46 1 11.7015 8.80013 25.1235 
50 1 11.0925 10.1683 25.2535 
55 1 9.62726 10.2184 13.0031 
59 1 11.0085 10.1539 12.9093 
74 1 11.6621 8.85863 12.9762 
78 1 11.2349 7.53642 12.9513 
90 1 9.89316 7.72682 13.0478 
94 1 9.0978 8.92562 12.9427 
101 1 5.0712 8.24797 24.5408 
33 1 11.6851 6.65839 0.705937 
77 1 11.6879 6.67705 11.6445 
41 1 17.8281 6.07873 13.5423 
68 1 17.8539 6.09134 24.5303 
103 1 19.1824 6.06448 22.5588 
126 1 19.1837 6.08305 15.5105 
3 1 19.5256 6.91952 12.2614 
7 1 20.0716 8.19536 12.2764 
10 1 15.1294 8.44905 12.8291 
22 1 19.2915 9.40148 12.1601 
26 1 17.9582 9.63933 12.2423 
38 1 17.4921 8.33282 12.2438 
42 1 18.0963 6.96288 12.3849 
44 1 20.1794 11.8376 12.8265 
48 1 12.5489 7.59673 1.39786 
65 1 19.5825 6.81405 0.115955 
69 1 18.1865 7.0429 -0.0559173 
82 1 17.4582 8.37765 0.090784 
86 1 17.929 9.68306 0.104189 
96 1 14.0352 8.68433 12.359 
98 1 19.2613 9.4395 0.150347 
102 1 19.9648 8.146 0.0748515 
113 1 12.5279 7.6177 10.93 
1 1 17.8747 9.48784 16.2182 
2 1 18.693 8.24693 16.9017 
8 1 18.8279 10.315 15.5146 
9 1 18.7327 8.47144 18.5321 
20 1 14.0493 8.69558 25.7082 
21 1 18.2281 6.99203 16.1821 
23 1 19.8312 10.5695 13.2759 
24 1 20.5739 9.49399 14.138 
25 1 17.5036 10.4779 13.5732 
27 1 17.1161 7.48569 15.4329 
37 1 19.9593 8.19089 16.1136 
39 1 16.4846 8.34623 13.3807 
40 1 16.6334 9.54021 14.2598 
63 1 17.8485 9.54655 21.8445 
64 1 18.6832 8.26852 21.1047 
70 1 16.9311 9.04309 22.4729 
71 1 18.7141 8.18711 19.7231 
72 1 20.1765 11.8391 25.2566 
81 1 19.9535 8.1922 21.9751 
83 1 16.4732 8.36331 24.7078 
84 1 16.958 7.037 23.9794 
85 1 17.4963 10.4922 24.4947 
87 1 20.0085 9.46648 22.6656 
97 1 18.2407 6.98287 21.917 
99 1 19.8343 10.5585 24.8076 
100 1 18.4459 10.896 23.8444 
104 1 15.1315 8.43496 25.2477 
108 1 18.8258 10.3215 22.5551 
111 1 20.562 9.48103 23.94 
112 1 17.1587 7.49962 22.6534 
115 1 16.6361 9.53958 23.815 
118 1 16.9232 9.01881 15.5866 
121 1 16.9154 7.0166 14.1154 
122 1 20.0199 9.4907 15.4041 
125 1 18.4419 10.8981 14.2361 
129 2 18.734 9.57757 18.4327 
ITEM: TIMESTEP
60
ITEM: NUMBER OF ATOMS
129
ITEM: BOX BOUNDS xy xz yz pp pp pp
0.0000000000000000e+00 2.3654499999999999e+01 7.8845000000000001e+00
0.0000000000000000e+00 1.3658086643083999e+01 0.0000000000000000e+00
0.0000000000000000e+00 2.5747000000000000e+01 0.0000000000000000e+00
ITEM: ATOMS id type x y z 
18 1 10.3547 6.82387 2.6555 
28 1 5.09306 4.68716 12.875 
31 1 9.3404 6.57538 0.402536 
62 1 8.96655 5.30406 12.3788 
91 1 9.34658 6.5752 11.9349 
92 1 10.7382 6.27188 10.9808 
106 1 10.356 6.82173 9.6868 
127 1 10.7265 6.25783 1.36276 
4 1 4.4046 5.93103 13.2714 
5 1 3.17607 5.62554 14.215 
43 1 4.59096 6.96803 15.4512 
52 1 8.96703 5.30673 25.7013 
66 1 4.43374 5.88601 24.803 
67 1 5.09457 7.02368 23.913 
88 1 5.11836 4.64285 25.1934 
107 1 3.18634 5.61754 23.8625 
116 1 4.58287 6.97666 22.6201 
117 1 5.10663 7.02519 14.1596 
11 1 11.3235 7.61905 3.37498 
12 1 10.4973 8.82867 4.09669 
14 1 9.02364 11.1951 0.415407 
15 1 10.2492 11.4961 1.35811 
16 1 8.29619 8.85229 0.655722 
19 1 10.4625 8.86085 5.55864 
29 1 10.9522 10.1141 3.31856 
32 1 8.59291 7.62679 1.27255 
35 1 12.0539 9.64579 2.57489 
45 1 9.22601 8.91837 3.26155 
47 1 12.7195 8.7962 0.513228 
49 1 11.3778 11.0524 0.678535 
51 1 8.84581 10.1394 2.59585 
53 1 11.3277 7.60192 8.95519 
54 1 10.4893 8.83128 8.23789 
56 1 9.02519 11.1983 11.9302 
57 1 8.3353 10.1042 11.0357 
58 1 11.4147 10.928 11.6869 
60 1 12.2692 8.0912 9.56866 
61 1 10.4591 8.86137 6.77653 
73 1 9.22528 8.9237 9.07963 
75 1 12.6898 8.87232 11.7737 
76 1 12.3472 10.1185 10.9661 
79 1 9.15973 7.64841 9.79488 
80 1 8.34152 12.4454 12.3049 
89 1 10.9502 10.118 8.99162 
93 1 8.28172 8.84847 11.6784 
95 1 10.0405 11.02 9.69833 
105 1 10.2819 11.4192 11.0167 
109 1 8.59725 7.62265 11.062 
110 1 12.1038 9.6642 9.69009 
114 1 8.85385 10.146 9.74816 
119 1 8.32516 10.098 1.30455 
120 1 12.2527 8.11065 2.73722 
123 1 12.2799 10.1164 1.25525 
124 1 9.15792 7.64774 2.54067 
128 1 10.0164 11.0288 2.65493 
6 1 5.13226 8.27832 13.5222 
13 1 9.67416 10.2034 25.1465 
17 1 9.1112 8.93255 25.1425 
30 1 9.8959 7.72741 25.0238 
34 1 11.2254 7.49656 25.117 
36 1 8.33239 12.4379 25.7568 
46 1 11.6952 8.79711 25.1223 
50 1 11.1015 10.1681 25.2644 
55 1 9.62873 10.205 13.0059 
59 1 11.0139 10.1571 12.9059 
74 1 11.6544 8.86033 12.9739 
78 1 11.2271 7.54229 12.9528 
90 1 9.88722 7.73034 13.0572 
94 1 9.08268 8.9175 12.949 
101 1 5.08218 8.26144 24.5525 
33 1 11.6714 6.67841 0.712033 
77 1 11.6742 6.70031 11.6403 
41 1 17.8129 6.06929 13.5419 
68 1 17.8477 6.09153 24.5345 
103 1 19.1861 6.07201 22.5607 
126 1 19.1824 6.08931 15.5082 
3 1 19.5181 6.92715 12.265 
7 1 20.0789 8.19948 12.2674 
10 1 15.1256 8.4414 12.8251 
22 1 19.2948 9.40735 12.1487 
26 1 17.966 9.63847 12.2397 
38 1 17.4961 8.33544 12.2426 
42 1 18.0914 6.96361 12.3876 
44 1 20.2239 11.8289 12.824 
48 1 12.5393 7.61286 1.39955 
65 1 19.58 6.82452 0.119294 
69 1 18.1828 7.0483 -0.0612222 
82 1 17.4625 8.38357 0.093315 
86 1 17.9359 9.68624 0.10329 
96 1 14.0349 8.68907 12.3563 
98 1 19.2632 9.43865 0.166094 
102 1 19.9657 8.15357 0.0727357 
113 1 12.5164 7.64072 10.9261 
1 1 17.8735 9.4759 16.2143 
2 1 18.6977 8.24158 16.9231 
8 1 18.8374 10.2963 15.514 
9 1 18.7405 8.5142 18.5396 
20 1 14.0494 8.70406 25.7079 
21 1 18.2308 6.99469 16.1748 
23 1 19.8507 10.5621 13.2703 
24 1 20.6043 9.5077 14.1354 
25 1 17.5174 10.4593 13.5791 
27 1 17.1086 7.46866 15.4302 
37 1 19.9571 8.19173 16.1078 
39 1 16.481 8.33262 13.3791 
40 1 16.6415 9.52408 14.2588 
63 1 17.8512 9.53294 21.8432 
64 1 18.6793 8.26586 21.1027 
70 1 16.9335 9.02592 22.4729 
71 1 18.7151 8.18699 19.7214 
72 1 20.2204 11.8305 25.2585 
81 1 19.9546 8.19442 21.9749 
83 1 16.4668 8.35742 24.7092 
84 1 16.9472 7.02691 23.9809 
85 1 17.5088 10.4753 24.4878 
87 1 20.0257 9.4673 22.6701 
97 1 18.2384 6.98202 21.92 
99 1 19.8515 10.5503 24.811 
100 1 18.469 10.8756 23.847 
104 1 15.129 8.42551 25.2479 
108 1 18.8356 10.3048 22.5533 
111 1 20.5893 9.48795 23.9433 
112 1 17.1549 7.48862 22.6563 
115 1 16.6434 9.52574 23.8127 
118 1 16.9224 8.99886 15.5824 
121 1 16.8975 7.00007 14.1153 
122 1 20.0392 9.48538 15.4003 
125 1 18.462 10.8778 14.232 
129 2 18.7397 9.61829 18.4461 
ITEM: TIMESTEP
70
ITEM: NUMBER OF ATOMS
129
ITEM: BOX BOUNDS xy xz yz pp pp pp
0.0000000000000000e+00 2.3654499999999999e+01 7.8845000000000001e+00
0.0000000000000000e+00 1.3658086643083999e+01 0.0000000000000000e+00
0.0000000000000000e+00 2.5747000000000000e+01 0.0000000000000000e+00
ITEM: ATOMS id type x y z 
18 1 10.3455 6.83315 2.65112 
28 1 5.09725 4.71196 12.8667 
31 1 9.32016 6.57615 0.397511 
62 1 8.91663 5.31455 12.3827 
91 1 9.32567 6.57609 11.9393 
92 1 10.7171 6.29244 10.985 
106 1 10.3469 6.83194 9.69094 
127 1 10.7037 6.27776 1.36122 
4 1 4.40451 5.94283 13.2721 
5 1 3.17304 5.63077 14.2133 
43 1 4.59313 6.96847 15.4395 
52 1 8.91531 5.31628 25.6975 
66 1 4.43716 5.89202 24.8036 
67 1 5.10167 7.03843 23.9175 
88 1 5.12653 4.66292 25.1941 
107 1 3.18623 5.62165 23.865 
116 1 4.5875 6.97677 22.6276 
117 1 5.11424 7.04237 14.1577 
11 1 11.319 7.62597 3.3723 
12 1 10.4951 8.82642 4.09837 
14 1 9.02335 11.1841 0.417049 
15 1 10.2508 11.4903 1.35927 
16 1 8.27472 8.84167 0.645456 
19 1 10.46 8.85723 5.55776 
29 1 10.9507 10.1087 3.31486 
32 1 8.57058 7.61613 1.27182 
35 1 12.0602 9.65638 2.57489 
45 1 9.22276 8.91327 3.26049 
47 1 12.7143 8.80301 0.516602 
49 1 11.3858 11.0663 0.680939 
51 1 8.83822 10.1343 2.58807 
53 1 11.3247 7.60791 8.95483 
54 1 10.4854 8.82665 8.23548 