ITEM: TIMESTEP
0
ITEM: NUMBER OF ATOMS
98
ITEM: BOX BOUNDS pp pp pp
0.0000000000000000e+00 1.6524999999999999e+01
0.0000000000000000e+00 1.6526000000000000e+01
0.0000000000000000e+00 1.6526000000000000e+01
ITEM: ATOMS id type x y z 
1 1 1.813 1.813 1.813 
10 1 5.821 5.821 5.821 
17 1 3.388 3.388 3.388 
26 1 4.246 4.246 4.246 
33 1 0.284 2 2 
41 1 2 0.284 2 
49 1 2 2 0.283 
58 1 7.351 5.634 5.634 
66 1 5.634 7.351 5.634 
74 1 5.634 5.634 7.351 
81 1 2.689 2.689 2.689 
90 1 4.945 4.945 4.945 
4 1 1.813 1.813 14.084 
11 1 5.821 5.821 10.076 
20 1 3.388 3.388 12.509 
27 1 4.246 4.246 11.651 
36 1 0.284 2 13.897 
46 1 2 0.284 13.897 
56 1 2 2 15.614 
59 1 7.351 5.634 10.263 
69 1 5.634 7.351 10.263 
79 1 5.634 5.634 8.546 
84 1 2.689 2.689 13.208 
91 1 4.945 4.945 10.952 
97 2 2.832 3.021 15.937 
98 3 2.832 3.997 15.937 
6 1 1.813 14.084 1.813 
13 1 5.821 10.076 5.821 
22 1 3.388 12.509 3.388 
29 1 4.246 11.651 4.246 
38 1 0.284 13.897 2 
48 1 2 15.614 2 
52 1 2 13.897 0.283 
61 1 7.351 10.263 5.634 
71 1 5.634 8.546 5.634 
75 1 5.634 10.263 7.351 
86 1 2.689 13.208 2.689 
93 1 4.945 10.952 4.945 
7 1 1.813 14.084 14.084 
16 1 5.821 10.076 10.076 
23 1 3.388 12.509 12.509 
32 1 4.246 11.651 11.651 
39 1 0.284 13.897 13.897 
43 1 2 15.614 13.897 
53 1 2 13.897 15.614 
64 1 7.351 10.263 10.263 
68 1 5.634 8.547 10.263 
78 1 5.634 10.263 8.546 
87 1 2.689 13.208 13.208 
96 1 4.945 10.952 10.952 
8 1 14.084 1.813 1.813 
15 1 10.076 5.821 5.821 
24 1 12.509 3.388 3.388 
31 1 11.651 4.246 4.246 
40 1 15.613 2 2 
44 1 13.897 0.284 2 
54 1 13.897 2 0.283 
63 1 8.547 5.634 5.634 
67 1 10.263 7.351 5.634 
77 1 10.263 5.634 7.351 
88 1 13.208 2.689 2.689 
95 1 10.952 4.945 4.945 
5 1 14.084 1.813 14.084 
14 1 10.076 5.821 10.076 
21 1 12.509 3.388 12.509 
30 1 11.651 4.246 11.651 
37 1 15.613 2 13.897 
47 1 13.897 0.284 13.897 
51 1 13.897 2 15.614 
62 1 8.546 5.634 10.263 
72 1 10.263 7.351 10.263 
76 1 10.263 5.634 8.546 
85 1 13.208 2.689 13.208 
94 1 10.952 4.945 10.952 
3 1 14.084 14.084 1.813 
12 1 10.076 10.076 5.821 
19 1 12.509 12.509 3.388 
28 1 11.651 11.651 4.246 
35 1 15.613 13.897 2 
45 1 13.897 15.614 2 
55 1 13.897 13.897 0.283 
60 1 8.547 10.263 5.634 
70 1 10.263 8.547 5.634 
80 1 10.263 10.263 7.351 
83 1 13.208 13.208 2.689 
92 1 10.952 10.952 4.945 
2 1 14.084 14.084 14.084 
9 1 10.076 10.076 10.076 
18 1 12.509 12.509 12.509 
25 1 11.651 11.651 11.651 
34 1 15.613 13.897 13.897 
42 1 13.897 15.614 13.897 
50 1 13.897 13.897 15.614 
57 1 8.546 10.263 10.263 
65 1 10.263 8.546 10.263 
73 1 10.263 10.263 8.547 
82 1 13.208 13.208 13.208 
89 1 10.952 10.952 10.952 
ITEM: TIMESTEP
10
ITEM: NUMBER OF ATOMS
98
ITEM: BOX BOUNDS pp pp pp
0.0000000000000000e+00 1.6524999999999999e+01
0.0000000000000000e+00 1.6526000000000000e+01
0.0000000000000000e+00 1.6526000000000000e+01
ITEM: ATOMS id type x y z 
1 1 1.80707 1.80021 1.80202 
10 1 5.81918 5.81939 5.81928 
17 1 3.39882 3.39936 3.40017 
26 1 4.24602 4.24694 4.24693 
33 1 0.264356 2.00893 2.01229 
41 1 2.00894 0.262091 2.01282 
49 1 1.92726 1.90067 0.359949 
58 1 7.3539 5.62854 5.62859 
66 1 5.6285 7.35355 5.62855 
74 1 5.62853 5.6285 7.35338 
81 1 2.69977 2.69939 2.69726 
90 1 4.94669 4.94506 4.94506 
4 1 1.78759 1.78082 14.0176 
11 1 5.81849 5.81864 10.0783 
20 1 3.39356 3.39358 12.5054 
27 1 4.24267 4.24187 11.6544 
36 1 0.280055 2.00479 13.8892 
46 1 2.00462 0.279128 13.8891 
56 1 2.04115 2.00151 15.6723 
59 1 7.35141 5.62845 10.2685 
69 1 5.62851 7.35176 10.2685 
79 1 5.62846 5.62843 8.54316 
84 1 2.69295 2.69263 13.1984 
91 1 4.93981 4.94142 10.9573 
97 2 2.87659 3.14151 15.8497 
98 3 2.88562 4.05735 15.9371 
6 1 1.81563 14.0753 1.81491 
13 1 5.81856 10.0782 5.81805 
22 1 3.39252 12.5042 3.39195 
29 1 4.24124 11.6549 4.24211 
38 1 0.282315 13.8911 2.00568 
48 1 2.00626 15.6018 2.00695 
52 1 2.0057 13.8912 0.280062 
61 1 7.35171 10.2686 5.6285 
71 1 5.6284 8.54321 5.62852 
75 1 5.62842 10.2685 7.35232 
86 1 2.69456 13.2029 2.69564 
93 1 4.9406 10.958 4.93894 
7 1 1.81552 14.0817 14.082 
16 1 5.81766 10.0792 10.0783 
23 1 3.3925 12.5042 12.5051 
32 1 4.24104 11.655 11.6552 
39 1 0.28187 13.8914 13.8915 
43 1 2.00655 15.6099 13.8928 
53 1 2.00551 13.8915 15.6156 
64 1 7.35141 10.2687 10.2688 
68 1 5.62821 8.54417 10.2688 
78 1 5.62826 10.2687 8.54436 
87 1 2.69453 13.2028 13.2013 
96 1 4.94038 10.9583 10.9581 
8 1 14.0752 1.81586 1.81495 
15 1 10.0784 5.8189 5.81845 
24 1 12.5046 3.39302 3.39207 
31 1 11.6547 4.24133 4.24204 
40 1 15.6015 2.00654 2.00691 
44 1 13.8911 0.281719 2.00573 
54 1 13.8911 2.00575 0.280669 
63 1 8.5433 5.62845 5.62857 
67 1 10.2685 7.35144 5.62856 
77 1 10.2684 5.62851 7.35149 
88 1 13.2019 2.69383 2.69555 
95 1 10.9583 4.94052 4.93915 
5 1 14.0812 1.81613 14.0815 
14 1 10.0789 5.81812 10.0789 
21 1 12.5045 3.39298 12.505 
30 1 11.655 4.24106 11.6552 
37 1 15.6101 2.00686 13.8927 
47 1 13.8912 0.281088 13.8914 
51 1 13.8913 2.00565 15.6156 
62 1 8.54456 5.62816 10.2688 
72 1 10.2687 7.35297 10.2688 
76 1 10.2687 5.62815 8.54417 
85 1 13.202 2.69406 13.2013 
94 1 10.9584 4.94028 10.9581 
3 1 14.081 14.0818 1.81539 
12 1 10.0784 10.0785 5.81872 
19 1 12.505 12.5042 3.39187 
28 1 11.6554 11.6554 4.2424 
35 1 15.6138 13.8914 2.00557 
45 1 13.8915 15.614 2.00556 
55 1 13.8915 13.8914 0.282501 
60 1 8.54631 10.2685 5.62868 
70 1 10.2685 8.54608 5.62865 
80 1 10.2684 10.2684 7.35175 
83 1 13.202 13.2034 2.69531 
92 1 10.9571 10.9571 4.93854 
2 1 14.081 14.0819 14.0815 
9 1 10.0792 10.0793 10.0785 
18 1 12.5052 12.5042 12.505 
25 1 11.6558 11.6557 11.655 
34 1 15.6152 13.8914 13.8915 
42 1 13.8915 15.6148 13.8915 
50 1 13.8916 13.8914 15.6142 
57 1 8.54529 10.2688 10.2688 
65 1 10.2688 8.54324 10.2688 
73 1 10.2688 10.2688 8.54444 
82 1 13.2016 13.2034 13.202 
89 1 10.9574 10.9574 10.9588 
ITEM: TIMESTEP
20
ITEM: NUMBER OF ATOMS
98
ITEM: BOX BOUNDS pp pp pp
0.0000000000000000e+00 1.6524999999999999e+01
0.0000000000000000e+00 1.6526000000000000e+01
0.0000000000000000e+00 1.6526000000000000e+01
ITEM: ATOMS id type x y z 
1 1 1.78134 1.80223 1.85873 
10 1 5.82374 5.82069 5.82018 
17 1 3.38983 3.39113 3.38824 
26 1 4.25587 4.253 4.25326 
33 1 0.257552 2.02212 2.03901 
41 1 2.02409 0.25407 2.0441 
49 1 1.92889 1.84983 0.298525 
58 1 7.3608 5.61725 5.61751 
66 1 5.61719 7.36115 5.61744 
74 1 5.61733 5.6172 7.36084 
81 1 2.69829 2.69649 2.69377 
90 1 4.94792 4.95373 4.95345 
4 1 1.79949 1.79963 14.017 
11 1 5.81454 5.81634 10.0828 
20 1 3.38665 3.38715 12.5194 
27 1 4.23752 4.24058 11.6613 
36 1 0.273105 2.00047 13.8601 
46 1 2.00117 0.264265 13.8567 
56 1 2.03589 1.87367 15.6362 
59 1 7.35988 5.61833 10.2787 
69 1 5.61832 7.35662 10.2787 
79 1 5.61809 5.61827 8.54838 
84 1 2.67452 2.67322 13.1858 
91 1 4.9371 4.93249 10.9598 
97 2 2.86513 3.23121 15.8218 
98 3 3.01316 4.2574 15.9559 
6 1 1.81944 14.0531 1.82061 
13 1 5.81738 10.0837 5.81475 
22 1 3.39492 12.5042 3.39735 
29 1 4.24754 11.6528 4.24425 
38 1 0.270883 13.8758 2.01683 
48 1 2.02142 15.5868 2.02679 
52 1 2.01699 13.8754 0.272626 
61 1 7.35384 10.2785 5.61857 
71 1 5.61836 8.54834 5.6181 
75 1 5.61853 10.2785 7.3544 
86 1 2.69514 13.1945 2.69277 
93 1 4.94047 10.9519 4.94445 
7 1 1.81832 14.088 14.0732 
16 1 5.81719 10.0815 10.0824 
23 1 3.38987 12.5069 12.5041 
32 1 4.24746 11.6523 11.6527 
39 1 0.270301 13.8808 13.882 
43 1 2.02494 15.5995 13.895 
53 1 2.01583 13.8817 15.6089 
64 1 7.35384 10.2784 10.2784 
68 1 5.61851 8.54428 10.2782 
78 1 5.61841 10.2784 8.54343 
87 1 2.69548 13.2016 13.2059 
96 1 4.93966 10.9528 10.9526 
8 1 14.0552 1.81488 1.82148 
15 1 10.0841 5.81636 5.81354 
24 1 12.504 3.39389 3.39734 
31 1 11.6535 4.24735 4.24452 
40 1 15.5965 2.02226 2.02509 
44 1 13.8766 0.276881 2.01638 
54 1 13.8758 2.01688 0.267084 
63 1 8.54799 5.61829 5.61804 
67 1 10.2788 7.35488 5.61848 
77 1 10.2789 5.6184 7.3573 
88 1 13.1952 2.69602 2.69152 
95 1 10.9516 4.94048 4.94389 
5 1 14.086 1.81253 14.0765 
14 1 10.0817 5.81667 10.0806 
21 1 12.5063 3.38822 12.5052 
30 1 11.6527 4.24756 11.6524 
37 1 15.6041 2.0255 13.8967 
47 1 13.8821 0.276795 13.8825 
51 1 13.8826 2.01537 15.6101 
62 1 8.54054 5.61858 10.2783 
72 1 10.2783 7.35544 10.2784 
76 1 10.2781 5.61854 8.54442 
85 1 13.2041 2.69646 13.2057 
94 1 10.9522 4.93973 10.9531 
3 1 14.0776 14.0699 1.8175 
12 1 10.0826 10.0823 5.81261 
19 1 12.506 12.5083 3.39229 
28 1 11.6524 11.6521 4.24157 
35 1 15.6106 13.8825 2.01773 
45 1 13.8814 15.6175 2.01731 
55 1 13.8804 13.8814 0.276151 
60 1 8.54091 10.2787 5.61832 
70 1 10.2786 8.54195 5.61825 
80 1 10.2788 10.2787 7.35695 
83 1 13.2038 13.2001 2.69112 
92 1 10.9571 10.9571 4.94484 
2 1 14.0789 14.0763 14.0749 
9 1 10.0802 10.0795 10.0828 
18 1 12.5057 12.5088 12.5059 
25 1 11.6519 11.6514 11.6548 
34 1 15.6205 13.8809 13.8816 
42 1 13.8802 15.6259 13.8818 
50 1 13.8809 13.8815 15.621 
57 1 8.5447 10.2783 10.2782 
65 1 10.2783 8.54351 10.2781 
73 1 10.2783 10.2784 8.54514 
82 1 13.2065 13.2018 13.2059 
89 1 10.9568 10.957 10.9517 
ITEM: TIMESTEP
30
ITEM: NUMBER OF ATOMS
98
ITEM: BOX BOUNDS pp pp pp
0.0000000000000000e+00 1.6524999999999999e+01
0.0000000000000000e+00 1.6526000000000000e+01
0.0000000000000000e+00 1.6526000000000000e+01
ITEM: ATOMS id type x y z 
1 1 1.77843 1.78232 1.8435 
10 1 5.82843 5.8299 5.83104 
17 1 3.39429 3.39255 3.38782 
26 1 4.24842 4.24787 4.24703 
33 1 0.256267 2.02364 2.04682 
41 1 2.02077 0.255365 2.05487 
49 1 1.93498 1.82164 0.297955 
58 1 7.35652 5.61446 5.61466 
66 1 5.61507 7.35543 5.61486 
74 1 5.61538 5.61492 7.35792 
81 1 2.69426 2.69621 2.69535 
90 1 4.94023 4.94484 4.94463 
4 1 1.79121 1.78143 14.0145 
11 1 5.81858 5.81756 10.0852 
20 1 3.39074 3.3914 12.5116 
27 1 4.23619 4.23816 11.6652 
36 1 0.273535 2.0096 13.8567 
46 1 2.00836 0.266749 13.8489 
56 1 1.97327 1.72543 15.6453 
59 1 7.35101 5.61536 10.2819 
69 1 5.61493 7.35173 10.2819 
79 1 5.61408 5.61464 8.55029 
84 1 2.67716 2.67728 13.1796 
91 1 4.9355 4.93173 10.9621 
97 2 2.90437 3.4083 15.8305 
98 3 3.07419 4.30914 15.9592 
6 1 1.80992 14.0573 1.80794 
13 1 5.82044 10.0806 5.82139 
22 1 3.39618 12.5038 3.39677 
29 1 4.24619 11.6535 4.24426 
38 1 0.280184 13.8716 2.01949 
48 1 2.02562 15.5972 2.03346 
52 1 2.01847 13.87 0.283476 
61 1 7.35488 10.2829 5.61444 
71 1 5.61394 8.54834 5.61366 
75 1 5.61477 10.2826 7.35249 
86 1 2.69302 13.1908 2.69304 
93 1 4.94026 10.9542 4.94284 
7 1 1.81422 14.0774 14.0777 
16 1 5.82076 10.0767 10.0773 
23 1 3.39444 12.5027 12.5012 
32 1 4.24397 11.6545 11.6544 
39 1 0.273774 13.8771 13.8771 
43 1 2.02603 15.604 13.8823 
53 1 2.02084 13.877 15.618 
64 1 7.35362 10.2824 10.2823 
68 1 5.61483 8.54223 10.282 
78 1 5.61459 10.2821 8.54509 
87 1 2.69794 13.1997 13.2019 
96 1 4.93891 10.9549 10.9549 
8 1 14.0643 1.81345 1.80833 
15 1 10.0812 5.81992 5.82055 
24 1 12.5024 3.39614 3.39791 
31 1 11.6549 4.2452 4.24378 
40 1 15.5945 2.02603 2.03093 
44 1 13.8714 0.276785 2.02004 
54 1 13.8706 2.01888 0.280425 
63 1 8.54879 5.61361 5.61334 
67 1 10.2834 7.35521 5.61435 
77 1 10.2831 5.61462 7.35434 
88 1 13.1915 2.69541 2.6928 
95 1 10.9542 4.94013 4.94227 
5 1 14.0817 1.8163 14.0778 
14 1 10.0756 5.8215 10.0777 
21 1 12.5026 3.39314 12.5019 
30 1 11.6549 4.24373 11.6547 
37 1 15.6087 2.02605 13.8859 
47 1 13.8774 0.275717 13.8772 
51 1 13.8773 2.02032 15.6164 
62 1 8.54178 5.61486 10.2817 
72 1 10.2823 7.35255 10.2819 
76 1 10.282 5.61473 8.5459 
85 1 13.2018 2.69836 13.2018 
94 1 10.9548 4.93863 10.9556 
3 1 14.0774 14.079 1.81321 
12 1 10.0771 10.0777 5.822 
19 1 12.5032 12.5046 3.39443 
28 1 11.6544 11.6545 4.24084 
35 1 15.615 13.8774 2.02178 
45 1 13.8778 15.6132 2.02053 
55 1 13.8764 13.8768 0.279944 
60 1 8.54652 10.2818 5.61463 
70 1 10.2818 8.54781 5.61473 
80 1 10.2819 10.2817 7.35 
83 1 13.2018 13.1989 2.69299 
92 1 10.9583 10.9582 4.94244 
2 1 14.0823 14.0842 14.0844 
9 1 10.0777 10.0793 10.0793 
18 1 12.5034 12.5053 12.5042 
25 1 11.655 11.6551 11.6569 
34 1 15.6101 13.877 13.8787 
42 1 13.8771 15.6097 13.8786 
50 1 13.8779 13.8787 15.6099 
57 1 8.54388 10.2824 10.2827 
65 1 10.2825 8.54224 10.2826 
73 1 10.2824 10.2822 8.5435 
82 1 13.2039 13.2003 13.2029 
89 1 10.9592 10.9593 10.9554 
ITEM: TIMESTEP
40
ITEM: NUMBER OF ATOMS
98
ITEM: BOX BOUNDS pp pp pp
0.0000000000000000e+00 1.6524999999999999e+01
0.0000000000000000e+00 1.6526000000000000e+01
0.0000000000000000e+00 1.6526000000000000e+01
ITEM: ATOMS id type x y z 
1 1 1.78289 1.78424 1.84649 
10 1 5.82708 5.82788 5.82943 
17 1 3.39312 3.39206 3.38643 
26 1 4.24778 4.2475 4.24651 
33 1 0.258933 2.02342 2.0471 
41 1 2.02048 0.258252 2.05561 
49 1 1.93466 1.81521 0.297105 
58 1 7.35668 5.61466 5.61486 
66 1 5.61511 7.35586 5.61503 
74 1 5.61543 5.61524 7.35865 
81 1 2.69312 2.69472 2.69486 
90 1 4.94111 4.94493 4.94483 
4 1 1.79446 1.77775 14.0281 
11 1 5.81694 5.8167 10.0843 
20 1 3.38816 3.38971 12.5125 
27 1 4.23818 4.23963 11.6635 
36 1 0.274477 2.01155 13.8575 
46 1 2.0105 0.267915 13.8475 
56 1 1.97232 1.73796 15.6345 
59 1 7.35069 5.61498 10.2825 
69 1 5.61473 7.35143 10.2825 
79 1 5.61395 5.61424 8.55027 
84 1 2.67764 2.67623 13.1816 
91 1 4.93636 4.93331 10.9619 
97 2 2.90077 3.40858 15.8291 
98 3 3.07794 4.312 15.9592 
6 1 1.81148 14.0605 1.81163 
13 1 5.82126 10.0794 5.82138 
22 1 3.39559 12.5036 3.39612 
29 1 4.24597 11.6533 4.24466 
38 1 0.278265 13.8708 2.02003 
48 1 2.02522 15.5939 2.03428 
52 1 2.01939 13.8693 0.279868 
61 1 7.35423 10.2831 5.6143 
71 1 5.61376 8.54788 5.61347 
75 1 5.61456 10.283 7.35341 
86 1 2.69306 13.1913 2.69288 
93 1 4.94151 10.9542 4.94332 
7 1 1.81344 14.0758 14.0817 
16 1 5.8202 10.0762 10.0773 
23 1 3.39383 12.5037 12.5025 
32 1 4.2445 11.6535 11.6532 
39 1 0.278274 13.8769 13.8771 
43 1 2.02429 15.601 13.8792 
53 1 2.02053 13.8766 15.6141 
64 1 7.35363 10.2826 10.2826 
68 1 5.61464 8.54251 10.282 
78 1 5.61436 10.2823 8.54463 
87 1 2.69666 13.2 13.202 
96 1 4.9402 10.9545 10.9546 
8 1 14.0646 1.81287 1.8115 
15 1 10.0801 5.82105 5.82071 
24 1 12.503 3.39504 3.39637 
31 1 11.6538 4.24563 4.24478 
40 1 15.5925 2.02642 2.03128 
44 1 13.8711 0.276865 2.02021 
54 1 13.8701 2.0196 0.278127 
63 1 8.54805 5.61339 5.61323 
67 1 10.2835 7.35448 5.61425 
77 1 10.2834 5.61446 7.3541 
88 1 13.1924 2.69472 2.69253 
95 1 10.9541 4.94146 4.94297 
5 1 14.0807 1.8146 14.0809 
14 1 10.0756 5.82021 10.0781 
21 1 12.5037 3.39265 12.5031 
30 1 11.6538 4.24411 11.6536 
37 1 15.6066 2.02494 13.8836 
47 1 13.8775 0.279026 13.8772 
51 1 13.877 2.02009 15.6129 
62 1 8.54218 5.61462 10.282 
72 1 10.2826 7.35359 10.2824 
76 1 10.2823 5.6144 8.54527 
85 1 13.2022 2.69707 13.202 
94 1 10.9545 4.93979 10.9554 
3 1 14.0791 14.0787 1.8125 
12 1 10.0783 10.0788 5.82092 
19 1 12.5043 12.5052 3.39308 
28 1 11.6539 11.6539 4.24205 
35 1 15.6124 13.8772 2.02162 
45 1 13.8773 15.6126 2.02052 
55 1 13.8763 13.8768 0.280419 
60 1 8.54489 10.2823 5.61419 
70 1 10.2824 8.54571 5.6143 
80 1 10.2824 10.2822 7.35307 
83 1 13.2021 13.2002 2.69264 
92 1 10.9574 10.9575 4.9424 
2 1 14.08 14.0818 14.0826 
9 1 10.0781 10.0785 10.0777 
18 1 12.5043 12.5055 12.5049 
25 1 11.6541 11.6542 11.6554 
34 1 15.6124 13.8764 13.8778 
42 1 13.8764 15.6137 13.8777 
50 1 13.8771 13.8779 15.6145 
57 1 8.54477 10.2826 10.2828 
65 1 10.2826 8.54416 10.2826 
73 1 10.2823 10.2822 8.54446 
82 1 13.2036 13.2012 13.2031 
89 1 10.9577 10.9579 10.955 
ITEM: TIMESTEP
45
ITEM: NUMBER OF ATOMS
98
ITEM: BOX BOUNDS pp pp pp
0.0000000000000000e+00 1.6524999999999999e+01
0.0000000000000000e+00 1.6526000000000000e+01
0.0000000000000000e+00 1.6526000000000000e+01
ITEM: ATOMS id type x y z 
1 1 1.78307 1.78437 1.84663 
10 1 5.82694 5.82775 5.82926 
17 1 3.39308 3.39205 3.38637 
26 1 4.24769 4.24742 4.24643 
33 1 0.25917 2.02342 2.04713 
41 1 2.02048 0.258207 2.05566 
49 1 1.93464 1.81487 0.297278 
58 1 7.35664 5.61464 5.61485 
66 1 5.61509 7.35589 5.61502 
74 1 5.61541 5.61522 7.35894 
81 1 2.69309 2.69468 2.69487 
90 1 4.94115 4.94491 4.94482 
4 1 1.79457 1.77776 14.0287 
11 1 5.81691 5.81667 10.0841 
20 1 3.38807 3.38965 12.5125 
27 1 4.23823 4.23966 11.6634 
36 1 0.274523 2.01167 13.8575 
46 1 2.01067 0.267732 13.8474 
56 1 1.97229 1.73855 15.6339 
59 1 7.35084 5.61497 10.2825 
69 1 5.61473 7.35132 10.2826 
79 1 5.61395 5.61423 8.55028 
84 1 2.67772 2.67623 13.1817 
91 1 4.93637 4.93338 10.9619 
97 2 2.90059 3.40874 15.829 
98 3 3.07817 4.31212 15.9591 
6 1 1.81155 14.0607 1.81167 
13 1 5.82124 10.0794 5.82129 
22 1 3.39557 12.5036 3.39609 
29 1 4.24592 11.6533 4.24464 
38 1 0.278288 13.8708 2.02006 
48 1 2.02519 15.5938 2.03434 
52 1 2.01941 13.8693 0.279747 
61 1 7.35395 10.2831 5.61428 
71 1 5.61373 8.54787 5.61345 
75 1 5.61453 10.283 7.35324 
86 1 2.69306 13.1913 2.69289 
93 1 4.94157 10.9542 4.94334 
7 1 1.81353 14.0759 14.0817 
16 1 5.82017 10.0763 10.0774 
23 1 3.39385 12.5037 12.5025 
32 1 4.24449 11.6534 11.6532 
39 1 0.278604 13.8769 13.877 
43 1 2.02421 15.6008 13.879 
53 1 2.02054 13.8765 15.6143 
64 1 7.35359 10.2826 10.2826 
68 1 5.61462 8.54252 10.2821 
78 1 5.61433 10.2824 8.54489 
87 1 2.69661 13.2 13.202 
96 1 4.94026 10.9545 10.9546 
8 1 14.0645 1.81285 1.81163 
15 1 10.08 5.82108 5.82067 
24 1 12.503 3.39503 3.39633 
31 1 11.6538 4.24561 4.24479 
40 1 15.5924 2.02645 2.03132 
44 1 13.871 0.277248 2.02023 
54 1 13.8701 2.01964 0.278226 
63 1 8.54813 5.61337 5.61321 
67 1 10.2836 7.35432 5.61424 
77 1 10.2834 5.61443 7.35412 
88 1 13.1925 2.6947 2.69255 
95 1 10.9541 4.94151 4.94298 
5 1 14.0806 1.8145 14.0809 
14 1 10.0755 5.82008 10.0781 
21 1 12.5037 3.39267 12.5031 
30 1 11.6538 4.24411 11.6536 
37 1 15.6066 2.0249 13.8835 
47 1 13.8775 0.279076 13.8771 
51 1 13.877 2.02011 15.6127 
62 1 8.54201 5.61462 10.282 
72 1 10.2826 7.35337 10.2824 
76 1 10.2823 5.61439 8.54533 
85 1 13.2022 2.69702 13.202 
94 1 10.9545 4.93984 10.9554 
3 1 14.0792 14.0786 1.81253 
12 1 10.0784 10.0789 5.82081 
19 1 12.5043 12.5052 3.39306 
28 1 11.6539 11.6539 4.24209 
35 1 15.6124 13.8772 2.02163 
45 1 13.8773 15.6123 2.02054 
55 1 13.8763 13.8768 0.280607 
60 1 8.54509 10.2824 5.61415 
70 1 10.2824 8.54572 5.61427 
80 1 10.2824 10.2822 7.3533 
83 1 13.2021 13.2002 2.69265 
92 1 10.9574 10.9575 4.94237 
2 1 14.0799 14.0816 14.0825 
9 1 10.0781 10.0785 10.0776 
18 1 12.5043 12.5055 12.5049 
25 1 11.6541 11.6542 11.6554 
34 1 15.6122 13.8764 13.8777 
42 1 13.8763 15.6139 13.8777 
50 1 13.877 13.8778 15.6145 
57 1 8.54486 10.2826 10.2829 
65 1 10.2826 8.5445 10.2826 
73 1 10.2824 10.2822 8.54452 
82 1 13.2036 13.2012 13.2031 
89 1 10.9577 10.9579 10.955 
ITEM: TIMESTEP
46
ITEM: NUMBER OF ATOMS
98
ITEM: BOX BOUNDS pp pp pp
0.0000000000000000e+00 1.6524999999999999e+01
0.0000000000000000e+00 1.6526000000000000e+01
0.0000000000000000e+00 1.6526000000000000e+01
ITEM: ATOMS id type x y z 
1 1 1.78307 1.78437 1.84663 
10 1 5.82694 5.82775 5.82926 
17 1 3.39308 3.39205 3.38637 
26 1 4.24769 4.24742 4.24643 
33 1 0.25917 2.02342 2.04713 
41 1 2.02048 0.258207 2.05566 
49 1 1.93464 1.81487 0.297278 
58 1 7.35664 5.61464 5.61485 
66 1 5.61509 7.35589 5.61502 
74 1 5.61541 5.61522 7.35894 
81 1 2.69309 2.69468 2.69487 
90 1 4.94115 4.94491 4.94482 
4 1 1.79457 1.77776 14.0287 
11 1 5.81691 5.81667 10.0841 
20 1 3.38807 3.38965 12.5125 
27 1 4.23823 4.23966 11.6634 
36 1 0.274523 2.01167 13.8575 
46 1 2.01067 0.267732 13.8474 
56 1 1.97229 1.73855 15.6339 
59 1 7.35084 5.61497 10.2825 
69 1 5.61473 7.35132 10.2826 
79 1 5.61395 5.61423 8.55028 
84 1 2.67772 2.67623 13.1817 
91 1 4.93637 4.93338 10.9619 
97 2 2.90059 3.40874 15.829 
98 3 3.07817 4.31212 15.9591 
6 1 1.81155 14.0607 1.81167 
13 1 5.82124 10.0794 5.82129 
22 1 3.39557 12.5036 3.39609 
29 1 4.24592 11.6533 4.24464 
38 1 0.278288 13.8708 2.02006 
48 1 2.02519 15.5938 2.03434 
52 1 2.01941 13.8693 0.279747 
61 1 7.35395 10.2831 5.61428 
71 1 5.61373 8.54787 5.61345 
75 1 5.61453 10.283 7.35324 
86 1 2.69306 13.1913 2.69289 
93 1 4.94157 10.9542 4.94334 
7 1 1.81353 14.0759 14.0817 
16 1 5.82017 10.0763 10.0774 
23 1 3.39385 12.5037 12.5025 
32 1 4.24449 11.6534 11.6532 
39 1 0.278604 13.8769 13.877 
43 1 2.02421 15.6008 13.879 
53 1 2.02054 13.8765 15.6143 
64 1 7.35359 10.2826 10.2826 
68 1 5.61462 8.54252 10.2821 
78 1 5.61433 10.2824 8.54489 
87 1 2.69661 13.2 13.202 
96 1 4.94026 10.9545 10.9546 
8 1 14.0645 1.81285 1.81163 
15 1 10.08 5.82108 5.82067 
24 1 12.503 3.39503 3.39633 
31 1 11.6538 4.24561 4.24479 
40 1 15.5924 2.02645 2.03132 
44 1 13.871 0.277248 2.02023 
54 1 13.8701 2.01964 0.278226 
63 1 8.54813 5.61337 5.61321 
67 1 10.2836 7.35432 5.61424 
77 1 10.2834 5.61443 7.35412 
88 1 13.1925 2.6947 2.69255 
95 1 10.9541 4.94151 4.94298 
5 1 14.0806 1.8145 14.0809 
14 1 10.0755 5.82008 10.0781 
21 1 12.5037 3.39267 12.5031 
30 1 11.6538 4.24411 11.6536 
37 1 15.6066 2.0249 13.8835 
47 1 13.8775 0.279076 13.8771 
51 1 13.877 2.02011 15.6127 
62 1 8.54201 5.61462 10.282 
72 1 10.2826 7.35337 10.2824 
76 1 10.2823 5.61439 8.54533 
85 1 13.2022 2.69702 13.202 
94 1 10.9545 4.93984 10.9554 
3 1 14.0792 14.0786 1.81253 
12 1 10.0784 10.0789 5.82081 
19 1 12.5043 12.5052 3.39306 
28 1 11.6539 11.6539 4.24209 
35 1 15.6124 13.8772 2.02163 
45 1 13.8773 15.6123 2.02054 
55 1 13.8763 13.8768 0.280607 
60 1 8.54509 10.2824 5.61415 
70 1 10.2824 8.54572 5.61427 
80 1 10.2824 10.2822 7.3533 
83 1 13.2021 13.2002 2.69265 
92 1 10.9574 10.9575 4.94237 
2 1 14.0799 14.0816 14.0825 
9 1 10.0781 10.0785 10.0776 
18 1 12.5043 12.5055 12.5049 
25 1 11.6541 11.6542 11.6554 
34 1 15.6122 13.8764 13.8777 
42 1 13.8763 15.6139 13.8777 
50 1 13.877 13.8778 15.6145 
57 1 8.54486 10.2826 10.2829 
65 1 10.2826 8.5445 10.2826 
73 1 10.2824 10.2822 8.54452 
82 1 13.2036 13.2012 13.2031 
89 1 10.9577 10.9579 10.955 
ITEM: TIMESTEP
47
ITEM: NUMBER OF ATOMS
98
ITEM: BOX BOUNDS pp pp pp
0.0000000000000000e+00 1.6524999999999999e+01
0.0000000000000000e+00 1.6526000000000000e+01
0.0000000000000000e+00 1.6526000000000000e+01
ITEM: ATOMS id type x y z 
1 1 1.78307 1.78437 1.84663 
10 1 5.82694 5.82775 5.82926 
17 1 3.39308 3.39205 3.38637 
26 1 4.24769 4.24742 4.24643 
33 1 0.25917 2.02342 2.04713 
41 1 2.02048 0.258207 2.05566 
49 1 1.93464 1.81487 0.297278 
58 1 7.35664 5.61464 5.61485 
66 1 5.61509 7.35589 5.61502 
74 1 5.61541 5.61522 7.35894 
81 1 2.69309 2.69468 2.69487 
90 1 4.94115 4.94491 4.94482 
4 1 1.79457 1.77776 14.0287 
11 1 5.81691 5.81667 10.0841 
20 1 3.38807 3.38965 12.5125 
27 1 4.23823 4.23966 11.6634 
36 1 0.274523 2.01167 13.8575 
46 1 2.01067 0.267732 13.8474 
56 1 1.97229 1.73855 15.6339 
59 1 7.35084 5.61497 10.2825 
69 1 5.61473 7.35132 10.2826 
79 1 5.61395 5.61423 8.55028 
84 1 2.67772 2.67623 13.1817 
91 1 4.93637 4.93338 10.9619 
97 2 2.90059 3.40874 15.829 
98 3 3.07817 4.31212 15.9591 
6 1 1.81155 14.0607 1.81167 
13 1 5.82124 10.0794 5.82129 
22 1 3.39557 12.5036 3.39609 
29 1 4.24592 11.6533 4.24464 
38 1 0.278288 13.8708 2.02006 
48 1 2.02519 15.5938 2.03434 
52 1 2.01941 13.8693 0.279747 
61 1 7.35395 10.2831 5.61428 
71 1 5.61373 8.54787 5.61345 
75 1 5.61453 10.283 7.35324 
86 1 2.69306 13.1913 2.69289 
93 1 4.94157 10.9542 4.94334 
7 1 1.81353 14.0759 14.0817 
16 1 5.82017 10.0763 10.0774 
23 1 3.39385 12.5037 12.5025 
32 1 4.24449 11.6534 11.6532 
39 1 0.278604 13.8769 13.877 
43 1 2.02421 15.6008 13.879 
53 1 2.02054 13.8765 15.6143 
64 1 7.35359 10.2826 10.2826 
68 1 5.61462 8.54252 10.2821 
78 1 5.61433 10.2824 8.54489 
87 1 2.69661 13.2 13.202 
96 1 4.94026 10.9545 10.9546 
8 1 14.0645 1.81285 1.81163 
15 1 10.08 5.82108 5.82067 
24 1 12.503 3.39503 3.39633 
31 1 11.6538 4.24561 4.24479 
40 1 15.5924 2.02645 2.03132 
44 1 13.871 0.277248 2.02023 
54 1 13.8701 2.01964 0.278226 
63 1 8.54813 5.61337 5.61321 
67 1 10.2836 7.35432 5.61424 
77 1 10.2834 5.61443 7.35412 
88 1 13.1925 2.6947 2.69255 
95 1 10.9541 4.94151 4.94298 
5 1 14.0806 1.8145 14.0809 
14 1 10.0755 5.82008 10.0781 
21 1 12.5037 3.39267 12.5031 
30 1 11.6538 4.24411 11.6536 
37 1 15.6066 2.0249 13.8835 
47 1 13.8775 0.279076 13.8771 
51 1 13.877 2.02011 15.6127 
62 1 8.54201 5.61462 10.282 
72 1 10.2826 7.35337 10.2824 
76 1 10.2823 5.61439 8.54533 
85 1 13.2022 2.69702 13.202 
94 1 10.9545 4.93984 10.9554 
3 1 14.0792 14.0786 1.81253 
12 1 10.0784 10.0789 5.82081 
19 1 12.5043 12.5052 3.39306 
28 1 11.6539 11.6539 4.24209 
35 1 15.6124 13.8772 2.02163 
45 1 13.8773 15.6123 2.02054 
55 1 13.8763 13.8768 0.280607 
60 1 8.54509 10.2824 5.61415 
70 1 10.2824 8.54572 5.61427 
80 1 10.2824 10.2822 7.3533 
83 1 13.2021 13.2002 2.69265 
92 1 10.9574 10.9575 4.94237 
2 1 14.0799 14.0816 14.0825 
9 1 10.0781 10.0785 10.0776 
18 1 12.5043 12.5055 12.5049 
25 1 11.6541 11.6542 11.6554 
34 1 15.6122 13.8764 13.8777 
42 1 13.8763 15.6139 13.8777 
50 1 13.877 13.8778 15.6145 
57 1 8.54486 10.2826 10.2829 
65 1 10.2826 8.5445 10.2826 
73 1 10.2824 10.2822 8.54452 
82 1 13.2036 13.2012 13.2031 
89 1 10.9577 10.9579 10.955 
ITEM: TIMESTEP
48
ITEM: NUMBER OF ATOMS
98
ITEM: BOX BOUNDS pp pp pp
0.0000000000000000e+00 1.6524999999999999e+01
0.0000000000000000e+00 1.6526000000000000e+01
0.0000000000000000e+00 1.6526000000000000e+01
ITEM: ATOMS id type x y z 
1 1 1.78307 1.78437 1.84663 
10 1 5.82694 5.82775 5.82926 
17 1 3.39308 3.39205 3.38637 
26 1 4.24769 4.24742 4.24643 
33 1 0.25917 2.02342 2.04713 
41 1 2.02048 0.258207 2.05566 
49 1 1.93464 1.81487 0.297278 
58 1 7.35664 5.61464 5.61485 
66 1 5.61509 7.35589 5.61502 
74 1 5.61541 5.61522 7.35894 
81 1 2.69309 2.69468 2.69487 
90 1 4.94115 4.94491 4.94482 
4 1 1.79457 1.77776 14.0287 
11 1 5.81691 5.81667 10.0841 
20 1 3.38807 3.38965 12.5125 
27 1 4.23823 4.23966 11.6634 
36 1 0.274523 2.01167 13.8575 
46 1 2.01067 0.267732 13.8474 
56 1 1.97229 1.73855 15.6339 
59 1 7.35084 5.61497 10.2825 
69 1 5.61473 7.35132 10.2826 
79 1 5.61395 5.61423 8.55028 
84 1 2.67772 2.67623 13.1817 
91 1 4.93637 4.93338 10.9619 
97 2 2.90059 3.40874 15.829 
98 3 3.07817 4.31212 15.9591 
6 1 1.81155 14.0607 1.81167 
13 1 5.82124 10.0794 5.82129 
22 1 3.39557 12.5036 3.39609 
29 1 4.24592 11.6533 4.24464 
38 1 0.278288 13.8708 2.02006 
48 1 2.02519 15.5938 2.03434 
52 1 2.01941 13.8693 0.279747 
61 1 7.35395 10.2831 5.61428 
71 1 5.61373 8.54787 5.61345 
75 1 5.61453 10.283 7.35324 
86 1 2.69306 13.1913 2.69289 
93 1 4.94157 10.9542 4.94334 
7 1 1.81353 14.0759 14.0817 
16 1 5.82017 10.0763 10.0774 
23 1 3.39385 12.5037 12.5025 
32 1 4.24449 11.6534 11.6532 
39 1 0.278604 13.8769 13.877 
43 1 2.02421 15.6008 13.879 
53 1 2.02054 13.8765 15.6143 
64 1 7.35359 10.2826 10.2826 
68 1 5.61462 8.54252 10.2821 
78 1 5.61433 10.2824 8.54489 
87 1 2.69661 13.2 13.202 
96 1 4.94026 10.9545 10.9546 
8 1 14.0645 1.81285 1.81163 
15 1 10.08 5.82108 5.82067 
24 1 12.503 3.39503 3.39633 
31 1 11.6538 4.24561 4.24479 
40 1 15.5924 2.02645 2.03132 
44 1 13.871 0.277248 2.02023 
54 1 13.8701 2.01964 0.278226 
63 1 8.54813 5.61337 5.61321 
67 1 10.2836 7.35432 5.61424 
77 1 10.2834 5.61443 7.35412 
88 1 13.1925 2.6947 2.69255 
95 1 10.9541 4.94151 4.94298 
5 1 14.0806 1.8145 14.0809 
14 1 10.0755 5.82008 10.0781 
21 1 12.5037 3.39267 12.5031 
30 1 11.6538 4.24411 11.6536 
37 1 15.6066 2.0249 13.8835 
47 1 13.8775 0.279076 13.8771 
51 1 13.877 2.02011 15.6127 
62 1 8.54201 5.61462 10.282 
72 1 10.2826 7.35337 10.2824 
76 1 10.2823 5.61439 8.54533 
85 1 13.2022 2.69702 13.202 
94 1 10.9545 4.93984 10.9554 
3 1 14.0792 14.0786 1.81253 
12 1 10.0784 10.0789 5.82081 
19 1 12.5043 12.5052 3.39306 
28 1 11.6539 11.6539 4.24209 
35 1 15.6124 13.8772 2.02163 
45 1 13.8773 15.6123 2.02054 
55 1 13.8763 13.8768 0.280607 
60 1 8.54509 10.2824 5.61415 
70 1 10.2824 8.54572 5.61427 
80 1 10.2824 10.2822 7.3533 
83 1 13.2021 13.2002 2.69265 
92 1 10.9574 10.9575 4.94237 
2 1 14.0799 14.0816 14.0825 
9 1 10.0781 10.0785 10.0776 
18 1 12.5043 12.5055 12.5049 
25 1 11.6541 11.6542 11.6554 
34 1 15.6122 13.8764 13.8777 
42 1 13.8763 15.6139 13.8777 
50 1 13.877 13.8778 15.6145 
57 1 8.54486 10.2826 10.2829 
65 1 10.2826 8.5445 10.2826 
73 1 10.2824 10.2822 8.54452 
82 1 13.2036 13.2012 13.2031 
89 1 10.9577 10.9579 10.955 
ITEM: TIMESTEP
49
ITEM: NUMBER OF ATOMS
98
ITEM: BOX BOUNDS pp pp pp
0.0000000000000000e+00 1.6524999999999999e+01
0.0000000000000000e+00 1.6526000000000000e+01
0.0000000000000000e+00 1.6526000000000000e+01
ITEM: ATOMS id type x y z 
1 1 1.78307 1.78437 1.84663 
10 1 5.82694 5.82775 5.82926 
17 1 3.39308 3.39205 3.38637 
26 1 4.24769 4.24742 4.24643 
33 1 0.25917 2.02342 2.04713 
41 1 2.02048 0.258207 2.05566 
49 1 1.93464 1.81487 0.297278 
58 1 7.35664 5.61464 5.61485 
66 1 5.61509 7.35589 5.61502 
74 1 5.61541 5.61522 7.35894 
81 1 2.69309 2.69468 2.69487 
90 1 4.94115 4.94491 4.94482 
4 1 1.79457 1.77776 14.0287 
11 1 5.81691 5.81667 10.0841 
20 1 3.38807 3.38965 12.5125 
27 1 4.23823 4.23966 11.6634 
36 1 0.274523 2.01167 13.8575 
46 1 2.01067 0.267732 13.8474 
56 1 1.97229 1.73855 15.6339 
59 1 7.35084 5.61497 10.2825 
69 1 5.61473 7.35132 10.2826 
79 1 5.61395 5.61423 8.55028 
84 1 2.67772 2.67623 13.1817 
91 1 4.93637 4.93338 10.9619 
97 2 2.90059 3.40874 15.829 
98 3 3.07817 4.31212 15.9591 
6 1 1.81155 14.0607 1.81167 
13 1 5.82124 10.0794 5.82129 
22 1 3.39557 12.5036 3.39609 
29 1 4.24592 11.6533 4.24464 
38 1 0.278288 13.8708 2.02006 
48 1 2.02519 15.5938 2.03434 
52 1 2.01941 13.8693 0.279747 
61 1 7.35395 10.2831 5.61428 
71 1 5.61373 8.54787 5.61345 
75 1 5.61453 10.283 7.35324 
86 1 2.69306 13.1913 2.69289 
93 1 4.94157 10.9542 4.94334 
7 1 1.81353 14.0759 14.0817 
16 1 5.82017 10.0763 10.0774 
23 1 3.39385 12.5037 12.5025 
32 1 4.24449 11.6534 11.6532 
39 1 0.278604 13.8769 13.877 
43 1 2.02421 15.6008 13.879 
53 1 2.02054 13.8765 15.6143 
64 1 7.35359 10.2826 10.2826 
68 1 5.61462 8.54252 10.2821 
78 1 5.61433 10.2824 8.54489 
87 1 2.69661 13.2 13.202 
96 1 4.94026 10.9545 10.9546 
8 1 14.0645 1.81285 1.81163 
15 1 10.08 5.82108 5.82067 
24 1 12.503 3.39503 3.39633 
31 1 11.6538 4.24561 4.24479 
40 1 15.5924 2.02645 2.03132 
44 1 13.871 0.277248 2.02023 
54 1 13.8701 2.01964 0.278226 
63 1 8.54813 5.61337 5.61321 
67 1 10.2836 7.35432 5.61424 
77 1 10.2834 5.61443 7.35412 
88 1 13.1925 2.6947 2.69255 
95 1 10.9541 4.94151 4.94298 
5 1 14.0806 1.8145 14.0809 
14 1 10.0755 5.82008 10.0781 