LAMMPS (3 Mar 2020)
# Alpha
clear
units		real
dimension 3
boundary        p p p
atom_style	charge
newton on
read_data       O_22.lmp
  triclinic box = (0 0 0) to (13.552 11.7355 22.15) with tilt (-6.7755 0 0)
  2 by 2 by 2 MPI processor grid
  reading atoms ...
  161 atoms
  read_data CPU = 0.0400821 secs

timestep 0.25

# ---------- Define Interatomic Potential ---------------------
pair_style      reax/c NULL checkqeq no
pair_coeff      * * ffield.reax C O
fix             2 all qeq/reax 1 0.0 10.0 1.0e-6 reax/c

#------------ Equilibration of the system -------------------------
reset_timestep 0

dump 1 all custom 10 min.lammpstrj id type x y z

minimize 1.0e-8 1.0e-8 100000 100000
WARNING: Using 'neigh_modify every 1 delay 0 check yes' setting during minimization (../min.cpp:190)
WARNING: Total cutoff < 2*bond cutoff. May need to use an increased neighbor list skin. (../pair_reaxc.cpp:413)
Neighbor list info ...
  update every 1 steps, delay 0 steps, check yes
  max neighbors/atom: 2000, page size: 100000
  master list distance cutoff = 9.5
  ghost atom cutoff = 9.5
  binsize = 4.75, bins = 5 3 5
  2 neighbor lists, perpetual/occasional/extra = 2 0 0
  (1) pair reax/c, perpetual
      attributes: half, newton off, ghost
      pair build: half/bin/newtoff/ghost
      stencil: half/ghost/bin/3d/newtoff
      bin: standard
  (2) fix qeq/reax, perpetual, copy from (1)
      attributes: half, newton off, ghost
      pair build: copy
      stencil: none
      bin: none
Per MPI rank memory allocation (min/avg/max) = 22.39 | 23.37 | 24.36 Mbytes
Step Temp E_pair E_mol TotEng Press 
       0            0   -25334.922            0   -25334.922    92607.259 
     188            0   -29156.986            0   -29156.986    37586.584 
Loop time of 9.79077 on 8 procs for 188 steps with 161 atoms

99.2% CPU use with 8 MPI tasks x no OpenMP threads

Minimization stats:
  Stopping criterion = energy tolerance
  Energy initial, next-to-last, final = 
        -25334.9224572     -29156.9861759     -29156.9863954
  Force two-norm initial, final = 4565.69 203.175
  Force max component initial, final = 652.448 44.5216
  Final line search alpha, max atom move = 0.000549325 0.0244568
  Iterations, force evaluations = 188 1199

MPI task timing breakdown:
Section |  min time  |  avg time  |  max time  |%varavg| %total
---------------------------------------------------------------
Pair    | 7.3862     | 7.7206     | 8.0518     |   9.5 | 78.86
Neigh   | 0          | 0          | 0          |   0.0 |  0.00
Comm    | 0.06304    | 0.39345    | 0.72773    |  41.8 |  4.02
Output  | 0.0007541  | 0.00094601 | 0.0013691  |   0.0 |  0.01
Modify  | 1.6608     | 1.6612     | 1.6616     |   0.0 | 16.97
Other   |            | 0.01459    |            |       |  0.15

Nlocal:    20.125 ave 33 max 4 min
Histogram: 2 0 1 0 1 0 0 1 0 3
Nghost:    840.375 ave 886 max 791 min
Histogram: 2 1 1 0 0 0 0 0 1 3
Neighs:    2748.62 ave 4340 max 592 min
Histogram: 2 0 0 1 1 0 0 0 1 3

Total # of neighbors = 21989
Ave neighs/atom = 136.578
Neighbor list builds = 0
Dangerous builds = 0

###
min_style cg
minimize 1.0e-8 1.0e-8 100000 100000
WARNING: Using 'neigh_modify every 1 delay 0 check yes' setting during minimization (../min.cpp:190)
WARNING: Total cutoff < 2*bond cutoff. May need to use an increased neighbor list skin. (../pair_reaxc.cpp:413)
Per MPI rank memory allocation (min/avg/max) = 22.39 | 23.37 | 24.36 Mbytes
Step Temp E_pair E_mol TotEng Press 
     188            0   -29156.986            0   -29156.986    37586.584 
     400            0   -29189.119            0   -29189.119    36330.777 
Loop time of 13.2019 on 8 procs for 212 steps with 161 atoms

99.3% CPU use with 8 MPI tasks x no OpenMP threads

Minimization stats:
  Stopping criterion = energy tolerance
  Energy initial, next-to-last, final = 
        -29156.9863954     -29189.1188458     -29189.1189114
  Force two-norm initial, final = 203.175 103.914
  Force max component initial, final = 44.5216 30.2544
  Final line search alpha, max atom move = 5.16122e-05 0.00156149
  Iterations, force evaluations = 212 1595

MPI task timing breakdown:
Section |  min time  |  avg time  |  max time  |%varavg| %total
---------------------------------------------------------------
Pair    | 10.097     | 10.509     | 10.99      |   9.6 | 79.60
Neigh   | 0          | 0          | 0          |   0.0 |  0.00
Comm    | 0.076191   | 0.55493    | 0.96611    |  41.7 |  4.20
Output  | 0.00081519 | 0.00097115 | 0.0013785  |   0.0 |  0.01
Modify  | 2.117      | 2.118      | 2.1186     |   0.0 | 16.04
Other   |            | 0.01897    |            |       |  0.14

Nlocal:    20.125 ave 33 max 4 min
Histogram: 2 0 1 1 0 0 0 0 1 3
Nghost:    870.875 ave 916 max 824 min
Histogram: 3 1 0 0 0 0 0 0 1 3
Neighs:    2727 ave 4297 max 581 min
Histogram: 2 0 0 2 0 0 0 0 1 3

Total # of neighbors = 21816
Ave neighs/atom = 135.503
Neighbor list builds = 0
Dangerous builds = 0

###
fix 1 all box/relax aniso 0.0
min_style cg
minimize 1.0e-8 1.0e-8 100000 100000
WARNING: Using 'neigh_modify every 1 delay 0 check yes' setting during minimization (../min.cpp:190)
WARNING: Total cutoff < 2*bond cutoff. May need to use an increased neighbor list skin. (../pair_reaxc.cpp:413)
Per MPI rank memory allocation (min/avg/max) = 22.39 | 23.37 | 24.36 Mbytes
Step Temp E_pair E_mol TotEng Press Volume 
     400            0   -29189.119            0   -29189.119    36330.777    3522.7279 
     429            0   -29195.023            0   -29195.023   -854.66792    3525.7518 
Loop time of 0.4334 on 8 procs for 29 steps with 161 atoms

99.1% CPU use with 8 MPI tasks x no OpenMP threads

Minimization stats:
  Stopping criterion = energy tolerance
  Energy initial, next-to-last, final = 
        -29189.1189114     -29195.0234008     -29195.0234008
  Force two-norm initial, final = 3930.64 612.074
  Force max component initial, final = 3260.77 411.277
  Final line search alpha, max atom move = 1.15941e-13 4.76837e-11
  Iterations, force evaluations = 29 56

MPI task timing breakdown:
Section |  min time  |  avg time  |  max time  |%varavg| %total
---------------------------------------------------------------
Pair    | 0.35601    | 0.37232    | 0.38987    |   2.0 | 85.91
Neigh   | 0          | 0          | 0          |   0.0 |  0.00
Comm    | 0.0028666  | 0.020393   | 0.036704   |   8.4 |  4.71
Output  | 7.5751e-05 | 8.9615e-05 | 0.00012573 |   0.0 |  0.02
Modify  | 0.038778   | 0.038796   | 0.038809   |   0.0 |  8.95
Other   |            | 0.001805   |            |       |  0.42

Nlocal:    20.125 ave 33 max 4 min
Histogram: 2 0 1 1 0 0 0 0 1 3
Nghost:    869.375 ave 920 max 816 min
Histogram: 2 1 1 0 0 0 0 0 2 2
Neighs:    2717.38 ave 4281 max 581 min
Histogram: 2 0 0 2 0 0 0 0 1 3

Total # of neighbors = 21739
Ave neighs/atom = 135.025
Neighbor list builds = 0
Dangerous builds = 0

unfix 1
###
min_style cg
minimize 1.0e-8 1.0e-8 100000 100000
WARNING: Using 'neigh_modify every 1 delay 0 check yes' setting during minimization (../min.cpp:190)
WARNING: Total cutoff < 2*bond cutoff. May need to use an increased neighbor list skin. (../pair_reaxc.cpp:413)
Per MPI rank memory allocation (min/avg/max) = 22.39 | 23.37 | 24.36 Mbytes
Step Temp E_pair E_mol TotEng Press 
     429            0   -29195.023            0   -29195.023   -854.66792 
     437            0   -29196.023            0   -29196.023    12529.957 
Loop time of 0.544253 on 8 procs for 8 steps with 161 atoms

99.2% CPU use with 8 MPI tasks x no OpenMP threads

Minimization stats:
  Stopping criterion = energy tolerance
  Energy initial, next-to-last, final = 
        -29195.0234008     -29196.0225268      -29196.022728
  Force two-norm initial, final = 371.152 226.355
  Force max component initial, final = 44.6284 28.2214
  Final line search alpha, max atom move = 0.000110717 0.00312458
  Iterations, force evaluations = 8 64

MPI task timing breakdown:
Section |  min time  |  avg time  |  max time  |%varavg| %total
---------------------------------------------------------------
Pair    | 0.41207    | 0.42871    | 0.45171    |   1.9 | 78.77
Neigh   | 0          | 0          | 0          |   0.0 |  0.00
Comm    | 0.0025639  | 0.025485   | 0.042094   |   7.6 |  4.68
Output  | 3.8082e-05 | 4.5884e-05 | 6.4751e-05 |   0.0 |  0.01
Modify  | 0.08913    | 0.089171   | 0.089208   |   0.0 | 16.38
Other   |            | 0.0008412  |            |       |  0.15

Nlocal:    20.125 ave 33 max 4 min
Histogram: 2 0 1 1 0 0 0 0 1 3
Nghost:    865.875 ave 915 max 810 min
Histogram: 1 2 1 0 0 0 0 0 2 2
Neighs:    2714.88 ave 4277 max 580 min
Histogram: 2 0 0 2 0 0 0 0 1 3

Total # of neighbors = 21719
Ave neighs/atom = 134.901
Neighbor list builds = 0
Dangerous builds = 0

###
fix 1 all box/relax aniso 0.0
min_style cg
minimize 1.0e-8 1.0e-8 100000 100000
WARNING: Using 'neigh_modify every 1 delay 0 check yes' setting during minimization (../min.cpp:190)
WARNING: Total cutoff < 2*bond cutoff. May need to use an increased neighbor list skin. (../pair_reaxc.cpp:413)
Per MPI rank memory allocation (min/avg/max) = 22.39 | 23.37 | 24.36 Mbytes
Step Temp E_pair E_mol TotEng Press Volume 
     437            0   -29196.023            0   -29196.023    12529.957    3525.7518 
     444            0   -29196.275            0   -29196.275    299.46782    3526.2412 
Loop time of 0.200624 on 8 procs for 7 steps with 161 atoms

99.1% CPU use with 8 MPI tasks x no OpenMP threads

Minimization stats:
  Stopping criterion = energy tolerance
  Energy initial, next-to-last, final = 
         -29196.022728     -29196.2751106     -29196.2752731
  Force two-norm initial, final = 1565.13 663.568
  Force max component initial, final = 1305.94 423.987
  Final line search alpha, max atom move = 9.20234e-10 3.90167e-07
  Iterations, force evaluations = 7 25

MPI task timing breakdown:
Section |  min time  |  avg time  |  max time  |%varavg| %total
---------------------------------------------------------------
Pair    | 0.16133    | 0.1701     | 0.17924    |   1.3 | 84.79
Neigh   | 0          | 0          | 0          |   0.0 |  0.00
Comm    | 0.0025436  | 0.011676   | 0.020448   |   4.8 |  5.82
Output  | 3.6839e-05 | 4.3335e-05 | 6.1906e-05 |   0.0 |  0.02
Modify  | 0.017949   | 0.01796    | 0.017971   |   0.0 |  8.95
Other   |            | 0.0008422  |            |       |  0.42

Nlocal:    20.125 ave 33 max 4 min
Histogram: 2 0 1 1 0 0 0 0 1 3
Nghost:    865.875 ave 915 max 810 min
Histogram: 1 2 1 0 0 0 0 0 2 2
Neighs:    2714.62 ave 4277 max 580 min
Histogram: 2 0 0 2 0 0 0 0 1 3

Total # of neighbors = 21717
Ave neighs/atom = 134.888
Neighbor list builds = 0
Dangerous builds = 0

unfix 1
###
min_style cg
minimize 1.0e-8 1.0e-8 100000 100000
WARNING: Using 'neigh_modify every 1 delay 0 check yes' setting during minimization (../min.cpp:190)
WARNING: Total cutoff < 2*bond cutoff. May need to use an increased neighbor list skin. (../pair_reaxc.cpp:413)
Per MPI rank memory allocation (min/avg/max) = 22.39 | 23.37 | 24.36 Mbytes
Step Temp E_pair E_mol TotEng Press 
     444            0   -29196.275            0   -29196.275    299.46782 
     469            0   -29198.584            0   -29198.584    34885.485 
Loop time of 1.68556 on 8 procs for 25 steps with 161 atoms

99.2% CPU use with 8 MPI tasks x no OpenMP threads

Minimization stats:
  Stopping criterion = energy tolerance
  Energy initial, next-to-last, final = 
        -29196.2752731     -29198.5842971     -29198.5844867
  Force two-norm initial, final = 339.302 33.2702
  Force max component initial, final = 39.2385 5.83408
  Final line search alpha, max atom move = 0.000132281 0.000771736
  Iterations, force evaluations = 25 202

MPI task timing breakdown:
Section |  min time  |  avg time  |  max time  |%varavg| %total
---------------------------------------------------------------
Pair    | 1.279      | 1.3379     | 1.4086     |   3.5 | 79.38
Neigh   | 0          | 0          | 0          |   0.0 |  0.00
Comm    | 0.0093597  | 0.079831   | 0.1387     |  14.4 |  4.74
Output  | 7.7946e-05 | 9.3242e-05 | 0.0001348  |   0.0 |  0.01
Modify  | 0.26518    | 0.26526    | 0.26534    |   0.0 | 15.74
Other   |            | 0.002446   |            |       |  0.15

Nlocal:    20.125 ave 33 max 4 min
Histogram: 2 0 1 1 0 0 0 0 1 3
Nghost:    865.875 ave 915 max 810 min
Histogram: 1 2 1 0 0 0 0 0 2 2
Neighs:    2714.88 ave 4277 max 580 min
Histogram: 2 0 0 2 0 0 0 0 1 3

Total # of neighbors = 21719
Ave neighs/atom = 134.901
Neighbor list builds = 0
Dangerous builds = 0

undump 1
#############
#----------- Thermo ------------
reset_timestep 0
thermo  200

thermo_style    custom step temp etotal ke pe press
velocity all create 300 12345 mom yes rot yes
fix 1 all npt temp 300 300 25.0 iso 0.0 0.0 250.0

variable vpe equal pe
variable vtemp equal temp
variable vstep equal step

fix output all print 2500 "${vstep} ${vtemp} ${vpe}" file temp-tpdh-Pt.dat screen no

dump 1 all custom 2500 thermo-tpdh-Pt.lammpstrj id type x y z

run 1000000
WARNING: Total cutoff < 2*bond cutoff. May need to use an increased neighbor list skin. (../pair_reaxc.cpp:413)
Per MPI rank memory allocation (min/avg/max) = 21.28 | 22.26 | 23.25 Mbytes
Step Temp TotEng KinEng PotEng Press 
       0          300   -29055.506    143.07888   -29198.584    36740.282 
     200    315.60769   -29089.656    150.52265   -29240.178    4240.4978 
     400    342.96196    -29127.55    163.56871   -29291.119   -6386.8434 
     600     303.9037   -29150.233    144.94067   -29295.174    12540.233 
     800    236.65973   -29152.983    112.87003   -29265.853   -30524.907 
    1000    319.14704   -29117.151    152.21067   -29269.361    15711.439 
    1200    287.19458   -29117.106     136.9716   -29254.077   -13581.949 
    1400    312.27337    -29105.36    148.93242   -29254.293   -10851.802 
    1600    262.20056    -29135.48    125.05121   -29260.531   -17955.494 
    1800    294.36743   -29102.085    140.39254   -29242.478    11645.576 
    2000    324.90463   -29086.216    154.95664   -29241.173   -18296.792 
    2200    318.52859   -29070.867    151.91571   -29222.783    2741.2825 
    2400    277.76537   -29098.706    132.47453   -29231.181   -18370.811 
    2600    303.70582   -29082.344     144.8463    -29227.19    19812.549 
    2800    297.50042   -29085.948    141.88676   -29227.835    1833.0243 
    3000    309.44065   -29063.269    147.58141    -29210.85    2094.4349 
    3200    298.42456    -29059.81    142.32751   -29202.138   -11233.194 
    3400    318.52612   -29044.272    151.91454   -29196.186    1719.8927 
    3600    332.90769   -29074.721    158.77353   -29233.494     8407.862 
    3800    283.82791   -29098.717    135.36594   -29234.083   -21044.339 
    4000    273.41313   -29113.549    130.39882   -29243.947    1748.8429 
    4200    312.37666   -29099.354    148.98168   -29248.335   -20690.062 
    4400    305.15002   -29101.068    145.53508   -29246.603   -21525.677 
    4600    287.30009   -29123.255    137.02192   -29260.277      29253.6 
    4800    328.14163   -29094.827    156.50046   -29251.328    313.24527 
    5000    302.86462   -29118.046     144.4451   -29262.491    50778.159 
    5200    289.15751   -29128.735    137.90778   -29266.643    863.60582 
    5400    282.09561   -29149.544    134.53975   -29284.084    8370.2586 
    5600    278.85139   -29133.221    132.99249   -29266.214    3779.0332 
    5800    306.52492   -29122.988    146.19081   -29269.179   -8553.7567 
    6000     309.6426   -29127.435    147.67772   -29275.113   -16488.666 
    6200    300.28855   -29160.886     143.2165   -29304.102    9303.7276 
    6400    289.18464   -29170.083    137.92072   -29308.004     19260.04 
    6600    288.47749   -29136.205    137.58345   -29273.788   -5059.4901 
    6800    302.88086   -29127.371    144.45285   -29271.824   -5504.2205 
    7000    330.95866   -29100.159    157.84398   -29258.003   -15813.763 
    7200    267.03517   -29122.062    127.35698   -29249.418   -21843.766 
    7400    299.14865   -29147.824    142.67285   -29290.497    28972.056 
    7600    293.75614   -29151.938      140.101   -29292.039      3668.93 
    7800    294.74962   -29135.994    140.57482   -29276.569    10713.847 
    8000    319.93716   -29123.038    152.58751   -29275.625    12094.425 
    8200    286.25779   -29154.603    136.52482   -29291.128    27816.302 
    8400    300.86744   -29136.642    143.49259   -29280.135   -23044.848 
    8600    297.54703   -29112.077    141.90899   -29253.986   -32596.372 
    8800    319.65519   -29116.004    152.45302   -29268.457   -12837.726 
    9000    293.86418   -29135.685    140.15253   -29275.838    29633.406 
    9200    344.64819   -29108.694    164.37293   -29273.067   -29058.221 
    9400    340.49362   -29109.244    162.39149   -29271.635    15113.078 
    9600    290.77695   -29122.832    138.68014   -29261.512    32906.846 
    9800    276.04774   -29116.877    131.65534   -29248.533    28583.168 
   10000    310.22872   -29092.023    147.95726    -29239.98    21459.505 
   10200    293.28275   -29125.446    139.87523   -29265.322   -7992.3125 
   10400    300.21072   -29125.901    143.17938   -29269.081   -4628.4137 
   10600     338.6608   -29090.611    161.51736   -29252.128    59.694313 
   10800    287.05815   -29112.233    136.90653   -29249.139    34173.218 
   11000    286.76566   -29136.137    136.76703   -29272.904   -10066.908 
   11200    280.96916    -29137.62    134.00251   -29271.623   -8946.2059 
   11400     348.9312   -29113.257    166.41562   -29279.672   -2703.7318 
   11600    290.73875   -29147.941    138.66192   -29286.603   -945.24895 
   11800    270.35274   -29148.847    128.93923   -29277.786    3544.1446 
   12000    303.14824   -29114.908    144.58037   -29259.489    24805.435 
   12200    306.45609   -29132.836    146.15798   -29278.994   -32292.246 
   12400    250.56435   -29144.661    119.50156   -29264.163   -18536.756 
   12600    315.84593    -29110.44    150.63628   -29261.076    10411.889 
   12800    309.21025   -29139.655    147.47153   -29287.127   -3009.5841 
   13000    292.74699    -29151.21    139.61971   -29290.829   -11047.143 
   13200    306.62727   -29120.544    146.23962   -29266.784    23862.437 
   13400    297.91231    -29126.22     142.0832   -29268.303   -12396.431 
   13600    255.16249    -29142.48    121.69455   -29264.174    4131.2041 
   13800    322.55885   -29101.527    153.83786   -29255.365    315.15306 
   14000    280.20969   -29127.484     133.6403   -29261.124   -29485.475 
   14200     305.6257   -29135.028    145.76195    -29280.79    -12582.04 
   14400    304.16109   -29127.697    145.06343   -29272.761   -14519.934 
   14600    314.72701   -29101.738    150.10263    -29251.84    36357.769 
   14800    307.32211   -29120.133    146.57101   -29266.704    35327.121 
   15000    261.03549   -29136.585    124.49555    -29261.08   -6475.0203 
   15200    303.16837   -29112.889    144.58997   -29257.479    14473.483 
   15400    311.73175   -29133.257     148.6741   -29281.931    12728.035 
   15600    260.79371    -29148.06    124.38024    -29272.44    21744.125 
   15800    319.07238    -29116.27    152.17506   -29268.445   -6887.8759 
   16000    293.75918   -29118.947    140.10245   -29259.049    9182.2262 
   16200    307.33805   -29135.918    146.57862   -29282.497   -28294.842 
   16400    285.84282   -29132.641     136.3269   -29268.968   -136.46618 
   16600    312.38124   -29105.421    148.98386   -29254.405   -38758.478 
   16800    289.55548   -29143.092    138.09758   -29281.189   -36504.784 
   17000     309.2802   -29128.461    147.50488   -29275.966   -11551.611 
   17200    303.92483   -29114.453    144.95075   -29259.404    23203.862 
   17400    295.58804   -29149.181    140.97469   -29290.156   -18695.389 
   17600    309.97952   -29129.032    147.83841    -29276.87   -16117.472 
   17800    319.76901   -29116.868    152.50731   -29269.375   -11835.284 
   18000    283.65825   -29150.737    135.28502   -29286.022    26984.583 
   18200    294.02762   -29126.119    140.23048   -29266.349    6495.3417 
   18400    304.79604   -29117.975    145.36625   -29263.341    25020.407 
   18600    274.79777   -29149.866    131.05919   -29280.925   -181.03783 
   18800    306.28771   -29136.587    146.07768   -29282.665    4961.4083 
   19000    308.11793   -29131.692    146.95056   -29278.642   -24254.561 
   19200    268.16601   -29145.148    127.89631   -29273.044   -2070.5727 
   19400     288.6542   -29156.567    137.66773   -29294.234    13825.524 
   19600    330.79675   -29125.777    157.76676   -29283.543    2415.7016 
   19800    306.69133   -29138.413    146.27017   -29284.684    23978.396 
   20000    277.65155   -29156.566    132.42024   -29288.986    62923.982 
   20200     323.9784   -29125.931    154.51489   -29280.446    -15363.26 
   20400    300.49548   -29132.939    143.31519   -29276.255   -6218.8992 
   20600    302.46543   -29121.059    144.25472   -29265.314    21412.614 
   20800    322.90397   -29108.834    154.00246   -29262.837     69889.94 
   21000    278.00889   -29141.645    132.59067   -29274.236    20051.272 
   21200    292.65384   -29123.588    139.57528   -29263.163   -13380.285 
   21400    333.27672   -29091.143    158.94953   -29250.093   -45222.395 
   21600    291.58389   -29119.924    139.06499   -29258.989    5375.1913 
   21800    304.74025   -29123.424    145.33965   -29268.764    9939.1538 
   22000    325.74575   -29098.235    155.35779   -29253.593   -5638.6933 
   22200    304.47979   -29131.163    145.21543   -29276.379    14060.172 
   22400    307.45498   -29138.818    146.63438   -29285.453   -557.78357 
   22600    294.01342   -29119.805    140.22371   -29260.029    5465.3633 
   22800    313.12131   -29127.879    149.33683   -29277.215   -16603.389 
   23000    278.04729   -29144.958    132.60898   -29277.567     -15858.4 
   23200    306.10177   -29108.103      145.989   -29254.092   -19090.572 
   23400     294.9191   -29117.837    140.65565   -29258.493   -43020.153 
   23600    300.44461   -29137.222    143.29093   -29280.513    17206.335 
   23800    277.84778   -29114.317    132.51383   -29246.831   -50036.384 
   24000    292.28855   -29107.146    139.40107   -29246.548    -7636.259 
   24200    292.62401   -29132.314    139.56106   -29271.875    -27670.54 
   24400    301.66576   -29127.555    143.87333   -29271.429    18746.842 
   24600    300.15931   -29116.234    143.15486   -29259.389     33601.52 
   24800    306.91801   -29120.251    146.37828    -29266.63   -14761.392 
   25000    277.44937   -29143.657    132.32382   -29275.981    9486.6713 
   25200    312.09632     -29111.6    148.84798   -29260.448   -26017.389 
   25400    330.63841   -29120.549    157.69125    -29278.24    15909.232 
   25600     276.3108   -29136.249     131.7808    -29268.03     28503.64 
   25800    310.53124   -29132.795    148.10154   -29280.896    38663.442 
   26000    314.18931   -29139.847    149.84618   -29289.694    9396.6054 
   26200    276.86123   -29144.713    132.04332   -29276.756    16647.203 
   26400    300.27658   -29112.687    143.21079   -29255.898    728.59013 
   26600    290.09479   -29132.299     138.3548   -29270.653    34820.949 
   26800    290.86519   -29145.037    138.72222   -29283.759    -9571.719 
   27000     292.1269   -29127.108    139.32397   -29266.431    47934.639 
   27200    303.30569   -29126.866    144.65547   -29271.521    33170.322 
   27400    277.73209   -29145.915    132.45866   -29278.373   -29696.836 
   27600    305.29089   -29113.945    145.60227   -29259.547   -19009.865 
   27800    288.35359   -29116.497    137.52436   -29254.022   -45870.364 
   28000    286.90496   -29144.793    136.83347   -29281.626   -10266.619 
   28200    312.90918   -29124.357    149.23565   -29273.593    1202.7956 
   28400    319.56897   -29126.425     152.4119   -29278.837   -35018.805 
   28600    299.36434       -29129    142.77572   -29271.775    -12606.67 
   28800    310.63506   -29116.692    148.15106   -29264.843   -7898.1756 
   29000    348.84519   -29102.944     166.3746   -29269.319   -46514.053 
   29200    291.63626   -29129.625    139.08997   -29268.715   -6981.5593 
   29400    307.09681   -29127.009    146.46356   -29273.473     1088.628 
   29600    319.65217   -29101.197    152.45158   -29253.649    3996.4306 
   29800    284.38722   -29133.099    135.63269   -29268.732   -10237.193 
   30000    285.65633   -29124.767    136.23796   -29261.005   -6513.5841 
   30200     326.3562   -29102.156    155.64893   -29257.805   -9685.8464 
   30400    305.45231   -29139.264    145.67925   -29284.943    15567.694 
   30600    305.69758    -29120.13    145.79622   -29265.926    7278.1461 
   30800    339.46246   -29122.004     161.8997   -29283.904    8538.1544 
   31000    284.92526   -29139.713    135.88929   -29275.603   -10381.695 
   31200    303.37617   -29112.499    144.68908   -29257.189    14243.265 
   31400    302.79165   -29119.846     144.4103   -29264.256    13204.535 
   31600    288.71269   -29138.501    137.69563   -29276.196   -23808.327 
   31800    334.57742    -29120.35    159.56988    -29279.92   -8900.8552 
   32000    296.83676   -29130.239    141.57024   -29271.809   -22180.688 
   32200    285.69749   -29150.962    136.25759    -29287.22   -15467.038 
   32400    273.99766   -29152.077     130.6776   -29282.754   -11017.864 
   32600    294.76949   -29123.453     140.5843   -29264.037   -42816.838 
   32800     335.3929   -29116.995     159.9588   -29276.954    11350.603 
   33000    275.23458    -29147.37    131.26752   -29278.637    -26674.95 
   33200    311.63797   -29126.987    148.62938   -29275.616    30629.642 
   33400    288.88456   -29126.725     137.7776   -29264.503   -38462.299 
   33600    305.38502   -29132.989    145.64716   -29278.636    7186.6131 
   33800    297.29119   -29133.803    141.78697    -29275.59   -51616.739 
   34000    328.51192   -29111.238    156.67706   -29267.915   -36457.367 
   34200    299.00062    -29145.49    142.60225   -29288.092   -7621.8657 
   34400    290.27828   -29124.687     138.4423   -29263.129   -31309.564 
   34600    290.55302   -29118.212    138.57334   -29256.785    3862.5571 
   34800    303.05936   -29120.582    144.53798    -29265.12    18130.855 
   35000    301.10161   -29118.317    143.60427   -29261.921   -24058.897 
   35200    284.32212   -29121.954    135.60164   -29257.555   -4019.4831 
   35400    294.04044   -29138.135    140.23659   -29278.371    28639.607 
   35600    286.13012   -29121.089    136.46392   -29257.552   -1380.1255 
   35800    335.54889   -29118.431     160.0332   -29278.464    3232.7461 
   36000    299.12353   -29134.835    142.66087   -29277.495   -5539.0382 
   36200    269.17259   -29126.453    128.37638    -29254.83    6387.1724 
   36400    286.56974    -29108.04     136.6736   -29244.713    42332.629 
   36600     286.7372   -29134.622    136.75346   -29271.376   -12700.883 
   36800    303.15501   -29128.107     144.5836   -29272.691   -1232.2107 
   37000    334.56769   -29104.768    159.56524   -29264.333    4910.1995 
   37200    258.55823   -29130.206    123.31408    -29253.52    23172.974 
   37400    295.05946   -29132.882    140.72259   -29273.604    18076.172 
   37600    318.77092   -29105.681    152.03129   -29257.712   -6257.3712 
   37800     282.6382   -29136.626    134.79852   -29271.425    28205.965 
   38000    296.44511   -29127.802    141.38345   -29269.186    29655.583 
   38200    290.71086   -29123.304    138.64862   -29261.952   -14535.898 
   38400    280.82254    -29151.05    133.93258   -29284.983   -31292.249 
   38600    323.55656    -29118.36    154.31371   -29272.673    116.94326 
   38800    281.46696   -29115.923    134.23993   -29250.163    2259.6104 
   39000    282.36461   -29143.503    134.66804   -29278.171    5341.6851 
   39200     315.1239   -29112.588    150.29192    -29262.88    26731.964 
   39400    301.00419   -29126.611    143.55781   -29270.169    33729.021 
   39600    271.56847   -29142.182    129.51905   -29271.701   -20018.881 
   39800    337.27746    -29103.48    160.85761   -29264.338   -22342.693 
   40000    276.00526   -29131.265    131.63508     -29262.9    4060.8044 
   40200     305.6427   -29138.212    145.77005   -29283.982    17748.864 
   40400    289.99505    -29105.33    138.30723   -29243.637   -20732.411 
   40600    300.51839   -29130.026    143.32612   -29273.352    62090.087 
   40800    295.46702   -29126.585    140.91697   -29267.502   -10732.933 
   41000    332.16755   -29098.152    158.42054   -29256.573    34959.281 
   41200     313.4097   -29109.573    149.47437   -29259.048   -24707.588 
   41400    289.17793    -29131.74    137.91752   -29269.658    15699.783 
   41600    286.37376   -29138.649    136.58013   -29275.229   -9128.4365 
   41800     307.1346   -29107.134    146.48158   -29253.615   -32122.205 
   42000    300.91596   -29131.598    143.51573   -29275.114     36830.52 
   42200    304.69226   -29127.682    145.31676   -29272.999   -7321.6956 
   42400    303.53665   -29112.116    144.76562   -29256.881    23730.354 
   42600    281.72562   -29131.073    134.36329   -29265.436   -15176.456 
   42800    302.53957   -29136.235    144.29008   -29280.525    9441.1152 
   43000    326.37221   -29111.564    155.65657    -29267.22    4320.8733 
   43200    305.84245   -29129.024    145.86532   -29274.889    1606.0843 
   43400    301.12546   -29121.664    143.61565    -29265.28   -11085.457 
   43600    312.30373   -29105.928     148.9469   -29254.875   -23045.791 
   43800    277.89455   -29134.763    132.53614   -29267.299    30400.812 
   44000    306.48998   -29119.371    146.17415   -29265.545    -8371.299 
   44200    323.34196   -29114.709    154.21135   -29268.921    -26965.14 
   44400    306.48294   -29121.219    146.17079    -29267.39    26240.643 
   44600    302.77478   -29108.039    144.40226   -29252.441   -3579.4294 
   44800    299.46583   -29131.848    142.82412   -29274.672   -11971.207 
   45000     318.5273   -29123.677     151.9151   -29275.592    3936.8801 
   45200    309.56518   -29112.708     147.6408   -29260.349   -33039.555 
   45400    295.56419   -29131.653    140.96332   -29272.617    17322.272 
   45600    292.29686   -29110.234    139.40503   -29249.639    27579.314 
   45800    317.04955   -29109.861    151.21032   -29261.072    50398.239 
   46000    298.60912   -29132.731    142.41553   -29275.147    11083.073 
   46200    286.48109   -29122.606    136.63131   -29259.237     35437.36 
   46400    315.81615   -29109.437    150.62207   -29260.059    34427.636 
   46600    308.42473   -29134.238    147.09689   -29281.335    6340.4919 
   46800    294.34403    -29131.43    140.38138   -29271.811   -7853.7613 
   47000    311.29104   -29105.045    148.46391   -29253.509   -12349.293 
   47200    290.02298   -29138.452    138.32055   -29276.772   -31964.166 
   47400    283.78306   -29133.611    135.34454   -29268.955   -31876.455 
   47600    327.46843   -29108.027    156.17939   -29264.206   -5417.8972 
   47800    281.67486   -29143.755    134.33908   -29278.094    5206.5577 
   48000    310.99562   -29128.168    148.32302   -29276.491    10625.618 
   48200    288.51725   -29115.973    137.60242   -29253.575   -15741.081 
   48400    304.75214   -29128.389    145.34532   -29273.735     7226.069 
   48600    312.91319   -29143.501    149.23756   -29292.739    20358.938 
   48800    310.96472   -29119.392    148.30828   -29267.701    6037.7896 
   49000    294.33788   -29116.338    140.37845   -29256.716    3477.8376 
   49200    250.94495   -29140.547    119.68308    -29260.23   -8901.6992 
   49400    280.16931    -29126.88    133.62104   -29260.501    722.30998 
   49600    307.44251   -29119.976    146.62843   -29266.605   -14849.652 
   49800    243.32351   -29151.201    116.04819   -29267.249   -6794.6038 
   50000    313.05472   -29124.806    149.30507   -29274.111   -167.50108 
   50200    284.78494   -29130.055    135.82237   -29265.877    2015.5513 
   50400    273.87589   -29160.655    130.61952   -29291.275      6995.84 
   50600    295.53415   -29134.609    140.94899   -29275.558   -429.57656 
   50800    303.16668   -29125.176    144.58917   -29269.765     21559.89 
   51000    312.90877   -29136.942    149.23546   -29286.178   -6936.1064 
   51200    286.14433    -29129.19     136.4707    -29265.66   -11435.266 
   51400    325.50615   -29111.652    155.24352   -29266.895    16877.049 
   51600    283.47918   -29142.924    135.19961   -29278.124   -16639.034 
   51800    292.49423   -29127.539    139.49916   -29267.038    24214.799 
   52000    326.91391    -29127.09    155.91492   -29283.005    -37803.68 
   52200      269.964   -29148.576    128.75383    -29277.33   -55504.989 
   52400    320.41649   -29122.512    152.81611   -29275.328   -4219.3715 
   52600    297.64092   -29132.004    141.95377   -29273.958   -6784.2415 
   52800    252.29225   -29163.191    120.32564   -29283.517    3079.0717 
   53000    312.57795   -29125.794    149.07768   -29274.872    26938.019 
   53200    293.09411    -29129.88    139.78526   -29269.665    28673.953 
   53400    279.78696   -29151.815    133.43868   -29285.254   -20341.806 
   53600    341.61907   -29119.933    162.92825   -29282.861     10077.01 
   53800    288.63272   -29139.416    137.65749   -29277.073    1560.4121 
   54000    270.81598   -29144.557    129.16016   -29273.717   -12840.726 
   54200    293.42592   -29134.858    139.94351   -29274.801   -26059.942 
   54400    297.16739   -29135.084    141.72792   -29276.812    358.08492 
   54600    307.46353   -29157.776    146.63846   -29304.415   -32587.953 
   54800    262.12937   -29129.686    125.01726   -29254.703     9558.378 
   55000    306.72751   -29128.629    146.28743   -29274.916    17138.457 
   55200    272.30066   -29160.989    129.86825   -29290.858   -23535.082 
   55400    300.47877   -29141.027    143.30722   -29284.334    -27823.41 
   55600    310.23465   -29126.398    147.96009   -29274.358    -23594.66 
   55800    337.51436   -29120.147    160.97059   -29281.117   -33228.223 
   56000    304.47869   -29146.641     145.2149   -29291.856   -12368.017 
   56200    328.05326   -29115.257    156.45831   -29271.716     3307.238 
   56400    278.70377   -29120.559    132.92208   -29253.481   -33603.569 
   56600    273.68809   -29135.796    130.52995   -29266.326    29750.432 
   56800    310.68863   -29137.642     148.1766   -29285.819     42453.69 
   57000     314.1711   -29111.797     149.8375   -29261.635    34201.274 
   57200     302.6195   -29131.383     144.3282   -29275.711    10900.914 
   57400    247.31664    -29167.41    117.95263   -29285.363   -30491.513 
   57600     258.6363    -29139.45    123.35131   -29262.801   -10484.648 
   57800    293.22914   -29113.867    139.84966   -29253.716    9177.6754 
   58000    308.75613   -29130.382    147.25494   -29277.637   -6949.0854 
   58200    265.71094   -29141.988    126.72541   -29268.713    4857.8588 
   58400    294.22361   -29118.619    140.32395   -29258.943    36086.556 
   58600    319.01303   -29128.151    152.14676   -29280.297    31607.367 
   58800      274.791   -29151.109    131.05597   -29282.165    22790.024 
   59000    297.74701   -29128.011    142.00436   -29270.016    7818.7911 
   59200    312.96881   -29121.084    149.26409   -29270.348   -15907.269 
   59400    300.42591   -29147.716    143.28201   -29290.998   -10137.161 
   59600     299.5756    -29126.49    142.87647   -29269.366   -9370.3434 
   59800    303.32732   -29122.858    144.66578   -29267.524   -24807.849 
   60000    288.31592   -29142.164     137.5064   -29279.671   -2146.2604 
   60200    302.29463   -29147.572    144.17326   -29291.745   -38883.891 
   60400    317.57358   -29120.106    151.46024   -29271.566    26217.059 
   60600    269.06933   -29145.704    128.32713   -29274.032   -31930.731 
   60800    294.89206   -29144.523    140.64276   -29285.166    5255.9996 
   61000    303.70096   -29128.846    144.84398    -29273.69   -21923.104 
   61200     301.7429   -29126.638    143.91012   -29270.548    26817.249 
   61400    295.83367   -29136.252    141.09184   -29277.344   -19307.159 
   61600     304.7039   -29139.844    145.32231   -29285.167    9592.6061 
   61800    319.07873   -29113.858     152.1781   -29266.036   -4778.6264 
   62000    298.08091   -29149.153    142.16361   -29291.316    11094.065 
   62200    293.06857   -29138.352    139.77308   -29278.126    36373.399 
   62400    326.32397   -29112.783    155.63356   -29268.417    40820.085 
   62600      312.021   -29122.378    148.81205    -29271.19   -22700.909 
   62800     296.6261    -29147.61    141.46977    -29289.08    5039.6983 
   63000    311.05417   -29119.744    148.35095   -29268.095    -66819.54 
   63200    316.36625   -29129.123    150.88443   -29280.007    6290.0169 
   63400    311.27514   -29133.056    148.45633   -29281.512    16071.834 
   63600       301.06   -29119.055    143.58443   -29262.639    25167.697 
   63800    350.02126   -29101.443     166.9355   -29268.378   -2001.0827 
   64000    278.25903   -29137.283    132.70997   -29269.993    14238.158 
   64200    325.47658    -29123.03    155.22942   -29278.259   -21898.135 
   64400    316.05352   -29099.917    150.73528   -29250.653    20550.162 
   64600    296.22344   -29135.618    141.27773   -29276.895   -31232.136 
   64800    309.86927   -29128.444    147.78583    -29276.23   -11718.133 
   65000    293.73005   -29103.128    140.08856   -29243.216   -13950.543 
   65200    280.86668   -29142.768    133.95363   -29276.721    528.70124 
   65400    310.54364   -29123.671    148.10746   -29271.778   -46334.835 
   65600    326.19726   -29118.686    155.57313   -29274.259   -10629.272 
   65800    294.63821   -29146.158    140.52168    -29286.68    23140.433 
   66000    345.62299   -29118.345    164.83784   -29283.182    22163.458 
   66200    296.86101   -29128.508    141.58181   -29270.089   -8830.1052 
   66400    299.85374   -29136.859    143.00913   -29279.868   -27873.271 
   66600    327.44523   -29108.436    156.16832   -29264.604   -2643.2872 
   66800    314.36704   -29125.551    149.93095   -29275.482     995.4967 
   67000    283.82657   -29130.469    135.36529   -29265.834   -56688.653 
   67200    320.54527   -29109.775    152.87753   -29262.652   -8416.0181 
   67400    337.25201    -29103.48    160.84547   -29264.325   -10534.675 
   67600    303.49909   -29129.319     144.7477   -29274.066     8050.613 
   67800    326.96007   -29114.889    155.93694   -29270.826   -14458.289 
   68000    334.32435   -29097.581    159.44918    -29257.03     6390.012 
   68200    290.89101   -29133.056    138.73454    -29271.79   -29769.469 
   68400    311.14753   -29127.301    148.39547   -29275.696     9288.648 
   68600    332.48565   -29097.834    158.57225   -29256.406    23112.426 
   68800    303.09914   -29124.359    144.55695   -29268.916    3497.1102 
   69000    283.22536   -29129.478    135.07856   -29264.557   -21273.428 
   69200    324.31928   -29111.111    154.67747   -29265.788    12251.428 
   69400     292.3129   -29117.546    139.41268   -29256.959   -2314.4701 
   69600    271.20573   -29136.864    129.34604    -29266.21    -48391.69 
   69800    323.59912   -29111.444      154.334   -29265.778   -12135.575 
   70000    267.78948   -29133.799    127.71673   -29261.516    18297.307 
   70200    287.62301   -29136.553    137.17593   -29273.729   -3121.9743 
   70400    321.23358     -29112.9    153.20581   -29266.106   -6059.6561 
   70600    266.08613   -29146.987    126.90435   -29273.891    21934.253 
   70800    269.56801   -29129.666    128.56497   -29258.231   -27901.338 
   71000     324.3739   -29121.067    154.70352    -29275.77    41695.686 
   71200    295.00866    -29125.25    140.69837   -29265.949   -1779.6981 
   71400     277.3301   -29154.691    132.26694   -29286.958    -20418.02 
   71600    317.12009   -29123.538    151.24396   -29274.782    22519.177 
   71800    289.50717   -29124.606    138.07454   -29262.681    4061.3831 
   72000    280.82336   -29157.808    133.93297   -29291.741    9243.4578 
   72200    287.55421   -29138.136    137.14312   -29275.279    29572.663 
   72400    316.29916   -29128.583    150.85244   -29279.436    26302.556 
   72600    284.86339   -29160.777    135.85978   -29296.637    51669.937 
   72800    272.06748   -29145.281    129.75704   -29275.038    5526.6201 
   73000    307.13574    -29128.06    146.48213   -29274.542    23543.221 
   73200     294.6413    -29139.24    140.52316   -29279.764   -21301.514 
   73400    262.28417   -29154.709    125.09109     -29279.8   -18910.978 
   73600    324.71896   -29129.179    154.86809   -29284.047    34726.743 
   73800    302.10832   -29143.633     144.0844   -29287.717    5574.8144 
   74000    273.71136   -29165.504    130.54105   -29296.045    -31531.68 
   74200    297.17835    -29128.48    141.73315   -29270.213    13968.414 
   74400    305.58875   -29132.615    145.74432   -29278.359   -53726.282 
   74600    292.80011   -29154.808    139.64504   -29294.453    54348.395 
   74800     302.6378   -29118.759    144.33693   -29263.096    12935.219 
   75000    296.12234   -29133.516    141.22951   -29274.746   -55084.028 
   75200    282.81699   -29148.972    134.88379   -29283.856   -29897.522 
   75400    313.63765   -29113.795    149.58308   -29263.378   -20385.926 
   75600     290.0517   -29135.901    138.33424   -29274.235    27819.268 
   75800    325.11849   -29128.644    155.05863   -29283.703   -10957.324 
   76000    297.74634    -29113.67    142.00405   -29255.674    12836.329 
   76200    272.83602   -29141.807    130.12357   -29271.931   -2401.0896 
   76400    315.14625   -29120.989    150.30258   -29271.292    23012.941 
   76600    292.43494    -29118.43    139.47088   -29257.901    26814.313 
   76800    293.24761   -29132.576    139.85847   -29272.435   -24555.752 
   77000    291.13689   -29135.249     138.8518   -29274.101   -23665.356 
   77200    295.16364   -29125.588    140.77228    -29266.36   -10052.399 
   77400    290.52567   -29112.759    138.56029   -29251.319    13993.899 
   77600    275.01538   -29139.726    131.16298   -29270.889    49672.815 
   77800    304.86837   -29122.608    145.40075   -29268.009   -22307.152 
   78000    314.49605    -29116.66    149.99248   -29266.653    428.07265 
   78200    298.34498   -29134.618    142.28955   -29276.908    31705.452 
   78400    267.81815    -29151.12     127.7304    -29278.85     24587.96 
   78600    291.59474   -29117.295    139.07017   -29256.366    182.02312 
   78800    278.96281   -29122.716    133.04562   -29255.762    18412.139 
   79000    265.63875   -29146.891    126.69099   -29273.582    5161.4538 
   79200    303.89555   -29115.806    144.93678   -29260.743   -3061.6529 
   79400    312.68539   -29119.657    149.12892   -29268.786   -22768.891 
   79600    284.26514    -29150.07    135.57446   -29285.645   -19434.488 
   79800    258.92914   -29174.066    123.49097   -29297.557    2748.2632 
   80000    274.66209   -29132.971    130.99448   -29263.966    13793.793 
   80200     329.1245   -29114.123    156.96922   -29271.092    12547.421 
   80400    311.56713    -29142.75    148.59559   -29291.346   -34415.856 
   80600    299.57336   -29137.888     142.8754   -29280.763    23169.534 
   80800    292.48341   -29130.152      139.494   -29269.646    1237.3486 
   81000    299.39311   -29125.444    142.78944   -29268.233     11957.03 
   81200    324.19122    -29106.32    154.61639   -29260.936   -6490.6566 
   81400    302.52596   -29140.341    144.28359   -29284.625     88.99599 
   81600    308.09062   -29129.584    146.93754   -29276.522    9131.3857 
   81800    352.65357   -29096.856    168.19093   -29265.047   -22977.759 
   82000    285.72453   -29140.994    136.27049   -29277.265    14032.451 
   82200    330.12554   -29129.395    157.44664   -29286.842   -2394.5451 
   82400    313.57556   -29128.637    149.55347   -29278.191    54144.363 
   82600    264.66528   -29151.702    126.22671   -29277.929   -22985.798 
   82800    316.10248   -29124.983    150.75863   -29275.741   -9085.8428 
   83000    290.39438   -29131.319    138.49768   -29269.817   -2212.4717 
   83200     305.8751   -29143.669    145.88089    -29289.55   -10916.043 
   83400    255.54151     -29168.3    121.87531   -29290.176    7779.5753 
   83600    303.65863   -29131.238    144.82379   -29276.061    -13897.85 
   83800    294.24478   -29131.745    140.33405   -29272.079   -17350.949 
   84000    272.03879   -29150.082    129.74336   -29279.826    16334.306 
   84200    314.82967   -29124.035    150.15159   -29274.187   -3811.0999 
   84400    286.05576   -29129.218    136.42846   -29265.647   -21046.934 
   84600    285.58655   -29149.471    136.20468   -29285.676    11567.525 
   84800    296.50679   -29147.078    141.41287   -29288.491   -32303.728 
   85000    302.15888   -29121.611    144.10852   -29265.719    56087.931 
   85200    261.86139    -29142.76    124.88945   -29267.649    14404.378 
   85400    305.73973   -29145.762    145.81633   -29291.579   -21810.446 
   85600    308.21055    -29130.16    146.99474   -29277.154    5615.3741 
   85800    292.31162   -29129.101    139.41207   -29268.513    25079.949 
   86000     306.8742   -29138.212    146.35739    -29284.57   -3160.6801 
   86200    312.04702   -29127.882    148.82446   -29276.707    2557.9386 
   86400    308.41392   -29113.623    147.09173   -29260.715    14035.723 
   86600    261.75841   -29147.001    124.84033   -29271.842   -519.12956 
   86800    305.80739   -29122.213     145.8486   -29268.061    19565.834 
   87000    282.62683   -29118.761     134.7931   -29253.554    36495.096 
   87200    289.52811   -29136.467    138.08453   -29274.552    4271.0089 
   87400    331.52857   -29128.389    158.11579   -29286.505   -18333.845 
   87600    337.65516    -29101.58    161.03774   -29262.618    15158.492 
   87800    293.85705   -29133.918    140.14913   -29274.067   -8513.5782 
   88000    281.94984   -29134.967    134.47023   -29269.437   -27412.464 
   88200    334.89115     -29103.1    159.71951    -29262.82    12517.496 
   88400    320.16223   -29120.888    152.69485   -29273.583    257.15615 
   88600    288.10283   -29137.574    137.40477   -29274.979   -6640.6363 
   88800    311.03278   -29115.273    148.34074   -29263.614   -12370.456 
   89000    304.53313   -29121.288    145.24087   -29266.529    18757.827 
   89200     300.0894   -29132.769    143.12152    -29275.89   -10832.002 
   89400    291.24898   -29119.953    138.90526   -29258.858   -15099.778 
   89600    331.06683    -29107.59    157.89558   -29265.486     52994.16 
   89800    292.70579   -29134.316    139.60006   -29273.916    10743.758 
   90000    309.18743   -29117.819    147.46064   -29265.279   -20631.716 
   90200    321.84212   -29095.493    153.49604   -29248.989   -4011.2937 
   90400      299.247   -29128.382    142.71975   -29271.102    38940.132 
   90600    286.77405   -29125.542    136.77104   -29262.313   -26569.278 
   90800    364.25848   -29102.973    173.72565   -29276.699   -7603.2601 
   91000    274.57224    -29136.93    130.95163   -29267.882   -29933.701 
   91200    303.06358   -29114.292    144.53999   -29258.832   -34573.106 
   91400    300.76406   -29127.421    143.44329   -29270.864    18980.946 
   91600    283.80144   -29135.682    135.35331   -29271.035    36895.352 
   91800    305.94176   -29117.158    145.91268   -29263.071     8153.678 
   92000    288.96712   -29132.379    137.81698   -29270.196   -18755.907 
   92200    267.94509   -29131.493    127.79095   -29259.284    35019.021 
   92400    320.32761   -29125.684    152.77372   -29278.458    24047.776 
   92600    283.66522   -29146.627    135.28834   -29281.915   -45950.037 
   92800    301.95586   -29126.977    144.01169   -29270.989   -38598.772 
   93000    278.05199   -29118.826    132.61123   -29251.437   -19458.949 
   93200    295.93467   -29143.583    141.14001   -29284.723   -14881.913 
   93400    304.53494   -29111.726    145.24173   -29256.968   -39954.628 
   93600    283.20916   -29119.244    135.07083   -29254.315      7243.35 
   93800    287.39728   -29133.441    137.06827   -29270.509   -24533.301 
   94000    330.59889   -29099.219     157.6724   -29256.892   -3092.7861 
   94200    281.50914   -29126.455    134.26004   -29260.715    982.36755 
   94400    304.24536   -29129.972    145.10362   -29275.075    19286.055 
   94600    326.56721   -29097.942    155.74957   -29253.692    -8738.111 
   94800    300.83954   -29127.791    143.47928    -29271.27    23392.181 
   95000    293.26756   -29120.125    139.86798   -29259.993   -6686.4981 
   95200    302.29006   -29117.918    144.17108   -29262.089   -13014.931 
   95400    259.96898   -29147.734     123.9869   -29271.721    -8299.835 
   95600    307.50825   -29118.407    146.65979   -29265.067    32494.007 
   95800    278.73814   -29126.793    132.93847   -29259.731   -53028.853 
   96000      273.816   -29161.404    130.59096   -29291.995    14942.229 
   96200    280.96665   -29135.189    134.00132   -29269.191    5824.1348 
   96400    299.13163   -29116.668    142.66473   -29259.332    21669.889 
   96600    300.07657   -29128.501     143.1154   -29271.616   -24842.014 
   96800    285.04616    -29141.58    135.94695   -29277.526   -4928.2932 
   97000    312.88216   -29114.892    149.22277   -29264.115   -1520.0715 
   97200    307.35495   -29129.357    146.58667   -29275.944    33920.589 
   97400    250.16885   -29158.072    119.31293   -29277.385   -50804.934 
   97600    271.17336   -29145.006     129.3306   -29274.337   -10022.649 
   97800    298.83047   -29125.831     142.5211   -29268.352    35551.006 
   98000    300.91109   -29132.109    143.51341   -29275.623   -3407.7007 
   98200    257.17053    -29150.46    122.65224   -29273.113    30214.662 
   98400    318.12682   -29117.133     151.7241   -29268.857    12937.198 
   98600     302.6046   -29132.044    144.32109   -29276.365    4661.7702 
   98800    267.86673   -29147.218    127.75357   -29274.972    27717.988 
   99000      308.984   -29123.634    147.36362   -29270.998    25384.742 
   99200    268.81623     -29117.2    128.20642   -29245.407   -50070.703 
   99400    286.47509   -29150.702    136.62845    -29287.33    20218.055 
   99600    313.87579       -29125    149.69666   -29274.697    28561.221 
   99800    276.08216   -29120.293    131.67175   -29251.965    2060.6641 
  100000    284.19712   -29130.798    135.54202    -29266.34   -29327.168 
  100200    276.96376   -29136.353    132.09222   -29268.446    1228.7801 
  100400    301.86032   -29108.576    143.96612   -29252.542    7320.5168 
  100600     286.0881   -29127.245    136.44389   -29263.689   -25303.087 
  100800    274.22179   -29129.325    130.78449    -29260.11   -16450.969 
  101000    305.27332   -29110.413    145.59388   -29256.007    14811.907 
  101200     296.0028    -29109.42     141.1725   -29250.592   -14350.912 
  101400    278.87407   -29137.128     133.0033   -29270.131    5149.5586 
  101600    318.38646     -29108.7    151.84793   -29260.548   -20182.013 
  101800    325.27784     -29111.9    155.13463   -29267.034   -16318.373 
  102000    295.14753   -29129.294     140.7646   -29270.059   -15613.505 
  102200    328.52457   -29116.269    156.68309   -29272.952    58049.452 
  102400    309.24397   -29105.223    147.48761    -29252.71    13197.646 
  102600    285.76031    -29129.73    136.28755   -29266.018   -8034.4059 
  102800    316.19244   -29124.484    150.80154   -29275.286   -25256.541 
  103000    343.06506   -29101.667    163.61788   -29265.285   -493.95525 
  103200    281.34216   -29132.554    134.18041   -29266.735      5797.59 
  103400    310.18718   -29126.162    147.93745   -29274.099    14474.126 
  103600    350.36772   -29095.952    167.10074   -29263.053    8534.0566 
  103800    306.94401   -29125.683    146.39069   -29272.074    15508.473 
  104000    313.45086   -29126.761      149.494   -29276.255   -35352.318 
  104200    329.37209   -29114.749     157.0873   -29271.836    11765.948 
  104400    294.61784   -29142.931    140.51197   -29283.443    17140.393 
  104600     296.9424   -29136.774    141.62062   -29278.395     21177.79 
  104800    309.96048   -29119.022    147.82933   -29266.851    7859.9004 
  105000    308.16747   -29139.429    146.97419   -29286.403    -21854.91 
  105200    267.59817   -29146.139    127.62549   -29273.765   -16140.538 
  105400    351.39268   -29117.728    167.58958   -29285.317   -8305.0354 
  105600    289.24303   -29147.869    137.94857   -29285.818   -35871.362 
  105800     295.4808   -29139.986    140.92354   -29280.909   -13531.186 
  106000    315.23635   -29119.623    150.34555   -29269.969   -50265.131 
  106200    346.52616   -29122.384    165.26859   -29287.652    25856.532 
  106400    283.20384     -29145.3    135.06829   -29280.368    980.18028 
  106600    292.40518   -29120.238    139.45669   -29259.694   -48826.475 
  106800    288.01886   -29131.259    137.36472   -29268.624    21877.076 
  107000    303.05696   -29141.688    144.53684   -29286.224   -18527.727 
  107200     305.1427   -29119.943    145.53159   -29265.474    1079.9307 
  107400    309.67649   -29144.597    147.69389   -29292.291   -7138.9532 
  107600    274.98642   -29137.489    131.14917   -29268.638    4902.7589 
  107800    287.18172   -29122.899    136.96546   -29259.865   -7959.3124 
  108000    282.35773   -29139.118    134.66476   -29273.782   -7587.5941 
  108200    282.81972   -29163.762     134.8851   -29298.647   -25846.836 
  108400    300.24218     -29128.1    143.19438   -29271.294    22171.218 
  108600    287.48213   -29121.851    137.10874    -29258.96    42986.281 
  108800     284.4575   -29141.483    135.66621   -29277.149    41441.511 
  109000    287.37469   -29145.395     137.0575   -29282.452   -783.53912 
  109200    336.72107   -29117.915    160.59225   -29278.507   -13261.566 
  109400    305.49419   -29140.537    145.69923   -29286.237    3297.0363 
  109600    274.12844   -29134.034    130.73997   -29264.774    119.77977 
  109800    309.16547   -29112.254    147.45017   -29259.704   -11978.942 
  110000    290.81522   -29138.779    138.69839   -29277.477    7303.6913 
  110200    293.78943    -29133.21    140.11688   -29273.327   -34726.608 
  110400    284.14259   -29130.652    135.51601   -29266.168    51579.865 
  110600    309.74395   -29122.276    147.72606   -29270.003   -44193.956 
  110800    300.29123   -29125.942    143.21778   -29269.159    6566.8672 
  111000    277.62185   -29142.801    132.40608   -29275.207   -8571.2399 
  111200    303.55857   -29110.179    144.77607   -29254.956    1712.9252 
  111400    293.04932   -29130.301     139.7639   -29270.065    27560.442 
  111600    299.03146   -29134.863    142.61696    -29277.48   -16565.689 
  111800    325.48527   -29127.953    155.23356   -29283.187   -35892.439 
  112000    318.85062   -29100.056     152.0693   -29252.125    40755.588 
  112200    308.41377    -29132.63    147.09166   -29279.721    7889.8863 
  112400    306.92582   -29138.121    146.38201   -29284.503     1205.416 
  112600    331.04637   -29116.434    157.88582    -29274.32     27269.88 
  112800    274.41823   -29137.812    130.87818    -29268.69    32610.378 
  113000    291.93967   -29144.509    139.23467   -29283.743   -31891.356 
  113200    308.03906   -29117.696    146.91295   -29264.609    3380.6915 
  113400     267.2986   -29150.665    127.48262   -29278.148   -27788.643 
  113600    289.12878   -29140.047    137.89407   -29277.941   -5370.9575 
  113800    284.15996   -29122.909     135.5243   -29258.433   -3037.4325 
  114000    280.41245   -29138.199      133.737   -29271.936   -20118.589 
  114200    274.53254   -29168.065     130.9327   -29298.998   -40203.491 
  114400    298.51846   -29135.139    142.37229   -29277.511   -14152.724 
  114600    319.00586   -29130.096    152.14334   -29282.239    3725.6785 
  114800    291.54153    -29152.43    139.04479   -29291.475    -1928.634 
  115000    294.33269    -29130.76    140.37597   -29271.136   -26311.892 
  115200    307.34761   -29126.469    146.58318   -29273.052    11520.324 
  115400    292.03029   -29152.215    139.27789   -29291.493    13207.302 
  115600    306.14329   -29144.432     146.0088   -29290.441    11544.873 
  115800    319.71388   -29121.743    152.48101   -29274.224    29406.828 
  116000    296.84985   -29114.447    141.57648   -29256.023    19128.811 
  116200    296.26304   -29137.996    141.29662   -29279.292    9127.2876 
  116400    279.24548   -29134.902    133.18044   -29268.083    3310.6521 
  116600    318.72024   -29113.722    152.00712    -29265.73   -36038.596 
  116800    281.82016   -29134.578    134.40838   -29268.986   -52105.405 
  117000    293.09604   -29119.465    139.78618   -29259.252   -27036.902 
  117200    309.78701   -29104.915     147.7466   -29252.661     43241.08 
  117400    276.02257   -29132.489    131.64334   -29264.133    11419.077 
  117600    302.69544   -29125.646    144.36442    -29270.01    20503.924 
  117800    302.27912    -29124.17    144.16586   -29268.336    5118.5629 
  118000    262.55387   -29130.806    125.21971   -29256.026   -68901.229 
  118200    274.61402   -29146.445    130.97156   -29277.417   -17940.262 
  118400    316.28785   -29116.478    150.84704   -29267.325    6163.1402 
  118600    296.95704    -29125.78    141.62761   -29267.407   -25041.925 
  118800    276.20585   -29162.952    131.73075   -29294.683    24142.101 
  119000    255.42884   -29154.811    121.82158   -29276.633     2890.875 
  119200    282.79062   -29119.882    134.87122   -29254.753    18263.009 
  119400    297.43382   -29117.922    141.85499   -29259.777     8769.688 
  119600     286.7191   -29144.158    136.74483   -29280.903     -2578.44 
  119800    318.01692   -29130.879    151.67168   -29282.551   -973.21593 
  120000    318.66745   -29130.225    151.98194   -29282.206    29057.614 
  120200    291.98831    -29133.04    139.25787   -29272.297    -51634.49 
  120400    284.25113   -29155.436    135.56778   -29291.004    29245.048 
  120600      307.275   -29123.566    146.54855   -29270.114    5355.8482 
  120800    310.06476   -29127.241    147.87906    -29275.12   -28517.218 
  121000    271.97817   -29155.843    129.71444   -29285.558    9205.4716 
  121200    301.20055    -29126.24    143.65146   -29269.891     4310.132 
  121400    300.81401   -29130.379    143.46711   -29273.847   -14042.728 
  121600    304.25059   -29144.818    145.10611   -29289.924   -13254.527 
  121800    322.08072   -29121.916    153.60983   -29275.526   -9136.1211 
  122000    328.78728   -29121.112    156.80839    -29277.92   -28297.808 
  122200    303.36701    -29144.27    144.68471   -29288.954   -6573.6093 
  122400    311.29198   -29127.097    148.46436   -29275.561     2479.694 
  122600    331.87304   -29112.253    158.28008   -29270.533   -15428.735 
  122800    322.15728    -29093.63    153.64635   -29247.276    2539.8709 
  123000    271.43934   -29129.651    129.45746   -29259.109     2704.931 
  123200    288.70264   -29125.937    137.69084   -29263.627    -29604.74 
  123400    300.26917   -29096.443    143.20726    -29239.65   -12824.825 
  123600    277.16792   -29123.449    132.18959   -29255.638    37005.464 
  123800    249.82955   -29134.141    119.15111   -29253.292    34616.681 
  124000    309.44145   -29124.211    147.58179   -29271.793   -44788.962 
  124200    337.75769   -29110.277    161.08664   -29271.364    -14279.24 
  124400    300.17282   -29141.097    143.16131   -29284.258    -12531.71 
  124600    300.87792   -29122.229    143.49759   -29265.726   -26988.645 
  124800    327.30097   -29117.983    156.09952   -29274.083    20879.591 
  125000    300.66647   -29120.821    143.39674   -29264.218    9633.0488 
  125200    293.76904   -29141.805    140.10715   -29281.912   -7617.4434 
  125400    292.21723   -29121.579    139.36705   -29260.946    19671.943 
  125600    305.90243   -29115.497    145.89393   -29261.391   -13906.115 
  125800    309.61839   -29130.055    147.66618   -29277.721   -16898.119 
  126000    277.76053   -29128.308    132.47222   -29260.781   -16428.827 
  126200    292.42773   -29118.992    139.46744    -29258.46    32319.216 
  126400    287.26118   -29131.541    137.00336   -29268.545   -35491.437 
  126600    286.68024   -29141.945    136.72629   -29278.671   -10744.437 
  126800    305.23374   -29113.032    145.57501   -29258.607    30564.695 
  127000    317.20079   -29134.791    151.28245   -29286.073    12991.616 
  127200    304.18922   -29135.948    145.07685   -29281.025    14873.187 
  127400    334.65347   -29089.424    159.60615    -29249.03   -29298.668 
  127600    330.23049    -29119.18     157.4967   -29276.677   -9397.7322 
  127800    313.09114    -29136.43    149.32243   -29285.752    3558.6009 
  128000    315.55557   -29113.464     150.4978   -29263.962    -12167.68 
  128200    285.35081     -29121.5    136.09225   -29257.592    11735.058 
  128400    308.50277   -29136.593     147.1341   -29283.727   -32262.877 
  128600    301.47872   -29123.319    143.78413   -29267.103    2901.8058 
  128800    311.80117   -29129.379    148.70721   -29278.086   -13875.776 
  129000    295.83988   -29144.359     141.0948   -29285.454    5347.4512 
  129200    329.91841   -29112.555    157.34786   -29269.902    7293.8189 
  129400    296.54059    -29123.47    141.42899   -29264.899   -30496.836 
  129600    315.26659   -29137.594    150.35997   -29287.954   -16735.643 
  129800    254.86637    -29168.58    121.55332   -29290.134   -24043.537 
  130000    311.90353    -29140.43    148.75603   -29289.186    29833.287 
  130200      304.966   -29128.176    145.44731   -29273.623   -19493.309 
  130400    280.84202   -29147.779    133.94188   -29281.721   -34713.786 
  130600    307.50148   -29140.769    146.65656   -29287.425     12813.19 
  130800    313.05847   -29123.782    149.30685   -29273.088    14652.651 
  131000    290.23955   -29145.501    138.42384   -29283.925    -4529.399 
  131200    331.28808   -29108.665    158.00109   -29266.666   -14241.978 
  131400    303.66187   -29124.867    144.82534   -29269.693   -15373.594 
  131600    301.65515   -29135.398    143.86827   -29279.266    17270.881 
  131800    332.02854   -29096.372    158.35424   -29254.727    1942.9014 
  132000    275.42582   -29127.528    131.35873   -29258.887    6693.5125 
  132200    280.12775   -29131.906    133.60122   -29265.507   -2925.5337 
  132400    346.10657   -29097.702    165.06847   -29262.771   -6460.5872 
  132600    291.00565   -29129.426    138.78921   -29268.215    9428.0542 
  132800    303.03626   -29129.122    144.52697   -29273.649   -23905.881 
  133000    322.29251   -29106.307    153.71084   -29260.018    60695.828 
  133200    293.79954    -29138.41     140.1217   -29278.532   -50384.703 
  133400    308.88968   -29127.361    147.31863   -29274.679    41914.675 
  133600    306.18444    -29109.82    146.02842   -29255.849   -25665.134 
  133800    287.68241   -29147.794    137.20426   -29284.998    3033.0777 
  134000    283.23497   -29121.694    135.08315   -29256.777    19832.663 
  134200    317.27788   -29132.321    151.31922    -29283.64    13544.362 
  134400    285.95623   -29146.029    136.38099    -29282.41   -13651.191 
  134600    287.55793    -29125.18    137.14489   -29262.325      15078.4 
  134800    301.91807    -29142.13    143.99367   -29286.123    6601.3669 
  135000    287.00803   -29151.648    136.88263    -29288.53   -25109.508 
  135200    294.81622   -29129.484    140.60658    -29270.09    20692.545 
  135400    287.66172   -29150.982    137.19439   -29288.176    27072.515 
  135600    273.99618   -29153.029    130.67689   -29283.706    1450.4264 
  135800    281.49712   -29136.359    134.25431   -29270.613    30058.486 
  136000    294.82091   -29134.525    140.60882   -29275.134   -8514.5434 
  136200    309.40346   -29115.536    147.56367     -29263.1   -2618.8464 
  136400    282.09537   -29144.986    134.53964   -29279.525   -1828.0249 
  136600    294.78303   -29132.772    140.59076   -29273.363    12913.856 
  136800    355.33316   -29101.638    169.46891   -29271.107    1377.5391 
  137000    280.22569   -29140.061    133.64793   -29273.709   -58385.208 
  137200    312.56243     -29118.5    149.07028   -29267.571   -17881.447 
  137400    280.78025   -29128.657    133.91242   -29262.569   -24101.889 
  137600    291.03223   -29143.495    138.80189   -29282.297    -2185.796 
  137800    331.38509   -29106.218    158.04736   -29264.265    70287.585 
  138000    311.86477   -29129.825    148.73754   -29278.563   -19156.215 
  138200    305.40847   -29128.385    145.65834   -29274.043   -27035.245 
  138400    298.75842   -29105.656    142.48674   -29248.143     5231.214 
  138600    308.63013   -29131.285    147.19485   -29278.479   -5907.1769 
  138800    334.21753   -29131.036    159.39823   -29290.434   -10333.544 
  139000    309.81207   -29101.021    147.75855   -29248.779    20038.314 
  139200    308.43149   -29129.574    147.10011   -29276.674    27818.661 
  139400    292.56253   -29129.412    139.53173   -29268.943     2771.306 
  139600    320.00624   -29093.261    152.62045   -29245.881    9699.8369 
  139800    298.92239   -29119.089    142.56494   -29261.654    -22732.74 
  140000     256.5807    -29127.39    122.37093   -29249.761   -43009.994 
  140200    249.36635   -29130.855    118.93019   -29249.786   -13593.613 
  140400    327.46802   -29113.458    156.17919   -29269.637    5166.0436 
  140600    312.47002   -29112.713    149.02621   -29261.739    4922.9406 
  140800    287.04097   -29141.333    136.89834   -29278.231    45862.642 
  141000    310.19858   -29121.265    147.94289   -29269.208    53191.706 
  141200    325.16955   -29112.437    155.08299    -29267.52    5344.6032 
  141400     270.7225   -29134.854    129.11558   -29263.969    33536.534 
  141600    274.00111   -29142.237    130.67924   -29272.916   -25312.999 
  141800    300.69206   -29111.611    143.40894    -29255.02    27637.671 
  142000    269.54381   -29143.392    128.55342   -29271.945    18385.333 
  142200     284.6881   -29137.629    135.77618   -29273.405   -13783.592 
  142400    326.73988   -29113.049    155.83192   -29268.881    9852.3261 
  142600    270.50716   -29140.327    129.01288    -29269.34   -18965.531 
  142800    276.98295   -29138.915    132.10137   -29271.017   -24196.417 
  143000     296.5018   -29115.226    141.41048   -29256.637   -15033.263 
  143200     305.2765   -29123.781     145.5954   -29269.377   -18803.491 
  143400    307.78216   -29129.274    146.79042   -29276.065   -376.82198 
  143600    292.53182   -29126.319    139.51709   -29265.837    313.69602 
  143800    319.51805   -29120.564    152.38762   -29272.952   -11543.323 
  144000    297.51514   -29140.442    141.89378   -29282.335     22981.76 
  144200     311.7997    -29133.92    148.70651   -29282.627    26758.834 
  144400    310.61029   -29114.171    148.13924    -29262.31    4444.7242 
  144600    313.97824   -29136.905    149.74552    -29286.65    24194.724 
  144800    309.74201   -29134.319    147.72513   -29282.044   -10290.792 
  145000    325.68122   -29122.363    155.32702    -29277.69    2819.3736 
  145200    335.08813   -29095.895    159.81345   -29255.709    23217.059 
  145400    318.17708   -29130.878    151.74807   -29282.626   -986.37062 
  145600    288.24764   -29137.779    137.47383   -29275.253    15843.724 
  145800    311.85517    -29106.69    148.73296   -29255.423   -662.23614 
  146000    291.55445   -29129.598    139.05095   -29268.649   -18036.219 
  146200    309.30193   -29126.403    147.51525   -29273.919   -18667.449 
  146400    287.02438   -29136.832    136.89042   -29273.722    3498.2419 
  146600    291.56271   -29136.162    139.05489   -29275.217   -11086.236 
  146800    332.22672   -29114.622    158.44876   -29273.071    25659.146 
  147000    304.39719   -29133.404    145.17603    -29278.58    3091.9666 
  147200    308.81961   -29129.655    147.28521    -29276.94    10763.489 
  147400    315.33493    -29127.07    150.39256   -29277.462    8573.1432 
  147600    269.53159   -29153.347    128.54759   -29281.895    10428.034 
  147800    318.14828   -29123.986    151.73433    -29275.72   -53078.705 
  148000    288.85355   -29129.136    137.76281   -29266.898    3114.4199 
  148200    299.90764   -29145.262    143.03484   -29288.297    33077.075 
  148400    263.24632   -29150.667    125.54997   -29276.217   -10697.477 
  148600    302.36057   -29120.877    144.20471   -29265.082    6670.5615 
  148800     316.5636   -29124.728    150.97855   -29275.706   -107.51189 
  149000    265.61962   -29145.931    126.68186   -29272.613   -11980.652 
  149200    311.38662   -29114.136     148.5095   -29262.646    14764.149 
  149400    291.75545   -29132.001    139.14681   -29271.148   -6818.6771 
  149600    286.29714   -29135.086    136.54358    -29271.63    3001.6362 
  149800    320.00405   -29103.833     152.6194   -29256.452    36470.414 
  150000    296.93826   -29131.472    141.61865   -29273.091    17696.463 
  150200    300.78027   -29129.432    143.45102   -29272.883   -41818.249 
  150400    311.80058   -29122.941    148.70693   -29271.648    -14840.28 
  150600    317.93605   -29115.811    151.63312   -29267.444   -25877.317 
  150800    304.34905    -29124.41    145.15308   -29269.563   -49868.612 
  151000    272.98443    -29141.81    130.19436   -29272.004   -20139.097 
  151200    308.21894   -29107.295    146.99874   -29254.293    -35343.92 
  151400    286.60842   -29131.328    136.69204   -29268.021    51133.093 
  151600    295.26193   -29132.919    140.81916   -29273.738   -6619.4018 
  151800    326.64259   -29095.295    155.78552   -29251.081   -22508.204 
  152000    275.32119   -29124.061    131.30883    -29255.37    10704.942 
  152200    315.44987   -29129.778    150.44738   -29280.225    -18231.66 
  152400    324.57375   -29115.575    154.79883   -29270.374    18029.258 
  152600    262.76714   -29128.958    125.32143   -29254.279    12018.978 
  152800    276.16011   -29138.484    131.70893   -29270.193    1062.2094 
  153000    347.33116   -29104.077    165.65251   -29269.729    6924.4036 
  153200    301.22239   -29119.664    143.66188   -29263.325    -100.9383 
  153400    300.94278   -29140.331    143.52852    -29283.86   -2563.6558 
  153600    293.97024   -29146.503    140.20311   -29286.706     -7743.87 
  153800    320.56486   -29118.629    152.88687   -29271.516    49953.442 
  154000    269.21843   -29139.128    128.39824   -29267.527    3617.9475 
  154200    302.22464   -29141.548    144.13988   -29285.688    1263.7578 
  154400    303.50204   -29125.238    144.74911   -29269.987    5382.4978 
  154600    332.15858   -29087.085    158.41626   -29245.501    15599.205 
  154800    321.44429   -29117.727     153.3063   -29271.033   -18068.003 
  155000     295.6271   -29133.939    140.99331   -29274.933    8920.5273 
  155200    293.96841   -29129.094    140.20224   -29269.296   -12034.552 
  155400    333.60018   -29107.788     159.1038   -29266.892   -20973.833 
  155600    306.33689   -29140.387    146.10113   -29286.488   -13615.017 
  155800    314.16287   -29129.224    149.83357   -29279.057   -19342.211 
  156000    321.47359    -29099.53    153.32027    -29252.85   -23547.128 
  156200    312.04411   -29129.403    148.82307   -29278.226    37525.681 
  156400    282.61842   -29142.611    134.78909     -29277.4    33521.118 
  156600    296.77518   -29134.546    141.54087   -29276.086    21016.386 
  156800    305.32972   -29116.784    145.62078   -29262.405     2940.232 
  157000    285.48884   -29147.544    136.15808   -29283.702   -3556.2323 
  157200    300.46143   -29130.218    143.29895   -29273.517    -14458.39 
  157400    315.56682   -29121.978    150.50316   -29272.481   -46924.226 
  157600     269.7921   -29154.546    128.67184   -29283.217   -8810.2936 
  157800    305.37893   -29124.003    145.64425   -29269.648     -24936.8 
  158000    282.72421     -29128.7    134.83955    -29263.54   -3912.4721 
  158200    278.96091    -29151.32    133.04472   -29284.365    19484.128 
  158400    349.31258   -29113.075    166.59751   -29279.672    3787.1646 
  158600    286.54643   -29141.827    136.66248    -29278.49    70971.874 
  158800    298.31729   -29134.037    142.27635   -29276.313     9257.287 
  159000    300.12178   -29120.069    143.13696   -29263.206   -19794.735 
  159200    301.86951   -29137.789    143.97051    -29281.76   -21380.365 
  159400    279.11808   -29131.204    133.11967   -29264.323   -33433.191 
  159600    337.55368    -29108.56    160.98934    -29269.55   -43436.418 
  159800    268.80838   -29138.847    128.20267    -29267.05   -3073.8412 
  160000    311.08538   -29123.419    148.36583   -29271.784   -13182.451 
  160200    316.24043   -29093.919    150.82442   -29244.744   -19932.913 
  160400    278.31553   -29139.989    132.73692   -29272.726    52521.878 
  160600    296.30859   -29123.993    141.31834   -29265.311   -47932.228 
  160800    304.33889   -29111.122    145.14823    -29256.27    2722.2806 
  161000    255.75148    -29145.49    121.97545   -29267.465   -10709.803 
  161200    305.99626   -29126.052    145.93868    -29271.99   -43866.347 
  161400    306.18606   -29116.705     146.0292   -29262.735   -30976.595 
  161600      282.783   -29129.181    134.86758   -29264.049    45071.884 
  161800    319.75301   -29136.967    152.49968   -29289.467    14012.089 
  162000     326.5681   -29108.705    155.74999   -29264.455   -40161.035 
  162200    289.49283   -29125.242     138.0677   -29263.309   -44137.247 
  162400    273.71305   -29128.059    130.54186   -29258.601   -1743.4987 
  162600    314.23437    -29112.65    149.86768   -29262.518    9666.7154 
  162800    319.67975   -29106.115    152.46474   -29258.579    59723.032 
  163000    322.80595   -29132.724    153.95572    -29286.68    27413.193 
  163200    311.92408   -29108.526    148.76583   -29257.292   -44902.041 
  163400    290.41477   -29120.324     138.5074   -29258.832    -22472.53 
  163600    286.64513   -29136.273    136.70955   -29272.983   -22805.462 
  163800    324.35669   -29109.559    154.69531   -29264.254   -11939.419 
  164000    276.90567   -29121.734    132.06451   -29253.799   -7503.0908 
  164200    303.38339   -29143.352    144.69252   -29288.045    5832.2907 
  164400    299.54675    -29114.13    142.86271   -29256.992   -26215.205 
  164600    298.30272   -29121.474     142.2694   -29263.743   -19265.412 
  164800    299.94114   -29128.152    143.05081   -29271.203   -30741.312 
  165000    272.92407   -29143.557    130.16557   -29273.722    14861.294 
  165200    288.56541   -29138.641    137.62539   -29276.266    38837.598 
  165400    283.11332   -29117.223    135.02512   -29252.248    -26337.64 
  165600    302.43968   -29142.908    144.24244   -29287.151   -30717.401 
  165800    255.57471   -29141.046    121.89115   -29262.937    4181.8182 
  166000    275.48068   -29127.487    131.38489   -29258.872    6449.0173 
  166200    305.80665    -29107.95    145.84824   -29253.798    7658.6445 
  166400    277.77665   -29142.669    132.47991   -29275.149   -10857.574 
  166600    316.41174   -29128.373    150.90613   -29279.279   -627.14825 
  166800    316.26168   -29118.785    150.83456    -29269.62    10348.353 
  167000    304.65804   -29130.765    145.30044   -29276.066    3846.4551 
  167200    320.77401   -29128.939    152.98662   -29281.926   -51502.433 
  167400    326.07043   -29103.632    155.51264   -29259.144   -6916.8066 
  167600    313.71154   -29132.203    149.61832   -29281.821   -47802.646 
  167800    299.45426   -29129.076     142.8186   -29271.894   -4165.2688 
  168000    327.68486   -29096.359    156.28261   -29252.642    17254.542 
  168200    318.78059    -29118.15     152.0359   -29270.186    18264.493 
  168400    299.18066   -29128.449    142.68811   -29271.137    6114.3498 
  168600    290.67199     -29103.4    138.63008    -29242.03   -14037.396 
  168800    289.64498    -29120.89    138.14027   -29259.031   -14088.839 
  169000    304.74697   -29128.633    145.34285   -29273.976   -21481.865 
  169200    332.04229   -29104.637     158.3608   -29262.997    36420.651 
  169400    319.68829   -29099.458    152.46881   -29251.927    27552.098 
  169600    307.16493   -29130.004    146.49605     -29276.5   -15025.753 
  169800    288.43356   -29125.431    137.56251   -29262.993    1013.0878 
  170000     325.6003   -29100.602    155.28842    -29255.89   -22439.607 
  170200    297.39081   -29121.949    141.83448   -29263.783   -20887.401 
  170400    320.98231   -29119.724    153.08597    -29272.81    3678.1648 
  170600     318.4421   -29093.295    151.87446    -29245.17   -15282.306 
  170800    280.52698   -29129.637    133.79162   -29263.429   -21683.912 
  171000    293.69339   -29116.966    140.07107   -29257.037    31746.716 
  171200    318.04498   -29100.012    151.68507   -29251.697    2374.2597 
  171400    279.22019    -29132.85    133.16837   -29266.018    19117.321 
  171600    295.35986   -29121.563    140.86586   -29262.429   -33674.564 
  171800    313.94843   -29109.776     149.7313   -29259.507    36409.245 
  172000     296.4914   -29140.853    141.40553   -29282.258   -10007.314 
  172200    311.35183   -29116.065    148.49291   -29264.558   -17898.792 
  172400    278.26136   -29135.363    132.71108   -29268.074   -11410.569 
  172600    292.18531   -29138.529    139.35183    -29277.88   -63563.127 
  172800    332.16532   -29122.874    158.41948   -29281.294   -21886.707 
  173000    294.11203   -29130.036    140.27073   -29270.307     3681.115 
  173200     291.0334   -29125.329    138.80245   -29264.132    43281.354 
  173400    300.54862   -29123.794    143.34053   -29267.134    19259.834 
  173600     330.5625   -29113.581    157.65504   -29271.236    13014.131 
  173800    305.92108   -29142.183    145.90282   -29288.086   -10548.643 
  174000    284.01794   -29125.484    135.45656   -29260.941   -20944.659 
  174200    292.11602   -29122.657    139.31878   -29261.976   -38103.915 
  174400    304.85379   -29123.633     145.3938   -29269.027   -8680.3492 
  174600    335.05428   -29102.901    159.79731   -29262.698    15016.709 
  174800    298.45099   -29136.635    142.34011   -29278.975    9670.1014 
  175000     288.4174   -29121.239     137.5548   -29258.794    3693.4323 
  175200    336.18835   -29100.348    160.33818   -29260.686    13866.917 
  175400    287.46885   -29135.546    137.10241   -29272.649    935.85048 
  175600    303.88192   -29126.117    144.93029   -29271.047   -13969.792 
  175800    298.48152   -29099.013    142.35467   -29241.367   -28418.083 
  176000    302.12795   -29140.664    144.09376   -29284.757   -35924.406 
  176200    292.50336   -29123.484    139.50351   -29262.988    39519.714 
  176400    295.29081   -29106.725    140.83293   -29247.558   -20539.384 
  176600    278.10678   -29140.684    132.63736   -29273.322   -8670.5176 
  176800    284.86633   -29125.183    135.86119   -29261.044   -9144.6688 
  177000     328.5843   -29110.263    156.71158   -29266.975    2998.7854 
  177200    278.03668   -29143.601    132.60393   -29276.205    10103.871 
  177400    292.90349       -29125    139.69435   -29264.694    17270.696 
  177600      342.367   -29122.625    163.28496    -29285.91   -4467.1913 
  177800    265.60531   -29155.067    126.67504   -29281.742    6938.2453 
[...]
  950000    295.01181    -29123.83    140.69987    -29264.53     30189.88 
  950200    301.79772   -29139.923    143.93627   -29283.859    10690.209 
  950400    284.35013   -29150.255      135.615    -29285.87    24099.808 
  950600    313.55855   -29132.845    149.54536    -29282.39    10892.237 
  950800    295.44729   -29124.645    140.90756   -29265.553   -47773.832 
  951000    299.91442   -29156.759    143.03807   -29299.797    26456.928 
  951200    289.88425   -29134.706    138.25438    -29272.96    -4855.031 
  951400    308.42277   -29126.057    147.09595   -29273.153   -30777.695 
  951600    279.04991   -29140.019    133.08716   -29273.107    11139.686 
  951800    309.15697   -29144.935    147.44611   -29292.382   -30864.104 
  952000    323.90172   -29121.276    154.47832   -29275.755    56784.274 
  952200    300.38838   -29147.496    143.26411    -29290.76   -11266.709 
  952400    266.86575   -29144.829    127.27618   -29272.106   -24840.667 
  952600    287.17535   -29133.766    136.96243   -29270.728    8998.7157 
  952800    277.49856   -29140.429    132.34728   -29272.776    27646.926 
  953000    303.86877   -29148.698    144.92401   -29293.622    1094.6591 
  953200    303.28534   -29151.611    144.64576   -29296.257   -13418.697 
  953400    311.25351   -29123.722    148.44601   -29272.168    16786.816 
  953600    275.95098   -29153.548    131.60919   -29285.158    18051.574 
  953800    304.17566   -29152.319    145.07038   -29297.389    14069.523 
  954000    294.42216   -29129.697    140.41865   -29270.116   -39907.658 
  954200    292.04262   -29137.083    139.28377   -29276.366    14930.591 
  954400    283.29369   -29157.166    135.11115   -29292.277    23127.288 
  954600    302.89827   -29128.858    144.46115   -29273.319    30947.879 
  954800    320.39711   -29135.986    152.80687   -29288.793    27217.041 
  955000    285.18311    -29152.43    136.01227   -29288.443   -15985.832 
  955200    255.61745   -29166.342    121.91153   -29288.253   -256.26173 
  955400    306.29783   -29136.252     146.0825   -29282.334    26306.587 
  955600    307.61824   -29130.595    146.71225   -29277.307   -11479.501 
  955800    270.30331   -29160.448    128.91565   -29289.363    22809.665 
  956000    287.54706   -29135.772    137.13971   -29272.912   -8280.6663 
  956200    308.08001   -29130.816    146.93248   -29277.749    7540.1747 
  956400    267.85937   -29146.923    127.75006   -29274.673    40868.164 
  956600    301.68902   -29148.618    143.88442   -29292.502    13819.943 
  956800    297.22212   -29123.796    141.75403    -29265.55    3556.6469 
  957000    301.03981   -29147.399     143.5748   -29290.973    5542.1959 
  957200    256.77018   -29159.236     122.4613   -29281.698    73162.399 
  957400    345.05903   -29124.411    164.56887    -29288.98   -20367.229 
  957600    304.47603   -29138.841    145.21363   -29284.054    -25483.82 
  957800    274.78103   -29157.464    131.05121   -29288.515    9686.7349 
  958000    306.01932   -29123.983    145.94967   -29269.932    31368.878 
  958200    309.91853   -29140.629    147.80932   -29288.438   -60758.332 
  958400    274.71467   -29149.123    131.01956   -29280.143    39272.668 
  958600    313.00178   -29112.307    149.27982   -29261.587   -2607.2112 
  958800    304.97895   -29140.237    145.45349    -29285.69   -52445.416 
  959000    284.59673   -29142.776    135.73261   -29278.508   -12170.403 
  959200    312.84297   -29113.924    149.20407   -29263.128    30975.563 
  959400    295.23788   -29136.362    140.80768   -29277.169   -711.86079 
  959600    309.39486   -29139.082    147.55957   -29286.642    4137.2115 
  959800    374.48344   -29105.793    178.60224   -29284.396     2536.585 
  960000     308.2493   -29132.961    147.01322   -29279.974     -22300.1 
  960200    307.60226   -29139.604    146.70463   -29286.309   -1825.6272 
  960400     323.5006   -29111.482    154.28701   -29265.769   -54793.844 
  960600    318.89628   -29125.977    152.09108   -29278.068      23924.2 
  960800    315.22922   -29136.704    150.34215   -29287.046   -26645.496 
  961000    259.20348   -29138.682    123.62182   -29262.304    33973.354 
  961200    339.63648   -29111.949    161.98269   -29273.931    2901.8017 
  961400    295.60184   -29142.948    140.98127    -29283.93   -7841.4978 
  961600    319.98637   -29135.042    152.61098   -29287.653   -13701.761 
  961800    321.02584   -29107.817    153.10673   -29260.924    3857.3139 
  962000    322.91501   -29108.556    154.00773   -29262.564    11705.231 
  962200    265.10222   -29138.378     126.4351   -29264.813   -28975.013 
  962400    325.87156   -29131.697     155.4178   -29287.114   -14960.079 
  962600    308.19819   -29107.632    146.98884   -29254.621    43300.218 
  962800    297.45163   -29144.073    141.86349   -29285.936    552.83857 
  963000     278.7672   -29133.513    132.95233   -29266.465    12941.879 
  963200    293.27509   -29107.765    139.87157   -29247.637   -8184.5576 
  963400    302.21521   -29130.763    144.13538   -29274.898    32570.263 
  963600    281.82758   -29142.776    134.41192   -29277.188    30911.831 
  963800    293.53329   -29110.595    139.99472   -29250.589   -3924.5013 
  964000    304.67564   -29125.582    145.30883   -29270.891    39722.212 
  964200    294.49521   -29135.625    140.45348   -29276.078     -1627.09 
  964400    281.15254    -29157.66    134.08997    -29291.75   -3789.4429 
  964600    310.71445   -29127.092    148.18892   -29275.281    617.91127 
  964800    308.37141   -29134.325    147.07146   -29281.397   -15476.649 
  965000     288.8173   -29154.464    137.74552   -29292.209   -4967.5047 
  965200    320.95656   -29138.009    153.07369   -29291.083   -2640.1896 
  965400    293.10633   -29136.815    139.79109   -29276.606    40096.958 
  965600    333.50629   -29141.646    159.05902   -29300.705   -5941.5875 
  965800    328.16655    -29128.02    156.51235   -29284.532   -41321.578 
  966000    314.54738   -29130.625    150.01696   -29280.642    16425.072 
  966200    293.95693   -29153.294    140.19676   -29293.491    13856.148 
  966400    297.77121   -29135.102    142.01591   -29277.118   -17937.337 
  966600     324.7672   -29139.406    154.89109   -29294.298    24442.223 
  966800    304.28491   -29143.417    145.12248    -29288.54   -35232.461 
  967000    314.36548   -29148.874     149.9302   -29298.805    15170.015 
  967200    320.55048   -29121.718    152.88002   -29274.598    27139.888 
  967400    297.68203   -29144.435    141.97338   -29286.408    7554.3548 
  967600    293.07974   -29151.117    139.77841   -29290.895   -23521.545 
  967800    275.43255   -29129.554    131.36194   -29260.915    22855.183 
  968000    311.09409   -29138.269    148.36998   -29286.639    35491.124 
  968200    247.62607    -29152.06     118.1002    -29270.16    -15753.34 
  968400    310.37281   -29127.013    148.02598   -29275.039   -16125.364 
  968600    257.48461   -29137.024    122.80203   -29259.826    39624.898 
  968800    264.35117   -29169.955     126.0769   -29296.031    2221.7741 
  969000    289.89078   -29150.669     138.2575   -29288.927   -18991.597 
  969200    301.59508   -29129.085    143.83963   -29272.925    60274.972 
  969400    284.23581    -29141.66    135.56048   -29277.221    1993.1651 
  969600    282.98163   -29151.057    134.96232   -29286.019   -19305.693 
  969800     300.5043   -29130.183     143.3194   -29273.503    7892.5655 
  970000    293.45845   -29143.782    139.95902   -29283.741      2214.68 
  970200    265.09474   -29161.056    126.43153   -29287.487   -3505.2081 
  970400    313.07574   -29134.923    149.31509   -29284.238   -17965.087 
  970600    279.63521   -29126.418    133.36631   -29259.784    11709.877 
  970800    273.82166   -29125.454    130.59366   -29256.048   -25644.233 
  971000    267.68331   -29148.149    127.66609   -29275.815    16605.953 
  971200    310.55883   -29133.735     148.1147    -29281.85     28286.56 
  971400    292.18132   -29119.759    139.34992   -29259.108   -27473.942 
  971600    278.46058   -29145.646    132.80609   -29278.452    9303.1476 
  971800    309.83838    -29136.03     147.7711   -29283.801    34614.242 
  972000     323.2118   -29122.131    154.14928    -29276.28    24687.217 
  972200    325.06902   -29108.462    155.03504   -29263.497    22751.842 
  972400    277.48342    -29144.07    132.34006    -29276.41    24663.528 
  972600    292.76788   -29131.658    139.62967   -29271.287    26976.593 
  972800     309.2166   -29102.704    147.47455   -29250.178   -35438.503 
  973000    280.52317   -29145.295    133.78981   -29279.085    13783.566 
  973200    308.04239   -29127.556    146.91454   -29274.471   -6663.6677 
  973400    304.05132   -29123.818    145.01108   -29268.829   -17908.604 
  973600     256.8441    -29153.43    122.49656   -29275.927   -30881.534 
  973800    306.31361   -29131.302    146.09003   -29277.392    7528.0066 
  974000    310.29846   -29129.856    147.99052   -29277.847    12734.074 
  974200    317.12707   -29134.969    151.24729   -29286.216    11320.654 
  974400    331.45612   -29135.769    158.08124    -29293.85    6629.3766 
  974600    288.36915   -29125.021    137.53179   -29262.553    5217.1294 
  974800    270.48996   -29147.592    129.00467   -29276.597   -28478.721 
  975000    306.19471   -29135.094    146.03332   -29281.128   -265.77644 
  975200    309.56622   -29121.586     147.6413   -29269.227    1541.5084 
  975400    289.74934   -29142.293    138.19004   -29280.483   -10083.284 
  975600    257.01157   -29164.886    122.57643   -29287.463   -8803.6705 
  975800    283.63837   -29134.761    135.27554   -29270.036    7333.9888 
  976000     312.8788   -29133.198    149.22116   -29282.419    13705.649 
  976200    273.09722   -29164.794    130.24815   -29295.043    11815.276 
  976400    295.93237   -29143.924    141.13891   -29285.063     14092.24 
  976600      338.832   -29129.534    161.59901   -29291.133    12910.279 
  976800    272.94039   -29157.964    130.17335   -29288.137    49109.789 
  977000    284.14512    -29144.25    135.51722   -29279.767    -24046.96 
  977200    309.80844   -29136.375    147.75682   -29284.132    24320.036 
  977400    296.88539   -29143.656    141.59343    -29285.25    5377.8352 
  977600     307.8393   -29131.827    146.81768   -29278.645    8389.6485 
  977800    297.42812   -29122.637    141.85228   -29264.489   -16993.778 
  978000    275.67025   -29154.794    131.47531    -29286.27   -7404.6305 
  978200    315.93606    -29138.71    150.67926   -29289.389    1516.6491 
  978400    331.06878   -29130.327     157.8965   -29288.223   -8416.4172 
  978600    285.30938   -29137.584    136.07249   -29273.657    35875.886 
  978800    334.88411   -29134.511    159.71615   -29294.227   -8275.4244 
  979000    301.99585   -29118.486    144.03076   -29262.517    49332.486 
  979200    289.82328   -29152.835     138.2253    -29291.06     37550.35 
  979400    293.47478   -29142.893    139.96681    -29282.86   -8876.0245 
  979600    353.75336   -29105.084    168.71545     -29273.8   -5075.5797 
  979800    297.63019   -29123.918    141.94865   -29265.867   -4910.7134 
  980000    314.14796   -29144.817    149.82646   -29294.644    5151.8844 
  980200    295.55359   -29141.413    140.95826   -29282.371     -18662.7 
  980400     317.4371    -29119.03    151.39515   -29270.425    9935.0296 
  980600    280.63607    -29145.89    133.84365   -29279.734    15940.892 
  980800    297.77039   -29136.274    142.01552    -29278.29   -11440.221 
  981000     350.2942   -29109.697    167.06568   -29276.762    4318.3471 
  981200    306.93634    -29123.66    146.38703   -29270.047    25411.126 
  981400    289.24176   -29142.372    137.94796    -29280.32   -27929.965 
  981600    292.79154   -29144.793    139.64096   -29284.434   -13917.751 
  981800    315.37449   -29120.732    150.41143   -29271.143   -5025.4679 
  982000    300.99449   -29146.388    143.55319   -29289.941   -25992.289 
  982200    262.34361   -29139.639    125.11943   -29264.758     337.3542 
  982400    326.54242   -29127.139    155.73775   -29282.877   -37492.227 
  982600     291.4252   -29135.733    138.98931   -29274.722    40839.195 
  982800    269.88906   -29157.344    128.71808   -29286.062   -16463.848 
  983000    277.40639   -29145.295    132.30332   -29277.598    40436.338 
  983200    305.87827   -29132.511     145.8824   -29278.393   -31423.808 
  983400    261.55906   -29157.417    124.74526   -29282.162    30291.403 
  983600    300.72824   -29138.151     143.4262   -29281.577    36478.261 
  983800    288.93284   -29138.528    137.80063   -29276.329   -29871.453 
  984000    286.62374   -29152.693    136.69935   -29289.393    -1958.829 
  984200    327.87596   -29117.699    156.37376   -29274.073   -232.10221 
  984400    290.20032   -29138.473    138.40512   -29276.878   -13777.794 
  984600    281.42353   -29138.307    134.21921   -29272.526     9719.037 
  984800     361.5539   -29100.371    172.43576   -29272.807    19959.757 
  985000    319.18708   -29128.544    152.22977   -29280.774   -7106.2095 
  985200    314.62591   -29148.031    150.05441   -29298.086    -53930.11 
  985400    317.68833   -29138.332    151.51497   -29289.847    9418.9303 
  985600    332.47378   -29118.732    158.56659   -29277.299   -17741.812 
  985800    285.20257   -29151.701    136.02155   -29287.723    74697.128 
  986000    317.75312   -29134.764    151.54587    -29286.31     21372.62 
  986200    320.90795   -29130.736     153.0505   -29283.787    6219.0854 
  986400    263.78771   -29168.215    125.80817   -29294.023    27846.359 
  986600    304.21009   -29139.419     145.0868   -29284.506   -21185.467 
  986800    299.40606   -29127.796    142.79562   -29270.592   -1673.0926 
  987000    297.16487   -29128.833    141.72673   -29270.559   -1487.7189 
  987200    270.54215   -29155.392    129.02956   -29284.422    28926.654 
  987400    309.49284   -29124.739     147.6063   -29272.345    -18873.24 
  987600    299.94059   -29133.235    143.05055   -29276.286   -20232.841 
  987800    301.95666    -29146.94    144.01207   -29290.952     8904.606 
  988000    314.63367    -29114.41    150.05811   -29264.468   -36813.373 
  988200    341.34823   -29128.235    162.79908   -29291.034   -13333.168 
  988400    294.91803   -29146.619    140.65514   -29287.274   -17164.235 
  988600    302.01093   -29127.812    144.03796    -29271.85    22883.261 
  988800    325.76018   -29115.088    155.36467   -29270.452   -22470.858 
  989000     274.1637   -29144.381    130.75678   -29275.138    15206.366 
  989200    296.90625    -29141.24    141.60338   -29282.844    2307.8462 
  989400    314.00168   -29113.121     149.7567   -29262.878   -34454.164 
  989600    297.78349    -29136.86    142.02177   -29278.881   -6366.7026 
  989800    282.82142   -29136.786    134.88591   -29271.672    22816.688 
  990000    337.98195   -29098.177     161.1936   -29259.371   -38333.558 
  990200    309.51393   -29119.904    147.61636    -29267.52    78797.382 
  990400    275.32003   -29137.609    131.30827   -29268.917    11463.399 
  990600    274.07759   -29147.733    130.71572   -29278.448    1236.8213 
  990800    325.95382   -29117.218    155.45703   -29272.675    18739.037 
  991000     291.8239   -29144.784    139.17946   -29283.963    26678.557 
  991200    274.28126   -29137.263    130.81285   -29268.076    10658.877 
  991400    307.15681   -29126.685    146.49218   -29273.177   -3513.3333 
  991600    286.84819   -29123.947     136.8064   -29260.753   -15861.578 
  991800    355.67112   -29119.362    169.63009   -29288.992   -7080.2246 
  992000    312.64749   -29144.025    149.11084   -29293.136    3523.7153 
  992200    286.21357   -29137.564    136.50373   -29274.068   -270.48393 
  992400    329.59938   -29119.635     157.1957   -29276.831    6939.9399 
  992600    277.92658   -29143.811    132.55141   -29276.363    9925.6274 
  992800    319.84386   -29124.651    152.54301   -29277.194    9296.4763 
  993000    334.74684   -29115.819    159.65068   -29275.469    16130.821 
  993200    304.47346    -29141.43    145.21241   -29286.642    10244.339 
  993400     286.8713   -29135.051    136.81742   -29271.868    28632.516 
  993600     328.5119   -29105.865    156.67705   -29262.542   -5187.1643 
  993800    313.59292   -29128.446    149.56175   -29278.008    4974.6948 
  994000    306.52073   -29141.415    146.18881   -29287.604   -26261.465 
  994200    309.89944   -29117.881    147.80022   -29265.681    9487.6995 
  994400    294.28163   -29137.717    140.35162   -29278.068   -4643.1695 
  994600    275.94856   -29142.372    131.60804    -29273.98     40908.34 
  994800    294.58905   -29133.719    140.49824   -29274.217    21360.325 
  995000    299.87712   -29121.007    143.02028   -29264.027   -3221.4275 
  995200    294.91893   -29119.399    140.65557   -29260.055    37115.921 
  995400    296.41966   -29144.375    141.37131   -29285.746    27311.288 
  995600    304.46459   -29113.459    145.20818   -29258.668   -6195.9753 
  995800    327.94037   -29123.549    156.40447   -29279.954   -17728.282 
  996000      296.175   -29142.988    141.25462   -29284.242   -6851.7657 
  996200    278.39513   -29144.468    132.77488   -29277.243    13299.545 
  996400    310.76238   -29116.765    148.21178   -29264.977   -32979.146 
  996600    278.70727   -29146.359    132.92375   -29279.283    3337.4189 
  996800    311.39379   -29141.211    148.51292   -29289.724   -17458.323 
  997000    302.62189   -29132.204    144.32934   -29276.533    22027.709 
  997200    284.11383   -29147.186     135.5023   -29282.689    27964.001 
  997400    315.92083   -29146.072      150.672   -29296.744    16246.228 
  997600    292.89527   -29122.298    139.69043   -29261.989   -2944.9107 
  997800    268.36267   -29156.438     127.9901   -29284.428    56139.672 
  998000     320.7622   -29146.579    152.98099    -29299.56    -22961.67 
  998200    324.58346   -29127.154    154.80346   -29281.958    384.45806 
  998400    272.68814   -29164.574    130.05305   -29294.627   -21719.038 
  998600     256.4468   -29144.027    122.30707   -29266.334    5389.1734 
  998800    312.78808   -29127.016     149.1779   -29276.194    30701.411 
  999000      283.512    -29153.77    135.21527   -29288.986    2163.0891 
  999200     296.4782   -29147.073    141.39923   -29288.473   -38382.042 
  999400    302.42757   -29138.135    144.23666   -29282.372   -673.75046 
  999600    279.86762   -29141.329    133.47716   -29274.806   -26151.528 
  999800    328.90828   -29132.009     156.8661   -29288.875     20938.89 
 1000000    334.01588   -29121.303    159.30206   -29280.605    13504.003 
Loop time of 6294.38 on 8 procs for 1000000 steps with 161 atoms

Performance: 3.432 ns/day, 6.994 hours/ns, 158.872 timesteps/s
99.2% CPU use with 8 MPI tasks x no OpenMP threads

MPI task timing breakdown:
Section |  min time  |  avg time  |  max time  |%varavg| %total
---------------------------------------------------------------
Pair    | 5253.1     | 5399.4     | 5594.3     | 140.5 | 85.78
Neigh   | 0.64225    | 0.65344    | 0.66984    |   1.0 |  0.01
Comm    | 48.142     | 242.29     | 390.32     | 666.0 |  3.85
Output  | 0.10167    | 0.11203    | 0.17559    |   7.2 |  0.00
Modify  | 645.9      | 647.6      | 648.97     |   3.8 | 10.29
Other   |            | 4.328      |            |       |  0.07

Nlocal:    20.125 ave 40 max 5 min
Histogram: 3 0 0 0 1 0 3 0 0 1
Nghost:    755.875 ave 763 max 744 min
Histogram: 1 0 0 1 2 0 0 1 0 3
Neighs:    2240.75 ave 4205 max 598 min
Histogram: 3 0 0 0 1 0 1 2 0 1

Total # of neighbors = 17926
Ave neighs/atom = 111.342
Neighbor list builds = 655
Dangerous builds = 0

unfix 1
unfix output
undump 1

Please see the log.cite file for references relevant to this simulation

Total wall time: 1:45:20
