ITEM: TIMESTEP
0
ITEM: NUMBER OF ATOMS
146
ITEM: BOX BOUNDS pp pp pp
0.0000000000000000e+00 2.1884000000000000e+01
0.0000000000000000e+00 2.1885999999999999e+01
0.0000000000000000e+00 2.1885000000000002e+01
ITEM: ATOMS id type x y z 
9 1 8.524 12.547 12.547 
10 1 1.604 19.466 19.466 
11 1 1.605 19.466 12.547 
12 1 8.524 12.547 19.466 
13 1 1.605 12.547 19.466 
14 1 8.524 19.467 12.547 
15 1 8.524 19.467 19.466 
16 1 1.605 12.547 12.547 
25 1 10.105 10.965 10.965 
26 1 0.023 21.047 21.049 
27 1 0.023 21.047 10.964 
28 1 10.106 10.965 21.047 
29 1 0.023 10.966 21.048 
30 1 10.106 21.049 10.966 
31 1 10.106 21.048 21.049 
32 1 0.024 10.965 10.965 
57 1 5.811 12.218 12.218 
58 1 4.317 19.796 19.795 
59 1 4.318 19.795 12.218 
60 1 5.811 12.219 19.795 
61 1 4.318 12.218 19.795 
62 1 5.811 19.795 12.218 
63 1 5.811 19.796 19.795 
64 1 4.318 12.218 12.218 
65 1 8.853 15.26 12.218 
66 1 1.276 16.754 19.795 
67 1 8.853 16.754 19.795 
68 1 1.276 15.26 12.218 
69 1 1.276 16.754 12.218 
70 1 8.853 15.26 19.796 
71 1 1.276 15.26 19.795 
72 1 8.853 16.753 12.218 
73 1 8.853 12.219 15.26 
74 1 1.276 19.795 16.753 
75 1 1.276 12.218 16.754 
76 1 8.853 19.796 15.26 
77 1 8.853 19.796 16.753 
78 1 1.276 12.218 15.26 
79 1 1.276 19.795 15.26 
80 1 8.853 12.219 16.754 
105 1 7.01 12.317 12.317 
106 1 3.118 19.696 19.696 
107 1 3.119 19.696 12.317 
108 1 7.011 12.317 19.696 
109 1 3.119 12.317 19.696 
110 1 7.01 19.696 12.317 
111 1 7.01 19.697 19.696 
112 1 3.118 12.317 12.317 
113 1 8.754 14.061 12.317 
114 1 1.375 17.953 19.696 
115 1 8.754 17.953 19.696 
116 1 1.375 14.061 12.317 
117 1 1.375 17.953 12.317 
118 1 8.754 14.061 19.696 
119 1 1.375 14.061 19.696 
120 1 8.754 17.953 12.317 
121 1 8.754 12.317 14.061 
122 1 1.375 19.696 17.952 
123 1 1.375 12.317 17.953 
124 1 8.754 19.697 14.061 
125 1 8.754 19.697 17.952 
126 1 1.375 12.317 14.061 
127 1 1.375 19.696 14.061 
128 1 8.754 12.318 17.953 
137 1 9.407 11.664 11.664 
138 1 0.721 20.349 20.35 
139 1 0.721 20.349 11.663 
140 1 9.408 11.664 20.349 
141 1 0.721 11.664 20.35 
142 1 9.407 20.35 11.664 
143 1 9.407 20.35 20.35 
144 1 0.722 11.664 11.663 
1 1 19.466 1.604 1.604 
2 1 12.547 8.524 8.524 
3 1 12.546 8.524 1.604 
4 1 19.466 1.605 8.524 
5 1 12.547 1.604 8.524 
6 1 19.466 8.524 1.605 
7 1 19.466 8.524 8.524 
8 1 12.547 1.604 1.605 
17 1 21.048 0.023 0.022 
18 1 10.965 10.106 10.106 
19 1 10.965 10.106 0.024 
20 1 21.048 0.024 10.107 
21 1 10.965 0.022 10.105 
22 1 21.048 10.105 0.023 
23 1 21.047 10.106 10.106 
24 1 10.965 0.023 0.022 
33 1 16.753 1.275 1.276 
34 1 15.26 8.853 8.853 
35 1 15.26 8.852 1.276 
36 1 16.753 1.275 8.853 
37 1 15.26 1.275 8.853 
38 1 16.753 8.852 1.276 
39 1 16.753 8.853 8.853 
40 1 15.26 1.275 1.276 
41 1 19.795 4.317 1.276 
42 1 12.218 5.811 8.853 
43 1 19.795 5.811 8.853 
44 1 12.218 4.317 1.276 
45 1 12.218 5.811 1.275 
46 1 19.795 4.317 8.853 
47 1 12.218 4.317 8.853 
48 1 19.795 5.811 1.276 
49 1 19.795 1.275 4.317 
50 1 12.218 8.852 5.811 
51 1 12.218 1.276 5.811 
52 1 19.795 8.853 4.318 
53 1 19.795 8.853 5.811 
54 1 12.218 1.275 4.318 
55 1 12.218 8.852 4.317 
56 1 19.795 1.275 5.811 
81 1 17.952 1.374 1.375 
82 1 14.061 8.754 8.754 
83 1 14.06 8.753 1.375 
84 1 17.952 1.374 8.754 
85 1 14.06 1.374 8.754 
86 1 17.952 8.754 1.375 
87 1 17.952 8.754 8.754 
88 1 14.061 1.374 1.375 
89 1 19.696 3.118 1.375 
90 1 12.317 7.01 8.754 
91 1 19.696 7.01 8.754 
92 1 12.317 3.118 1.375 
93 1 12.317 7.01 1.374 
94 1 19.695 3.118 8.754 
95 1 12.317 3.118 8.754 
96 1 19.696 7.01 1.375 
97 1 19.696 1.374 3.118 
98 1 12.317 8.754 7.01 
99 1 12.317 1.375 7.01 
100 1 19.696 8.754 3.118 
101 1 19.696 8.754 7.01 
102 1 12.317 1.374 3.119 
103 1 12.317 8.753 3.118 
104 1 19.696 1.374 7.01 
129 1 20.35 0.722 0.721 
130 1 11.664 9.407 9.407 
131 1 11.663 9.407 0.722 
132 1 20.35 0.722 9.408 
133 1 11.663 0.72 9.407 
134 1 20.35 9.407 0.721 
135 1 20.349 9.407 9.407 
136 1 11.664 0.721 0.721 
145 2 21.721 1.055 21.352 
146 3 21.721 2.031 21.352 
ITEM: TIMESTEP
10
ITEM: NUMBER OF ATOMS
146
ITEM: BOX BOUNDS pp pp pp
0.0000000000000000e+00 2.1884000000000000e+01
0.0000000000000000e+00 2.1885999999999999e+01
0.0000000000000000e+00 2.1885000000000002e+01
ITEM: ATOMS id type x y z 
9 1 8.51482 12.5561 12.5565 
10 1 1.61701 19.454 19.4534 
11 1 1.61395 19.457 12.5564 
12 1 8.51543 12.5561 19.457 
13 1 1.61399 12.5564 19.4574 
14 1 8.51471 19.458 12.5562 
15 1 8.51455 19.4578 19.4569 
16 1 1.61371 12.5563 12.5559 
25 1 10.1072 10.9634 10.9634 
26 1 0.0339643 21.0132 21.0363 
27 1 0.0208804 21.049 10.9625 
28 1 10.1083 10.9633 21.0492 
29 1 0.0209406 10.9641 21.0501 
30 1 10.1075 21.0505 10.9639 
31 1 10.1074 21.05 21.0506 
32 1 0.0219534 10.9634 10.9628 
57 1 5.82039 12.2193 12.2194 
58 1 4.31008 19.7947 19.7939 
59 1 4.30797 19.7936 12.2193 
60 1 5.82028 12.2201 19.7936 
61 1 4.30889 12.2194 19.7937 
62 1 5.81991 19.7937 12.2192 
63 1 5.82029 19.7947 19.7936 
64 1 4.3091 12.2193 12.2193 
65 1 8.85172 15.2512 12.2193 
66 1 1.2772 16.7609 19.7939 
67 1 8.85158 16.7632 19.7937 
68 1 1.2773 15.2517 12.2193 
69 1 1.2774 16.7634 12.2194 
70 1 8.85178 15.2515 19.7944 
71 1 1.27731 15.2511 19.7936 
72 1 8.85169 16.7621 12.2193 
73 1 8.85154 12.2202 15.2506 
74 1 1.27712 19.7939 16.7603 
75 1 1.27728 12.2193 16.7622 
76 1 8.85166 19.7947 15.2503 
77 1 8.85167 19.7947 16.7629 
78 1 1.27731 12.2193 15.2516 
79 1 1.2773 19.7937 15.2501 
80 1 8.85171 12.2204 16.7627 
105 1 7.00912 12.3169 12.3169 
106 1 3.12009 19.6968 19.6967 
107 1 3.1201 19.6961 12.3168 
108 1 7.00933 12.3169 19.6963 
109 1 3.11985 12.3168 19.6961 
110 1 7.01026 19.6962 12.3171 
111 1 7.009 19.6971 19.6961 
112 1 3.11906 12.3168 12.3168 
113 1 8.75413 14.0614 12.3169 
114 1 1.37426 17.9507 19.6967 
115 1 8.75411 17.9519 19.6961 
116 1 1.37486 14.0616 12.317 
117 1 1.37481 17.9511 12.3168 
118 1 8.75418 14.0625 19.6964 
119 1 1.3748 14.062 19.6961 
120 1 8.75419 17.952 12.3168 
121 1 8.7542 12.317 14.0624 
122 1 1.37418 19.6967 17.9505 
123 1 1.37485 12.3169 17.9522 
124 1 8.75394 19.6971 14.0614 
125 1 8.75408 19.6971 17.9513 
126 1 1.37484 12.317 14.0616 
127 1 1.37485 19.6961 14.0618 
128 1 8.75423 12.3177 17.9515 
137 1 9.41128 11.659 11.6589 
138 1 0.730965 20.3381 20.3408 
139 1 0.71687 20.3538 11.658 
140 1 9.4124 11.6587 20.3538 
141 1 0.716793 11.6592 20.3543 
142 1 9.41189 20.355 11.6599 
143 1 9.41217 20.3544 20.3545 
144 1 0.717417 11.659 11.659 
1 1 19.47 1.60105 1.60052 
2 1 12.5563 8.51476 8.51487 
3 1 12.5549 8.51464 1.6135 
4 1 19.457 1.61393 8.51508 
5 1 12.5557 1.613 8.51474 
6 1 19.4568 8.5149 1.61378 
7 1 19.457 8.51453 8.51461 
8 1 12.5561 1.61318 1.61416 
17 1 21.0256 0.0250773 0.0438567 
18 1 10.9634 10.1075 10.1078 
19 1 10.9626 10.1079 0.0217974 
20 1 21.0501 0.0220258 10.1085 
21 1 10.963 0.0200036 10.1068 
22 1 21.05 10.1068 0.0209956 
23 1 21.0493 10.1076 10.1076 
24 1 10.9636 0.0209581 0.0203147 
33 1 16.7618 1.27611 1.27723 
34 1 15.2503 8.85168 8.85168 
35 1 15.2511 8.85067 1.27729 
36 1 16.7616 1.27625 8.8517 
37 1 15.2505 1.27635 8.85166 
38 1 16.7625 8.8508 1.27739 
39 1 16.762 8.85173 8.85174 
40 1 15.2501 1.27621 1.27717 
41 1 19.7938 4.30887 1.27724 
42 1 12.2194 5.82027 8.85162 
43 1 19.7936 5.82017 8.8516 
44 1 12.2194 4.30774 1.2773 
45 1 12.2193 5.81924 1.27636 
46 1 19.7934 4.3078 8.8517 
47 1 12.2193 4.30866 8.8517 
48 1 19.7938 5.82025 1.27721 
49 1 19.7938 1.27618 4.30876 
50 1 12.2194 8.85076 5.82035 
51 1 12.2192 1.27722 5.81984 
52 1 19.7936 8.85164 4.30827 
53 1 19.7937 8.85166 5.8203 
54 1 12.2193 1.27641 4.30813 
55 1 12.2193 8.85061 4.30824 
56 1 19.7938 1.27621 5.82013 
81 1 17.9486 1.37247 1.37447 
82 1 14.0616 8.75409 8.75406 
83 1 14.061 8.75332 1.3747 
84 1 17.9516 1.37398 8.7542 
85 1 14.0616 1.37377 8.75421 
86 1 17.9513 8.75388 1.3748 
87 1 17.9519 8.75405 8.75408 
88 1 14.0604 1.37399 1.37496 
89 1 19.6971 3.12242 1.37397 
90 1 12.3169 7.00868 8.75412 
91 1 19.6961 7.0086 8.75413 
92 1 12.3169 3.11926 1.37491 
93 1 12.3167 7.00929 1.3739 
94 1 19.6954 3.11981 8.75407 
95 1 12.3168 3.11854 8.75406 
96 1 19.696 7.01006 1.37491 
97 1 19.6966 1.37246 3.12216 
98 1 12.3168 8.75397 7.00871 
99 1 12.3169 1.37497 7.01009 
100 1 19.6962 8.75421 3.11968 
101 1 19.6961 8.7541 7.00911 
102 1 12.3169 1.37386 3.11976 
103 1 12.3167 8.75313 3.1191 
104 1 19.6962 1.37403 7.01001 
129 1 20.3171 0.727413 0.751254 
130 1 11.6589 9.41207 9.41162 
131 1 11.6587 9.41208 0.71702 
132 1 20.354 0.717279 9.41285 
133 1 11.6588 0.71587 9.41173 
134 1 20.3542 9.41178 0.716714 
135 1 20.3532 9.4121 9.41208 
136 1 11.6589 0.716583 0.716485 
145 2 21.7249 1.0818 21.3481 
146 3 21.7364 2.05584 21.3397 
ITEM: TIMESTEP
20
ITEM: NUMBER OF ATOMS
146
ITEM: BOX BOUNDS pp pp pp
0.0000000000000000e+00 2.1884000000000000e+01
0.0000000000000000e+00 2.1885999999999999e+01
0.0000000000000000e+00 2.1885000000000002e+01
ITEM: ATOMS id type x y z 
9 1 8.50705 12.5661 12.5644 
10 1 1.64341 19.4301 19.4278 
11 1 1.62247 19.4495 12.5638 
12 1 8.50815 12.5662 19.4479 
13 1 1.62163 12.5638 19.4488 
14 1 8.50643 19.4478 12.5642 
15 1 8.50693 19.4478 19.449 
16 1 1.6231 12.5637 12.5642 
25 1 10.1035 10.9666 10.9663 
26 1 0.0531542 20.9978 21.0188 
27 1 0.0234776 21.0472 10.9646 
28 1 10.1045 10.967 21.0457 
29 1 0.024536 10.9668 21.046 
30 1 10.1042 21.0477 10.9674 
31 1 10.1043 21.047 21.0474 
32 1 0.024555 10.9657 10.9659 
57 1 5.81461 12.2213 12.2214 
58 1 4.32414 19.7948 19.7944 
59 1 4.3125 19.7915 12.2214 
60 1 5.82029 12.2223 19.791 
61 1 4.31515 12.2215 19.7916 
62 1 5.81778 19.7915 12.2216 
63 1 5.818 19.7933 19.7922 
64 1 4.31127 12.2216 12.2215 
65 1 8.84908 15.2493 12.2219 
66 1 1.27674 16.7456 19.7943 
67 1 8.84891 16.7652 19.7911 
68 1 1.27933 15.257 12.2213 
69 1 1.27929 16.7561 12.2213 
70 1 8.84912 15.2502 19.7914 
71 1 1.27885 15.2519 19.7921 
72 1 8.84919 16.7628 12.2218 
73 1 8.84899 12.2225 15.2513 
74 1 1.27661 19.7942 16.7458 
75 1 1.27934 12.2213 16.7575 
76 1 8.84913 19.7923 15.2525 
77 1 8.84913 19.7922 16.7614 
78 1 1.27932 12.2213 15.2565 
79 1 1.27874 19.7922 15.2521 
80 1 8.84891 12.2232 16.7655 
105 1 7.00853 12.3194 12.3193 
106 1 3.12992 19.6962 19.6953 
107 1 3.12172 19.6936 12.3193 
108 1 7.00237 12.3192 19.6946 
109 1 3.12112 12.3195 19.6939 
110 1 7.00731 19.6938 12.3194 
111 1 7.01418 19.694 19.6933 
112 1 3.12177 12.3195 12.3194 
113 1 8.75178 14.0672 12.3191 
114 1 1.37549 17.9421 19.6954 
115 1 8.75187 17.9443 19.6942 
116 1 1.37747 14.0619 12.3196 
117 1 1.37737 17.9509 12.3194 
118 1 8.75194 14.0679 19.6942 
119 1 1.37791 14.0585 19.6932 
120 1 8.75166 17.9478 12.3193 
121 1 8.75219 12.3193 14.0683 
122 1 1.37548 19.6959 17.9414 
123 1 1.3773 12.3195 17.9507 
124 1 8.75194 19.695 14.0672 
125 1 8.75233 19.6951 17.9446 
126 1 1.3775 12.3196 14.0615 
127 1 1.37785 19.6931 14.0567 
128 1 8.75261 12.3198 17.9433 
137 1 9.41109 11.6602 11.6606 
138 1 0.719615 20.3419 20.3523 
139 1 0.718035 20.3526 11.6605 
140 1 9.41096 11.66 20.3529 
141 1 0.718146 11.661 20.3544 
142 1 9.41119 20.3535 11.6595 
143 1 9.41132 20.3538 20.3533 
144 1 0.718344 11.6612 11.66 
1 1 19.4594 1.60727 1.61996 
2 1 12.5631 8.50643 8.50466 
3 1 12.5639 8.5057 1.62136 
4 1 19.4485 1.6212 8.51145 
5 1 12.5639 1.6216 8.5063 
6 1 19.4492 8.51087 1.62228 
7 1 19.4463 8.50416 8.51107 
8 1 12.5592 1.62155 1.62358 
17 1 20.8776 -0.180772 0.175837 
18 1 10.9676 10.1033 10.1027 
19 1 10.9662 10.105 0.0241484 
20 1 21.0472 0.0244036 10.1048 
21 1 10.9648 0.0220613 10.1048 
22 1 21.0469 10.1036 0.0237155 
23 1 21.046 10.1049 10.1048 
24 1 10.9673 0.0238954 0.0235324 
33 1 16.7519 1.27671 1.27898 
34 1 15.2539 8.84943 8.84941 
35 1 15.2576 8.84885 1.27925 
36 1 16.7634 1.27901 8.8489 
37 1 15.2543 1.27846 8.84946 
38 1 16.7579 8.84871 1.27939 
39 1 16.7631 8.84915 8.84913 
40 1 15.2457 1.27786 1.2787 
41 1 19.7925 4.31539 1.27861 
42 1 12.2215 5.81578 8.84946 
43 1 19.7903 5.8304 8.84851 
44 1 12.2214 4.31456 1.27887 
45 1 12.2215 5.81791 1.27878 
46 1 19.7918 4.31702 8.84989 
47 1 12.2214 4.31273 8.84954 
48 1 19.7925 5.82402 1.27847 
49 1 19.7916 1.27718 4.31258 
50 1 12.2216 8.8488 5.81671 
51 1 12.2213 1.27923 5.8156 
52 1 19.7919 8.84961 4.31559 
53 1 19.7915 8.84964 5.81407 
54 1 12.2219 1.2789 4.30839 
55 1 12.2216 8.84829 4.3101 
56 1 19.7921 1.27832 5.82744 
81 1 17.9419 1.36777 1.37248 
82 1 14.0652 8.75232 8.75234 
83 1 14.0597 8.75057 1.37746 
84 1 17.9404 1.3751 8.75372 
85 1 14.0638 1.37638 8.75163 
86 1 17.9478 8.75175 1.37685 
87 1 17.9459 8.75176 8.75225 
88 1 14.0614 1.37547 1.37621 
89 1 19.7019 3.12985 1.36948 
90 1 12.319 7.00803 8.75179 
91 1 19.6945 6.99565 8.75275 
92 1 12.3188 3.11942 1.37729 
93 1 12.3191 7.00697 1.37643 
94 1 19.6935 3.11902 8.75179 
95 1 12.3195 3.11985 8.75157 
96 1 19.6937 7.01246 1.37719 
97 1 19.6988 1.36793 3.13163 
98 1 12.3192 8.75119 7.00868 
99 1 12.3196 1.37737 7.0091 
100 1 19.6938 8.75193 3.12089 
101 1 19.6946 8.75249 7.00381 
102 1 12.3183 1.3757 3.12613 
103 1 12.319 8.75087 3.12242 
104 1 19.6954 1.37555 7.00604 
129 1 20.3075 0.715845 0.749457 
130 1 11.6599 9.4108 9.41227 
131 1 11.6593 9.41015 0.718788 
132 1 20.3526 0.717463 9.41254 
133 1 11.6613 0.718008 9.41015 
134 1 20.3526 9.41138 0.718332 
135 1 20.3534 9.41076 9.41083 
136 1 11.659 0.717005 0.717746 
145 2 21.7781 1.23604 21.3019 
146 3 21.8111 2.1575 21.2772 
ITEM: TIMESTEP
30
ITEM: NUMBER OF ATOMS
146
ITEM: BOX BOUNDS pp pp pp
0.0000000000000000e+00 2.1884000000000000e+01
0.0000000000000000e+00 2.1885999999999999e+01
0.0000000000000000e+00 2.1885000000000002e+01
ITEM: ATOMS id type x y z 
9 1 8.50753 12.5637 12.5631 
10 1 1.64102 19.4315 19.4302 
11 1 1.62122 19.45 12.5618 
12 1 8.50854 12.5641 19.4502 
13 1 1.62131 12.5623 19.4498 
14 1 8.50788 19.45 12.5632 
15 1 8.50872 19.4504 19.4498 
16 1 1.62158 12.5633 12.5633 
25 1 10.1054 10.9649 10.9646 
26 1 0.0178382 21.0088 21.0529 
27 1 0.023936 21.0469 10.9652 
28 1 10.1044 10.967 21.0459 
29 1 0.0246734 10.9668 21.0461 
30 1 10.1044 21.0479 10.9669 
31 1 10.1058 21.0485 21.0486 
32 1 0.0242004 10.9657 10.9657 
57 1 5.81464 12.222 12.2221 
58 1 4.32425 19.7949 19.7944 
59 1 4.3147 19.791 12.2219 
60 1 5.81573 12.2224 19.791 
61 1 4.31455 12.222 19.7911 
62 1 5.8149 19.7911 12.222 
63 1 5.81949 19.7929 19.7919 
64 1 4.31376 12.222 12.222 
65 1 8.84894 15.2566 12.222 
66 1 1.27687 16.7485 19.7941 
67 1 8.84898 16.7565 19.7913 
68 1 1.27997 15.2561 12.222 
69 1 1.27986 16.7564 12.2219 
70 1 8.84906 15.2571 19.7914 
71 1 1.27905 15.2513 19.7919 
72 1 8.84897 16.7568 12.222 
73 1 8.84893 12.2225 15.2571 
74 1 1.2766 19.7943 16.7461 
75 1 1.27983 12.2218 16.7562 
76 1 8.849 19.7922 15.2559 
77 1 8.84907 19.7922 16.7568 
78 1 1.27998 12.222 15.2561 
79 1 1.279 19.7919 15.2511 
80 1 8.84915 12.223 16.7565 
105 1 7.00361 12.3198 12.3196 
106 1 3.13282 19.6949 19.6938 
107 1 3.12531 19.6933 12.3196 
108 1 7.00387 12.32 19.6939 
109 1 3.12489 12.3198 19.6935 
110 1 7.00461 19.6933 12.3198 
111 1 7.01028 19.6936 19.693 
112 1 3.12439 12.32 12.3199 
113 1 8.75126 14.0671 12.3195 
114 1 1.37692 17.9374 19.6941 
115 1 8.7513 17.9461 19.6937 
116 1 1.37795 14.0664 12.3199 
117 1 1.37772 17.946 12.3196 
118 1 8.75147 14.0669 19.6935 
119 1 1.37833 14.0607 19.6927 
120 1 8.75118 17.9466 12.3197 
121 1 8.75147 12.32 14.0667 
122 1 1.37696 19.6947 17.9378 
123 1 1.37752 12.3197 17.946 
124 1 8.75123 19.6942 14.0664 
125 1 8.75164 19.6945 17.9459 
126 1 1.37787 12.3198 14.0666 
127 1 1.3782 19.6928 14.0602 
128 1 8.75204 12.3207 17.9473 
137 1 9.40839 11.6632 11.6633 
138 1 0.723385 20.3414 20.3487 
139 1 0.718061 20.3529 11.6602 
140 1 9.41124 11.6603 20.3527 
141 1 0.717754 11.6606 20.3545 
142 1 9.41056 20.3528 11.6602 
143 1 9.40908 20.3512 20.3511 
144 1 0.719214 11.6617 11.6608 
1 1 19.4454 1.62068 1.62875 
2 1 12.563 8.5073 8.50702 
3 1 12.563 8.50712 1.62038 
4 1 19.4489 1.61977 8.51307 
5 1 12.5625 1.62058 8.50792 
6 1 19.4493 8.51291 1.62205 
7 1 19.4482 8.50857 8.50936 
8 1 12.5574 1.62085 1.62224 
17 1 20.8829 -0.210739 0.167815 
18 1 10.965 10.1058 10.1054 
19 1 10.9664 10.1046 0.0243799 
20 1 21.0478 0.0234494 10.1052 
21 1 10.9658 0.0229579 10.1042 
22 1 21.0468 10.1036 0.0236334 
23 1 21.0469 10.1054 10.1053 
24 1 10.9655 0.0218688 0.021805 
33 1 16.7523 1.27665 1.2792 
34 1 15.256 8.84901 8.84905 
35 1 15.2557 8.84821 1.27999 
36 1 16.7555 1.27876 8.84918 
37 1 15.2553 1.27876 8.84913 
38 1 16.7556 8.84823 1.2796 
39 1 16.7583 8.84899 8.84885 
40 1 15.2492 1.27781 1.27857 
41 1 19.7924 4.31649 1.27869 
42 1 12.2221 5.81396 8.84902 
43 1 19.7914 5.81252 8.84949 
44 1 12.2221 4.31498 1.27935 
45 1 12.2218 5.81486 1.27917 
46 1 19.7913 4.31555 8.84913 
47 1 12.222 4.31428 8.849 
48 1 19.7923 5.82096 1.27865 
49 1 19.7918 1.27661 4.31867 
50 1 12.2221 8.84834 5.81456 
51 1 12.2219 1.27971 5.81472 
52 1 19.7916 8.84915 4.31425 
53 1 19.791 8.84919 5.81616 
54 1 12.222 1.27889 4.31516 
55 1 12.2219 8.84794 4.31395 
56 1 19.7925 1.27821 5.82082 
81 1 17.9436 1.36771 1.37393 
82 1 14.0673 8.75179 8.75175 
83 1 14.0659 8.75031 1.37768 
84 1 17.9451 1.37614 8.75323 
85 1 14.0655 1.37693 8.75108 
86 1 17.9454 8.75154 1.3773 
87 1 17.9453 8.75086 8.75216 
88 1 14.0596 1.37595 1.37669 
89 1 19.7027 3.13306 1.36955 
90 1 12.3192 7.00416 8.75154 
91 1 19.6926 7.00779 8.75183 
92 1 12.3187 3.12516 1.37757 
93 1 12.3195 7.00469 1.37691 
94 1 19.6933 3.12514 8.75192 
95 1 12.3198 3.12419 8.75124 
96 1 19.6935 7.0104 1.37753 
97 1 19.6977 1.36828 3.12707 
98 1 12.3192 8.75114 7.00393 
99 1 12.3198 1.37763 7.00474 
100 1 19.6934 8.75168 3.12376 
101 1 19.6939 8.75187 7.00183 
102 1 12.3185 1.37634 3.12553 
103 1 12.3194 8.75032 3.12459 
104 1 19.6949 1.37635 7.01014 
129 1 20.3171 0.675682 0.740622 
130 1 11.6633 9.40716 9.40837 
131 1 11.6587 9.41071 0.718116 
132 1 20.3521 0.718072 9.41225 
133 1 11.6605 0.717389 9.41059 
134 1 20.3534 9.41245 0.717758 
135 1 20.3519 9.40952 9.41032 
136 1 11.6612 0.719515 0.720339 
145 2 21.7919 1.26219 21.2899 
146 3 21.8242 2.17834 21.2662 
ITEM: TIMESTEP
40
ITEM: NUMBER OF ATOMS
146
ITEM: BOX BOUNDS pp pp pp
0.0000000000000000e+00 2.1884000000000000e+01
0.0000000000000000e+00 2.1885999999999999e+01
0.0000000000000000e+00 2.1885000000000002e+01
ITEM: ATOMS id type x y z 
9 1 8.50845 12.5628 12.5628 
10 1 1.62694 19.4451 19.4438 
11 1 1.62036 19.4507 12.5588 
12 1 8.50873 12.5628 19.4509 
13 1 1.62053 12.5583 19.4505 
14 1 8.50894 19.4508 12.5619 
15 1 8.51189 19.4507 19.4508 
16 1 1.61987 12.5622 12.5621 
25 1 10.1053 10.9656 10.9653 
26 1 -0.0125541 20.9904 21.0804 
27 1 0.0231505 21.048 10.9648 
28 1 10.1059 10.9652 21.0475 
29 1 0.0231258 10.9651 21.0483 
30 1 10.1053 21.0484 10.9656 
31 1 10.1057 21.0482 21.0483 
32 1 0.0237187 10.9658 10.9653 
57 1 5.8157 12.2225 12.2224 
58 1 4.3173 19.7945 19.7938 
59 1 4.3143 19.7908 12.2223 
60 1 5.81646 12.2227 19.7907 
61 1 4.31447 12.2225 19.7909 
62 1 5.81642 19.7907 12.2223 
63 1 5.82038 19.7929 19.7921 
64 1 4.31332 12.2224 12.2224 
65 1 8.84849 15.2553 12.2224 
66 1 1.27733 16.7543 19.7937 
67 1 8.84857 16.7575 19.7911 
68 1 1.28036 15.255 12.2223 
69 1 1.28012 16.7568 12.2223 
70 1 8.84873 15.2551 19.791 
71 1 1.27905 15.2513 19.7919 
72 1 8.84852 16.7579 12.2224 
73 1 8.8485 12.2231 15.2553 
74 1 1.27717 19.7939 16.7535 
75 1 1.28002 12.2223 16.7567 
76 1 8.84859 19.7918 15.2548 
77 1 8.8487 19.792 16.7567 
78 1 1.28035 12.2223 15.2549 
79 1 1.27894 19.7919 15.25 
80 1 8.84878 12.2234 16.758 
105 1 7.00517 12.3213 12.3212 
106 1 3.12836 19.6908 19.6898 
107 1 3.12483 19.692 12.3206 
108 1 7.00619 12.3215 19.6922 
109 1 3.1251 12.3205 19.6923 
110 1 7.006 19.6919 12.3212 
111 1 7.0102 19.6927 19.6919 
112 1 3.12399 12.3213 12.3212 
113 1 8.74977 14.0657 12.3211 
114 1 1.38139 17.9431 19.6897 
115 1 8.75021 17.9471 19.6923 
116 1 1.37933 14.0655 12.3213 
117 1 1.37893 17.9463 12.3206 
118 1 8.75005 14.0655 19.6921 
119 1 1.37877 14.0625 19.6923 
120 1 8.74979 17.9475 12.3212 
121 1 8.74985 12.3215 14.0656 
122 1 1.38108 19.6905 17.9425 
123 1 1.37879 12.3204 17.9461 
124 1 8.74982 19.6927 14.0654 
125 1 8.75057 19.6932 17.9461 
126 1 1.37928 12.3212 14.0653 
127 1 1.37915 19.6919 14.0605 
128 1 8.75052 12.3221 17.9475 
137 1 9.41098 11.6598 11.6597 
138 1 0.710805 20.3586 20.3615 
139 1 0.718116 20.3529 11.6594 
140 1 9.41139 11.6609 20.3528 
141 1 0.717984 11.6607 20.3534 
142 1 9.41078 20.3534 11.6605 
143 1 9.41135 20.3538 20.3533 
144 1 0.71837 11.6602 11.6601 
1 1 19.4392 1.63172 1.62936 
2 1 12.5629 8.50796 8.50865 
3 1 12.5613 8.50872 1.62004 
4 1 19.4494 1.62086 8.51233 
5 1 12.5616 1.61967 8.50892 
6 1 19.4495 8.51361 1.61934 
7 1 19.4514 8.50896 8.50779 
8 1 12.5575 1.62072 1.62132 
17 1 20.9189 -0.219212 0.129834 
18 1 10.9654 10.1052 10.1054 
19 1 10.9647 10.1058 0.0230249 
20 1 21.0481 0.0223924 10.1058 
21 1 10.9652 0.0221253 10.1055 
22 1 21.0487 10.1054 0.022049 
23 1 21.0476 10.1055 10.1056 
24 1 10.9657 0.0218022 0.0222457 
33 1 16.7545 1.27638 1.27995 
34 1 15.2553 8.84874 8.84859 
35 1 15.2544 8.84779 1.28031 
36 1 16.7563 1.27905 8.84888 
37 1 15.2542 1.27921 8.84863 
38 1 16.7558 8.84783 1.27975 
39 1 16.7574 8.84842 8.84883 
40 1 15.2521 1.27861 1.27929 
41 1 19.7931 4.31594 1.27827 
42 1 12.2224 5.81561 8.84859 
43 1 19.7906 5.81679 8.84895 
44 1 12.2225 4.31381 1.27966 
45 1 12.2222 5.81595 1.27953 
46 1 19.7909 4.31335 8.84841 
47 1 12.2225 4.31285 8.84859 
48 1 19.7917 5.81863 1.27916 
49 1 19.7913 1.27646 4.3164 
50 1 12.2224 8.84793 5.81562 
51 1 12.2224 1.28003 5.81646 
52 1 19.7914 8.84874 4.31504 
53 1 19.7909 8.84877 5.81652 
54 1 12.2224 1.27909 4.31425 
55 1 12.2224 8.84754 4.3129 
56 1 19.7919 1.27904 5.81906 
81 1 17.9447 1.37182 1.37801 
82 1 14.0655 8.75005 8.75004 
83 1 14.0648 8.74902 1.37902 
84 1 17.9464 1.37765 8.75179 
85 1 14.0648 1.37829 8.74977 
86 1 17.946 8.75107 1.37854 
87 1 17.9465 8.7499 8.75065 
88 1 14.0633 1.37708 1.37772 
89 1 19.699 3.12395 1.37306 
90 1 12.3208 7.00528 8.74993 
91 1 19.6915 7.0061 8.75058 
92 1 12.3197 3.12429 1.37903 
93 1 12.3208 7.00547 1.37828 
94 1 19.6916 3.1237 8.75089 
95 1 12.3211 3.12342 8.74987 
96 1 19.6929 7.00869 1.37792 
97 1 19.694 1.37171 3.12666 
98 1 12.3208 8.74963 7.00513 
99 1 12.3211 1.37908 7.00602 
100 1 19.6926 8.75179 3.12498 
101 1 19.6918 8.75018 7.0059 
102 1 12.3195 1.37782 3.12463 
103 1 12.3209 8.74886 3.12336 
104 1 19.6933 1.37752 7.00817 
129 1 20.3143 0.621994 0.747298 
130 1 11.6596 9.41082 9.41098 
131 1 11.6596 9.41078 0.717962 
132 1 20.3524 0.718389 9.41286 
133 1 11.6596 0.71716 9.4106 
134 1 20.3524 9.41233 0.71803 
135 1 20.3522 9.41093 9.41167 
136 1 11.6581 0.717511 0.717835 
145 2 21.8079 1.28566 21.2758 
146 3 21.8343 2.19739 21.2577 
ITEM: TIMESTEP
50
ITEM: NUMBER OF ATOMS
146
ITEM: BOX BOUNDS pp pp pp
0.0000000000000000e+00 2.1884000000000000e+01
0.0000000000000000e+00 2.1885999999999999e+01
0.0000000000000000e+00 2.1885000000000002e+01
ITEM: ATOMS id type x y z 
9 1 8.50922 12.5617 12.5615 
10 1 1.62114 19.4524 19.4498 
11 1 1.62051 19.4505 12.558 
12 1 8.51 12.5619 19.4516 
13 1 1.62058 12.5595 19.4508 
14 1 8.50979 19.4516 12.5616 
15 1 8.51237 19.4514 19.4505 
16 1 1.61989 12.5615 12.5616 
25 1 10.105 10.9657 10.9655 
26 1 -0.010666 20.975 21.0774 
27 1 0.0232339 21.048 10.9651 
28 1 10.1056 10.9658 21.0472 
29 1 0.0235514 10.9657 21.048 
30 1 10.1052 21.0483 10.9658 
31 1 10.1055 21.0483 21.048 
32 1 0.0237847 10.9655 10.9653 
57 1 5.81489 12.2229 12.2229 
58 1 4.3167 19.7932 19.7925 
59 1 4.31521 19.7905 12.2228 
60 1 5.81555 12.2231 19.7904 
61 1 4.31503 12.223 19.7905 
62 1 5.81544 19.7903 12.2228 
63 1 5.81767 19.7924 19.7916 
64 1 4.31431 12.2228 12.2228 
65 1 8.84801 15.2564 12.2229 
66 1 1.2787 16.7561 19.7923 
67 1 8.84805 16.7563 19.7907 
68 1 1.28078 15.2557 12.2227 
69 1 1.28047 16.7561 12.2228 
70 1 8.84832 15.2564 19.7905 
71 1 1.27946 15.2532 19.7915 
72 1 8.84807 16.7566 12.2229 
73 1 8.84805 12.2235 15.2565 
74 1 1.27853 19.7926 16.7539 
75 1 1.2804 12.2228 16.7561 
76 1 8.84819 19.7914 15.2554 
77 1 8.84821 19.7916 16.7563 
78 1 1.28076 12.2227 15.2557 
79 1 1.27939 19.7915 15.2533 
80 1 8.8484 12.2239 16.7566 
105 1 7.00384 12.3217 12.3215 
106 1 3.12811 19.6906 19.6896 
107 1 3.12584 19.6916 12.3207 
108 1 7.00467 12.3218 19.6918 
109 1 3.12581 12.3207 19.6917 
110 1 7.00466 19.6915 12.3215 
111 1 7.00634 19.6926 19.6919 
112 1 3.12503 12.3216 12.3216 
113 1 8.74949 14.0675 12.3214 
114 1 1.38161 17.9437 19.6894 
115 1 8.75013 17.9455 19.6919 
116 1 1.37967 14.0664 12.3216 
117 1 1.37943 17.9455 12.3207 
118 1 8.74974 14.0673 19.6918 
119 1 1.37917 14.0644 19.6919 
120 1 8.74951 17.9458 12.3215 
121 1 8.74955 12.3218 14.0675 
122 1 1.38125 19.6904 17.9426 
123 1 1.37922 12.3206 17.9453 
124 1 8.74942 19.6922 14.0662 
125 1 8.75031 19.6926 17.9455 
126 1 1.37962 12.3216 14.0664 
127 1 1.37901 19.692 14.0646 
128 1 8.7501 12.3223 17.9458 
137 1 9.41052 11.6607 11.6605 
138 1 0.716526 20.3507 20.3558 
139 1 0.718282 20.3527 11.6591 
140 1 9.41098 11.6607 20.3527 
141 1 0.718206 11.6601 20.353 
142 1 9.41065 20.3532 11.6602 
143 1 9.4113 20.353 20.353 
144 1 0.718283 11.6606 11.6601 
1 1 19.4494 1.61448 1.62103 
2 1 12.5615 8.50916 8.5092 
3 1 12.5609 8.50932 1.61909 
4 1 19.4506 1.61976 8.51182 
5 1 12.561 1.61914 8.50972 
6 1 19.4503 8.51191 1.62065 
7 1 19.4506 8.51008 8.50997 
8 1 12.5591 1.61992 1.62048 
17 1 20.9071 -0.216602 0.14129 
18 1 10.9654 10.105 10.1051 
19 1 10.9652 10.1055 0.0232882 
20 1 21.0475 0.0230097 10.1056 
21 1 10.9652 0.0223277 10.1051 
22 1 21.0479 10.105 0.0229347 
23 1 21.0473 10.1053 10.1057 
24 1 10.9658 0.0224197 0.0228273 
33 1 16.7565 1.27645 1.28077 
34 1 15.2559 8.84832 8.84819 
35 1 15.2555 8.84729 1.28061 
36 1 16.7554 1.27948 8.84851 
37 1 15.2555 1.27965 8.84816 
38 1 16.7557 8.84751 1.28034 
39 1 16.7564 8.84799 8.84853 
40 1 15.253 1.2791 1.27989 
41 1 19.793 4.31594 1.27869 
42 1 12.2228 5.81436 8.84811 
43 1 19.79 5.8146 8.84856 
44 1 12.2229 4.31436 1.28022 
45 1 12.2227 5.8149 1.27989 
46 1 19.7903 4.31491 8.84801 
47 1 12.223 4.3142 8.84813 
48 1 19.791 5.81676 1.27995 
49 1 19.7907 1.27672 4.31395 
50 1 12.2228 8.84746 5.81455 
51 1 12.2229 1.28042 5.81523 
52 1 19.7909 8.84832 4.31445 
53 1 19.7905 8.84842 5.81521 
54 1 12.2228 1.27961 4.31492 
55 1 12.2228 8.8471 4.31432 
56 1 19.7913 1.27946 5.81787 
81 1 17.9452 1.37548 1.38056 
82 1 14.0668 8.74964 8.74961 
83 1 14.0657 8.74874 1.37943 
84 1 17.9447 1.37801 8.75148 
85 1 14.0662 1.37861 8.74946 
86 1 17.9451 8.75074 1.37878 
87 1 17.9463 8.74951 8.74997 
88 1 14.0641 1.37802 1.37842 
89 1 19.6976 3.12579 1.37389 
90 1 12.3213 7.0035 8.74962 
91 1 19.6915 7.00376 8.75031 
92 1 12.3201 3.1251 1.3795 
93 1 12.3211 7.00416 1.37867 
94 1 19.6914 3.12595 8.75053 
95 1 12.3214 3.12504 8.74959 
96 1 19.6924 7.00577 1.3782 
97 1 19.691 1.37522 3.12515 
98 1 12.3213 8.74919 7.00374 
99 1 12.3213 1.37934 7.00443 
100 1 19.692 8.75131 3.12501 
101 1 19.6917 8.75003 7.0044 
102 1 12.3199 1.37838 3.12561 
103 1 12.3211 8.74863 3.1251 
104 1 19.6928 1.3783 7.00652 
129 1 20.3006 0.616011 0.759985 
130 1 11.6606 9.41023 9.41054 
131 1 11.6595 9.41054 0.718131 
132 1 20.3521 0.718487 9.4123 
133 1 11.6599 0.717319 9.41072 
134 1 20.352 9.4119 0.717991 
135 1 20.3523 9.41069 9.41089 
136 1 11.659 0.718048 0.718567 
145 2 21.8182 1.30197 21.2671 
146 3 21.8401 2.21106 21.2529 
ITEM: TIMESTEP
60
ITEM: NUMBER OF ATOMS
146
ITEM: BOX BOUNDS pp pp pp
0.0000000000000000e+00 2.1884000000000000e+01
0.0000000000000000e+00 2.1885999999999999e+01
0.0000000000000000e+00 2.1885000000000002e+01
ITEM: ATOMS id type x y z 
9 1 8.50876 12.5629 12.5627 
10 1 1.6232 19.4506 19.4479 
11 1 1.62099 19.4505 12.5607 
12 1 8.50904 12.5628 19.4506 
13 1 1.62098 12.5602 19.45 
14 1 8.50893 19.4506 12.5618 
15 1 8.51018 19.4503 19.4503 
16 1 1.62035 12.5623 12.5619 
25 1 10.1057 10.9653 10.9652 
144 1 0.718472 11.6601 11.66 
27 1 0.0230877 21.0482 10.9651 
28 1 10.1059 10.9656 21.0478 
29 1 0.0233586 10.9657 21.0481 
30 1 10.1053 21.0484 10.9653 
31 1 10.1056 21.0483 21.0484 
32 1 0.0233961 10.9655 10.9652 
57 1 5.81566 12.2235 12.2234 
58 1 4.31436 19.7918 19.7911 
59 1 4.31408 19.7899 12.2233 
60 1 5.81636 12.2237 19.7899 
61 1 4.3142 12.2234 19.79 
62 1 5.81627 19.7898 12.2233 
63 1 5.81775 19.7918 19.791 
64 1 4.31354 12.2234 12.2234 
65 1 8.84751 15.255 12.2234 
66 1 1.28024 16.758 19.7908 
67 1 8.84754 16.758 19.7902 
68 1 1.28127 15.2551 12.2233 
69 1 1.28104 16.7568 12.2233 
70 1 8.84778 15.2553 19.7901 
71 1 1.28007 15.2542 19.7909 
72 1 8.84756 16.7577 12.2234 
73 1 8.84759 12.2241 15.2551 
74 1 1.27983 19.7911 16.7566 
75 1 1.28097 12.2232 16.757 
76 1 8.84758 19.7908 15.2551 
77 1 8.84765 19.791 16.7569 
78 1 1.28123 12.2233 15.255 
79 1 1.27995 19.791 15.2528 
80 1 8.8479 12.2244 16.758 
105 1 7.00552 12.3225 12.3223 
106 1 3.12462 19.6904 19.6894 
107 1 3.12423 19.6907 12.3213 
108 1 7.00612 12.3226 19.6909 
109 1 3.12427 12.3216 19.6909 
110 1 7.00604 19.6908 12.3223 
111 1 7.00744 19.6917 19.6909 
112 1 3.12394 12.3224 12.3223 
113 1 8.74855 14.0652 12.3223 
114 1 1.38236 17.9475 19.6886 
115 1 8.74928 17.9478 19.6908 
116 1 1.38045 14.0655 12.3223 
117 1 1.38014 17.9465 12.3212 
118 1 8.74892 14.0652 19.6909 
119 1 1.37982 14.0652 19.6912 
120 1 8.7487 17.9478 12.3224 
121 1 8.74859 12.3227 14.065 
122 1 1.3815 19.6902 17.9464 
123 1 1.38016 12.3215 17.947 
124 1 8.74875 19.6915 14.0655 
125 1 8.74958 19.6917 17.9465 
126 1 1.38038 12.3223 14.0654 
127 1 1.37997 19.6911 14.063 
128 1 8.74915 12.3232 17.9478 
137 1 9.41042 11.6601 11.6599 
138 1 0.709663 20.3528 20.3624 
139 1 0.718554 20.3526 11.6585 
140 1 9.41134 11.6603 20.3526 
141 1 0.718584 11.6597 20.3529 
142 1 9.41101 20.3535 11.6605 
143 1 9.41191 20.3533 20.3527 
1 1 19.4484 1.61292 1.62147 
2 1 12.5625 8.50811 8.50851 
3 1 12.5611 8.50843 1.62034 
4 1 19.4491 1.62108 8.51112 
5 1 12.5618 1.61998 8.50898 
6 1 19.4496 8.51009 1.62033 
7 1 19.4507 8.50829 8.50879 
8 1 12.5597 1.62048 1.62112 
136 1 11.6593 0.717772 0.718268 
18 1 10.9652 10.1055 10.1058 
19 1 10.9647 10.1056 0.0230501 
20 1 21.0474 0.0230499 10.106 
21 1 10.9652 0.0220717 10.1054 
22 1 21.0475 10.1053 0.0229658 