ITEM: TIMESTEP
0
ITEM: NUMBER OF ATOMS
35
ITEM: BOX BOUNDS pp pp pp
0.0000000000000000e+00 7.0970000000000004e+00
0.0000000000000000e+00 7.0970000000000004e+00
0.0000000000000000e+00 2.4588000000000001e+01
ITEM: ATOMS id type x y z 
2 1 3.339 1.632 13.319 
5 1 4.651 1.581 18.133 
7 1 3.391 1.602 15.981 
8 1 2.166 1.581 18.134 
18 1 3.408 1.581 17.416 
21 1 3.338 2.875 12.602 
23 1 3.367 1.619 14.753 
24 1 3.338 0.39 12.601 
17 1 7.023 2.875 24.28 
19 1 6.997 1.619 22.129 
20 1 7.023 0.39 24.281 
22 1 6.957 1.581 19.466 
25 1 5.714 1.581 18.748 
27 1 6.974 1.602 20.9 
28 1 1.102 1.581 18.748 
30 1 7.024 1.631 23.563 
10 1 6.954 5.232 5.122 
13 1 7.023 3.938 0.307 
15 1 6.994 5.194 2.459 
16 1 7.023 6.423 0.307 
26 1 7.022 5.181 1.025 
29 1 5.711 5.232 5.839 
31 1 6.97 5.211 3.688 
32 1 1.098 5.232 5.84 
1 1 4.647 5.232 6.454 
3 1 3.388 5.211 8.606 
4 1 2.163 5.232 6.454 
6 1 3.338 5.182 11.269 
9 1 3.338 3.939 11.986 
11 1 3.365 5.194 9.834 
12 1 3.338 6.423 11.987 
14 1 3.404 5.232 7.171 
33 2 3.539 5.636 13.064 
34 2 3.539 5.636 14.564 
35 3 4.473 5.467 14.832 
ITEM: TIMESTEP
10
ITEM: NUMBER OF ATOMS
35
ITEM: BOX BOUNDS pp pp pp
0.0000000000000000e+00 7.0970000000000004e+00
0.0000000000000000e+00 7.0970000000000004e+00
0.0000000000000000e+00 2.4588000000000001e+01
ITEM: ATOMS id type x y z 
2 1 3.33661 1.622 13.2947 
5 1 4.65234 1.58102 18.1366 
7 1 3.39149 1.60115 15.9865 
8 1 2.16537 1.581 18.138 
18 1 3.40783 1.58213 17.4344 
21 1 3.33733 2.88332 12.5903 
23 1 3.36785 1.61568 14.7647 
24 1 3.33721 0.436605 12.5954 
17 1 7.02363 2.87469 24.2791 
19 1 6.99616 1.61876 22.1301 
20 1 7.02331 0.390765 24.2815 
22 1 6.95731 1.58155 19.4665 
25 1 5.71785 1.58106 18.7497 
27 1 6.97404 1.60203 20.901 
28 1 1.09802 1.58113 18.7492 
30 1 7.02332 1.63224 23.5636 
10 1 6.95402 5.2302 5.11857 
13 1 7.02195 3.9381 0.308355 
15 1 6.99395 5.19413 2.45738 
16 1 7.02258 6.42197 0.306502 
26 1 7.0216 5.18044 1.0246 
29 1 5.71358 5.23778 5.83707 
31 1 6.97005 5.21072 3.6876 
32 1 1.09539 5.23128 5.83811 
1 1 4.64981 5.22537 6.45161 
3 1 3.38883 5.21242 8.5837 
4 1 2.1597 5.23275 6.45264 
6 1 3.33289 5.13645 11.2115 
9 1 3.33609 3.93529 11.9506 
11 1 3.36278 5.19455 9.81938 
12 1 3.36189 6.36112 12.153 
14 1 3.4047 5.2341 7.17092 
33 2 3.52992 5.70707 13.0207 
34 2 3.54817 5.62992 14.5835 
35 3 4.46143 5.46921 14.8249 
ITEM: TIMESTEP
20
ITEM: NUMBER OF ATOMS
35
ITEM: BOX BOUNDS pp pp pp
0.0000000000000000e+00 7.0970000000000004e+00
0.0000000000000000e+00 7.0970000000000004e+00
0.0000000000000000e+00 2.4588000000000001e+01
ITEM: ATOMS id type x y z 
2 1 3.33642 1.63205 13.291 
5 1 4.65058 1.58151 18.1374 
7 1 3.39196 1.60053 15.9827 
8 1 2.16728 1.58158 18.139 
18 1 3.40783 1.5819 17.4294 
21 1 3.33653 2.87898 12.5833 
23 1 3.36699 1.61601 14.7597 
24 1 3.33735 0.445178 12.5986 
17 1 7.0229 2.87481 24.2799 
19 1 6.99631 1.61903 22.1305 
20 1 7.02299 0.390397 24.2816 
22 1 6.95742 1.58131 19.4667 
25 1 5.71623 1.58133 18.7498 
27 1 6.97381 1.60188 20.9021 
28 1 1.09957 1.58124 18.7488 
30 1 7.02341 1.63179 23.5645 
10 1 6.9541 5.23129 5.11609 
13 1 7.02233 3.93784 0.307669 
15 1 6.99387 5.19368 2.45603 
16 1 7.02231 6.42252 0.306395 
26 1 7.02145 5.18091 1.02373 
29 1 5.71393 5.23155 5.83595 
31 1 6.9701 5.21103 3.68508 
32 1 1.09517 5.23179 5.83721 
1 1 4.65136 5.23232 6.45109 
3 1 3.38837 5.21285 8.58706 
4 1 2.15841 5.23216 6.45184 
6 1 3.3319 5.12779 11.2092 
9 1 3.33418 3.9294 11.9336 
11 1 3.36244 5.19344 9.82434 
12 1 3.36435 6.36791 12.1649 
14 1 3.4044 5.23312 7.17052 
33 2 3.53386 5.70221 13.0398 
34 2 3.54578 5.6277 14.5923 
35 3 4.46312 5.46897 14.8241 
ITEM: TIMESTEP
30
ITEM: NUMBER OF ATOMS
35
ITEM: BOX BOUNDS pp pp pp
0.0000000000000000e+00 7.0970000000000004e+00
0.0000000000000000e+00 7.0970000000000004e+00
0.0000000000000000e+00 2.4588000000000001e+01
ITEM: ATOMS id type x y z 
2 1 3.33004 1.67193 13.2799 
5 1 4.64625 1.58161 18.1393 
7 1 3.39345 1.6031 15.9797 
8 1 2.17163 1.58136 18.1387 
18 1 3.40882 1.58061 17.4247 
21 1 3.32867 2.87186 12.5203 
23 1 3.3643 1.62758 14.7572 
24 1 3.34251 0.45055 12.6038 
17 1 7.02203 2.87105 24.2821 
19 1 6.99449 1.61908 22.1278 
20 1 7.02191 0.391911 24.2795 
22 1 6.95757 1.58246 19.4634 
25 1 5.7105 1.5826 18.7538 
27 1 6.974 1.60257 20.899 
28 1 1.10614 1.58189 18.7526 
30 1 7.02275 1.63137 23.5627 
10 1 6.95321 5.2305 5.10714 
13 1 7.02106 3.93776 0.303189 
15 1 6.99475 5.19337 2.44808 
16 1 7.02099 6.42475 0.305752 
26 1 7.02013 5.18172 1.01741 
29 1 5.71386 5.22996 5.83259 
31 1 6.9693 5.20921 3.67822 
32 1 1.09555 5.23063 5.83199 
1 1 4.65346 5.23286 6.45204 
3 1 3.38645 5.21331 8.58364 
4 1 2.15889 5.23525 6.44698 
6 1 3.32459 5.13758 11.2037 
9 1 3.32524 3.90527 11.8381 
11 1 3.35815 5.19341 9.82269 
12 1 3.38453 6.35209 12.2384 
14 1 3.40362 5.24209 7.17284 
33 2 3.55712 5.68769 13.1403 
34 2 3.53164 5.61109 14.6578 
35 3 4.47144 5.46795 14.8168 
ITEM: TIMESTEP
40
ITEM: NUMBER OF ATOMS
35
ITEM: BOX BOUNDS pp pp pp
0.0000000000000000e+00 7.0970000000000004e+00
0.0000000000000000e+00 7.0970000000000004e+00
0.0000000000000000e+00 2.4588000000000001e+01
ITEM: ATOMS id type x y z 
2 1 3.32952 1.65444 13.2732 
5 1 4.64639 1.5808 18.1402 
7 1 3.39293 1.60698 15.9723 
8 1 2.1712 1.58089 18.1394 
18 1 3.40851 1.57981 17.4233 
21 1 3.32679 2.86686 12.5129 
23 1 3.3648 1.63325 14.7505 
24 1 3.34358 0.446591 12.6139 
17 1 7.02159 2.87177 24.2804 
19 1 6.99536 1.6196 22.1267 
20 1 7.02162 0.392172 24.2794 
22 1 6.95797 1.58314 19.4636 
25 1 5.71215 1.58256 18.753 
27 1 6.97343 1.60275 20.8987 
28 1 1.10483 1.58173 18.7514 
30 1 7.02208 1.63125 23.5611 
10 1 6.95387 5.22812 5.10916 
13 1 7.02141 3.93739 0.303275 
15 1 6.99328 5.19302 2.44953 
16 1 7.02114 6.42436 0.304325 
26 1 7.02034 5.18155 1.01777 
29 1 5.71329 5.23136 5.83169 
31 1 6.96959 5.20863 3.67805 
32 1 1.0956 5.23214 5.83172 
1 1 4.65414 5.23481 6.45147 
3 1 3.38595 5.21823 8.58481 
4 1 2.15828 5.2353 6.44592 
6 1 3.32448 5.14317 11.2052 
9 1 3.32426 3.90759 11.8441 
11 1 3.35761 5.20157 9.82348 
12 1 3.38794 6.35066 12.2448 
14 1 3.40405 5.23874 7.16915 
33 2 3.55942 5.69047 13.1437 
34 2 3.53107 5.60815 14.6694 
35 3 4.47052 5.46816 14.8145 
ITEM: TIMESTEP
50
ITEM: NUMBER OF ATOMS
35
ITEM: BOX BOUNDS pp pp pp
0.0000000000000000e+00 7.0970000000000004e+00
0.0000000000000000e+00 7.0970000000000004e+00
0.0000000000000000e+00 2.4588000000000001e+01
ITEM: ATOMS id type x y z 
2 1 3.32659 1.64343 13.263 
5 1 4.64636 1.58099 18.1325 
7 1 3.39213 1.61767 15.9622 
8 1 2.1732 1.58025 18.1351 
18 1 3.40793 1.57986 17.4133 
21 1 3.32256 2.85284 12.4959 
23 1 3.364 1.64583 14.7404 
24 1 3.34829 0.425063 12.6281 
17 1 7.02098 2.87469 24.2743 
19 1 6.99515 1.61969 22.1238 
20 1 7.02174 0.392096 24.2784 
22 1 6.95847 1.5853 19.4598 
25 1 5.7095 1.57893 18.7495 
27 1 6.9737 1.60417 20.8956 
28 1 1.10563 1.58229 18.7452 
30 1 7.02059 1.63189 23.5585 
10 1 6.95385 5.22768 5.11104 
13 1 7.02093 3.93616 0.30512 
15 1 6.99197 5.19231 2.45068 
16 1 7.02141 6.42245 0.300527 
26 1 7.01966 5.18083 1.01798 
29 1 5.71276 5.23315 5.83147 
31 1 6.96918 5.20864 3.6795 
32 1 1.09867 5.23055 5.829 
1 1 4.65117 5.23544 6.44798 
3 1 3.38359 5.23465 8.58864 
4 1 2.15968 5.23337 6.44674 
6 1 3.32359 5.1487 11.2115 
9 1 3.32045 3.9139 11.8612 
11 1 3.35666 5.23089 9.82621 
12 1 3.39865 6.32652 12.2532 
14 1 3.40459 5.23729 7.16944 
33 2 3.5693 5.69355 13.16 
34 2 3.525 5.59857 14.7091 
35 3 4.47105 5.46837 14.8069 
ITEM: TIMESTEP
60
ITEM: NUMBER OF ATOMS
35
ITEM: BOX BOUNDS pp pp pp
0.0000000000000000e+00 7.0970000000000004e+00
0.0000000000000000e+00 7.0970000000000004e+00
0.0000000000000000e+00 2.4588000000000001e+01
ITEM: ATOMS id type x y z 
2 1 3.31964 1.64271 13.2569 
5 1 4.64636 1.59641 18.1267 
7 1 3.39029 1.62155 15.9568 
8 1 2.17063 1.57969 18.1234 
18 1 3.40835 1.58084 17.4061 
21 1 3.31703 2.86096 12.4936 
23 1 3.361 1.65647 14.7355 
24 1 3.35557 0.408404 12.6323 
17 1 7.01954 2.87064 24.2763 
19 1 6.99524 1.61985 22.1148 
20 1 7.02041 0.389863 24.2704 
22 1 6.95792 1.57918 19.4506 
25 1 5.7125 1.57786 18.7371 
27 1 6.97345 1.60407 20.8874 
28 1 1.10641 1.58692 18.7387 
30 1 7.01961 1.6311 23.5507 
10 1 6.95406 5.225 5.11032 
13 1 7.02087 3.93774 0.29535 
15 1 6.99299 5.19204 2.44954 
16 1 7.01839 6.42672 0.301925 
26 1 7.0182 5.18125 1.01511 
29 1 5.70722 5.22816 5.82726 
31 1 6.96871 5.20953 3.67731 
32 1 1.09857 5.23397 5.83056 
1 1 4.65293 5.23359 6.45421 
3 1 3.38247 5.25128 8.59279 
4 1 2.16367 5.23672 6.44057 
6 1 3.31777 5.1551 11.2134 
9 1 3.31414 3.89893 11.8245 
11 1 3.35378 5.25429 9.83007 
12 1 3.41923 6.3011 12.2787 
14 1 3.40271 5.24816 7.17537 
33 2 3.59409 5.67804 13.2138 
34 2 3.51336 5.58121 14.7806 
35 3 4.47186 5.46867 14.7931 
ITEM: TIMESTEP
70
ITEM: NUMBER OF ATOMS
35
ITEM: BOX BOUNDS pp pp pp
0.0000000000000000e+00 7.0970000000000004e+00
0.0000000000000000e+00 7.0970000000000004e+00
0.0000000000000000e+00 2.4588000000000001e+01
ITEM: ATOMS id type x y z 
2 1 3.31673 1.63806 13.2488 
5 1 4.64694 1.58632 18.1206 
7 1 3.38945 1.62896 15.9555 
8 1 2.1706 1.58087 18.1197 
18 1 3.40817 1.59139 17.403 
21 1 3.31201 2.85416 12.4703 
23 1 3.35877 1.65774 14.7343 
24 1 3.36029 0.398878 12.6436 
17 1 7.02208 2.87295 24.2698 
19 1 6.99359 1.61917 22.1129 
20 1 7.01563 0.390332 24.2681 
22 1 6.95853 1.58059 19.4472 
25 1 5.71345 1.58561 18.7323 
27 1 6.97316 1.6045 20.8847 
28 1 1.10565 1.58386 18.7345 
30 1 7.01937 1.63134 23.5489 
10 1 6.95346 5.22289 5.10918 
13 1 7.01633 3.93645 0.297135 
15 1 6.98951 5.1921 2.44753 
16 1 7.02319 6.42572 0.299125 
26 1 7.01787 5.1814 1.0132 
29 1 5.70936 5.23123 5.82928 
31 1 6.97031 5.20668 3.67645 
32 1 1.09897 5.22923 5.82787 
1 1 4.65196 5.23639 6.45306 
3 1 3.38081 5.26263 8.59362 
4 1 2.16124 5.24315 6.44324 
6 1 3.31607 5.16356 11.2169 
9 1 3.30959 3.90577 11.8245 
11 1 3.35224 5.26809 9.82988 
12 1 3.43243 6.27204 12.2886 
14 1 3.40422 5.2513 7.17266 
33 2 3.6 5.67729 13.2252 
34 2 3.51445 5.5699 14.8203 
35 3 4.47257 5.46746 14.8004 
ITEM: TIMESTEP
80
ITEM: NUMBER OF ATOMS
35
ITEM: BOX BOUNDS pp pp pp
0.0000000000000000e+00 7.0970000000000004e+00
0.0000000000000000e+00 7.0970000000000004e+00
0.0000000000000000e+00 2.4588000000000001e+01
ITEM: ATOMS id type x y z 
2 1 3.31435 1.63693 13.2421 
5 1 4.64821 1.58547 18.1209 
7 1 3.38944 1.62982 15.9613 
8 1 2.16983 1.58626 18.1215 
18 1 3.40821 1.5902 17.4063 
21 1 3.31029 2.85813 12.4607 
23 1 3.35814 1.65941 14.7368 
24 1 3.36165 0.387156 12.6404 
17 1 7.01876 2.87356 24.2689 
19 1 6.99396 1.62033 22.1126 
20 1 7.02014 0.3908 24.2687 
22 1 6.95798 1.57981 19.4482 
25 1 5.71501 1.58555 18.7314 
27 1 6.97252 1.6025 20.8847 
28 1 1.10465 1.58499 18.7347 
30 1 7.0189 1.63146 23.5485 
10 1 6.95334 5.22105 5.10857 
13 1 7.01833 3.93637 0.296864 
15 1 6.99146 5.1921 2.4472 
16 1 7.01778 6.42487 0.29697 
26 1 7.01808 5.18133 1.01366 
29 1 5.71112 5.23102 5.83004 
31 1 6.96877 5.2053 3.67584 
32 1 1.09868 5.23192 5.82774 
1 1 4.65225 5.24011 6.45132 
3 1 3.38076 5.26519 8.59139 
4 1 2.16036 5.24162 6.44347 
6 1 3.31361 5.17783 11.2173 
9 1 3.30806 3.90993 11.8215 
11 1 3.35193 5.27376 9.82446 
12 1 3.43816 6.25334 12.2906 
14 1 3.40358 5.25216 7.16997 
33 2 3.60072 5.67414 13.2312 
34 2 3.51593 5.56697 14.8292 
35 3 4.47403 5.46658 14.807 
ITEM: TIMESTEP
90
ITEM: NUMBER OF ATOMS
35
ITEM: BOX BOUNDS pp pp pp
0.0000000000000000e+00 7.0970000000000004e+00
0.0000000000000000e+00 7.0970000000000004e+00
0.0000000000000000e+00 2.4588000000000001e+01
ITEM: ATOMS id type x y z 
2 1 3.3133 1.63357 13.2355 
5 1 4.64848 1.58669 18.1213 
7 1 3.38914 1.63057 15.9611 
8 1 2.16976 1.58793 18.1222 
18 1 3.40825 1.59072 17.4057 
21 1 3.30907 2.85755 12.456 
23 1 3.35766 1.65952 14.7366 
24 1 3.3629 0.383206 12.6418 
17 1 7.01841 2.87371 24.2685 
19 1 6.99374 1.62038 22.113 
20 1 7.01882 0.391124 24.2693 
22 1 6.95786 1.58089 19.4488 
25 1 5.71586 1.58376 18.7306 
27 1 6.97246 1.60196 20.885 
28 1 1.10402 1.58474 18.7349 
30 1 7.01906 1.63166 23.5484 
10 1 6.95343 5.22042 5.10817 
13 1 7.01827 3.93666 0.296331 
15 1 6.99111 5.192 2.44682 
16 1 7.01917 6.42435 0.295947 
26 1 7.01743 5.18109 1.01313 
29 1 5.71198 5.23155 5.83051 
31 1 6.96875 5.20494 3.67547 
32 1 1.09801 5.23182 5.8275 
1 1 4.65227 5.24122 6.45002 
3 1 3.38063 5.26779 8.58932 
4 1 2.16011 5.24158 6.44355 
6 1 3.3122 5.1835 11.2183 
9 1 3.30681 3.91202 11.8201 
11 1 3.35155 5.27814 9.82416 
12 1 3.44144 6.24745 12.2926 
14 1 3.40362 5.25313 7.1679 
33 2 3.60134 5.67146 13.2361 
34 2 3.51693 5.56492 14.8355 
35 3 4.47513 5.46596 14.8118 
ITEM: TIMESTEP
91
ITEM: NUMBER OF ATOMS
35
ITEM: BOX BOUNDS pp pp pp
0.0000000000000000e+00 7.0970000000000004e+00
0.0000000000000000e+00 7.0970000000000004e+00
0.0000000000000000e+00 2.4588000000000001e+01
ITEM: ATOMS id type x y z 
2 1 3.3133 1.63357 13.2355 
5 1 4.64848 1.58669 18.1213 
7 1 3.38914 1.63057 15.9611 
8 1 2.16976 1.58793 18.1222 
18 1 3.40825 1.59072 17.4057 
21 1 3.30907 2.85755 12.456 
23 1 3.35766 1.65952 14.7366 
24 1 3.3629 0.383206 12.6418 
17 1 7.01841 2.87371 24.2685 
19 1 6.99374 1.62038 22.113 
20 1 7.01882 0.391124 24.2693 
22 1 6.95786 1.58089 19.4488 
25 1 5.71586 1.58376 18.7306 
27 1 6.97246 1.60196 20.885 
28 1 1.10402 1.58474 18.7349 
30 1 7.01906 1.63166 23.5484 
10 1 6.95343 5.22042 5.10817 
13 1 7.01827 3.93666 0.296331 
15 1 6.99111 5.192 2.44682 
16 1 7.01917 6.42435 0.295947 
26 1 7.01743 5.18109 1.01313 
29 1 5.71198 5.23155 5.83051 
31 1 6.96875 5.20494 3.67547 
32 1 1.09801 5.23182 5.8275 
1 1 4.65227 5.24122 6.45002 
3 1 3.38063 5.26779 8.58932 
4 1 2.16011 5.24158 6.44355 
6 1 3.3122 5.1835 11.2183 
9 1 3.30681 3.91202 11.8201 
11 1 3.35155 5.27814 9.82416 
12 1 3.44144 6.24745 12.2926 
14 1 3.40362 5.25313 7.1679 
33 2 3.60134 5.67146 13.2361 
34 2 3.51693 5.56492 14.8355 
35 3 4.47513 5.46596 14.8118 
ITEM: TIMESTEP
92
ITEM: NUMBER OF ATOMS
35
ITEM: BOX BOUNDS pp pp pp
0.0000000000000000e+00 7.0970000000000004e+00
0.0000000000000000e+00 7.0970000000000004e+00
0.0000000000000000e+00 2.4588000000000001e+01
ITEM: ATOMS id type x y z 
2 1 3.3133 1.63357 13.2355 
5 1 4.64848 1.58669 18.1213 
7 1 3.38914 1.63057 15.9611 
8 1 2.16976 1.58793 18.1222 
18 1 3.40825 1.59072 17.4057 
21 1 3.30907 2.85755 12.456 
23 1 3.35766 1.65952 14.7366 
24 1 3.3629 0.383206 12.6418 
17 1 7.01841 2.87371 24.2685 
19 1 6.99374 1.62038 22.113 
20 1 7.01882 0.391124 24.2693 
22 1 6.95786 1.58089 19.4488 
25 1 5.71586 1.58376 18.7306 
27 1 6.97246 1.60196 20.885 
28 1 1.10402 1.58474 18.7349 
30 1 7.01906 1.63166 23.5484 
10 1 6.95343 5.22042 5.10817 
13 1 7.01827 3.93666 0.296331 
15 1 6.99111 5.192 2.44682 
16 1 7.01917 6.42435 0.295947 
26 1 7.01743 5.18109 1.01313 
29 1 5.71198 5.23155 5.83051 
31 1 6.96875 5.20494 3.67547 
32 1 1.09801 5.23182 5.8275 
1 1 4.65227 5.24122 6.45002 
3 1 3.38063 5.26779 8.58932 
4 1 2.16011 5.24158 6.44355 
6 1 3.3122 5.1835 11.2183 
9 1 3.30681 3.91202 11.8201 
11 1 3.35155 5.27814 9.82416 
12 1 3.44144 6.24745 12.2926 
14 1 3.40362 5.25313 7.1679 
33 2 3.60134 5.67146 13.2361 
34 2 3.51693 5.56492 14.8355 
35 3 4.47513 5.46596 14.8118 
ITEM: TIMESTEP
100
ITEM: NUMBER OF ATOMS
35
ITEM: BOX BOUNDS pp pp pp
-7.1749648525514008e-04 7.0977174964852567e+00
-1.6114285135521778e-03 7.0986114285135526e+00
2.2104485613725342e-03 2.4585789551438630e+01
ITEM: ATOMS id type x y z 
2 1 3.31318 1.63248 13.2347 
5 1 4.64884 1.58586 18.12 
7 1 3.38906 1.62978 15.9604 
8 1 2.16949 1.58686 18.1212 
18 1 3.40819 1.59015 17.4046 
21 1 3.3089 2.85723 12.4554 
23 1 3.35756 1.65852 14.7357 
24 1 3.36305 0.381391 12.6419 
17 1 7.01924 2.87354 24.2664 
19 1 6.99442 1.61941 22.1115 
20 1 7.01982 0.389521 24.2671 
22 1 6.95863 1.58009 19.4475 
25 1 5.71612 1.58288 18.7296 
27 1 6.97314 1.6012 20.8833 
28 1 1.10356 1.58375 18.7336 
30 1 7.01967 1.63082 23.5465 
10 1 6.95414 5.22114 5.10949 
13 1 7.01887 3.93673 0.298367 
15 1 6.99184 5.1927 2.44833 
16 1 7.0193 6.42582 0.298108 
26 1 7.01836 5.18181 1.01496 
29 1 5.71246 5.23233 5.83167 
31 1 6.9694 5.20569 3.67711 
32 1 1.09752 5.23258 5.82871 
1 1 4.65249 5.24205 6.45095 
3 1 3.38058 5.26893 8.58993 
4 1 2.15978 5.24239 6.44452 
6 1 3.31206 5.18436 11.2188 
9 1 3.30661 3.91208 11.8203 
11 1 3.35145 5.2794 9.82474 
12 1 3.44169 6.24868 12.2929 
14 1 3.40359 5.254 7.16869 
33 2 3.60141 5.67215 13.2364 
34 2 3.51704 5.56562 14.8358 
35 3 4.47544 5.46676 14.8119 
ITEM: TIMESTEP
107
ITEM: NUMBER OF ATOMS
35
ITEM: BOX BOUNDS pp pp pp
-7.2030082906320275e-04 7.0977203008290655e+00
-1.7353440130293257e-03 7.0987353440130283e+00
3.9944386170473094e-03 2.4584005561382956e+01
ITEM: ATOMS id type x y z 
2 1 3.31316 1.63235 13.2344 
5 1 4.64888 1.58581 18.1191 
7 1 3.38904 1.62974 15.9598 
8 1 2.16948 1.58675 18.1204 
18 1 3.40819 1.59016 17.4038 
21 1 3.30886 2.85717 12.4552 
23 1 3.35754 1.65841 14.7353 
24 1 3.3631 0.381181 12.6419 
17 1 7.01925 2.87355 24.2647 
19 1 6.99442 1.61932 22.1101 
20 1 7.0198 0.389376 24.2654 
22 1 6.95865 1.58004 19.4465 
25 1 5.71606 1.58281 18.7287 
27 1 6.97314 1.60116 20.882 
28 1 1.10357 1.58366 18.7327 
30 1 7.01969 1.63075 23.5449 
10 1 6.95414 5.22118 5.11054 
13 1 7.01887 3.93671 0.30008 
15 1 6.99186 5.19275 2.4497 
16 1 7.01926 6.42595 0.299815 
26 1 7.01838 5.18188 1.01655 
29 1 5.71246 5.2324 5.83262 
31 1 6.96939 5.20574 3.67836 
32 1 1.09752 5.23264 5.82966 
1 1 4.6525 5.24212 6.45176 
3 1 3.38058 5.26909 8.59045 
4 1 2.15977 5.24245 6.44535 
6 1 3.31203 5.18446 11.219 
9 1 3.30657 3.91208 11.8203 
11 1 3.35144 5.2796 9.82514 
12 1 3.44176 6.24877 12.293 
14 1 3.40359 5.25409 7.16939 
33 2 3.60142 5.67215 13.2364 
34 2 3.51707 5.56563 14.8356 
35 3 4.47547 5.46681 14.8116 
ITEM: TIMESTEP
110
ITEM: NUMBER OF ATOMS
35
ITEM: BOX BOUNDS pp pp pp
-7.2030082906320275e-04 7.0977203008290655e+00
-1.7353440130293257e-03 7.0987353440130283e+00
3.9944386170473094e-03 2.4584005561382956e+01
ITEM: ATOMS id type x y z 
2 1 3.31112 1.62599 13.2143 
5 1 4.65147 1.5888 18.1122 
7 1 3.38733 1.632 15.9531 
8 1 2.17102 1.58481 18.1195 
18 1 3.40771 1.59581 17.3978 
21 1 3.305 2.85004 12.4412 
23 1 3.35592 1.65392 14.7272 
24 1 3.36804 0.377834 12.65 
17 1 7.01808 2.87381 24.262 
19 1 6.99421 1.61742 22.1107 
20 1 7.01772 0.390179 24.2646 
22 1 6.96018 1.58013 19.446 
25 1 5.71233 1.58369 18.7334 
27 1 6.97278 1.60319 20.8851 
28 1 1.10327 1.58308 18.73 
30 1 7.02084 1.63079 23.5498 
10 1 6.95452 5.21966 5.11079 
13 1 7.02011 3.93783 0.29941 
15 1 6.99223 5.19194 2.4483 
16 1 7.01573 6.42406 0.298141 
26 1 7.01908 5.18235 1.01236 
29 1 5.71412 5.23278 5.83259 
31 1 6.96864 5.20509 3.67413 
32 1 1.09605 5.23299 5.8301 
1 1 4.65136 5.24397 6.44883 
3 1 3.38 5.27965 8.59412 
4 1 2.16051 5.24351 6.44411 
6 1 3.30902 5.18763 11.2247 
9 1 3.30194 3.91498 11.8187 
11 1 3.34972 5.29404 9.82524 
12 1 3.45055 6.24179 12.3019 
14 1 3.40357 5.25715 7.16542 
33 2 3.60308 5.66409 13.2507 
34 2 3.52068 5.559 14.856 
35 3 4.47897 5.46475 14.8277 
ITEM: TIMESTEP
120
ITEM: NUMBER OF ATOMS
35
ITEM: BOX BOUNDS pp pp pp
-7.2030082906320275e-04 7.0977203008290655e+00
-1.7353440130293257e-03 7.0987353440130283e+00
3.9944386170473094e-03 2.4584005561382956e+01
ITEM: ATOMS id type x y z 
2 1 3.30969 1.61925 13.2135 
5 1 4.64794 1.59374 18.1126 
7 1 3.38633 1.62689 15.9477 
8 1 2.16937 1.59229 18.114 
18 1 3.41029 1.59668 17.3875 
21 1 3.29921 2.85015 12.4279 
23 1 3.35267 1.65408 14.7214 
24 1 3.37248 0.367589 12.6475 
17 1 7.00962 2.8739 24.2605 
19 1 6.99488 1.61679 22.1054 
20 1 7.02477 0.388695 24.2621 
22 1 6.95828 1.57375 19.4431 
25 1 5.7135 1.58492 18.7242 
27 1 6.97286 1.60254 20.8773 
28 1 1.10593 1.59005 18.7286 
30 1 7.02147 1.632 23.5429 
10 1 6.95442 5.21551 5.11067 
13 1 7.01672 3.93636 0.296883 
15 1 6.99227 5.19108 2.44949 
16 1 7.01144 6.42646 0.297826 
26 1 7.02197 5.18194 1.01471 
29 1 5.70952 5.2347 5.82966 
31 1 6.9682 5.20458 3.67807 
32 1 1.09956 5.23325 5.82798 
1 1 4.65083 5.24746 6.4508 
3 1 3.3799 5.29068 8.59318 
4 1 2.16063 5.24779 6.44565 
6 1 3.30557 5.19646 11.2245 
9 1 3.29641 3.91243 11.8053 
11 1 3.34821 5.30992 9.82756 
12 1 3.46312 6.2281 12.3164 
14 1 3.4034 5.26323 7.17223 
33 2 3.6058 5.65394 13.2676 
34 2 3.52524 5.54971 14.8852 
35 3 4.48442 5.46186 14.8505 
ITEM: TIMESTEP
130
ITEM: NUMBER OF ATOMS
35
ITEM: BOX BOUNDS pp pp pp
-7.2030082906320275e-04 7.0977203008290655e+00
-1.7353440130293257e-03 7.0987353440130283e+00
3.9944386170473094e-03 2.4584005561382956e+01
ITEM: ATOMS id type x y z 
2 1 3.30882 1.62394 13.211 
5 1 4.64899 1.59167 18.1093 
7 1 3.3854 1.63003 15.9438 
8 1 2.17061 1.59236 18.1122 
18 1 3.4081 1.60018 17.3889 
21 1 3.29866 2.84731 12.4257 
23 1 3.35284 1.65094 14.7178 
24 1 3.37411 0.365618 12.6494 
17 1 7.01699 2.87526 24.259 
19 1 6.99402 1.61821 22.1058 
20 1 7.01809 0.388475 24.2613 
22 1 6.95888 1.57921 19.4411 
25 1 5.71248 1.58503 18.725 
27 1 6.97292 1.59992 20.8777 
28 1 1.10647 1.5858 18.7273 
30 1 7.01819 1.63071 23.5423 
10 1 6.9541 5.21676 5.11052 
13 1 7.01538 3.93655 0.297701 
15 1 6.99105 5.1915 2.44832 
16 1 7.02031 6.42638 0.298118 
26 1 7.01664 5.18193 1.01411 
29 1 5.71049 5.23349 5.83058 
31 1 6.96908 5.20298 3.67695 
32 1 1.09868 5.23342 5.82881 
1 1 4.65072 5.24809 6.45004 
3 1 3.37959 5.29398 8.59599 
4 1 2.16062 5.2479 6.44508 
6 1 3.30551 5.19645 11.2263 
9 1 3.2949 3.91009 11.8062 
11 1 3.34801 5.31232 9.82931 
12 1 3.46469 6.22525 12.3172 
14 1 3.40332 5.26565 7.17065 
33 2 3.60652 5.65234 13.2698 
34 2 3.52637 5.54772 14.8915 
35 3 4.48535 5.46129 14.8553 
ITEM: TIMESTEP
140
ITEM: NUMBER OF ATOMS
35
ITEM: BOX BOUNDS pp pp pp
-7.2030082906320275e-04 7.0977203008290655e+00
-1.7353440130293257e-03 7.0987353440130283e+00
3.9944386170473094e-03 2.4584005561382956e+01
ITEM: ATOMS id type x y z 
2 1 3.30001 1.60852 13.1734 
5 1 4.6454 1.62107 18.087 
7 1 3.37826 1.62953 15.9041 
8 1 2.17489 1.59761 18.0855 
18 1 3.40705 1.61613 17.3587 
21 1 3.27409 2.81445 12.3677 
23 1 3.34289 1.64407 14.675 
24 1 3.3976 0.333529 12.6687 
17 1 7.0259 2.86641 24.2633 
19 1 7.0014 1.62324 22.0871 
20 1 6.98756 0.386183 24.2397 
22 1 6.95851 1.56976 19.418 
25 1 5.71346 1.60717 18.6968 
27 1 6.96396 1.59291 20.8583 
28 1 1.10231 1.59812 18.6904 
30 1 7.02136 1.62848 23.5294 
10 1 6.95195 5.20467 5.11337 
13 1 7.01935 3.94353 0.275819 
15 1 6.99287 5.18547 2.44394 
16 1 6.99134 6.42876 0.28929 
26 1 7.02417 5.18398 1.00218 
29 1 5.71149 5.23767 5.8381 
31 1 6.96528 5.19155 3.67362 
32 1 1.09377 5.23778 5.83757 
1 1 4.64703 5.26949 6.45337 
3 1 3.3788 5.35636 8.61169 
4 1 2.16083 5.27354 6.44911 
6 1 3.29657 5.20834 11.2411 
9 1 3.26968 3.89545 11.78 
11 1 3.34265 5.36977 9.8461 
12 1 3.51423 6.1629 12.3664 
14 1 3.40111 5.31091 7.177 
33 2 3.63179 5.60618 13.3345 
34 2 3.55063 5.49757 15.0537 
35 3 4.50871 5.44767 14.97 
ITEM: TIMESTEP
150
ITEM: NUMBER OF ATOMS
35
ITEM: BOX BOUNDS pp pp pp
-7.2030082906320275e-04 7.0977203008290655e+00
-1.7353440130293257e-03 7.0987353440130283e+00
3.9944386170473094e-03 2.4584005561382956e+01
ITEM: ATOMS id type x y z 
2 1 3.29604 1.59789 13.1596 
5 1 4.64859 1.62078 18.0727 
7 1 3.37604 1.63525 15.9009 
8 1 2.16863 1.6069 18.0738 
18 1 3.40706 1.62848 17.3475 
21 1 3.2658 2.81205 12.3492 
23 1 3.34064 1.63937 14.6733 
24 1 3.40282 0.33503 12.6773 
17 1 7.02422 2.87089 24.2511 
19 1 6.99313 1.61987 22.0785 
20 1 6.99024 0.384222 24.2367 
22 1 6.95793 1.57941 19.4083 
25 1 5.71131 1.60559 18.6893 
27 1 6.97115 1.59954 20.8507 
28 1 1.10151 1.59273 18.6836 
30 1 7.01482 1.63014 23.5205 
10 1 6.95164 5.19796 5.1127 
13 1 7.02378 3.93835 0.27907 
15 1 6.98936 5.18264 2.44388 
16 1 6.99197 6.42817 0.284302 
26 1 7.0147 5.18293 1.00306 
29 1 5.70883 5.2431 5.83908 
31 1 6.96739 5.18936 3.67201 
32 1 1.0943 5.24243 5.83836 
1 1 4.64775 5.27986 6.45626 
3 1 3.37745 5.37844 8.61315 
4 1 2.15792 5.27959 6.4519 
6 1 3.29543 5.2165 11.25 
9 1 3.26159 3.88919 11.7638 
11 1 3.34239 5.38788 9.84342 
12 1 3.53163 6.1167 12.3744 
14 1 3.40027 5.32932 7.17858 
33 2 3.64531 5.58666 13.3566 
34 2 3.55976 5.47855 15.1162 
35 3 4.51548 5.44302 15.0104 
ITEM: TIMESTEP
160
ITEM: NUMBER OF ATOMS
35
ITEM: BOX BOUNDS pp pp pp
-7.2030082906320275e-04 7.0977203008290655e+00
-1.7353440130293257e-03 7.0987353440130283e+00
3.9944386170473094e-03 2.4584005561382956e+01
ITEM: ATOMS id type x y z 
2 1 3.29551 1.59569 13.1648 
5 1 4.65287 1.60823 18.0653 
7 1 3.3763 1.63954 15.905 
8 1 2.16342 1.61418 18.0688 
18 1 3.40478 1.63297 17.3482 
21 1 3.26635 2.8132 12.3538 
23 1 3.34104 1.63956 14.6771 
24 1 3.40119 0.329558 12.68 
17 1 7.01443 2.8752 24.2406 
19 1 6.98831 1.61811 22.0783 
20 1 7.00825 0.384297 24.2404 
22 1 6.95786 1.58806 19.4114 
25 1 5.70872 1.59471 18.6926 
27 1 6.97477 1.60461 20.8497 
28 1 1.10281 1.60028 18.6898 
30 1 7.00701 1.62971 23.5169 
10 1 6.95155 5.19694 5.1113 
13 1 7.0125 3.93443 0.282666 
15 1 6.98613 5.18368 2.44441 
16 1 7.00811 6.42613 0.283471 
26 1 7.00704 5.17953 1.00606 
29 1 5.70772 5.24619 5.83551 
31 1 6.96829 5.18921 3.673 
32 1 1.09467 5.24555 5.83349 
1 1 4.65042 5.28782 6.4586 
3 1 3.37647 5.3797 8.60826 
4 1 2.1554 5.28379 6.45217 
6 1 3.29974 5.21475 11.2453 
9 1 3.26276 3.88507 11.7596 
11 1 3.34368 5.38836 9.83853 
12 1 3.52923 6.11248 12.3721 
14 1 3.39957 5.33171 7.17384 
33 2 3.65517 5.57833 13.353 
34 2 3.56038 5.47431 15.1321 
35 3 4.51447 5.44287 15.0141 
ITEM: TIMESTEP
166
ITEM: NUMBER OF ATOMS
35
ITEM: BOX BOUNDS pp pp pp
-7.2030082906320275e-04 7.0977203008290655e+00
-1.7353440130293257e-03 7.0987353440130283e+00
3.9944386170473094e-03 2.4584005561382956e+01
ITEM: ATOMS id type x y z 
2 1 3.29552 1.59564 13.1648 
5 1 4.65272 1.60843 18.0654 
7 1 3.37631 1.63946 15.9049 
8 1 2.16339 1.61432 18.0688 
18 1 3.40484 1.63268 17.3481 
21 1 3.26637 2.81307 12.3538 
23 1 3.34102 1.63966 14.6771 
24 1 3.40116 0.329637 12.6801 
17 1 7.01409 2.87522 24.2405 
19 1 6.98867 1.61833 22.0783 
20 1 7.00816 0.384345 24.2405 
22 1 6.95781 1.58788 19.4113 
25 1 5.70885 1.59489 18.6925 
27 1 6.97452 1.60435 20.8498 
28 1 1.10283 1.60051 18.6898 
30 1 7.00712 1.62957 23.5171 
10 1 6.9515 5.19732 5.11131 
13 1 7.01244 3.93441 0.282726 
15 1 6.98614 5.18357 2.44436 
16 1 7.00811 6.42604 0.283374 
26 1 7.0072 5.17964 1.00594 
29 1 5.70779 5.24619 5.83554 
31 1 6.9682 5.18937 3.67292 
32 1 1.09481 5.24477 5.8334 
1 1 4.65031 5.28766 6.45848 
3 1 3.37647 5.37974 8.60829 
4 1 2.15535 5.28449 6.45219 
6 1 3.2998 5.2146 11.2453 
9 1 3.2628 3.88503 11.7596 
11 1 3.34369 5.38834 9.83855 
12 1 3.5292 6.11242 12.3721 
14 1 3.39958 5.33186 7.17391 
33 2 3.65533 5.57822 13.3528 
34 2 3.56038 5.47424 15.1324 
35 3 4.51446 5.44287 15.0142 
ITEM: TIMESTEP
170
ITEM: NUMBER OF ATOMS
35
ITEM: BOX BOUNDS pp pp pp
-2.2851494585166227e-05 7.0970228514945877e+00
-1.2430735595494488e-03 7.0982430735595488e+00
8.9104408416004893e-03 2.4579089559158408e+01
ITEM: ATOMS id type x y z 
2 1 3.29557 1.59591 13.1644 
5 1 4.6525 1.60871 18.0631 
7 1 3.37634 1.63973 15.9034 
8 1 2.16366 1.61459 18.0665 
18 1 3.40487 1.63294 17.3461 
21 1 3.26642 2.81317 12.3538 
23 1 3.34106 1.63992 14.6761 
24 1 3.40119 0.330083 12.6799 
17 1 7.0134 2.87531 24.2357 
19 1 6.988 1.6186 22.0744 
20 1 7.00748 0.384786 24.2357 
22 1 6.95714 1.58815 19.4085 
25 1 5.70843 1.59516 18.6899 
27 1 6.97384 1.60461 20.8464 
28 1 1.10331 1.60078 18.6873 
30 1 7.00644 1.62983 23.5126 
10 1 6.95083 5.1971 5.11418 
13 1 7.01175 3.93436 0.287532 
15 1 6.98546 5.18334 2.44829 
16 1 7.00743 6.42564 0.288178 
26 1 7.00652 5.17941 1.01045 
29 1 5.70737 5.24595 5.83812 
31 1 6.96753 5.18915 3.67637 
32 1 1.09529 5.24452 5.83598 
1 1 4.65009 5.28742 6.46082 
3 1 3.3765 5.37949 8.60976 
4 1 2.15563 5.28426 6.45453 
6 1 3.29985 5.21437 11.2457 
9 1 3.26286 3.88498 11.7599 
11 1 3.34373 5.38809 9.83954 
14 1 3.39961 5.33162 7.17596 
33 2 3.65531 5.57794 13.3524 
34 2 3.56038 5.47397 15.1313 
35 3 4.51427 5.4426 15.0131 
12 1 3.5292 6.11207 12.3721 
ITEM: TIMESTEP
180
ITEM: NUMBER OF ATOMS
35
ITEM: BOX BOUNDS pp pp pp
2.6825635684483312e-03 7.0943174364315542e+00
5.1491833028496263e-04 7.0964850816697149e+00
2.0104344727203984e-02 2.4567895655272817e+01
ITEM: ATOMS id type x y z 
2 1 3.29576 1.59686 13.1636 
5 1 4.65149 1.6097 18.0577 
7 1 3.37649 1.64065 15.9005 
8 1 2.16487 1.61558 18.0612 
18 1 3.40499 1.63384 17.3415 
21 1 3.26664 2.81343 12.3538 
23 1 3.3412 1.6409 14.6736 
24 1 3.4013 0.331646 12.6796 
17 1 7.0107 2.87554 24.2247 
19 1 6.98543 1.61959 22.0658 
20 1 7.00482 0.386479 24.2248 
22 1 6.95453 1.58908 19.402 
25 1 5.70695 1.59616 18.6841 
27 1 6.97119 1.60553 20.8384 
28 1 1.10502 1.60178 18.6815 
30 1 7.00384 1.63076 23.5024 
10 1 6.94824 5.19633 5.12073 
13 1 7.0091 3.93427 0.298547 
15 1 6.98285 5.18251 2.45701 
16 1 7.00479 6.42408 0.299169 
26 1 7.00391 5.17862 1.02069 
29 1 5.70588 5.24511 5.84393 
31 1 6.96491 5.18836 3.68445 
32 1 1.09701 5.24359 5.84178 
1 1 4.6491 5.28654 6.46619 
3 1 3.37664 5.37858 8.61285 
4 1 2.15684 5.28347 6.45992 
6 1 3.30003 5.21352 11.2466 
9 1 3.26308 3.8849 11.7603 
11 1 3.34388 5.38719 9.84204 
14 1 3.39972 5.33078 7.18063 
33 2 3.65526 5.57691 13.3514 
34 2 3.56036 5.473 15.1287 
35 3 4.51353 5.44167 15.0107 
12 1 3.52922 6.11081 12.372 
ITEM: TIMESTEP
190
ITEM: NUMBER OF ATOMS
35
ITEM: BOX BOUNDS pp pp pp
4.8503928016648441e-03 7.0921496071983370e+00
9.4140717464428125e-04 7.0960585928253561e+00
3.1841577405359180e-02 2.4556158422594674e+01
ITEM: ATOMS id type x y z 
2 1 3.29582 1.59694 13.1622 
5 1 4.65006 1.61017 18.0519 
7 1 3.37666 1.64077 15.8985 
8 1 2.16641 1.61598 18.0554 
18 1 3.40516 1.63377 17.3366 
21 1 3.26682 2.81312 12.3538 
23 1 3.34127 1.6413 14.6701 
24 1 3.4014 0.331694 12.679 
17 1 7.00818 2.87524 24.2129 
19 1 6.98361 1.6199 22.0576 
20 1 7.00264 0.387351 24.2133 
22 1 6.95239 1.589 19.3951 
25 1 5.70638 1.5966 18.6783 
27 1 6.96884 1.60568 20.8293 
28 1 1.1058 1.60226 18.6758 
30 1 7.00193 1.6309 23.492 
10 1 6.94613 5.19629 5.12756 
13 1 7.00691 3.93459 0.310295 
15 1 6.98078 5.1822 2.46527 
16 1 7.00265 6.42319 0.310776 
26 1 7.00199 5.17852 1.03117 
29 1 5.70529 5.24488 5.84975 
31 1 6.96271 5.18832 3.6936 
32 1 1.09781 5.24315 5.84762 
1 1 4.64768 5.28619 6.472 
3 1 3.37679 5.3784 8.6153 