LAMMPS (3 Mar 2020)
Reading data file ...
  orthogonal box = (0 0 0) to (32.808 17.78 2.473)
  4 by 2 by 1 MPI processor grid
  reading atoms ...
  57 atoms
  read_data CPU = 0.0102638 secs
WARNING: Changed valency_val to valency_boc for X (../reaxc_ffield.cpp:315)
WARNING: Using 'neigh_modify every 1 delay 0 check yes' setting during minimization (../min.cpp:190)
Neighbor list info ...
  update every 1 steps, delay 0 steps, check yes
  max neighbors/atom: 2000, page size: 100000
  master list distance cutoff = 12
  ghost atom cutoff = 12
  binsize = 6, bins = 6 3 1
  2 neighbor lists, perpetual/occasional/extra = 2 0 0
  (1) pair reax/c, perpetual
      attributes: half, newton off, ghost
      pair build: half/bin/newtoff/ghost
      stencil: half/ghost/bin/3d/newtoff
      bin: standard
  (2) fix qeq/reax, perpetual, copy from (1)
      attributes: half, newton off, ghost
      pair build: copy
      stencil: none
      bin: none
Setting up cg style minimization ...
  Unit style    : real
  Current step  : 0
Per MPI rank memory allocation (min/avg/max) = 28.35 | 28.54 | 28.73 Mbytes
Step Temp E_pair E_mol TotEng Press 
       0            0   -10742.544            0   -10742.544    598248.46 
      33            0   -10996.418            0   -10996.418     376802.2 
Loop time of 5.43729 on 8 procs for 33 steps with 57 atoms

99.9% CPU use with 8 MPI tasks x no OpenMP threads

Minimization stats:
  Stopping criterion = energy tolerance
  Energy initial, next-to-last, final = 
        -10742.5443518     -10996.4175393     -10996.4175896
  Force two-norm initial, final = 300.792 150.04
  Force max component initial, final = 159.244 59.3652
  Final line search alpha, max atom move = 0.000105269 0.00624933
  Iterations, force evaluations = 33 160

MPI task timing breakdown:
Section |  min time  |  avg time  |  max time  |%varavg| %total
---------------------------------------------------------------
Pair    | 4.6239     | 4.7889     | 4.9265     |   4.7 | 88.07
Neigh   | 0          | 0          | 0          |   0.0 |  0.00
Comm    | 0.052171   | 0.18941    | 0.35379    |  23.4 |  3.48
Output  | 0.00034221 | 0.00045214 | 0.00062869 |   0.0 |  0.01
Modify  | 0.44969    | 0.44984    | 0.45034    |   0.0 |  8.27
Other   |            | 0.008727   |            |       |  0.16

Nlocal:    7.125 ave 11 max 3 min
Histogram: 2 0 2 0 0 0 0 1 1 2
Nghost:    1115.88 ave 1129 max 1102 min
Histogram: 2 0 2 0 0 0 0 2 0 2
Neighs:    1970.38 ave 3029 max 839 min
Histogram: 2 0 2 0 0 0 0 1 1 2

Total # of neighbors = 15763
Ave neighs/atom = 276.544
Neighbor list builds = 0
Dangerous builds = 0
WARNING: Using 'neigh_modify every 1 delay 0 check yes' setting during minimization (../min.cpp:190)
Setting up cg style minimization ...
  Unit style    : real
  Current step  : 33
Per MPI rank memory allocation (min/avg/max) = 28.35 | 28.54 | 28.73 Mbytes
Step Temp E_pair E_mol TotEng Press 
      33            0   -10996.418            0   -10996.418    376802.19 
      34            0   -10996.418            0   -10996.418    376802.18 
Loop time of 0.267215 on 8 procs for 1 steps with 57 atoms

100.0% CPU use with 8 MPI tasks x no OpenMP threads

Minimization stats:
  Stopping criterion = energy tolerance
  Energy initial, next-to-last, final = 
        -10996.4175911     -10996.4175911     -10996.4176061
  Force two-norm initial, final = 150.04 150.037
  Force max component initial, final = 59.3652 59.3632
  Final line search alpha, max atom move = 0.000105281 0.00624978
  Iterations, force evaluations = 1 7

MPI task timing breakdown:
Section |  min time  |  avg time  |  max time  |%varavg| %total
---------------------------------------------------------------
Pair    | 0.22922    | 0.23749    | 0.24567    |   1.1 | 88.88
Neigh   | 0          | 0          | 0          |   0.0 |  0.00
Comm    | 0.00090392 | 0.0090539  | 0.017324   |   5.6 |  3.39
Output  | 0          | 0          | 0          |   0.0 |  0.00
Modify  | 0.019982   | 0.020021   | 0.02005    |   0.0 |  7.49
Other   |            | 0.000649   |            |       |  0.24

Nlocal:    7.125 ave 11 max 3 min
Histogram: 2 0 2 0 0 0 0 1 1 2
Nghost:    1115.88 ave 1129 max 1102 min
Histogram: 2 0 2 0 0 0 0 2 0 2
Neighs:    1973.38 ave 3029 max 841 min
Histogram: 2 0 2 0 0 0 0 1 1 2

Total # of neighbors = 15787
Ave neighs/atom = 276.965
Neighbor list builds = 0
Dangerous builds = 0
WARNING: Using 'neigh_modify every 1 delay 0 check yes' setting during minimization (../min.cpp:190)
Setting up cg style minimization ...
  Unit style    : real
  Current step  : 34
WARNING: Energy due to 3 extra global DOFs will be included in minimizer energies
Per MPI rank memory allocation (min/avg/max) = 28.35 | 28.54 | 28.73 Mbytes
Step Temp E_pair E_mol TotEng Press Volume 
      34            0   -10996.418            0   -10996.418    376802.17    1442.5658 
    2014            0   -11144.469            0   -11144.469    491.87018    1480.2536 
Loop time of 95.9231 on 8 procs for 1980 steps with 57 atoms

99.8% CPU use with 8 MPI tasks x no OpenMP threads

Minimization stats:
  Stopping criterion = energy tolerance
  Energy initial, next-to-last, final = 
        -10996.4176078     -11144.4691077     -11144.4691918
  Force two-norm initial, final = 14420.7 21.099
  Force max component initial, final = 11506.1 13.9843
  Final line search alpha, max atom move = 9.71435e-06 0.000135848
  Iterations, force evaluations = 1980 3031

MPI task timing breakdown:
Section |  min time  |  avg time  |  max time  |%varavg| %total
---------------------------------------------------------------
Pair    | 84.398     | 87.436     | 89.958     |  19.6 | 91.15
Neigh   | 0          | 0          | 0          |   0.0 |  0.00
Comm    | 0.91173    | 3.422      | 6.4518     |  98.8 |  3.57
Output  | 0.019066   | 0.024306   | 0.03496    |   3.0 |  0.03
Modify  | 4.643      | 4.6449     | 4.6542     |   0.2 |  4.84
Other   |            | 0.3961     |            |       |  0.41

Nlocal:    7.125 ave 11 max 3 min
Histogram: 2 0 2 0 0 0 0 1 1 2
Nghost:    1115.88 ave 1129 max 1102 min
Histogram: 2 0 2 0 0 0 0 2 0 2
Neighs:    1973.38 ave 3029 max 841 min
Histogram: 2 0 2 0 0 0 0 1 1 2

Total # of neighbors = 15787
Ave neighs/atom = 276.965
Neighbor list builds = 0
Dangerous builds = 0
WARNING: Using 'neigh_modify every 1 delay 0 check yes' setting during minimization (../min.cpp:190)
Setting up cg style minimization ...
  Unit style    : real
  Current step  : 2014
Per MPI rank memory allocation (min/avg/max) = 28.35 | 28.54 | 28.73 Mbytes
Step Temp E_pair E_mol TotEng Press 
    2014            0   -11144.469            0   -11144.469    491.86825 
    2108            0   -11147.242            0   -11147.242   -17639.106 
Loop time of 17.3483 on 8 procs for 94 steps with 57 atoms

99.8% CPU use with 8 MPI tasks x no OpenMP threads

Minimization stats:
  Stopping criterion = energy tolerance
  Energy initial, next-to-last, final = 
        -11144.4691924     -11147.2416026     -11147.2416176
  Force two-norm initial, final = 9.66896 15.1494
  Force max component initial, final = 3.50806 6.21814
  Final line search alpha, max atom move = 0.00386592 0.0240388
  Iterations, force evaluations = 94 532

MPI task timing breakdown:
Section |  min time  |  avg time  |  max time  |%varavg| %total
---------------------------------------------------------------
Pair    | 14.966     | 15.39      | 15.796     |   7.5 | 88.71
Neigh   | 0          | 0          | 0          |   0.0 |  0.00
Comm    | 0.12316    | 0.52813    | 0.95137    |  40.5 |  3.04
Output  | 0.00094206 | 0.0011311  | 0.0016685  |   0.7 |  0.01
Modify  | 1.4026     | 1.403      | 1.4046     |   0.1 |  8.09
Other   |            | 0.02569    |            |       |  0.15

Nlocal:    7.125 ave 11 max 3 min
Histogram: 2 0 2 0 0 0 0 1 1 2
Nghost:    1115.88 ave 1129 max 1102 min
Histogram: 2 0 2 0 0 0 0 2 0 2
Neighs:    1934.38 ave 2973 max 815 min
Histogram: 2 0 2 0 0 0 0 1 1 2

Total # of neighbors = 15475
Ave neighs/atom = 271.491
Neighbor list builds = 0
Dangerous builds = 0
WARNING: Using 'neigh_modify every 1 delay 0 check yes' setting during minimization (../min.cpp:190)
Setting up cg style minimization ...
  Unit style    : real
  Current step  : 2108
WARNING: Energy due to 3 extra global DOFs will be included in minimizer energies
Per MPI rank memory allocation (min/avg/max) = 28.35 | 28.54 | 28.73 Mbytes
Step Temp E_pair E_mol TotEng Press Volume 
    2108            0   -11147.242            0   -11147.242   -17639.102    1480.2536 
    2262            0   -11147.833            0   -11147.833   -337.47097    1478.9198 
Loop time of 8.63749 on 8 procs for 154 steps with 57 atoms

99.8% CPU use with 8 MPI tasks x no OpenMP threads

Minimization stats:
  Stopping criterion = energy tolerance
  Energy initial, next-to-last, final = 
        -11147.2416168     -11147.8327062     -11147.8327826
  Force two-norm initial, final = 705.408 18.352
  Force max component initial, final = 552.237 10.1384
  Final line search alpha, max atom move = 8.81376e-06 8.93572e-05
  Iterations, force evaluations = 154 273

MPI task timing breakdown:
Section |  min time  |  avg time  |  max time  |%varavg| %total
---------------------------------------------------------------
Pair    | 7.6412     | 7.9036     | 8.1385     |   5.7 | 91.50
Neigh   | 0          | 0          | 0          |   0.0 |  0.00
Comm    | 0.047193   | 0.2818     | 0.54353    |  30.4 |  3.26
Output  | 0.0015214  | 0.0018163  | 0.0026419  |   0.8 |  0.02
Modify  | 0.4151     | 0.41529    | 0.41617    |   0.1 |  4.81
Other   |            | 0.03499    |            |       |  0.41

Nlocal:    7.125 ave 11 max 3 min
Histogram: 2 0 2 0 0 0 0 1 1 2
Nghost:    1115.88 ave 1129 max 1102 min
Histogram: 2 0 2 0 0 0 0 2 0 2
Neighs:    1930.38 ave 2971 max 819 min
Histogram: 2 0 2 0 0 0 0 1 1 2

Total # of neighbors = 15443
Ave neighs/atom = 270.93
Neighbor list builds = 0
Dangerous builds = 0
WARNING: Using 'neigh_modify every 1 delay 0 check yes' setting during minimization (../min.cpp:190)
Setting up cg style minimization ...
  Unit style    : real
  Current step  : 2262
Per MPI rank memory allocation (min/avg/max) = 28.35 | 28.54 | 28.73 Mbytes
Step Temp E_pair E_mol TotEng Press 
    2262            0   -11147.833            0   -11147.833   -337.47329 
    2290            0   -11147.939            0   -11147.939   -8335.2917 
Loop time of 5.66092 on 8 procs for 28 steps with 57 atoms

99.8% CPU use with 8 MPI tasks x no OpenMP threads

Minimization stats:
  Stopping criterion = energy tolerance
  Energy initial, next-to-last, final = 
        -11147.8327829     -11147.9384711     -11147.9385312
  Force two-norm initial, final = 11.5606 26.8296
  Force max component initial, final = 4.24421 10.8126
  Final line search alpha, max atom move = 0.00123164 0.0133172
  Iterations, force evaluations = 28 173

MPI task timing breakdown:
Section |  min time  |  avg time  |  max time  |%varavg| %total
---------------------------------------------------------------
Pair    | 4.869      | 5.0227     | 5.1649     |   4.6 | 88.73
Neigh   | 0          | 0          | 0          |   0.0 |  0.00
Comm    | 0.033376   | 0.17524    | 0.32878    |  24.4 |  3.10
Output  | 0.00018919 | 0.00023423 | 0.0003119  |   0.0 |  0.00
Modify  | 0.45452    | 0.4547     | 0.45532    |   0.0 |  8.03
Other   |            | 0.008085   |            |       |  0.14

Nlocal:    7.125 ave 11 max 3 min
Histogram: 2 0 2 0 0 0 0 1 1 2
Nghost:    1115.88 ave 1129 max 1102 min
Histogram: 2 0 2 0 0 0 0 2 0 2
Neighs:    1931.88 ave 2974 max 817 min
Histogram: 2 0 2 0 0 0 0 1 1 2

Total # of neighbors = 15455
Ave neighs/atom = 271.14
Neighbor list builds = 0
Dangerous builds = 0
Setting up Verlet run ...
  Unit style    : real
  Current step  : 0
  Time step     : 0.25
Per MPI rank memory allocation (min/avg/max) = 27.23 | 27.42 | 27.61 Mbytes
Step Temp TotEng KinEng PotEng Press 
       0          300   -11097.861    50.077609   -11147.939   -6787.4316 
     200     160.1305   -11077.832    26.729842   -11104.562   -28852.423 
     400    343.14652   -11046.275    57.279857   -11103.555   -21248.047 
     600    292.96672   -11034.464    48.903577   -11083.367    49103.591 
     800    374.88145   -11032.788    62.577222   -11095.365    3475.1718 
    1000    225.45527    -11051.66    37.634203   -11089.294   -18570.215 
    1200    364.19379   -11037.925    60.793181   -11098.718   -39298.749 
    1400    265.74594    -11055.83    44.359737   -11100.189   -12855.912 
    1600    351.93129   -11043.729    58.746258   -11102.475   -27499.717 
    1800    226.28069   -11053.098    37.771987    -11090.87     2067.357 
    2000    305.96742   -11053.996    51.073723    -11105.07   -29002.646 
    2200     308.8084   -11038.247    51.547955   -11089.795   -5767.7039 
    2400    320.86362   -11050.256    53.560277   -11103.816    30267.949 
    2600    292.72901   -11054.632    48.863896   -11103.496    24743.058 
    2800    364.39969   -11042.736     60.82755   -11103.564   -8224.6526 
    3000    293.62865   -11053.098    49.014069   -11102.112    34574.313 
    3200    291.75513   -11053.043    48.701332   -11101.744   -43392.712 
    3400    295.17239   -11046.904    49.271758   -11096.176   -12407.614 
    3600    353.75152   -11034.393    59.050101   -11093.443    -5078.496 
    3800    261.30089   -11049.149    43.617746   -11092.766   -14660.043 
    4000    299.58333   -11047.379    50.008056   -11097.387   -23104.553 
    4200    319.07109   -11042.949    53.261057    -11096.21   -50410.135 
    4400    323.09803   -11046.536    53.933256    -11100.47    4913.5959 
    4600    249.03941    -11056.88    41.570994   -11098.451   -1361.2818 
    4800    379.09946   -11042.194    63.281315   -11105.475    -44336.75 
    5000    259.99999   -11045.406    43.400592   -11088.806    29270.558 
    5200    349.98656   -11042.942    58.421634   -11101.364    10008.594 
    5400    257.68318    -11053.07    43.013859   -11096.084   -16914.398 
    5600    349.70632   -11036.259    58.374854   -11094.633    6310.7387 
    5800    263.06113   -11053.149    43.911575    -11097.06    29380.238 
    6000    287.95578    -11043.18    48.067124   -11091.247   -42159.998 
    6200     281.2326   -11050.959    46.944855   -11097.904   -77219.912 
    6400    352.83172   -11047.033    58.896562   -11105.929    33085.807 
    6600    270.68239    -11033.62    45.183757   -11078.804   -16656.709 
    6800     337.9299   -11035.828    56.409071   -11092.237   -15095.853 
    7000    317.38426   -11043.868    52.979482   -11096.847   -1407.9262 
    7200    337.52621   -11046.394    56.341685   -11102.735   -29500.142 
    7400    270.52262   -11058.546    45.157087   -11103.703    3419.7076 
    7600    323.03085   -11043.426    53.922042   -11097.348    80612.324 
    7800     339.0586   -11048.015     56.59748   -11104.613    27189.337 
    8000    350.49918   -11029.894    58.507202   -11088.402    17428.254 
    8200    305.64207   -11040.272    51.019414   -11091.291   -21078.162 
    8400    305.51969   -11051.204    50.998985   -11102.203   -15869.297 
    8600    262.34285   -11054.706    43.791675   -11098.498   -11927.935 
    8800    279.61205   -11039.598    46.674343   -11086.272    26092.234 
    9000    272.73094   -11050.227    45.525711   -11095.753    910.66958 
    9200     355.3574   -11031.491    59.318163   -11090.809    63341.401 
    9400    301.72763    -11043.63    50.365995   -11093.996    63567.288 
    9600    296.53889   -11053.568    49.499862   -11103.068    -38218.71 
    9800     351.7833   -11038.656    58.721555   -11097.378    9934.1267 
   10000    311.87812    -11042.73    52.060368   -11094.791    11784.922 
   10200    289.21362   -11050.771    48.277088   -11099.048    39078.486 
   10400     255.0948   -11055.631    42.581792   -11098.213    2964.9553 
   10600    332.17395   -11036.956    55.448258   -11092.404   -18545.589 
   10800    289.89624   -11046.955    48.391036   -11095.346    13409.656 
   11000    330.57721   -11045.439    55.181721   -11100.621   -68631.925 
   11200    362.97504   -11021.684     60.58974   -11082.274   -28759.014 
   11400    298.05943   -11044.814    49.753678   -11094.567   -26569.783 
   11600    230.92409   -11055.655    38.547087   -11094.202   -15655.278 
   11800    294.04356   -11052.183    49.083327   -11101.266    54812.612 
   12000    295.82067   -11043.282    49.379972   -11092.662     38178.07 
   12200    286.39613   -11045.948    47.806778   -11093.755   -52513.166 
   12400    301.15934   -11032.468    50.271133    -11082.74   -27883.675 
   12600    312.36727   -11046.063     52.14202   -11098.205   -9669.7261 
   12800    309.26653   -11043.243    51.624428   -11094.868   -65965.159 
   13000    211.72878   -11066.131    35.342903   -11101.474   -11352.186 
   13200    244.83594   -11054.746    40.869328   -11095.616   -28820.761 
   13400    346.77845   -11041.164    57.886119    -11099.05    21140.261 
   13600    301.91204   -11048.602    50.396777   -11098.999   -5138.1874 
   13800    267.85998   -11054.726    44.712624   -11099.439    36322.195 
   14000    331.59829   -11043.395    55.352164   -11098.747   -9068.9487 
   14200    359.46809   -11038.067    60.004341   -11098.071   -7205.8065 
   14400    340.90503   -11029.515    56.905696   -11086.421    33694.517 
   14600    322.13849   -11049.331    53.773085   -11103.104    28725.281 
   14800    274.97422   -11044.474    45.900172   -11090.374   -18375.931 
   15000    318.35877   -11028.399    53.142153   -11081.541   -56599.867 
   15200    267.25243   -11052.451    44.611209   -11097.062   -34012.229 
   15400    328.41182   -11039.778    54.820262   -11094.598   -44096.947 
   15600    288.65216    -11045.56    48.183367   -11093.744   -9729.3403 
   15800    241.48019   -11063.133    40.309169   -11103.442   -37482.126 
   16000     346.5364   -11046.402    57.845714   -11104.247    32337.762 
   16200     294.5656   -11041.617     49.17047   -11090.788    21172.653 
   16400    248.37255   -11048.243    41.459678   -11089.703    12689.902 
   16600     283.7422   -11054.471    47.363769   -11101.835    15016.265 
   16800    324.81356    -11035.29    54.219621   -11089.509    34710.081 
   17000    310.36847   -11033.819    51.808369   -11085.628   -8103.2808 
   17200    287.12319   -11049.381    47.928143   -11097.309    47413.287 
   17400    315.38147    -11046.77    52.645167   -11099.415    16520.597 
   17600    257.20361   -11049.973    42.933805   -11092.907    60024.627 
   17800    286.10016    -11053.88    47.757373   -11101.637    40435.733 
   18000     330.8705   -11042.379    55.230678   -11097.609   -31037.695 
   18200    241.47146     -11050.5    40.307712   -11090.808    30688.622 
   18400    250.47041   -11065.513    41.809865   -11107.323   -16827.064 
   18600    300.01153   -11047.885    50.079533   -11097.965   -23220.806 
   18800    278.85116   -11051.567    46.547332   -11098.114   -18917.044 
   19000    265.09736   -11057.492    44.251473   -11101.744    68220.064 
   19200     340.0479   -11039.358     56.76262   -11096.121    67701.334 
   19400    273.28792   -11054.045    45.618685   -11099.663    76651.562 
   19600    325.64613   -11038.547    54.358598   -11092.906   -37995.572 
   19800    331.47659   -11037.128     55.33185    -11092.46    23854.272 
   20000    283.10834   -11055.036    47.257962   -11102.294    -5135.263 
   20200    291.80905   -11047.332    48.710331   -11096.042     17168.56 
   20400    335.04026   -11046.198    55.926717   -11102.125    15328.295 
   20600    261.33344   -11052.729     43.62318   -11096.352    67295.899 
   20800    363.17537   -11033.429    60.623181   -11094.052   -11236.399 
   21000    259.64347   -11052.802     43.34108   -11096.143    17471.132 
   21200    340.83935   -11042.514    56.894733   -11099.408   -24343.275 
   21400    270.84101   -11039.541    45.210234   -11084.751   -10074.911 
   21600    300.46096   -11049.702    50.154554   -11099.856   -65409.462 
   21800    274.42358   -11052.023    45.808256   -11097.831   -16407.948 
   22000    352.10731   -11041.459     58.77564   -11100.234   -26953.586 
   22200    272.97433   -11048.061     45.56634   -11093.627    18993.002 
   22400    349.44206   -11036.152    58.330742   -11094.482    46724.694 
   22600    325.36861   -11034.937    54.312274   -11089.249   -46804.465 
   22800    313.08695   -11047.826    52.262152   -11100.088    22450.765 
   23000    295.79202    -11043.39    49.375191   -11092.765    42466.128 
   23200    396.97074   -11031.234    66.264485   -11097.498    35606.333 
   23400    239.78727   -11049.825    40.026577   -11089.852   -32228.895 
   23600    330.19233   -11039.582    55.117475     -11094.7   -26117.386 
   23800    233.04601    -11054.87    38.901289   -11093.771    -40979.36 
   24000    295.08501   -11048.235    49.257172   -11097.492   -7575.3124 
   24200    285.94383   -11038.695    47.731277   -11086.426    8244.4943 
   24400    335.71498   -11049.782    56.039344   -11105.821    15213.669 
   24600    262.91248   -11054.779     43.88676   -11098.665   -23368.264 
   24800     297.6102   -11044.748     49.67869   -11094.427   -36860.197 
   25000    289.21965    -11064.55    48.278094   -11112.828      1357.76 
   25200    328.36663   -11055.747    54.812719    -11110.56   -48962.228 
   25400    306.82968   -11043.887    51.217656   -11095.105   -17631.615 
   25600     343.0106   -11043.958    57.257169   -11101.215    -2044.744 
   25800    226.93086   -11056.451    37.880517   -11094.331   -87820.492 
   26000    332.15911   -11043.874    55.445781    -11099.32    26824.688 
   26200    244.44988   -11061.401    40.804885   -11102.205    37561.754 
   26400     305.6628   -11054.647    51.022874    -11105.67   -19277.218 
   26600    357.80847   -11043.874    59.727308   -11103.601   -20098.025 
   26800    318.84963   -11047.856     53.22409    -11101.08     -341.334 
   27000    233.53591     -11054.8    38.983066   -11093.783    134.71521 
   27200     331.2797   -11041.779    55.298984   -11097.078    359.65232 
   27400    267.15912    -11056.25    44.595633   -11100.846   -1414.3234 
   27600    322.09615   -11051.291    53.766017   -11105.057    2039.1243 
   27800    316.33693   -11036.294    52.804657   -11089.098    3752.0277 
   28000    343.04982   -11042.449    57.263715   -11099.713   -18318.723 
   28200    306.50166   -11049.784    51.162901   -11100.947    64576.079 
   28400    302.22083   -11036.858    50.448322   -11087.306    -21060.48 
   28600    294.04498   -11055.298    49.083565   -11104.381   -26273.042 
   28800    264.20935   -11053.705    44.103241   -11097.808   -33319.788 
   29000    309.71658   -11033.758    51.699553   -11085.458    102850.41 
   29200    300.84023   -11048.167    50.217865   -11098.385   -23989.539 
   29400    261.03504   -11050.034    43.573368   -11093.607   -34252.136 
   29600    332.87696    -11030.94    55.565608   -11086.506    42354.943 
   29800    360.07288   -11044.726    60.105296   -11104.831    67538.716 
   30000    296.75146   -11050.606    49.535345   -11100.141   -27202.272 
   30200    341.38683   -11041.365    56.986121   -11098.351    31468.073 
   30400    239.21854    -11053.26    39.931641   -11093.191     34975.86 
   30600    333.36436   -11052.617    55.646967   -11108.264   -6361.6687 
   30800    307.94264   -11048.101    51.403437   -11099.504    79435.303 
   31000    345.91572   -11038.243    57.742107   -11095.985    30040.144 
   31200    252.46908   -11047.006    42.143492    -11089.15   -4356.2925 
   31400     267.0578   -11047.731     44.57872    -11092.31    32943.874 
   31600    277.06743   -11044.676    46.249581   -11090.926   -16942.752 
   31800    272.05879     -11056.7    45.413512   -11102.114    60595.028 
   32000    307.73966   -11041.894    51.369555   -11093.264    18528.514 
   32200    329.94778   -11044.102    55.076653   -11099.179   -9336.7307 
   32400    296.68608   -11052.575    49.524432   -11102.099   -14154.926 
   32600    321.63541   -11048.862    53.689107   -11102.551   -35847.304 
   32800    276.51513   -11039.995    46.157388   -11086.152    177.71592 
   33000    290.77191   -11046.679    48.537207   -11095.216    36303.823 
   33200    277.75147   -11048.709    46.363766   -11095.073   -9107.1767 
   33400    318.17319   -11043.767    53.111175   -11096.878   -31601.795 
   33600    320.17127   -11044.113    53.444705   -11097.557    4934.1559 
   33800    278.18355   -11052.798     46.43589   -11099.234   -27509.572 
   34000     340.4079    -11035.58    56.822713   -11092.403   -8387.7569 
   34200    375.56961    -11022.66    62.692093   -11085.352    13222.543 
   34400    301.47153   -11046.468    50.323245   -11096.791   -1508.7185 
   34600    297.50611   -11047.661    49.661315   -11097.322     9644.653 
   34800    333.26726   -11037.594    55.630759   -11093.225   -37880.393 
   35000    274.66994   -11051.214     45.84938   -11097.063    4808.2958 
   35200    318.02844   -11045.093    53.087012    -11098.18    30721.067 
   35400    258.34286   -11059.431    43.123975   -11102.555    606.77771 
   35600    313.66178   -11041.981    52.358107    -11094.34    24261.516 
   35800    245.19128   -11042.103    40.928644   -11083.032   -13611.162 
   36000    315.79138   -11047.672     52.71359   -11100.386   -3608.5387 
   36200    279.02173    -11055.06    46.575803   -11101.636    48711.681 
   36400    323.41014   -11041.863    53.985355   -11095.848   -17193.285 
   36600    257.97223   -11056.484    43.062109   -11099.546    3433.8243 
   36800    299.08949   -11059.141    49.925622   -11109.067     70405.05 
   37000    294.61168   -11045.432    49.178161   -11094.611    43835.778 
   37200    318.26288    -11048.02    53.126146   -11101.146   -38590.663 
   37400    239.89164   -11066.037       40.044   -11106.081    4238.8291 
   37600    289.27244    -11047.75    48.286907   -11096.037    37707.809 
   37800    266.72936   -11047.308    44.523896   -11091.832   -20534.002 
   38000    358.79062   -11033.272    59.891254   -11093.164   -12800.243 
   38200     281.4457    -11052.45    46.980425    -11099.43    11993.781 
   38400    299.17105   -11049.793    49.939236   -11099.732   -36608.409 
   38600    323.08081   -11028.577    53.930382   -11082.507    12472.422 
   38800    326.35538   -11042.679     54.47699   -11097.156   -21104.109 
   39000    288.02332   -11050.629    48.078398   -11098.707   -58807.638 
   39200    376.34469   -11033.124    62.821474   -11095.946   -23526.518 
   39400    308.03398   -11038.933    51.418684   -11090.352   -16050.549 
   39600    319.60519   -11053.395    53.350213   -11106.745   -18816.135 
   39800    253.07268   -11050.699    42.244249   -11092.943   -41667.199 
   40000     318.8072   -11041.705    53.217008   -11094.922    34764.123 
   40200    282.30956   -11049.017    47.124626   -11096.141    93145.356 
   40400    316.41093   -11035.185    52.817009   -11088.002    34031.712 
   40600    314.40189   -11043.027     52.48165   -11095.509   -25626.844 
   40800    266.88969   -11058.947    44.550658   -11103.497     42331.71 
   41000    313.79858   -11046.256    52.380943   -11098.637   -857.59167 
   41200    353.03102    -11044.73    58.929831    -11103.66   -28469.001 
   41400    335.97039   -11042.808    56.081979    -11098.89   -17371.136 
   41600    314.13462   -11042.922    52.437036   -11095.359    59725.144 
   41800    288.99954   -11054.609    48.241354    -11102.85    31849.771 
   42000    383.46198   -11033.123     64.00953   -11097.133   -51470.619 
   42200    328.66245   -11040.209    54.862099   -11095.071    255.29131 
   42400    300.17403   -11051.919    50.106658   -11102.025   -23366.069 
   42600    287.01788   -11043.988    47.910563   -11091.899    7687.1358 
   42800    349.94747   -11036.631    58.415108   -11095.046    6503.6638 
   43000    288.39208   -11042.879    48.139952   -11091.019   -14618.975 
   43200    306.32973   -11053.301    51.134201   -11104.435   -32073.578 
   43400    273.40881   -11050.649    45.638865   -11096.287   -31215.258 
   43600    340.06533   -11044.318    56.765529   -11101.084    20294.408 
   43800    320.10659   -11039.622    53.433909   -11093.056   -43238.048 
   44000    268.95766   -11050.465    44.895855   -11095.361   -24082.709 
   44200    284.12321    -11044.58     47.42737   -11092.007   -17810.997 
   44400    293.63888   -11049.967    49.015776   -11098.983   -13036.703 
   44600    316.02701   -11046.695    52.752923   -11099.447   -22793.905 
   44800     271.1501   -11049.793    45.261829   -11095.055   -26523.988 
   45000    341.08872   -11037.413    56.936358   -11094.349    80210.783 
   45200    226.33498   -11048.695    37.781049   -11086.476   -55279.404 
   45400    294.95633   -11050.743    49.235692   -11099.978   -11324.294 
   45600    284.01102   -11046.414    47.408642   -11093.823   -50217.523 
   45800    320.68602   -11029.974    53.530631   -11083.505    6924.0044 
   46000    345.83376   -11045.685    57.728426   -11103.414     7737.674 
   46200      329.029   -11050.039    54.923285   -11104.962   -35871.417 
   46400    281.26254   -11053.861    46.949851    -11100.81    38791.433 
   46600    317.16732   -11044.603     52.94327   -11097.546    -2957.735 
   46800     308.1502   -11043.263    51.438083   -11094.701    60445.819 
   47000    300.63659   -11049.317    50.183871   -11099.501   -4731.5117 
   47200    289.62295   -11044.926    48.345417   -11093.271    16840.237 
   47400    346.02371   -11024.323    57.760133   -11082.083   -20118.961 
   47600    285.39871    -11043.04    47.640283    -11090.68    41933.626 
   47800    273.49714   -11047.315     45.65361   -11092.968    58113.044 
   48000    309.47682   -11040.686     51.65953   -11092.345     30976.43 
   48200     270.6386    -11056.49    45.176446   -11101.666    63946.524 
   48400    259.44543   -11047.562    43.308022    -11090.87   -2810.6494 
   48600    309.31008   -11042.977    51.631698   -11094.609   -33027.736 
   48800    279.63172   -11052.588    46.677627   -11099.265    55699.241 
   49000    276.56039   -11042.745    46.164943    -11088.91   -32617.052 
   49200    307.67237   -11041.277    51.358322   -11092.635   -68408.816 
   49400    301.51755   -11048.174    50.330926   -11098.505    20119.119 
   49600    302.43904   -11046.894    50.484746   -11097.379   -40388.491 
   49800    275.98888   -11045.877    46.069544   -11091.946    5296.3796 
   50000    274.76741   -11039.033    45.865649   -11084.899    55950.089 
   50200    296.72742   -11054.012    49.531332   -11103.544    23529.481 
   50400    322.97673   -11047.747    53.913008    -11101.66    2268.5306 
   50600    360.17742   -11028.682    60.122747   -11088.804   -5132.2019 
   50800    304.18431   -11044.211    50.776076   -11094.987   -63248.423 
   51000     277.8873   -11049.564    46.386439    -11095.95    18305.646 
   51200    319.82123   -11034.113    53.386274   -11087.499    13792.746 
   51400    312.27228   -11044.352    52.126163   -11096.478   -34408.478 
   51600    252.49807   -11053.822    42.148332    -11095.97    19441.379 
   51800    322.76636   -11043.722    53.877891     -11097.6    3401.7881 
   52000    316.75318    -11038.87    52.874139   -11091.744   -25255.826 
   52200    271.19985   -11055.946    45.270134   -11101.216    7473.4481 
   52400    281.36277   -11048.643    46.966583    -11095.61   -16675.965 
   52600    332.60755   -11036.758    55.520636   -11092.279    34636.012 
   52800    307.54231     -11042.1    51.336611   -11093.437   -45298.507 
   53000    319.47697   -11050.791    53.328809    -11104.12    4198.1942 
   53200    229.98464   -11062.835     38.39027   -11101.225    23115.402 
   53400    305.04076   -11042.469    50.919039   -11093.388   -57867.904 
   53600     257.2576   -11052.038    42.942818   -11094.981   -46449.922 
   53800    309.66942   -11052.311     51.69168   -11104.003   -34401.913 
   54000    303.88445   -11035.944    50.726022    -11086.67   -10287.965 
   54200    312.66474   -11043.843    52.191675   -11096.034     52748.11 
   54400    301.48773   -11056.756    50.325948   -11107.082    28030.902 
   54600    319.62064   -11039.727    53.352792    -11093.08    14153.105 
   54800    300.60636   -11036.257    50.178826   -11086.436   -18524.218 
   55000    269.45337   -11050.859    44.978602   -11095.837    38401.861 
   55200    327.50609   -11054.084    54.669073   -11108.753   -3051.0211 
   55400    319.73698    -11041.93    53.372212   -11095.303    26516.678 
   55600    315.14658   -11042.167    52.605958   -11094.773    9344.8558 
   55800    314.31542   -11053.343    52.467215   -11105.811     17155.05 
   56000    252.63598   -11060.704    42.171353   -11102.875    26579.469 
   56200    333.22047   -11038.579    55.622949   -11094.202   -9455.8763 
   56400    332.39425   -11046.615     55.48503     -11102.1   -7905.4241 
   56600     270.9755   -11054.013    45.232683   -11099.246   -19732.276 
   56800    355.48936   -11034.286     59.34019   -11093.626    8235.5654 
   57000    314.52942   -11043.616    52.502938   -11096.119        16293 
   57200    263.68584   -11056.174    44.015854    -11100.19   -23848.141 
   57400    305.90321   -11039.507    51.063004    -11090.57   -2915.7648 
   57600    303.46847   -11045.456    50.656584   -11096.112   -12197.639 
   57800    274.02232   -11048.558    45.741275     -11094.3    25784.169 
   58000    286.82233   -11047.267    47.877922   -11095.145    32678.728 
   58200    349.35392   -11027.281     58.31603   -11085.597   -246.76693 
   58400    317.66926   -11049.039    53.027057   -11102.066    4744.2651 
   58600    305.79246    -11046.45    51.044518   -11097.494    18013.724 
   58800    311.72801   -11037.173    52.035311   -11089.208   -35677.449 
   59000    268.98783   -11056.247    44.900891   -11101.148   -29026.186 
   59200    284.07679   -11048.111    47.419621    -11095.53   -46510.368 
   59400     315.3444   -11037.692    52.638978   -11090.331   -11313.112 
   59600    293.04852   -11052.347    48.917231   -11101.264    15432.552 
   59800    275.57916   -11048.082    46.001152   -11094.083    14941.365 
   60000    316.51107   -11039.916    52.833726   -11092.749    26107.997 
   60200     267.8862   -11046.521    44.717001   -11091.238   -78008.729 
   60400    344.75703   -11036.281    57.548692    -11093.83   -11563.708 
   60600    278.95513   -11051.091    46.564686   -11097.656    54834.159 
   60800    258.54588   -11054.074    43.157865   -11097.232   -2675.9059 
   61000    347.28628   -11038.418    57.970888   -11096.389   -28122.688 
   61200     292.4957   -11044.255     48.82495    -11093.08    18360.644 
   61400    292.02799   -11050.235    48.746879   -11098.982   -6413.1269 
   61600    321.04739    -11041.18    53.590952    -11094.77   -8994.0444 
   61800    352.61816   -11038.363    58.860914   -11097.224   -22587.467 
   62000     273.6997   -11047.241    45.687421   -11092.928   -48282.215 
   62200    314.88672    -11043.85     52.56258   -11096.413   -46691.678 
   62400    366.55082    -11034.06    61.186629   -11095.247    4520.5971 
   62600    282.24497   -11052.596    47.113843    -11099.71    -26520.04 
   62800    331.31117   -11039.442    55.304237   -11094.746    14254.559 
   63000    268.48642   -11045.035    44.817194   -11089.852    13597.631 
   63200    331.83555   -11044.833     55.39177   -11100.225   -2275.5498 
   63400    282.20954   -11049.713    47.107929   -11096.821     27456.99 
   63600    383.23802   -11036.449    63.972146   -11100.421    14119.576 
   63800    239.44224   -11051.752    39.968983   -11091.721    76605.452 
   64000    267.45502   -11054.263    44.645025   -11098.908   -12217.153 
   64200    256.53792   -11046.965    42.822685   -11089.787   -30276.086 
   64400    371.81573   -11038.809    62.065476   -11100.874    31777.633 
   64600    227.44172   -11050.658    37.965792   -11088.624   -19012.043 
   64800    337.71392   -11046.051    56.373019   -11102.424    6934.7739 
   65000    280.95521    -11044.35    46.898551   -11091.249   -49270.409 
   65200    365.93478   -11028.982    61.083797   -11090.066   -32904.409 
   65400    260.57952   -11044.196    43.497331   -11087.694   -41078.626 
   65600    247.80139   -11054.637    41.364337   -11096.002     40713.18 
   65800     266.0463   -11058.714    44.409875   -11103.124    18750.261 
   66000    305.53506   -11038.065    51.001551   -11089.066    -36676.15 
   66200    308.46448   -11038.088    51.490546   -11089.579   -40307.909 
   66400    284.58469   -11054.146    47.504403   -11101.651   -36857.749 
   66600    345.15159   -11042.341    57.614554   -11099.955   -17482.459 
   66800     320.6692   -11053.776    53.527823   -11107.303   -25781.654 
   67000    257.89562   -11058.446    43.049319   -11101.495    28298.296 
   67200    291.54129   -11044.033    48.665636   -11092.699   -7372.1976 
   67400    334.24966   -11043.043    55.794746   -11098.837    31576.432 
   67600    250.53242   -11057.268    41.820215   -11099.089   -39536.443 
   67800    334.41119   -11039.648     55.82171    -11095.47    41099.294 
   68000    333.63138   -11041.896    55.691539   -11097.588   -22898.729 
   68200    272.64644   -11053.425    45.511606   -11098.937   -22303.144 
   68400    261.30857   -11070.866    43.619027   -11114.485   -28600.752 
   68600    238.84896   -11055.423     39.86995   -11095.293   -28432.699 
   68800     305.0273   -11040.439    50.916792   -11091.356    7675.6908 
   69000    294.28994   -11045.772    49.124456   -11094.897    37113.158 
   69200    274.03412   -11056.921    45.743245   -11102.664   -15552.087 
   69400     326.2527   -11046.247    54.459851   -11100.707     21918.38 
   69600    338.39454   -11046.178    56.486631   -11102.665    51901.868 
   69800    269.90533    -11055.19    45.054045   -11100.244    9628.5152 
   70000    274.04395   -11053.739    45.744886   -11099.484   -37098.033 
   70200    312.95633   -11036.034    52.240349   -11088.275    11434.647 
   70400    273.72026   -11051.958    45.690854   -11097.649    44450.746 
   70600     298.2248   -11047.096    49.781283   -11096.877    1251.2252 
   70800    300.82279   -11040.222    50.214953   -11090.437   -66779.805 
   71000    339.92496   -11025.725    56.742097   -11082.467    24878.067 
   71200    277.80245   -11045.085    46.372275   -11091.457    30418.451 
   71400    223.51572   -11057.264    37.310443   -11094.574     21730.08 
   71600    307.04199   -11040.543    51.253096   -11091.796   -20513.032 
   71800    318.06692   -11048.006    53.093436   -11101.099    10627.757 
   72000    307.61588   -11048.137    51.348892   -11099.486   -23204.457 
   72200    317.97681   -11035.666    53.078394   -11088.744    3750.5906 
   72400    291.97467   -11056.293    48.737977   -11105.031   -29158.924 
   72600    351.14716   -11043.459    58.615367   -11102.075   -62458.381 
   72800    333.05951   -11040.622    55.596079   -11096.219   -21274.841 
   73000    276.33689   -11058.662    46.127636    -11104.79    12675.673 
   73200    369.64336   -11041.127    61.702851    -11102.83    -4969.179 
   73400    307.95085   -11044.117    51.404807   -11095.521   -21666.175 
   73600    285.68321   -11059.524    47.687773   -11107.212   -34144.506 
   73800    270.54157   -11042.948     45.16025   -11088.108   -12974.124 
   74000    279.66496   -11045.759    46.683176   -11092.442    12411.805 
   74200    253.11589   -11064.375    42.251461   -11106.627   -33623.922 
   74400    258.53974   -11056.838     43.15684   -11099.994   -2467.6574 
   74600     340.1826   -11044.023    56.785104   -11100.808    45790.966 
   74800    329.16733   -11043.174    54.946375    -11098.12   -26425.647 
   75000    282.72031   -11056.307     47.19319     -11103.5    26731.109 
   75200     298.6342   -11043.751    49.849622   -11093.601    30093.887 
   75400    282.01228   -11054.658    47.075003   -11101.733    29776.076 
   75600    279.88559   -11061.686    46.720003   -11108.406   -19342.195 
   75800    305.55039   -11044.101     51.00411   -11095.105   -23516.843 
   76000     381.8756   -11036.819    63.744722   -11100.564   -28841.312 
   76200    260.55827   -11055.648    43.493784   -11099.141   -44722.499 
   76400    349.01166   -11042.435    58.258899   -11100.694    1455.4166 
   76600    262.55911   -11053.839    43.827775   -11097.667   -29649.812 
   76800    318.63645   -11058.292    53.188505    -11111.48    2752.0824 
   77000    307.90484   -11039.591    51.397126   -11090.988   -7814.5981 
   77200     310.1298   -11042.263    51.768529   -11094.032   -21392.096 
   77400    274.89501   -11059.836     45.88695   -11105.723    18235.298 
   77600    363.44358   -11042.986    60.667952   -11103.654   -29505.441 
   77800     277.8137   -11048.878    46.374153   -11095.252   -8526.7388 
   78000    268.09617   -11062.952     44.75205   -11107.704   -47155.013 
   78200    269.40931   -11053.153    44.971247   -11098.124   -15669.683 
   78400    332.71313   -11041.341     55.53826   -11096.879     40689.07 
   78600    241.30104   -11055.755    40.279264   -11096.034    5202.7235 
   78800    288.39057   -11052.364      48.1397   -11100.504   -17100.304 
   79000    245.77979   -11048.883     41.02688   -11089.909    2773.0563 
   79200    319.85515   -11037.032    53.391937   -11090.424   -33902.359 
   79400    292.29761   -11039.813    48.791884   -11088.605   -12398.518 
   79600    318.07065   -11047.064    53.094058   -11100.158   -10104.918 
   79800    229.61326   -11054.473    38.328277   -11092.801   -33970.787 
   80000    327.41444   -11037.848    54.653775   -11092.501    16746.768 
   80200    228.57362   -11052.926    38.154734    -11091.08   -6203.6494 
   80400    314.29459   -11042.417    52.463739   -11094.881   -17051.137 
   80600    279.38032   -11048.556     46.63566   -11095.192    5548.3326 
   80800    303.52642   -11045.082    50.666258   -11095.749   -43924.115 
   81000    276.22614   -11046.795    46.109149   -11092.904    2956.3962 
   81200    259.83322   -11055.945    43.372754   -11099.318    3728.4551 
   81400     296.4911   -11040.735    49.491885   -11090.227    29485.795 
   81600    310.25537   -11038.192     51.78949   -11089.981   -62052.276 
   81800    249.19351   -11057.739    41.596718   -11099.335    13411.701 
   82000    290.66236   -11056.389     48.51892   -11104.908    -15240.69 
   82200     351.7358   -11042.792    58.713626   -11101.505     31648.04 
   82400     327.3006   -11044.081    54.634771   -11098.716    6933.1919 
   82600    255.33904   -11049.638    42.622561   -11092.261    4499.9105 
   82800    319.36374   -11049.769    53.309909   -11103.079    5037.4433 
   83000    319.04287   -11033.255    53.256347   -11086.512   -19190.871 
   83200    318.42968   -11042.787    53.153991   -11095.941    15024.295 
   83400    273.43513   -11055.649    45.643257   -11101.292   -14460.438 
   83600    393.39206   -11037.999    65.667113   -11103.666   -9619.6749 
   83800    296.96899   -11048.531    49.571657   -11098.103    1132.0881 
   84000    323.76528   -11041.301    54.044636   -11095.346    41694.834 
   84200    292.34223   -11045.021    48.799332   -11093.821    9277.1706 
   84400    325.19217   -11050.489     54.28282   -11104.772    2842.5037 
   84600    305.07345   -11040.165    50.924497   -11091.089   -11760.252 
   84800    351.91133   -11038.725    58.742926   -11097.468   -46442.689 
   85000    278.68923   -11050.517    46.520301   -11097.037   -4788.3514 
   85200    343.32765    -11040.34    57.310093    -11097.65    16511.754 
   85400    312.92798   -11034.156    52.235616   -11086.392    22690.126 
   85600    256.04267   -11045.568    42.740016   -11088.308   -3169.7362 
   85800    302.06248   -11051.406    50.421889   -11101.828    39220.422 
   86000    223.35525   -11064.242    37.283656   -11101.526   -15231.729 
   86200    266.79843   -11045.528    44.535424   -11090.063    11067.599 
   86400    324.24769   -11043.394    54.125164   -11097.519    21841.329 
   86600    245.25095   -11059.407    40.938604   -11100.345    25225.067 
   86800    314.00412    -11045.89    52.415251   -11098.305     13146.71 
   87000     262.4337   -11049.236     43.80684   -11093.043    905.36857 
   87200    292.80577   -11042.099     48.87671   -11090.976   -34642.515 
   87400    287.14948   -11052.305    47.932532   -11100.238    22303.454 
   87600    349.62835   -11050.449     58.36184   -11108.811     3887.287 
   87800    294.01054     -11038.4    49.077816   -11087.477    11713.598 
   88000     326.8319   -11030.713    54.556534    -11085.27    39516.176 
   88200     275.1706   -11048.263    45.932953   -11094.196   -54242.566 
   88400    338.18151   -11039.549    56.451071       -11096    18266.993 
   88600    264.58602   -11042.624    44.166118    -11086.79    9910.0413 
   88800    312.08621   -11052.844    52.095103   -11104.939   -11622.262 
   89000    331.14209    -11031.98    55.276013   -11087.256   -15632.455 
   89200    339.72662   -11035.433     56.70899   -11092.142   -59237.121 
   89400    263.24648   -11048.959    43.942514   -11092.901   -14041.346 
   89600    289.54499   -11039.594    48.332402   -11087.926    6001.5065 
   89800    330.92242   -11042.467    55.239345   -11097.706    42560.981 
   90000    283.92884   -11055.137    47.394924   -11102.532   -37806.514 
   90200    351.94997   -11040.743    58.749376   -11099.492    33333.483 
   90400       329.63   -11032.926    55.023608    -11087.95   -4839.0184 
   90600    279.85946   -11049.886    46.715643   -11096.602    69060.677 
   90800     322.4944   -11040.104    53.832494   -11093.936   -28996.269 
   91000    270.27752   -11051.509    45.116172   -11096.625    32515.553 
   91200    280.93351   -11052.434    46.894928   -11099.329    40393.957 
   91400    348.97358   -11033.774    58.252541   -11092.026    33496.727 
   91600      325.591   -11036.449    54.349395   -11090.799    -40976.17 
   91800    274.69855   -11051.756    45.854155    -11097.61   -49313.039 
   92000    312.34608    -11042.72    52.138483   -11094.858    48607.383 
   92200    302.56751   -11039.695    50.506192   -11090.202    25732.749 
   92400    302.41976   -11052.663    50.481527   -11103.144    76422.219 
   92600    300.64407   -11037.798    50.185121   -11087.983    5335.2013 
   92800    336.87904   -11044.657    56.233655   -11100.891    17116.333 
   93000     302.0451   -11054.771    50.418988    -11105.19    94747.228 
   93200     325.7683    -11039.12    54.378991   -11093.499    67821.513 
   93400    323.43742   -11045.407    53.989909   -11099.397    10555.879 
   93600    336.22661   -11046.134    56.124749   -11102.259    30308.262 
   93800    301.90148   -11045.163    50.395015   -11095.558   -63988.077 
   94000    321.97294   -11041.255    53.745449       -11095   -66359.204 
   94200    290.50965   -11044.408    48.493429   -11092.902   -43168.513 
   94400    272.71503   -11053.738    45.523055   -11099.261    35993.623 
   94600    311.87011   -11030.262    52.059031   -11082.321    34129.864 
   94800    326.75871   -11036.019    54.544316   -11090.563    15410.844 
   95000    290.03403    -11052.88    48.414035   -11101.294    12082.153 
   95200    324.14003    -11042.13    54.107192   -11096.237   -32556.703 
   95400    341.48342   -11040.814    57.002243   -11097.816    22936.225 
   95600    263.66105   -11048.614    44.011717   -11092.625   -12768.506 
   95800    284.32218   -11044.634    47.460583   -11092.094    -21180.07 
   96000    331.69109   -11041.734    55.367656   -11097.101     7581.216 
   96200    308.69655   -11054.888    51.529284   -11106.417   -48969.678 
   96400    322.91839   -11043.006     53.90327   -11096.909   -35586.555 
   96600    316.25107   -11040.756    52.790325   -11093.546   -62124.562 
   96800    276.57668       -11054    46.167662   -11100.168      9904.18 
   97000    325.24546   -11030.645    54.291716   -11084.937   -19208.855 
   97200    302.76481   -11045.002    50.539126   -11095.541    14193.106 
   97400    301.03679   -11052.338    50.250675   -11102.589    67708.198 
   97600    360.43214   -11041.855    60.165266    -11102.02    47131.745 
   97800    298.16821   -11045.654    49.771837   -11095.426    6631.0135 
   98000    276.40566   -11052.253    46.139114   -11098.392    8927.0794 
   98200     280.0088   -11058.567    46.740571   -11105.308    45174.219 
   98400    331.43886   -11040.063    55.325552   -11095.388   -8473.9176 
   98600    307.97034   -11050.522    51.408061    -11101.93   -62955.683 
   98800     309.1602   -11047.836    51.606678   -11099.442   -39898.941 
   99000    317.68137   -11037.078    53.029078   -11090.107    56754.073 
   99200    318.67588   -11052.501    53.195088   -11105.696    20374.561 
   99400    316.66664   -11050.372    52.859693   -11103.232    16098.733 
   99600    363.38186   -11034.615    60.657649   -11095.272   -44220.378 
   99800    282.35217   -11048.946    47.131739   -11096.077   -60544.058 
  100000    345.78743   -11043.893    57.720692   -11101.614   -29017.653 
  100200    297.53892   -11046.389    49.666792   -11096.055     27222.15 
  100400     270.0522   -11056.926    45.078562   -11102.005   -20787.546 
  100600    323.95253    -11042.17    54.075894   -11096.246    37080.093 
  100800    287.12579   -11048.733    47.928577   -11096.662   -47390.013 
  101000    301.18698   -11058.813    50.275746   -11109.089    5830.4862 
  101200    287.88204   -11041.554    48.054814   -11089.609   -27197.496 
  101400    303.15368   -11048.709    50.604038   -11099.313   -28563.753 
  101600    288.64552   -11053.653    48.182259   -11101.835    -57835.74 
  101800    314.84445   -11038.009    52.555525   -11090.564   -23457.436 
  102000    254.15324   -11052.164    42.424622   -11094.589    31739.636 
  102200    269.27139   -11055.288    44.948224   -11100.236   -32372.998 
  102400    345.95309   -11036.981    57.748346   -11094.729     5560.157 
  102600    275.08398   -11048.593    45.918492   -11094.511    22832.617 
  102800    273.51869    -11050.91    45.657206   -11096.567     58462.99 
  103000    299.19179   -11044.107    49.942698    -11094.05    -39211.54 
  103200    316.45041   -11045.488    52.823599   -11098.311    9109.5514 
  103400     274.7107   -11059.355    45.856183   -11105.211    6686.9526 
  103600    279.22399   -11049.666    46.609567   -11096.276    -22070.91 
  103800    327.68106   -11044.304     54.69828   -11099.003    14854.131 
  104000    282.01861   -11047.789    47.076059   -11094.865    6484.3765 
  104200    310.28277   -11037.157    51.794063   -11088.951    38916.179 
  104400    308.15381   -11044.151    51.438686    -11095.59   -23701.796 
  104600    297.24494   -11053.755     49.61772   -11103.373    11918.175 
  104800    356.17281   -11036.477    59.454275   -11095.932    14558.092 
  105000    342.59235   -11042.263    57.187353   -11099.451    29176.681 
  105200    321.00495   -11051.101    53.583868   -11104.685    2133.0377 
  105400    297.27262   -11033.414     49.62234   -11083.036    9677.1109 
  105600    293.05729   -11045.857    48.918695   -11094.776    21946.673 
  105800    298.53144   -11052.881    49.832468   -11102.714   -25885.611 
  106000    317.14343   -11041.488    52.939282   -11094.428    274.18995 
  106200    359.33994   -11032.132    59.982951   -11092.115    86807.675 
  106400    314.10113   -11047.045    52.431445   -11099.476    23918.176 
  106600     321.6541   -11048.424    53.692228   -11102.116    1050.8692 
  106800     362.0845   -11033.943    60.441087   -11094.385    15466.449 
  107000    286.25727   -11049.832    47.783599   -11097.616   -1400.5691 
  107200    278.52543   -11051.656    46.492958   -11098.149    21093.659 
  107400    329.65506   -11042.017    55.027791   -11097.045     678.3185 
  107600    265.14116   -11047.463    44.258784   -11091.722   -11731.406 
  107800      308.547   -11040.485    51.504319   -11091.989    30381.429 
  108000     308.6959   -11044.332    51.529176   -11095.861   -77521.411 
  108200    300.52101   -11053.871    50.164579   -11104.036    52907.284 
  108400    375.94383   -11035.117     62.75456   -11097.871   -30293.484 
  108600    281.78316   -11044.573    47.036756    -11091.61    1513.1279 
  108800    305.66815   -11051.489    51.023767   -11102.513    37121.827 
  109000    301.10936   -11048.017     50.26279    -11098.28   -52942.888 
  109200    297.72844   -11031.975    49.698428   -11081.673     50148.48 
  109400    304.37904   -11050.108    50.808581   -11100.917    25829.241 
  109600    270.16293   -11055.456    45.097045   -11100.554    68982.455 
  109800    328.21828    -11033.27    54.787955   -11088.058   -23783.411 
  110000    286.48453   -11047.386    47.821534   -11095.207   -27988.698 
  110200    317.49295   -11052.174    52.997626   -11105.172    15674.104 
  110400    340.10885   -11037.245    56.772793   -11094.018    29934.864 
  110600    368.19295   -11040.845    61.460743   -11102.306    36751.536 
  110800    292.81171   -11053.106      48.8777   -11101.984   -29504.563 
  111000    303.90966   -11052.328    50.730231   -11103.058   -40507.732 
  111200    338.62074   -11036.739     56.52439   -11093.263   -16235.039 
  111400    294.08734   -11046.712    49.090636   -11095.803   -547.12411 
  111600     271.3887   -11054.524    45.301657   -11099.825   -9641.6703 
  111800    332.99499   -11041.172    55.585309   -11096.758    16736.571 
  112000    302.82743   -11027.557    50.549579   -11078.106   -41047.742 
  112200    269.15086   -11047.451    44.928105   -11092.379   -20091.909 
  112400    302.09698   -11049.821    50.427647   -11100.249    848.24545 
  112600    275.77072   -11053.741    46.033127   -11099.774    29615.164 
  112800    340.23717   -11036.224    56.794213   -11093.019   -11063.357 
  113000    346.33794   -11042.366    57.812586   -11100.179   -1567.8473 
  113200    301.50944   -11050.531    50.329573   -11100.861    30791.444 
  113400    266.00066   -11046.085    44.402256   -11090.487    25918.248 
  113600    361.63637    -11027.99    60.366283   -11088.356    6283.3234 
  113800    309.04996   -11044.826    51.588276   -11096.415   -30807.243 
  114000    337.71251   -11048.697    56.372783   -11105.069    -27425.21 
  114200    334.51079    -11037.07    55.838335   -11092.908    23763.972 
  114400    320.23029   -11029.668    53.454557   -11083.122   -21260.869 
  114600    288.45313   -11050.615    48.150143   -11098.765   -15492.394 
  114800    283.46098   -11050.336    47.316827   -11097.653    -550.9829 
  115000     336.0607   -11034.009    56.097054   -11090.106   -27146.369 
  115200    323.51992   -11043.362     54.00368   -11097.365    4520.4433 
  115400    280.44629   -11058.615    46.813599   -11105.429   -16634.221 
  115600    257.24601   -11065.737    42.940884   -11108.678    15761.114 
  115800    309.14374    -11046.32    51.603932   -11097.924    40024.327 
  116000    296.24963   -11040.412    49.451578   -11089.864    6264.0367 
  116200    283.70503   -11058.554    47.357564   -11105.912   -10691.498 
  116400     259.3797   -11045.382     43.29705   -11088.679    49579.607 
  116600    324.78355   -11041.049    54.214612   -11095.264    103278.61 
  116800     224.4959   -11055.849    37.474059   -11093.324    8714.8564 
  117000    334.77622   -11043.667    55.882642    -11099.55   -30906.292 
  117200    297.79905   -11041.993    49.710215   -11091.703     32842.86 
  117400    276.74884   -11056.383    46.196401   -11102.579    50061.598 
  117600    221.16702   -11069.844    36.918385   -11106.762   -9716.2181 
  117800    276.22088   -11049.798    46.108271   -11095.906    20830.844 
  118000    303.05496   -11045.317    50.587558   -11095.904   -24219.497 
  118200    294.90404    -11053.62    49.226965   -11102.847    6180.6912 
  118400    261.53055   -11054.863    43.656082    -11098.52   -15537.808 
  118600    327.68492    -11040.24    54.698924   -11094.939    16934.628 
  118800    264.93856   -11055.267    44.224965   -11099.492   -7581.8303 
  119000    299.63295   -11048.003     50.01634   -11098.019   -6652.0901 
  119200    304.42497   -11039.975    50.816249   -11090.792   -512.82425 
  119400    267.85748   -11055.194    44.712206   -11099.906    1016.0658 
  119600    322.35273   -11047.385    53.808846   -11101.193    5187.4535 
  119800      336.445   -11037.305    56.161203   -11093.466    22631.005 
  120000     280.8655   -11054.011    46.883575   -11100.894     41010.73 
  120200     315.2268   -11047.242    52.619347   -11099.862    21571.136 
  120400    289.84781   -11045.492    48.382951   -11093.875     19005.25 
  120600    284.56773   -11046.478    47.501571    -11093.98    45903.563 
  120800    249.56559   -11048.321    41.658827   -11089.979   -49223.666 
  121000    267.55973   -11044.571    44.662505   -11089.233    58276.696 
  121200    355.25401   -11041.952    59.300905   -11101.253     776.5081 
  121400    277.90821   -11055.283    46.389929   -11101.673    -17967.68 
  121600    325.90923   -11036.022    54.402516   -11090.424   -7532.6908 
  121800    296.15461   -11047.196    49.435715   -11096.631    48540.261 
  122000    262.90168    -11056.69    43.884959   -11100.575    27072.153 
  122200    291.73228   -11054.611    48.697517   -11103.309   -20973.842 
  122400     317.4431     -11044.8    52.989305   -11097.789    3249.2009 
  122600    259.13441   -11054.497    43.256106   -11097.753     17877.97 
  122800    323.76522   -11037.811    54.044626   -11091.856   -32122.883 
  123000    245.00932   -11051.997    40.898269   -11092.895    -42830.44 
  123200    248.79944   -11064.526    41.530937   -11106.057    48469.977 
  123400    293.85575   -11046.922    49.051978   -11095.974    -34468.86 
  123600    310.19455   -11039.479    51.779338   -11091.259    -24545.27 
  123800    264.10429   -11058.193    44.085704   -11102.278    29259.545 
  124000    283.47393   -11050.859    47.318989   -11098.178   -1262.0098 
  124200    321.10565   -11041.356    53.600676   -11094.957    16807.735 
  124400    326.69346   -11047.912    54.533424   -11102.446    34505.505 
  124600     294.9138   -11052.383    49.228593   -11101.612    33799.048 
  124800    339.10711   -11036.275    56.605578   -11092.881    11548.201 
  125000     253.4345   -11051.858    42.304646   -11094.163     32453.45 
  125200    271.33344   -11049.936    45.292433   -11095.228   -4348.6812 
  125400     342.2861   -11041.301    57.136231   -11098.438   -40420.385 
  125600    291.82345   -11046.351    48.712736   -11095.064    49536.188 
  125800    255.24681   -11045.789    42.607166   -11088.397    26108.552 
  126000    252.09201   -11053.132     42.08055   -11095.213    35042.719 
  126200    283.47053   -11052.529     47.31842   -11099.848    19847.285 
  126400    315.58127   -11043.537    52.678518   -11096.216   -32073.963 
  126600    253.81495   -11048.254    42.368153   -11090.622    51136.206 
  126800    226.44398   -11057.589    37.799244   -11095.388    83878.427 
  127000    308.93874   -11042.475    51.569712   -11094.044   -5603.3541 
  127200    287.10544   -11045.932    47.925179   -11093.857    -46171.19 
  127400    220.70077   -11052.727    36.840556   -11089.568    -36983.01 
  127600    321.86114   -11036.773    53.726787     -11090.5    23306.627 
  127800    283.06259   -11052.287    47.250326   -11099.538    24266.528 
  128000    328.61317   -11043.534    54.853872   -11098.388   -3986.6554 
  128200    292.90293   -11044.054    48.892929   -11092.947   -16206.655 
  128400    287.58544   -11046.383    48.005304   -11094.389    41558.376 
  128600    246.55066   -11061.524    41.155559    -11102.68    19928.617 
  128800    297.02994   -11048.636    49.581831   -11098.218   -40252.992 
  129000     286.3286   -11046.405    47.795505     -11094.2   -17884.983 
  129200    311.36345   -11040.788    51.974458   -11092.763   -43976.247 
  129400    296.06223   -11044.242    49.420295   -11093.662    19226.702 
  129600    243.31223   -11054.676    40.614983   -11095.291   -22707.164 
  129800    399.81127   -11035.666    66.738641   -11102.404    51244.535 
  130000    290.92651   -11046.963    48.563014   -11095.526    16092.231 
  130200    296.02028   -11050.919    49.413292   -11100.332    3259.1126 
  130400    316.47537    -11038.77    52.827767   -11091.598    8346.2359 
  130600    377.73365   -11031.557    63.053327    -11094.61   -35218.709 
  130800    348.92346   -11052.458    58.244175   -11110.702   -14953.504 
  131000    295.90655   -11050.563    49.394308   -11099.958   -25047.633 
  131200    333.67541   -11035.573    55.698888   -11091.272   -23226.307 
  131400    256.28086   -11042.847    42.779776   -11085.627   -7869.4293 
  131600    302.76278   -11048.942    50.538787   -11099.481    37305.842 
  131800    289.99863   -11058.532    48.408126    -11106.94    3297.3112 
  132000    310.60326   -11043.904    51.847561   -11095.751    4769.9682 
  132200    291.65375   -11046.822    48.684408   -11095.506   -22022.239 
  132400    287.71071   -11057.871    48.026214   -11105.898    38179.617 
  132600    328.30905   -11049.073    54.803108   -11103.876    54842.104 
  132800    309.36301   -11038.333    51.640533   -11089.974   -24029.579 
  133000     289.8733   -11057.333    48.387205    -11105.72    4506.4392 
  133200    253.48939   -11053.156    42.313809   -11095.469   -10612.031 
  133400    327.51441   -11040.321    54.670461   -11094.992    20600.639 
  133600    284.65036   -11048.361    47.515364   -11095.876    33277.039 
  133800    287.09234   -11050.143    47.922994   -11098.066     55788.23 
  134000    280.16508   -11048.044    46.766658    -11094.81   -53046.662 
  134200    341.17713   -11039.304    56.951116   -11096.255    1596.1161 
  134400    329.82197   -11045.467    55.055651   -11100.523    25747.882 
  134600    314.54263   -11054.097    52.505142   -11106.602   -20778.489 
  134800    325.49289   -11035.236    54.333019   -11089.569   -15730.285 
  135000    295.70615   -11039.983    49.360857   -11089.343   -28600.128 
  135200    270.22905   -11053.516    45.108082   -11098.624   -38311.758 
  135400    303.45835   -11042.201    50.654894   -11092.856    6523.0026 
  135600    270.09236   -11039.958    45.085265   -11085.043   -29833.639 
  135800    267.54634   -11053.547    44.660269   -11098.207     16870.07 
  136000    331.92407   -11038.457    55.406545   -11093.864    40423.281 
  136200    315.39568   -11040.194    52.647538   -11092.842    10319.592 
  136400    262.26771   -11048.472    43.779132   -11092.251   -8400.6773 
  136600    331.46059   -11043.117     55.32918   -11098.446   -61624.838 
  136800    349.66009   -11035.802    58.367137   -11094.169    47432.631 
  137000    247.16282   -11056.543    41.257744   -11097.801    -40.24887 
  137200    311.21422   -11041.602    51.949547   -11093.552     757.9849 
  137400    315.57811    -11050.24     52.67799   -11102.918   -17642.009 
  137600    290.71863   -11047.333    48.528313   -11095.862   -34676.047 
  137800    320.90297   -11039.101    53.566845   -11092.668    12677.238 
  138000    275.83959   -11054.006    46.044624   -11100.051    17140.515 
  138200    322.72031   -11041.068    53.870204   -11094.938    3982.3067 
  138400    332.41501   -11035.654    55.488497   -11091.143      84964.9 
  138600    301.27903   -11047.167    50.291111   -11097.458    4973.5241 
  138800    330.87256   -11042.863    55.231022   -11098.094    20594.761 
  139000    359.60431   -11034.053    60.027081    -11094.08   -1383.3727 
  139200    281.99385   -11050.097    47.071925   -11097.169   -19732.192 
  139400    233.08405   -11057.926     38.90764   -11096.833    43125.539 
  139600    221.64388   -11056.013    36.997984   -11093.011   -46488.575 
  139800    288.26471   -11042.593    48.118691   -11090.712   -20551.501 
  140000    275.83654   -11054.335    46.044114   -11100.379    82780.291 
  140200    360.59266    -11047.37    60.192061   -11107.562     67545.02 
  140400    338.64319   -11041.606    56.528137   -11098.134    34903.978 
  140600    275.14275    -11054.23    45.928304   -11100.159   -46941.832 
  140800    269.19994   -11063.375    44.936297   -11108.311   -11612.051 
  141000    293.71461   -11045.385    49.028418   -11094.414   -56579.284 
  141200    268.98727   -11050.465    44.900798   -11095.366     -37306.3 
  141400    237.97943   -11067.162    39.724803   -11106.887    21193.496 
  141600    271.73416   -11063.651    45.359323    -11109.01    29230.021 
  141800     297.8172    -11043.38    49.713244   -11093.094   -32768.358 
  142000     340.2305    -11038.17      56.7931   -11094.963   -51502.997 
  142200    271.94866    -11054.41    45.395129   -11099.805    16791.677 
  142400    321.87162   -11045.145    53.728537   -11098.873   -30481.699 
  142600    286.55039   -11046.031    47.832528   -11093.864   -21793.727 
  142800    304.26605   -11045.752     50.78972   -11096.542   -21787.059 
  143000    282.44062   -11050.182    47.146503   -11097.329   -39620.356 
  143200    260.89967    -11058.03    43.550772    -11101.58   -7444.4248 
  143400    333.01944   -11039.621    55.589391    -11095.21   -19327.684 
  143600    251.10979   -11044.461    41.916593   -11086.378    1872.0817 
  143800    237.52543   -11063.262    39.649019   -11102.911    9685.6473 
  144000    302.21101   -11049.034    50.446682    -11099.48    10327.605 
  144200    341.10191   -11040.518     56.93856   -11097.457    -64442.19 
  144400    260.48937   -11056.514    43.482283   -11099.996     36361.91 
  144600    273.27069    -11051.54    45.615809   -11097.155   -36110.588 
  144800    277.25769   -11043.972    46.281341   -11090.253   -15303.792 
  145000    324.50458   -11042.447    54.168044   -11096.615    3105.7783 
  145200    272.00923   -11051.504    45.405239   -11096.909   -37491.323 
  145400    305.57632   -11048.629    51.008438   -11099.637    -21842.42 
  145600    303.41325   -11033.852    50.647368     -11084.5    71461.465 
  145800    308.66496   -11048.206     51.52401    -11099.73   -14701.024 
  146000    301.47068    -11046.39    50.323103   -11096.713    18634.314 
  146200    299.78225   -11046.356     50.04126   -11096.397   -13160.626 
  146400    319.20566   -11035.386    53.283521   -11088.669   -34850.383 
  146600    296.43204   -11051.822    49.482026   -11101.304   -65329.658 
  146800    365.06122   -11040.944    60.937977   -11101.882    -4208.739 
  147000    345.61197   -11026.682    57.691404   -11084.374   -88882.945 
  147200    323.89985    -11037.33    54.067099   -11091.398    14420.593 
  147400    231.27963   -11053.388    38.606436   -11091.995    3654.9637 
  147600    343.92519   -11045.734    57.409837   -11103.144    38747.127 
  147800    385.04294   -11038.195    64.273432   -11102.469   -17738.971 
  148000    283.14314    -11047.33    47.263771   -11094.594    -22564.35 
  148200     294.1395   -11047.633    49.099342   -11096.732    11324.601 
  148400    380.55154    -11039.35    63.523704   -11102.873   -29731.748 
  148600    299.00966   -11045.122    49.912296   -11095.034     38527.59 
  148800    258.28755   -11055.474    43.114743   -11098.588     46570.64 
  149000    339.58487   -11035.585    56.685328    -11092.27   -25886.532 
  149200    319.43786   -11042.286    53.322281   -11095.608    19885.098 
  149400    294.60977   -11058.487    49.177844   -11107.665     -60698.9 
  149600    256.59295    -11059.66    42.831872   -11102.492    2318.5621 
  149800    253.96445   -11046.534    42.393108   -11088.927   -52950.707 
  150000    319.67921   -11038.278    53.362567   -11091.641   -34376.946 
  150200      330.369   -11042.851    55.146966   -11097.998   -45653.266 
  150400    286.79121    -11054.03    47.872726   -11101.903    10246.663 
  150600    344.79269   -11037.248    57.554645   -11094.803    20708.215 
  150800    324.03431   -11026.476    54.089544   -11080.565    62173.178 
  151000    301.80583   -11051.482    50.379048   -11101.861   -17608.992 
  151200    272.63125     -11046.7     45.50907   -11092.209   -2142.7187 
  151400    339.42283   -11033.068    56.658278   -11089.726    8156.5522 
  151600    299.03501   -11049.193    49.916528    -11099.11   -24252.223 
  151800    303.53345    -11052.18    50.667432   -11102.847    21360.844 
  152000    270.47134   -11054.949    45.148526   -11100.098    34094.013 
  152200     308.7779   -11039.393    51.542862   -11090.936    4506.1599 
  152400    275.64899    -11055.06    46.012808   -11101.073   -23499.902 
  152600    272.74246   -11053.681    45.527634   -11099.209    54621.134 
  152800    313.84873    -11043.98    52.389312   -11096.369   -66824.833 
  153000    310.80256   -11036.899    51.880829   -11088.779    13890.036 
  153200    269.32473   -11053.778    44.957128   -11098.735    27076.173 
  153400    338.43118   -11041.488    56.492747   -11097.981   -30879.645 
  153600    345.27224   -11035.227    57.634694   -11092.861    12767.103 
  153800    331.30812   -11045.993    55.303729   -11101.297    362.62097 
  154000    342.53439   -11038.319    57.177677   -11095.497    53062.231 
  154200    330.37383   -11033.776    55.147771   -11088.924   -39649.037 
  154400    279.14041   -11053.635    46.595615   -11100.231   -36802.244 
  154600    335.58793   -11039.425    56.018137   -11095.443    372.47878 
  154800    289.82551   -11048.602    48.379229   -11096.981    28531.588 
  155000    216.30053   -11068.078    36.106044   -11104.184   -15549.672 
  155200    264.13945   -11053.345    44.091574   -11097.436   -18778.983 
  155400    322.07104   -11041.461    53.761825   -11095.223   -6727.8091 
  155600    301.76495    -11052.62    50.372224   -11102.993    -12466.62 
  155800    237.46737   -11059.198    39.639327   -11098.838    27925.822 
  156000    269.31396   -11043.539    44.955331   -11088.495    20475.983 
  156200    290.30757    -11052.33    48.459696    -11100.79   -15128.634 
  156400    257.15294   -11048.949    42.925348   -11091.875    87822.509 
  156600    323.34255   -11043.939    53.974073   -11097.913    7785.0454 
  156800    284.57234   -11052.552    47.502341   -11100.055    45921.288 
  157000    368.06056   -11030.713    61.438642   -11092.152    37993.938 
  157200    334.71013   -11044.137    55.871611   -11100.009    31974.378 
  157400    250.75803   -11048.201    41.857876   -11090.059    8942.9145 
  157600    336.96816   -11034.664    56.248533   -11090.913   -182.67866 
  157800    380.72684    -11035.05    63.552966   -11098.603   -36149.439 
  158000    303.46658   -11053.574    50.656269    -11104.23   -13289.209 
  158200    296.92266    -11042.67    49.563923   -11092.234    4472.5267 
  158400    300.89399   -11040.667    50.226838   -11090.894   -58661.992 
  158600    307.14373    -11050.56    51.270079    -11101.83   -54315.369 
  158800    289.29693   -11049.445    48.290995   -11097.736   -23497.037 
  159000    332.65195     -11032.8    55.528048   -11088.329   -2473.7529 
  159200    311.17732   -11046.565    51.943387   -11098.508    116456.48 
  159400    307.96939   -11047.118    51.407902   -11098.526    34334.141 
  159600    321.29268   -11033.924    53.631897   -11087.556    33964.471 
  159800    324.83322   -11039.751    54.222902   -11093.974   -14557.315 
  160000    311.39743   -11048.914    51.980128   -11100.894    1482.1442 
  160200    249.12212   -11045.809      41.5848   -11087.394    15820.552 
  160400     340.5113   -11035.763    56.839973   -11092.603   -22970.598 
  160600    275.24924    -11052.07    45.946079   -11098.017   -32645.746 
  160800    290.50178   -11049.192    48.492115   -11097.684   -1389.8222 
  161000    329.91525   -11027.473    55.071223   -11082.545   -6439.2264 
  161200    368.91991   -11020.428    61.582089    -11082.01   -11368.916 
  161400    307.21939   -11046.027    51.282709   -11097.309    24575.889 
  161600    273.79806   -11053.496     45.70384     -11099.2    11793.018 
  161800    307.17901   -11036.276    51.275968   -11087.552   -25029.027 
  162000    300.06426   -11042.641    50.088336    -11092.73     64304.98 
  162200    335.57147   -11044.925     56.01539   -11100.941   -1192.1539 
  162400    275.38795   -11062.904    45.969233   -11108.873    35933.679 
  162600    261.18649   -11054.004    43.598649   -11097.603     20042.93 
  162800    310.77084   -11044.422    51.875536   -11096.297    21771.803 
  163000    391.35073   -11034.277    65.326362   -11099.604    4323.6401 
  163200    282.76744   -11049.803    47.201058   -11097.004    45335.541 
  163400    301.93768   -11043.411    50.401058   -11093.812      12695.9 
  163600    354.52584   -11030.985    59.179355   -11090.165    32632.836 
  163800    319.46737   -11048.512    53.327207   -11101.839    58729.544 
  164000    316.51543   -11045.059    52.834452   -11097.894    19981.102 
  164200    353.16678   -11032.544    58.952493   -11091.497    31024.136 
  164400    268.41389   -11053.168    44.805087   -11097.973   -79210.487 
  164600     327.3422   -11040.643    54.641715   -11095.285   -45295.408 
  164800     302.7037   -11040.491    50.528926    -11091.02     23729.34 
  165000    252.29357   -11057.995    42.114196   -11100.109    9285.7684 
  165200    308.79866   -11040.224    51.546328    -11091.77    2341.9513 
  165400     294.6627   -11044.721    49.186678   -11093.907   -10737.866 
  165600    237.86346   -11063.769    39.705444   -11103.474   -53787.668 
  165800    317.63452   -11048.846    53.021257   -11101.867     8493.655 
  166000    284.97606   -11043.769    47.569732   -11091.339   -5936.2721 
  166200    335.28068   -11035.051    55.966849   -11091.018   -39663.582 
  166400    283.84151   -11043.483    47.380348   -11090.863   -32688.564 
  166600    331.63338   -11047.496    55.358022   -11102.854   -62808.224 
  166800    349.60876   -11027.785     58.35857   -11086.144    27474.868 
  167000    305.83249   -11043.359    51.051199    -11094.41    -33957.33 
  167200    282.24534   -11050.166    47.113906    -11097.28    26506.655 
  167400    356.99505   -11034.743    59.591529   -11094.334   -47926.712 
  167600    274.75529   -11050.496    45.863627   -11096.359    13775.059 
  167800     279.9005   -11050.571    46.722492   -11097.294   -42945.888 
  168000    326.94457   -11031.612    54.575341   -11086.187    28794.635 
  168200    280.55393   -11042.181    46.831566   -11089.013   -23535.637 
  168400    318.28278   -11042.164    53.129468   -11095.293    -8787.796 
  168600    309.33132   -11040.331    51.635243   -11091.966   -14165.454 
  168800    286.27317   -11057.083    47.786253   -11104.869    51334.248 
  169000    350.69215   -11039.913    58.539415   -11098.453   -50733.008 
  169200      308.973   -11041.408    51.575431   -11092.984    19651.317 
  169400    293.13061   -11049.969    48.930934     -11098.9    25196.648 
  169600     293.6638   -11051.747    49.019936   -11100.767     4195.608 
  169800    339.20363   -11036.653    56.621688   -11093.274   -36714.104 
  170000    252.58513   -11052.782    42.162864   -11094.945     24513.09 
  170200    318.35391   -11049.907    53.141342   -11103.048   -15482.193 
  170400     311.5034   -11041.586    51.997817   -11093.584     89244.59 
  170600     362.1524    -11017.04    60.452421   -11077.493   -23901.157 
  170800    311.12322   -11041.767    51.934356   -11093.701     33156.93 
  171000    311.51386    -11053.89    51.999563    -11105.89    -53945.94 
  171200    264.49128   -11052.046    44.150303   -11096.197    49579.699 
  171400    307.67572   -11039.712    51.358882   -11091.071    95153.918 
  171600    263.27855   -11054.033    43.947868   -11097.981   -10461.065 
  171800    327.06044   -11041.641    54.594683   -11096.235     15427.16 
  172000    336.30168     -11038.3    56.137281   -11094.437   -45285.214 
  172200    267.25999   -11052.353     44.61247   -11096.966   -53636.055 
  172400     297.3098   -11047.735    49.628546   -11097.363    37016.794 
  172600    331.37229   -11042.108     55.31444   -11097.423   -53529.747 
  172800    321.73338   -11049.207    53.705461   -11102.912    -4292.252 
  173000    267.20985   -11053.525    44.604102   -11098.129    30717.858 
  173200    258.84809   -11044.253    43.208312   -11087.462   -33608.113 
  173400     372.6318    -11033.83    62.201698   -11096.032    47714.792 
  173600    301.10253   -11055.078     50.26165    -11105.34   -37682.267 
  173800    295.78468   -11046.249    49.373966   -11095.623   -17090.394 
  174000    313.02238   -11033.616    52.251375   -11085.868    23657.413 
  174200    295.61029   -11054.442    49.344854   -11103.787    17329.548 
  174400    284.22365   -11045.526    47.444135    -11092.97    30825.939 
  174600    332.60855   -11038.639    55.520803    -11094.16   -24111.439 
  174800    257.43275   -11049.549    42.972056   -11092.521    17690.494 
  175000    276.37881   -11067.972    46.134633   -11114.106   -286.18888 
  175200      275.771   -11050.449    46.033175   -11096.482   -25633.713 
  175400    308.86225   -11044.206    51.556943   -11095.763   -14536.819 
  175600    215.84798   -11057.176    36.030502   -11093.207   -41645.858 
  175800    275.07872   -11050.926    45.917615   -11096.844    20291.031 
  176000    334.62806   -11040.522    55.857911    -11096.38   -49310.493 
  176200    330.37777   -11044.013    55.148429   -11099.162   -18067.593 
  176400    254.41771   -11057.771    42.468769   -11100.239    13516.128 
  176600    276.31048   -11045.314    46.123227   -11091.437   -60788.113 
  176800     292.4062   -11042.998    48.810012   -11091.808    45626.748 
  177000    332.30294   -11028.156     55.46979   -11083.626    37990.773 
  177200    254.43962   -11049.154    42.472427   -11091.627    10302.815 
  177400    345.09087   -11047.667    57.604419   -11105.272    2213.0838 
  177600    301.03606   -11045.672    50.250554   -11095.923    28265.137 
  177800    348.20071   -11038.144     58.12353   -11096.268    53173.971 
  178000    283.25136   -11054.602    47.281835   -11101.884    5617.3406 
  178200    324.91799   -11043.772    54.237054   -11098.009    1395.1929 
  178400    257.94218   -11046.549    43.057092   -11089.606   -18553.858 
  178600    329.07352   -11041.836    54.930717   -11096.767   -68481.205 
  178800    333.29738   -11044.839    55.635785   -11100.475   -24359.966 
  179000    306.42164   -11052.295    51.149544   -11103.445    14055.613 
  179200    271.59545    -11043.28    45.336169   -11088.616   -2418.8132 
  179400    339.09667   -11032.286    56.603835    -11088.89   -2205.2826 
  179600    278.70849    -11052.01    46.523515   -11098.533    25715.631 
  179800    330.05589   -11040.759    55.094699   -11095.854    -38258.97 
  180000    295.19257   -11049.458    49.275128   -11098.733   -17288.015 
  180200    323.62372   -11051.869    54.021007    -11105.89    -14473.55 
  180400    317.11715    -11039.29    52.934894   -11092.225    -24204.58 
  180600    319.67364   -11025.404    53.361639   -11078.766   -18151.595 
  180800    296.66972   -11044.625    49.521701   -11094.146   -39315.129 
  181000    271.01445    -11049.29    45.239185    -11094.53    18742.708 
  181200    288.46211   -11059.818    48.151643    -11107.97    -25803.57 
[...]
  950000    288.96337   -11053.496    48.235315   -11101.732   -22662.821 
  950200    288.27556    -11042.39    48.120503   -11090.511   -31819.035 
  950400    312.68366   -11021.729    52.194834   -11073.924    -9523.593 
  950600    279.05432   -11045.088    46.581244   -11091.669    5097.4223 
  950800    276.90633   -11056.083     46.22269   -11102.306    19542.046 
  951000    338.67441    -11043.98    56.533349   -11100.513   -36423.702 
  951200    381.08009   -11037.144    63.611932   -11100.756    26746.151 
  951400    273.25543   -11051.529    45.613261   -11097.143   -22056.715 
  951600    318.81888   -11044.689    53.218957   -11097.908   -29905.278 
  951800     304.3791   -11046.447    50.808592   -11097.256   -3835.3779 
  952000    323.33354   -11045.091    53.972569   -11099.064   -44595.363 
  952200    361.26303   -11031.133    60.303963   -11091.437    38007.529 
  952400    298.47866   -11036.691    49.823659   -11086.515   -50343.392 
  952600    300.43126   -11050.329    50.149597   -11100.479   -42515.799 
  952800    313.04386   -11037.176     52.25496   -11089.431    28792.299 
  953000    353.84109   -11035.318    59.065053   -11094.383    -7073.079 
  953200    248.70062   -11048.547    41.514441   -11090.062   -33991.378 
  953400    370.73925   -11037.803    61.885784   -11099.689    74444.887 
  953600    259.28811   -11048.164    43.281762   -11091.446   -41434.107 
  953800    286.55925   -11050.894    47.834008   -11098.728   -26856.774 
  954000    336.82659   -11033.174      56.2249   -11089.399    -12672.82 
  954200    296.29609   -11040.711    49.459333   -11090.171    2906.2977 
  954400    217.24839   -11055.857    36.264266   -11092.122   -62249.517 
  954600     336.1995   -11039.545    56.120224   -11095.666    184446.56 
  954800    317.90927   -11041.418     53.06712   -11094.485    72469.007 
  955000    293.69167    -11045.19    49.024589   -11094.215    58979.374 
  955200    315.43848   -11042.963    52.654683   -11095.618    9885.7648 
  955400    353.05192   -11043.116    58.933319   -11102.049   -40797.331 
  955600    248.35415   -11065.072    41.456607   -11106.529   -25485.426 
  955800    217.06071   -11060.861    36.232939   -11097.094   -13403.682 
  956000    313.44739   -11043.745    52.322319   -11096.067   -13412.633 
  956200    239.34388   -11052.158    39.952564    -11092.11    1030.4779 
  956400    281.29233   -11053.232    46.954825   -11100.187   -4315.2844 
  956600    346.35145    -11038.29    57.814842   -11096.105    10373.379 
  956800    280.61981   -11050.605    46.842564   -11097.448    22648.468 
  957000     384.5788    -11027.62    64.195956   -11091.816    209.08352 
  957200    305.22605   -11042.641     50.94997   -11093.591   -7590.4112 
  957400     285.5051    -11052.02    47.658043   -11099.678   -1655.8713 
  957600    268.50397   -11041.544    44.820123   -11086.364   -26396.726 
  957800    334.15477   -11035.261    55.778907    -11091.04   -7189.8605 
  958000    287.82786   -11050.901     48.04577   -11098.946   -31527.765 
  958200    293.10933   -11046.458    48.927381   -11095.386    744.16604 
  958400    320.42919   -11031.189    53.487759   -11084.676    39054.656 
  958600    352.17397   -11045.755    58.786768   -11104.542   -8872.8227 
  958800     317.4349   -11048.211    52.987936   -11101.199    22819.252 
  959000    427.07581   -11026.561    71.289785   -11097.851   -50897.319 
  959200    297.81911   -11042.793    49.713563   -11092.506    25492.846 
  959400    303.42056   -11050.035    50.648588   -11100.684   -16119.358 
  959600    358.72002   -11031.188    59.879469   -11091.067    46298.452 
  959800    306.72239   -11039.535    51.199747   -11090.734   -753.96645 
  960000    281.25237   -11054.663    46.948153   -11101.611    10646.742 
  960200    305.30262    -11043.65     50.96275   -11094.613    9920.2681 
  960400    412.12241    -11030.58    68.793683   -11099.374   -35786.449 
  960600    291.14264   -11044.094     48.59909   -11092.693    14744.055 
  960800    271.02851   -11053.375    45.241533   -11098.616   -10986.264 
  961000    362.54927    -11035.51    60.518669   -11096.029   -21054.323 
  961200    309.23417   -11036.803    51.619025   -11088.422   -13551.629 
  961400     283.4359   -11057.644    47.312641   -11104.957    2176.1622 
  961600    350.43574    -11042.83    58.496614   -11101.327    12659.459 
  961800    323.79717   -11040.843     54.04996   -11094.893    -6309.525 
  962000    265.80719   -11050.128    44.369961   -11094.498    -24539.44 
  962200    319.50931   -11046.917    53.334207   -11100.251    30388.133 
  962400    385.71589   -11028.829    64.385764   -11093.215   -23069.215 
  962600    304.31435   -11045.099    50.797784   -11095.897   -9322.0585 
  962800    283.89094   -11045.837    47.388599   -11093.225   -7658.4338 
  963000    360.13614   -11036.484    60.115856     -11096.6    41879.282 
  963200    277.67966   -11052.796    46.351778   -11099.148   -47344.034 
  963400    346.42676   -11044.331    57.827413   -11102.158   -17902.754 
  963600    279.89757   -11038.528    46.722003    -11085.25   -35784.771 
  963800    326.61945   -11044.795    54.521069   -11099.316    5419.3543 
  964000    270.66855   -11058.717    45.181447   -11103.898   -19624.352 
  964200    290.92759     -11048.6    48.563193   -11097.164   -19651.252 
  964400     309.7216   -11043.206     51.70039   -11094.906   -1441.9242 
  964600    263.60161    -11058.52    44.001794   -11102.522    -21764.95 
  964800    330.46731   -11046.808    55.163376   -11101.971    -21111.08 
  965000    317.48511   -11046.727    52.996317   -11099.723    2040.8439 
  965200    303.03522   -11047.472    50.584265   -11098.057   -11591.154 
  965400    305.75395   -11032.251    51.038089   -11083.289    13258.197 
  965600    326.56084   -11043.047    54.511287   -11097.558    -48436.66 
  965800    318.97155   -11042.516    53.244442    -11095.76   -12561.801 
  966000    310.30982   -11036.916    51.798579   -11088.714   -15194.538 
  966200    259.66908   -11056.171    43.345355   -11099.516   -4539.4118 
  966400    300.81047   -11051.309    50.212897   -11101.522    42134.095 
  966600    349.62857   -11031.833    58.361876   -11090.195    64097.267 
  966800    315.58538   -11046.359    52.679204   -11099.038    14992.887 
  967000    278.31229   -11048.774     46.45738   -11095.231    88225.419 
  967200    323.76735   -11030.556    54.044982   -11084.601   -16344.144 
  967400    303.80436   -11041.943    50.712653   -11092.656   -77654.046 
  967600    306.61978   -11049.401    51.182617   -11100.584    1348.6793 
  967800    294.06587   -11051.276    49.087052   -11100.363   -26958.796 
  968000     319.8373   -11041.368    53.388957   -11094.757   -33918.514 
  968200    351.29046   -11034.069    58.639287   -11092.708    29632.075 
  968400    265.40906   -11051.444    44.303504   -11095.748    14134.491 
  968600    291.86001   -11039.432    48.718838   -11088.151    12234.176 
  968800    326.71697   -11046.925    54.537349   -11101.462    148248.47 
  969000    284.26602   -11055.069    47.451209    -11102.52    45992.068 
  969200    348.20393   -11036.906    58.124067    -11095.03   -12655.213 
  969400    349.72908   -11042.436    58.378654   -11100.815   -479.88114 
  969600    254.34176   -11051.155    42.456091   -11093.611    10713.073 
  969800    334.43756   -11038.099     55.82611   -11093.925   -33613.014 
  970000    252.62039   -11053.965     42.16875   -11096.134    5629.4585 
  970200    287.92263   -11043.504     48.06159   -11091.565    5576.1537 
  970400    266.79069   -11049.097    44.534132   -11093.631    67913.162 
  970600     271.5114     -11059.6     45.32214   -11104.922    53902.192 
  970800    291.74222   -11047.544    48.699176   -11096.243    -22698.59 
  971000    358.22777   -11034.574      59.7973   -11094.371   -68341.035 
  971200    281.80161    -11051.17    47.039836    -11098.21    21130.145 
  971400    282.44991   -11044.849    47.148054   -11091.997    30282.997 
  971600    325.28374   -11042.457    54.298106   -11096.755    1103.9888 
  971800    302.65226   -11049.543    50.520339   -11100.063   -21945.478 
  972000    259.08863   -11064.964    43.248464   -11108.212    7492.1343 
  972200    259.32644   -11058.332     43.28816    -11101.62    5722.5344 
  972400    293.89266    -11048.52    49.058138   -11097.578    53958.234 
  972600    331.12338   -11034.603    55.272891   -11089.876    32885.943 
  972800    311.53627   -11055.285    52.003305   -11107.288   -26721.314 
  973000     298.0699   -11046.309    49.755426   -11096.065    29854.863 
  973200     312.8609   -11039.822     52.22442   -11092.047   -26741.382 
  973400    273.41707   -11058.966    45.640244   -11104.606   -16203.428 
  973600    270.29723   -11053.101    45.119464    -11098.22    23234.572 
  973800    300.85567   -11044.053    50.220442   -11094.273    26513.472 
  974000    324.81256   -11027.062    54.219454   -11081.281    11426.833 
  974200    296.40912   -11044.963      49.4782   -11094.441   -34279.489 
  974400    276.22642   -11049.167    46.109196   -11095.276   -16575.852 
  974600    357.98709   -11032.926    59.757125   -11092.683    33620.967 
  974800    261.29347    -11050.46    43.616508   -11094.077   -5431.0826 
  975000    271.25019   -11051.316    45.278536   -11096.595    35777.011 
  975200    280.88528   -11046.409    46.886877   -11093.295    28482.261 
  975400    338.18711   -11030.657    56.452006   -11087.109    -19278.63 
  975600    276.20127   -11047.652    46.104997   -11093.757    6155.4078 
  975800     285.3376   -11049.166    47.630083   -11096.796     48221.44 
  976000    328.64469    -11031.63    54.859134   -11086.489   -23163.074 
  976200    308.96175   -11040.589    51.573553   -11092.162   -26946.926 
  976400    263.71344   -11052.298    44.020462   -11096.318   -3499.3323 
  976600    322.03641   -11047.724    53.756045    -11101.48   -28599.297 
  976800    328.80604   -11035.453    54.886067   -11090.339   -6177.2895 
  977000    274.51759   -11053.726    45.823948    -11099.55    23535.071 
  977200    302.12723   -11049.687    50.432698   -11100.119    14318.157 
  977400    258.83358   -11040.934    43.205888    -11084.14    8990.8006 
  977600    372.22814   -11021.215    62.134317    -11083.35    38888.503 
  977800    347.07353   -11046.391    57.935374   -11104.327    31079.286 
  978000    283.11973    -11053.65    47.259864    -11100.91    11160.621 
  978200    318.65454   -11037.609    53.191524   -11090.801    -8965.268 
  978400    327.89229   -11038.886     54.73354    -11093.62    44107.246 
  978600    311.95354   -11048.403    52.072957   -11100.476   -1027.5608 
  978800    266.56368    -11041.44    44.496239   -11085.936    43934.238 
  979000    330.22333    -11031.81    55.122649   -11086.932    14664.088 
  979200    297.55197   -11052.419    49.668971   -11102.088    -51555.63 
  979400    283.73719   -11049.361    47.362933   -11096.724   -51831.503 
  979600    288.18519   -11040.557    48.105417   -11088.663    15049.493 
  979800    240.64823   -11057.861    40.170293   -11098.031     58269.15 
  980000    236.82584   -11055.198    39.532239    -11094.73    27711.444 
  980200    280.43262   -11045.508    46.811317   -11092.319   -8863.4027 
  980400    371.57969   -11031.184    62.026075    -11093.21   -43649.404 
  980600    331.21687   -11036.663    55.288496   -11091.951    61204.859 
  980800    300.91863   -11051.114    50.230951   -11101.345   -13808.832 
  981000    337.40536   -11044.356    56.321511   -11100.678    3432.0359 
  981200    320.47682   -11032.436    53.495709   -11085.931   -24353.484 
  981400    218.90168   -11054.792    36.540242   -11091.332   -8430.6058 
  981600    303.07892   -11040.429    50.591558    -11091.02   -7193.5593 
  981800     348.4824   -11040.712    58.170552   -11098.882    31816.841 
  982000     245.3391   -11062.398    40.953318   -11103.351    -64309.44 
  982200    319.73086   -11049.584     53.37119   -11102.955    1836.5614 
  982400     308.1957   -11038.512    51.445679   -11089.957    3511.3429 
  982600     243.1983   -11057.915    40.595964   -11098.511   -31406.084 
  982800    289.60624   -11049.948    48.342627   -11098.291   -10977.053 
  983000    326.86275   -11041.969    54.561682   -11096.531   -23022.062 
  983200    297.65333   -11047.726     49.68589   -11097.412    55084.556 
  983400    268.37998    -11058.93    44.799426   -11103.729    29313.372 
  983600    318.31458   -11041.695    53.134776    -11094.83   -6633.7982 
  983800    293.47601   -11041.024     48.98859   -11090.012   -8779.6025 
  984000    245.26121   -11059.692    40.940316   -11100.632   -37019.262 
  984200    233.74308   -11050.943    39.017649    -11089.96    7801.8972 
  984400    297.53393   -11039.303    49.665959   -11088.968   -12647.178 
  984600    321.85644   -11029.305    53.726004   -11083.031   -35669.113 
  984800    292.45251   -11051.461    48.817742   -11100.279    15647.225 
  985000    275.66591   -11048.027    46.015632   -11094.042    45935.535 
  985200    346.22549   -11033.541    57.793816   -11091.335    24718.339 
  985400    294.45778   -11052.211    49.152471   -11101.364   -32656.421 
  985600    262.32507    -11051.55    43.788707   -11095.339   -81052.582 
  985800    294.25162   -11034.864    49.118059   -11083.982    71638.012 
  986000    308.17462   -11042.781    51.442159   -11094.224    4140.9832 
  986200     280.0921   -11049.253    46.754475   -11096.007    13293.306 
  986400    293.25189   -11038.096    48.951178   -11087.047    18720.722 
  986600    296.95974   -11052.106    49.570112   -11101.676    29243.747 
  986800    279.74087   -11049.694    46.695847    -11096.39   -23378.675 
  987000    288.33952   -11034.478    48.131179   -11082.609    -11706.45 
  987200    324.21944   -11042.511    54.120448   -11096.632    61791.178 
  987400    266.85307   -11054.495    44.544545   -11099.039    13173.302 
  987600    290.33962   -11063.319    48.465047   -11111.784   -241.74697 
  987800    226.19039   -11049.133    37.756913    -11086.89    10499.094 
  988000    350.83151   -11040.195    58.562678   -11098.758     7415.061 
  988200    251.67277   -11059.458    42.010568   -11101.469   -8797.9227 
  988400    270.40204   -11048.274    45.136959   -11093.411    27779.399 
  988600    266.29044   -11043.405    44.450628   -11087.855    -35240.13 
  988800    316.10823   -11045.028    52.766481   -11097.794    38695.473 
  989000    262.60322   -11058.111    43.835137   -11101.946   -48871.291 
  989200    366.08298    -11040.42    61.108534   -11101.528    31614.686 
  989400     292.6372   -11049.347     48.84857   -11098.196   -2489.5879 
  989600    268.45315   -11052.769    44.811639    -11097.58    29761.709 
  989800    301.92937   -11033.199    50.399669   -11083.598    32054.933 
  990000    344.56197   -11044.649    57.516132   -11102.165    17072.695 
  990200    274.60863   -11049.888    45.839146   -11095.728    40905.427 
  990400    332.39169   -11028.999    55.484604   -11084.484   -16693.387 
  990600    330.38267    -11029.97    55.149247   -11085.119    66774.847 
  990800    250.06643   -11045.322     41.74243   -11087.065    13913.377 
  991000    276.94136   -11055.494    46.228537   -11101.723    664.96659 
  991200    314.63628   -11034.623    52.520775   -11087.144   -24014.778 
  991400    284.16932    -11045.98    47.435067   -11093.415   -35083.076 
  991600    279.13172   -11052.257    46.594163   -11098.851    5018.8495 
  991800      283.016    -11045.23    47.242548   -11092.473   -10062.823 
  992000    296.38338    -11039.03    49.473903   -11088.504   -9780.4966 
  992200    263.93973   -11054.376    44.058236   -11098.434    10934.858 
  992400    293.86515   -11040.084    49.053546   -11089.138    49861.885 
  992600    254.46985   -11042.485    42.477473   -11084.962   -62150.322 
  992800    289.63835   -11052.473    48.347986   -11100.821   -29829.807 
  993000    288.82886   -11038.041    48.212862   -11086.254   -56098.406 
  993200    338.52268   -11038.937    56.508021   -11095.445    30754.842 
  993400    328.30059   -11048.164    54.801696   -11102.966    12270.311 
  993600    261.20884   -11053.716    43.602381   -11097.318   -4945.0204 
  993800     259.6337   -11057.426    43.339449   -11100.765    57274.057 
  994000    309.56171   -11038.834    51.673701   -11090.508    19518.711 
  994200    305.48604   -11045.287    50.993368    -11096.28    -19245.38 
  994400    253.20024   -11062.549    42.265541   -11104.815    54504.421 
  994600    284.26574    -11052.11    47.451162   -11099.561   -24553.242 
  994800    303.53345   -11041.619    50.667431   -11092.287    -29229.69 
  995000    329.86401   -11046.961     55.06267   -11102.024    45418.666 
  995200    288.15865   -11057.803    48.100987   -11105.904    5205.2818 
  995400    346.15046   -11043.499    57.781292   -11101.281   -17726.938 
  995600    299.10032   -11045.326    49.927429   -11095.253    12876.173 
  995800    307.85296   -11045.859    51.388468   -11097.248     56399.35 
  996000    306.37685    -11053.88    51.142067   -11105.022    12535.728 
  996200    304.97599   -11052.595    50.908228   -11103.503   -29514.046 
  996400    317.42136   -11040.096    52.985676   -11093.082    15612.012 
  996600     261.7795     -11055.6    43.697637   -11099.297   -19058.582 
  996800     287.0637   -11061.707    47.918212   -11109.625    26539.548 
  997000    348.02362    -11044.44    58.093969   -11102.534    3943.1319 
  997200    315.82481   -11040.331    52.719171    -11093.05   -59388.375 
  997400    286.82778   -11056.572    47.878831   -11104.451   -26150.489 
  997600    297.46213   -11039.222    49.653973   -11088.876    62244.611 
  997800    340.10036    -11042.61    56.771376   -11099.382      80127.5 
  998000    284.77945   -11058.874    47.536913   -11106.411    432.69608 
  998200      212.511   -11066.969    35.473476   -11102.443    26321.395 
  998400    303.28447   -11049.324    50.625869    -11099.95    24410.173 
  998600    282.30122   -11035.337    47.123233   -11082.461    -34428.52 
  998800    348.27918   -11037.974    58.136629   -11096.111    110.25018 
  999000    331.84069   -11047.391    55.392627   -11102.784    16532.637 
  999200    278.56806   -11045.369    46.500075   -11091.869    23649.567 
  999400    311.96243   -11034.091    52.074442   -11086.165    30018.451 
  999600    307.15017   -11049.901    51.271153   -11101.172    12134.613 
  999800     274.8947   -11052.724    45.886898   -11098.611    27856.202 
 1000000    304.52832   -11037.689    50.833501   -11088.523   -30546.294 
Loop time of 31488.5 on 8 procs for 1000000 steps with 57 atoms

Performance: 0.686 ns/day, 34.987 hours/ns, 31.758 timesteps/s
99.7% CPU use with 8 MPI tasks x no OpenMP threads

MPI task timing breakdown:
Section |  min time  |  avg time  |  max time  |%varavg| %total
---------------------------------------------------------------
Pair    | 28311      | 28978      | 29524      | 250.2 | 92.03
Neigh   | 2.7829     | 2.8881     | 2.9697     |   3.9 |  0.01
Comm    | 425.47     | 968.29     | 1637       |1366.5 |  3.08
Output  | 0.42069    | 0.45187    | 0.6079     |   8.8 |  0.00
Modify  | 1514       | 1517       | 1519.8     |   5.7 |  4.82
Other   |            | 22.31      |            |       |  0.07

Nlocal:    7.125 ave 10 max 4 min
Histogram: 2 1 0 1 0 0 1 0 0 3
Nghost:    1125.88 ave 1139 max 1112 min
Histogram: 2 0 2 0 0 0 0 0 2 2
Neighs:    1938.75 ave 2736 max 1072 min
Histogram: 2 0 1 1 0 0 1 0 0 3

Total # of neighbors = 15510
Ave neighs/atom = 272.105
Neighbor list builds = 272
Dangerous builds = 0

Please see the log.cite file for references relevant to this simulation

Total wall time: 8:47:02
