LAMMPS (3 Mar 2020)
# Alpha
clear
units		real
dimension 3
boundary        p p p
atom_style	charge
newton on
read_data       OH_34.lmp
  triclinic box = (0 0 0) to (13.552 11.7355 22.15) with tilt (-6.7755 0 0)
  2 by 2 by 2 MPI processor grid
  reading atoms ...
  162 atoms
  read_data CPU = 0.0246203 secs

timestep 0.25

# ---------- Define Interatomic Potential ---------------------
pair_style      reax/c NULL checkqeq no
pair_coeff      * * ffield.reax C H O
fix             2 all qeq/reax 1 0.0 10.0 1.0e-6 reax/c

#------------ Equilibration of the system -------------------------
reset_timestep 0

dump 1 all custom 10 min.lammpstrj id type x y z

minimize 1.0e-8 1.0e-8 100000 100000
WARNING: Using 'neigh_modify every 1 delay 0 check yes' setting during minimization (../min.cpp:190)
WARNING: Total cutoff < 2*bond cutoff. May need to use an increased neighbor list skin. (../pair_reaxc.cpp:413)
Neighbor list info ...
  update every 1 steps, delay 0 steps, check yes
  max neighbors/atom: 2000, page size: 100000
  master list distance cutoff = 9.5
  ghost atom cutoff = 9.5
  binsize = 4.75, bins = 5 3 5
  2 neighbor lists, perpetual/occasional/extra = 2 0 0
  (1) pair reax/c, perpetual
      attributes: half, newton off, ghost
      pair build: half/bin/newtoff/ghost
      stencil: half/ghost/bin/3d/newtoff
      bin: standard
  (2) fix qeq/reax, perpetual, copy from (1)
      attributes: half, newton off, ghost
      pair build: copy
      stencil: none
      bin: none
Per MPI rank memory allocation (min/avg/max) = 22.46 | 23.44 | 24.36 Mbytes
Step Temp E_pair E_mol TotEng Press 
       0            0   -25426.835            0   -25426.835    102461.04 
     264            0   -29211.757            0   -29211.757    38205.047 
Loop time of 52.2729 on 8 procs for 264 steps with 162 atoms

98.8% CPU use with 8 MPI tasks x no OpenMP threads

Minimization stats:
  Stopping criterion = energy tolerance
  Energy initial, next-to-last, final = 
        -25426.8348024     -29211.7574951     -29211.7574966
  Force two-norm initial, final = 4876.07 230.123
  Force max component initial, final = 1005.27 78.5214
  Final line search alpha, max atom move = 0.000195899 0.0153823
  Iterations, force evaluations = 264 1733

MPI task timing breakdown:
Section |  min time  |  avg time  |  max time  |%varavg| %total
---------------------------------------------------------------
Pair    | 37.053     | 39.117     | 40.768     |  23.3 | 74.83
Neigh   | 0          | 0          | 0          |   0.0 |  0.00
Comm    | 0.43969    | 2.0833     | 4.1394     | 100.9 |  3.99
Output  | 0.004461   | 0.0058925  | 0.008401   |   1.6 |  0.01
Modify  | 10.996     | 10.997     | 10.999     |   0.0 | 21.04
Other   |            | 0.07009    |            |       |  0.13

Nlocal:    20.25 ave 32 max 5 min
Histogram: 2 0 1 0 1 0 0 0 1 3
Nghost:    844.25 ave 887 max 791 min
Histogram: 1 2 1 0 0 0 0 0 0 4
Neighs:    2790.5 ave 4326 max 763 min
Histogram: 2 0 1 0 1 0 0 0 1 3

Total # of neighbors = 22324
Ave neighs/atom = 137.802
Neighbor list builds = 0
Dangerous builds = 0

###
min_style cg
minimize 1.0e-8 1.0e-8 100000 100000
WARNING: Using 'neigh_modify every 1 delay 0 check yes' setting during minimization (../min.cpp:190)
WARNING: Total cutoff < 2*bond cutoff. May need to use an increased neighbor list skin. (../pair_reaxc.cpp:413)
Per MPI rank memory allocation (min/avg/max) = 22.46 | 23.44 | 24.36 Mbytes
Step Temp E_pair E_mol TotEng Press 
     264            0   -29211.757            0   -29211.757    38205.047 
     472            0   -29242.424            0   -29242.424     40296.96 
Loop time of 49.3969 on 8 procs for 208 steps with 162 atoms

98.8% CPU use with 8 MPI tasks x no OpenMP threads

Minimization stats:
  Stopping criterion = linesearch alpha is zero
  Energy initial, next-to-last, final = 
        -29211.7574966     -29242.4237484     -29242.4237484
  Force two-norm initial, final = 230.123 27.4221
  Force max component initial, final = 78.5214 6.89304
  Final line search alpha, max atom move = 1.0029e-11 6.91304e-11
  Iterations, force evaluations = 208 1639

MPI task timing breakdown:
Section |  min time  |  avg time  |  max time  |%varavg| %total
---------------------------------------------------------------
Pair    | 36.147     | 38.009     | 39.471     |  22.5 | 76.95
Neigh   | 0          | 0          | 0          |   0.0 |  0.00
Comm    | 0.45293    | 1.9106     | 3.7711     | 100.2 |  3.87
Output  | 0.0035171  | 0.0046076  | 0.0065248  |   1.4 |  0.01
Modify  | 9.4061     | 9.4094     | 9.4127     |   0.1 | 19.05
Other   |            | 0.06318    |            |       |  0.13

Nlocal:    20.25 ave 32 max 6 min
Histogram: 2 0 1 1 0 0 0 0 1 3
Nghost:    880.25 ave 929 max 830 min
Histogram: 1 3 0 0 0 0 0 0 1 3
Neighs:    2764.25 ave 4306 max 882 min
Histogram: 2 0 1 1 0 0 0 0 1 3

Total # of neighbors = 22114
Ave neighs/atom = 136.506
Neighbor list builds = 0
Dangerous builds = 0

###
fix 1 all box/relax aniso 0.0
min_style cg
minimize 1.0e-8 1.0e-8 100000 100000
WARNING: Using 'neigh_modify every 1 delay 0 check yes' setting during minimization (../min.cpp:190)
WARNING: Total cutoff < 2*bond cutoff. May need to use an increased neighbor list skin. (../pair_reaxc.cpp:413)
Per MPI rank memory allocation (min/avg/max) = 22.46 | 23.44 | 24.37 Mbytes
Step Temp E_pair E_mol TotEng Press Volume 
     472            0   -29242.424            0   -29242.424     40296.96    3522.7279 
     585            0   -29265.436            0   -29265.436     3593.516    3531.7291 
Loop time of 4.83147 on 8 procs for 113 steps with 162 atoms

98.8% CPU use with 8 MPI tasks x no OpenMP threads

Minimization stats:
  Stopping criterion = linesearch alpha is zero
  Energy initial, next-to-last, final = 
        -29242.4237484     -29265.4364143     -29265.4364143
  Force two-norm initial, final = 4513.05 567.255
  Force max component initial, final = 3873.88 349.413
  Final line search alpha, max atom move = 2.83892e-14 9.91956e-12
  Iterations, force evaluations = 113 173

MPI task timing breakdown:
Section |  min time  |  avg time  |  max time  |%varavg| %total
---------------------------------------------------------------
Pair    | 3.8047     | 4.0157     | 4.1879     |   7.6 | 83.12
Neigh   | 0          | 0          | 0          |   0.0 |  0.00
Comm    | 0.043085   | 0.21472    | 0.42574    |  32.9 |  4.44
Output  | 0.0017161  | 0.0022026  | 0.0030996  |   0.9 |  0.05
Modify  | 0.57873    | 0.57911    | 0.57945    |   0.0 | 11.99
Other   |            | 0.01975    |            |       |  0.41

Nlocal:    20.25 ave 34 max 6 min
Histogram: 2 0 2 0 0 0 0 1 1 2
Nghost:    876.75 ave 930 max 822 min
Histogram: 1 3 0 0 0 0 0 0 3 1
Neighs:    2760.62 ave 4535 max 891 min
Histogram: 2 0 1 1 0 0 0 0 2 2

Total # of neighbors = 22085
Ave neighs/atom = 136.327
Neighbor list builds = 0
Dangerous builds = 0

unfix 1
###
min_style cg
minimize 1.0e-8 1.0e-8 100000 100000
WARNING: Using 'neigh_modify every 1 delay 0 check yes' setting during minimization (../min.cpp:190)
WARNING: Total cutoff < 2*bond cutoff. May need to use an increased neighbor list skin. (../pair_reaxc.cpp:413)
Per MPI rank memory allocation (min/avg/max) = 22.46 | 23.44 | 24.37 Mbytes
Step Temp E_pair E_mol TotEng Press 
     585            0   -29265.436            0   -29265.436     3593.516 
     802            0   -29280.768            0   -29280.768     36999.93 
Loop time of 53.7943 on 8 procs for 217 steps with 162 atoms

98.8% CPU use with 8 MPI tasks x no OpenMP threads

Minimization stats:
  Stopping criterion = linesearch alpha is zero
  Energy initial, next-to-last, final = 
        -29265.4364143     -29280.7682433     -29280.7682433
  Force two-norm initial, final = 413.472 66.6706
  Force max component initial, final = 48.706 12.2869
  Final line search alpha, max atom move = 5.55751e-12 6.82846e-11
  Iterations, force evaluations = 217 1818

MPI task timing breakdown:
Section |  min time  |  avg time  |  max time  |%varavg| %total
---------------------------------------------------------------
Pair    | 39.244     | 41.566     | 43.24      |  23.9 | 77.27
Neigh   | 0          | 0          | 0          |   0.0 |  0.00
Comm    | 0.50141    | 2.1685     | 4.4909     | 104.6 |  4.03
Output  | 0.003537   | 0.0042875  | 0.0058715  |   1.1 |  0.01
Modify  | 9.9844     | 9.9879     | 9.992      |   0.1 | 18.57
Other   |            | 0.06749    |            |       |  0.13

Nlocal:    20.25 ave 34 max 6 min
Histogram: 2 0 2 0 0 0 0 1 1 2
Nghost:    873 ave 930 max 814 min
Histogram: 1 1 2 0 0 0 0 1 2 1
Neighs:    2751.38 ave 4521 max 890 min
Histogram: 2 0 1 1 0 0 0 1 1 2

Total # of neighbors = 22011
Ave neighs/atom = 135.87
Neighbor list builds = 0
Dangerous builds = 0

###
fix 1 all box/relax aniso 0.0
min_style cg
minimize 1.0e-8 1.0e-8 100000 100000
WARNING: Using 'neigh_modify every 1 delay 0 check yes' setting during minimization (../min.cpp:190)
WARNING: Total cutoff < 2*bond cutoff. May need to use an increased neighbor list skin. (../pair_reaxc.cpp:413)
Per MPI rank memory allocation (min/avg/max) = 22.46 | 23.44 | 24.37 Mbytes
Step Temp E_pair E_mol TotEng Press Volume 
     802            0   -29280.768            0   -29280.768     36999.93    3531.7291 
     909            0   -29291.648            0   -29291.648    2763.7611    3536.4439 
Loop time of 11.5613 on 8 procs for 107 steps with 162 atoms

98.8% CPU use with 8 MPI tasks x no OpenMP threads

Minimization stats:
  Stopping criterion = linesearch alpha is zero
  Energy initial, next-to-last, final = 
        -29280.7682433     -29291.6476621     -29291.6476621
  Force two-norm initial, final = 4143.92 549.285
  Force max component initial, final = 3540.83 306.518
  Final line search alpha, max atom move = 2.66184e-14 8.15902e-12
  Iterations, force evaluations = 107 423

MPI task timing breakdown:
Section |  min time  |  avg time  |  max time  |%varavg| %total
---------------------------------------------------------------
Pair    | 9.1741     | 9.6773     | 10.255     |  12.5 | 83.70
Neigh   | 0          | 0          | 0          |   0.0 |  0.00
Comm    | 0.051887   | 0.6282     | 1.1318     |  48.8 |  5.43
Output  | 0.0016022  | 0.0019908  | 0.0027826  |   0.8 |  0.02
Modify  | 1.2117     | 1.2127     | 1.2135     |   0.1 | 10.49
Other   |            | 0.04109    |            |       |  0.36

Nlocal:    20.25 ave 37 max 6 min
Histogram: 2 1 1 0 0 0 1 1 1 1
Nghost:    873.875 ave 938 max 814 min
Histogram: 1 2 1 0 0 0 0 2 1 1
Neighs:    2749.12 ave 4898 max 894 min
Histogram: 2 0 2 0 0 0 1 1 1 1

Total # of neighbors = 21993
Ave neighs/atom = 135.759
Neighbor list builds = 0
Dangerous builds = 0

unfix 1
###
min_style cg
minimize 1.0e-8 1.0e-8 100000 100000
WARNING: Using 'neigh_modify every 1 delay 0 check yes' setting during minimization (../min.cpp:190)
WARNING: Total cutoff < 2*bond cutoff. May need to use an increased neighbor list skin. (../pair_reaxc.cpp:413)
Per MPI rank memory allocation (min/avg/max) = 22.46 | 23.44 | 24.37 Mbytes
Step Temp E_pair E_mol TotEng Press 
     909            0   -29291.648            0   -29291.648    2763.7611 
     933            0   -29295.568            0   -29295.568    36003.394 
Loop time of 7.26179 on 8 procs for 24 steps with 162 atoms

98.8% CPU use with 8 MPI tasks x no OpenMP threads

Minimization stats:
  Stopping criterion = linesearch alpha is zero
  Energy initial, next-to-last, final = 
        -29291.6476621     -29295.5678529     -29295.5678529
  Force two-norm initial, final = 440.718 34.4182
  Force max component initial, final = 53.2734 9.43451
  Final line search alpha, max atom move = 4.69864e-12 4.43294e-11
  Iterations, force evaluations = 24 247

MPI task timing breakdown:
Section |  min time  |  avg time  |  max time  |%varavg| %total
---------------------------------------------------------------
Pair    | 5.2808     | 5.628      | 5.9291     |   9.6 | 77.50
Neigh   | 0          | 0          | 0          |   0.0 |  0.00
Comm    | 0.03177    | 0.33178    | 0.67909    |  39.5 |  4.57
Output  | 0.00049892 | 0.00058252 | 0.00079738 |   0.0 |  0.01
Modify  | 1.2917     | 1.2922     | 1.2929     |   0.0 | 17.79
Other   |            | 0.009291   |            |       |  0.13

Nlocal:    20.25 ave 37 max 6 min
Histogram: 2 1 1 0 0 0 1 1 1 1
Nghost:    871.625 ave 939 max 810 min
Histogram: 1 2 1 0 0 0 0 3 0 1
Neighs:    2740.62 ave 4890 max 889 min
Histogram: 2 0 2 0 0 0 1 1 1 1

Total # of neighbors = 21925
Ave neighs/atom = 135.34
Neighbor list builds = 0
Dangerous builds = 0

undump 1
#############
#----------- Thermo ------------
reset_timestep 0
thermo  200

thermo_style    custom step temp etotal ke pe press
velocity all create 300 12345 mom yes rot yes
fix 1 all npt temp 300 300 25.0 iso 0.0 0.0 250.0

variable vpe equal pe
variable vtemp equal temp
variable vstep equal step

fix output all print 2500 "${vstep} ${vtemp} ${vpe}" file temp-tpdh-Pt.dat screen no

dump 1 all custom 2500 thermo-tpdh-Pt.lammpstrj id type x y z

run 1000000
WARNING: Total cutoff < 2*bond cutoff. May need to use an increased neighbor list skin. (../pair_reaxc.cpp:413)
Per MPI rank memory allocation (min/avg/max) = 21.35 | 22.33 | 23.26 Mbytes
Step Temp TotEng KinEng PotEng Press 
       0          300   -29151.595    143.97313   -29295.568    37864.398 
     200    296.83822    -29225.37    142.45575   -29367.825    24701.376 
     400    373.89997   -29231.465    179.43849   -29410.904   -2298.6162 
     600    291.36211    -29264.56    139.82771   -29404.388    28498.002 
     800    274.55546   -29271.888    131.76202    -29403.65   -14993.482 
    1000    325.84622   -29240.874      156.377   -29397.251    11494.015 
    1200    253.61991   -29263.387    121.71484   -29385.102     9137.966 
    1400    292.14692   -29227.912    140.20435   -29368.116    1166.2029 
    1600    315.54433   -29216.542    151.43301   -29367.975   -10177.925 
    1800     271.3218   -29233.246    130.21016   -29363.456   -4925.3045 
    2000    314.50566   -29206.616    150.93454   -29357.551    4891.6674 
    2200    300.23262    -29206.08    144.08476   -29350.165   -2315.2954 
    2400    273.02084   -29220.457    131.02555   -29351.483   -58.077229 
    2600    292.91132   -29195.132    140.57119   -29335.703    -10366.69 
    2800    287.90444   -29175.555    138.16834   -29313.723   -5684.6621 
    3000    273.27825   -29180.278    131.14908   -29311.427    -6200.208 
    3200    264.43966   -29204.511    126.90735   -29331.418    6991.5685 
    3400    320.12367   -29181.125    153.63069   -29334.755   -16939.459 
    3600    318.28348   -29185.911    152.74756   -29338.659    6827.7445 
    3800    291.31768    -29196.21    139.80639   -29336.016    8927.2132 
    4000    280.04363   -29189.937    134.39585   -29324.333   -5533.6739 
    4200    328.14363   -29171.087    157.47954   -29328.566   -5483.5069 
    4400    282.18492   -29215.845    135.42348   -29351.268    4605.6305 
    4600    275.11826   -29206.798    132.03212    -29338.83    16108.587 
    4800     319.7148   -29190.608    153.43447   -29344.042    1416.7118 
    5000    305.40287   -29203.443    146.56602   -29350.009    24738.435 
    5200    278.67987   -29229.996    133.74137   -29363.738    6016.2059 
    5400    320.16508    -29204.12    153.65056   -29357.771   -17617.533 
    5600    325.98228   -29214.846    156.44229   -29371.288    17188.848 
    5800    297.71757    -29237.84    142.87776   -29380.718    5119.8046 
    6000    268.46853   -29254.345    128.84085   -29383.186   -30832.007 
    6200    306.11074   -29248.126    146.90573   -29395.031   -43041.212 
    6400    299.73873   -29239.564    143.84774   -29383.411    12765.206 
    6600    286.48289   -29264.663    137.48612    -29402.15    4013.9821 
    6800    277.75646   -29269.965    133.29822   -29403.263   -39070.095 
    7000    313.00648   -29231.286    150.21507   -29381.501    2612.4835 
    7200    291.14837   -29202.927    139.72514   -29342.653    24588.517 
    7400    337.79682    -29206.15    162.11221   -29368.262    50249.759 
    7600    314.92479   -29230.451    151.13569   -29381.587    27652.006 
    7800    294.81196   -29252.563    141.48333   -29394.046    41153.495 
    8000    291.96346   -29257.795    140.11631   -29397.912    10842.996 
    8200    299.43931    -29227.39    143.70404   -29371.094    13306.287 
    8400    304.56496   -29223.243     146.1639   -29369.407   -3850.1222 
    8600    309.48043    -29213.64    148.52288   -29362.162   -723.46098 
    8800    284.64493   -29235.442    136.60407   -29372.046   -8575.7414 
    9000    299.86914   -29206.784    143.91032   -29350.695   -10764.528 
    9200    292.69089   -29214.797    140.46541   -29355.262    18459.388 
    9400     290.8293   -29233.792    139.57201   -29373.364   -8201.5967 
    9600    292.87095   -29218.603    140.55182   -29359.155   -35420.926 
    9800    314.55466   -29202.505    150.95806   -29353.463   -27285.983 
   10000    267.92634   -29237.029    128.58064   -29365.609    17823.151 
   10200     322.0145   -29213.994    154.53812   -29368.532   -22824.076 
   10400     304.0018    -29217.77    145.89363   -29363.664    17507.105 
   10600    283.30263   -29216.035    135.95988   -29351.995   -28679.902 
   10800    311.82227   -29219.735    149.64675   -29369.382    2289.2002 
   11000    282.54146   -29243.092    135.59459   -29378.687   -15706.109 
   11200    303.17203   -29219.027    145.49542   -29364.523   -2804.1761 
   11400    288.03952   -29219.938    138.23317   -29358.171    5047.0271 
   11600    279.54994   -29234.809    134.15893   -29368.968   -16991.726 
   11800    288.09742   -29236.484    138.26096   -29374.745    -9207.208 
   12000    282.99409   -29234.977    135.81181   -29370.788    3054.2369 
   12200    278.72785   -29259.183     133.7644   -29392.947     1933.072 
   12400    275.59383   -29238.362    132.26035   -29370.622     4012.196 
   12600    300.51708   -29242.042    144.22128   -29386.264    2130.1243 
   12800    268.00597     -29261.5    128.61886   -29390.119   -20254.852 
   13000    283.86133   -29232.522    136.22801    -29368.75    19957.582 
   13200    327.48822   -29212.867    157.16501   -29370.032   -27330.209 
   13400    261.17781   -29246.333    125.34195   -29371.675   -3600.7896 
   13600    302.38259   -29229.194    145.11655    -29374.31    11018.862 
   13800    286.64571   -29214.989    137.56426   -29352.553   -5618.5195 
   14000    292.55225    -29229.46    140.39887   -29369.859   -11243.951 
   14200    280.27595   -29257.041    134.50735   -29391.549   -21576.133 
   14400    311.91079   -29225.301    149.68924    -29374.99    13929.944 
   14600    306.19665   -29211.955    146.94696   -29358.902    3701.6606 
   14800    263.75593   -29244.989    126.57922   -29371.568    5970.1981 
   15000    298.02378   -29229.763    143.02472   -29372.787    -22739.69 
   15200    295.34135   -29221.469    141.73739   -29363.206   -39667.654 
   15400    300.68738   -29210.186    144.30301   -29354.489   -7634.0393 
   15600    336.09019   -29193.702    161.29318   -29354.995   -15001.344 
   15800    304.12753    -29222.41    145.95397   -29368.364    6813.8131 
   16000     281.8868   -29224.647    135.28041   -29359.927   -48536.116 
   16200    341.84704   -29199.361    164.05595   -29363.417    15876.753 
   16400    304.88679   -29207.145    146.31835   -29353.464    2685.1156 
   16600    285.04702   -29224.036    136.79704   -29360.833    42228.819 
   16800    317.09618   -29206.875    152.17776   -29359.053    12304.814 
   17000    309.25245   -29224.274    148.41347   -29372.687    27136.561 
   17200    302.25347   -29225.036    145.05459   -29370.091    7608.7218 
   17400    304.11248   -29205.483    145.94675    -29351.43   -33652.778 
   17600    304.20686   -29223.493    145.99204   -29369.485    33710.979 
   17800    296.07933   -29224.351    142.09156   -29366.442   -29293.968 
   18000    302.11431   -29225.484     144.9878   -29370.472    9406.5739 
   18200    308.36287   -29207.866    147.98655   -29355.853    28513.325 
   18400    317.81886   -29224.669    152.52458   -29377.194   -4051.9057 
   18600    312.90976   -29240.384    150.16865   -29390.552   -5387.8666 
   18800     269.7199   -29219.955    129.44139   -29349.396   -22825.186 
   19000    322.69355   -29205.899      154.864   -29360.763   -71807.512 
   19200    283.46519   -29238.204     136.0379   -29374.241   -25045.876 
   19400    278.51391   -29245.693    133.66173   -29379.354    17788.151 
   19600    335.96284    -29208.94    161.23207   -29370.172   -52607.407 
   19800    295.01146   -29232.727    141.57907   -29374.306    32581.412 
   20000    302.08657   -29234.514    144.97449   -29379.488    11010.853 
   20200     333.8247   -29202.225    160.20595   -29362.431    10991.991 
   20400    292.20217   -29219.624    140.23086   -29359.855    37015.594 
   20600     308.1211   -29233.337    147.87053   -29381.208    36301.895 
   20800     305.5162   -29205.082    146.62041   -29351.703    65058.684 
   21000    302.87121   -29225.819    145.35105    -29371.17    15448.419 
   21200     299.4313   -29228.094     143.7002   -29371.795   -22980.547 
   21400    330.16813   -29205.583    158.45113   -29364.034   -463.90993 
   21600    273.99286   -29238.508    131.49203       -29370    21981.409 
   21800    301.08782    -29232.19    144.49518   -29376.685    2503.8992 
   22000    300.74263   -29210.949    144.32952   -29355.279    2450.3156 
   22200    267.39205   -29250.822    128.32423   -29379.147   -5355.1734 
   22400     292.8205   -29226.379    140.52761   -29366.906     38521.59 
   22600    287.79881   -29215.693    138.11765   -29353.811    3488.1346 
   22800    275.65852   -29244.474    132.29139   -29376.765    21569.192 
   23000    299.18916   -29218.162    143.58399   -29361.746    22998.138 
   23200    300.37087   -29219.438    144.15111   -29363.589    3673.9472 
   23400    277.79651   -29243.815    133.31744   -29377.132    -24040.36 
   23600    308.22575   -29213.029    147.92075    -29360.95    359.73467 
   23800    311.20029   -29207.775    149.34826   -29357.123   -17936.114 
   24000    289.91831   -29233.682    139.13482   -29372.816   -21341.036 
   24200    303.67903    -29202.81    145.73873   -29348.548   -5015.0545 
   24400     316.5435   -29211.771    151.91252   -29363.684   -26661.704 
   24600    295.67004   -29226.846    141.89513   -29368.741   -32304.734 
   24800    331.49802   -29221.913    159.08935   -29381.003    246.19439 
   25000    324.86455   -29199.733    155.90588   -29355.638    17489.338 
   25200    294.85395   -29210.307    141.50348   -29351.811   -32495.903 
   25400    304.07638   -29234.377    145.92942   -29380.307   -13578.525 
   25600     284.3474   -29239.395    136.46128   -29375.856   -43199.642 
   25800    324.19855   -29208.714    155.58626     -29364.3    18183.091 
   26000    289.87303   -29214.059    139.11309   -29353.172    -28323.42 
   26200    272.18792   -29234.434    130.62582    -29365.06    14532.156 
   26400    301.80052   -29228.145    144.83722   -29372.983    23046.351 
   26600    320.19622   -29212.661     153.6655   -29366.326   -3528.8731 
   26800    305.88219   -29200.011    146.79605   -29346.807     25034.14 
   27000    312.62776   -29235.236    150.03332   -29385.269   -13232.493 
   27200    296.41336   -29251.706    142.25186   -29393.958    2066.3358 
   27400    287.86127   -29218.139    138.14762   -29356.287    7985.1218 
   27600    316.73871   -29231.104    152.00621    -29383.11   -8932.4466 
   27800     285.2758   -29245.392    136.90683   -29382.299     2973.598 
   28000    297.16763    -29237.73    142.61384   -29380.344   -25136.984 
   28200    300.67683   -29208.693    144.29795   -29352.991    5671.2211 
   28400     323.5197   -29214.743    155.26047   -29370.003   -26869.362 
   28600    303.00045   -29240.328    145.41307   -29385.741    1493.8173 
   28800     289.0603    -29230.08    138.72305   -29368.803   -2160.3058 
   29000    328.89531   -29209.459    157.84029     -29367.3    37374.312 
   29200    303.13942   -29234.368    145.47977   -29379.848    1060.1723 
   29400    308.34545   -29238.649    147.97819   -29386.627    15785.568 
   29600    291.22559   -29238.854    139.76219   -29378.616   -12851.799 
   29800    322.35724   -29220.577     154.7026   -29375.279   -18905.937 
   30000    296.17486   -29256.863     142.1374   -29399.001   -7311.1796 
   30200     274.2383   -29243.026    131.60982   -29374.636    4117.2052 
   30400    312.51885   -29226.293    149.98105   -29376.275   -25040.122 
   30600    329.20756   -29229.604    157.99014   -29387.594    16666.241 
   30800    333.48228   -29211.268    160.04162   -29371.309   -11377.326 
   31000    284.38107   -29233.007    136.47744   -29369.484   -28522.224 
   31200    313.25225   -29234.534    150.33302   -29384.867     306.7109 
   31400    321.77907   -29201.502    154.42513   -29355.927   -48203.218 
   31600    288.31051   -29216.913    138.36322   -29355.276    1642.9516 
   31800    283.94501   -29229.168    136.26817   -29365.437   -8469.3459 
   32000    332.31847   -29201.243     159.4831   -29360.727    13064.545 
   32200    330.10802    -29221.72    158.42228   -29380.142   -4755.2531 
   32400     302.3396   -29229.149    145.09592   -29374.245   -576.79607 
   32600    292.26574   -29205.838    140.26137   -29346.099   -12917.918 
   32800    326.31595   -29206.666    156.60242   -29363.268    13081.266 
   33000     314.0477   -29236.457    150.71477   -29387.172   -18133.555 
   33200    286.65759   -29231.356    137.56996   -29368.926   -55.913214 
   33400    299.12356   -29205.176    143.55251   -29348.728    7302.5375 
   33600    314.15926   -29229.251     150.7683    -29380.02    6514.3702 
   33800    284.87766   -29232.254    136.71576    -29368.97   -2201.1317 
   34000     293.0987   -29199.138    140.66112   -29339.799   -4116.0346 
   34200    337.90268   -29207.772    162.16301   -29369.935    3654.9507 
   34400    293.72385   -29232.593    140.96113   -29373.554    14123.314 
   34600    308.22153   -29203.976    147.91873   -29351.894    -24867.58 
   34800    314.72466   -29208.872    151.03964   -29359.912   -28369.028 
   35000    299.39573   -29231.645    143.68313   -29375.328    -10106.66 
   35200    309.39705   -29217.332    148.48287   -29365.815    18325.803 
   35400    296.96782   -29208.133    142.51795    -29350.65   -11945.934 
   35600    274.14954   -29235.278    131.56722   -29366.845    42755.407 
   35800    317.53912   -29218.537    152.39033   -29370.927   -21206.722 
   36000    315.22173   -29214.827    151.27819   -29366.105   -17790.099 
   36200    276.63917   -29229.837    132.76202   -29362.599   -245.09317 
   36400    283.64239   -29217.251    136.12294   -29353.374   -22352.834 
   36600    298.24062   -29230.949    143.12878   -29374.078   -16468.227 
   36800    302.01952   -29220.385    144.94232   -29365.327    18672.393 
   37000    293.43269    -29205.78    140.82141   -29346.601    3274.2138 
   37200    326.24556   -29225.284    156.56864   -29381.853    11965.629 
   37400    309.36888   -29224.965    148.46935   -29373.435   -3751.3617 
   37600    317.30284   -29196.476    152.27694   -29348.753    20329.018 
   37800    336.16038   -29200.454    161.32687   -29361.781    30951.161 
   38000    283.53766   -29215.728    136.07268   -29351.801   -3158.3617 
   38200    304.39273   -29223.748    146.08124    -29369.83     48328.33 
   38400    295.02343   -29233.387    141.58482   -29374.972     13869.46 
   38600    318.83702   -29203.763    153.01321   -29356.776    7459.3247 
   38800    263.31835   -29226.502    126.36922   -29352.871   -19497.716 
   39000    326.04792   -29224.275    156.47379   -29380.748   -24594.511 
   39200    326.52051   -29190.413     156.7006   -29347.114   -16496.364 
   39400     288.1022   -29204.603    138.26325   -29342.866   -18923.338 
   39600    289.81346   -29228.875     139.0845    -29367.96   -46177.663 
   39800    309.14407    -29213.44    148.36146   -29361.802    11004.695 
   40000    321.97337   -29206.019    154.51837   -29360.537   -551.75598 
   40200    314.07887   -29224.858    150.72972   -29375.587     14187.82 
   40400     312.0324   -29216.946     149.7476   -29366.694    3423.5062 
   40600     329.2633   -29178.701    158.01689   -29336.718    2940.8741 
   40800    318.10124   -29212.579     152.6601   -29365.239    18923.464 
   41000    288.77826   -29233.232    138.58769    -29371.82    4014.3293 
   41200    298.37435   -29212.081    143.19296   -29355.274   -11889.965 
   41400    306.48714   -29211.486    147.08637   -29358.572    20684.738 
   41600    302.00076   -29231.375    144.93331   -29376.308   -13883.363 
   41800    287.32854   -29217.436    137.89196   -29355.328   -10503.779 
   42000    305.12409    -29234.23    146.43223   -29380.662     42235.37 
   42200    305.82143   -29241.595    146.76689   -29388.362   -18465.956 
   42400    299.15037   -29216.188    143.56538   -29359.754    35737.262 
   42600    287.24994   -29225.969    137.85424   -29363.823    -18412.39 
   42800    316.74638   -29233.572    152.00989   -29385.582   -32914.273 
   43000    351.10848   -29199.766    168.50062   -29368.266   -43175.213 
   43200    278.79409   -29231.244    133.79619    -29365.04   -1458.7208 
   43400    284.98291   -29229.699    136.76627   -29366.465    32845.506 
   43600    318.10413   -29201.003    152.66149   -29353.664     -15526.7 
   43800    305.59055   -29239.691    146.65609   -29386.347    8609.0728 
   44000    314.25335   -29220.924    150.81346   -29371.737   -1364.5447 
   44200    321.53387   -29208.292    154.30745     -29362.6   -2654.3254 
   44400    277.01701   -29244.137    132.94335    -29377.08    19082.075 
   44600    303.28258   -29220.855    145.54847   -29366.403   -28837.524 
   44800    297.16517   -29215.921    142.61266   -29358.534   -5570.9265 
   45000    264.88006   -29235.747     127.1187   -29362.866   -42141.735 
   45200    271.13498   -29245.355     130.1205   -29375.475   -24289.083 
   45400    292.31432    -29220.81    140.28469   -29361.095   -26182.107 
   45600    304.51278   -29216.662    146.13885     -29362.8    15065.564 
   45800    274.00242   -29247.367    131.49662   -29378.864    19693.564 
   46000    326.41185   -29222.003    156.64845   -29378.652   -39304.241 
   46200    323.02823   -29224.265    155.02461    -29379.29     15080.74 
   46400    287.38051   -29230.766     137.9169   -29368.683     19161.62 
   46600    316.72807   -29209.119     152.0011    -29361.12   -9523.7225 
   46800    266.32671   -29230.974    127.81296   -29358.787   -14158.129 
   47000    306.68238   -29234.744    147.18007   -29381.924   -4961.3121 
   47200    315.70667   -29214.371    151.51092   -29365.882   -13535.285 
   47400    297.90568     -29219.9    142.96804   -29362.868    23148.049 
   47600    284.69088   -29230.358    136.62612   -29366.984   -2510.7867 
   47800    348.71949   -29200.881    167.35412   -29368.235    24499.972 
   48000    278.30271   -29219.332    133.56037   -29352.892   -23832.041 
   48200     282.5299   -29224.064    135.58904   -29359.653   -1523.1486 
   48400    304.63908    -29210.61    146.19947   -29356.809    26490.047 
   48600    332.37385    -29194.28    159.50967   -29353.789   -6096.7498 
   48800    296.44139   -29228.169    142.26531   -29370.435    16097.315 
   49000    319.30255    -29213.04    153.23662   -29366.277    7047.2631 
   49200    357.06813   -29199.113    171.36072   -29370.473    39130.029 
   49400    320.18906   -29231.513    153.66206   -29385.175    17187.333 
   49600    286.15761   -29214.789    137.33002   -29352.119    3039.1999 
   49800    305.86547   -29204.023    146.78802   -29350.811   -6821.1051 
   50000    301.48504   -29221.647    144.68581   -29366.333    20700.818 
   50200    286.41477   -29236.087    137.45343   -29373.541   -9292.3532 
   50400    270.60792   -29243.339    129.86756   -29373.207    30476.265 
   50600    313.75968   -29217.685    150.57654   -29368.262    11762.781 
   50800    266.92546    -29233.25    128.10031    -29361.35   -7885.3781 
   51000    308.47693    -29251.12    148.04129   -29399.162   -10165.052 
   51200    321.73369   -29218.695    154.40335   -29373.098   -11049.551 
   51400    287.37332   -29231.846    137.91345    -29369.76    21449.649 
   51600    282.97242    -29248.48    135.80141   -29384.282    31630.251 
   51800    287.41696   -29226.714    137.93439   -29364.648    5429.6926 
   52000    285.09681    -29219.37    136.82093   -29356.191   -3783.4138 
   52200    284.04048   -29255.054    136.31399   -29391.368    6034.0375 
   52400    293.30755   -29244.373    140.76135   -29385.135   -28518.308 
   52600    284.36417   -29220.812    136.46933   -29357.281    10956.237 
   52800    311.65224    -29243.93    149.56516   -29393.495     1987.526 
   53000    273.06297   -29241.653    131.04576   -29372.699   -17427.345 
   53200    294.76118   -29222.616    141.45896   -29364.075    25265.752 
   53400     274.0251   -29226.253     131.5075    -29357.76   -4749.1691 
   53600    274.00008   -29250.926     131.4955   -29382.421   -10604.319 
   53800    331.34846    -29220.74    159.01758   -29379.758   -29696.692 
   54000    288.43725   -29223.662    138.42404   -29362.086   -1917.4718 
   54200    252.57504   -29256.656    121.21339   -29377.869    22058.154 
   54400    318.92844   -29225.396    153.05708   -29378.453    23740.906 
   54600    305.75357   -29218.369    146.73432   -29365.104    4700.3382 
   54800    288.01193   -29243.967    138.21993   -29382.186   -6218.5665 
   55000     299.5469   -29228.909    143.75568   -29372.664   -33974.816 
   55200    288.22114    -29218.07    138.32033    -29356.39    6809.4287 
   55400     293.2641   -29238.865     140.7405   -29379.605    27127.263 
   55600    303.31387   -29217.503    145.56349   -29363.067    6605.5254 
   55800    276.06332   -29204.768    132.48566   -29337.254   -48796.313 
   56000    288.27482   -29234.512    138.34609   -29372.858    13559.179 
   56200    296.69987   -29225.391    142.38936    -29367.78    -9319.283 
   56400    322.33396   -29218.399    154.69142   -29373.091   -39829.615 
   56600    283.03494   -29229.729    135.83142   -29365.561   -14781.703 
   56800    255.04609     -29258.2    122.39928     -29380.6    28251.477 
   57000     311.8616    -29222.83    149.66563   -29372.496   -38636.132 
   57200    327.24309   -29215.443    157.04737   -29372.491    3743.1095 
   57400    287.71394   -29227.658    138.07692   -29365.735    10726.851 
   57600    294.16872   -29233.149    141.17463   -29374.323   -15101.738 
   57800    328.04235   -29205.103    157.43094   -29362.534   -11511.991 
   58000    305.64044   -29222.109    146.68003   -29368.789   -21557.138 
   58200    293.98098   -29221.089    141.08454   -29362.174     2370.397 
   58400    322.08915   -29205.445    154.57394   -29360.019   -27833.521 
   58600    261.22105   -29233.879    125.36271   -29359.242   -779.69543 
   58800     354.3586   -29213.963    170.06039   -29384.023      17617.5 
   59000    322.20953   -29202.137    154.63171   -29356.769    11333.342 
   59200    286.99265   -29225.268    137.73076   -29362.999     7519.595 
   59400    292.47122   -29213.441    140.35998   -29353.801     37481.88 
   59600    322.02332    -29203.04    154.54235   -29357.582   -22603.492 
   59800    292.32621   -29226.628    140.29039   -29366.919   -390.03739 
   60000     295.3669   -29216.907    141.74965   -29358.656    20679.291 
   60200    298.30413   -29233.138    143.15926   -29376.298    -39708.21 
   60400    289.70261   -29232.807     139.0313   -29371.838   -22659.806 
   60600    331.20446     -29212.6    158.94847   -29371.548   -21652.124 
   60800    273.73042    -29233.45    131.36608   -29364.816   -1223.2935 
   61000    305.20878   -29229.135    146.47287   -29375.607   -3139.0661 
   61200     284.4635   -29226.805      136.517   -29363.322   -42038.663 
   61400    304.26428   -29230.647     146.0196   -29376.666   -14014.114 
   61600    293.51436   -29233.197     140.8606   -29374.057   -2449.3867 
   61800    320.33395   -29212.102     153.7316   -29365.833    -12556.23 
   62000    273.39505   -29246.903    131.20513   -29378.109    15187.144 
   62200    290.05483   -29228.445    139.20033   -29367.645    19730.265 
   62400     278.6251    -29232.44    133.71509   -29366.155    25915.885 
   62600    282.57759   -29251.234    135.61193   -29386.846    34174.472 
   62800    302.96603   -29229.069    145.39655   -29374.466   -34551.831 
   63000    301.81597   -29229.842    144.84463   -29374.687   -1614.6226 
   63200    280.60537   -29240.887    134.66544   -29375.553    19104.336 
   63400    346.11624   -29219.114    166.10479   -29385.219    4954.9374 
   63600     296.1363   -29228.992     142.1189   -29371.111   -65058.315 
   63800    304.04104   -29241.944    145.91246   -29387.857   -18086.046 
   64000    309.53828    -29222.26    148.55064    -29370.81   -2289.2708 
   64200    310.48064   -29235.429    149.00289   -29384.432    52664.505 
   64400    309.28971   -29242.266    148.43136   -29390.697   -12601.892 
   64600    305.60585   -29218.575    146.66343   -29365.239    5572.0973 
   64800     313.7892   -29229.574     150.5907   -29380.165    -26781.15 
   65000     260.5963   -29255.072    125.06288   -29380.135    6713.1956 
   65200    293.95693   -29226.415    141.07299   -29367.488    12832.525 
   65400    319.49186   -29217.899    153.32747   -29371.226   -27523.842 
   65600    329.14528   -29197.671    157.96025   -29355.632    7568.0088 
   65800    302.91432   -29232.053    145.37174   -29377.425    6651.2988 
   66000    286.84493   -29224.122    137.65987   -29361.781    8247.4562 
   66200    330.87678   -29197.637    158.79121   -29356.428   -1098.6849 
   66400    288.51835   -29235.549    138.46296   -29374.011    19199.136 
   66600    331.09663    -29222.14    158.89672   -29381.037    2171.4533 
   66800    332.14722   -29212.601    159.40091   -29372.002   -5813.1876 
   67000    270.59046   -29242.463    129.85918   -29372.322   -4467.0508 
   67200    298.02209   -29220.282    143.02391   -29363.306   -23361.538 
   67400    303.38017   -29225.877     145.5953   -29371.472    15141.124 
   67600    260.01698   -29240.999    124.78486   -29365.784   -530.63752 
   67800    290.08665   -29214.644     139.2156    -29353.86   -13654.413 
   68000    315.69681    -29221.18    151.50619   -29372.686   -65962.605 
   68200    262.69848   -29258.444    126.07174   -29384.516    17957.941 
   68400    287.37902   -29227.969    137.91619   -29365.885    156.69983 
   68600    324.30533   -29212.891    155.63751   -29368.528   -12378.497 
   68800    282.92884   -29246.634     135.7805   -29382.415    42333.486 
   69000    272.38925   -29231.459    130.72244   -29362.181    16542.129 
   69200    322.18505   -29222.454    154.61996   -29377.073    56135.796 
   69400    294.47122   -29232.569    141.31981   -29373.889   -14383.937 
   69600    286.29552    -29235.07     137.3962   -29372.466   -41360.447 
   69800    301.78877   -29211.952    144.83157   -29356.783   -19362.069 
   70000    273.71629   -29248.783     131.3593   -29380.142   -40709.113 
   70200     304.4389    -29226.86     146.1034   -29372.964   -8399.4757 
   70400    294.51148   -29225.266    141.33913   -29366.605    26147.679 
   70600    268.46484   -29244.324    128.83908   -29373.163    3357.2672 
   70800    343.81467   -29216.768    165.00024   -29381.768     7315.553 
   71000    284.02817   -29225.643    136.30808   -29361.951   -19072.526 
   71200     277.4377   -29244.149    133.14524   -29377.294    1254.1178 
   71400    308.35984   -29220.647     147.9851   -29368.632   -7357.8661 
   71600    310.05987   -29215.633    148.80096   -29364.434   -17269.597 
   71800    264.79715   -29249.023    127.07891   -29376.101    373.34446 
   72000    311.39662   -29225.541    149.44248   -29374.984   -18300.781 
   72200    294.25522   -29219.783    141.21615   -29360.999   -12864.001 
   72400    311.05555    -29232.42     149.2788   -29381.699    42585.695 
   72600    270.68485   -29256.358    129.90448   -29386.262   -8400.0106 
   72800    288.01918   -29228.061    138.22341   -29366.284   -2709.4301 
   73000    312.03341   -29210.911    149.74808   -29360.659    5325.9508 
   73200    306.40688   -29199.783    147.04785   -29346.831    16854.089 
   73400    292.26374   -29231.903    140.26041   -29372.163   -15376.298 
   73600     290.1845   -29206.312    139.26256   -29345.575   -48822.834 
   73800    320.90673   -29212.403    154.00648    -29366.41    26187.054 
   74000    309.86233   -29224.295    148.70616   -29373.001   -16906.472 
   74200    332.12441   -29209.286    159.38996   -29368.676   -1147.6043 
   74400    302.42637   -29210.709    145.13757   -29355.847   -5924.3009 
   74600    287.17923   -29232.576    137.82031   -29370.396   -2801.5374 
   74800    314.12803   -29210.187    150.75331    -29360.94   -18338.844 
   75000    271.71952   -29238.142    130.40103   -29368.543    6091.6513 
   75200    324.35588   -29232.563    155.66176   -29388.225    13546.365 
   75400    300.58193    -29210.13     144.2524   -29354.383   -30380.985 
   75600    301.20372   -29239.221     144.5508   -29383.772    6960.6412 
   75800    284.43034   -29234.852    136.50109   -29371.353   -4953.2794 
   76000    299.21138   -29217.297    143.59466   -29360.892   -10507.377 
   76200    288.21927   -29246.116    138.31943   -29384.436     9608.305 
   76400    306.81984   -29236.772    147.24604   -29384.018    39679.425 
   76600    293.91065   -29223.757    141.05078   -29364.808    29153.604 
   76800    289.06725   -29245.759    138.72639   -29384.485    -134.0375 
   77000    286.59628   -29245.191    137.54054   -29382.732   -40689.408 
   77200    289.73507   -29227.291    139.04688   -29366.338    -6523.196 
   77400    306.77827   -29217.856    147.22609   -29365.082    26615.817 
   77600    330.64491   -29204.656    158.67994   -29363.336    24502.319 
   77800    280.91434   -29238.572    134.81372   -29373.386    21523.379 
   78000    295.69296    -29216.92    141.90613   -29358.826    20065.327 
   78200    312.05106   -29215.405    149.75656   -29365.162     28804.31 
   78400    296.62893   -29223.518    142.35531   -29365.873   -11440.588 
   78600     279.3811    -29240.79     134.0779   -29374.868   -25577.192 
   78800    271.75405   -29224.083     130.4176   -29354.501    27602.988 
   79000    332.18146     -29212.4    159.41734   -29371.817    32533.895 
   79200    294.39141   -29233.264    141.28151   -29374.546   -4094.0946 
   79400    264.52077   -29250.798    126.94628   -29377.744   -23735.576 
   79600     312.1963   -29226.088    149.82626   -29375.914    970.43205 
   79800    309.26836   -29214.149    148.42111    -29362.57   -35685.944 
   80000    268.38983   -29246.499    128.80307   -29375.302    13933.475 
   80200     317.6767   -29219.102    152.45636   -29371.559    19523.831 
   80400    304.09555   -29222.178    145.93862   -29368.117   -7915.3387 
   80600    276.66652   -29251.035    132.77515    -29383.81   -5080.2186 
   80800    307.56124   -29217.552    147.60185   -29365.154   -25620.918 
   81000    295.29892   -29224.323    141.71703    -29366.04    1761.4413 
   81200    296.22669    -29242.84    142.16227   -29385.002   -19147.786 
   81400    326.02153   -29214.108    156.46113   -29370.569   -6711.3947 
   81600    301.23228   -29229.753    144.56451   -29374.317   -19277.105 
   81800    291.73718   -29239.398    140.00771   -29379.405   -42304.795 
   82000    295.57534   -29225.248    141.84969   -29367.097   -3708.4863 
   82200    316.60553   -29236.975    151.94229   -29388.917   -24031.212 
   82400    280.02712   -29241.426    134.38793   -29375.814    10022.108 
   82600    308.11616   -29216.628    147.86816   -29364.496   -23338.213 
   82800    301.96624   -29228.769    144.91674   -29373.685    49545.062 
   83000     306.5131   -29233.667    147.09883   -29380.766   -7565.2321 
   83200    272.48118   -29266.568    130.76656   -29397.335   -7463.6917 
   83400    284.10364   -29240.079     136.3443   -29376.423   -41529.226 
   83600    309.67239   -29224.832    148.61501   -29373.447    11452.534 
   83800     305.6246   -29234.138    146.67243   -29380.811    8727.4099 
   84000    296.53037    -29251.26    142.30801   -29393.568    10149.548 
   84200    308.10805   -29221.285    147.86426    -29369.15   -4045.4769 
   84400    294.94207   -29238.033    141.54577   -29379.579   -9984.2793 
   84600    311.51702   -29244.624    149.50026   -29394.125   -26891.712 
   84800    326.45553   -29211.476    156.66941   -29368.145   -17497.341 
   85000    292.73992   -29242.515    140.48894   -29383.004    38221.833 
   85200    294.83698    -29239.51    141.49534   -29381.005    3886.1709 
   85400    333.42821   -29211.438    160.01567   -29371.453   -24523.379 
   85600    307.38085   -29237.113    147.51527   -29384.629    -36669.85 
   85800    297.98051   -29237.163    143.00395   -29380.167   -21503.192 
   86000    316.47616   -29210.098     151.8802   -29361.978    7174.0352 
   86200    297.87102   -29225.518     142.9514    -29368.47   -53324.908 
   86400    301.23382   -29230.379    144.56525   -29374.944    1747.2323 
   86600    345.72972   -29212.638    165.91929   -29378.557    36612.309 
   86800    310.87152   -29216.328    149.19048   -29365.519    32926.117 
   87000    268.39392   -29237.652    128.80504   -29366.457    2731.7402 
   87200     303.1275   -29210.697    145.47405   -29356.171   -14147.108 
   87400    301.37511   -29216.677    144.63305    -29361.31    7094.3781 
   87600    314.53289   -29229.733    150.94761   -29380.681   -2463.7773 
   87800    301.30982   -29238.398    144.60172       -29383   -19674.408 
   88000    326.16048   -29207.116    156.52781   -29363.644   -4100.2278 
   88200    313.17108    -29214.96    150.29407   -29365.254   -21168.622 
   88400    259.03514   -29241.192    124.31366   -29365.506    31095.073 
   88600    319.25698   -29217.521    153.21475   -29370.735   -22135.623 
   88800    312.67303     -29209.3    150.05505   -29359.355   -14485.602 
   89000    290.88533   -29246.685     139.5989   -29386.284   -20243.437 
   89200    295.04066   -29222.402    141.59308   -29363.995    1661.9867 
   89400    309.49194   -29207.927    148.52841   -29356.455   -6570.1534 
   89600    290.45433   -29227.391    139.39206   -29366.783   -38797.629 
   89800    288.21872   -29236.619    138.31917   -29374.938    23566.352 
   90000    275.33839   -29204.853    132.13776   -29336.991   -70360.366 
   90200    307.54373   -29215.759    147.59344   -29363.352   -1256.6598 
   90400    257.07672   -29244.115    123.37379   -29367.489   -8146.1665 
   90600    315.64553   -29215.102    151.48158   -29366.583    8290.1898 
   90800    305.43104   -29204.531    146.57954    -29351.11    177.49325 
   91000    290.44318   -29235.129    139.38671   -29374.516   -17872.177 
   91200    273.91095     -29224.4    131.45272   -29355.853    13197.652 
   91400    291.84305   -29214.879    140.05852   -29354.937   -10285.703 
   91600    322.41883   -29211.544    154.73215   -29366.276    -3316.717 
   91800    294.39976   -29239.527    141.28551   -29380.812    25107.592 
   92000    295.50916   -29210.628    141.81793   -29352.446    13146.772 
   92200    302.45793   -29220.047    145.15271   -29365.199   -16203.805 
   92400    289.27636   -29240.215    138.82674   -29379.042   -26843.187 
   92600    307.60997   -29203.839    147.62523   -29351.464    7077.9712 
   92800    312.90947   -29228.329    150.16852   -29378.497    -11951.76 
   93000    270.30025   -29229.431    129.71991    -29359.15   -36778.039 
   93200    314.55714   -29215.565    150.95925   -29366.524   -6099.7059 
   93400    300.93438   -29220.569    144.42154    -29364.99    10008.882 
   93600    295.66488   -29238.222    141.89265   -29380.114    30174.486 
   93800    314.98061   -29216.887    151.16248    -29368.05   -15400.148 
   94000    278.52674   -29215.945    133.66788   -29349.613   -4688.3825 
   94200    272.12661   -29233.288     130.5964   -29363.884   -7718.6977 
   94400    322.58283   -29194.266    154.81086   -29349.077    11868.345 
   94600    297.08273   -29228.693     142.5731   -29371.266    -15736.34 
   94800    301.43237   -29223.346    144.66053   -29368.006   -2156.1214 
   95000    317.91537    -29192.87     152.5709   -29345.441    22390.951 
   95200    289.39659   -29227.183    138.88444   -29366.067     22607.41 
   95400    304.24341   -29224.476    146.00958   -29370.485   -29603.064 
   95600    350.70017   -29208.157    168.30466   -29376.461   -8831.9769 
   95800    286.55983   -29234.336    137.52305   -29371.859   -24912.687 
   96000    304.39233   -29230.316    146.08105   -29376.397   -4686.5187 
   96200    325.71231   -29215.533    156.31273   -29371.846    -6010.582 
   96400    308.77586    -29225.47    148.18475   -29373.655   -7335.0268 
   96600    293.58089   -29233.186    140.89253   -29374.079    35089.376 
   96800    302.95444   -29224.285    145.39099   -29369.676   -23321.045 
   97000    310.84029   -29212.021    149.17549   -29361.197   -11862.027 
   97200    286.73174   -29241.749    137.60555   -29379.355    11761.758 
   97400    301.22532   -29222.389    144.56117    -29366.95    45251.253 
   97600    299.61904   -29224.135     143.7903   -29367.925   -25084.558 
   97800    320.31445   -29222.594    153.72224   -29376.316    5680.5632 
   98000    320.41588   -29206.753    153.77092   -29360.524    11151.466 
   98200    312.19238   -29237.206    149.82437    -29387.03    45350.834 
   98400    291.52584   -29223.551    139.90629   -29363.457   -11735.161 
   98600    333.58669   -29207.747    160.09173   -29367.839   -30778.907 
   98800      282.358    -29234.34    135.50654   -29369.846    26185.105 
   99000    315.37883   -29232.465    151.35359   -29383.818    51545.042 
   99200     319.0454   -29211.141    153.11321   -29364.254    13473.406 
   99400    269.89905   -29239.486    129.52737   -29369.013    3859.6215 
   99600    283.81028   -29229.506    136.20351   -29365.709   -2513.6336 
   99800    310.99154   -29222.232    149.24808    -29371.48   -20771.021 
  100000    294.99778   -29227.198    141.57251   -29368.771    64428.647 
  100200    321.74339   -29227.103    154.40801   -29381.511    15503.637 
  100400    299.34235   -29228.624    143.65751   -29372.281    20572.833 
  100600    305.69384   -29232.722    146.70566   -29379.427   -25605.751 
  100800    303.77486   -29222.123    145.78472   -29367.908    20163.125 
  101000    317.16617   -29213.583    152.21135   -29365.794    37065.355 
  101200    285.68468   -29243.166    137.10305   -29380.269   -40397.425 
  101400    312.68844   -29223.192    150.06244   -29373.255     34394.98 
  101600    284.81665   -29241.117    136.68648   -29377.803    22404.175 
  101800    283.41719   -29239.792    136.01486   -29375.807    1454.3667 
  102000    308.00258   -29219.998    147.81365   -29367.812    2639.6653 
  102200    256.05724   -29252.905    122.88454   -29375.789    5375.0923 
  102400    287.68721   -29233.757    138.06409   -29371.821    22134.632 
  102600    299.95699   -29223.809    143.95248   -29367.762   -5643.2717 
  102800    316.34276   -29220.519    151.81618   -29372.335   -25714.979 
  103000    277.81498   -29228.411    133.32631   -29361.737    36808.336 
  103200    302.27382    -29206.79    145.06436   -29351.854    -4820.455 
  103400     288.0487   -29234.571    138.23757   -29372.809   -55829.552 
  103600    295.70843   -29225.112    141.91356   -29367.025    1988.7828 
  103800    294.40644   -29213.397    141.28872   -29354.686    15157.363 
  104000    267.95348   -29250.026    128.59367    -29378.62   -38818.838 
  104200    326.25652   -29224.243     156.5739   -29380.817    13195.207 
  104400    307.71588   -29223.798    147.67606   -29371.474   -4263.6502 
  104600    284.24007    -29253.87    136.40977    -29390.28    18386.166 
  104800    295.76548   -29226.139    141.94094    -29368.08   -10847.448 
  105000    285.64742   -29224.865    137.08517    -29361.95   -18605.841 
  105200    281.53521   -29220.349    135.11168   -29355.461    29296.991 
  105400    327.25099   -29205.898    157.05116   -29362.949    19003.218 
  105600    270.42557   -29233.619    129.78005   -29363.399    2265.0327 
  105800     279.2258   -29213.859    134.00337   -29347.862   -30547.916 
  106000    306.58473    -29213.96    147.13321   -29361.093   -1779.1941 
  106200    252.73909   -29257.124    121.29212   -29378.416   -32583.381 
  106400    283.83122   -29228.824    136.21356   -29365.037   -1927.4799 
  106600    318.84699   -29202.828    153.01799   -29355.846    -18708.23 
  106800    291.06917   -29217.011    139.68713   -29356.698   -23826.231 
  107000    259.99795   -29230.604    124.77573    -29355.38    28338.423 
  107200    301.85761   -29214.326    144.86461    -29359.19    -11929.99 
  107400    298.01898   -29213.025    143.02242   -29356.047    12912.278 
  107600    319.11131   -29223.932    153.14484   -29377.077   -37598.519 
  107800    267.88111   -29243.239    128.55894   -29371.798    -20678.21 
  108000    309.79935   -29211.463    148.67594   -29360.139   -14842.245 
  108200    279.01441    -29216.51    133.90192   -29350.412   -40099.737 
  108400    256.81938   -29245.011     123.2503   -29368.261   -9401.7728 
  108600    326.85442   -29209.939    156.86084     -29366.8   -24895.649 
  108800    298.56265   -29220.486    143.28332   -29363.769   -14732.093 
  109000    286.46795   -29238.426    137.47895   -29375.905    10892.448 
  109200    298.93696   -29231.249    143.46296   -29374.712    6676.3091 
  109400    303.39375   -29209.785    145.60182   -29355.387   -28939.721 
  109600    287.43587   -29240.112    137.94347   -29378.055    20457.301 
  109800    281.47213   -29236.419    135.08141     -29371.5    3988.8842 
  110000     306.2741   -29222.314    146.98413   -29369.298    3358.9899 
  110200    329.84416   -29200.415    158.29565    -29358.71     2554.775 
  110400    317.62866   -29210.104    152.43331   -29362.538    7323.2152 
  110600    318.39461   -29229.018    152.80089   -29381.819   -6856.9732 
  110800    298.41582   -29206.453    143.21286   -29349.666   -9104.6461 
  111000    291.95702   -29225.378    140.11322   -29365.491    31186.449 
  111200    298.25372    -29230.06    143.13507   -29373.195    8123.3422 
  111400    350.49638   -29206.952    168.20687   -29375.159   -24226.276 
  111600    283.95337   -29243.012    136.27218   -29379.284   -15323.597 
  111800    275.25009   -29227.521    132.09539   -29359.616    43413.391 
  112000     320.5265   -29209.919    153.82401   -29363.743   -12280.064 
  112200    297.14735   -29247.938    142.60411   -29390.542    12430.003 
  112400     290.6072   -29223.216    139.46542   -29362.681   -12194.348 
  112600    320.49424    -29220.43    153.80853   -29374.239   -7850.7107 
  112800    264.23864   -29250.212    126.81088   -29377.023   -33227.122 
  113000    314.34351    -29223.76    150.85673   -29374.617    5640.6481 
  113200    277.34582   -29226.101    133.10115   -29359.202    21097.091 
  113400     280.3477   -29241.321    134.54178   -29375.863   -62871.455 
  113600    307.83955   -29214.633    147.73541   -29362.369    20475.567 
  113800    269.66596   -29231.518     129.4155   -29360.934   -8475.8408 
  114000    260.20616   -29264.347    124.87565   -29389.223   -552.16834 
  114200    301.39698   -29223.215    144.64355   -29367.859   -15111.099 
  114400    319.34284   -29218.295    153.25596   -29371.551    5033.0585 
  114600    291.65049   -29233.898    139.96611   -29373.864     8820.865 
  114800    329.78289   -29215.788    158.26624   -29374.054   -14645.722 
  115000    290.31489    -29232.13    139.32514   -29371.455   -8279.6182 
  115200    284.30969   -29237.394    136.44318   -29373.837    15109.812 
  115400    314.37478   -29225.758    150.87173    -29376.63   -41203.412 
  115600    275.52521   -29232.654    132.22742   -29364.881   -39395.624 
  115800    341.07831   -29214.462    163.68703   -29378.149    20728.796 
  116000    282.53848    -29231.07    135.59316   -29366.664   -25020.164 
  116200    295.54189   -29239.402    141.83363   -29381.235   -18864.307 
  116400    303.47778   -29226.253    145.64215   -29371.895   -32260.322 
  116600    293.58474   -29224.976    140.89437    -29365.87   -15600.414 
  116800    273.39583   -29242.294    131.20551   -29373.499   -13249.618 
  117000    310.35963   -29228.239    148.94482   -29377.184    -25054.94 
  117200    299.95547   -29215.031    143.95176   -29358.983    13577.594 
  117400    309.27989   -29231.682    148.42664   -29380.108    2941.6527 
  117600    302.15436   -29233.156    145.00703   -29378.163    13110.493 
  117800    303.77511   -29221.621    145.78484   -29367.406    8411.2323 
  118000    315.44058   -29215.089    151.38322   -29366.472    -33841.09 
  118200    290.36178     -29243.9    139.34764   -29383.247   -397.20597 
  118400    319.59936   -29216.292    153.37906   -29369.671   -40384.416 
  118600    309.45572     -29222.5    148.51102   -29371.011    5966.0675 
  118800    300.74296   -29235.638    144.32968   -29379.968    9384.5901 
  119000    309.86418   -29236.229    148.70705   -29384.936   -10123.088 
  119200    287.84502   -29213.252    138.13982   -29351.392   -11167.827 
  119400    290.67721    -29240.31    139.49902   -29379.809   -27712.684 
  119600    294.55656   -29230.532    141.36076   -29371.893    6372.9599 
  119800    313.60204   -29221.467    150.50089   -29371.968    -3778.817 
  120000    265.15465   -29252.746    127.25048   -29379.997   -18918.922 
  120200    314.91975    -29229.46    151.13327   -29380.593    14646.411 
  120400    309.49214     -29227.5     148.5285   -29376.028   -20754.315 
  120600    312.06318   -29227.231    149.76237   -29376.994    2492.3689 
  120800    271.24378   -29248.864    130.17272   -29379.037   -18826.238 
  121000    325.96295   -29221.993    156.43301   -29378.426    25297.909 
  121200    313.74242   -29225.615    150.56825   -29376.183   -9606.0706 
  121400    287.00086   -29238.112     137.7347   -29375.847   -8920.3623 
  121600    318.29014   -29233.549    152.75075   -29386.299    7296.6401 
  121800    319.65904   -29214.706     153.4077   -29368.114   -12320.602 
  122000    332.31332   -29220.169    159.48062    -29379.65    -3892.994 
  122200    264.43753   -29242.698    126.90633   -29369.605   -11755.877 
  122400    301.47684   -29216.727    144.68188   -29361.409   -17674.901 
  122600    307.81357   -29229.203    147.72294   -29376.926   -5422.5425 
  122800    322.47484   -29223.355    154.75903   -29378.114    24008.218 
  123000    264.13493   -29249.943     126.7611   -29376.705    -20464.82 
  123200    277.40208   -29234.396    133.12815   -29367.524   -23877.006 
  123400    279.21203   -29221.453    133.99676    -29355.45   -45071.208 
  123600    300.90388   -29231.096    144.40691   -29375.503    15438.626 
  123800    282.11986   -29248.374    135.39226   -29383.766    18300.479 
  124000    297.62716   -29221.662    142.83437   -29364.496   -32044.325 
  124200    307.04599   -29235.771    147.35457   -29383.126    54049.294 
  124400    256.26366   -29253.224     122.9836   -29376.208   -4571.3519 
  124600    326.63698   -29214.377    156.75649   -29371.134    28882.883 
  124800    316.61619   -29216.983    151.94741    -29368.93   -1252.9309 
  125000    250.72268   -29241.575    120.32443   -29361.899   -28460.061 
  125200    341.89908   -29207.424    164.08093   -29371.505    25031.427 
  125400    282.43497   -29216.052    135.54349   -29351.595    14233.938 
  125600    275.80163   -29242.644    132.36008   -29375.004   -14475.333 
  125800    307.07577   -29213.877    147.36886   -29361.246   -33967.471 
  126000    292.22729   -29217.284    140.24292   -29357.527     -1816.11 
  126200    273.73857    -29237.95    131.36999    -29369.32   -21572.575 
  126400    311.64331   -29229.102    149.56087   -29378.663    4587.1016 
  126600    284.75016   -29228.822    136.65457   -29365.476    34364.077 
  126800    320.05026   -29193.366    153.59545   -29346.961    16417.682 
  127000    302.89333   -29222.908    145.36166    -29368.27   -12976.931 
  127200    272.58168   -29225.106    130.81479   -29355.921    37157.163 
  127400     342.3691   -29196.854     164.3065    -29361.16   -5206.7114 
  127600    290.01145   -29233.855    139.17951   -29373.034   -8673.0916 
  127800    296.54887   -29230.264    142.31689    -29372.58    12077.597 
  128000    329.29017   -29207.824    158.02978   -29365.854    9088.1859 
  128200    289.76123   -29240.842    139.05943   -29379.901   -21260.994 
  128400    304.34354   -29220.474    146.05764   -29366.532   -29837.308 
  128600    292.92838   -29221.636    140.57938   -29362.215    34032.451 
  128800    250.81872   -29259.869    120.37052    -29380.24   -1464.3383 
  129000    314.45406   -29226.495    150.90978   -29377.405   -15450.317 
  129200    296.30772   -29221.864    142.20116   -29364.065   -4250.1834 
  129400     276.5195   -29247.525    132.70459   -29380.229    2447.7632 
  129600    314.40303   -29221.576    150.88529   -29372.462    17359.744 
  129800    305.15782   -29230.135    146.44842   -29376.583    1906.9368 
  130000     300.7033   -29241.373    144.31065   -29385.684   -25662.487 
  130200    325.38269   -29210.151    156.15454   -29366.306    26302.781 
  130400    305.46602   -29225.184    146.59633   -29371.781    19642.967 
  130600     302.8726   -29240.321    145.35171   -29385.672    7599.2485 
  130800    299.04389   -29225.162    143.51428   -29368.676    47621.114 
  131000     313.5617   -29212.927    150.48153   -29363.408    21589.265 
  131200     311.1724   -29242.124    149.33488   -29391.459    29773.411 
  131400    314.03298   -29228.433     150.7077    -29379.14    15672.721 
  131600    321.94138   -29216.133    154.50302   -29370.636   -3538.3602 
  131800    287.51583   -29242.142    137.98184   -29380.124   -21628.292 
  132000    284.16083   -29233.745    136.37174   -29370.116    27984.425 
  132200    313.47632   -29214.507    150.44055   -29364.948    9761.9156 
  132400      296.194   -29228.946    142.14659   -29371.093   -33807.868 
  132600    271.50422    -29236.39     130.2977   -29366.688   -38077.512 
  132800    314.88737   -29212.356    151.11773   -29363.474    12872.342 
  133000    279.37275   -29234.553    134.07389   -29368.626   -45115.169 
  133200    294.37132   -29236.526    141.27186   -29377.798    37390.292 
  133400    315.67149    -29215.16    151.49404   -29366.654   -18250.859 
  133600    282.27321    -29212.26    135.46585   -29347.726   -5502.1268 
  133800    275.48194   -29241.973    132.20665    -29374.18   -33055.443 
  134000    262.99572   -29249.113    126.21439   -29375.327    15275.705 
  134200    311.89773   -29216.089    149.68297   -29365.772    8543.5048 
  134400    280.36543    -29222.95    134.55029   -29357.501    11106.814 
  134600     260.2903    -29247.75    124.91603   -29372.666   -21342.846 
  134800     323.0782   -29226.743    155.04859   -29381.792    32257.345 
  135000    318.60471   -29220.537    152.90172   -29373.439    44609.999 
  135200    252.15647   -29250.867    121.01252    -29371.88   -2436.6717 
  135400    295.63583   -29223.961    141.87872    -29365.84    1747.6009 
  135600    314.72087   -29222.243    151.03782   -29373.281   -29191.411 
  135800    308.49642   -29218.084    148.05065   -29366.134   -19673.013 
  136000    308.70471   -29212.889    148.15061    -29361.04    14413.026 
  136200    303.47176   -29234.532    145.63926   -29380.172   -10241.897 
  136400    315.43594   -29219.894    151.38099   -29371.275    17592.815 
  136600    302.22582   -29220.593    145.04132   -29365.634    17745.803 
  136800    292.78613   -29233.238    140.51112    -29373.75   -17279.574 
  137000    288.78574   -29246.774    138.59129   -29385.365    14550.286 
  137200     306.0146   -29225.873    146.85959   -29372.733   -7457.4769 
  137400    295.87993   -29236.347    141.99586   -29378.343   -10999.481 
  137600    273.13393   -29259.206    131.07982   -29390.286    7629.3591 
  137800    316.76767   -29226.311    152.02011   -29378.331   -11882.454 
  138000    274.88105   -29231.571    131.91828   -29363.489    -4878.047 
  138200    293.35417   -29229.104    140.78372   -29369.888    5390.7812 
  138400    286.83234   -29205.369    137.65383   -29343.023     7353.349 
  138600    301.08035   -29231.842     144.4916   -29376.334   -7205.5058 
  138800    304.90772   -29227.025    146.32839   -29373.353    6888.0591 
  139000    295.13386   -29228.392    141.63782    -29370.03    8932.9246 
  139200    265.85367   -29249.899    127.58595   -29377.485    12321.998 
  139400     304.2536    -29220.14    146.01447   -29366.155   -4132.2208 
  139600    273.37462   -29229.059    131.19533   -29360.255    8398.9286 
  139800    262.81781   -29263.449    126.12901   -29389.578    4783.8855 
  140000    270.11768   -29240.653    129.63229   -29370.285   -26786.691 
  140200    329.26284   -29218.324    158.01667   -29376.341   -16411.497 
  140400    305.39331   -29217.444    146.56143   -29364.006    -5429.632 
  140600    265.74256   -29244.033    127.53262   -29371.566    12677.454 
  140800     325.8626   -29212.152    156.38485   -29368.537    38350.747 
  141000    293.00009   -29224.779     140.6138   -29365.393    35432.441 
  141200    267.11166   -29243.854    128.18967   -29372.044   -593.94507 
  141400    273.56922   -29251.185    131.28872   -29382.474   -30982.478 
  141600     304.4121   -29226.899    146.09054    -29372.99   -5730.7516 
  141800    298.08688   -29215.861      143.055   -29358.916   -32706.091 
  142000    345.06237   -29199.465    165.59903   -29365.064    13098.111 
  142200    286.78519   -29235.019     137.6312    -29372.65   -13531.834 
  142400    298.54597   -29221.872    143.27532   -29365.148    814.79575 
  142600    342.94574   -29196.897    164.58323    -29361.48    22823.273 
  142800    294.87592   -29236.388    141.51403   -29377.902    18248.113 
  143000    292.94991   -29225.579    140.58972   -29366.169      17646.1 
  143200    324.16351    -29206.66    155.56945   -29362.229    4452.6568 
  143400     283.2925   -29239.434    135.95502   -29375.389   -17928.697 
  143600    326.20319   -29217.809    156.54831   -29374.358    38020.507 
  143800    342.59251   -29199.489    164.41372   -29363.903     18426.87 
  144000    301.45365   -29226.223    144.67075   -29370.894    2180.1537 
  144200    297.30569   -29233.197     142.6801   -29375.878    -2525.143 
  144400    350.75886   -29197.447    168.33283   -29365.779   -2830.1057 
  144600     325.5917   -29218.107    156.25485   -29374.362   -15227.762 
  144800    318.61538   -29229.212    152.90684   -29382.119   -48143.419 
  145000    283.42307   -29240.101    136.01768   -29376.119   -56673.547 
  145200     319.5981   -29206.236    153.37846   -29359.614    25123.108 
  145400    280.59345   -29228.106    134.65972   -29362.766    6433.7566 
  145600     303.6728   -29235.482    145.73574   -29381.217   -18845.475 
  145800    323.15241    -29227.68    155.08421   -29382.764    5031.6443 
  146000    292.08792   -29223.754    140.17604    -29363.93   -29972.027 
  146200     293.8308    -29244.45    141.01246   -29385.463    3971.2436 
  146400    318.17717   -29232.719    152.69654   -29385.416    5156.1383 
  146600    292.72216   -29223.193    140.48041   -29363.674   -20689.503 
  146800    298.90655   -29241.363    143.44837   -29384.811   -7073.4048 
  147000    283.06924   -29230.177    135.84788   -29366.025    24025.363 
  147200    313.24588   -29209.455    150.32996   -29359.785   -3872.4319 
  147400    306.41478   -29236.443    147.05165   -29383.494    10152.612 
  147600    292.24103   -29230.274    140.24951   -29370.523    6181.6723 
  147800    306.61509   -29206.026    147.14778   -29353.174   -33760.753 
  148000    301.43907   -29234.668    144.66375   -29379.332    14321.313 
  148200    292.36589   -29220.694    140.30944   -29361.003    -11088.81 
  148400     309.9832   -29208.931    148.76417   -29357.695    -32258.92 
  148600    305.54207   -29231.644    146.63282   -29378.277   -29358.135 
  148800    328.10778   -29220.666    157.46234   -29378.128    12710.647 
  149000    275.86818   -29208.224    132.39201   -29340.616    20168.299 
  149200    302.08261   -29227.701    144.97259   -29372.674   -39346.759 
  149400    276.09643   -29225.264    132.50155   -29357.765    7466.1983 
  149600    310.23141   -29211.965    148.88328   -29360.849   -32082.766 
  149800    301.26508   -29204.239    144.58025   -29348.819    4854.1554 
  150000    323.96576   -29229.669    155.47454   -29385.143   -10132.398 
  150200    313.06341   -29217.091    150.24239   -29367.333   -34207.117 
  150400    323.87836   -29191.928     155.4326   -29347.361    35358.779 
  150600    301.87716   -29217.039    144.87399   -29361.913      2170.62 
  150800    301.03165   -29230.485    144.46822   -29374.953    9379.4576 
  151000    318.97449   -29201.952    153.07918   -29355.031    5889.1644 
  151200    292.29657   -29212.808    140.27617   -29353.084    57258.997 
  151400    289.87492   -29228.527    139.11399   -29367.641    25917.899 
  151600    317.27681   -29201.417    152.26445   -29353.681    23427.673 
  151800    322.07322   -29205.846    154.56629   -29360.412    44470.993 
  152000    296.29308   -29230.237    142.19413   -29372.431   -10412.373 
  152200    292.38536   -29223.087    140.31878   -29363.406   -17323.014 
  152400    313.70723   -29199.478    150.55137    -29350.03    107013.06 
  152600    293.14597   -29221.968    140.68381   -29362.652   -16902.852 
  152800    302.15983   -29221.495    145.00965   -29366.505    3853.9568 
  153000    312.94898   -29204.401    150.18748   -29354.589    6769.3375 
  153200    309.00161   -29206.072    148.29309   -29354.365   -18633.141 
  153400     294.2978   -29231.951    141.23658   -29373.188    6111.0216 
  153600     308.2531   -29212.206    147.93387    -29360.14   -37551.953 
  153800    335.46532   -29212.657     160.9933    -29373.65   -28190.454 
  154000    301.51693   -29227.858    144.70112   -29372.559    45815.314 
  154200    282.74476   -29231.899    135.69215   -29367.591   -8485.2613 
  154400    315.21885   -29226.791    151.27681   -29378.068     -25546.4 
  154600    299.40945   -29231.522    143.68971   -29375.212    3849.2908 
  154800    281.74427   -29245.475    135.21201   -29380.687   -49655.597 
  155000    300.11035   -29219.468    144.02608   -29363.494    33102.625 
  155200     316.6547   -29222.017    151.96589   -29373.983   -7066.5043 
  155400     280.0223   -29235.588    134.38562   -29369.974    39501.194 
  155600    299.24133   -29228.054    143.60903   -29371.663    53707.885 
  155800    304.05924   -29221.836     145.9212   -29367.757   -270.41617 
  156000    286.82498   -29218.529     137.6503    -29356.18    51016.959 
  156200    300.48877   -29247.852    144.20769   -29392.059   -11529.702 
  156400     283.3572   -29227.758    135.98607   -29363.744   -8169.6969 
  156600    298.29868   -29222.368    143.15664   -29365.525   -20484.295 
  156800    281.18017   -29249.881    134.94129   -29384.823    48859.815 
  157000    282.55398    -29223.69     135.6006   -29359.291    3597.4855 
  157200    292.19559   -29232.982    140.22771    -29373.21    8252.2112 
  157400    272.73885    -29252.16    130.89022    -29383.05    18637.016 
  157600    282.46782   -29233.447    135.55925   -29369.006     18065.44 
  157800     305.9418   -29230.398    146.82466   -29377.223    27063.987 
  158000    288.59888   -29250.548    138.50161    -29389.05   -8989.5088 
  158200     287.9201    -29244.31    138.17586   -29382.486    31591.164 
  158400    312.77414   -29222.944    150.10357   -29373.047   -34103.223 
  158600    292.29162   -29239.319    140.27379   -29379.592    16434.922 
  158800    290.89226   -29255.917    139.60222   -29395.519    23988.604 
  159000     318.3578   -29220.702    152.78322   -29373.486    -6581.145 
  159200    289.73194   -29235.015    139.04538    -29374.06   -29180.144 
  159400    281.41524   -29241.625    135.05411   -29376.679    12629.282 
  159600    339.30071   -29211.361    162.83395   -29374.195   -28607.186 
  159800    291.13765   -29236.984    139.71999   -29376.704    13454.888 
  160000    319.72601   -29231.828    153.43984   -29385.267   -47218.463 
  160200    317.47241   -29218.783    152.35832   -29371.141    42137.019 
  160400    326.24345   -29179.604    156.56763   -29336.171    34071.022 
  160600    298.79744   -29211.238      143.396   -29354.634   -24240.229 
  160800    320.86345   -29225.596    153.98571   -29379.582    2416.3524 
  161000    284.23734   -29221.297    136.40846   -29357.706   -2446.0617 
  161200    334.25564   -29199.941    160.41276   -29360.353    16508.432 
  161400    265.47987   -29230.768    127.40656   -29358.175   -11518.088 
  161600    339.44375   -29215.827    162.90259    -29378.73    16330.075 
  161800    332.45512    -29190.12    159.54868   -29349.669   -7153.3283 
  162000     312.7819   -29210.574    150.10729   -29360.681    2497.4473 
  162200    291.14944   -29225.938    139.72565   -29365.664    25438.556 
  162400    299.77036   -29201.663    143.86292   -29345.526    3046.0456 
  162600    319.03625   -29222.851    153.10882    -29375.96   -15228.156 
  162800    289.15937   -29225.217    138.77059   -29363.988   -25165.587 
  163000    306.13002   -29209.993    146.91499   -29356.908   -15006.078 
  163200    332.31572   -29211.104    159.48177   -29370.586    10211.061 
  163400    278.87301   -29236.969    133.83406   -29370.803    3800.8821 
  163600    323.96515   -29204.226    155.47425     -29359.7   -17575.784 
  163800    288.93662   -29216.314    138.66369   -29354.978   -10608.472 
  164000    309.87392   -29227.231    148.71172   -29375.943   -12648.716 
  164200    332.09441   -29192.755    159.37557   -29352.131     14491.32 
  164400    317.32212   -29222.317    152.28619   -29374.603   -9822.9677 
  164600    309.29063   -29220.795     148.4318   -29369.227   -58965.863 
  164800    340.11699   -29192.588    163.22569   -29355.814   -2884.3702 
  165000    294.40461    -29228.06    141.28784   -29369.347    13625.601 
  165200    314.49715   -29223.685    150.93046   -29374.616    35746.153 
  165400    303.80895   -29210.153    145.80108   -29355.955   -6141.2786 
  165600    291.42901   -29220.295    139.85982   -29360.155    12789.791 
  165800     262.0984   -29237.182    125.78375   -29362.966   -9236.8694 
  166000    300.39245   -29199.992    144.16147   -29344.154   -55280.186 
  166200    311.61065   -29217.579     149.5452   -29367.124    33710.371 
  166400    291.62208   -29230.774    139.95247   -29370.727   -6823.3847 
  166600    321.25007   -29204.425    154.17125   -29358.596   -35129.594 
  166800    303.52096   -29227.443    145.66287   -29373.106   -16249.226 
  167000     284.0606   -29230.828    136.32364   -29367.152    17907.864 
  167200    298.84319   -29225.477    143.41796   -29368.895    1125.7528 
  167400    281.76318   -29241.513    135.22108   -29376.734   -6548.3627 
  167600     287.3663   -29238.234    137.91008   -29376.144    62784.614 
  167800    339.12766    -29217.19     162.7509   -29379.941   -12067.715 
  168000    286.39496   -29247.383    137.44392   -29384.826    11218.736 
  168200    292.39258   -29240.228    140.32225    -29380.55   -9789.8346 
  168400    316.09138   -29230.984    151.69555    -29382.68    28941.532 
  168600    289.14998   -29224.257    138.76609   -29363.023    16651.928 
  168800    324.13455   -29208.523    155.55555   -29364.078    1259.0672 
  169000    303.11328   -29244.322    145.46722   -29389.789    1878.9179 
  169200    297.25307    -29228.49    142.65484   -29371.145   -51196.259 
  169400    296.78525   -29218.438    142.43033   -29360.868   -11336.172 
  169600    307.92314   -29231.455    147.77552   -29379.231    26498.598 
  169800     276.3507   -29245.977    132.62358     -29378.6   -16629.138 
  170000    304.39632   -29230.015    146.08296   -29376.098    22710.713 
  170200    313.66891   -29223.494    150.53298   -29374.027    -36342.76 
  170400    291.74751   -29245.702    140.01267   -29385.714   -15279.984 
  170600    321.16802   -29230.777    154.13188   -29384.909   -128.93841 
  170800     302.4801    -29224.96    145.16335   -29370.124   -1286.9629 
  171000    304.35103   -29229.095    146.06123   -29375.157    4021.0664 
  171200    278.64426   -29244.713    133.72428   -29378.437   -1186.0106 
  171400    287.15924   -29225.454    137.81071   -29363.265   -9314.6967 
  171600    288.33608    -29221.19    138.37549   -29359.566   -1228.7692 
  171800    284.40695   -29242.753    136.48986   -29379.243    3943.0013 
  172000    344.86493   -29202.576    165.50427    -29368.08     -743.621 
  172200    285.60316   -29232.123    137.06393   -29369.187    23391.975 
  172400     313.5384   -29235.043    150.47034   -29385.513    5971.1608 
  172600    342.90395   -29199.834    164.56318   -29364.397   -27964.203 
  172800    304.25669   -29229.625    146.01595   -29375.641    8545.2231 
  173000    310.47491   -29232.984    149.00015   -29381.984   -3467.9646 
  173200    295.10383   -29202.291     141.6234   -29343.914    18464.718 
  173400     293.1818   -29229.133      140.701   -29369.834   -25950.583 
  173600    311.06441   -29219.878    149.28305   -29369.161   -5616.6956 
  173800    279.38682   -29231.711    134.08065   -29365.792    38379.531 
  174000    296.13109   -29235.182    142.11639   -29377.299   -11775.629 
  174200    300.16465   -29213.249    144.05214   -29357.301   -4632.0421 
  174400    311.16346   -29231.361    149.33059   -29380.692   -3649.4778 
  174600    271.97459    -29244.11    130.52344   -29374.634    24716.086 
  174800    295.39824   -29209.137    141.76469   -29350.902    37800.038 
  175000    280.65832   -29231.595    134.69085   -29366.286    2128.6844 
  175200    304.21743   -29234.022    145.99711   -29380.019     11665.29 
  175400    314.94831   -29223.198    151.14698   -29374.345   -28322.937 
  175600    282.49281   -29240.426    135.57124   -29375.997     19124.87 
  175800    290.66715   -29232.226    139.49419    -29371.72   -6766.9205 
  176000    294.69342   -29216.113    141.42644   -29357.539    30528.107 
  176200    309.05115   -29238.733    148.31687    -29387.05    5961.0109 
  176400    267.10233   -29241.709    128.18519   -29369.894    11741.471 
  176600    304.80554   -29222.475    146.27935   -29368.754   -23444.058 
  176800    313.07527   -29210.137    150.24808   -29360.385    11073.998 
  177000    334.77806   -29197.466    160.66348   -29358.129     3370.994 
  177200    299.88741   -29229.916    143.91909   -29373.835    10253.575 
  177400    336.76208   -29207.641    161.61563   -29369.256   -20864.163 
  177600    265.54161   -29233.184    127.43619    -29360.62   -30493.746 
[...]
  950000    284.20916   -29229.494    136.39494   -29365.889   -4949.6494 
  950200    315.21644   -29211.728    151.27565   -29363.003   -12363.751 
  950400    287.45743   -29243.665    137.95382   -29381.618     7867.592 
  950600    301.95201   -29234.988    144.90991   -29379.898    14798.566 
  950800    316.02159   -29226.046    151.66205   -29377.708    13377.879 
  951000    309.18533   -29231.947    148.38126   -29380.329   -25918.258 
  951200    274.17877     -29249.2    131.58125   -29380.782   -10393.087 
  951400    288.68127    -29242.76    138.54115   -29381.301   -13139.293 
  951600    332.03454   -29224.208    159.34684   -29383.555    -4320.806 
  951800     282.5945   -29246.032    135.62005   -29381.652    2776.5089 
  952000    265.46149   -29245.762    127.39774    -29373.16   -14384.922 
  952200    291.11568   -29219.287    139.70945   -29358.997    14492.532 
  952400    313.73579   -29226.635    150.56508     -29377.2   -43227.842 
  952600    283.54678   -29249.181    136.07705   -29385.258    154.18174 
  952800    292.96346   -29215.625    140.59622   -29356.222   -22424.716 
  953000    298.73129   -29231.498    143.36426   -29374.862   -7087.4123 
  953200     264.1871   -29240.536    126.78614   -29367.322   -14601.836 
  953400    302.42363   -29233.958    145.13625   -29379.094   -431.27131 
  953600     323.9801   -29218.503    155.48143   -29373.985    8708.2354 
  953800    296.92563     -29205.8     142.4977   -29348.298    4358.1872 
  954000    297.73684   -29233.625    142.88701   -29376.512    23924.872 
  954200    324.77294    -29215.51    155.86192   -29371.372     1330.164 
  954400    329.59927   -29199.333    158.17812   -29357.511    1656.2806 
  954600    284.81803   -29238.651    136.68714   -29375.338     27836.89 
  954800     316.9384   -29222.956    152.10204   -29375.058   -5240.6981 
  955000    312.89316   -29212.935    150.16069   -29363.095   -18065.432 
  955200    284.28998   -29244.003    136.43372   -29380.436    -8192.668 
  955400    308.58118   -29219.067    148.09132   -29367.158    -12207.58 
  955600    308.16713   -29245.865    147.89262   -29393.758    22581.516 
  955800    300.54935   -29239.705    144.23676   -29383.941   -19020.399 
  956000    321.50094   -29218.414    154.29165   -29372.705     7913.579 
  956200     271.9827   -29249.937    130.52733   -29380.464    6741.4159 
  956400    291.68027   -29239.024     139.9804   -29379.005    5089.9465 
  956600    322.06981   -29221.673    154.56466   -29376.237    61190.319 
  956800    328.16965   -29230.474    157.49203   -29387.966   -5883.0014 
  957000    297.20268   -29248.858    142.63066   -29391.489    10827.604 
  957200    317.80305   -29220.891    152.51699   -29373.408    352.52447 
  957400      284.169   -29224.457    136.37566   -29360.832    2460.1889 
  957600    280.95277   -29254.543    134.83216   -29389.375   -30392.105 
  957800    288.90324   -29231.417    138.64767   -29370.064    2602.0841 
  958000    308.91651   -29229.407    148.25225   -29377.659    3322.8793 
  958200    290.32129   -29233.956    139.32821   -29373.284   -26554.631 
  958400    302.63271    -29226.61    145.23659   -29371.846    7436.2592 
  958600    277.99453   -29216.311    133.41247   -29349.724    15621.126 
  958800    290.82547   -29241.979    139.57018   -29381.549    3881.4395 
  959000    313.80788   -29224.751    150.59967    -29375.35    10631.015 
  959200    314.18161   -29214.413    150.77903   -29365.192   -17604.135 
  959400    281.84337   -29235.306    135.25957   -29370.566   -17824.184 
  959600    264.19663   -29253.658    126.79072   -29380.449    10104.871 
  959800    308.22702    -29229.05    147.92136   -29376.971   -10935.383 
  960000    269.26672   -29223.598    129.22391   -29352.822   -40203.882 
  960200    260.14729   -29247.365     124.8474   -29372.212   -35617.238 
  960400    289.48178   -29214.583    138.92532   -29353.508   -27628.487 
  960600     299.4094   -29230.539    143.68969   -29374.229   -25220.776 
  960800     272.4837   -29243.731    130.76777   -29374.499    31507.922 
  961000    327.80245   -29209.674    157.31581   -29366.989   -12560.359 
  961200    289.56574   -29233.338    138.96562   -29372.304    44732.858 
  961400    278.15782   -29234.737    133.49084   -29368.228    26865.435 
  961600    303.32827   -29221.833     145.5704   -29367.404    47443.547 
  961800    256.09384   -29254.447     122.9021   -29377.349    2996.0335 
  962000    295.92004       -29227    142.01511   -29369.015   -27385.761 
  962200    281.48907   -29227.294    135.08954   -29362.384   -57744.586 
  962400    276.19037   -29259.922    132.54663   -29392.469    42795.718 
  962600    282.43156   -29235.882    135.54185   -29371.424   -35575.928 
  962800    345.15898   -29222.237    165.64539   -29387.882   -6264.4026 
  963000    267.14564   -29250.198    128.20598   -29378.404   -12815.091 
  963200    274.95776   -29232.607    131.95509   -29364.562    4898.5044 
  963400     315.7824   -29226.923    151.54727   -29378.471    2603.4079 
  963600    299.65716    -29245.29    143.80859   -29389.099   -4734.9859 
  963800    267.60843   -29257.589    128.42807   -29386.017    9538.0675 
  964000    299.52661   -29224.985    143.74594   -29368.731    1680.8188 
  964200    304.97867   -29233.307    146.36244    -29379.67   -60.708057 
  964400    269.83992   -29238.342    129.49899   -29367.841   -24687.305 
  964600    363.94199   -29211.364    174.65955   -29386.024   -36855.311 
  964800    283.84469   -29241.479    136.22002   -29377.699    7760.0201 
  965000    307.34842   -29234.548    147.49971   -29382.047    13149.755 
  965200    312.69494   -29215.882    150.06556   -29365.947    1691.5098 
  965400    272.75531   -29223.265    130.89812   -29354.163   -31028.071 
  965600     283.6828   -29255.387    136.14233   -29391.529    6074.7156 
  965800    296.07972   -29239.529    142.09174    -29381.62     10889.26 
  966000    319.32788    -29222.55    153.24878   -29375.798    -16625.94 
  966200    291.61253   -29222.138    139.94789   -29362.086   -22155.842 
  966400    290.78114   -29245.401     139.5489    -29384.95    12133.599 
  966600    285.57222    -29221.86    137.04908   -29358.909    26926.923 
  966800    301.45998   -29226.115    144.67379   -29370.788    7798.8799 
  967000    244.60263   -29247.258    117.38735   -29364.646   -12874.653 
  967200    283.97142   -29231.703    136.28085   -29367.984    7306.9031 
  967400     335.6353   -29211.856    161.07488   -29372.931   -25917.697 
  967600    289.29091   -29241.233    138.83372   -29380.066   -8279.8487 
  967800    307.97763   -29237.707    147.80168   -29385.509    2214.5873 
  968000    315.10327     -29227.4    151.22134   -29378.622    8816.6432 
  968200     325.0434   -29220.276    155.99171   -29376.268   -4376.1172 
  968400     285.0917   -29246.045    136.81848   -29382.863    33676.081 
  968600    302.28511   -29223.954    145.06977   -29369.024   -25799.905 
  968800    321.84175   -29219.224    154.45521    -29373.68   -17807.778 
  969000    296.41813    -29232.25    142.25415   -29374.504   -25061.282 
  969200    299.37498   -29228.333    143.67317   -29372.006    25620.355 
  969400    336.96056   -29197.297    161.71088   -29359.008    12573.019 
  969600    320.01848   -29229.699     153.5802    -29383.28    44346.719 
  969800    304.44711   -29236.793    146.10734   -29382.901      28096.4 
  970000    275.38799   -29244.151    132.16157   -29376.312    53589.263 
  970200    302.26565   -29214.562    145.06044   -29359.622   -11215.641 
  970400    282.00751   -29238.642    135.33834   -29373.981   -48.383748 
  970600    306.14551   -29239.422    146.92242   -29386.344    3925.6189 
  970800     290.4636   -29224.719    139.39651   -29364.116    7153.5871 
  971000    332.75353   -29196.418    159.69188    -29356.11    -25481.17 
  971200    287.15219    -29226.37    137.80733   -29364.178    -26229.96 
  971400     314.8585   -29228.459    151.10387   -29379.562    18110.998 
  971600    329.42053   -29199.782    158.09235   -29357.874     35292.23 
  971800    329.37344   -29221.511    158.06974    -29379.58   -19516.087 
  972000    303.13135   -29231.144     145.4759    -29376.62   -27733.999 
  972200    329.20826   -29215.683    157.99048   -29373.673    26542.923 
  972400    308.19325   -29212.617    147.90515   -29360.522   -26280.885 
  972600    292.40539   -29239.611    140.32839    -29379.94   -12234.925 
  972800    297.42022   -29220.483    142.73506   -29363.218     33661.31 
  973000      305.863   -29204.754    146.78684   -29351.541   -3924.4214 
  973200    315.88894   -29223.666     151.5984   -29375.264   -25002.347 
  973400    286.38299   -29226.369    137.43818   -29363.807    22982.886 
  973600    320.62589   -29194.457    153.87171   -29348.329   -1910.9131 
  973800    292.58432   -29214.932    140.41426   -29355.346    53921.521 
  974000    327.44881   -29222.688     157.1461   -29379.834   -4916.3214 
  974200    278.71208   -29234.531    133.75683   -29368.288    7488.5742 
  974400    311.47256   -29208.594    149.47893   -29358.073   -25384.943 
  974600     285.8851   -29233.525    137.19924   -29370.724    10356.319 
  974800    311.83252   -29234.863    149.65167   -29384.515   -4889.1539 
  975000     297.1425   -29219.609    142.60178   -29362.211   -645.60675 
  975200    306.46807    -29212.52    147.07722   -29359.597   -300.86163 
  975400     278.7033   -29235.775    133.75262   -29369.528   -15340.238 
  975600    332.50084   -29214.865    159.57062   -29374.435    14909.317 
  975800     310.5175   -29215.678    149.02059   -29364.698   -5986.9321 
  976000    281.07091   -29227.808    134.88886   -29362.697    18016.022 
  976200    315.03986   -29224.969    151.19091    -29376.16   -13007.509 
  976400    260.42206   -29234.547    124.97926   -29359.526   -15748.662 
  976600    324.72909   -29214.727    155.84088   -29370.568   -15826.329 
  976800    288.11363    -29221.57    138.26873   -29359.838   -46459.044 
  977000    287.74652   -29240.533    138.09255   -29378.625   -33513.902 
  977200    307.04561   -29215.914    147.35439   -29363.269     21946.15 
  977400    307.93136   -29245.163    147.77947   -29392.943    36428.509 
  977600    285.45195   -29238.998    136.99136    -29375.99    58700.237 
  977800    307.29992   -29216.272    147.47643   -29363.749   -9640.3344 
  978000     281.3968   -29243.342    135.04525   -29378.387    7024.0229 
  978200    292.21027   -29242.862    140.23475   -29383.097    11875.941 
  978400    303.06947   -29216.492     145.4462   -29361.939    17111.608 
  978600    303.55449   -29224.095    145.67896   -29369.774    13041.132 
  978800    300.08769   -29246.271    144.01521   -29390.287   -11862.818 
  979000    299.37591   -29222.079    143.67362   -29365.753   -51567.733 
  979200    312.83594   -29228.576    150.13323    -29378.71    3293.9281 
  979400    292.34799   -29231.655    140.30085   -29371.956    5396.5532 
  979600    289.54659   -29224.982    138.95643   -29363.938   -6064.7732 
  979800    298.95175   -29206.158    143.47006   -29349.628    30045.868 
  980000    269.92459   -29227.047    129.53962   -29356.587   -1517.5573 
  980200    295.08556   -29230.607    141.61463   -29372.221   -5578.6214 
  980400    328.48753   -29191.202    157.64459   -29348.847    7710.6394 
  980600    293.06803   -29228.237     140.6464   -29368.884    11032.557 
  980800    279.92762   -29224.174    134.34018   -29358.514    24007.341 
  981000    304.07246   -29213.066    145.92754   -29358.993   -2804.4685 
  981200    303.33136   -29240.727    145.57188   -29386.299   -15365.763 
  981400    283.72811   -29227.558    136.16407   -29363.722    40913.567 
  981600    314.79174   -29217.719    151.07183   -29368.791    25997.558 
  981800     285.5319   -29234.283    137.02974   -29371.313   -9977.0755 
  982000    289.89437   -29224.815    139.12333   -29363.939   -11801.832 
  982200    313.37778   -29209.059    150.39326   -29359.452    8141.9122 
  982400    326.72462   -29234.526    156.79855   -29391.325   -16370.642 
  982600    284.19196   -29225.701    136.38668   -29362.088    72221.247 
  982800    303.95789   -29211.022    145.87256   -29356.894   -9928.5712 
  983000    304.62579   -29219.648    146.19309   -29365.841    40822.385 
  983200    279.63554   -29237.437    134.20001   -29371.637   -3551.0668 
  983400    339.56843    -29203.79    162.96243   -29366.752   -19321.166 
  983600    313.18933   -29219.036    150.30282   -29369.339   -16775.338 
  983800    296.49245   -29227.572    142.28981   -29369.862    10741.639 
  984000     296.0022   -29238.263    142.05454   -29380.317   -4678.8963 
  984200    285.48556   -29238.965    137.00749   -29375.973    23190.697 
  984400    304.36168   -29211.233    146.06634   -29357.299     6168.808 
  984600    308.47072   -29237.654    148.03831   -29385.693   -14987.524 
  984800    290.32227   -29233.632    139.32868    -29372.96    14126.716 
  985000    305.59989   -29209.724    146.66057   -29356.385     7505.275 
  985200    306.65954   -29243.973    147.16911   -29391.143    9521.6572 
  985400    285.91104   -29227.305    137.21168   -29364.516    10474.608 
  985600    319.98274   -29214.349    153.56305   -29367.912   -6432.5933 
  985800    276.42155   -29252.045    132.65758   -29384.703   -28878.397 
  986000    302.30828   -29241.663    145.08089   -29386.744    38249.872 
  986200    313.15023   -29217.813    150.28406   -29368.097    291.17746 
  986400    283.00715   -29247.401    135.81808   -29383.219    5388.3223 
  986600    284.54685    -29243.24      136.557   -29379.797   -44920.639 
  986800     298.1655   -29220.835    143.09273   -29363.927   -21589.114 
  987000    292.75898   -29212.545    140.49808   -29353.043     25318.79 
  987200    291.73903   -29226.453     140.0086   -29366.462    3138.8443 
  987400    283.98146   -29234.135    136.28566   -29370.421    64656.422 
  987600    320.34056    -29203.96    153.73477   -29357.695   -50554.069 
  987800    293.15417   -29223.356    140.68774   -29364.044    38174.423 
  988000    280.39857   -29228.246    134.56619   -29362.812   -12742.484 
  988200    299.43327   -29225.576    143.70114   -29369.278   -5530.5403 
  988400    280.56742   -29215.995    134.64723   -29350.642   -5392.5252 
  988600    287.52343   -29237.836    137.98549   -29375.821   -3803.3226 
  988800    293.50304   -29241.023    140.85517   -29381.879    37528.692 
  989000    326.20823   -29208.096    156.55073   -29364.647    -2096.133 
  989200    275.69644   -29234.264     132.3096   -29366.574    -34119.53 
  989400    286.60692   -29233.024    137.54565    -29370.57   -32336.228 
  989600    296.07712   -29217.719     142.0905   -29359.809   -5547.4071 
  989800    327.13638   -29222.882    156.99616   -29379.878    6151.2583 
  990000    280.49444   -29226.336     134.6122   -29360.948    7907.7558 
  990200    272.68088   -29227.161     130.8624   -29358.023    17495.245 
  990400     305.9667   -29208.789    146.83661   -29355.626   -6258.5385 
  990600    269.49594   -29235.508    129.33391   -29364.842   -20054.177 
  990800    292.12005   -29228.894    140.19145   -29369.085    24431.812 
  991000    332.62135   -29214.856    159.62845   -29374.485    8727.1024 
  991200    287.36896   -29237.136    137.91136   -29375.047   -6036.1962 
  991400    296.60104   -29235.383    142.34193   -29377.725   -8732.3678 
  991600    323.75606   -29211.127    155.37391   -29366.501    30249.396 
  991800    261.67723   -29248.335    125.58163   -29373.917    816.18998 
  992000    305.43578   -29225.815    146.58181   -29372.397     34086.09 
  992200    340.82239   -29218.278    163.56421   -29381.842   -49231.168 
  992400    262.15104    -29253.88    125.80901   -29379.689    11688.976 
  992600    296.36071   -29242.359    142.22659   -29384.585   -6305.2868 
  992800    298.12862   -29223.669    143.07503   -29366.744    22206.524 
  993000    296.68321   -29238.173    142.38136   -29380.555    20316.011 
  993200    284.26036   -29246.462    136.41951   -29382.882    -35461.63 
  993400    293.92016   -29219.826    141.05535   -29360.881    5387.6114 
  993600    276.52969   -29230.867    132.70948   -29363.576   -8983.9372 
  993800    268.54172   -29262.336    128.87597   -29391.211   -2592.3501 
  994000    321.99414   -29223.167    154.52834   -29377.696    19577.367 
  994200    313.66164   -29217.434    150.52949   -29367.964   -10041.363 
  994400    303.22401    -29235.36    145.52036    -29380.88    420.70763 
  994600    289.09571   -29244.632    138.74004   -29383.372    26513.542 
  994800    326.12551   -29210.177    156.51103   -29366.688    11035.803 
  995000     286.6322   -29234.197    137.55778   -29371.755    1305.8008 
  995200     282.0466   -29232.011     135.3571   -29367.368   -51355.947 
  995400    297.88744   -29209.174    142.95928   -29352.133   -946.89409 
  995600    281.16298   -29233.109    134.93304   -29368.042   -10201.716 
  995800    321.51415   -29210.667    154.29799   -29364.965   -31433.155 
  996000    321.94905    -29212.69     154.5067   -29367.197   -49749.555 
  996200    297.83929   -29220.009    142.93618   -29362.945     4365.235 
  996400    290.75906   -29231.712     139.5383    -29371.25   -15893.763 
  996600     274.8373   -29248.182    131.89728   -29380.079    31177.988 
  996800    310.09872    -29217.56    148.81961    -29366.38    4005.8463 
  997000    291.01796    -29235.94    139.66255   -29375.603     10325.39 
  997200    278.34062    -29253.71    133.57856   -29387.288   -8297.1976 
  997400    298.90307   -29225.838     143.4467   -29369.285   -12441.332 
  997600    301.10287   -29225.779    144.50241   -29370.281    28941.865 
  997800    300.46866   -29248.164    144.19804   -29392.362    6981.9936 
  998000    300.56018   -29231.184    144.24196   -29375.426   -20447.811 
  998200    305.11821   -29222.858    146.42941   -29369.288    15798.794 
  998400    306.68994   -29236.317     147.1837   -29383.501   -40024.691 
  998600    288.78138   -29235.299    138.58919   -29373.888    8820.1846 
  998800    313.60267   -29212.743    150.50119   -29363.245    35249.152 
  999000     284.1404   -29232.585    136.36194   -29368.947   -19708.183 
  999200    275.17582   -29225.853    132.05974   -29357.913   -7220.2468 
  999400    359.21756   -29194.976    172.39225   -29367.368   -42020.489 
  999600     306.5071   -29221.633    147.09595   -29368.729    25252.568 
  999800    287.57836   -29236.378    138.01185    -29374.39      41680.8 
 1000000    312.21427   -29230.853    149.83488   -29380.688    7837.4838 
Loop time of 21256.2 on 8 procs for 1000000 steps with 162 atoms

Performance: 1.016 ns/day, 23.618 hours/ns, 47.045 timesteps/s
98.8% CPU use with 8 MPI tasks x no OpenMP threads

MPI task timing breakdown:
Section |  min time  |  avg time  |  max time  |%varavg| %total
---------------------------------------------------------------
Pair    | 16231      | 17710      | 18469      | 569.9 | 83.32
Neigh   | 3.7424     | 3.8595     | 4.0402     |   5.3 |  0.02
Comm    | 277.58     | 1036.3     | 2516.1     |2354.4 |  4.88
Output  | 0.46904    | 0.49968    | 0.67382    |   9.3 |  0.00
Modify  | 2491.3     | 2492.9     | 2495.1     |   2.6 | 11.73
Other   |            | 12.62      |            |       |  0.06

Nlocal:    20.25 ave 42 max 2 min
Histogram: 1 1 1 0 3 0 0 0 0 2
Nghost:    751.75 ave 780 max 726 min
Histogram: 2 1 0 0 0 2 0 2 0 1
Neighs:    2108.38 ave 4136 max 228 min
Histogram: 1 1 1 0 2 1 0 0 0 2

Total # of neighbors = 16867
Ave neighs/atom = 104.117
Neighbor list builds = 1084
Dangerous builds = 0

unfix 1
unfix output
undump 1

Please see the log.cite file for references relevant to this simulation

Total wall time: 5:57:15
