ITEM: TIMESTEP
0
ITEM: NUMBER OF ATOMS
65
ITEM: BOX BOUNDS pp pp pp
0.0000000000000000e+00 1.4190000000000000e+01
0.0000000000000000e+00 1.4190000000000000e+01
0.0000000000000000e+00 1.4190000000000000e+01
ITEM: ATOMS id type x y z 
57 1 2.098 0.759 2.098 
58 1 2.801 0.056 2.801 
59 1 0.759 0.759 0.759 
60 1 0.056 0.056 0.056 
61 1 0.759 2.098 2.098 
62 1 0.056 2.801 2.801 
63 1 2.098 2.098 0.759 
64 1 2.801 2.801 0.056 
41 1 4.307 4.307 12.741 
42 1 3.604 3.604 13.443 
43 1 4.307 5.646 11.401 
44 1 3.604 6.348 10.699 
45 1 5.646 5.646 12.741 
46 1 6.348 6.348 13.443 
47 1 5.646 4.307 11.401 
48 1 6.348 3.604 10.699 
25 1 4.307 12.741 4.307 
26 1 3.604 13.443 3.604 
27 1 5.646 11.401 4.307 
28 1 6.348 10.699 3.604 
29 1 5.646 12.741 5.646 
30 1 6.348 13.443 6.348 
31 1 4.307 11.401 5.646 
32 1 3.604 10.699 6.348 
65 2 3.6 13.226 5.363 
1 1 0.759 9.193 9.193 
2 1 0.056 9.896 9.896 
3 1 2.098 7.854 9.193 
4 1 2.801 7.151 9.896 
5 1 0.759 7.854 7.854 
6 1 0.056 7.151 7.151 
7 1 2.098 9.193 7.854 
8 1 2.801 9.896 7.151 
33 1 12.741 4.307 4.307 
34 1 13.443 3.604 3.604 
35 1 11.401 4.307 5.646 
36 1 10.699 3.604 6.348 
37 1 12.741 5.646 5.646 
38 1 13.443 6.348 6.348 
39 1 11.401 5.646 4.307 
40 1 10.699 6.348 3.604 
9 1 9.193 0.759 9.193 
10 1 9.896 0.056 9.896 
11 1 9.193 2.098 7.854 
12 1 9.896 2.801 7.151 
13 1 7.854 0.759 7.854 
14 1 7.151 0.056 7.151 
15 1 7.854 2.098 9.193 
16 1 7.151 2.801 9.896 
17 1 9.193 9.193 0.759 
18 1 9.896 9.896 0.056 
19 1 7.854 9.193 2.098 
20 1 7.151 9.896 2.801 
21 1 7.854 7.854 0.759 
22 1 7.151 7.151 0.056 
23 1 9.193 7.854 2.098 
24 1 9.896 7.151 2.801 
49 1 12.741 12.741 12.741 
50 1 13.443 13.443 13.443 
51 1 12.74 11.401 11.401 
52 1 13.443 10.699 10.699 
53 1 11.401 11.401 12.741 
54 1 10.699 10.699 13.443 
55 1 11.401 12.74 11.401 
56 1 10.699 13.443 10.699 
ITEM: TIMESTEP
10
ITEM: NUMBER OF ATOMS
65
ITEM: BOX BOUNDS pp pp pp
0.0000000000000000e+00 1.4190000000000000e+01
0.0000000000000000e+00 1.4190000000000000e+01
0.0000000000000000e+00 1.4190000000000000e+01
ITEM: ATOMS id type x y z 
57 1 2.09792 0.761021 2.0947 
58 1 2.7998 0.0585322 2.79301 
59 1 0.760103 0.757492 0.760811 
60 1 0.0572386 0.0575936 0.055689 
61 1 0.759734 2.09658 2.09898 
62 1 0.0574747 2.80068 2.80122 
63 1 2.09896 2.09659 0.759753 
64 1 2.80128 2.80074 0.05741 
41 1 4.3071 4.30713 12.7412 
42 1 3.60344 3.60362 13.4426 
43 1 4.30674 5.64591 11.4017 
44 1 3.6049 6.34759 10.6974 
45 1 5.64586 5.64586 12.7401 
46 1 6.34782 6.34778 13.4439 
47 1 5.64585 4.30676 11.4017 
48 1 6.34755 3.60479 10.6974 
25 1 4.32573 12.7377 4.26043 
26 1 3.57613 13.4619 3.6081 
27 1 5.6519 11.39 4.31946 
28 1 6.34509 10.6997 3.61003 
29 1 5.65123 12.7235 5.6546 
30 1 6.34543 13.4357 6.34633 
31 1 4.33329 11.3828 5.65578 
32 1 3.61092 10.6992 6.34653 
65 2 3.56618 13.2592 5.38123 
1 1 0.758088 9.19204 9.19322 
2 1 0.057474 9.89611 9.89636 
3 1 2.09748 7.85314 9.19283 
4 1 2.79971 7.1522 9.89725 
5 1 0.758083 7.8539 7.8548 
6 1 0.0567698 7.15105 7.15165 
7 1 2.0978 9.19488 7.85175 
8 1 2.80275 9.89722 7.15067 
33 1 12.7412 4.30713 4.30707 
34 1 13.4425 3.60364 3.60346 
35 1 11.4017 4.30677 5.64583 
36 1 10.6974 3.60479 6.34755 
37 1 12.7401 5.646 5.64579 
38 1 13.4439 6.34771 6.34772 
39 1 11.4017 5.64587 4.30675 
40 1 10.6974 6.34762 3.60478 
9 1 9.1932 0.759142 9.1932 
10 1 9.89631 0.0574304 9.8963 
11 1 9.19274 2.09854 7.85412 
12 1 9.8974 2.80009 7.15227 
13 1 7.85307 0.758828 7.85326 
14 1 7.15064 0.0565518 7.14986 
15 1 7.85412 2.09854 9.19274 
16 1 7.15227 2.8001 9.89741 
17 1 9.1928 9.19292 0.758512 
18 1 9.8961 9.89609 0.0575 
19 1 7.85307 9.1927 2.09747 
20 1 7.15297 9.89695 2.79985 
21 1 7.85411 7.85423 0.758526 
22 1 7.15127 7.1513 0.0568249 
23 1 9.19237 7.85354 2.09835 
24 1 9.89731 7.15225 2.7999 
49 1 12.7405 12.741 12.7402 
50 1 13.443 13.4421 13.4441 
51 1 12.7403 11.4015 11.4014 
52 1 13.442 10.6985 10.6984 
53 1 11.4016 11.4016 12.741 
54 1 10.6984 10.6984 13.4423 
55 1 11.4015 12.7403 11.4015 
56 1 10.6984 13.442 10.6984 
ITEM: TIMESTEP
20
ITEM: NUMBER OF ATOMS
65
ITEM: BOX BOUNDS pp pp pp
0.0000000000000000e+00 1.4190000000000000e+01
0.0000000000000000e+00 1.4190000000000000e+01
0.0000000000000000e+00 1.4190000000000000e+01
ITEM: ATOMS id type x y z 
57 1 2.09317 0.767207 2.08439 
58 1 2.79841 0.0598147 2.78831 
59 1 0.759417 0.755669 0.759953 
60 1 0.0565114 0.0554875 0.0553858 
61 1 0.758548 2.09663 2.10097 
62 1 0.0589019 2.80252 2.80302 
63 1 2.10108 2.09687 0.758571 
64 1 2.80329 2.80293 0.0585687 
41 1 4.30657 4.30796 12.742 
42 1 3.60374 3.6017 13.4406 
43 1 4.30653 5.64648 11.4024 
44 1 3.60582 6.34668 10.6956 
45 1 5.6454 5.6458 12.7402 
46 1 6.34805 6.34811 13.4436 
47 1 5.64604 4.30623 11.4026 
48 1 6.34635 3.60572 10.6955 
25 1 4.32034 12.7438 4.24063 
26 1 3.55923 13.4735 3.63115 
27 1 5.65717 11.3806 4.32925 
28 1 6.34875 10.6966 3.61192 
29 1 5.65452 12.7078 5.66261 
30 1 6.34651 13.4321 6.34796 
31 1 4.35021 11.375 5.66278 
32 1 3.62107 10.7015 6.34341 
65 2 3.55582 13.2723 5.36568 
1 1 0.757434 9.19157 9.1928 
2 1 0.0592422 9.89636 9.89776 
3 1 2.09757 7.85346 9.19241 
4 1 2.79785 7.15233 9.89862 
5 1 0.758946 7.85334 7.85514 
6 1 0.0556735 7.15164 7.15191 
7 1 2.09641 9.197 7.85042 
8 1 2.80376 9.8957 7.15117 
33 1 12.7419 4.30794 4.30653 
34 1 13.4406 3.60176 3.60369 
35 1 11.4025 4.30628 5.64603 
36 1 10.6955 3.60567 6.34631 
37 1 12.7406 5.64573 5.64522 
38 1 13.4437 6.34765 6.34831 
39 1 11.4025 5.64618 4.30636 
40 1 10.6966 6.3473 3.60534 
9 1 9.19288 0.759136 9.1929 
10 1 9.89699 0.0596023 9.89697 
11 1 9.19223 2.09847 7.85413 
12 1 9.89918 2.79968 7.15393 
13 1 7.85165 0.760784 7.85093 
14 1 7.15139 0.0540798 7.15164 
15 1 7.85414 2.09849 9.19223 
16 1 7.15391 2.7996 9.89918 
17 1 9.19203 9.19247 0.758375 
18 1 9.89705 9.89695 0.0593871 
19 1 7.85283 9.19521 2.09574 
20 1 7.15219 9.89429 2.80153 
21 1 7.8538 7.85524 0.758821 
22 1 7.15183 7.15025 0.0573047 
23 1 9.19271 7.85454 2.09812 
24 1 9.89638 7.15179 2.79966 
49 1 12.7403 12.7417 12.7397 
50 1 13.4431 13.4416 13.4447 
51 1 12.7411 11.4021 11.4017 
52 1 13.4402 10.6975 10.6975 
53 1 11.4021 11.4021 12.7418 
54 1 10.6975 10.6975 13.4404 
55 1 11.4019 12.741 11.4019 
56 1 10.6974 13.4401 10.6974 
ITEM: TIMESTEP
30
ITEM: NUMBER OF ATOMS
65
ITEM: BOX BOUNDS pp pp pp
0.0000000000000000e+00 1.4190000000000000e+01
0.0000000000000000e+00 1.4190000000000000e+01
0.0000000000000000e+00 1.4190000000000000e+01
ITEM: ATOMS id type x y z 
57 1 2.08923 0.77463 2.06156 
58 1 2.79316 0.0653011 2.77926 
59 1 0.755874 0.754491 0.758094 
60 1 0.0532133 0.0516062 0.0539558 
61 1 0.757249 2.09837 2.10278 
62 1 0.0540563 2.80225 2.80316 
63 1 2.10358 2.09991 0.757049 
64 1 2.80581 2.80496 0.0535909 
41 1 4.30871 4.30819 12.7386 
42 1 3.60515 3.60501 13.4429 
43 1 4.30782 5.64613 11.3999 
44 1 3.60177 6.34789 10.6988 
45 1 5.64652 5.64547 12.7416 
46 1 6.34778 6.34811 13.4431 
47 1 5.64553 4.30752 11.4005 
48 1 6.34745 3.60243 10.6994 
25 1 4.31342 12.7429 4.22955 
26 1 3.49802 13.5183 3.70031 
27 1 5.66708 11.3654 4.35662 
28 1 6.36197 10.6786 3.61474 
29 1 5.66625 12.6729 5.68385 
30 1 6.34851 13.4149 6.35455 
31 1 4.39188 11.3673 5.67341 
32 1 3.63892 10.693 6.34882 
65 2 3.54263 13.2973 5.28745 
1 1 0.759133 9.19015 9.19468 
2 1 0.056598 9.89628 9.8942 
3 1 2.09534 7.8533 9.1923 
4 1 2.79824 7.15371 9.89559 
5 1 0.760181 7.8535 7.85571 
6 1 0.0543893 7.15107 7.15501 
7 1 2.09538 9.20464 7.84378 
8 1 2.8101 9.89751 7.14843 
33 1 12.7383 4.30785 4.30736 
34 1 13.4446 3.60507 3.60642 
35 1 11.4003 4.30797 5.6457 
36 1 10.6993 3.60244 6.34715 
37 1 12.7403 5.64648 5.64616 
38 1 13.4456 6.34739 6.3467 
39 1 11.4005 5.64604 4.30662 
40 1 10.6986 6.34818 3.60347 
9 1 9.19191 0.761192 9.19391 
10 1 9.8969 0.0575303 9.89341 
11 1 9.19339 2.09827 7.8552 
12 1 9.8971 2.80128 7.15345 
13 1 7.8489 0.76454 7.84684 
14 1 7.15103 0.0509197 7.15155 
15 1 7.85536 2.09812 9.19337 
16 1 7.15339 2.80108 9.89698 
17 1 9.19292 9.19452 0.760476 
18 1 9.89615 9.89454 0.0541692 
19 1 7.85264 9.19716 2.08918 
20 1 7.15348 9.89208 2.80496 
21 1 7.8538 7.85402 0.760438 
22 1 7.15033 7.1514 0.0564407 
23 1 9.19206 7.85481 2.09812 
24 1 9.89473 7.15224 2.80082 
49 1 12.7377 12.7397 12.7389 
50 1 13.4437 13.4408 13.4424 
51 1 12.7407 11.4022 11.4005 
52 1 13.4428 10.6963 10.7008 
53 1 11.4014 11.4003 12.7403 
54 1 10.6995 10.7011 13.4454 
55 1 11.4004 12.7394 11.4004 
56 1 10.6983 13.445 10.7002 
ITEM: TIMESTEP
40
ITEM: NUMBER OF ATOMS
65
ITEM: BOX BOUNDS pp pp pp
0.0000000000000000e+00 1.4190000000000000e+01
0.0000000000000000e+00 1.4190000000000000e+01
0.0000000000000000e+00 1.4190000000000000e+01
ITEM: ATOMS id type x y z 
57 1 2.09688 0.76886 2.0554 
58 1 2.78449 0.0729206 2.78276 
59 1 0.752226 0.756463 0.75411 
60 1 0.0501624 0.0523577 0.0558024 
61 1 0.753899 2.10212 2.09665 
62 1 0.0552168 2.80045 2.80585 
63 1 2.10149 2.10575 0.754386 
64 1 2.80567 2.80443 0.0524726 
41 1 4.31034 4.30879 12.739 
42 1 3.60589 3.6072 13.4402 
43 1 4.30619 5.64612 11.4001 
44 1 3.60306 6.35112 10.6977 
45 1 5.64792 5.6461 12.7427 
46 1 6.34561 6.34869 13.4413 
47 1 5.64522 4.30632 11.4007 
48 1 6.3501 3.60428 10.699 
25 1 4.32297 12.735 4.21977 
26 1 3.47736 13.5319 3.74438 
27 1 5.67437 11.3585 4.35551 
28 1 6.36127 10.6782 3.6269 
29 1 5.67054 12.6625 5.69049 
30 1 6.35364 13.4091 6.36095 
31 1 4.40007 11.3578 5.68572 
32 1 3.64764 10.6886 6.35354 
65 2 3.53347 13.3118 5.24139 
1 1 0.761277 9.19121 9.19399 
2 1 0.056508 9.89559 9.89365 
3 1 2.09596 7.85538 9.1928 
4 1 2.7957 7.15255 9.89199 
5 1 0.760596 7.85454 7.85617 
6 1 0.0589667 7.14985 7.15218 
7 1 2.09196 9.20671 7.84184 
8 1 2.8123 9.89482 7.15062 
33 1 12.7391 4.30889 4.30887 
34 1 13.4415 3.60597 3.60494 
35 1 11.4007 4.30691 5.6452 
36 1 10.699 3.60482 6.35028 
37 1 12.7421 5.64647 5.64664 
38 1 13.4415 6.34944 6.34921 
39 1 11.4003 5.64629 4.30619 
40 1 10.698 6.34914 3.60518 
9 1 9.19275 0.761781 9.19194 
10 1 9.8938 0.059321 9.89679 
11 1 9.19497 2.09754 7.85568 
12 1 9.89531 2.79999 7.15061 
13 1 7.84675 0.767548 7.8438 
14 1 7.15191 0.0474117 7.15361 
15 1 7.85586 2.09754 9.19488 
16 1 7.1511 2.7995 9.89541 
17 1 9.19231 9.19483 0.759987 
18 1 9.89924 9.89544 0.0568648 
19 1 7.85264 9.19745 2.08602 
20 1 7.15556 9.88997 2.80439 
21 1 7.85302 7.85461 0.760792 
22 1 7.15083 7.14846 0.056908 
23 1 9.19197 7.85516 2.0988 
24 1 9.89459 7.15146 2.79881 
49 1 12.7382 12.7369 12.7385 
50 1 13.442 13.4417 13.4398 
51 1 12.7405 11.4009 11.3995 
52 1 13.4443 10.6965 10.7008 
53 1 11.4019 11.3998 12.7414 
54 1 10.6976 10.7015 13.4418 
55 1 11.4001 12.7412 11.401 
56 1 10.6987 13.4425 10.6963 
ITEM: TIMESTEP
50
ITEM: NUMBER OF ATOMS
65
ITEM: BOX BOUNDS pp pp pp
0.0000000000000000e+00 1.4190000000000000e+01
0.0000000000000000e+00 1.4190000000000000e+01
0.0000000000000000e+00 1.4190000000000000e+01
ITEM: ATOMS id type x y z 
57 1 2.09932 0.767052 2.05237 
58 1 2.78195 0.0748503 2.78673 
59 1 0.750405 0.757836 0.755395 
60 1 0.0501891 0.0534461 0.0520921 
61 1 0.753248 2.10214 2.09577 
62 1 0.0539748 2.80249 2.80207 
63 1 2.10048 2.10589 0.753605 
64 1 2.8045 2.80747 0.0518902 
41 1 4.31122 4.3088 12.7379 
42 1 3.60649 3.60714 13.4405 
43 1 4.30647 5.64665 11.3996 
44 1 3.60116 6.34981 10.6976 
45 1 5.64567 5.64575 12.74 
46 1 6.34893 6.34843 13.4445 
47 1 5.64577 4.30661 11.4009 
48 1 6.3488 3.60379 10.6981 
25 1 4.327 12.7313 4.21526 
26 1 3.47409 13.534 3.75525 
27 1 5.67228 11.361 4.35846 
28 1 6.36589 10.6735 3.62552 
29 1 5.67038 12.6595 5.69229 
30 1 6.35459 13.4055 6.36267 
31 1 4.40452 11.3586 5.68743 
32 1 3.64942 10.6857 6.35669 
65 2 3.52827 13.3177 5.23332 
1 1 0.760836 9.19228 9.19262 
2 1 0.0584299 9.89392 9.89744 
3 1 2.09387 7.8556 9.19128 
4 1 2.79933 7.15363 9.89338 
5 1 0.761078 7.85397 7.85549 
6 1 0.0582519 7.15068 7.15249 
7 1 2.08982 9.20675 7.84164 
8 1 2.81403 9.89477 7.15068 
33 1 12.7391 4.30929 4.3083 
34 1 13.4421 3.6045 3.60783 
35 1 11.4002 4.30734 5.64556 
36 1 10.6989 3.60478 6.34985 
37 1 12.7407 5.64604 5.64682 
38 1 13.4436 6.34988 6.3492 
39 1 11.4004 5.64587 4.30624 
40 1 10.6978 6.34992 3.60537 
9 1 9.19155 0.761832 9.19296 
10 1 9.89543 0.0586662 9.89353 
11 1 9.19431 2.09741 7.85533 
12 1 9.89655 2.79965 7.15087 
13 1 7.84634 0.768684 7.84324 
14 1 7.15226 0.0468256 7.15407 
15 1 7.85562 2.09659 9.19468 
16 1 7.15189 2.80026 9.89624 
17 1 9.19403 9.19416 0.760379 
18 1 9.89589 9.89818 0.0557568 
19 1 7.85283 9.19751 2.08374 
20 1 7.1558 9.88939 2.80642 
21 1 7.85324 7.85438 0.760831 
22 1 7.14941 7.14898 0.056247 
23 1 9.19197 7.85511 2.098 
24 1 9.89448 7.15127 2.7994 
49 1 12.7387 12.7364 12.7379 
50 1 13.4403 13.4409 13.4412 
51 1 12.7406 11.4 11.4008 
52 1 13.4433 10.6984 10.6967 
53 1 11.4015 11.4017 12.7398 
54 1 10.6999 10.6978 13.4441 
55 1 11.4001 12.7399 11.3996 
56 1 10.6976 13.4449 10.6991 
ITEM: TIMESTEP
60
ITEM: NUMBER OF ATOMS
65
ITEM: BOX BOUNDS pp pp pp
0.0000000000000000e+00 1.4190000000000000e+01
0.0000000000000000e+00 1.4190000000000000e+01
0.0000000000000000e+00 1.4190000000000000e+01
ITEM: ATOMS id type x y z 
57 1 2.10608 0.762082 2.04335 
58 1 2.77399 0.0812058 2.79752 
59 1 0.746037 0.762 0.753962 
60 1 0.0469631 0.0558075 0.0513503 
61 1 0.751223 2.10343 2.09121 
62 1 0.0523413 2.80352 2.79737 
63 1 2.09601 2.11072 0.752124 
64 1 2.80352 2.80949 0.0502081 
41 1 4.31232 4.30931 12.7372 
42 1 3.60727 3.60788 13.4401 
43 1 4.30588 5.64797 11.3986 
44 1 3.60233 6.3502 10.697 
45 1 5.64595 5.64595 12.7396 
46 1 6.34816 6.34829 13.4435 
47 1 5.64634 4.30728 11.3997 
48 1 6.34916 3.60355 10.6979 
25 1 4.33083 12.7259 4.2106 
26 1 3.47339 13.5344 3.77055 
27 1 5.67331 11.3609 4.35681 
28 1 6.3695 10.6696 3.62965 
29 1 5.66915 12.6541 5.69681 
30 1 6.35721 13.3965 6.36816 
31 1 4.41128 11.3588 5.69376 
32 1 3.65852 10.6813 6.36255 
65 2 3.51985 13.3277 5.22411 
1 1 0.762587 9.19333 9.19351 
2 1 0.0581711 9.89525 9.89606 
3 1 2.09486 7.85651 9.19059 
4 1 2.79707 7.15367 9.893 
5 1 0.762613 7.85335 7.85408 
6 1 0.0582058 7.15114 7.1518 
7 1 2.08573 9.20788 7.83976 
8 1 2.81707 9.89327 7.15248 
33 1 12.7408 4.30772 4.31157 
34 1 13.4408 3.60627 3.60539 
35 1 11.4002 4.30834 5.64651 
36 1 10.6984 3.60436 6.34921 
37 1 12.74 5.64695 5.6474 
38 1 13.444 6.34911 6.34955 
39 1 11.4001 5.64678 4.30759 
40 1 10.6978 6.34889 3.60445 
9 1 9.19167 0.762772 9.19238 
10 1 9.89386 0.0592018 9.89408 
11 1 9.19483 2.09609 7.8543 
12 1 9.89667 2.80008 7.15127 
13 1 7.84466 0.771582 7.84061 
14 1 7.15277 0.0438752 7.1554 
15 1 7.85497 2.09579 9.19471 
16 1 7.15196 2.79925 9.8969 
17 1 9.19474 9.19535 0.760198 
18 1 9.89711 9.89794 0.0564898 
19 1 7.85278 9.19768 2.08123 
20 1 7.15732 9.88752 2.8069 
21 1 7.85216 7.85226 0.760899 
22 1 7.14978 7.15001 0.0569302 
23 1 9.19224 7.85425 2.09749 
24 1 9.89455 7.152 2.80036 
49 1 12.7393 12.7346 12.7372 
50 1 13.4391 13.4406 13.4405 
51 1 12.74 11.3996 11.3996 
52 1 13.4442 10.6973 10.6977 
53 1 11.4015 11.4011 12.7393 
54 1 10.6991 10.6987 13.4431 
55 1 11.3996 12.7405 11.3992 
56 1 10.6974 13.4441 10.6976 
ITEM: TIMESTEP
70
ITEM: NUMBER OF ATOMS
65
ITEM: BOX BOUNDS pp pp pp
0.0000000000000000e+00 1.4190000000000000e+01
0.0000000000000000e+00 1.4190000000000000e+01
0.0000000000000000e+00 1.4190000000000000e+01
ITEM: ATOMS id type x y z 
57 1 2.13243 0.743124 1.99773 
58 1 2.73888 0.111002 2.83599 
59 1 0.720074 0.780888 0.752001 
60 1 0.0324621 0.0656526 0.045532 
61 1 0.740216 2.11343 2.06317 
62 1 0.0433426 2.80838 2.77593 
63 1 2.08669 2.12731 0.748008 
64 1 2.78803 2.8313 0.0438935 
41 1 4.32436 4.30316 12.7349 
42 1 3.60258 3.61671 13.4364 
43 1 4.3025 5.64877 11.3961 
44 1 3.60711 6.35549 10.6932 
45 1 5.64562 5.64829 12.7358 
46 1 6.34708 6.34851 13.4418 
47 1 5.64873 4.3097 11.3962 
48 1 6.35001 3.60294 10.6951 
25 1 4.32654 12.7145 4.2377 
26 1 3.4856 13.5299 3.77478 
27 1 5.67969 11.3573 4.35066 
28 1 6.37335 10.665 3.62513 
29 1 5.66936 12.637 5.71642 
30 1 6.36271 13.3648 6.39982 
31 1 4.43271 11.3548 5.71979 
32 1 3.69814 10.6646 6.39723 
65 2 3.51413 13.3385 5.23597 
1 1 0.771308 9.19855 9.19549 
2 1 0.061889 9.89849 9.8956 
3 1 2.09007 7.85729 9.18935 
4 1 2.79744 7.15711 9.88959 
5 1 0.769313 7.85123 7.84806 
6 1 0.061676 7.14965 7.14796 
7 1 2.07568 9.21085 7.83002 
8 1 2.82304 9.89298 7.15518 
33 1 12.7499 4.30445 4.32077 
34 1 13.4353 3.60688 3.59863 
35 1 11.3971 4.31192 5.64815 
36 1 10.6979 3.60456 6.35044 
37 1 12.7364 5.64845 5.6498 
38 1 13.4441 6.35116 6.34896 
39 1 11.3998 5.64721 4.31216 
40 1 10.6978 6.34874 3.60731 
9 1 9.18904 0.766803 9.19212 
10 1 9.89158 0.0606288 9.8909 
11 1 9.19566 2.09017 7.8489 
12 1 9.89783 2.79743 7.14934 
13 1 7.83962 0.779846 7.82972 
14 1 7.15435 0.0338266 7.15752 
15 1 7.85281 2.08705 9.19771 
16 1 7.15048 2.79709 9.89488 
17 1 9.19763 9.19829 0.762609 
18 1 9.89928 9.89876 0.0572539 
19 1 7.85793 9.19335 2.08087 
20 1 7.16124 9.88304 2.80563 
21 1 7.85058 7.84659 0.764372 
22 1 7.14884 7.14888 0.0560276 
23 1 9.19397 7.85099 2.09384 
24 1 9.89587 7.15153 2.80005 
49 1 12.7417 12.7277 12.7347 
50 1 13.435 13.4412 13.4377 
51 1 12.7382 11.3979 11.3971 
52 1 13.443 10.6968 10.695 
53 1 11.3978 11.4021 12.7345 
54 1 10.7014 10.698 13.4424 
55 1 11.3975 12.7401 11.3953 
56 1 10.6948 13.4443 10.6957 
ITEM: TIMESTEP
80
ITEM: NUMBER OF ATOMS
65
ITEM: BOX BOUNDS pp pp pp
0.0000000000000000e+00 1.4190000000000000e+01
0.0000000000000000e+00 1.4190000000000000e+01
0.0000000000000000e+00 1.4190000000000000e+01
ITEM: ATOMS id type x y z 
57 1 2.13433 0.742705 1.98912 
58 1 2.74196 0.109557 2.81985 
59 1 0.711425 0.786698 0.753765 
60 1 0.0219187 0.0693011 0.0495514 
61 1 0.728844 2.11706 2.04532 
62 1 0.0403253 2.81185 2.76807 
63 1 2.07882 2.1401 0.751664 
64 1 2.78991 2.83446 0.044534 
41 1 4.32257 4.30705 12.7311 
42 1 3.60503 3.61533 13.4354 
43 1 4.30938 5.65302 11.3938 
44 1 3.60073 6.35267 10.6931 
45 1 5.64403 5.65146 12.7319 
46 1 6.34773 6.34905 13.4421 
47 1 5.6487 4.31226 11.3912 
48 1 6.35126 3.5987 10.6977 
25 1 4.31585 12.717 4.23382 
26 1 3.47958 13.5379 3.79075 
27 1 5.67648 11.3583 4.35026 
28 1 6.37268 10.67 3.62168 
29 1 5.67473 12.6141 5.73557 
30 1 6.36378 13.3626 6.40263 
31 1 4.45979 11.3457 5.73854 
32 1 3.69825 10.6659 6.40111 
65 2 3.51163 13.3433 5.24482 
1 1 0.775136 9.2007 9.19646 
2 1 0.0650741 9.90104 9.89574 
3 1 2.09203 7.85993 9.18887 
4 1 2.79516 7.15499 9.89081 
5 1 0.772738 7.85109 7.84359 
6 1 0.0640561 7.14725 7.14672 
7 1 2.0684 9.2086 7.82554 
8 1 2.83163 9.89061 7.16655 
33 1 12.7469 4.30056 4.31921 
34 1 13.443 3.60919 3.60085 
35 1 11.3972 4.31385 5.64946 
36 1 10.6962 3.60388 6.34803 
37 1 12.7347 5.64947 5.65079 
38 1 13.4457 6.35176 6.34617 
39 1 11.3996 5.64774 4.31535 
40 1 10.6978 6.34715 3.60764 
9 1 9.18953 0.768215 9.19212 
10 1 9.89 0.0603628 9.89267 
11 1 9.19682 2.08712 7.8459 
12 1 9.89801 2.7949 7.14586 
13 1 7.8437 0.782077 7.82781 
14 1 7.15145 0.032813 7.16484 
15 1 7.85022 2.08125 9.20059 
16 1 7.14872 2.79807 9.89085 
17 1 9.20141 9.19617 0.765324 
18 1 9.89847 9.89979 0.0568008 
19 1 7.85814 9.19276 2.07659 
20 1 7.16547 9.8783 2.81051 
21 1 7.85275 7.8467 0.763815 
22 1 7.14734 7.14523 0.0585874 
23 1 9.19672 7.84778 2.09273 
24 1 9.89941 7.14846 2.79943 
49 1 12.7454 12.7252 12.7303 
50 1 13.4303 13.443 13.4371 
51 1 12.7352 11.3962 11.3945 
52 1 13.4466 10.6987 10.6936 
53 1 11.3995 11.4013 12.7346 
54 1 10.696 10.7002 13.4397 
55 1 11.3968 12.7392 11.3931 
56 1 10.694 13.4453 10.6945 
ITEM: TIMESTEP
90
ITEM: NUMBER OF ATOMS
65
ITEM: BOX BOUNDS pp pp pp
0.0000000000000000e+00 1.4190000000000000e+01
0.0000000000000000e+00 1.4190000000000000e+01
0.0000000000000000e+00 1.4190000000000000e+01
ITEM: ATOMS id type x y z 
57 1 2.13202 0.743769 1.98891 
58 1 2.74788 0.10708 2.81253 
59 1 0.707988 0.786148 0.755902 
60 1 0.0223076 0.0689514 0.0488565 
61 1 0.726169 2.11884 2.04302 
62 1 0.0415938 2.81312 2.76983 
63 1 2.07854 2.14251 0.751935 
64 1 2.79264 2.83303 0.0466594 
41 1 4.32154 4.30661 12.7303 
42 1 3.60538 3.6174 13.4346 
43 1 4.30781 5.65222 11.3934 
44 1 3.60267 6.35377 10.693 
45 1 5.64422 5.65134 12.7334 
46 1 6.34686 6.34992 13.4408 
47 1 5.64885 4.31086 11.3925 
48 1 6.34985 3.60273 10.6929 
25 1 4.31228 12.7167 4.23928 
26 1 3.47675 13.5398 3.79234 
27 1 5.67512 11.3608 4.34613 
28 1 6.37378 10.6663 3.62631 
29 1 5.67531 12.6122 5.73937 
30 1 6.36457 13.3629 6.40293 
31 1 4.46041 11.3453 5.73908 
32 1 3.70007 10.6671 6.40441 
65 2 3.51441 13.3411 5.2456 
1 1 0.776286 9.20169 9.19658 
2 1 0.0657246 9.90038 9.89599 
3 1 2.09037 7.85802 9.19002 
4 1 2.79565 7.15632 9.89074 
5 1 0.774104 7.84972 7.84346 
6 1 0.0640213 7.14965 7.14443 
7 1 2.06987 9.21021 7.82639 
8 1 2.83024 9.88962 7.1625 
33 1 12.7486 4.30126 4.3206 
34 1 13.4393 3.60854 3.59832 
35 1 11.3972 4.31269 5.64845 
36 1 10.6965 3.60429 6.3486 
37 1 12.7359 5.64976 5.64846 
38 1 13.4446 6.34964 6.34919 
39 1 11.3995 5.64702 4.31491 
40 1 10.6991 6.34801 3.60809 
9 1 9.18927 0.768012 9.19353 
10 1 9.89123 0.0612007 9.89268 
11 1 9.19703 2.08562 7.84459 
12 1 9.89739 2.79547 7.14594 
13 1 7.84208 0.782518 7.82842 
14 1 7.15295 0.0323221 7.16357 
15 1 7.84971 2.08228 9.19861 
16 1 7.1495 2.79334 9.8962 
17 1 9.20051 9.19673 0.764624 
18 1 9.89954 9.89857 0.0574959 
19 1 7.85838 9.19191 2.07918 
20 1 7.16344 9.88227 2.80536 
21 1 7.85201 7.8449 0.764934 
22 1 7.14947 7.14667 0.0578889 
23 1 9.19784 7.84711 2.0916 
24 1 9.89819 7.14757 2.79949 
49 1 12.7437 12.7258 12.7308 
50 1 13.4313 13.4426 13.4358 
51 1 12.7358 11.3974 11.3934 
52 1 13.4457 10.6978 10.6942 
53 1 11.3973 11.4022 12.7336 
54 1 10.6977 10.7 13.4406 
55 1 11.3961 12.739 11.394 
56 1 10.6948 13.4445 10.6938 
ITEM: TIMESTEP
100
ITEM: NUMBER OF ATOMS
65
ITEM: BOX BOUNDS pp pp pp
0.0000000000000000e+00 1.4190000000000000e+01
0.0000000000000000e+00 1.4190000000000000e+01
0.0000000000000000e+00 1.4190000000000000e+01
ITEM: ATOMS id type x y z 
57 1 2.133 0.743601 1.98724 
58 1 2.74724 0.106835 2.81187 
59 1 0.707656 0.785862 0.756166 
60 1 0.0213789 0.0688346 0.0497945 
61 1 0.726082 2.11993 2.04255 
62 1 0.0398971 2.81319 2.76863 
63 1 2.07848 2.14329 0.752708 
64 1 2.79328 2.833 0.0471862 
41 1 4.32087 4.30693 12.7296 
42 1 3.60604 3.61725 13.4349 
43 1 4.30798 5.65239 11.3933 
44 1 3.60265 6.35373 10.6926 
45 1 5.6441 5.65166 12.7334 
46 1 6.3471 6.34991 13.4407 
47 1 5.64902 4.31163 11.3918 
48 1 6.34952 3.60198 10.6935 
25 1 4.31128 12.7166 4.23936 
26 1 3.47673 13.5405 3.79151 
27 1 5.67481 11.3611 4.34607 
28 1 6.37325 10.667 3.62575 
29 1 5.67584 12.6111 5.74022 
30 1 6.36456 13.3621 6.40384 
31 1 4.46145 11.3453 5.74068 
32 1 3.70057 10.6663 6.40413 
65 2 3.51452 13.341 5.24735 
1 1 0.77667 9.20155 9.1967 
2 1 0.0662793 9.9006 9.89611 
3 1 2.08986 7.85783 9.19028 
4 1 2.79552 7.15646 9.89088 
5 1 0.774267 7.84981 7.8433 
6 1 0.0645099 7.1491 7.14466 
7 1 2.06956 9.21052 7.82626 
8 1 2.83051 9.88981 7.16276 
33 1 12.7491 4.30155 4.32102 
34 1 13.4389 3.60843 3.59833 
35 1 11.3971 4.31288 5.64869 
36 1 10.6964 3.6037 6.34799 
37 1 12.7358 5.64952 5.64891 
38 1 13.4453 6.35028 6.34799 
39 1 11.3996 5.64738 4.3152 
40 1 10.6991 6.34735 3.60769 
9 1 9.18953 0.767915 9.19339 
10 1 9.89141 0.0619181 9.89332 
11 1 9.19697 2.08559 7.84462 
12 1 9.89754 2.79486 7.14543 
13 1 7.84201 0.783168 7.82807 
14 1 7.15316 0.0321057 7.1639 
15 1 7.84981 2.08258 9.1983 
16 1 7.14917 2.79237 9.89665 
17 1 9.20051 9.19652 0.764634 
18 1 9.89967 9.89848 0.0577287 
19 1 7.85875 9.19158 2.08011 
20 1 7.16282 9.88281 2.80431 
21 1 7.8523 7.84476 0.765144 
22 1 7.14947 7.14677 0.0579849 
23 1 9.19809 7.84708 2.0915 
24 1 9.8985 7.14716 2.79918 
49 1 12.7442 12.7258 12.73 
50 1 13.4304 13.4428 13.436 
51 1 12.7356 11.3972 11.3933 
52 1 13.4459 10.6981 10.6939 
53 1 11.3969 11.4023 12.7335 
54 1 10.6976 10.7001 13.4407 
55 1 11.3964 12.7388 11.3937 
56 1 10.6943 13.4443 10.694 
ITEM: TIMESTEP
110
ITEM: NUMBER OF ATOMS
65
ITEM: BOX BOUNDS pp pp pp
0.0000000000000000e+00 1.4190000000000000e+01
0.0000000000000000e+00 1.4190000000000000e+01
0.0000000000000000e+00 1.4190000000000000e+01
ITEM: ATOMS id type x y z 
57 1 2.13306 0.743566 1.98707 
58 1 2.74722 0.106852 2.81181 
59 1 0.707598 0.785879 0.756195 
60 1 0.0213254 0.0687922 0.0498703 
61 1 0.726074 2.12001 2.0425 
62 1 0.0397656 2.81319 2.76855 
63 1 2.0785 2.14333 0.752774 
64 1 2.79331 2.83304 0.0472383 
41 1 4.32082 4.30692 12.7295 
42 1 3.60609 3.61728 13.435 
43 1 4.30801 5.6524 11.3932 
44 1 3.60265 6.35377 10.6927 
45 1 5.64409 5.6517 12.7334 
46 1 6.34711 6.3499 13.4407 
47 1 5.64898 4.31162 11.3917 
48 1 6.34959 3.60204 10.6935 
25 1 4.31113 12.7167 4.23941 
26 1 3.47674 13.5405 3.7915 
27 1 5.67478 11.3612 4.34605 
28 1 6.37319 10.6671 3.62568 
29 1 5.67588 12.611 5.74025 
30 1 6.36457 13.362 6.40397 
31 1 4.46154 11.3453 5.74079 
32 1 3.70062 10.6662 6.40417 
65 2 3.51457 13.341 5.24741 
1 1 0.776706 9.20155 9.19672 
2 1 0.0663199 9.90064 9.89609 
3 1 2.08989 7.85784 9.19026 
4 1 2.79541 7.1564 9.89094 
5 1 0.774264 7.84979 7.84335 
6 1 0.0645673 7.14912 7.14458 
7 1 2.06952 9.21059 7.82626 
8 1 2.83054 9.88974 7.16275 
33 1 12.7492 4.30155 4.3211 
34 1 13.4388 3.60847 3.59825 
35 1 11.3971 4.31291 5.64868 
36 1 10.6965 3.60363 6.34797 
37 1 12.7357 5.64953 5.64897 
38 1 13.4454 6.35027 6.3479 
39 1 11.3996 5.64739 4.31523 
40 1 10.6991 6.34732 3.60767 
9 1 9.18949 0.767899 9.19341 
10 1 9.89143 0.0619393 9.89333 
11 1 9.19696 2.08559 7.84461 
12 1 9.89754 2.79482 7.14539 
13 1 7.84201 0.783259 7.82799 
14 1 7.15316 0.0320489 7.16398 
15 1 7.84981 2.08256 9.19831 
16 1 7.14911 2.79229 9.89667 
17 1 9.20056 9.19648 0.764655 
18 1 9.89959 9.89853 0.0577281 
19 1 7.85877 9.19156 2.08018 
20 1 7.16278 9.88285 2.80424 
21 1 7.85232 7.84476 0.765147 
22 1 7.14949 7.14676 0.0580085 
23 1 9.19809 7.84705 2.09152 
24 1 9.89857 7.14714 2.79912 
49 1 12.7442 12.7258 12.7299 
50 1 13.4304 13.4428 13.4361 
51 1 12.7356 11.3972 11.3932 
52 1 13.446 10.6981 10.6939 
53 1 11.3969 11.4023 12.7335 
54 1 10.6977 10.7 13.4406 
55 1 11.3963 12.7387 11.3937 
56 1 10.6944 13.4444 10.694 
ITEM: TIMESTEP
112
ITEM: NUMBER OF ATOMS
65
ITEM: BOX BOUNDS pp pp pp
0.0000000000000000e+00 1.4190000000000000e+01
0.0000000000000000e+00 1.4190000000000000e+01
0.0000000000000000e+00 1.4190000000000000e+01
ITEM: ATOMS id type x y z 
57 1 2.13307 0.743567 1.98707 
58 1 2.74722 0.106849 2.81181 
59 1 0.707598 0.785878 0.756196 
60 1 0.0213228 0.0687923 0.0498724 
61 1 0.726074 2.12001 2.0425 
62 1 0.0397635 2.81319 2.76855 
63 1 2.0785 2.14333 0.752777 
64 1 2.79331 2.83304 0.0472352 
41 1 4.32082 4.30692 12.7295 
42 1 3.60609 3.61728 13.435 
43 1 4.30802 5.6524 11.3932 
44 1 3.60265 6.35377 10.6927 
45 1 5.64409 5.6517 12.7334 
46 1 6.34712 6.3499 13.4407 
47 1 5.64898 4.31162 11.3917 
48 1 6.34959 3.60204 10.6935 
25 1 4.31113 12.7167 4.23941 
26 1 3.47675 13.5405 3.7915 
27 1 5.67478 11.3612 4.34605 
28 1 6.37319 10.6671 3.62568 
29 1 5.67588 12.611 5.74025 
30 1 6.36457 13.362 6.40397 
31 1 4.46155 11.3453 5.74079 
32 1 3.70063 10.6662 6.40417 
65 2 3.51457 13.341 5.24741 
1 1 0.776707 9.20155 9.19672 
2 1 0.066322 9.90064 9.89609 
3 1 2.08989 7.85784 9.19026 
4 1 2.79541 7.1564 9.89094 
5 1 0.774263 7.84979 7.84335 
6 1 0.0645693 7.14912 7.14458 
7 1 2.06952 9.21059 7.82626 
8 1 2.83054 9.88975 7.16275 
33 1 12.7492 4.30155 4.32111 
34 1 13.4388 3.60847 3.59825 
35 1 11.3971 4.31291 5.64868 
36 1 10.6965 3.60363 6.34797 
37 1 12.7357 5.64953 5.64897 
38 1 13.4454 6.35027 6.3479 
39 1 11.3996 5.64739 4.31523 
40 1 10.6991 6.34732 3.60767 
9 1 9.18949 0.767899 9.19342 
10 1 9.89143 0.0619395 9.89333 
11 1 9.19696 2.08559 7.84461 
12 1 9.89754 2.79481 7.14539 
13 1 7.84201 0.783261 7.82799 
14 1 7.15316 0.0320482 7.16398 
15 1 7.84981 2.08256 9.19831 
16 1 7.14911 2.79228 9.89667 
17 1 9.20056 9.19648 0.764655 
18 1 9.8996 9.89853 0.0577302 
19 1 7.85877 9.19156 2.08018 
20 1 7.16278 9.88285 2.80424 
21 1 7.85232 7.84476 0.765146 
22 1 7.14949 7.14676 0.0580105 
23 1 9.19809 7.84705 2.09152 
24 1 9.89858 7.14714 2.79911 
49 1 12.7442 12.7258 12.7299 
50 1 13.4304 13.4428 13.4361 
51 1 12.7356 11.3972 11.3932 
52 1 13.446 10.6981 10.6939 
53 1 11.3969 11.4023 12.7335 
54 1 10.6977 10.7001 13.4406 
55 1 11.3963 12.7387 11.3937 
56 1 10.6944 13.4444 10.694 
ITEM: TIMESTEP
120
ITEM: NUMBER OF ATOMS
65
ITEM: BOX BOUNDS pp pp pp
0.0000000000000000e+00 1.4190000000000000e+01
0.0000000000000000e+00 1.4190000000000000e+01
0.0000000000000000e+00 1.4190000000000000e+01
ITEM: ATOMS id type x y z 
57 1 2.13307 0.743562 1.98704 
58 1 2.74722 0.106849 2.81179 
59 1 0.707585 0.785874 0.75621 
60 1 0.0213122 0.0687923 0.0498801 
61 1 0.726072 2.12002 2.04249 
62 1 0.0397406 2.81319 2.76853 
63 1 2.07851 2.14334 0.752792 
64 1 2.79331 2.83304 0.0472452 
41 1 4.32082 4.30692 12.7295 
42 1 3.60609 3.61728 13.435 
43 1 4.30803 5.65242 11.3932 
44 1 3.60264 6.35376 10.6927 
45 1 5.64409 5.65171 12.7334 
46 1 6.34712 6.3499 13.4407 
47 1 5.64898 4.31163 11.3917 
48 1 6.34958 3.60204 10.6935 
25 1 4.31111 12.7167 4.23942 
26 1 3.47674 13.5405 3.7915 
27 1 5.67477 11.3612 4.34605 
28 1 6.37317 10.6671 3.62566 
29 1 5.67589 12.611 5.74026 
30 1 6.36457 13.362 6.40399 
31 1 4.46156 11.3453 5.74079 
32 1 3.70064 10.6663 6.40419 
65 2 3.51458 13.341 5.24743 
1 1 0.776716 9.20155 9.19672 
2 1 0.0663257 9.90064 9.89609 
3 1 2.08989 7.85785 9.19027 
4 1 2.79539 7.15638 9.89094 
5 1 0.774265 7.84979 7.84335 
6 1 0.0645757 7.14912 7.14458 
7 1 2.06951 9.21058 7.82624 
8 1 2.83054 9.88976 7.16276 
33 1 12.7492 4.30155 4.32112 
34 1 13.4388 3.60847 3.59824 
35 1 11.3971 4.31291 5.64868 
36 1 10.6965 3.60362 6.34797 
37 1 12.7357 5.64953 5.64898 
38 1 13.4455 6.35027 6.34788 
39 1 11.3996 5.64738 4.31525 
40 1 10.6991 6.34732 3.60765 
9 1 9.18948 0.767895 9.19342 
10 1 9.89144 0.0619451 9.89333 
11 1 9.19696 2.08558 7.8446 
12 1 9.89754 2.79481 7.14538 
13 1 7.84202 0.783277 7.82797 
14 1 7.15316 0.0320349 7.16401 
15 1 7.84982 2.08256 9.19831 
16 1 7.14909 2.79226 9.89667 
17 1 9.20056 9.19647 0.764656 
18 1 9.89959 9.89853 0.0577323 
19 1 7.85877 9.19155 2.08019 
20 1 7.16278 9.88286 2.80424 
21 1 7.85232 7.84476 0.765148 