
     Program PWSCF v.7.1 starts on 25May2025 at  1: 0:10 

     This program is part of the open-source Quantum ESPRESSO suite
     for quantum simulation of materials; please cite
         "P. Giannozzi et al., J. Phys.:Condens. Matter 21 395502 (2009);
         "P. Giannozzi et al., J. Phys.:Condens. Matter 29 465901 (2017);
         "P. Giannozzi et al., J. Chem. Phys. 152 154105 (2020);
          URL http://www.quantum-espresso.org", 
     in publications or presentations arising from this work. More details at
     http://www.quantum-espresso.org/quote

     Parallel version (MPI), running on    16 processors

     MPI processes distributed on     1 nodes
     246348 MiB available memory on the printing compute node when the environment starts

     Reading input from input.pwi
Warning: card &CELL ignored
Warning: card / ignored
Warning: card &FCP ignored
Warning: card / ignored
Warning: card &RISM ignored
Warning: card / ignored

     Current dimensions of program PWSCF are:
     Max number of different atomic species (ntypx) = 10
     Max number of k-points (npk) =  40000
     Max angular momentum in pseudopotentials (lmaxx) =  4
     file C.pbe-n-kjpaw_psl.1.0.0.UPF: wavefunction(s)  2S 2P renormalized

     IMPORTANT: XC functional enforced from input :
     Exchange-correlation= PBE
                           (   1   4   3   4   0   0   0)
     Any further DFT definition will be discarded
     Please, verify this is what you really want


     gamma-point specific algorithms are used
     Message from routine  set_nelup_neldw :
     BEWARE: non-integer number of up and down electrons!

     R & G space division:  proc/nbgrp/npool/nimage =      16
     Subspace diagonalization in iterative solution of the eigenvalue problem:
     a serial algorithm will be used


     Parallelization info
     --------------------
     sticks:   dense  smooth     PW     G-vecs:    dense   smooth      PW
     Min         858     428    106                75870    26832    3354
     Max         860     430    108                75880    26846    3360
     Sum       13753    6869   1725              1214029   429409   53715

     Using Slab Decomposition



     bravais-lattice index     =            0
     lattice parameter (alat)  =      20.7870  a.u.
     unit-cell volume          =    8983.6663 (a.u.)^3
     number of atoms/cell      =           49
     number of atomic types    =            2
     number of electrons       =       193.00 (up:  96.50, down:  96.50)
     number of Kohn-Sham states=          116
     kinetic-energy cutoff     =      50.0000  Ry
     charge density cutoff     =     400.0000  Ry
     scf convergence threshold =      1.0E-06
     mixing beta               =       0.3000
     number of iterations used =            8  plain     mixing
     energy convergence thresh.=      1.0E-04
     force convergence thresh. =      1.0E-03
     Exchange-correlation= PBE
                           (   1   4   3   4   0   0   0)
     nstep                     =         1000


     celldm(1)=  20.786987  celldm(2)=   0.000000  celldm(3)=   0.000000
     celldm(4)=   0.000000  celldm(5)=   0.000000  celldm(6)=   0.000000

     crystal axes: (cart. coord. in units of alat)
               a(1) = (   1.000000   0.000000   0.000000 )  
               a(2) = (   0.000000   1.000182   0.000000 )  
               a(3) = (   0.000000   0.000000   1.000000 )  

     reciprocal axes: (cart. coord. in units 2 pi/alat)
               b(1) = (  1.000000  0.000000  0.000000 )  
               b(2) = (  0.000000  0.999818  0.000000 )  
               b(3) = (  0.000000  0.000000  1.000000 )  


     PseudoPot. # 1 for C  read from file:
     /home/ana.bisette/espresso/pseudo/C.pbe-n-kjpaw_psl.1.0.0.UPF
     MD5 check sum: 5d2aebdfa2cae82b50a7e79e9516da0f
     Pseudo is Projector augmented-wave + core cor, Zval =  4.0
     Generated using "atomic" code by A. Dal Corso  v.5.1
     Shape of augmentation charge: PSQ
     Using radial grid of 1073 points,  4 beta functions with: 
                l(1) =   0
                l(2) =   0
                l(3) =   1
                l(4) =   1
     Q(r) pseudized with 0 coefficients 


     PseudoPot. # 2 for H  read from file:
     /home/ana.bisette/espresso/pseudo/H.pbe-rrkjus_psl.1.0.0.UPF
     MD5 check sum: f52b6d4d1c606e5624b1dc7b2218f220
     Pseudo is Ultrasoft, Zval =  1.0
     Generated using "atomic" code by A. Dal Corso  v.5.1
     Using radial grid of  929 points,  2 beta functions with: 
                l(1) =   0
                l(2) =   0
     Q(r) pseudized with 0 coefficients 


     atomic species   valence    mass     pseudopotential
        C              4.00    12.01100     C ( 1.00)
        H              1.00     1.00800     H ( 1.00)

     Starting magnetic structure 
     atomic species   magnetization
        C            0.000
        H            0.000

     No symmetry found



   Cartesian axes

     site n.     atom                  positions (alat units)
         1           C   tau(   1) = (   0.5607273   0.4189091   0.5608182  )
         2           C   tau(   2) = (   0.6985455   0.2805455   0.6985455  )
         3           C   tau(   3) = (   0.6340000   0.3453636   0.6340000  )
         4           C   tau(   4) = (   0.4189091   0.5608182   0.5608182  )
         5           C   tau(   5) = (   0.2805455   0.6985455   0.6985455  )
         6           C   tau(   6) = (   0.3453636   0.6340000   0.6340000  )
         7           C   tau(   7) = (   0.5608182   0.5608182   0.4189091  )
         8           C   tau(   8) = (   0.6985455   0.6985455   0.2805455  )
         9           C   tau(   9) = (   0.6340000   0.6340000   0.3453636  )
        10           C   tau(  10) = (   0.4184545   0.4184545   0.4184545  )
        11           C   tau(  11) = (   0.2804545   0.2804545   0.2804545  )
        12           C   tau(  12) = (   0.3450909   0.3450909   0.3450909  )
        13           C   tau(  13) = (   0.5659091   0.4132727   0.4132727  )
        14           C   tau(  14) = (   0.7058182   0.2739091   0.2739091  )
        15           C   tau(  15) = (   0.6411818   0.3382727   0.3383636  )
        16           C   tau(  16) = (   0.4132727   0.5659091   0.4132727  )
        17           C   tau(  17) = (   0.2739091   0.7059091   0.2739091  )
        18           C   tau(  18) = (   0.3382727   0.6411818   0.3383636  )
        19           C   tau(  19) = (   0.4132727   0.4131818   0.5660000  )
        20           C   tau(  20) = (   0.2739091   0.2739091   0.7058182  )
        21           C   tau(  21) = (   0.3382727   0.3382727   0.6411818  )
        22           C   tau(  22) = (   0.5662727   0.5662727   0.5662727  )
        23           C   tau(  23) = (   0.7058182   0.7059091   0.7059091  )
        24           C   tau(  24) = (   0.6413636   0.6414545   0.6413636  )
        25           C   tau(  25) = (   0.0607273   0.9184545   0.0607273  )
        26           C   tau(  26) = (   0.1989091   0.7808182   0.1989091  )
        27           C   tau(  27) = (   0.1341818   0.8452727   0.1341818  )
        28           C   tau(  28) = (   0.9183636   0.0606364   0.0607273  )
        29           C   tau(  29) = (   0.7808182   0.1988182   0.1989091  )
        30           C   tau(  30) = (   0.8452727   0.1340909   0.1341818  )
        31           C   tau(  31) = (   0.0607273   0.0606364   0.9184545  )
        32           C   tau(  32) = (   0.1988182   0.1988182   0.7808182  )
        33           C   tau(  33) = (   0.1341818   0.1340909   0.8452727  )
        34           C   tau(  34) = (   0.9189091   0.9189091   0.9188182  )
        35           C   tau(  35) = (   0.7809091   0.7809091   0.7809091  )
        36           C   tau(  36) = (   0.8455455   0.8455455   0.8454545  )
        37           C   tau(  37) = (   0.0662727   0.9132727   0.9132727  )
        38           C   tau(  38) = (   0.2053636   0.7735455   0.7734545  )
        39           C   tau(  39) = (   0.1410909   0.8380909   0.8380909  )
        40           C   tau(  40) = (   0.9131818   0.0661818   0.9132727  )
        41           C   tau(  41) = (   0.7734545   0.2053636   0.7734545  )
        42           C   tau(  42) = (   0.8380000   0.1410000   0.8380000  )
        43           C   tau(  43) = (   0.9132727   0.9133636   0.0662727  )
        44           C   tau(  44) = (   0.7734545   0.7735455   0.2053636  )
        45           C   tau(  45) = (   0.8380909   0.8380909   0.1410909  )
        46           C   tau(  46) = (   0.0660000   0.0659091   0.0659091  )
        47           C   tau(  47) = (   0.2054545   0.2053636   0.2054545  )
        48           C   tau(  48) = (   0.1410000   0.1409091   0.1409091  )
        49           H   tau(  49) = (   0.0694545   0.8819091   0.1997273  )

     number of k points=     1  Gaussian smearing, width (Ry)=  0.0001
                       cart. coord. in units 2pi/alat
        k(    1) = (   0.0000000   0.0000000   0.0000000), wk =   1.0000000

     Dense  grid:   607015 G-vectors     FFT dimensions: ( 135, 135, 135)

     Smooth grid:   214705 G-vectors     FFT dimensions: (  96,  96,  96)

     Estimated max dynamical RAM per process >     173.29 MB

     Estimated total dynamical RAM >       2.71 GB

     Check: negative core charge=   -0.000004
     Generating pointlists ...
     new r_m :   0.0409 (alat units)  0.8501 (a.u.) for type    1
     new r_m :   0.0409 (alat units)  0.8501 (a.u.) for type    2

     Initial potential from superposition of free atoms

     starting charge     192.9980, renormalised to     193.0000
     Starting wfcs are  193 randomized atomic wfcs
     Checking if some PAW data can be deallocated... 

     total cpu time spent up to now is        2.7 secs

     Self-consistent Calculation

     iteration #  1     ecut=    50.00 Ry     beta= 0.30
     Davidson diagonalization with overlap
     ethr =  1.00E-02,  avg # of iterations =  2.0

     total cpu time spent up to now is        5.0 secs

     total energy              =    -883.17107469 Ry
     estimated scf accuracy    <       5.32864970 Ry

     total magnetization       =     0.00 Bohr mag/cell
     absolute magnetization    =     0.06 Bohr mag/cell

     iteration #  2     ecut=    50.00 Ry     beta= 0.30
     Davidson diagonalization with overlap
     ethr =  2.76E-03,  avg # of iterations =  1.0

     negative rho (up, down):  2.342E-06 2.318E-06

     total cpu time spent up to now is        6.8 secs

     total energy              =    -882.22386200 Ry
     estimated scf accuracy    <       1.78088187 Ry

     total magnetization       =    -0.00 Bohr mag/cell
     absolute magnetization    =     0.04 Bohr mag/cell

     iteration #  3     ecut=    50.00 Ry     beta= 0.30
     Davidson diagonalization with overlap
     ethr =  9.23E-04,  avg # of iterations =  2.0

     negative rho (up, down):  8.378E-07 8.330E-07

     total cpu time spent up to now is        9.0 secs

     total energy              =    -882.62972106 Ry
     estimated scf accuracy    <       0.13801548 Ry

     total magnetization       =     0.00 Bohr mag/cell
     absolute magnetization    =     0.03 Bohr mag/cell

     iteration #  4     ecut=    50.00 Ry     beta= 0.30
     Davidson diagonalization with overlap
     ethr =  7.15E-05,  avg # of iterations = 11.0

     negative rho (up, down):  5.736E-07 5.730E-07

     total cpu time spent up to now is       11.2 secs

     total energy              =    -882.62175225 Ry
     estimated scf accuracy    <       0.05648224 Ry

     total magnetization       =    -0.00 Bohr mag/cell
     absolute magnetization    =     0.02 Bohr mag/cell

     iteration #  5     ecut=    50.00 Ry     beta= 0.30
     Davidson diagonalization with overlap
     ethr =  2.93E-05,  avg # of iterations =  2.0

     negative rho (up, down):  1.069E-06 1.069E-06

     total cpu time spent up to now is       13.4 secs

     total energy              =    -882.63056318 Ry
     estimated scf accuracy    <       0.02653684 Ry

     total magnetization       =    -0.00 Bohr mag/cell
     absolute magnetization    =     0.02 Bohr mag/cell

     iteration #  6     ecut=    50.00 Ry     beta= 0.30
     Davidson diagonalization with overlap
     ethr =  1.37E-05,  avg # of iterations =  1.0

     negative rho (up, down):  1.629E-06 1.626E-06

     total cpu time spent up to now is       15.2 secs

     total energy              =    -882.62910323 Ry
     estimated scf accuracy    <       0.00576409 Ry

     total magnetization       =     0.00 Bohr mag/cell
     absolute magnetization    =     0.01 Bohr mag/cell

     iteration #  7     ecut=    50.00 Ry     beta= 0.30
     Davidson diagonalization with overlap
     ethr =  2.99E-06,  avg # of iterations =  5.0

     negative rho (up, down):  1.531E-06 1.531E-06

     total cpu time spent up to now is       17.7 secs

     total energy              =    -882.63018197 Ry
     estimated scf accuracy    <       0.00228306 Ry

     total magnetization       =     0.00 Bohr mag/cell
     absolute magnetization    =     0.01 Bohr mag/cell

     iteration #  8     ecut=    50.00 Ry     beta= 0.30
     Davidson diagonalization with overlap
     ethr =  1.18E-06,  avg # of iterations =  2.0

     negative rho (up, down):  1.504E-06 1.505E-06

     total cpu time spent up to now is       19.8 secs

     total energy              =    -882.63057325 Ry
     estimated scf accuracy    <       0.00007829 Ry

     total magnetization       =    -0.00 Bohr mag/cell
     absolute magnetization    =     0.01 Bohr mag/cell

     iteration #  9     ecut=    50.00 Ry     beta= 0.30
     Davidson diagonalization with overlap
     ethr =  4.06E-08,  avg # of iterations =  4.0

     negative rho (up, down):  1.521E-06 1.521E-06

     total cpu time spent up to now is       21.8 secs

     total energy              =    -882.63057143 Ry
     estimated scf accuracy    <       0.00002737 Ry

     total magnetization       =    -0.00 Bohr mag/cell
     absolute magnetization    =     0.01 Bohr mag/cell

     iteration # 10     ecut=    50.00 Ry     beta= 0.30
     Davidson diagonalization with overlap
     ethr =  1.42E-08,  avg # of iterations =  2.5

     negative rho (up, down):  1.505E-06 1.506E-06

     total cpu time spent up to now is       24.0 secs

     total energy              =    -882.63057509 Ry
     estimated scf accuracy    <       0.00000317 Ry

     total magnetization       =     0.00 Bohr mag/cell
     absolute magnetization    =     0.00 Bohr mag/cell

     iteration # 11     ecut=    50.00 Ry     beta= 0.30
     Davidson diagonalization with overlap
     ethr =  1.64E-09,  avg # of iterations =  4.0

     negative rho (up, down):  1.491E-06 1.491E-06

     Magnetic moment per site  (integrated on atomic sphere of radius R)
     atom   1 (R=0.041)  charge=  0.8191  magn= -0.0000
     atom   2 (R=0.041)  charge=  0.8523  magn= -0.0000
     atom   3 (R=0.041)  charge=  0.8668  magn=  0.0000
     atom   4 (R=0.041)  charge=  0.8196  magn=  0.0000
     atom   5 (R=0.041)  charge=  0.8522  magn=  0.0001
     atom   6 (R=0.041)  charge=  0.8672  magn= -0.0001
     atom   7 (R=0.041)  charge=  0.8193  magn= -0.0000
     atom   8 (R=0.041)  charge=  0.8527  magn=  0.0000
     atom   9 (R=0.041)  charge=  0.8664  magn= -0.0000
     atom  10 (R=0.041)  charge=  0.8163  magn=  0.0000
     atom  11 (R=0.041)  charge=  0.8520  magn=  0.0000
     atom  12 (R=0.041)  charge=  0.8659  magn= -0.0000
     atom  13 (R=0.041)  charge=  0.8137  magn=  0.0000
     atom  14 (R=0.041)  charge=  0.8519  magn= -0.0000
     atom  15 (R=0.041)  charge=  0.8601  magn=  0.0000
     atom  16 (R=0.041)  charge=  0.8133  magn= -0.0000
     atom  17 (R=0.041)  charge=  0.8521  magn= -0.0001
     atom  18 (R=0.041)  charge=  0.8591  magn=  0.0001
     atom  19 (R=0.041)  charge=  0.8136  magn=  0.0000
     atom  20 (R=0.041)  charge=  0.8520  magn=  0.0000
     atom  21 (R=0.041)  charge=  0.8605  magn= -0.0000
     atom  22 (R=0.041)  charge=  0.8103  magn=  0.0000
     atom  23 (R=0.041)  charge=  0.8518  magn= -0.0000
     atom  24 (R=0.041)  charge=  0.8585  magn=  0.0000
     atom  25 (R=0.041)  charge=  0.8192  magn=  0.0000
     atom  26 (R=0.041)  charge=  0.8516  magn=  0.0000
     atom  27 (R=0.041)  charge=  0.9039  magn= -0.0000
     atom  28 (R=0.041)  charge=  0.8196  magn=  0.0000
     atom  29 (R=0.041)  charge=  0.8521  magn=  0.0001
     atom  30 (R=0.041)  charge=  0.8688  magn= -0.0001
     atom  31 (R=0.041)  charge=  0.8187  magn= -0.0000
     atom  32 (R=0.041)  charge=  0.8524  magn=  0.0000
     atom  33 (R=0.041)  charge=  0.8687  magn= -0.0000
     atom  34 (R=0.041)  charge=  0.8189  magn= -0.0000
     atom  35 (R=0.041)  charge=  0.8495  magn= -0.0000
     atom  36 (R=0.041)  charge=  0.8690  magn= -0.0000
     atom  37 (R=0.041)  charge=  0.8163  magn=  0.0000
     atom  38 (R=0.041)  charge=  0.8509  magn= -0.0000
     atom  39 (R=0.041)  charge=  0.8609  magn=  0.0000
     atom  40 (R=0.041)  charge=  0.8134  magn=  0.0000
     atom  41 (R=0.041)  charge=  0.8507  magn=  0.0000
     atom  42 (R=0.041)  charge=  0.8608  magn= -0.0000
     atom  43 (R=0.041)  charge=  0.8146  magn= -0.0000
     atom  44 (R=0.041)  charge=  0.8502  magn=  0.0000
     atom  45 (R=0.041)  charge=  0.8615  magn= -0.0000
     atom  46 (R=0.041)  charge=  0.8129  magn= -0.0000
     atom  47 (R=0.041)  charge=  0.8513  magn= -0.0000
     atom  48 (R=0.041)  charge=  0.8617  magn=  0.0000
     atom  49 (R=0.041)  charge=  0.4740  magn=  0.0000

     total cpu time spent up to now is       26.2 secs

     End of self-consistent calculation

 ------ SPIN UP ------------


          k = 0.0000 0.0000 0.0000 ( 26858 PWs)   bands (ev):

   -21.6725 -21.5445 -18.6834 -17.6237 -17.6016 -17.5213 -17.4496 -17.4308
   -17.1268 -16.8429 -16.8233 -16.7427 -16.6818 -16.3458 -16.1004 -16.0665
   -16.0459 -15.9327 -15.9119 -15.7997 -15.6521 -14.8341 -14.6750 -14.6570
   -14.4209 -14.1432 -14.1196 -13.6428 -13.2175 -13.0734 -12.9511 -12.9283
   -12.3630 -12.0621 -11.8821 -11.8657 -11.6970 -11.0599 -10.8911 -10.8727
   -10.6525 -10.3781 -10.2348 -10.0194 -10.0100  -9.8277  -9.6015  -9.5752
    -9.5040  -9.4883  -9.4863  -9.4767  -8.1465  -7.1157  -6.9647  -6.8143
    -6.7296  -6.6503  -6.5074  -6.3622  -6.3481  -6.0889  -5.9556  -5.9492
    -5.8946  -5.7837  -5.5934  -5.5154  -5.4894  -5.4465  -5.4051  -5.3664
    -5.2691  -5.2508  -4.8503  -4.7895  -4.7701  -4.5332  -4.3678  -4.3541
    -4.3089  -4.0752  -3.9382  -3.7467  -3.6968  -3.5926  -3.4679  -3.4119
    -3.2179  -3.1856  -3.0419  -3.0221  -2.9978  -2.1715  -2.1454  -2.0797
    -1.0448  -0.3385  -0.2814   0.1320   0.4640   0.5582   0.8326   1.0821
     1.1778   1.2033   1.2562   1.4922   1.5508   2.0240   2.1970   2.2061
     2.3293   2.3921   2.4743   2.5544

 ------ SPIN DOWN ----------


          k = 0.0000 0.0000 0.0000 ( 26858 PWs)   bands (ev):

   -21.6725 -21.5445 -18.6834 -17.6237 -17.6016 -17.5213 -17.4497 -17.4308
   -17.1268 -16.8429 -16.8233 -16.7427 -16.6817 -16.3458 -16.1004 -16.0666
   -16.0460 -15.9326 -15.9118 -15.7997 -15.6522 -14.8341 -14.6750 -14.6570
   -14.4209 -14.1431 -14.1196 -13.6428 -13.2175 -13.0734 -12.9511 -12.9282
   -12.3630 -12.0621 -11.8821 -11.8657 -11.6970 -11.0599 -10.8911 -10.8727
   -10.6525 -10.3781 -10.2348 -10.0194 -10.0100  -9.8277  -9.6016  -9.5752
    -9.5040  -9.4883  -9.4863  -9.4767  -8.1465  -7.1157  -6.9647  -6.8143
    -6.7296  -6.6504  -6.5075  -6.3622  -6.3481  -6.0889  -5.9556  -5.9492
    -5.8945  -5.7837  -5.5934  -5.5154  -5.4893  -5.4464  -5.4051  -5.3663
    -5.2690  -5.2508  -4.8502  -4.7894  -4.7700  -4.5333  -4.3677  -4.3540
    -4.3088  -4.0752  -3.9382  -3.7467  -3.6968  -3.5926  -3.4679  -3.4119
    -3.2179  -3.1857  -3.0419  -3.0221  -2.9978  -2.1715  -2.1454  -2.0797
    -1.0447  -0.3384  -0.2814   0.1321   0.4640   0.5581   0.8326   1.0821
     1.1778   1.2032   1.2561   1.4922   1.5507   2.0240   2.1970   2.2061
     2.3293   2.3921   2.4743   2.5543

     the spin up/dw Fermi energies are    -1.0448   -1.0447 ev

!    total energy              =    -882.63057584 Ry
     estimated scf accuracy    <       0.00000046 Ry
     smearing contrib. (-TS)   =      -0.00005642 Ry
     internal energy E=F+TS    =    -882.63051943 Ry

     The total energy is F=E-TS. E is the sum of the following terms:
     one-electron contribution =   -1226.93079852 Ry
     hartree contribution      =     657.56853325 Ry
     xc contribution           =    -219.04501586 Ry
     ewald contribution        =     201.81478528 Ry
     one-center paw contrib.   =    -296.03802358 Ry

     total magnetization       =     0.00 Bohr mag/cell
     absolute magnetization    =     0.00 Bohr mag/cell

     convergence has been achieved in  11 iterations

     negative rho (up, down):  1.491E-06 1.491E-06

     Forces acting on atoms (cartesian axes, Ry/au):

     atom    1 type  1   force =     0.01697476   -0.01866419    0.01949563
     atom    2 type  1   force =     0.04614275   -0.04648989    0.04608294
     atom    3 type  1   force =     0.03997868   -0.04005207    0.04013325
     atom    4 type  1   force =    -0.01745177    0.01440819    0.03344589
     atom    5 type  1   force =    -0.05082583    0.05076041    0.04924958
     atom    6 type  1   force =    -0.03486536    0.03479969    0.03983856
     atom    7 type  1   force =     0.01993315    0.01786083   -0.02189256
     atom    8 type  1   force =     0.04900803    0.04966251   -0.04929407
     atom    9 type  1   force =     0.03736409    0.03721363   -0.03916373
     atom   10 type  1   force =    -0.01898568   -0.01598367   -0.02004049
     atom   11 type  1   force =    -0.04926321   -0.04934722   -0.04894119
     atom   12 type  1   force =    -0.03688903   -0.03586114   -0.03826184
     atom   13 type  1   force =    -0.05263966    0.05469936    0.05188155
     atom   14 type  1   force =     0.04992822   -0.05023659   -0.05009695
     atom   15 type  1   force =    -0.00464429    0.00474942    0.00394760
     atom   16 type  1   force =     0.03900739   -0.04138284    0.02825715
     atom   17 type  1   force =    -0.10588104    0.10592404   -0.10902553
     atom   18 type  1   force =     0.04045778   -0.04250056    0.03693428
     atom   19 type  1   force =     0.05316054    0.05566461   -0.04916648
     atom   20 type  1   force =    -0.05281932   -0.05285137    0.05227447
     atom   21 type  1   force =     0.00651156    0.00620448   -0.00595416
     atom   22 type  1   force =    -0.05306564   -0.05266200   -0.04836625
     atom   23 type  1   force =     0.05196646    0.05174856    0.05144316
     atom   24 type  1   force =    -0.00688745   -0.00741753   -0.00645691
     atom   25 type  1   force =     0.02207497   -0.00215847   -0.08762489
     atom   26 type  1   force =     0.21329041   -0.19891337    0.14119385
     atom   27 type  1   force =    -0.06548976    0.05480126    0.00487834
     atom   28 type  1   force =    -0.01589878    0.01824639    0.01798411
     atom   29 type  1   force =    -0.04647357    0.04652803    0.04608259
     atom   30 type  1   force =    -0.03945893    0.03949943    0.04115088
     atom   31 type  1   force =     0.01723976    0.01273625   -0.02081891
     atom   32 type  1   force =     0.04883356    0.04877979   -0.04869037
     atom   33 type  1   force =     0.03752781    0.03760919   -0.03632611
     atom   34 type  1   force =    -0.01601103   -0.01814940   -0.02678866
     atom   35 type  1   force =    -0.04931762   -0.04911854   -0.04910972
     atom   36 type  1   force =    -0.03691526   -0.03683006   -0.03602623
     atom   37 type  1   force =    -0.05938299    0.05915188    0.02112794
     atom   38 type  1   force =     0.05607919   -0.05555091   -0.05494056
     atom   39 type  1   force =    -0.01299575    0.01322268    0.01167597
     atom   40 type  1   force =     0.05372905   -0.05476552    0.04924891
     atom   41 type  1   force =    -0.04961158    0.05022110   -0.04948286
     atom   42 type  1   force =     0.00560182   -0.00556043    0.00517659
     atom   43 type  1   force =     0.05001495    0.04861596   -0.05082830
     atom   44 type  1   force =    -0.05351925   -0.05432152    0.05458026
     atom   45 type  1   force =     0.00986977    0.00891882   -0.00573417
     atom   46 type  1   force =    -0.04914664   -0.05189706   -0.04339386
     atom   47 type  1   force =     0.05366396    0.05353311    0.05323412
     atom   48 type  1   force =    -0.00710161   -0.00797812   -0.00435195
     atom   49 type  2   force =    -0.03281759    0.01313286    0.10145907

     Total force =     0.613895     Total SCF correction =     0.000796

     BFGS Geometry Optimization
     Energy error            =      0.0E+00 Ry
     Gradient error          =      2.1E-01 Ry/Bohr

     number of scf cycles    =   1
     number of bfgs steps    =   0

     energy             new  =    -882.6305758444 Ry

     new trust radius        =       0.3240293725 bohr
     new conv_thr            =       0.0000010000 Ry


ATOMIC_POSITIONS (angstrom)
C             6.1769826544        4.5981233345        6.1793166450
C             7.7084176942        3.0613986110        7.7083860437
C             6.9951558081        3.7778053572        6.9952376036
C             4.5987649197        6.1766244865        6.1866988023
C             3.0591041292        7.7108612519        7.7100617549
C             3.7805500460        6.9924152018        6.9950816586
C             6.1795481672        6.1784515422        4.5964149547
C             7.7099339314        7.7102802679        3.0599147024
C             6.9937722230        6.9936926065        3.7782754489
C             4.5929532087        4.5945418050        4.5923950294
C             3.0589310334        3.0588865781        3.0591014380
C             3.7764791679        3.7770231037        3.7757527059
C             6.1971442933        4.5749456524        4.5734545348
C             7.7904208748        2.9864159421        2.9864898349
C             7.0505423461        3.7235132825        3.7240889812
C             4.5666418198        6.2031011423        4.5609530387
C             2.9569701660        7.8210525859        2.9553061759
C             3.7424093354        7.0305096719        3.7415447779
C             4.5741313449        4.5744564443        6.1999822217
C             2.9850492189        2.9850322607        7.7916624589
C             3.7244457668        3.7242832700        7.0498491967
C             6.2009188746        6.2011324692        6.2034056830
C             7.7914994646        7.7923841581        7.7922225467
C             7.0513553189        7.0520748111        7.0515831521
C             0.6796815688       10.1018577855        0.6216309042
C             2.3008684253        8.4837395760        2.2627165698
C             1.4413443102        9.3269995785        1.4785815089
C            10.0935867264        0.6766555729        0.6775167829
C             8.5644072468        2.2116215733        2.2123858581
C             9.2771192339        1.4959022006        1.4977761093
C             0.6771228903        0.6737397312       10.0919831081
C             2.2128416064        2.2128131512        8.5632341672
C             1.4958588602        1.4949019247        9.2787770530
C            10.0995273282       10.0983957523       10.0928240538
C             8.5639022398        8.5640075895        8.5640122532
C             9.2814652855        9.2815103738        9.2809357419
C             0.6975758738       10.0773018271       10.0571804252
C             2.2886758279        8.4796037247        8.4789267074
C             1.5451229477        9.2259971426        9.2251786583
C            10.0734321914        0.6990193331       10.0720614025
C             8.4817466825        2.2855758609        8.4818148005
C             9.2209643537        1.5480575491        9.2207393341
C            10.0724667739       10.0727264588        0.7021028199
C             8.4796788323        8.4802542908        2.2878826291
C             9.2242228574        9.2237196359        1.5489656062
C             0.6999927161        0.6975372609        0.7020369603
C             2.2883977464        2.2873285025        2.2881702832
C             1.5472419890        1.5457781582        1.5476970458
H             0.7466336787        9.7079496089        2.2506898269



     Writing config-only to output data dir ./pwscf.save/
     NEW-OLD atomic charge density approx. for the potential

     Check: negative core charge=   -0.000004

     negative rho (up, down):  1.534E-06 1.534E-06
     Generating pointlists ...

     total cpu time spent up to now is       29.9 secs

     Self-consistent Calculation

     iteration #  1     ecut=    50.00 Ry     beta= 0.30
     Davidson diagonalization with overlap
     ethr =  1.00E-06,  avg # of iterations = 11.0

     negative rho (up, down):  1.457E-06 1.456E-06

     total cpu time spent up to now is       35.2 secs

     total energy              =    -882.50679866 Ry
     estimated scf accuracy    <       0.57654347 Ry

     total magnetization       =    -0.00 Bohr mag/cell
     absolute magnetization    =     0.00 Bohr mag/cell

     iteration #  2     ecut=    50.00 Ry     beta= 0.30
     Davidson diagonalization with overlap
     ethr =  2.99E-04,  avg # of iterations =  3.0

     negative rho (up, down):  1.547E-06 1.546E-06

     total cpu time spent up to now is       37.2 secs

     total energy              =    -882.57778832 Ry
     estimated scf accuracy    <       0.17081450 Ry

     total magnetization       =    -0.00 Bohr mag/cell
     absolute magnetization    =     0.00 Bohr mag/cell

     iteration #  3     ecut=    50.00 Ry     beta= 0.30
     Davidson diagonalization with overlap
     ethr =  8.85E-05,  avg # of iterations =  2.0

     negative rho (up, down):  1.752E-06 1.751E-06

     total cpu time spent up to now is       39.1 secs

     total energy              =    -882.58678322 Ry
     estimated scf accuracy    <       0.13278102 Ry

     total magnetization       =     0.00 Bohr mag/cell
     absolute magnetization    =     0.00 Bohr mag/cell

     iteration #  4     ecut=    50.00 Ry     beta= 0.30
     Davidson diagonalization with overlap
     ethr =  6.88E-05,  avg # of iterations =  1.0

     negative rho (up, down):  1.520E-06 1.519E-06

     total cpu time spent up to now is       40.9 secs

     total energy              =    -882.59708861 Ry
     estimated scf accuracy    <       0.02823976 Ry

     total magnetization       =     0.00 Bohr mag/cell
     absolute magnetization    =     0.00 Bohr mag/cell

     iteration #  5     ecut=    50.00 Ry     beta= 0.30
     Davidson diagonalization with overlap
     ethr =  1.46E-05,  avg # of iterations =  2.0

     negative rho (up, down):  1.490E-06 1.490E-06

     total cpu time spent up to now is       42.9 secs

     total energy              =    -882.59862063 Ry
     estimated scf accuracy    <       0.00392198 Ry

     total magnetization       =    -0.00 Bohr mag/cell
     absolute magnetization    =     0.00 Bohr mag/cell

     iteration #  6     ecut=    50.00 Ry     beta= 0.30
     Davidson diagonalization with overlap
     ethr =  2.03E-06,  avg # of iterations =  4.0

     negative rho (up, down):  1.505E-06 1.504E-06

     total cpu time spent up to now is       45.0 secs

     total energy              =    -882.59916019 Ry
     estimated scf accuracy    <       0.00119358 Ry

     total magnetization       =     0.00 Bohr mag/cell
     absolute magnetization    =     0.00 Bohr mag/cell

     iteration #  7     ecut=    50.00 Ry     beta= 0.30
     Davidson diagonalization with overlap
     ethr =  6.18E-07,  avg # of iterations =  2.0

     negative rho (up, down):  1.527E-06 1.527E-06

     total cpu time spent up to now is       47.0 secs

     total energy              =    -882.59929694 Ry
     estimated scf accuracy    <       0.00014641 Ry

     total magnetization       =     0.00 Bohr mag/cell
     absolute magnetization    =     0.00 Bohr mag/cell

     iteration #  8     ecut=    50.00 Ry     beta= 0.30
     Davidson diagonalization with overlap
     ethr =  7.59E-08,  avg # of iterations =  4.0

     negative rho (up, down):  1.543E-06 1.543E-06

     total cpu time spent up to now is       49.1 secs

     total energy              =    -882.59931473 Ry
     estimated scf accuracy    <       0.00003157 Ry

     total magnetization       =    -0.00 Bohr mag/cell
     absolute magnetization    =     0.00 Bohr mag/cell

     iteration #  9     ecut=    50.00 Ry     beta= 0.30
     Davidson diagonalization with overlap
     ethr =  1.64E-08,  avg # of iterations =  2.0

     negative rho (up, down):  1.538E-06 1.538E-06

     total cpu time spent up to now is       51.2 secs

     total energy              =    -882.59931895 Ry
     estimated scf accuracy    <       0.00000486 Ry

     total magnetization       =     0.00 Bohr mag/cell
     absolute magnetization    =     0.00 Bohr mag/cell

     iteration # 10     ecut=    50.00 Ry     beta= 0.30
     Davidson diagonalization with overlap
     ethr =  2.52E-09,  avg # of iterations =  4.0

     negative rho (up, down):  1.533E-06 1.533E-06

     total cpu time spent up to now is       53.3 secs

     total energy              =    -882.59931981 Ry
     estimated scf accuracy    <       0.00000108 Ry

     total magnetization       =     0.00 Bohr mag/cell
     absolute magnetization    =     0.00 Bohr mag/cell

     iteration # 11     ecut=    50.00 Ry     beta= 0.30
     Davidson diagonalization with overlap
     ethr =  5.58E-10,  avg # of iterations =  2.0

     negative rho (up, down):  1.533E-06 1.533E-06

     Magnetic moment per site  (integrated on atomic sphere of radius R)
     atom   1 (R=0.041)  charge=  0.8221  magn= -0.0000
     atom   2 (R=0.041)  charge=  0.8680  magn= -0.0000
     atom   3 (R=0.041)  charge=  0.8627  magn=  0.0000
     atom   4 (R=0.041)  charge=  0.8219  magn=  0.0000
     atom   5 (R=0.041)  charge=  0.8674  magn=  0.0000
     atom   6 (R=0.041)  charge=  0.8617  magn= -0.0000
     atom   7 (R=0.041)  charge=  0.8217  magn=  0.0000
     atom   8 (R=0.041)  charge=  0.8683  magn=  0.0000
     atom   9 (R=0.041)  charge=  0.8610  magn= -0.0000
     atom  10 (R=0.041)  charge=  0.8200  magn=  0.0000
     atom  11 (R=0.041)  charge=  0.8666  magn=  0.0000
     atom  12 (R=0.041)  charge=  0.8598  magn= -0.0000
     atom  13 (R=0.041)  charge=  0.8096  magn= -0.0000
     atom  14 (R=0.041)  charge=  0.8507  magn= -0.0000
     atom  15 (R=0.041)  charge=  0.8316  magn=  0.0000
     atom  16 (R=0.041)  charge=  0.8134  magn= -0.0000
     atom  17 (R=0.041)  charge=  0.9007  magn= -0.0000
     atom  18 (R=0.041)  charge=  0.8161  magn=  0.0000
     atom  19 (R=0.041)  charge=  0.8101  magn= -0.0000
     atom  20 (R=0.041)  charge=  0.8503  magn=  0.0000
     atom  21 (R=0.041)  charge=  0.8310  magn= -0.0000
     atom  22 (R=0.041)  charge=  0.8102  magn= -0.0000
     atom  23 (R=0.041)  charge=  0.8504  magn= -0.0000
     atom  24 (R=0.041)  charge=  0.8282  magn=  0.0000
     atom  25 (R=0.041)  charge=  0.8320  magn=  0.0000
     atom  26 (R=0.041)  charge=  0.8840  magn=  0.0000
     atom  27 (R=0.041)  charge=  0.8448  magn= -0.0000
     atom  28 (R=0.041)  charge=  0.8211  magn=  0.0000
     atom  29 (R=0.041)  charge=  0.8700  magn=  0.0000
     atom  30 (R=0.041)  charge=  0.8620  magn= -0.0000
     atom  31 (R=0.041)  charge=  0.8220  magn=  0.0000
     atom  32 (R=0.041)  charge=  0.8693  magn=  0.0000
     atom  33 (R=0.041)  charge=  0.8605  magn= -0.0000
     atom  34 (R=0.041)  charge=  0.8226  magn=  0.0000
     atom  35 (R=0.041)  charge=  0.8689  magn=  0.0000
     atom  36 (R=0.041)  charge=  0.8605  magn= -0.0000
     atom  37 (R=0.041)  charge=  0.8205  magn= -0.0000
     atom  38 (R=0.041)  charge=  0.8495  magn= -0.0000
     atom  39 (R=0.041)  charge=  0.8293  magn=  0.0000
     atom  40 (R=0.041)  charge=  0.8087  magn=  0.0000
     atom  41 (R=0.041)  charge=  0.8512  magn=  0.0000
     atom  42 (R=0.041)  charge=  0.8315  magn= -0.0000
     atom  43 (R=0.041)  charge=  0.8109  magn= -0.0000
     atom  44 (R=0.041)  charge=  0.8501  magn= -0.0000
     atom  45 (R=0.041)  charge=  0.8301  magn=  0.0000
     atom  46 (R=0.041)  charge=  0.8104  magn= -0.0000
     atom  47 (R=0.041)  charge=  0.8510  magn= -0.0000
     atom  48 (R=0.041)  charge=  0.8312  magn=  0.0000
     atom  49 (R=0.041)  charge=  0.4829  magn=  0.0000

     total cpu time spent up to now is       55.2 secs

     End of self-consistent calculation

 ------ SPIN UP ------------


          k = 0.0000 0.0000 0.0000 ( 26858 PWs)   bands (ev):

   -22.0386 -21.8967 -18.0973 -17.6587 -17.6439 -17.5913 -17.4769 -17.4608
   -17.2272 -16.9471 -16.9259 -16.9039 -16.8568 -16.5082 -16.2832 -16.2693
   -15.9397 -15.8032 -15.7895 -15.6165 -15.4007 -14.7790 -14.5526 -14.5413
   -14.3871 -14.2951 -14.2807 -13.9203 -13.3924 -12.7702 -12.7618 -12.6587
   -12.4540 -12.3049 -12.2921 -12.1727 -11.4066 -11.1756 -11.1600 -11.1473
   -10.8151 -10.3662 -10.1525  -9.9779  -9.9749  -9.8597  -9.7462  -9.6761
    -9.6675  -9.5354  -9.5186  -9.5100  -7.7798  -7.0240  -6.9782  -6.8231
    -6.6778  -6.6409  -6.4776  -6.4005  -6.3571  -6.1094  -5.9910  -5.9582
    -5.9509  -5.8633  -5.7173  -5.6534  -5.6329  -5.5821  -5.5602  -5.5240
    -5.4905  -5.4686  -5.0676  -5.0462  -5.0066  -4.7501  -4.6729  -4.5980
    -4.5310  -3.7216  -3.6888  -3.5432  -3.3482  -3.3158  -3.2358  -3.1222
    -3.0602  -2.9628  -2.9249  -2.8524  -2.7684  -2.1509  -2.0019  -1.8644
    -1.3519  -0.8195  -0.4961  -0.1160   0.0796   0.3462   0.5742   0.6493
     0.8867   0.9221   0.9412   1.0692   1.0825   1.8732   1.9724   2.0754
     2.3249   2.3936   2.4596   2.4945

 ------ SPIN DOWN ----------


          k = 0.0000 0.0000 0.0000 ( 26858 PWs)   bands (ev):

   -22.0386 -21.8967 -18.0973 -17.6587 -17.6439 -17.5913 -17.4769 -17.4608
   -17.2272 -16.9471 -16.9259 -16.9039 -16.8568 -16.5082 -16.2832 -16.2693
   -15.9397 -15.8032 -15.7895 -15.6165 -15.4007 -14.7790 -14.5526 -14.5413
   -14.3870 -14.2951 -14.2807 -13.9202 -13.3924 -12.7702 -12.7618 -12.6587
   -12.4540 -12.3049 -12.2921 -12.1727 -11.4066 -11.1756 -11.1600 -11.1473
   -10.8151 -10.3662 -10.1525  -9.9779  -9.9749  -9.8597  -9.7462  -9.6761
    -9.6675  -9.5354  -9.5186  -9.5100  -7.7798  -7.0240  -6.9782  -6.8231
    -6.6778  -6.6409  -6.4776  -6.4005  -6.3571  -6.1094  -5.9910  -5.9582
    -5.9510  -5.8633  -5.7173  -5.6534  -5.6329  -5.5821  -5.5602  -5.5240
    -5.4905  -5.4686  -5.0676  -5.0462  -5.0066  -4.7501  -4.6729  -4.5980
    -4.5310  -3.7216  -3.6888  -3.5432  -3.3482  -3.3158  -3.2358  -3.1222
    -3.0602  -2.9628  -2.9249  -2.8524  -2.7684  -2.1509  -2.0019  -1.8644
    -1.3519  -0.8195  -0.4961  -0.1160   0.0796   0.3462   0.5742   0.6493
     0.8867   0.9221   0.9412   1.0692   1.0825   1.8732   1.9724   2.0754
     2.3249   2.3936   2.4596   2.4945

     the spin up/dw Fermi energies are    -1.3519   -1.3519 ev

!    total energy              =    -882.59931999 Ry
     estimated scf accuracy    <       0.00000025 Ry
     smearing contrib. (-TS)   =      -0.00005642 Ry
     internal energy E=F+TS    =    -882.59926357 Ry

     The total energy is F=E-TS. E is the sum of the following terms:
     one-electron contribution =   -1222.86658555 Ry
     hartree contribution      =     655.26699085 Ry
     xc contribution           =    -218.86039989 Ry
     ewald contribution        =     199.88627225 Ry
     one-center paw contrib.   =    -296.02554123 Ry

     total magnetization       =     0.00 Bohr mag/cell
     absolute magnetization    =     0.00 Bohr mag/cell

     convergence has been achieved in  11 iterations

     negative rho (up, down):  1.533E-06 1.533E-06

     Forces acting on atoms (cartesian axes, Ry/au):

     atom    1 type  1   force =     0.01666584   -0.01619879    0.01865751
     atom    2 type  1   force =    -0.03077080    0.03067639   -0.03075300
     atom    3 type  1   force =     0.02173443   -0.02205803    0.02162101
     atom    4 type  1   force =    -0.01156581    0.01194849    0.03771789
     atom    5 type  1   force =     0.04522681   -0.04487477   -0.04597499
     atom    6 type  1   force =    -0.02815003    0.02782544    0.03590973
     atom    7 type  1   force =     0.02480082    0.01732139   -0.01359199
     atom    8 type  1   force =    -0.04188251   -0.04062752    0.04155414
     atom    9 type  1   force =     0.02842858    0.02739974   -0.02848234
     atom   10 type  1   force =    -0.01787874   -0.01875894   -0.01446869
     atom   11 type  1   force =     0.04248414    0.04306670    0.04294163
     atom   12 type  1   force =    -0.02944657   -0.02827563   -0.02998677
     atom   13 type  1   force =     0.01147136   -0.00972807   -0.01368031
     atom   14 type  1   force =    -0.10561838    0.10500304    0.10482900
     atom   15 type  1   force =     0.05027585   -0.04995389   -0.05160102
     atom   16 type  1   force =    -0.02008879    0.01445061   -0.03491693
     atom   17 type  1   force =     0.36324226   -0.36658059    0.37515449
     atom   18 type  1   force =    -0.06609489    0.06370995   -0.07235860
     atom   19 type  1   force =    -0.01295470   -0.00952063    0.01251316
     atom   20 type  1   force =     0.11249814    0.11241029   -0.11298440
     atom   21 type  1   force =    -0.05596951   -0.05554429    0.05607205
     atom   22 type  1   force =     0.01030789    0.01172191    0.01154914
     atom   23 type  1   force =    -0.11251345   -0.11282558   -0.11263671
     atom   24 type  1   force =     0.05546574    0.05539517    0.05599128
     atom   25 type  1   force =     0.01720897   -0.01039405   -0.08726163
     atom   26 type  1   force =    -0.34415556    0.35920153   -0.42162452
     atom   27 type  1   force =     0.09791152   -0.12805696    0.25263182
     atom   28 type  1   force =    -0.01663164    0.01803523    0.02140726
     atom   29 type  1   force =     0.03047068   -0.03047439   -0.03038250
     atom   30 type  1   force =    -0.02093071    0.02094081    0.02039519
     atom   31 type  1   force =     0.01716765    0.02726916   -0.02629173
     atom   32 type  1   force =    -0.04079752   -0.04112489    0.04115550
     atom   33 type  1   force =     0.02813082    0.03019534   -0.02893687
     atom   34 type  1   force =    -0.02347585   -0.01594539   -0.02418001
     atom   35 type  1   force =     0.04224678    0.04214811    0.04226045
     atom   36 type  1   force =    -0.03417564   -0.03247374   -0.03356859
     atom   37 type  1   force =     0.00298499    0.00027232   -0.02951681
     atom   38 type  1   force =    -0.12587708    0.12656412    0.12581033
     atom   39 type  1   force =     0.06985677   -0.06963123   -0.07439850
     atom   40 type  1   force =    -0.01321029    0.01276052   -0.01160840
     atom   41 type  1   force =     0.10638258   -0.10578947    0.10637266
     atom   42 type  1   force =    -0.05117886    0.05131076   -0.05190329
     atom   43 type  1   force =    -0.01615491   -0.00617245   -0.00505366
     atom   44 type  1   force =     0.11783477    0.11729107   -0.11611937
     atom   45 type  1   force =    -0.05504564   -0.06005503    0.06099806
     atom   46 type  1   force =     0.00592347    0.02191165   -0.00079725
     atom   47 type  1   force =    -0.11449311   -0.11463766   -0.11437807
     atom   48 type  1   force =     0.05951211    0.05437904    0.06085089
     atom   49 type  2   force =     0.01082803   -0.01350678    0.07106372

     Total force =     1.163492     Total SCF correction =     0.000536
     Energy error            =      3.1E-02 Ry
     Gradient error          =      4.2E-01 Ry/Bohr

     number of scf cycles    =   2
     number of bfgs steps    =   1

     energy             old  =    -882.6305758444 Ry
     energy             new  =    -882.5993199881 Ry

     CASE: energy            _new > energy            _old

     new trust radius        =       0.1496068848 bohr
     new conv_thr            =       0.0000010000 Ry


ATOMIC_POSITIONS (angstrom)
C             6.1721473615        4.6034398666        6.1737632753
C             7.6952738396        3.0746413471        7.6952592263
C             6.9837678014        3.7892142683        6.9838055670
C             4.6037360915        6.1725202848        6.1771716749
C             3.0735819670        7.6964020492        7.6960329152
C             3.7904815126        6.9825024421        6.9837335660
C             6.1738701709        6.1733638506        4.6026510944
C             7.6959738981        7.6961338044        3.0739562150
C             6.9831289893        6.9830922298        3.7894313134
C             4.5983613182        4.5990947855        4.5981036025
C             3.0729637551        3.0729432298        3.0730424322
C             3.7869870798        3.7872382192        3.7866516666
C             6.2121388033        4.5593644331        4.5586759725
C             7.7761987236        3.0007259335        3.0007600503
C             7.0518652820        3.7221604021        3.7229644989
C             4.5555304890        6.2148891269        4.5529039344
C             2.9871305893        7.7908799155        2.9863623121
C             3.7308848569        7.0426160404        3.7310239762
C             4.5589884610        4.5586002697        6.2139873892
C             3.0000949067        3.0000870769        7.7767719727
C             3.7225909374        3.7225159113        7.0515452496
C             6.2160347257        6.2161333440        6.2171829045
C             7.7766967170        7.7776434790        7.7775688618
C             7.0533172224        7.0541877097        7.0534224147
C             0.6733934713       10.1024726307        0.6465910273
C             2.2401122310        8.5404004425        2.2224972222
C             1.4599991981        9.3113893312        1.4771919027
C            10.0981155261        0.6714580532        0.6723939728
C             8.5776453343        2.1983679721        2.1992591406
C             9.2883591877        1.4846507088        1.4860541992
C             0.6722121095        0.6701117864       10.0979134152
C             2.1989312709        2.1989181329        8.5771037143
C             1.4851689904        1.4841888736        9.2891246157
C            10.1040881015       10.1035656440       10.1004548552
C             8.5779504609        8.5779991017        8.5780012549
C             9.2919806702        9.2920014878        9.2911978836
C             0.7144912362       10.0604522973       10.0511620894
C             2.2727015609        8.4954275108        8.4945766344
C             1.5488248114        9.2222306352        9.2218527347
C            10.0581273642        0.7146194004       10.0580327525
C             8.4958786388        2.2712702819        8.4959100895
C             9.2193686652        1.5496414475        9.2192647719
C            10.0582199156       10.0588781064        0.7165813625
C             8.4949238963        8.4957278822        2.2723353348
C             9.2214114339        9.2211790926        1.5505989967
C             0.7139922345        0.7123202395        0.7143977857
C             2.2731114607        2.2720794902        2.2730064392
C             1.5492648970        1.5480507428        1.5489367081
H             0.7559818342        9.7042086886        2.2217890112



     Writing config-only to output data dir ./pwscf.save/
     NEW-OLD atomic charge density approx. for the potential

     Check: negative core charge=   -0.000004

     negative rho (up, down):  1.431E-06 1.431E-06
     Generating pointlists ...

     total cpu time spent up to now is       59.0 secs

     Self-consistent Calculation

     iteration #  1     ecut=    50.00 Ry     beta= 0.30
     Davidson diagonalization with overlap
     ethr =  1.00E-06,  avg # of iterations = 10.0

     negative rho (up, down):  1.446E-06 1.446E-06

     total cpu time spent up to now is       63.7 secs

     total energy              =    -882.69027108 Ry
     estimated scf accuracy    <       0.17774319 Ry

     total magnetization       =     0.00 Bohr mag/cell
     absolute magnetization    =     0.00 Bohr mag/cell

     iteration #  2     ecut=    50.00 Ry     beta= 0.30
     Davidson diagonalization with overlap
     ethr =  9.21E-05,  avg # of iterations =  3.0

     negative rho (up, down):  1.448E-06 1.448E-06

     total cpu time spent up to now is       65.7 secs

     total energy              =    -882.71633794 Ry
     estimated scf accuracy    <       0.04583855 Ry

     total magnetization       =     0.00 Bohr mag/cell
     absolute magnetization    =     0.00 Bohr mag/cell

     iteration #  3     ecut=    50.00 Ry     beta= 0.30
     Davidson diagonalization with overlap
     ethr =  2.38E-05,  avg # of iterations =  4.0

     negative rho (up, down):  1.457E-06 1.457E-06

     total cpu time spent up to now is       67.7 secs

     total energy              =    -882.71864315 Ry
     estimated scf accuracy    <       0.01490285 Ry

     total magnetization       =     0.00 Bohr mag/cell
     absolute magnetization    =     0.00 Bohr mag/cell

     iteration #  4     ecut=    50.00 Ry     beta= 0.30
     Davidson diagonalization with overlap
     ethr =  7.72E-06,  avg # of iterations =  2.0

     negative rho (up, down):  1.433E-06 1.433E-06

     total cpu time spent up to now is       69.6 secs

     total energy              =    -882.71915512 Ry
     estimated scf accuracy    <       0.00890661 Ry

     total magnetization       =    -0.00 Bohr mag/cell
     absolute magnetization    =     0.00 Bohr mag/cell

     iteration #  5     ecut=    50.00 Ry     beta= 0.30
     Davidson diagonalization with overlap
     ethr =  4.61E-06,  avg # of iterations =  2.0

     negative rho (up, down):  1.458E-06 1.458E-06

     total cpu time spent up to now is       71.6 secs

     total energy              =    -882.71989012 Ry
     estimated scf accuracy    <       0.00072684 Ry

     total magnetization       =    -0.00 Bohr mag/cell
     absolute magnetization    =     0.00 Bohr mag/cell

     iteration #  6     ecut=    50.00 Ry     beta= 0.30
     Davidson diagonalization with overlap
     ethr =  3.77E-07,  avg # of iterations =  4.0

     negative rho (up, down):  1.446E-06 1.446E-06

     total cpu time spent up to now is       73.8 secs

     total energy              =    -882.72001617 Ry
     estimated scf accuracy    <       0.00009927 Ry

     total magnetization       =    -0.00 Bohr mag/cell
     absolute magnetization    =     0.00 Bohr mag/cell

     iteration #  7     ecut=    50.00 Ry     beta= 0.30
     Davidson diagonalization with overlap
     ethr =  5.14E-08,  avg # of iterations =  4.0

     negative rho (up, down):  1.447E-06 1.447E-06

     total cpu time spent up to now is       75.9 secs

     total energy              =    -882.72002786 Ry
     estimated scf accuracy    <       0.00003299 Ry

     total magnetization       =    -0.00 Bohr mag/cell
     absolute magnetization    =     0.00 Bohr mag/cell

     iteration #  8     ecut=    50.00 Ry     beta= 0.30
     Davidson diagonalization with overlap
     ethr =  1.71E-08,  avg # of iterations =  2.0

     negative rho (up, down):  1.445E-06 1.445E-06

     total cpu time spent up to now is       77.9 secs

     total energy              =    -882.72003152 Ry
     estimated scf accuracy    <       0.00000573 Ry

     total magnetization       =     0.00 Bohr mag/cell
     absolute magnetization    =     0.00 Bohr mag/cell

     iteration #  9     ecut=    50.00 Ry     beta= 0.30
     Davidson diagonalization with overlap
     ethr =  2.97E-09,  avg # of iterations =  2.0

     negative rho (up, down):  1.442E-06 1.442E-06

     total cpu time spent up to now is       79.8 secs

     total energy              =    -882.72003206 Ry
     estimated scf accuracy    <       0.00000110 Ry

     total magnetization       =     0.00 Bohr mag/cell
     absolute magnetization    =     0.00 Bohr mag/cell

     iteration # 10     ecut=    50.00 Ry     beta= 0.30
     Davidson diagonalization with overlap
     ethr =  5.71E-10,  avg # of iterations =  4.0

     negative rho (up, down):  1.436E-06 1.436E-06

     Magnetic moment per site  (integrated on atomic sphere of radius R)
     atom   1 (R=0.041)  charge=  0.8208  magn= -0.0000
     atom   2 (R=0.041)  charge=  0.8589  magn= -0.0000
     atom   3 (R=0.041)  charge=  0.8658  magn=  0.0000
     atom   4 (R=0.041)  charge=  0.8210  magn=  0.0000
     atom   5 (R=0.041)  charge=  0.8580  magn=  0.0000
     atom   6 (R=0.041)  charge=  0.8653  magn= -0.0000
     atom   7 (R=0.041)  charge=  0.8207  magn=  0.0000
     atom   8 (R=0.041)  charge=  0.8588  magn=  0.0000
     atom   9 (R=0.041)  charge=  0.8646  magn= -0.0000
     atom  10 (R=0.041)  charge=  0.8169  magn=  0.0000
     atom  11 (R=0.041)  charge=  0.8594  magn=  0.0000
     atom  12 (R=0.041)  charge=  0.8616  magn= -0.0000
     atom  13 (R=0.041)  charge=  0.8117  magn= -0.0000
     atom  14 (R=0.041)  charge=  0.8507  magn= -0.0000
     atom  15 (R=0.041)  charge=  0.8463  magn=  0.0000
     atom  16 (R=0.041)  charge=  0.8137  magn= -0.0000
     atom  17 (R=0.041)  charge=  0.8576  magn= -0.0000
     atom  18 (R=0.041)  charge=  0.8364  magn=  0.0000
     atom  19 (R=0.041)  charge=  0.8120  magn= -0.0000
     atom  20 (R=0.041)  charge=  0.8505  magn=  0.0000
     atom  21 (R=0.041)  charge=  0.8461  magn= -0.0000
     atom  22 (R=0.041)  charge=  0.8120  magn= -0.0000
     atom  23 (R=0.041)  charge=  0.8468  magn= -0.0000
     atom  24 (R=0.041)  charge=  0.8435  magn=  0.0000
     atom  25 (R=0.041)  charge=  0.8251  magn=  0.0000
     atom  26 (R=0.041)  charge=  0.8475  magn=  0.0000
     atom  27 (R=0.041)  charge=  0.8711  magn= -0.0000
     atom  28 (R=0.041)  charge=  0.8204  magn=  0.0000
     atom  29 (R=0.041)  charge=  0.8597  magn=  0.0000
     atom  30 (R=0.041)  charge=  0.8658  magn= -0.0000
     atom  31 (R=0.041)  charge=  0.8203  magn=  0.0000
     atom  32 (R=0.041)  charge=  0.8593  magn= -0.0000
     atom  33 (R=0.041)  charge=  0.8650  magn=  0.0000
     atom  34 (R=0.041)  charge=  0.8206  magn=  0.0000
     atom  35 (R=0.041)  charge=  0.8593  magn=  0.0000
     atom  36 (R=0.041)  charge=  0.8649  magn= -0.0000
     atom  37 (R=0.041)  charge=  0.8185  magn= -0.0000
     atom  38 (R=0.041)  charge=  0.8494  magn= -0.0000
     atom  39 (R=0.041)  charge=  0.8453  magn=  0.0000
     atom  40 (R=0.041)  charge=  0.8112  magn=  0.0000
     atom  41 (R=0.041)  charge=  0.8505  magn=  0.0000
     atom  42 (R=0.041)  charge=  0.8466  magn= -0.0000
     atom  43 (R=0.041)  charge=  0.8131  magn= -0.0000
     atom  44 (R=0.041)  charge=  0.8494  magn= -0.0000
     atom  45 (R=0.041)  charge=  0.8463  magn=  0.0000
     atom  46 (R=0.041)  charge=  0.8131  magn= -0.0000
     atom  47 (R=0.041)  charge=  0.8492  magn= -0.0000
     atom  48 (R=0.041)  charge=  0.8468  magn=  0.0000
     atom  49 (R=0.041)  charge=  0.4784  magn=  0.0000

     total cpu time spent up to now is       82.0 secs

     End of self-consistent calculation

 ------ SPIN UP ------------


          k = 0.0000 0.0000 0.0000 ( 26858 PWs)   bands (ev):

   -21.8300 -21.7050 -18.3412 -17.6284 -17.6184 -17.5534 -17.4521 -17.4444
   -17.1017 -16.8748 -16.8562 -16.8010 -16.7427 -16.3044 -16.1312 -16.1002
   -16.0848 -15.9273 -15.9079 -15.7194 -15.5433 -14.6886 -14.6220 -14.6090
   -14.5470 -14.2161 -14.1954 -13.7771 -13.2832 -12.9496 -12.8693 -12.8500
   -12.3122 -12.2835 -12.0866 -12.0722 -11.5713 -11.1818 -11.0315 -11.0141
   -10.7546 -10.3923 -10.2102  -9.9971  -9.9936  -9.8394  -9.6634  -9.5803
    -9.5755  -9.5739  -9.5108  -9.4988  -7.9631  -7.0523  -6.9683  -6.8175
    -6.7068  -6.6460  -6.4810  -6.3726  -6.3481  -6.0928  -5.9666  -5.9571
    -5.9057  -5.7737  -5.6486  -5.5701  -5.5486  -5.5011  -5.4679  -5.4274
    -5.3613  -5.3421  -4.9380  -4.9035  -4.8785  -4.5760  -4.4969  -4.4611
    -4.4364  -3.8572  -3.8383  -3.6498  -3.5127  -3.4820  -3.3603  -3.2750
    -3.1439  -3.0777  -2.9925  -2.9447  -2.9317  -2.1433  -2.0478  -2.0438
    -1.2400  -0.5549  -0.3809   0.0098   0.2708   0.4603   0.7109   0.8590
     1.0457   1.0686   1.1103   1.2964   1.3268   2.0481   2.2286   2.2609
     2.3001   2.3209   2.3314   2.3640

 ------ SPIN DOWN ----------


          k = 0.0000 0.0000 0.0000 ( 26858 PWs)   bands (ev):

   -21.8300 -21.7050 -18.3412 -17.6284 -17.6184 -17.5534 -17.4521 -17.4444
   -17.1017 -16.8748 -16.8562 -16.8010 -16.7427 -16.3044 -16.1311 -16.1002
   -16.0848 -15.9273 -15.9079 -15.7194 -15.5433 -14.6886 -14.6220 -14.6090
   -14.5470 -14.2161 -14.1954 -13.7771 -13.2832 -12.9496 -12.8693 -12.8500
   -12.3122 -12.2835 -12.0866 -12.0722 -11.5713 -11.1818 -11.0315 -11.0141
   -10.7546 -10.3923 -10.2102  -9.9971  -9.9936  -9.8394  -9.6634  -9.5803
    -9.5755  -9.5739  -9.5108  -9.4988  -7.9631  -7.0523  -6.9683  -6.8175
    -6.7068  -6.6460  -6.4810  -6.3726  -6.3481  -6.0928  -5.9666  -5.9571
    -5.9057  -5.7737  -5.6486  -5.5701  -5.5486  -5.5011  -5.4679  -5.4274
    -5.3613  -5.3421  -4.9380  -4.9035  -4.8785  -4.5760  -4.4969  -4.4611
    -4.4364  -3.8572  -3.8383  -3.6498  -3.5127  -3.4820  -3.3603  -3.2750
    -3.1439  -3.0777  -2.9925  -2.9447  -2.9317  -2.1433  -2.0478  -2.0438
    -1.2400  -0.5549  -0.3809   0.0098   0.2708   0.4603   0.7109   0.8590
     1.0457   1.0686   1.1103   1.2964   1.3268   2.0481   2.2286   2.2609
     2.3001   2.3209   2.3314   2.3640

     the spin up/dw Fermi energies are    -1.2400   -1.2400 ev

!    total energy              =    -882.72003227 Ry
     estimated scf accuracy    <       0.00000016 Ry
     smearing contrib. (-TS)   =      -0.00005642 Ry
     internal energy E=F+TS    =    -882.71997585 Ry

     The total energy is F=E-TS. E is the sum of the following terms:
     one-electron contribution =   -1224.29298761 Ry
     hartree contribution      =     656.08345807 Ry
     xc contribution           =    -218.88366361 Ry
     ewald contribution        =     200.39525860 Ry
     one-center paw contrib.   =    -296.02204130 Ry

     total magnetization       =     0.00 Bohr mag/cell
     absolute magnetization    =     0.00 Bohr mag/cell

     convergence has been achieved in  10 iterations

     negative rho (up, down):  1.436E-06 1.436E-06

     Forces acting on atoms (cartesian axes, Ry/au):

     atom    1 type  1   force =     0.01679959   -0.01771466    0.01845142
     atom    2 type  1   force =     0.01448136   -0.01474488    0.01446217
     atom    3 type  1   force =     0.03216353   -0.03237915    0.03212077
     atom    4 type  1   force =    -0.01425223    0.01271214    0.03344068
     atom    5 type  1   force =    -0.01058969    0.01066822    0.00942317
     atom    6 type  1   force =    -0.03357334    0.03337245    0.03913599
     atom    7 type  1   force =     0.02178676    0.01732454   -0.01769897
     atom    8 type  1   force =     0.01142632    0.01228869   -0.01178054
     atom    9 type  1   force =     0.03413266    0.03367087   -0.03515347
     atom   10 type  1   force =    -0.01828097   -0.01690996   -0.01713868
     atom   11 type  1   force =    -0.01117585   -0.01100534   -0.01085206
     atom   12 type  1   force =    -0.03440474   -0.03329437   -0.03532696
     atom   13 type  1   force =    -0.02227045    0.02429791    0.02149759
     atom   14 type  1   force =    -0.02103198    0.02051573    0.02057965
     atom   15 type  1   force =     0.02345779   -0.02322302   -0.02445952
     atom   16 type  1   force =     0.01283833   -0.01651853    0.00189836
     atom   17 type  1   force =     0.06522353   -0.06589348    0.06342614
     atom   18 type  1   force =    -0.03075427    0.02867669   -0.03553997
     atom   19 type  1   force =     0.02237315    0.02511565   -0.02022989
     atom   20 type  1   force =     0.02270299    0.02261731   -0.02329210
     atom   21 type  1   force =    -0.02574387   -0.02569268    0.02603444
     atom   22 type  1   force =    -0.02338175   -0.02260613   -0.02038367
     atom   23 type  1   force =    -0.02319948   -0.02345883   -0.02357970
     atom   24 type  1   force =     0.02534144    0.02503230    0.02573373
     atom   25 type  1   force =     0.02005792   -0.00578882   -0.09444354
     atom   26 type  1   force =    -0.01321063    0.02695655   -0.08454507
     atom   27 type  1   force =     0.04307099   -0.06368101    0.15885346
     atom   28 type  1   force =    -0.01634959    0.01827044    0.01909261
     atom   29 type  1   force =    -0.01486757    0.01495006    0.01476715
     atom   30 type  1   force =    -0.03142351    0.03152127    0.03204243
     atom   31 type  1   force =     0.01697714    0.01927310   -0.02306195
     atom   32 type  1   force =     0.01169381    0.01151925   -0.01141325
     atom   33 type  1   force =     0.03403880    0.03511516   -0.03358115
     atom   34 type  1   force =    -0.01918493   -0.01690423   -0.02493050
     atom   35 type  1   force =    -0.01113522   -0.01107367   -0.01103850
     atom   36 type  1   force =    -0.03662856   -0.03577704   -0.03567004
     atom   37 type  1   force =    -0.03089409    0.03233498    0.00132043
     atom   38 type  1   force =    -0.02841213    0.02910082    0.02918547
     atom   39 type  1   force =     0.03077667   -0.03055408   -0.03357225
     atom   40 type  1   force =     0.02241618   -0.02303693    0.02113832
     atom   41 type  1   force =     0.02175357   -0.02109219    0.02183084
     atom   42 type  1   force =    -0.02352817    0.02361725   -0.02400817
     atom   43 type  1   force =     0.01916843    0.02308277   -0.02971228
     atom   44 type  1   force =     0.02513197    0.02448169   -0.02365073
     atom   45 type  1   force =    -0.02418670   -0.02683889    0.02896963
     atom   46 type  1   force =    -0.02339405   -0.01751346   -0.02378763
     atom   47 type  1   force =    -0.02325928   -0.02337888   -0.02341987
     atom   48 type  1   force =     0.02728258    0.02460676    0.02934648
     atom   49 type  2   force =    -0.00996247   -0.00204235    0.08951952

     Total force =     0.381977     Total SCF correction =     0.000481
     Energy error            =      8.9E-02 Ry
     Gradient error          =      1.6E-01 Ry/Bohr

     number of scf cycles    =   3
     number of bfgs steps    =   1

     energy             old  =    -882.6305758444 Ry
     energy             new  =    -882.7200322727 Ry

     CASE: energy            _new < energy            _old

     new trust radius        =       0.1722008221 bohr
     new conv_thr            =       0.0000010000 Ry


ATOMIC_POSITIONS (angstrom)
C             6.1848343535        4.5899025267        6.1878751285
C             7.7127727739        3.0569265587        7.7127352501
C             7.0096153965        3.7632339266        7.0096620649
C             4.5923374408        6.1824460787        6.2023544244
C             3.0572276940        7.7127854750        7.7114234328
C             3.7649308670        7.0079299760        7.0133502639
C             6.1898900926        6.1865213535        4.5884499331
C             7.7124053350        7.7131713314        3.0572722406
C             7.0095047363        7.0091850825        3.7621246611
C             4.5844485223        4.5865540815        4.5845933910
C             3.0566156180        3.0566704788        3.0569377452
C             3.7605620550        3.7616321520        3.7594383414
C             6.1890436135        4.5839930627        4.5811922506
C             7.7751399889        3.0014392142        3.0015372351
C             7.0636767623        3.7104987074        3.7104622165
C             4.5706482918        6.1972717794        4.5598231866
C             3.0006096130        7.7770448912        2.9982072940
C             3.7225574472        7.0493862266        3.7193556957
C             4.5822480809        4.5838754054        6.1927271646
C             3.0014618073        3.0014006280        7.7749706794
C             3.7099229936        3.7098118998        7.0644875707
C             6.1922454282        6.1928506395        6.1960055694
C             7.7748817265        7.7756418276        7.7754377588
C             7.0656876522        7.0662793330        7.0660962158
C             0.6889176725       10.0988695949        0.5768928150
C             2.2773376277        8.5136575089        2.2058472856
C             1.4698227938        9.2881122291        1.5647441367
C            10.0858977707        0.6852111411        0.6865403169
C             8.5598671110        2.2162024738        2.2169012338
C             9.2630229723        1.5100486166        1.5120799619
C             0.6850510147        0.6832634812       10.0810143522
C             2.2154720869        2.2153526583        8.5607455584
C             1.5115277084        1.5111508900        9.2632654844
C            10.0903024006       10.0905770070       10.0812945734
C             8.5616131252        8.5617367545        8.5617599027
C             9.2643387441        9.2648411750        9.2642632749
C             0.6852938433       10.0903864901       10.0562817112
C             2.2689035098        8.4997107499        8.4990331075
C             1.5628839346        9.2083400302        9.2059958341
C            10.0815288306        0.6906639144       10.0798050187
C             8.4973964100        2.2702397424        8.4974967662
C             9.2077182678        1.5613489936        9.2072643274
C            10.0790786212       10.0815777979        0.6898094467
C             8.4974682207        8.4977508754        2.2708189021
C             9.2102911815        9.2084159925        1.5651860938
C             0.6910124450        0.6919711060        0.6924017262
C             2.2716174323        2.2704930572        2.2713354052
C             1.5626481678        1.5597937973        1.5640169708
H             0.7437198172        9.7058312863        2.2916860801



     Writing config-only to output data dir ./pwscf.save/
     NEW-OLD atomic charge density approx. for the potential

     Check: negative core charge=   -0.000004

     negative rho (up, down):  1.359E-06 1.359E-06
     Generating pointlists ...

     total cpu time spent up to now is       85.6 secs

     Self-consistent Calculation

     iteration #  1     ecut=    50.00 Ry     beta= 0.30
     Davidson diagonalization with overlap
     ethr =  1.00E-06,  avg # of iterations = 10.0

     negative rho (up, down):  1.593E-06 1.593E-06

     total cpu time spent up to now is       90.6 secs

     total energy              =    -882.74686858 Ry
     estimated scf accuracy    <       0.12312352 Ry

     total magnetization       =     0.00 Bohr mag/cell
     absolute magnetization    =     0.00 Bohr mag/cell

     iteration #  2     ecut=    50.00 Ry     beta= 0.30
     Davidson diagonalization with overlap
     ethr =  6.38E-05,  avg # of iterations =  2.0

     negative rho (up, down):  1.781E-06 1.781E-06

     total cpu time spent up to now is       92.6 secs

     total energy              =    -882.76764761 Ry
     estimated scf accuracy    <       0.02683171 Ry

     total magnetization       =    -0.00 Bohr mag/cell
     absolute magnetization    =     0.00 Bohr mag/cell

     iteration #  3     ecut=    50.00 Ry     beta= 0.30
     Davidson diagonalization with overlap
     ethr =  1.39E-05,  avg # of iterations =  1.0

     negative rho (up, down):  2.025E-06 2.025E-06

     total cpu time spent up to now is       94.4 secs

     total energy              =    -882.76853289 Ry
     estimated scf accuracy    <       0.00509821 Ry

     total magnetization       =    -0.00 Bohr mag/cell
     absolute magnetization    =     0.00 Bohr mag/cell

     iteration #  4     ecut=    50.00 Ry     beta= 0.30
     Davidson diagonalization with overlap
     ethr =  2.64E-06,  avg # of iterations =  4.0

     negative rho (up, down):  2.121E-06 2.120E-06

     total cpu time spent up to now is       96.6 secs

     total energy              =    -882.76906249 Ry
     estimated scf accuracy    <       0.00109909 Ry

     total magnetization       =    -0.00 Bohr mag/cell
     absolute magnetization    =     0.00 Bohr mag/cell

     iteration #  5     ecut=    50.00 Ry     beta= 0.30
     Davidson diagonalization with overlap
     ethr =  5.69E-07,  avg # of iterations =  2.0

     negative rho (up, down):  2.036E-06 2.036E-06

     total cpu time spent up to now is       98.6 secs

     total energy              =    -882.76920500 Ry
     estimated scf accuracy    <       0.00016053 Ry

     total magnetization       =    -0.00 Bohr mag/cell
     absolute magnetization    =     0.00 Bohr mag/cell

     iteration #  6     ecut=    50.00 Ry     beta= 0.30
     Davidson diagonalization with overlap
     ethr =  8.32E-08,  avg # of iterations =  4.0

     negative rho (up, down):  1.969E-06 1.969E-06

     total cpu time spent up to now is      100.7 secs

     total energy              =    -882.76922381 Ry
     estimated scf accuracy    <       0.00014248 Ry

     total magnetization       =    -0.00 Bohr mag/cell
     absolute magnetization    =     0.00 Bohr mag/cell

     iteration #  7     ecut=    50.00 Ry     beta= 0.30
     Davidson diagonalization with overlap
     ethr =  7.38E-08,  avg # of iterations =  1.0

     negative rho (up, down):  1.910E-06 1.910E-06

     total cpu time spent up to now is      102.5 secs

     total energy              =    -882.76923287 Ry
     estimated scf accuracy    <       0.00002044 Ry

     total magnetization       =     0.00 Bohr mag/cell
     absolute magnetization    =     0.00 Bohr mag/cell

     iteration #  8     ecut=    50.00 Ry     beta= 0.30
     Davidson diagonalization with overlap
     ethr =  1.06E-08,  avg # of iterations =  3.0

     negative rho (up, down):  1.881E-06 1.881E-06

     total cpu time spent up to now is      104.6 secs

     total energy              =    -882.76923739 Ry
     estimated scf accuracy    <       0.00000371 Ry

     total magnetization       =    -0.00 Bohr mag/cell
     absolute magnetization    =     0.00 Bohr mag/cell

     iteration #  9     ecut=    50.00 Ry     beta= 0.30
     Davidson diagonalization with overlap
     ethr =  1.92E-09,  avg # of iterations =  2.0

     negative rho (up, down):  1.859E-06 1.859E-06

     Magnetic moment per site  (integrated on atomic sphere of radius R)
     atom   1 (R=0.041)  charge=  0.8198  magn=  0.0000
     atom   2 (R=0.041)  charge=  0.8726  magn= -0.0000
     atom   3 (R=0.041)  charge=  0.8673  magn=  0.0000
     atom   4 (R=0.041)  charge=  0.8184  magn=  0.0000
     atom   5 (R=0.041)  charge=  0.8718  magn=  0.0000
     atom   6 (R=0.041)  charge=  0.8691  magn= -0.0000
     atom   7 (R=0.041)  charge=  0.8183  magn=  0.0000
     atom   8 (R=0.041)  charge=  0.8730  magn=  0.0000
     atom   9 (R=0.041)  charge=  0.8677  magn= -0.0000
     atom  10 (R=0.041)  charge=  0.8176  magn=  0.0000
     atom  11 (R=0.041)  charge=  0.8714  magn=  0.0000
     atom  12 (R=0.041)  charge=  0.8675  magn= -0.0000
     atom  13 (R=0.041)  charge=  0.8038  magn= -0.0000
     atom  14 (R=0.041)  charge=  0.8692  magn= -0.0000
     atom  15 (R=0.041)  charge=  0.8456  magn=  0.0000
     atom  16 (R=0.041)  charge=  0.8042  magn= -0.0000
     atom  17 (R=0.041)  charge=  0.8758  magn= -0.0000
     atom  18 (R=0.041)  charge=  0.8437  magn=  0.0000
     atom  19 (R=0.041)  charge=  0.8042  magn= -0.0000
     atom  20 (R=0.041)  charge=  0.8693  magn=  0.0000
     atom  21 (R=0.041)  charge=  0.8464  magn= -0.0000
     atom  22 (R=0.041)  charge=  0.8038  magn= -0.0000
     atom  23 (R=0.041)  charge=  0.8659  magn= -0.0000
     atom  24 (R=0.041)  charge=  0.8480  magn=  0.0000
     atom  25 (R=0.041)  charge=  0.8186  magn=  0.0000
     atom  26 (R=0.041)  charge=  0.8645  magn=  0.0000
     atom  27 (R=0.041)  charge=  0.8590  magn= -0.0000
     atom  28 (R=0.041)  charge=  0.8182  magn=  0.0000
     atom  29 (R=0.041)  charge=  0.8732  magn=  0.0000
     atom  30 (R=0.041)  charge=  0.8656  magn= -0.0000
     atom  31 (R=0.041)  charge=  0.8193  magn=  0.0000
     atom  32 (R=0.041)  charge=  0.8737  magn= -0.0000
     atom  33 (R=0.041)  charge=  0.8669  magn=  0.0000
     atom  34 (R=0.041)  charge=  0.8211  magn=  0.0000
     atom  35 (R=0.041)  charge=  0.8739  magn=  0.0000
     atom  36 (R=0.041)  charge=  0.8698  magn= -0.0000
     atom  37 (R=0.041)  charge=  0.8192  magn= -0.0000
     atom  38 (R=0.041)  charge=  0.8699  magn= -0.0000
     atom  39 (R=0.041)  charge=  0.8501  magn=  0.0000
     atom  40 (R=0.041)  charge=  0.8043  magn= -0.0000
     atom  41 (R=0.041)  charge=  0.8689  magn=  0.0000
     atom  42 (R=0.041)  charge=  0.8470  magn= -0.0000
     atom  43 (R=0.041)  charge=  0.8046  magn= -0.0000
     atom  44 (R=0.041)  charge=  0.8685  magn= -0.0000
     atom  45 (R=0.041)  charge=  0.8472  magn=  0.0000
     atom  46 (R=0.041)  charge=  0.8032  magn= -0.0000
     atom  47 (R=0.041)  charge=  0.8685  magn= -0.0000
     atom  48 (R=0.041)  charge=  0.8488  magn=  0.0000
     atom  49 (R=0.041)  charge=  0.4743  magn=  0.0000

     total cpu time spent up to now is      106.5 secs

     End of self-consistent calculation

 ------ SPIN UP ------------


          k = 0.0000 0.0000 0.0000 ( 26858 PWs)   bands (ev):

   -22.0685 -21.7685 -17.8738 -17.5967 -17.5636 -17.4364 -17.3626 -17.3425
   -17.1179 -16.9469 -16.9266 -16.9103 -16.8633 -16.2969 -16.2402 -16.2177
   -16.0229 -15.8326 -15.8244 -15.7220 -15.5458 -14.8083 -14.7733 -14.7615
   -14.2300 -13.9976 -13.9936 -13.6450 -13.1234 -12.7992 -12.7422 -12.7307
   -12.3234 -12.1797 -12.1684 -12.1272 -11.2627 -11.2009 -11.1319 -11.1245
   -10.7805 -10.2963 -10.1427  -9.8708  -9.8517  -9.7064  -9.6780  -9.5551
    -9.5393  -9.4192  -9.3998  -9.3615  -7.8367  -6.9332  -6.9170  -6.7313
    -6.5616  -6.5216  -6.4285  -6.3466  -6.2889  -6.1606  -5.9360  -5.9092
    -5.8471  -5.8096  -5.7282  -5.6660  -5.6630  -5.6166  -5.5882  -5.5623
    -5.5225  -5.5073  -5.1087  -5.0182  -4.9745  -4.6764  -4.5900  -4.5859
    -4.5637  -3.8093  -3.8006  -3.6366  -3.4643  -3.4537  -3.3516  -3.2744
    -3.2297  -3.1946  -3.1000  -3.0575  -3.0226  -2.3276  -2.2239  -2.1902
    -1.1504  -0.2800  -0.2066   0.1637   0.5655   0.7009   0.8831   1.0189
     1.1816   1.2480   1.2615   1.3540   1.3650   2.0062   2.1980   2.2849
     2.3236   2.3679   2.3894   2.4198

 ------ SPIN DOWN ----------


          k = 0.0000 0.0000 0.0000 ( 26858 PWs)   bands (ev):

   -22.0685 -21.7685 -17.8738 -17.5967 -17.5636 -17.4364 -17.3626 -17.3425
   -17.1179 -16.9469 -16.9266 -16.9103 -16.8633 -16.2969 -16.2402 -16.2177
   -16.0229 -15.8326 -15.8244 -15.7220 -15.5458 -14.8083 -14.7733 -14.7615
   -14.2300 -13.9976 -13.9936 -13.6450 -13.1234 -12.7992 -12.7422 -12.7307
   -12.3234 -12.1797 -12.1684 -12.1272 -11.2627 -11.2009 -11.1319 -11.1245
   -10.7805 -10.2963 -10.1427  -9.8708  -9.8517  -9.7064  -9.6780  -9.5551
    -9.5393  -9.4192  -9.3998  -9.3615  -7.8367  -6.9332  -6.9170  -6.7313
    -6.5616  -6.5216  -6.4285  -6.3466  -6.2889  -6.1606  -5.9360  -5.9092
    -5.8471  -5.8096  -5.7282  -5.6660  -5.6630  -5.6166  -5.5882  -5.5623
    -5.5225  -5.5073  -5.1087  -5.0182  -4.9745  -4.6764  -4.5900  -4.5859
    -4.5637  -3.8093  -3.8006  -3.6366  -3.4643  -3.4537  -3.3516  -3.2744
    -3.2297  -3.1946  -3.1000  -3.0575  -3.0226  -2.3276  -2.2239  -2.1902
    -1.1504  -0.2800  -0.2066   0.1637   0.5655   0.7009   0.8831   1.0189
     1.1816   1.2480   1.2615   1.3540   1.3650   2.0062   2.1980   2.2849
     2.3236   2.3679   2.3894   2.4198

     the spin up/dw Fermi energies are    -1.1504   -1.1504 ev

!    total energy              =    -882.76923783 Ry
     estimated scf accuracy    <       0.00000076 Ry
     smearing contrib. (-TS)   =      -0.00005642 Ry
     internal energy E=F+TS    =    -882.76918141 Ry

     The total energy is F=E-TS. E is the sum of the following terms:
     one-electron contribution =   -1217.89327282 Ry
     hartree contribution      =     653.13602025 Ry
     xc contribution           =    -219.22608024 Ry
     ewald contribution        =     197.27066017 Ry
     one-center paw contrib.   =    -296.05650876 Ry

     total magnetization       =    -0.00 Bohr mag/cell
     absolute magnetization    =     0.00 Bohr mag/cell

     convergence has been achieved in   9 iterations

     negative rho (up, down):  1.859E-06 1.859E-06

     Forces acting on atoms (cartesian axes, Ry/au):

     atom    1 type  1   force =     0.00986899   -0.00993567    0.00900695
     atom    2 type  1   force =     0.01250188   -0.01266069    0.01251474
     atom    3 type  1   force =    -0.01728976    0.01716495   -0.01712982
     atom    4 type  1   force =    -0.00824998    0.00894230    0.00891727
     atom    5 type  1   force =    -0.02116981    0.02115581    0.02059749
     atom    6 type  1   force =     0.02335430   -0.02342804   -0.01560602
     atom    7 type  1   force =     0.00625065    0.01130756   -0.00904257
     atom    8 type  1   force =     0.01603463    0.01696814   -0.01661731
     atom    9 type  1   force =    -0.01858136   -0.02082376    0.02015425
     atom   10 type  1   force =    -0.01176131   -0.00704420   -0.01008297
     atom   11 type  1   force =    -0.01687158   -0.01631053   -0.01672383
     atom   12 type  1   force =     0.02229644    0.02125431    0.02195764
     atom   13 type  1   force =     0.03672774   -0.03606426   -0.03782960
     atom   14 type  1   force =    -0.01090206    0.01062836    0.01052578
     atom   15 type  1   force =    -0.04688544    0.04691675    0.04580801
     atom   16 type  1   force =    -0.02935105    0.03042712   -0.03068017
     atom   17 type  1   force =     0.02617875   -0.02524187    0.01913556
     atom   18 type  1   force =     0.04691286   -0.04898032    0.04108333
     atom   19 type  1   force =    -0.03892620   -0.03654546    0.03755444
     atom   20 type  1   force =     0.00666197    0.00642357   -0.00671955
     atom   21 type  1   force =     0.04853537    0.04869916   -0.04830601
     atom   22 type  1   force =     0.03576645    0.03796726    0.03617605
     atom   23 type  1   force =    -0.00606664   -0.00641647   -0.00617904
     atom   24 type  1   force =    -0.04843088   -0.04878107   -0.04775815
     atom   25 type  1   force =     0.04656633   -0.04745160    0.04974214
     atom   26 type  1   force =     0.01504440   -0.00312862   -0.04824308
     atom   27 type  1   force =    -0.07904840    0.05559968    0.03472390
     atom   28 type  1   force =    -0.00802662    0.00858388    0.01225537
     atom   29 type  1   force =    -0.01049910    0.01054213    0.01052697
     atom   30 type  1   force =     0.01568089   -0.01596581   -0.01631151
     atom   31 type  1   force =     0.00737058    0.02629399   -0.02455866
     atom   32 type  1   force =     0.01690027    0.01652484   -0.01642361
     atom   33 type  1   force =    -0.02142574   -0.01861171    0.01869935
     atom   34 type  1   force =    -0.02309900   -0.00773263   -0.02346841
     atom   35 type  1   force =    -0.02048039   -0.02069135   -0.02045310
     atom   36 type  1   force =     0.02022587    0.02284404    0.01972156
     atom   37 type  1   force =     0.03859493   -0.03644140   -0.07406821
     atom   38 type  1   force =     0.00331700   -0.00296459   -0.00457401
     atom   39 type  1   force =    -0.05461182    0.05546916    0.04749219
     atom   40 type  1   force =    -0.04002987    0.03991977   -0.03835811
     atom   41 type  1   force =     0.00988482   -0.00952018    0.00990500
     atom   42 type  1   force =     0.04710008   -0.04662430    0.04651224
     atom   43 type  1   force =    -0.02959534   -0.03482629    0.01937542
     atom   44 type  1   force =     0.00676783    0.00660304   -0.00605431
[...]

     total cpu time spent up to now is     1167.2 secs

     total energy              =    -882.89258490 Ry
     estimated scf accuracy    <       0.00277422 Ry

     total magnetization       =    -0.00 Bohr mag/cell
     absolute magnetization    =     0.01 Bohr mag/cell

     iteration #  7     ecut=    50.00 Ry     beta= 0.30
     Davidson diagonalization with overlap
     ethr =  1.44E-06,  avg # of iterations =  2.0

     negative rho (up, down):  1.649E-06 1.649E-06

     total cpu time spent up to now is     1169.2 secs

     total energy              =    -882.89306546 Ry
     estimated scf accuracy    <       0.00042839 Ry

     total magnetization       =     0.00 Bohr mag/cell
     absolute magnetization    =     0.01 Bohr mag/cell

     iteration #  8     ecut=    50.00 Ry     beta= 0.30
     Davidson diagonalization with overlap
     ethr =  2.22E-07,  avg # of iterations =  4.0

     negative rho (up, down):  1.591E-06 1.591E-06

     total cpu time spent up to now is     1171.3 secs

     total energy              =    -882.89316538 Ry
     estimated scf accuracy    <       0.00008567 Ry

     total magnetization       =    -0.00 Bohr mag/cell
     absolute magnetization    =     0.01 Bohr mag/cell

     iteration #  9     ecut=    50.00 Ry     beta= 0.30
     Davidson diagonalization with overlap
     ethr =  4.44E-08,  avg # of iterations =  2.0

     negative rho (up, down):  1.584E-06 1.584E-06

     total cpu time spent up to now is     1173.3 secs

     total energy              =    -882.89321245 Ry
     estimated scf accuracy    <       0.00002343 Ry

     total magnetization       =     0.00 Bohr mag/cell
     absolute magnetization    =     0.00 Bohr mag/cell

     iteration # 10     ecut=    50.00 Ry     beta= 0.30
     Davidson diagonalization with overlap
     ethr =  1.21E-08,  avg # of iterations =  2.0

     negative rho (up, down):  1.558E-06 1.558E-06

     total cpu time spent up to now is     1175.3 secs

     total energy              =    -882.89322140 Ry
     estimated scf accuracy    <       0.00000228 Ry

     total magnetization       =     0.00 Bohr mag/cell
     absolute magnetization    =     0.00 Bohr mag/cell

     iteration # 11     ecut=    50.00 Ry     beta= 0.30
     Davidson diagonalization with overlap
     ethr =  1.18E-09,  avg # of iterations =  4.0

     negative rho (up, down):  1.545E-06 1.545E-06

     total cpu time spent up to now is     1177.7 secs

     total energy              =    -882.89322676 Ry
     estimated scf accuracy    <       0.00000057 Ry

     total magnetization       =    -0.00 Bohr mag/cell
     absolute magnetization    =     0.00 Bohr mag/cell

     iteration # 12     ecut=    50.00 Ry     beta= 0.30
     Davidson diagonalization with overlap
     ethr =  2.94E-10,  avg # of iterations =  2.0

     negative rho (up, down):  1.537E-06 1.537E-06

     total cpu time spent up to now is     1179.7 secs

     total energy              =    -882.89322953 Ry
     estimated scf accuracy    <       0.00000009 Ry

     total magnetization       =    -0.00 Bohr mag/cell
     absolute magnetization    =     0.00 Bohr mag/cell

     iteration # 13     ecut=    50.00 Ry     beta= 0.30
     Davidson diagonalization with overlap
     ethr =  4.60E-11,  avg # of iterations =  4.0

     negative rho (up, down):  1.532E-06 1.532E-06

     total cpu time spent up to now is     1181.9 secs

     total energy              =    -882.89323042 Ry
     estimated scf accuracy    <       0.00000002 Ry

     total magnetization       =     0.00 Bohr mag/cell
     absolute magnetization    =     0.00 Bohr mag/cell

     iteration # 14     ecut=    50.00 Ry     beta= 0.30
     Davidson diagonalization with overlap
     ethr =  8.80E-12,  avg # of iterations =  3.0

     negative rho (up, down):  1.521E-06 1.521E-06

     Magnetic moment per site  (integrated on atomic sphere of radius R)
     atom   1 (R=0.040)  charge=  0.7476  magn=  0.0000
     atom   2 (R=0.040)  charge=  0.7958  magn=  0.0000
     atom   3 (R=0.040)  charge=  0.7914  magn= -0.0000
     atom   4 (R=0.040)  charge=  0.7454  magn= -0.0000
     atom   5 (R=0.040)  charge=  0.7952  magn= -0.0000
     atom   6 (R=0.040)  charge=  0.7941  magn=  0.0000
     atom   7 (R=0.040)  charge=  0.7488  magn=  0.0000
     atom   8 (R=0.040)  charge=  0.7972  magn= -0.0000
     atom   9 (R=0.040)  charge=  0.7931  magn=  0.0000
     atom  10 (R=0.040)  charge=  0.7489  magn=  0.0000
     atom  11 (R=0.040)  charge=  0.7970  magn= -0.0000
     atom  12 (R=0.040)  charge=  0.7927  magn=  0.0000
     atom  13 (R=0.040)  charge=  0.7495  magn= -0.0000
     atom  14 (R=0.040)  charge=  0.7961  magn=  0.0000
     atom  15 (R=0.040)  charge=  0.7932  magn= -0.0000
     atom  16 (R=0.040)  charge=  0.7449  magn= -0.0000
     atom  17 (R=0.040)  charge=  0.7951  magn= -0.0000
     atom  18 (R=0.040)  charge=  0.7856  magn=  0.0000
     atom  19 (R=0.040)  charge=  0.7487  magn= -0.0000
     atom  20 (R=0.040)  charge=  0.7960  magn=  0.0000
     atom  21 (R=0.040)  charge=  0.7904  magn= -0.0000
     atom  22 (R=0.040)  charge=  0.7484  magn= -0.0000
     atom  23 (R=0.040)  charge=  0.7954  magn= -0.0000
     atom  24 (R=0.040)  charge=  0.7911  magn=  0.0000
     atom  25 (R=0.040)  charge=  0.7433  magn=  0.0000
     atom  26 (R=0.040)  charge=  0.7816  magn=  0.0000
     atom  27 (R=0.040)  charge=  0.7762  magn= -0.0000
     atom  28 (R=0.040)  charge=  0.7498  magn= -0.0000
     atom  29 (R=0.040)  charge=  0.7976  magn= -0.0000
     atom  30 (R=0.040)  charge=  0.7927  magn=  0.0000
     atom  31 (R=0.040)  charge=  0.7475  magn=  0.0000
     atom  32 (R=0.040)  charge=  0.7958  magn=  0.0000
     atom  33 (R=0.040)  charge=  0.7912  magn= -0.0000
     atom  34 (R=0.040)  charge=  0.7476  magn=  0.0000
     atom  35 (R=0.040)  charge=  0.7955  magn=  0.0000
     atom  36 (R=0.040)  charge=  0.7912  magn= -0.0000
     atom  37 (R=0.040)  charge=  0.7462  magn= -0.0000
     atom  38 (R=0.040)  charge=  0.7977  magn=  0.0000
     atom  39 (R=0.040)  charge=  0.7921  magn= -0.0000
     atom  40 (R=0.040)  charge=  0.7477  magn=  0.0000
     atom  41 (R=0.040)  charge=  0.7954  magn= -0.0000
     atom  42 (R=0.040)  charge=  0.7916  magn=  0.0000
     atom  43 (R=0.040)  charge=  0.7518  magn=  0.0000
     atom  44 (R=0.040)  charge=  0.7969  magn=  0.0000
     atom  45 (R=0.040)  charge=  0.7921  magn= -0.0000
     atom  46 (R=0.040)  charge=  0.7510  magn=  0.0000
     atom  47 (R=0.040)  charge=  0.7964  magn=  0.0000
     atom  48 (R=0.040)  charge=  0.7925  magn= -0.0000
     atom  49 (R=0.040)  charge=  0.4463  magn=  0.0000

     total cpu time spent up to now is     1183.9 secs

     End of self-consistent calculation

 ------ SPIN UP ------------


          k = 0.0000 0.0000 0.0000 ( 26858 PWs)   bands (ev):

   -21.5179 -21.4120 -17.6429 -17.5332 -17.5194 -17.4028 -17.2983 -17.2146
   -17.0408 -16.9359 -16.9274 -16.8602 -16.8276 -16.1562 -16.0907 -16.0681
   -15.9858 -15.9100 -15.8980 -15.6894 -15.5600 -14.6638 -14.6308 -14.6051
   -14.2388 -14.1364 -14.0914 -13.6320 -13.2033 -12.8324 -12.8190 -12.6740
   -12.2194 -12.1232 -12.0948 -12.0812 -11.4321 -11.0758 -11.0748 -11.0154
   -10.7276 -10.3331  -9.9535  -9.9044  -9.8257  -9.5962  -9.4648  -9.4466
    -9.4416  -9.4080  -9.3284  -9.1040  -8.2154  -6.9803  -6.9594  -6.7411
    -6.6209  -6.5914  -6.4366  -6.3586  -6.2905  -6.1690  -5.9419  -5.9200
    -5.7950  -5.7090  -5.7053  -5.6449  -5.5886  -5.5810  -5.5523  -5.5222
    -5.4342  -5.4054  -5.0576  -4.9406  -4.9010  -4.7764  -4.5124  -4.4932
    -4.3506  -3.8275  -3.7917  -3.7048  -3.4947  -3.4440  -3.3977  -3.2710
    -3.1848  -3.0929  -3.0354  -2.9844  -2.9596  -2.2880  -2.1113  -2.1051
    -1.3677  -0.2984  -0.2970  -0.0451   0.4756   0.5414   0.7066   0.8979
     1.1166   1.1195   1.1384   1.2958   1.3813   1.9055   2.1546   2.1919
     2.3205   2.3560   2.3748   2.4345

 ------ SPIN DOWN ----------


          k = 0.0000 0.0000 0.0000 ( 26858 PWs)   bands (ev):

   -21.5179 -21.4120 -17.6429 -17.5332 -17.5194 -17.4028 -17.2983 -17.2146
   -17.0408 -16.9359 -16.9274 -16.8602 -16.8276 -16.1561 -16.0907 -16.0681
   -15.9858 -15.9100 -15.8980 -15.6894 -15.5600 -14.6638 -14.6308 -14.6051
   -14.2388 -14.1364 -14.0914 -13.6320 -13.2033 -12.8325 -12.8190 -12.6740
   -12.2194 -12.1232 -12.0948 -12.0812 -11.4321 -11.0758 -11.0748 -11.0153
   -10.7275 -10.3331  -9.9535  -9.9044  -9.8257  -9.5962  -9.4648  -9.4466
    -9.4416  -9.4080  -9.3284  -9.1040  -8.2154  -6.9803  -6.9594  -6.7411
    -6.6209  -6.5914  -6.4366  -6.3586  -6.2905  -6.1690  -5.9419  -5.9200
    -5.7950  -5.7090  -5.7053  -5.6449  -5.5887  -5.5810  -5.5523  -5.5222
    -5.4342  -5.4054  -5.0576  -4.9406  -4.9010  -4.7764  -4.5124  -4.4932
    -4.3506  -3.8275  -3.7917  -3.7048  -3.4947  -3.4440  -3.3976  -3.2710
    -3.1848  -3.0929  -3.0354  -2.9844  -2.9596  -2.2880  -2.1113  -2.1051
    -1.3677  -0.2984  -0.2970  -0.0451   0.4756   0.5414   0.7066   0.8979
     1.1166   1.1195   1.1384   1.2958   1.3813   1.9055   2.1546   2.1919
     2.3205   2.3560   2.3748   2.4345

     the spin up/dw Fermi energies are    -1.3677   -1.3677 ev

!    total energy              =    -882.89323085 Ry
     estimated scf accuracy    <          4.6E-09 Ry
     smearing contrib. (-TS)   =      -0.00005642 Ry
     internal energy E=F+TS    =    -882.89317443 Ry

     The total energy is F=E-TS. E is the sum of the following terms:
     one-electron contribution =   -1206.24073353 Ry
     hartree contribution      =     647.36577029 Ry
     xc contribution           =    -218.82438470 Ry
     ewald contribution        =     190.84449571 Ry
     one-center paw contrib.   =    -296.03832220 Ry

     total magnetization       =     0.00 Bohr mag/cell
     absolute magnetization    =     0.00 Bohr mag/cell

     convergence has been achieved in  14 iterations

     negative rho (up, down):  1.521E-06 1.521E-06

     Forces acting on atoms (cartesian axes, Ry/au):

     atom    1 type  1   force =    -0.00014371    0.00002221    0.00035167
     atom    2 type  1   force =     0.00006192   -0.00010576   -0.00015039
     atom    3 type  1   force =    -0.00009722    0.00002660   -0.00031254
     atom    4 type  1   force =    -0.00000217   -0.00000849    0.00046384
     atom    5 type  1   force =    -0.00018521    0.00004572    0.00038320
     atom    6 type  1   force =    -0.00023062    0.00022050   -0.00057627
     atom    7 type  1   force =     0.00012639   -0.00009792    0.00028937
     atom    8 type  1   force =    -0.00024014    0.00002950    0.00015268
     atom    9 type  1   force =    -0.00007504    0.00026569   -0.00036299
     atom   10 type  1   force =    -0.00005785   -0.00008755    0.00019488
     atom   11 type  1   force =    -0.00068735   -0.00034954   -0.00044135
     atom   12 type  1   force =     0.00008708    0.00065160    0.00009406
     atom   13 type  1   force =     0.00002821   -0.00011400    0.00038129
     atom   14 type  1   force =    -0.00038488    0.00037629    0.00030285
     atom   15 type  1   force =     0.00018143   -0.00022456   -0.00050282
     atom   16 type  1   force =     0.00015782   -0.00020081   -0.00000165
     atom   17 type  1   force =     0.00039977    0.00027421   -0.00032071
     atom   18 type  1   force =     0.00016073   -0.00012506    0.00033615
     atom   19 type  1   force =    -0.00000042    0.00008941    0.00026982
     atom   20 type  1   force =     0.00045691    0.00007413   -0.00011403
     atom   21 type  1   force =    -0.00022704   -0.00022775    0.00009185
     atom   22 type  1   force =    -0.00004951   -0.00006170    0.00036793
     atom   23 type  1   force =     0.00009564   -0.00010609    0.00018987
     atom   24 type  1   force =     0.00006357    0.00000491   -0.00005617
     atom   25 type  1   force =     0.00012775   -0.00011637   -0.00014860
     atom   26 type  1   force =    -0.00002292    0.00014439    0.00062132
     atom   27 type  1   force =    -0.00004749   -0.00000991   -0.00020178
     atom   28 type  1   force =     0.00009465   -0.00014169    0.00010907
     atom   29 type  1   force =     0.00035261   -0.00035315   -0.00053257
     atom   30 type  1   force =    -0.00024016    0.00023232    0.00032020
     atom   31 type  1   force =    -0.00009081    0.00014172    0.00003594
     atom   32 type  1   force =     0.00002416   -0.00039444    0.00012321
     atom   33 type  1   force =     0.00039377    0.00012913   -0.00004786
     atom   34 type  1   force =    -0.00013159    0.00006205    0.00008853
     atom   35 type  1   force =     0.00023599    0.00000384    0.00010253
     atom   36 type  1   force =    -0.00003799   -0.00030598    0.00005043
     atom   37 type  1   force =    -0.00008159    0.00006070   -0.00000469
     atom   38 type  1   force =    -0.00030880    0.00018701   -0.00039922
     atom   39 type  1   force =    -0.00004783   -0.00001284    0.00000117
     atom   40 type  1   force =    -0.00009038    0.00008220   -0.00003822
     atom   41 type  1   force =    -0.00004686   -0.00002759   -0.00040854
     atom   42 type  1   force =    -0.00010583    0.00009262   -0.00027668
     atom   43 type  1   force =     0.00012310    0.00006804   -0.00005659
     atom   44 type  1   force =     0.00004224   -0.00005050   -0.00033381
     atom   45 type  1   force =     0.00014717    0.00009634   -0.00003645
     atom   46 type  1   force =    -0.00005878   -0.00010055    0.00001652
     atom   47 type  1   force =     0.00054250    0.00060665    0.00025441
     atom   48 type  1   force =    -0.00059007   -0.00050193   -0.00053407
     atom   49 type  2   force =     0.00037888   -0.00026362    0.00026522

     Total force =     0.003063     Total SCF correction =     0.000075
     Energy error            =      1.1E-05 Ry
     Gradient error          =      6.9E-04 Ry/Bohr

     bfgs converged in  53 scf cycles and  50 bfgs steps
     (criteria: energy <  1.0E-04 Ry, force <  1.0E-03 Ry/Bohr)

     End of BFGS Geometry Optimization

     Final energy             =    -882.8932308523 Ry

     File ./pwscf.bfgs deleted, as requested
Begin final coordinates

ATOMIC_POSITIONS (angstrom)
C             6.2034701578        4.5730055032        6.1663102660
C             7.7656370467        3.0192447800        7.6870252816
C             7.0458445911        3.7369546072        6.9863850564
C             4.5864765369        6.1780541626        6.2342103905
C             3.0621010253        7.7012834974        7.7937938878
C             3.7805915987        6.9819436938        7.0886388933
C             6.1832460074        6.2052248377        4.5503781611
C             7.7212224931        7.7653362764        3.0224157521
C             7.0190490450        7.0382539186        3.7299189559
C             4.5675975089        4.5764860815        4.5544201626
C             3.0148764947        3.0276138709        3.0300706835
C             3.7394152958        3.7326678706        3.7368392583
C             6.1866419804        4.5858262556        4.5440989570
C             7.7141610234        3.0607667658        2.9707694256
C             7.0098280269        3.7654131508        3.6978361073
C             4.5644654216        6.1939760298        4.4819131888
C             3.0216097220        7.7214715222        2.9310953311
C             3.7736460868        6.9758900986        3.6259949722
C             4.5790433664        4.5749242780        6.1749062082
C             3.0489809632        3.0089112359        7.7196783092
C             3.7518037219        3.7302651008        7.0055438933
C             6.1891935817        6.1970033532        6.1706698893
C             7.7532133255        7.7317162451        7.7121524703
C             7.0313823828        7.0294229167        6.9982982178
C             0.6613712150       10.0983778909        0.7410157064
C             2.2456760207        8.4999687553        2.1895912448
C             1.3257021774        9.4184635388        1.9151324374
C            10.0508014111        0.7204678144        0.6451685827
C             8.5010241588        2.2741430805        2.1675148915
C             9.2085833559        1.5660080480        1.4468243389
C             0.7217043362        0.6656519263       10.0699000400
C             2.2651987439        2.2077696679        8.5185289577
C             1.5636776749        1.4889281570        9.2367769639
C            10.0972758876       10.0545627348       10.0656185397
C             8.5541488165        8.5152830964        8.5113042726
C             9.2719858786        9.2172854695        9.2299886388
C             0.7283243439       10.0366872669       10.1239381646
C             2.2755300493        8.4883690974        8.5909068818
C             1.5665450496        9.1969054309        9.3129908958
C            10.1024081240        0.6722372096       10.0223948308
C             8.5664385792        2.2183335915        8.4688280468
C             9.2843960531        1.4972467414        9.1679636662
C            10.0492099737       10.1048816981        0.6835458481
C             8.5048318525        8.5671539106        2.2318971456
C             9.2108522969        9.2851580506        1.5186347508
C             0.6686744338        0.7094467473        0.6880098466
C             2.2133532962        2.2437122943        2.2390707159
C             1.4930833120        1.5406464054        1.5256267104
H             0.8717055548        9.8526553240        2.8284641628
End final coordinates



     Writing all to output data dir ./pwscf.save/

     init_run     :      2.45s CPU      2.56s WALL (       1 calls)
     electrons    :    948.70s CPU    994.38s WALL (      54 calls)
     update_pot   :     69.27s CPU     70.26s WALL (      52 calls)
     forces       :     71.96s CPU     75.53s WALL (      54 calls)

     Called by init_run:
     wfcinit      :      0.65s CPU      0.69s WALL (       1 calls)
     potinit      :      2.07s CPU      2.12s WALL (       2 calls)
     hinit0       :      0.52s CPU      0.54s WALL (       1 calls)

     Called by electrons:
     c_bands      :    532.29s CPU    548.80s WALL (     475 calls)
     sum_band     :    118.20s CPU    122.67s WALL (     475 calls)
     v_of_rho     :    114.33s CPU    118.02s WALL (     501 calls)
     newd         :     43.55s CPU     44.77s WALL (     501 calls)
     PAW_pot      :    166.84s CPU    167.86s WALL (     553 calls)
     mix_rho      :     11.10s CPU     11.98s WALL (     475 calls)

     Called by c_bands:
     init_us_2    :      8.57s CPU      8.77s WALL (    2114 calls)
     init_us_2:cp :      8.55s CPU      8.76s WALL (    2114 calls)
     regterg      :    518.69s CPU    534.81s WALL (     950 calls)

     Called by *egterg:
     rdiaghg      :     32.18s CPU     32.38s WALL (    3297 calls)
     h_psi        :    297.51s CPU    311.66s WALL (    3461 calls)
     s_psi        :     51.28s CPU     51.63s WALL (    3461 calls)
     g_psi        :      1.03s CPU      1.05s WALL (    2509 calls)

     Called by h_psi:
     h_psi:calbec :     48.75s CPU     49.60s WALL (    3461 calls)
     vloc_psi     :    194.14s CPU    207.04s WALL (    3461 calls)
     add_vuspsi   :     51.86s CPU     52.23s WALL (    3461 calls)

     General routines
     calbec       :     77.93s CPU     79.24s WALL (    4947 calls)
     fft          :     50.16s CPU     56.06s WALL (   11059 calls)
     ffts         :      2.39s CPU      2.77s WALL (    1952 calls)
     fftw         :    202.76s CPU    216.31s WALL (  323278 calls)
     interpolate  :      6.62s CPU      7.29s WALL (    1002 calls)

     Parallel routines

     PWSCF        :  18m47.94s CPU  19m47.44s WALL


   This run was terminated on:   1:19:58  25May2025            

=------------------------------------------------------------------------------=
   JOB DONE.
=------------------------------------------------------------------------------=
