ITEM: TIMESTEP
0
ITEM: NUMBER OF ATOMS
129
ITEM: BOX BOUNDS xy xz yz pp pp pp
0.0000000000000000e+00 2.3654499999999999e+01 7.8845000000000001e+00
0.0000000000000000e+00 1.3658086643083999e+01 0.0000000000000000e+00
0.0000000000000000e+00 2.5747000000000000e+01 0.0000000000000000e+00
ITEM: ATOMS id type x y z 
18 1 10.522 6.683 2.644 
28 1 5.247 4.273 12.803 
31 1 9.65 6.514 0.446 
62 1 9.171 5.15 12.405 
91 1 9.65 6.514 11.889 
92 1 10.81 6.18 11.007 
106 1 10.522 6.683 9.691 
127 1 10.81 6.18 1.328 
4 1 4.402 5.735 13.319 
5 1 3.307 5.568 14.201 
43 1 4.549 6.796 15.517 
52 1 9.172 5.15 25.677 
66 1 4.402 5.735 24.762 
67 1 5.003 6.76 23.881 
88 1 5.247 4.273 25.278 
107 1 3.307 5.568 23.881 
116 1 4.549 6.796 22.565 
117 1 5.003 6.76 14.201 
11 1 11.272 7.494 3.321 
12 1 10.477 8.871 4.018 
14 1 9.018 11.397 0.446 
15 1 10.114 11.565 1.328 
16 1 8.412 9.024 0.654 
19 1 10.477 8.871 5.569 
29 1 10.927 10.156 3.321 
32 1 8.77 7.648 1.328 
35 1 12.036 9.594 2.644 
45 1 9.231 8.963 3.321 
47 1 12.762 8.702 0.446 
49 1 11.224 11 0.654 
51 1 8.872 10.337 2.644 
53 1 11.272 7.494 9.014 
54 1 10.477 8.871 8.317 
56 1 9.018 11.397 11.889 
57 1 8.418 10.372 11.007 
58 1 11.224 11 11.681 
60 1 12.255 7.901 9.691 
61 1 10.477 8.871 6.766 
73 1 9.231 8.963 9.014 
75 1 12.762 8.702 11.889 
76 1 12.202 10.061 11.007 
79 1 9.224 7.617 9.691 
80 1 8.174 12.859 12.405 
89 1 10.927 10.156 9.014 
93 1 8.412 9.024 11.681 
95 1 9.951 11.095 9.691 
105 1 10.114 11.565 11.007 
109 1 8.77 7.648 11.007 
110 1 12.036 9.594 9.691 
114 1 8.872 10.337 9.691 
119 1 8.418 10.372 1.328 
120 1 12.255 7.901 2.644 
123 1 12.202 10.061 1.328 
124 1 9.224 7.617 2.644 
128 1 9.951 11.095 2.644 
6 1 5.009 8.108 13.527 
13 1 9.663 10.28 25.128 
17 1 9.204 8.965 25.162 
30 1 10.016 7.556 25.128 
34 1 11.289 7.464 25.162 
36 1 8.174 12.859 25.677 
46 1 11.752 8.777 25.128 
50 1 10.937 10.184 25.162 
55 1 9.663 10.28 12.954 
59 1 10.937 10.184 12.919 
74 1 11.752 8.777 12.954 
78 1 11.289 7.464 12.919 
90 1 10.016 7.556 12.954 
94 1 9.204 8.965 12.919 
101 1 5.009 8.108 24.555 
33 1 11.795 6.589 0.654 
77 1 11.795 6.589 11.681 
41 1 17.967 6.132 13.527 
68 1 17.967 6.132 24.554 
103 1 19.24 6.037 22.565 
126 1 19.24 6.037 15.517 
3 1 19.528 6.852 12.254 
7 1 19.987 8.167 12.289 
10 1 15.106 8.528 12.804 
22 1 19.175 9.576 12.254 
26 1 17.902 9.668 12.289 
38 1 17.439 8.356 12.254 
42 1 18.254 6.949 12.289 
44 1 20.019 11.982 12.804 
48 1 12.546 7.4 1.328 
65 1 19.528 6.852 0.081 
69 1 18.254 6.949 0.046 
82 1 17.439 8.356 0.081 
86 1 17.902 9.668 0.046 
96 1 14.084 8.604 12.405 
98 1 19.175 9.576 0.081 
102 1 19.987 8.167 0.046 
113 1 12.546 7.4 11.007 
129 2 17.902 9.668 11.189 
1 1 17.919 9.638 16.194 
2 1 18.714 8.261 16.892 
8 1 18.669 10.449 15.517 
9 1 18.714 8.261 18.442 
20 1 14.084 8.604 25.677 
21 1 18.264 6.977 16.194 
23 1 19.541 10.618 13.32 
24 1 20.421 9.484 14.201 
25 1 17.396 10.544 13.527 
27 1 17.155 7.538 15.517 
37 1 19.96 8.169 16.194 
39 1 16.429 8.43 13.319 
40 1 16.644 9.732 14.201 
63 1 17.919 9.638 21.888 
64 1 18.714 8.261 21.19 
70 1 16.936 9.231 22.565 
71 1 18.714 8.261 19.64 
72 1 20.019 11.982 25.278 
81 1 19.96 8.169 21.888 
83 1 16.429 8.43 24.762 
84 1 16.989 7.071 23.881 
85 1 17.396 10.544 24.555 
87 1 19.967 9.515 22.565 
97 1 18.263 6.977 21.888 
99 1 19.541 10.618 24.762 
100 1 18.38 10.953 23.881 
104 1 15.106 8.528 25.278 
108 1 18.669 10.449 22.565 
111 1 20.421 9.484 23.881 
112 1 17.155 7.538 22.565 
115 1 16.644 9.732 23.881 
118 1 16.936 9.231 15.517 
121 1 16.989 7.071 14.201 
122 1 19.967 9.515 15.517 
125 1 18.38 10.953 14.201 
ITEM: TIMESTEP
10
ITEM: NUMBER OF ATOMS
129
ITEM: BOX BOUNDS xy xz yz pp pp pp
0.0000000000000000e+00 2.3654499999999999e+01 7.8845000000000001e+00
0.0000000000000000e+00 1.3658086643083999e+01 0.0000000000000000e+00
0.0000000000000000e+00 2.5747000000000000e+01 0.0000000000000000e+00
ITEM: ATOMS id type x y z 
18 1 10.4022 6.71803 2.63712 
28 1 5.10471 4.57649 12.8901 
31 1 9.44033 6.4851 0.449657 
62 1 9.1308 5.26592 12.3823 
91 1 9.43884 6.47275 11.8919 
92 1 10.6954 6.2231 10.9412 
106 1 10.3951 6.70359 9.70376 
127 1 10.6953 6.22597 1.38604 
4 1 4.46561 5.80057 13.2409 
5 1 3.14009 5.61777 14.2354 
43 1 4.5915 6.94806 15.4718 
52 1 9.13233 5.2698 25.7014 
66 1 4.44145 5.75655 24.8236 
67 1 5.11633 6.91404 23.8896 
88 1 5.09691 4.58323 25.1876 
107 1 3.15259 5.62858 23.8668 
116 1 4.58165 6.95602 22.6055 
117 1 5.09268 6.93703 14.1716 
11 1 11.2401 7.58349 3.4125 
12 1 10.5411 8.78083 4.08293 
14 1 8.95011 11.3918 0.366969 
15 1 10.2905 11.5068 1.36394 
16 1 8.37983 8.92817 0.694179 
19 1 10.4728 8.86807 5.56054 
29 1 10.9457 10.1291 3.32167 
32 1 8.71387 7.64741 1.29268 
35 1 12.0369 9.58037 2.59778 
45 1 9.22263 8.94099 3.26947 
47 1 12.7186 8.8288 0.551334 
49 1 11.3548 10.9407 0.675855 
51 1 8.83204 10.1889 2.59241 
53 1 11.2415 7.57664 8.89897 
54 1 10.5321 8.78574 8.24472 
56 1 8.95487 11.3875 11.9733 
57 1 8.29387 10.1813 11.0206 
58 1 11.3448 10.9375 11.6645 
60 1 12.329 8.08093 9.65975 
61 1 10.4731 8.86763 6.78028 
73 1 9.22075 8.94617 9.05936 
75 1 12.6853 8.82641 11.7817 
76 1 12.2794 10.0775 11.0079 
79 1 9.18947 7.68856 9.769 
80 1 8.32044 12.5526 12.3195 
89 1 10.944 10.1374 9.00551 
93 1 8.38231 8.92287 11.6524 
95 1 10.0616 11.0511 9.70482 
105 1 10.2963 11.5067 10.971 
109 1 8.6947 7.66078 11.0421 
110 1 12.0419 9.5823 9.73127 
114 1 8.84107 10.1928 9.73176 
119 1 8.30396 10.1779 1.32144 
120 1 12.3126 8.07835 2.67217 
123 1 12.2742 10.0564 1.32275 
124 1 9.18992 7.69549 2.55758 
128 1 10.0658 11.0527 2.6326 
6 1 5.00539 8.21141 13.5894 
13 1 9.61242 10.2447 25.0481 
17 1 9.15741 8.93595 25.1572 
30 1 9.91558 7.70821 25.0824 
34 1 11.2705 7.49956 25.1914 
36 1 8.31915 12.5543 25.7635 
46 1 11.6839 8.85258 25.0685 
50 1 11.0016 10.1281 25.1805 
55 1 9.62084 10.2508 13.0141 
59 1 11.0022 10.1315 12.9117 
74 1 11.6769 8.8587 13.0139 
78 1 11.2748 7.50228 12.8906 
90 1 9.92297 7.70936 13.0142 
94 1 9.13664 8.93791 12.9259 
101 1 5.06172 8.14491 24.5469 
33 1 11.7965 6.68129 0.640866 
77 1 11.7997 6.67011 11.6972 
41 1 17.8693 6.19197 13.5758 
68 1 17.8569 6.20907 24.553 
103 1 19.163 6.06265 22.6073 
126 1 19.1515 6.06524 15.4908 
3 1 19.6198 6.81107 12.2138 
7 1 19.9512 8.15019 12.2901 
10 1 15.1203 8.4532 12.8481 
22 1 19.2276 9.47868 12.2675 
26 1 18.0659 9.49984 12.0711 
38 1 17.4709 8.21939 12.2986 
42 1 18.2347 6.9878 12.2716 
44 1 20.0797 11.8532 12.834 
48 1 12.5852 7.54463 1.37005 
65 1 19.5652 6.83717 0.151231 
69 1 18.2057 6.97242 -0.00498087 
82 1 17.515 8.3118 0.166763 
86 1 17.9167 9.63051 0.0119074 
96 1 14.0422 8.68712 12.3605 
98 1 19.3206 9.44256 0.0480139 
102 1 20.0962 8.11996 0.06488 
113 1 12.5919 7.5373 10.9639 
129 2 17.8878 9.82713 11.0348 
1 1 17.8745 9.56794 16.2349 
2 1 18.7156 8.29713 16.9958 
8 1 18.8014 10.342 15.5269 
9 1 18.723 8.26371 18.4179 
20 1 14.0729 8.66699 25.7234 
21 1 18.2367 6.98008 16.2447 
23 1 19.8445 10.6063 13.2336 
24 1 20.5093 9.4533 14.1697 
25 1 17.3676 10.6511 13.7166 
27 1 17.121 7.51842 15.4697 
37 1 19.9551 8.20682 16.1622 
39 1 16.4872 8.27342 13.3956 
40 1 16.6284 9.62441 14.2254 
63 1 17.8612 9.55563 21.8442 
64 1 18.7119 8.30362 21.0851 
70 1 16.9182 9.09072 22.4812 
71 1 18.7173 8.26389 19.6556 
72 1 20.0661 11.9173 25.2725 
81 1 19.9261 8.21127 21.9424 
83 1 16.432 8.30573 24.6254 
84 1 16.9135 7.07077 23.8877 
85 1 17.467 10.5104 24.5515 
87 1 19.9571 9.45202 22.657 
97 1 18.2446 6.99007 21.8333 
99 1 19.7698 10.7427 24.774 
100 1 18.3968 10.9279 23.8364 
104 1 15.1078 8.45817 25.2405 
108 1 18.8041 10.3588 22.5761 
111 1 20.4299 9.482 23.9908 
112 1 17.1331 7.54849 22.6302 
115 1 16.6082 9.58043 23.827 
118 1 16.92 9.09007 15.6327 
121 1 16.9386 7.02305 14.2023 
122 1 19.9817 9.48428 15.4356 
125 1 18.3529 10.9753 14.2601 
ITEM: TIMESTEP
20
ITEM: NUMBER OF ATOMS
129
ITEM: BOX BOUNDS xy xz yz pp pp pp
0.0000000000000000e+00 2.3654499999999999e+01 7.8845000000000001e+00
0.0000000000000000e+00 1.3658086643083999e+01 0.0000000000000000e+00
0.0000000000000000e+00 2.5747000000000000e+01 0.0000000000000000e+00
ITEM: ATOMS id type x y z 
18 1 10.3842 6.74365 2.65062 
28 1 5.10237 4.58911 12.8922 
31 1 9.44488 6.52031 0.4543 
62 1 9.11682 5.26938 12.3848 
91 1 9.44379 6.51513 11.8792 
92 1 10.6779 6.23836 10.9545 
106 1 10.3897 6.75651 9.68151 
127 1 10.6803 6.23522 1.3737 
4 1 4.45435 5.81347 13.2675 
5 1 3.15669 5.63054 14.2157 
43 1 4.57649 6.96806 15.4713 
52 1 9.11719 5.26664 25.6961 
66 1 4.42353 5.80089 24.8103 
67 1 5.08658 6.9222 23.8986 
88 1 5.09145 4.59884 25.1847 
107 1 3.16915 5.64024 23.8874 
116 1 4.57606 6.96553 22.6156 
117 1 5.0783 6.94832 14.1811 
11 1 11.2378 7.56913 3.41294 
12 1 10.5236 8.79439 4.07038 
14 1 8.97982 11.3395 0.380744 
15 1 10.273 11.4917 1.33723 
16 1 8.36595 8.91538 0.68942 
19 1 10.4734 8.8659 5.56506 
29 1 10.9477 10.1199 3.32659 
32 1 8.70854 7.65052 1.28462 
35 1 12.0496 9.58478 2.60498 
45 1 9.22169 8.94546 3.25683 
47 1 12.7078 8.83792 0.525717 
49 1 11.3558 10.9356 0.660608 
51 1 8.83967 10.1747 2.59198 
53 1 11.2335 7.56647 8.9336 
54 1 10.5231 8.79076 8.26933 
56 1 8.98181 11.3332 11.9532 
57 1 8.33203 10.1788 11.0241 
58 1 11.3547 10.9358 11.6743 
60 1 12.3058 8.08062 9.6575 
61 1 10.473 8.86587 6.76974 
73 1 9.2239 8.94527 9.0788 
75 1 12.6762 8.83901 11.8002 
76 1 12.2858 10.0826 10.9989 
79 1 9.19503 7.68453 9.77957 
80 1 8.33003 12.5271 12.3153 
89 1 10.9476 10.1213 9.00901 
93 1 8.36759 8.91177 11.6414 
95 1 10.0569 11.0374 9.69571 
105 1 10.2727 11.4924 10.9962 
109 1 8.7056 7.65933 11.0455 
110 1 12.0493 9.58292 9.72613 
114 1 8.83991 10.1733 9.74406 
119 1 8.33194 10.1794 1.31367 
120 1 12.3145 8.08288 2.67277 
123 1 12.2849 10.0746 1.32768 
124 1 9.19091 7.68871 2.55859 
128 1 10.0551 11.0406 2.63922 
6 1 5.01311 8.21518 13.5814 
13 1 9.63064 10.2359 25.0775 
17 1 9.16687 8.93778 25.1554 
30 1 9.92097 7.71768 25.0936 
34 1 11.2605 7.52045 25.1988 
36 1 8.32823 12.5294 25.7681 
46 1 11.6677 8.84992 25.0843 
50 1 10.9763 10.1239 25.1813 
55 1 9.62908 10.2417 12.9892 
59 1 10.9835 10.1303 12.9123 
74 1 11.6637 8.85179 12.999 
78 1 11.2641 7.51993 12.8787 
90 1 9.92344 7.71589 12.9969 
94 1 9.1499 8.93349 12.9336 
101 1 5.05972 8.16864 24.5455 
33 1 11.7746 6.69307 0.633582 
77 1 11.7762 6.69233 11.698 
41 1 17.8536 6.18757 13.5712 
68 1 17.836 6.20381 24.5443 
103 1 19.152 6.09376 22.5767 
126 1 19.1494 6.09064 15.521 
3 1 19.623 6.80489 12.1989 
7 1 19.9728 8.1526 12.2965 
10 1 15.1172 8.45287 12.8481 
22 1 19.2596 9.48291 12.2651 
26 1 18.0693 9.5007 12.0329 
38 1 17.4692 8.19872 12.2847 
42 1 18.2304 6.98543 12.2712 
44 1 20.093 11.8488 12.8337 
48 1 12.5925 7.55452 1.3843 
65 1 19.5752 6.84825 0.129558 
69 1 18.1989 7.0064 0.0235103 
82 1 17.5322 8.29586 0.139259 
86 1 17.9488 9.59489 0.025681 
96 1 14.0394 8.6898 12.362 
98 1 19.3301 9.40939 0.0444804 
102 1 20.0826 8.14364 0.0548529 
113 1 12.5891 7.55014 10.946 
129 2 17.8819 9.83804 11.0226 
1 1 17.8592 9.56035 16.2313 
2 1 18.7117 8.27652 16.9741 
8 1 18.8218 10.3261 15.5287 
9 1 18.7238 8.26427 18.431 
20 1 14.044 8.67927 25.7343 
21 1 18.2375 7.0021 16.2196 
23 1 19.841 10.5755 13.2489 
24 1 20.5124 9.46956 14.1581 
25 1 17.341 10.6387 13.7547 
27 1 17.1361 7.51131 15.4877 
37 1 19.9603 8.19244 16.1407 
39 1 16.4907 8.28408 13.4104 
40 1 16.6537 9.61354 14.2456 
63 1 17.8589 9.55407 21.845 
64 1 18.7012 8.28776 21.1034 
70 1 16.9164 9.10152 22.4793 
71 1 18.7192 8.26533 19.6454 
72 1 20.0844 11.9311 25.2812 
81 1 19.9458 8.20089 21.9556 
83 1 16.4512 8.31292 24.6392 
84 1 16.9099 7.05699 23.8772 
85 1 17.4628 10.5019 24.5298 
87 1 19.9634 9.458 22.6777 
97 1 18.2418 6.99925 21.863 
99 1 19.7708 10.7146 24.778 
100 1 18.3957 10.9254 23.8413 
104 1 15.1264 8.44756 25.233 
108 1 18.8044 10.3464 22.5667 
111 1 20.4497 9.45196 23.9966 
112 1 17.1478 7.51427 22.6063 
115 1 16.623 9.57001 23.8177 
118 1 16.9269 9.08552 15.6076 
121 1 16.9294 7.01904 14.2241 
122 1 19.9799 9.48415 15.4368 
125 1 18.363 10.9746 14.2625 
ITEM: TIMESTEP
30
ITEM: NUMBER OF ATOMS
129
ITEM: BOX BOUNDS xy xz yz pp pp pp
0.0000000000000000e+00 2.3654499999999999e+01 7.8845000000000001e+00
0.0000000000000000e+00 1.3658086643083999e+01 0.0000000000000000e+00
0.0000000000000000e+00 2.5747000000000000e+01 0.0000000000000000e+00
ITEM: ATOMS id type x y z 
18 1 10.3625 6.75871 2.66933 
28 1 5.10535 4.60089 12.8945 
31 1 9.44453 6.55194 0.449505 
62 1 9.08132 5.26749 12.3962 
91 1 9.44159 6.55712 11.888 
92 1 10.6476 6.25907 10.9629 
106 1 10.3588 6.76006 9.66311 
127 1 10.646 6.26209 1.36866 
4 1 4.43161 5.841 13.2881 
5 1 3.16429 5.66143 14.2093 
43 1 4.56394 6.96595 15.475 
52 1 9.083 5.26638 25.6862 
66 1 4.40012 5.8482 24.8 
67 1 5.08688 6.94149 23.901 
88 1 5.09119 4.6118 25.1847 
107 1 3.16671 5.67637 23.8875 
116 1 4.56112 6.96789 22.6101 
117 1 5.08229 6.97702 14.1888 
11 1 11.2383 7.57532 3.41532 
12 1 10.518 8.79852 4.05858 
14 1 9.02891 11.2659 0.414431 
15 1 10.242 11.4455 1.3111 
16 1 8.32957 8.88279 0.662065 
19 1 10.4735 8.8614 5.56769 
29 1 10.9521 10.1072 3.32753 
32 1 8.66697 7.64953 1.28213 
35 1 12.0779 9.59738 2.61268 
45 1 9.20726 8.94015 3.25728 
47 1 12.6841 8.86103 0.52218 
49 1 11.3788 10.9382 0.651654 
51 1 8.85812 10.1733 2.60414 
53 1 11.2372 7.57647 8.91814 
54 1 10.519 8.79607 8.27686 
56 1 9.02279 11.2618 11.9229 
57 1 8.34752 10.1689 11.0376 
58 1 11.3833 10.9384 11.6836 
60 1 12.3177 8.08973 9.65236 
61 1 10.473 8.86141 6.76675 
73 1 9.20754 8.93999 9.07828 
75 1 12.6774 8.8588 11.8118 
76 1 12.3088 10.0909 10.9981 
79 1 9.17439 7.67196 9.77034 
80 1 8.33079 12.5104 12.315 
89 1 10.9506 10.1077 9.00555 
93 1 8.33126 8.88744 11.6673 
95 1 10.0514 11.0295 9.68664 
105 1 10.2502 11.4526 11.0177 
109 1 8.66771 7.64826 11.0523 
110 1 12.0793 9.59803 9.71938 
114 1 8.85648 10.1727 9.73664 
119 1 8.34953 10.1791 1.29264 
120 1 12.3152 8.09175 2.68232 
123 1 12.312 10.0891 1.33461 
124 1 9.17533 7.67059 2.56508 
128 1 10.0533 11.0335 2.64395 
6 1 5.03982 8.23016 13.5657 
13 1 9.61748 10.2429 25.0728 
17 1 9.13924 8.92382 25.1603 
30 1 9.91817 7.71864 25.0868 
34 1 11.2579 7.51922 25.2064 
36 1 8.33416 12.503 25.7718 
46 1 11.6689 8.85236 25.0898 
50 1 10.9898 10.1426 25.1834 
55 1 9.62016 10.2317 13.0003 
59 1 10.9969 10.1544 12.9087 
74 1 11.6672 8.85231 12.9917 
78 1 11.2557 7.52463 12.8718 
90 1 9.9148 7.71208 12.9915 
94 1 9.12615 8.9212 12.9355 
101 1 5.10017 8.19693 24.5541 
33 1 11.7628 6.71754 0.643213 
77 1 11.7662 6.71849 11.692 
41 1 17.8303 6.19099 13.5621 
68 1 17.8064 6.1971 24.5599 
103 1 19.1506 6.09485 22.5637 
126 1 19.1571 6.09467 15.536 
3 1 19.6268 6.7994 12.1828 
7 1 19.9899 8.12946 12.2881 
10 1 15.1158 8.45196 12.845 
22 1 19.2723 9.47673 12.233 
26 1 18.0932 9.4628 11.9645 
38 1 17.4711 8.19864 12.2726 
42 1 18.2408 6.98243 12.2734 
44 1 20.1264 11.8433 12.8323 
48 1 12.5905 7.5912 1.38321 
65 1 19.5639 6.86171 0.138806 
69 1 18.1898 6.98611 0.0298412 
82 1 17.5359 8.28629 0.113954 
86 1 17.9668 9.58762 0.0282747 
96 1 14.0355 8.69333 12.3668 
98 1 19.3468 9.41302 0.0498514 
102 1 20.1133 8.14813 0.0707879 
113 1 12.5858 7.59725 10.9539 
129 2 17.8647 9.86524 10.9857 
1 1 17.8529 9.54494 16.2403 
2 1 18.7092 8.27811 16.9727 
8 1 18.836 10.3183 15.5458 
9 1 18.7258 8.26504 18.4392 
20 1 14.0378 8.68826 25.7278 
21 1 18.2441 7.00597 16.2234 
23 1 19.8328 10.5466 13.2697 
24 1 20.541 9.49563 14.1456 
25 1 17.3253 10.6509 13.8251 
27 1 17.1085 7.5028 15.4983 
37 1 19.9686 8.19835 16.1411 
39 1 16.4979 8.28152 13.4 
40 1 16.6546 9.60094 14.2568 
63 1 17.8544 9.54126 21.8344 
64 1 18.7015 8.28063 21.115 
70 1 16.9168 9.08621 22.4644 
71 1 18.7232 8.26734 19.6515 
72 1 20.1216 11.9266 25.2877 
81 1 19.9607 8.20843 21.9546 
83 1 16.4739 8.30263 24.647 
84 1 16.8959 7.04658 23.8617 
85 1 17.4776 10.4755 24.5189 
87 1 19.9719 9.46796 22.6936 
97 1 18.244 7.00856 21.8628 
99 1 19.7731 10.7053 24.7821 
100 1 18.4054 10.9179 23.8459 
104 1 15.1248 8.44347 25.2415 
108 1 18.8153 10.3331 22.5628 
111 1 20.4832 9.4626 24.0074 
112 1 17.115 7.49461 22.5921 
115 1 16.6347 9.54657 23.8064 
118 1 16.9378 9.06377 15.611 
121 1 16.9137 7.00429 14.2341 
122 1 20.0042 9.48425 15.4363 
125 1 18.3777 10.9745 14.2639 
ITEM: TIMESTEP
40
ITEM: NUMBER OF ATOMS
129
ITEM: BOX BOUNDS xy xz yz pp pp pp
0.0000000000000000e+00 2.3654499999999999e+01 7.8845000000000001e+00
0.0000000000000000e+00 1.3658086643083999e+01 0.0000000000000000e+00
0.0000000000000000e+00 2.5747000000000000e+01 0.0000000000000000e+00
ITEM: ATOMS id type x y z 
18 1 10.3292 6.78637 2.68409 
28 1 5.10258 4.6546 12.9127 
31 1 9.38554 6.58686 0.421305 
62 1 9.0018 5.3097 12.408 
91 1 9.38351 6.58169 11.9119 
92 1 10.5944 6.32816 10.9557 
106 1 10.3353 6.79477 9.64322 
127 1 10.6 6.32977 1.3816 
4 1 4.44647 5.88696 13.2941 
5 1 3.12445 5.69659 14.2312 
43 1 4.58414 6.9856 15.4806 
52 1 9.00129 5.30526 25.6724 
66 1 4.39356 5.91321 24.8146 
67 1 5.10486 7.01724 23.9027 
88 1 5.07374 4.68 25.1762 
107 1 3.11198 5.71586 23.8874 
116 1 4.57382 6.98009 22.6242 
117 1 5.08358 7.02988 14.191 
11 1 11.2386 7.57539 3.40642 
12 1 10.5157 8.76784 4.06948 
14 1 9.02967 11.2064 0.386407 
15 1 10.321 11.3794 1.33576 
16 1 8.25883 8.86066 0.650815 
19 1 10.4711 8.85113 5.56373 
29 1 10.9524 10.0845 3.30524 
32 1 8.58792 7.618 1.28482 
35 1 12.1237 9.64707 2.6411 
45 1 9.20395 8.92682 3.25736 
47 1 12.6893 8.91643 0.511964 
49 1 11.4016 10.9348 0.66298 
51 1 8.84612 10.1587 2.57298 
53 1 11.2352 7.56422 8.9334 
54 1 10.5065 8.76597 8.26078 
56 1 9.01887 11.2018 11.9488 
57 1 8.33263 10.0908 11.0373 
58 1 11.4108 10.9315 11.6847 
60 1 12.3145 8.13003 9.64862 
61 1 10.472 8.85016 6.77054 
73 1 9.20866 8.92766 9.07862 
75 1 12.6869 8.91199 11.8229 
76 1 12.3872 10.111 11.0008 
79 1 9.09827 7.6709 9.77501 
80 1 8.35437 12.4226 12.3017 
89 1 10.9519 10.087 9.01995 
93 1 8.26466 8.85181 11.6915 
95 1 10.0682 11.0057 9.70179 
105 1 10.3058 11.4032 11.008 
109 1 8.58326 7.62332 11.0433 
110 1 12.1296 9.64372 9.69361 
114 1 8.84355 10.1492 9.75301 
119 1 8.32841 10.0719 1.30974 
120 1 12.314 8.13127 2.69748 
123 1 12.3775 10.1191 1.33568 
124 1 9.09865 7.66906 2.55952 
128 1 10.0761 11.0087 2.6225 
6 1 5.08809 8.272 13.5422 
13 1 9.63177 10.1913 25.054 
17 1 9.09889 8.90361 25.1447 
30 1 9.90425 7.72279 25.0746 
34 1 11.2527 7.52733 25.2041 
36 1 8.34047 12.4474 25.7757 
46 1 11.6545 8.86557 25.0914 
50 1 10.9995 10.1617 25.1724 
55 1 9.62798 10.2019 13.0082 
59 1 10.9986 10.1692 12.9233 
74 1 11.6486 8.86823 12.9882 
78 1 11.2533 7.51719 12.877 
90 1 9.90716 7.73469 13.014 
94 1 9.08606 8.8978 12.9435 
101 1 5.15998 8.22972 24.5893 
33 1 11.7292 6.7644 0.683069 
77 1 11.7443 6.7764 11.6396 
41 1 17.8138 6.21152 13.5673 
68 1 17.7721 6.2012 24.5537 
103 1 19.1421 6.11446 22.5719 
126 1 19.15 6.11076 15.5332 
3 1 19.6427 6.77345 12.1777 
7 1 20.0215 8.11233 12.2746 
10 1 15.1259 8.45006 12.8479 
22 1 19.3127 9.44956 12.1529 
26 1 18.1461 9.38698 11.8144 
38 1 17.4818 8.19714 12.2335 
42 1 18.2556 6.99386 12.2766 
44 1 20.2095 11.7888 12.8417 
48 1 12.5708 7.65759 1.39367 
65 1 19.5603 6.89674 0.125541 
69 1 18.1618 6.9701 0.0372751 
82 1 17.5899 8.26701 0.099126 
86 1 17.9963 9.57061 0.0224952 
96 1 14.0395 8.71847 12.3903 
98 1 19.3911 9.39255 0.0591159 
102 1 20.1725 8.16187 0.116218 
113 1 12.5607 7.66242 10.9481 
129 2 17.8165 9.933 10.899 
1 1 17.8661 9.51699 16.2499 
2 1 18.705 8.30377 16.9886 
8 1 18.8719 10.2947 15.5569 
9 1 18.7336 8.26992 18.437 
20 1 14.0327 8.71329 25.7112 
21 1 18.2414 7.01465 16.2216 
23 1 19.7803 10.5439 13.2944 
24 1 20.5904 9.51148 14.1402 
25 1 17.3121 10.6608 13.9502 
27 1 17.081 7.44821 15.5181 
37 1 19.9694 8.20474 16.1369 
39 1 16.5199 8.27093 13.3866 
40 1 16.6632 9.58093 14.2807 
63 1 17.8633 9.53371 21.8342 
64 1 18.7022 8.32413 21.1089 
70 1 16.9099 9.03099 22.434 
71 1 18.733 8.27159 19.655 
72 1 20.2183 11.9 25.3003 
81 1 19.9537 8.2087 21.9773 
83 1 16.4652 8.26947 24.6455 
84 1 16.8487 7.0091 23.8457 
85 1 17.5088 10.424 24.498 
87 1 20.0025 9.46239 22.7177 
97 1 18.2343 7.01433 21.8765 
99 1 19.8019 10.7144 24.7919 
100 1 18.4399 10.8814 23.831 
104 1 15.1179 8.44222 25.2531 
108 1 18.8132 10.2967 22.5695 
111 1 20.5581 9.49472 24.029 
112 1 17.0809 7.46165 22.5562 
115 1 16.6649 9.49145 23.7874 
118 1 16.9434 9.01126 15.6317 
121 1 16.8683 7.01125 14.2325 
122 1 20.0583 9.4869 15.4169 
125 1 18.4262 10.9312 14.2995 
ITEM: TIMESTEP
50
ITEM: NUMBER OF ATOMS
129
ITEM: BOX BOUNDS xy xz yz pp pp pp
0.0000000000000000e+00 2.3654499999999999e+01 7.8845000000000001e+00
0.0000000000000000e+00 1.3658086643083999e+01 0.0000000000000000e+00
0.0000000000000000e+00 2.5747000000000000e+01 0.0000000000000000e+00
ITEM: ATOMS id type x y z 
18 1 10.3237 6.79024 2.68297 
28 1 5.10513 4.65383 12.9131 
31 1 9.38426 6.58859 0.423886 
62 1 8.9958 5.30952 12.4099 
91 1 9.38381 6.58541 11.9088 
92 1 10.5917 6.33196 10.9578 
106 1 10.326 6.792 9.64962 
127 1 10.5954 6.33089 1.37919 
4 1 4.44027 5.88553 13.3 
5 1 3.12863 5.70191 14.2264 
43 1 4.58208 6.98504 15.4799 
52 1 8.99551 5.30594 25.6709 
66 1 4.39292 5.91455 24.8053 
67 1 5.10219 7.0144 23.9048 
88 1 5.07325 4.6839 25.1763 
107 1 3.12112 5.71539 23.887 
116 1 4.57253 6.98132 22.6268 
117 1 5.08679 7.03182 14.1923 
11 1 11.2381 7.57762 3.4079 
12 1 10.5127 8.76728 4.06787 
14 1 9.02461 11.1985 0.387769 
15 1 10.3018 11.3969 1.32259 
16 1 8.25815 8.85121 0.647091 
19 1 10.4712 8.84997 5.56447 
29 1 10.9543 10.0819 3.31372 
32 1 8.58361 7.61986 1.28343 
35 1 12.1319 9.6435 2.63834 
45 1 9.20242 8.92911 3.25389 
47 1 12.6896 8.9158 0.512635 
49 1 11.4219 10.9289 0.649371 
51 1 8.84634 10.1508 2.57761 
53 1 11.2378 7.57414 8.92795 
54 1 10.511 8.76835 8.2652 
56 1 9.02203 11.1962 11.9411 
57 1 8.33451 10.0931 11.0384 
58 1 11.4188 10.9258 11.6872 
60 1 12.3116 8.13703 9.63673 
61 1 10.4718 8.84913 6.7701 
73 1 9.20365 8.92828 9.07833 
75 1 12.6892 8.91775 11.8276 
76 1 12.3827 10.1174 10.997 
79 1 9.0975 7.66685 9.77358 
80 1 8.35285 12.422 12.3028 
89 1 10.9548 10.0816 9.01931 
93 1 8.26321 8.84781 11.6921 
95 1 10.0638 11.0008 9.69853 
105 1 10.3002 11.4029 11.0136 
109 1 8.58003 7.62345 11.0476 
110 1 12.1298 9.64363 9.6968 
114 1 8.84638 10.149 9.75526 
119 1 8.33406 10.0876 1.3005 
120 1 12.3127 8.13454 2.6994 
123 1 12.3814 10.1231 1.34083 
124 1 9.09879 7.66737 2.56156 
128 1 10.0643 11.0044 2.6395 
6 1 5.08939 8.27282 13.5422 
13 1 9.62366 10.1975 25.0644 
17 1 9.09517 8.90173 25.144 
30 1 9.90522 7.72158 25.0746 
34 1 11.2498 7.52865 25.2064 
36 1 8.3478 12.4304 25.7789 
46 1 11.6552 8.86319 25.0899 
50 1 11.0007 10.1616 25.1666 
55 1 9.62382 10.1982 13.0098 
59 1 11.0017 10.1685 12.9209 
74 1 11.6544 8.86482 12.9879 
78 1 11.2474 7.52636 12.8743 
90 1 9.90595 7.72704 13.0117 
94 1 9.08652 8.89814 12.9434 
101 1 5.16214 8.23288 24.5921 
33 1 11.7272 6.76965 0.679821 
77 1 11.73 6.77223 11.6517 
41 1 17.8133 6.21266 13.569 
68 1 17.7663 6.1995 24.5566 
103 1 19.1436 6.11773 22.5726 
126 1 19.1534 6.11067 15.5334 
3 1 19.6426 6.77865 12.1769 
7 1 20.023 8.11457 12.2717 
10 1 15.1269 8.45075 12.8481 
22 1 19.3119 9.44685 12.1523 
26 1 18.1477 9.39109 11.8046 
38 1 17.4828 8.19717 12.2356 
42 1 18.2573 6.99133 12.2761 
44 1 20.2148 11.7871 12.841 
48 1 12.5702 7.65717 1.39421 
65 1 19.5621 6.89737 0.132086 
69 1 18.1706 6.963 0.0383567 
82 1 17.5835 8.27589 0.102432 
86 1 18.0013 9.57357 0.0172792 
96 1 14.0421 8.71962 12.3923 
98 1 19.3903 9.39576 0.0578152 
102 1 20.1756 8.15902 0.110735 
113 1 12.5703 7.66299 10.9458 
129 2 17.815 9.93456 10.8989 
1 1 17.8666 9.51532 16.2526 
2 1 18.7065 8.2997 16.9849 
8 1 18.8756 10.2927 15.5638 
9 1 18.7341 8.27036 18.4395 
20 1 14.0345 8.71521 25.7109 
21 1 18.2407 7.01763 16.2229 
23 1 19.7806 10.536 13.2906 
24 1 20.5886 9.51264 14.1357 
25 1 17.3118 10.6568 13.9501 
27 1 17.0797 7.454 15.5182 
37 1 19.9699 8.206 16.137 
39 1 16.5219 8.27041 13.3801 
40 1 16.6618 9.58441 14.2819 
63 1 17.8551 9.52484 21.8273 
64 1 18.7028 8.3156 21.1127 
70 1 16.9098 9.03062 22.434 
71 1 18.7336 8.2727 19.6591 
72 1 20.2255 11.902 25.3027 
81 1 19.9571 8.21412 21.9768 
83 1 16.4641 8.26652 24.6432 
84 1 16.8443 7.01157 23.8401 
85 1 17.5102 10.4203 24.5011 
87 1 20.0075 9.45997 22.7239 
97 1 18.235 7.01855 21.8716 
99 1 19.8064 10.7134 24.7891 
100 1 18.4373 10.8843 23.8406 
104 1 15.121 8.44172 25.2504 
108 1 18.826 10.301 22.5655 
111 1 20.5541 9.49362 24.0318 
112 1 17.0772 7.45824 22.5585 
115 1 16.6649 9.48804 23.7868 
118 1 16.9434 9.00321 15.6344 
121 1 16.8699 7.01071 14.233 
122 1 20.0612 9.48439 15.4196 
125 1 18.4256 10.935 14.2976 
ITEM: TIMESTEP
60
ITEM: NUMBER OF ATOMS
129
ITEM: BOX BOUNDS xy xz yz pp pp pp
0.0000000000000000e+00 2.3654499999999999e+01 7.8845000000000001e+00
0.0000000000000000e+00 1.3658086643083999e+01 0.0000000000000000e+00
0.0000000000000000e+00 2.5747000000000000e+01 0.0000000000000000e+00
ITEM: ATOMS id type x y z 
18 1 10.3127 6.79876 2.68177 
28 1 5.11258 4.65482 12.9164 
31 1 9.37858 6.59026 0.42913 
62 1 8.97271 5.30926 12.4168 
91 1 9.37572 6.59183 11.9051 
92 1 10.5849 6.33771 10.963 
106 1 10.3124 6.79963 9.65197 
127 1 10.5829 6.33731 1.37063 
4 1 4.43293 5.88475 13.3121 
5 1 3.1386 5.70807 14.218 
43 1 4.58091 6.98215 15.4766 
52 1 8.97352 5.30823 25.665 
66 1 4.38939 5.92109 24.7934 
67 1 5.10738 7.01519 23.9105 
88 1 5.0774 4.6878 25.179 
107 1 3.12215 5.7179 23.8909 
116 1 4.57134 6.9867 22.6298 
117 1 5.09544 7.03706 14.192 
11 1 11.2364 7.58288 3.40834 
12 1 10.5129 8.77059 4.06239 
14 1 9.02713 11.1822 0.405497 
15 1 10.3018 11.3986 1.31971 
16 1 8.2524 8.84512 0.641815 
19 1 10.471 8.84601 5.56563 
29 1 10.9526 10.0759 3.31739 
32 1 8.56729 7.61863 1.28537 
35 1 12.1392 9.64555 2.63862 
45 1 9.19785 8.92695 3.25389 
47 1 12.6929 8.91915 0.51602 
49 1 11.4271 10.9237 0.639738 
51 1 8.84733 10.1472 2.57542 
53 1 11.2339 7.58315 8.92601 
54 1 10.5142 8.76951 8.27215 
56 1 9.03155 11.1827 11.9257 
57 1 8.3281 10.0911 11.0432 
58 1 11.4282 10.924 11.6951 
60 1 12.312 8.14107 9.63278 
61 1 10.4713 8.84568 6.76867 
73 1 9.19646 8.92618 9.07946 
75 1 12.6988 8.91823 11.8243 
76 1 12.3836 10.1272 10.9922 
79 1 9.08977 7.66164 9.76985 
80 1 8.34439 12.4247 12.308 
89 1 10.9531 10.0755 9.01768 
93 1 8.25484 8.84175 11.6956 
95 1 10.0577 10.9935 9.69756 
105 1 10.2923 11.3977 11.0214 
109 1 8.56622 7.62016 11.0498 
110 1 12.1383 9.64866 9.69896 
114 1 8.84892 10.145 9.75567 
119 1 8.32864 10.0858 1.29755 
120 1 12.3103 8.14098 2.70263 
123 1 12.3848 10.1319 1.34516 
124 1 9.08969 7.66178 2.56295 
128 1 10.0564 10.994 2.63698 
6 1 5.09335 8.27113 13.5407 
13 1 9.62935 10.1822 25.058 
17 1 9.08691 8.89762 25.1404 
30 1 9.90469 7.72132 25.0718 
34 1 11.2444 7.533 25.206 
36 1 8.33754 12.4365 25.7723 
46 1 11.655 8.8632 25.0882 
50 1 11.0018 10.1617 25.1662 
55 1 9.62311 10.187 13.0148 
59 1 11.0026 10.1632 12.9192 
74 1 11.6526 8.86317 12.9932 
78 1 11.2444 7.53311 12.8743 
90 1 9.90479 7.7239 13.0127 
94 1 9.0826 8.89738 12.9459 
101 1 5.17403 8.23578 24.5972 
33 1 11.722 6.77825 0.679472 
77 1 11.7226 6.781 11.6544 
41 1 17.808 6.21985 13.5683 
68 1 17.7627 6.20233 24.5602 
103 1 19.1494 6.125 22.5745 
126 1 19.1606 6.11563 15.5394 
3 1 19.6481 6.78659 12.1756 
7 1 20.0278 8.11582 12.2641 
10 1 15.133 8.45308 12.8494 
22 1 19.3078 9.44361 12.1431 
26 1 18.1495 9.39631 11.7773 
38 1 17.4925 8.2012 12.2329 
42 1 18.2635 6.99032 12.2743 
44 1 20.2338 11.7784 12.8385 
48 1 12.5668 7.664 1.39512 
65 1 19.566 6.89929 0.144109 
69 1 18.182 6.9652 0.0325262 
82 1 17.5792 8.27885 0.10043 
86 1 18.0086 9.57308 0.018389 
96 1 14.0464 8.72325 12.3953 
98 1 19.3909 9.39881 0.0642689 
102 1 20.1764 8.15579 0.109343 
113 1 12.5681 7.67079 10.9483 
129 2 17.8072 9.94435 10.8926 
1 1 17.8678 9.51192 16.256 
2 1 18.7096 8.2913 16.9828 
8 1 18.878 10.2886 15.568 
9 1 18.7362 8.27205 18.4433 
20 1 14.0398 8.72032 25.711 
21 1 18.2444 7.01944 16.2243 
23 1 19.777 10.5201 13.2808 
24 1 20.5838 9.51413 14.1282 
25 1 17.3183 10.6438 13.9548 
27 1 17.0729 7.46134 15.5197 
37 1 19.9758 8.20609 16.139 
39 1 16.5285 8.27379 13.3704 
40 1 16.6579 9.58508 14.2891 
63 1 17.8545 9.52191 21.8261 
64 1 18.7037 8.30819 21.1211 
70 1 16.9113 9.02583 22.4322 
71 1 18.7361 8.27572 19.6594 
72 1 20.2507 11.9005 25.3075 
81 1 19.964 8.21496 21.9782 
83 1 16.4679 8.25899 24.6447 
84 1 16.8371 7.00389 23.8335 
85 1 17.5116 10.4151 24.4949 
87 1 20.0115 9.46294 22.7276 
97 1 18.2353 7.02228 21.8668 
99 1 19.8178 10.7148 24.7854 
100 1 18.4436 10.8832 23.8455 
104 1 15.1216 8.44248 25.2455 
108 1 18.8337 10.2959 22.5653 
111 1 20.5609 9.50105 24.0385 
112 1 17.0696 7.45385 22.5585 
115 1 16.6661 9.47874 23.7873 
118 1 16.9458 8.99521 15.6379 
121 1 16.8727 7.0119 14.2309 
122 1 20.0684 9.48425 15.4246 
125 1 18.4308 10.9365 14.3041 
ITEM: TIMESTEP
70
ITEM: NUMBER OF ATOMS
129
ITEM: BOX BOUNDS xy xz yz pp pp pp
0.0000000000000000e+00 2.3654499999999999e+01 7.8845000000000001e+00
0.0000000000000000e+00 1.3658086643083999e+01 0.0000000000000000e+00
0.0000000000000000e+00 2.5747000000000000e+01 0.0000000000000000e+00
ITEM: ATOMS id type x y z 
18 1 10.3121 6.80032 2.68179 
28 1 5.11374 4.65539 12.9172 
31 1 9.37573 6.59095 0.428862 
62 1 8.96893 5.31115 12.4173 
91 1 9.37463 6.59236 11.9052 
92 1 10.5824 6.33979 10.9639 
106 1 10.3116 6.80032 9.65309 
127 1 10.5818 6.33819 1.37078 
4 1 4.43337 5.88541 13.3125 
5 1 3.13862 5.70902 14.2188 
43 1 4.5823 6.98269 15.4764 
52 1 8.96939 5.30917 25.6641 
66 1 4.38929 5.92236 24.7942 
67 1 5.10861 7.01567 23.9116 
88 1 5.07784 4.68921 25.1792 
107 1 3.12279 5.71785 23.8904 
116 1 4.57316 6.9863 22.6311 
117 1 5.09653 7.0373 14.1916 
11 1 11.2344 7.58238 3.40789 
12 1 10.5124 8.77091 4.06212 
14 1 9.03102 11.1812 0.406633 
15 1 10.2941 11.3953 1.31436 
16 1 8.25125 8.84133 0.640262 
19 1 10.4709 8.84534 5.56589 
29 1 10.9523 10.0749 3.3165 
32 1 8.5649 7.61859 1.2847 
35 1 12.1394 9.64904 2.63864 
45 1 9.19743 8.92627 3.25418 
47 1 12.693 8.92109 0.516619 
49 1 11.4285 10.9261 0.641906 
51 1 8.84683 10.1457 2.57762 
53 1 11.2353 7.58347 8.9276 
54 1 10.5136 8.76954 8.2717 
56 1 9.03131 11.1808 11.9259 
57 1 8.32755 10.0907 11.0439 