ITEM: TIMESTEP
0
ITEM: NUMBER OF ATOMS
161
ITEM: BOX BOUNDS xy xz yz pp pp pp
-6.7755000000000001e+00 1.3552000000000000e+01 -6.7755000000000001e+00
0.0000000000000000e+00 1.1735510246683001e+01 0.0000000000000000e+00
0.0000000000000000e+00 2.2149999999999999e+01 0.0000000000000000e+00
ITEM: ATOMS id type x y z 
8 1 -2.486 5.297 9.849 
87 1 3.001 4.231 10.696 
90 1 2.733 5.481 9.824 
109 1 -2.486 5.297 0.765 
158 1 2.733 5.481 0.79 
11 1 4.24 4.139 20.131 
14 1 3.031 4.094 19.728 
18 1 1.299 5.827 18.554 
33 1 2.266 4.151 20.924 
43 1 4.343 3.96 21.647 
47 1 3.32 5.732 17.88 
52 1 4.24 4.139 12.633 
76 1 2.552 4.924 14.209 
85 1 4.343 3.96 11.117 
89 1 3.32 5.732 14.883 
91 1 1.036 5.037 11.84 
102 1 3.031 4.094 13.035 
105 1 1.299 5.827 14.209 
114 1 2.266 4.151 11.84 
150 1 2.552 4.924 18.554 
156 1 3.001 4.231 22.068 
159 1 1.036 5.037 20.924 
5 1 -5.049 10.63 8.653 
9 1 -3.317 8.897 7.479 
19 1 -1.707 7.414 10.572 
21 1 -2.66 8.795 10.993 
23 1 -3.31 7.532 6.805 
25 1 -4.284 10.573 9.849 
32 1 1.503 6.367 0.79 
36 1 -1.869 7.426 9.056 
38 1 -2.209 6.086 8.653 
54 1 0.3 8.576 10.696 
57 1 1.291 8.001 9.824 
60 1 -1.707 7.414 0.042 
65 1 -3.31 7.532 3.808 
78 1 -1.869 7.426 1.558 
80 1 -2.566 8.842 1.961 
84 1 -4.57 9.799 3.135 
99 1 -3.054 9.687 0.765 
100 1 -2.96 6.142 3.135 
107 1 -5.049 10.63 1.961 
110 1 -3.317 8.897 3.135 
111 1 0.642 5.929 10.696 
113 1 1.503 6.367 9.824 
119 1 -4.284 10.573 0.765 
127 1 -2.209 6.086 1.961 
131 1 -2.318 6.148 10.993 
138 1 1.291 8.001 0.79 
142 1 -2.566 8.842 8.653 
145 1 -4.57 9.799 7.479 
151 1 -5.019 10.493 10.993 
154 1 -3.054 9.687 9.849 
155 1 -2.96 6.142 7.479 
161 2 1.291 8.001 8.724 
12 1 2.53 7.1 17.202 
17 1 0.468 9.427 20.924 
24 1 -3.52 8.357 11.865 
27 1 -0.31 7.31 21.647 
29 1 0.642 5.929 22.068 
31 1 1.292 7.192 17.88 
44 1 -0.148 7.298 20.131 
46 1 0.191 8.638 19.728 
51 1 -0.31 7.31 11.117 
53 1 2.53 7.1 15.561 
56 1 1.292 7.192 14.883 
63 1 -2.318 6.148 21.771 
66 1 -3.309 6.723 20.899 
70 1 -0.148 7.298 12.633 
72 1 0.548 5.882 13.035 
92 1 0.942 8.582 14.209 
95 1 -5.019 10.493 21.771 
98 1 -4.751 9.243 20.899 
104 1 0.468 9.427 11.84 
116 1 -2.66 8.795 21.771 
118 1 -3.52 8.357 20.899 
122 1 0.191 8.638 13.035 
133 1 -3.309 6.723 11.865 
136 1 0.3 8.576 22.068 
147 1 0.548 5.882 19.728 
153 1 -4.751 9.243 11.865 
160 1 0.942 8.582 18.554 
1 1 7.976 4.694 10.572 
4 1 9.274 4.77 10.993 
20 1 8.034 4.861 9.056 
42 1 9.55 5.41 7.479 
67 1 10.043 4.578 0.765 
77 1 7.976 4.694 0.042 
94 1 8.035 4.861 1.558 
96 1 9.278 4.635 1.961 
121 1 4.688 5.417 10.696 
130 1 9.55 5.41 3.135 
134 1 10.043 4.578 9.849 
152 1 9.278 4.635 8.653 
45 1 4.688 5.417 22.068 
55 1 4.788 5.329 13.035 
106 1 9.274 4.77 21.771 
137 1 4.788 5.329 19.728 
2 1 7.294 10.585 9.056 
3 1 9.004 7.624 6.127 
6 1 8.556 6.347 6.805 
16 1 2.314 8.72 0.79 
22 1 7.166 6.156 8.653 
26 1 7.226 8.565 7.479 
35 1 7.191 10.764 10.572 
37 1 6.846 9.307 10.993 
39 1 8.214 8.992 6.805 
41 1 6.677 7.002 9.849 
48 1 3.775 6.213 0.79 
61 1 7.294 10.585 1.558 
62 1 9.004 7.624 4.487 
64 1 6.747 9.395 1.961 
68 1 7.437 6.931 3.135 
71 1 4.29 8.493 10.696 
74 1 3.567 7.818 9.824 
81 1 8.556 6.347 3.808 
83 1 6.47 8.606 0.765 
93 1 7.191 10.764 0.042 
97 1 8.214 8.992 3.808 
101 1 2.261 9.954 10.696 
103 1 2.314 8.72 9.824 
117 1 7.166 6.156 1.961 
120 1 7.226 8.565 3.135 
123 1 3.775 6.213 9.824 
129 1 6.677 7.002 0.765 
132 1 6.747 9.395 8.653 
135 1 7.437 6.931 7.479 
141 1 7.244 6.231 10.993 
144 1 6.47 8.606 9.849 
148 1 3.567 7.818 0.79 
7 1 9.22 6.004 11.865 
10 1 3.558 10.029 21.647 
13 1 2.261 9.954 22.068 
15 1 2.978 8.376 17.88 
28 1 3.5 9.862 20.131 
30 1 4.369 8.568 19.728 
34 1 4.308 6.159 18.554 
40 1 7.76 8.511 11.865 
49 1 4.857 7.722 20.924 
50 1 1.984 9.314 18.554 
58 1 1.491 10.146 11.84 
59 1 4.097 7.793 14.209 
69 1 3.558 10.029 11.117 
73 1 2.978 8.376 14.883 
75 1 5.064 6.118 11.84 
79 1 7.244 6.231 21.771 
82 1 7.967 6.906 20.899 
86 1 3.5 9.862 12.633 
88 1 2.256 10.089 13.035 
108 1 9.22 6.004 20.899 
112 1 4.369 8.568 13.035 
115 1 4.308 6.159 14.209 
124 1 4.857 7.722 11.84 
125 1 1.984 9.314 14.209 
126 1 6.846 9.307 21.771 
128 1 7.76 8.511 20.899 
139 1 1.491 10.146 20.924 
140 1 4.097 7.793 18.554 
143 1 7.967 6.906 11.865 
146 1 4.29 8.493 22.068 
149 1 5.064 6.118 20.924 
157 1 2.256 10.089 19.728 
ITEM: TIMESTEP
10
ITEM: NUMBER OF ATOMS
161
ITEM: BOX BOUNDS xy xz yz pp pp pp
-6.7755000000000001e+00 1.3552000000000000e+01 -6.7755000000000001e+00
0.0000000000000000e+00 1.1735510246683001e+01 0.0000000000000000e+00
0.0000000000000000e+00 2.2149999999999999e+01 0.0000000000000000e+00
ITEM: ATOMS id type x y z 
8 1 -2.4187 5.34731 9.84707 
87 1 2.98042 4.24817 10.6346 
90 1 2.65283 5.51759 9.78309 
109 1 -2.41549 5.35579 0.764541 
158 1 2.65313 5.45464 0.821429 
11 1 4.28605 4.17807 20.1591 
14 1 2.92712 4.11576 19.698 
18 1 1.33679 5.86556 18.568 
33 1 2.15773 4.20781 20.9091 
43 1 4.31497 4.13669 21.5928 
47 1 3.24809 5.79994 17.8341 
52 1 4.2944 4.16743 12.621 
76 1 2.43257 4.92722 14.1785 
85 1 4.31391 4.12856 11.1645 
89 1 3.2736 5.79291 14.9374 
91 1 1.00748 5.03989 11.8736 
102 1 2.91672 4.13104 13.0792 
105 1 1.31865 5.85961 14.1662 
114 1 2.15076 4.20315 11.8691 
150 1 2.4417 4.90924 18.5745 
156 1 2.98275 4.25847 22.1145 
159 1 1.00062 5.05356 20.9163 
5 1 -4.95038 10.6025 8.62157 
9 1 -3.33657 8.87237 7.50941 
19 1 -1.7478 7.4937 10.5468 
21 1 -2.61554 8.7661 10.8822 
23 1 -3.31198 7.54446 6.83089 
25 1 -4.16786 10.5146 9.8223 
32 1 1.58863 6.35001 0.77692 
36 1 -1.89836 7.51764 9.06769 
38 1 -2.14564 6.18718 8.63965 
54 1 0.25838 8.54694 10.7167 
57 1 1.35163 7.97408 9.72633 
60 1 -1.74524 7.47933 0.0741371 
65 1 -3.31733 7.54944 3.77269 
78 1 -1.9035 7.51002 1.54116 
80 1 -2.5401 8.79069 1.82839 
84 1 -4.45842 9.80452 3.10488 
99 1 -3.02305 9.66402 0.779895 
100 1 -2.93016 6.25185 3.17862 
107 1 -4.94188 10.5927 1.99343 
110 1 -3.33375 8.86496 3.09925 
111 1 0.594882 5.95552 10.8064 
113 1 1.54278 6.29983 9.86896 
119 1 -4.17212 10.5107 0.788565 
127 1 -2.14944 6.19774 1.97254 
131 1 -2.30975 6.1805 11.0277 
138 1 1.34352 7.98359 0.818231 
142 1 -2.53772 8.79371 8.76993 
145 1 -4.45764 9.81678 7.51001 
151 1 -4.98833 10.4731 11.0482 
154 1 -3.01662 9.66193 9.83601 
155 1 -2.93235 6.24169 7.42945 
161 2 1.23651 8.00346 8.6402 
12 1 2.5707 7.072 17.1431 
17 1 0.398216 9.36745 20.9307 
24 1 -3.59405 8.37801 11.8439 
27 1 -0.264854 7.24678 21.625 
29 1 0.590823 5.9615 21.9454 
31 1 1.30566 7.18462 17.9129 
44 1 -0.122163 7.21005 20.149 
46 1 0.134801 8.53461 19.713 
51 1 -0.268391 7.2883 11.1297 
53 1 2.57321 7.06783 15.6172 
56 1 1.29815 7.16213 14.8435 
63 1 -2.31533 6.18764 21.7434 
66 1 -3.36454 6.73324 20.8687 
70 1 -0.121355 7.21476 12.6223 
72 1 0.530472 5.93043 12.926 
92 1 0.904725 8.46882 14.2549 
95 1 -4.99463 10.4624 21.7244 
98 1 -4.70416 9.27017 20.8654 
104 1 0.382364 9.37066 11.8295 
116 1 -2.59441 8.77972 21.9268 
118 1 -3.60867 8.36665 20.8984 
122 1 0.130279 8.52161 13.0625 
133 1 -3.37268 6.75227 11.8997 
136 1 0.297806 8.53023 22.0908 
147 1 0.517007 5.93217 19.8451 
153 1 -4.66098 9.25424 11.9018 
160 1 0.91023 8.4634 18.5071 
1 1 7.89233 4.90928 10.5411 
4 1 9.17961 4.78112 11.0371 
20 1 7.88 4.93731 9.06712 
42 1 9.46591 5.43366 7.43088 
67 1 9.99539 4.54355 0.761371 
77 1 7.89272 4.90962 0.0745716 
94 1 7.88457 4.9361 1.54753 
96 1 9.21918 4.63864 2.00133 
121 1 4.68544 5.45477 10.6817 
130 1 9.46801 5.43136 3.18249 
134 1 9.99651 4.54543 9.85628 
152 1 9.22279 4.63728 8.6072 
45 1 4.68745 5.41262 22.0298 
55 1 4.81422 5.49075 13.055 
106 1 9.17773 4.78215 21.7248 
137 1 4.819 5.47316 19.7075 
2 1 7.2569 10.5377 9.07759 
3 1 8.95716 7.65222 6.0635 
6 1 8.53202 6.38841 6.82914 
16 1 2.34815 8.69362 0.838299 
22 1 7.15529 6.19665 8.72052 
26 1 7.1672 8.42913 7.55254 
35 1 7.20502 10.6024 10.5142 
37 1 6.83644 9.30327 10.9569 
39 1 8.26632 8.92777 6.74581 
41 1 6.74166 7.01616 9.83255 
48 1 3.73624 6.35671 0.833857 
61 1 7.25498 10.5451 1.54316 
62 1 8.95505 7.65839 4.54181 
64 1 6.72103 9.25021 1.98462 
68 1 7.41733 6.9659 3.06434 
71 1 4.29712 8.53157 10.788 
74 1 3.62319 7.76765 9.85259 
81 1 8.52909 6.39786 3.78066 
83 1 6.53704 8.45511 0.784492 
93 1 7.21275 10.5958 0.088651 
97 1 8.25783 8.92466 3.85478 
101 1 2.35641 9.92771 10.6337 
103 1 2.38985 8.68857 9.83865 
117 1 7.15632 6.20047 1.89786 
120 1 7.17379 8.42545 3.06399 
123 1 3.80062 6.34146 9.82201 
129 1 6.74212 7.01566 0.782833 
132 1 6.71726 9.25519 8.63284 
135 1 7.41005 6.96093 7.55147 
141 1 7.24403 6.18932 10.913 
144 1 6.53444 8.45473 9.82599 
148 1 3.61846 7.80086 0.765564 
7 1 9.18245 6.03369 11.9142 
10 1 3.64 9.81369 21.6143 
13 1 2.35417 9.94312 22.1089 
15 1 3.00837 8.32465 17.904 
28 1 3.64856 9.78803 20.1429 
30 1 4.37811 8.52357 19.7905 
34 1 4.36022 6.29981 18.6245 
40 1 7.78985 8.36188 11.9099 
49 1 4.79258 7.7085 20.9059 
50 1 2.06343 9.2989 18.5061 
58 1 1.5404 10.1856 11.8387 
59 1 4.12213 7.76073 14.1324 
69 1 3.66106 9.80427 11.1667 
73 1 3.01081 8.32589 14.8582 
75 1 4.99509 6.28165 11.8797 
79 1 7.24239 6.18874 21.8535 
82 1 7.91406 6.94018 20.9195 
86 1 3.65397 9.7804 12.6188 
88 1 2.3261 10.09 13.0671 
108 1 9.18507 6.03009 20.8511 
112 1 4.37362 8.53223 12.9702 
115 1 4.36412 6.29502 14.1301 
124 1 4.79777 7.71014 11.8651 
125 1 2.06731 9.29653 14.2611 
126 1 6.85134 9.2992 21.8033 
128 1 7.81303 8.36615 20.8679 
139 1 1.54415 10.1786 20.9268 
140 1 4.11967 7.76022 18.6274 
143 1 7.91751 6.92055 11.8409 
146 1 4.29069 8.53509 21.988 
149 1 4.99951 6.26951 20.9046 
157 1 2.31532 10.087 19.6947 
ITEM: TIMESTEP
20
ITEM: NUMBER OF ATOMS
161
ITEM: BOX BOUNDS xy xz yz pp pp pp
-6.7755000000000001e+00 1.3552000000000000e+01 -6.7755000000000001e+00
0.0000000000000000e+00 1.1735510246683001e+01 0.0000000000000000e+00
0.0000000000000000e+00 2.2149999999999999e+01 0.0000000000000000e+00
ITEM: ATOMS id type x y z 
8 1 -2.41592 5.37371 9.84767 
87 1 2.97669 4.27945 10.6466 
90 1 2.65849 5.50631 9.79297 
109 1 -2.4173 5.37219 0.767996 
158 1 2.65434 5.46324 0.824883 
11 1 4.28706 4.19339 20.1337 
14 1 2.91114 4.13358 19.6892 
18 1 1.32064 5.86062 18.5936 
33 1 2.13805 4.21588 20.9059 
43 1 4.3117 4.15476 21.5892 
47 1 3.26105 5.7967 17.837 
52 1 4.28437 4.19338 12.6215 
76 1 2.43954 4.93242 14.179 
85 1 4.29739 4.14775 11.1733 
89 1 3.26341 5.79745 14.9291 
91 1 0.99705 5.04961 11.8688 
102 1 2.91688 4.13392 13.0767 
105 1 1.31817 5.85933 14.1656 
114 1 2.13978 4.21284 11.8521 
150 1 2.437 4.92933 18.5857 
156 1 2.97213 4.26125 22.1182 
159 1 0.99339 5.06038 20.9118 
5 1 -4.93072 10.5903 8.61274 
9 1 -3.33617 8.86407 7.51899 
19 1 -1.75509 7.48709 10.5503 
21 1 -2.62339 8.76345 10.8754 
23 1 -3.31114 7.55243 6.84386 
25 1 -4.15553 10.5082 9.83097 
32 1 1.59623 6.36048 0.758303 
36 1 -1.88873 7.51825 9.06529 
38 1 -2.15785 6.20207 8.63656 
54 1 0.276364 8.54121 10.7095 
57 1 1.35811 7.97835 9.72658 
60 1 -1.75182 7.4842 0.06383 
65 1 -3.31129 7.55295 3.76819 
78 1 -1.88712 7.5188 1.54605 
80 1 -2.5442 8.79364 1.841 
84 1 -4.45466 9.79025 3.10294 
99 1 -3.01176 9.66347 0.778157 
100 1 -2.93425 6.26755 3.17468 
107 1 -4.93073 10.5867 1.99987 
110 1 -3.3375 8.8628 3.09302 
111 1 0.598087 5.94566 10.811 
113 1 1.53655 6.30619 9.8771 
119 1 -4.15548 10.5091 0.783288 
127 1 -2.15768 6.20081 1.9768 
131 1 -2.32472 6.20151 11.0201 
138 1 1.35781 7.97371 0.813464 
142 1 -2.54621 8.79325 8.7734 
145 1 -4.45537 9.78956 7.50939 
151 1 -4.98876 10.4592 11.0395 
154 1 -3.01078 9.66307 9.83617 
155 1 -2.93298 6.26638 7.4384 
161 2 1.22559 8.00414 8.62826 
12 1 2.56731 7.07386 17.1475 
17 1 0.399154 9.35147 20.9211 
24 1 -3.6125 8.36531 11.833 
27 1 -0.266174 7.23911 21.6263 
29 1 0.607283 5.96302 21.9495 
31 1 1.29371 7.17253 17.9179 
44 1 -0.129678 7.20279 20.143 
46 1 0.140861 8.52079 19.7133 
51 1 -0.272087 7.27996 11.1316 
53 1 2.56724 7.07089 15.6143 
56 1 1.29288 7.16978 14.8443 
63 1 -2.32461 6.20016 21.744 
66 1 -3.37558 6.74985 20.8763 
70 1 -0.127954 7.2041 12.6246 
72 1 0.528949 5.92925 12.9154 
92 1 0.916061 8.45683 14.2524 
95 1 -4.99127 10.4627 21.7233 
98 1 -4.67456 9.26294 20.8632 
104 1 0.383197 9.36128 11.8398 
116 1 -2.62486 8.76161 21.8864 
118 1 -3.61418 8.366 20.9353 
122 1 0.134427 8.50859 13.0639 
133 1 -3.3737 6.75007 11.8861 
136 1 0.30621 8.52342 22.0942 
147 1 0.530229 5.93008 19.8466 
153 1 -4.67328 9.26204 11.899 
160 1 0.916129 8.45768 18.5147 
1 1 7.87185 4.91139 10.5323 
4 1 9.17435 4.79461 11.0247 
20 1 7.87795 4.94256 9.06766 
42 1 9.46477 5.44062 7.43802 
67 1 9.98008 4.55282 0.761499 
77 1 7.87124 4.91208 0.0820647 
94 1 7.87774 4.94231 1.54522 
96 1 9.19973 4.65538 1.99918 
121 1 4.68243 5.47931 10.6737 
130 1 9.46623 5.44076 3.17558 
134 1 9.97877 4.55358 9.85148 
152 1 9.19903 4.65599 8.61537 
45 1 4.67513 5.45395 22.0497 
55 1 4.81373 5.49477 13.0583 
106 1 9.1739 4.79383 21.7391 
137 1 4.81392 5.49323 19.7034 
2 1 7.25266 10.5205 9.06346 
3 1 8.96674 7.65207 6.0743 
6 1 8.52147 6.39173 6.82236 
16 1 2.34977 8.6895 0.842273 
22 1 7.1461 6.1937 8.71993 
26 1 7.18667 8.42768 7.549 
35 1 7.21509 10.5787 10.521 
37 1 6.8619 9.2705 10.9708 
39 1 8.27022 8.92615 6.76024 
41 1 6.73798 7.00918 9.83335 
48 1 3.7127 6.35494 0.82134 
61 1 7.24899 10.5291 1.55421 
62 1 8.96506 7.65565 4.53792 
64 1 6.72168 9.23265 1.98691 
68 1 7.40236 6.97001 3.05909 
71 1 4.30237 8.53035 10.7806 
74 1 3.61278 7.76978 9.84389 
81 1 8.52315 6.39144 3.79258 
83 1 6.54038 8.44167 0.787019 
93 1 7.21868 10.5736 0.0970263 
97 1 8.2707 8.92591 3.85295 
101 1 2.36514 9.90766 10.6497 
103 1 2.38741 8.66945 9.84291 
117 1 7.14411 6.19343 1.89556 
120 1 7.18399 8.425 3.06401 
123 1 3.79497 6.3389 9.82427 
129 1 6.73802 7.00901 0.779723 
132 1 6.72047 9.23258 8.6272 
135 1 7.40233 6.96865 7.5559 
141 1 7.23522 6.19505 10.9148 
144 1 6.53831 8.44495 9.82601 
148 1 3.60586 7.78783 0.777566 
7 1 9.18458 6.03535 11.9168 
10 1 3.66196 9.81117 21.6073 
13 1 2.3599 9.93077 22.0997 
15 1 3.0119 8.33473 17.8967 
28 1 3.65745 9.78128 20.1439 
30 1 4.38978 8.52995 19.7935 
34 1 4.34496 6.29649 18.6245 
40 1 7.82039 8.36716 11.8946 
49 1 4.79632 7.71508 20.9086 
50 1 2.0679 9.28371 18.5134 
58 1 1.55602 10.1745 11.8408 
59 1 4.13459 7.75606 14.1331 
69 1 3.6845 9.80191 11.1634 
73 1 3.00912 8.33537 14.8652 
75 1 4.99405 6.28984 11.8769 
79 1 7.23489 6.19637 21.8486 
82 1 7.92786 6.93521 20.9101 
86 1 3.66362 9.78376 12.6243 
88 1 2.33496 10.0672 13.0697 
108 1 9.18416 6.03399 20.8471 
112 1 4.3888 8.53673 12.9751 
115 1 4.34589 6.29721 14.1397 
124 1 4.80984 7.71518 11.8632 
125 1 2.0705 9.28439 14.2469 
126 1 6.8616 9.26881 21.7903 
128 1 7.82666 8.36687 20.8735 
139 1 1.55503 10.1714 20.927 
140 1 4.13102 7.75373 18.6303 
143 1 7.92813 6.93372 11.8535 
146 1 4.29973 8.52782 21.9906 
149 1 4.99578 6.28137 20.9021 
157 1 2.3349 10.069 19.6889 
ITEM: TIMESTEP
30
ITEM: NUMBER OF ATOMS
161
ITEM: BOX BOUNDS xy xz yz pp pp pp
-6.7755000000000001e+00 1.3552000000000000e+01 -6.7755000000000001e+00
0.0000000000000000e+00 1.1735510246683001e+01 0.0000000000000000e+00
0.0000000000000000e+00 2.2149999999999999e+01 0.0000000000000000e+00
ITEM: ATOMS id type x y z 
8 1 -2.43268 5.40408 9.84084 
87 1 2.97067 4.31899 10.6502 
90 1 2.6421 5.5132 9.78454 
109 1 -2.43346 5.40273 0.774554 
158 1 2.63713 5.44193 0.830448 
11 1 4.2788 4.23218 20.115 
14 1 2.89389 4.15032 19.7 
18 1 1.30539 5.85981 18.6042 
33 1 2.10947 4.21309 20.9032 
43 1 4.29263 4.22119 21.5595 
47 1 3.24384 5.80388 17.8228 
52 1 4.26997 4.23985 12.6324 
76 1 2.43069 4.94221 14.1748 
85 1 4.2934 4.20345 11.1855 
89 1 3.24586 5.80365 14.9419 
91 1 0.96515 5.03068 11.8624 
102 1 2.89544 4.14684 13.0677 
105 1 1.30697 5.8579 14.1618 
114 1 2.11074 4.21486 11.8561 
150 1 2.42636 4.9433 18.5881 
156 1 2.96533 4.27385 22.1248 
159 1 0.968581 5.04336 20.9203 
5 1 -4.91029 10.5729 8.6225 
9 1 -3.32311 8.86362 7.52968 
19 1 -1.74755 7.50318 10.5505 
21 1 -2.62543 8.76467 10.8768 
23 1 -3.29984 7.55538 6.83879 
25 1 -4.12664 10.5113 9.82517 
32 1 1.60612 6.38931 0.747626 
36 1 -1.84721 7.53651 9.06418 
38 1 -2.15378 6.22633 8.63538 
54 1 0.306432 8.52335 10.7016 
57 1 1.34559 7.96488 9.70786 
60 1 -1.74591 7.49768 0.0622954 
65 1 -3.30078 7.555 3.77498 
78 1 -1.8453 7.53568 1.54658 
80 1 -2.53159 8.79162 1.83234 
84 1 -4.44607 9.78092 3.10036 
99 1 -2.98621 9.68204 0.768685 
100 1 -2.93913 6.28634 3.17042 
107 1 -4.91064 10.5742 1.98819 
110 1 -3.32369 8.86303 3.08168 
111 1 0.577788 5.93918 10.8066 
113 1 1.52491 6.32456 9.88682 
119 1 -4.1274 10.5102 0.785727 
127 1 -2.15297 6.22677 1.97759 
131 1 -2.33822 6.21752 11.0219 
138 1 1.37409 7.95816 0.806441 
142 1 -2.53286 8.79146 8.78009 
145 1 -4.44574 9.77999 7.51261 
151 1 -4.98175 10.4496 11.0469 
154 1 -2.98504 9.68316 9.8462 
155 1 -2.93979 6.28663 7.44286 
161 2 1.1933 8.00701 8.6013 
12 1 2.56736 7.07347 17.1495 
17 1 0.416413 9.32116 20.9143 
24 1 -3.62721 8.33703 11.8222 
27 1 -0.27158 7.22534 21.6263 
29 1 0.605297 5.96291 21.9527 
31 1 1.28321 7.16863 17.914 
44 1 -0.171525 7.1874 20.1432 
46 1 0.135982 8.49656 19.7112 
51 1 -0.28175 7.27197 11.1355 
53 1 2.56456 7.07569 15.6149 
56 1 1.2832 7.16519 14.8528 
63 1 -2.33943 6.21533 21.7414 
66 1 -3.39265 6.76766 20.8833 
70 1 -0.165724 7.18473 12.6225 
72 1 0.516085 5.92575 12.9111 
92 1 0.921448 8.43797 14.248 
95 1 -4.98239 10.4504 21.7154 
98 1 -4.65125 9.28218 20.862 
104 1 0.399159 9.33402 11.8521 
116 1 -2.62239 8.76189 21.8873 
118 1 -3.62548 8.33452 20.9421 
122 1 0.129204 8.48636 13.0636 
133 1 -3.38977 6.76549 11.8785 
136 1 0.321812 8.5079 22.0979 
147 1 0.51594 5.93111 19.8557 
153 1 -4.65675 9.28373 11.9025 
160 1 0.921718 8.43777 18.5184 
1 1 7.8145 4.9115 10.533 
4 1 9.14275 4.82625 11.0043 
20 1 7.83154 4.94577 9.06448 
42 1 9.44748 5.46133 7.44156 
67 1 9.96031 4.57966 0.771589 
77 1 7.81439 4.91084 0.0802648 
94 1 7.83277 4.94678 1.54899 
96 1 9.16009 4.68868 1.99917 
121 1 4.68108 5.51853 10.6642 
130 1 9.44764 5.46182 3.17207 
134 1 9.96137 4.58133 9.842 
152 1 9.16055 4.68985 8.61543 
45 1 4.64932 5.50958 22.0801 
55 1 4.81887 5.52884 13.0643 
106 1 9.14239 4.82525 21.7601 
137 1 4.81596 5.52625 19.6988 
2 1 7.26071 10.4829 9.0486 
3 1 8.96724 7.65028 6.07446 
6 1 8.51172 6.39778 6.80674 
16 1 2.3646 8.69372 0.856337 
22 1 7.10695 6.18152 8.70317 
26 1 7.20115 8.41102 7.53601 
35 1 7.23108 10.5162 10.4974 
37 1 6.88808 9.21355 11.0005 
39 1 8.29077 8.91899 6.74661 
41 1 6.71101 6.98838 9.83939 
48 1 3.69144 6.34786 0.823081 
61 1 7.25555 10.4887 1.57041 
62 1 8.96802 7.65127 4.53933 
64 1 6.71637 9.19763 1.98956 
68 1 7.38434 6.96005 3.06307 
71 1 4.32953 8.52778 10.7667 
74 1 3.6084 7.77933 9.81451 
81 1 8.51124 6.39757 3.80769 
83 1 6.5403 8.40939 0.794438 
93 1 7.23655 10.509 0.125451 
97 1 8.29031 8.91972 3.86575 
101 1 2.40317 9.86313 10.6776 
103 1 2.39699 8.64248 9.85003 
117 1 7.10399 6.18034 1.91275 
120 1 7.20126 8.41134 3.07869 
123 1 3.78921 6.34255 9.80742 
129 1 6.71077 6.98729 0.775575 
132 1 6.71733 9.19782 8.62254 
135 1 7.3832 6.96027 7.5517 
141 1 7.21828 6.20454 10.9433 
144 1 6.53777 8.41043 9.81959 
148 1 3.59211 7.80768 0.80899 
7 1 9.17077 6.03152 11.9302 
10 1 3.71898 9.81077 21.608 
13 1 2.3915 9.89863 22.0797 
15 1 3.0222 8.32738 17.8803 
28 1 3.70173 9.77714 20.1399 
30 1 4.42949 8.54244 19.7768 
34 1 4.33239 6.31303 18.6123 
40 1 7.84583 8.3759 11.8954 
49 1 4.82367 7.73522 20.9136 
50 1 2.08627 9.26302 18.5172 
58 1 1.57478 10.1407 11.8464 
59 1 4.15201 7.76575 14.1432 
69 1 3.74915 9.80694 11.1641 
73 1 3.01935 8.32991 14.8818 
75 1 4.99927 6.31797 11.8826 
79 1 7.21751 6.20552 21.8204 
82 1 7.94206 6.9153 20.8795 
86 1 3.71148 9.78263 12.6291 
88 1 2.37169 10.0324 13.0635 
108 1 9.1711 6.03096 20.8321 
112 1 4.43292 8.54985 12.9944 
115 1 4.33008 6.31317 14.1542 
124 1 4.84255 7.73661 11.861 
125 1 2.08719 9.26395 14.2404 
126 1 6.8862 9.21417 21.7598 
128 1 7.8418 8.37685 20.8698 
139 1 1.57349 10.1437 20.9169 
140 1 4.14826 7.76173 18.6264 
143 1 7.94247 6.91346 11.8836 
146 1 4.31674 8.51837 22.0176 
149 1 4.99515 6.3139 20.8972 
157 1 2.37442 10.0357 19.69 
ITEM: TIMESTEP
40
ITEM: NUMBER OF ATOMS
161
ITEM: BOX BOUNDS xy xz yz pp pp pp
-6.7755000000000001e+00 1.3552000000000000e+01 -6.7755000000000001e+00
0.0000000000000000e+00 1.1735510246683001e+01 0.0000000000000000e+00
0.0000000000000000e+00 2.2149999999999999e+01 0.0000000000000000e+00
ITEM: ATOMS id type x y z 
8 1 -2.44242 5.41995 9.83938 
87 1 2.96576 4.33416 10.6563 
90 1 2.63368 5.5292 9.77695 
109 1 -2.44386 5.41804 0.776394 
158 1 2.62633 5.45546 0.838744 
11 1 4.27294 4.25283 20.107 
14 1 2.8837 4.15766 19.7041 
18 1 1.29869 5.86474 18.6045 
33 1 2.10249 4.21329 20.9093 
43 1 4.28177 4.24762 21.5494 
47 1 3.23918 5.79934 17.8256 
52 1 4.26456 4.2596 12.639 
76 1 2.4184 4.94071 14.1763 
85 1 4.28794 4.22818 11.1923 
89 1 3.24095 5.79971 14.9397 
91 1 0.943715 5.02377 11.8597 
102 1 2.88776 4.1575 13.0626 
105 1 1.29966 5.86227 14.1617 
114 1 2.10115 4.2159 11.8509 
150 1 2.41494 4.94159 18.5875 
156 1 2.95759 4.28627 22.1225 
159 1 0.952292 5.03986 20.9225 
5 1 -4.9014 10.5647 8.62847 
9 1 -3.31692 8.85884 7.52938 
19 1 -1.74593 7.51044 10.5469 
21 1 -2.61342 8.77549 10.8768 
23 1 -3.30253 7.5534 6.83843 
25 1 -4.11966 10.513 9.83178 
32 1 1.59658 6.38991 0.753369 
36 1 -1.83011 7.54728 9.06185 
38 1 -2.14436 6.23862 8.63639 
54 1 0.308045 8.51325 10.7014 
57 1 1.34385 7.96013 9.69087 
60 1 -1.74264 7.505 0.0648813 
65 1 -3.30254 7.55334 3.77433 
78 1 -1.82785 7.54634 1.54853 
80 1 -2.51725 8.80068 1.83148 
84 1 -4.43368 9.78163 3.10087 
99 1 -2.96939 9.68493 0.766329 
100 1 -2.93648 6.28465 3.16632 
107 1 -4.90167 10.5658 1.98423 
110 1 -3.31765 8.85857 3.08302 
111 1 0.564202 5.92969 10.8056 
113 1 1.51287 6.33098 9.88731 
119 1 -4.11967 10.5107 0.780322 
127 1 -2.14449 6.2385 1.97686 
131 1 -2.34441 6.2276 11.0206 
138 1 1.38301 7.95402 0.808476 
142 1 -2.51914 8.80079 8.78072 
145 1 -4.43313 9.78163 7.51127 
151 1 -4.97522 10.4399 11.0447 
154 1 -2.96864 9.68822 9.84656 
155 1 -2.93687 6.28423 7.44687 
161 2 1.17217 8.00913 8.58938 
12 1 2.5678 7.06232 17.149 
17 1 0.426215 9.30521 20.9127 
24 1 -3.61489 8.33601 11.8274 
27 1 -0.274794 7.21874 21.624 
29 1 0.592269 5.95259 21.9526 
31 1 1.28505 7.17036 17.9141 
44 1 -0.188719 7.17626 20.1406 
46 1 0.127277 8.48497 19.7122 
51 1 -0.284094 7.26501 11.1382 
53 1 2.56692 7.06312 15.6155 
56 1 1.28475 7.16721 14.8522 
63 1 -2.34602 6.22583 21.7425 
66 1 -3.40116 6.76975 20.8813 
70 1 -0.182178 7.17503 12.6276 
72 1 0.502016 5.91876 12.9106 
92 1 0.918194 8.43809 14.2445 
95 1 -4.97603 10.4392 21.7175 
98 1 -4.6445 9.2686 20.8523 
104 1 0.414521 9.31688 11.8493 
116 1 -2.60883 8.77139 21.8874 
118 1 -3.613 8.33429 20.9368 
122 1 0.120818 8.47505 13.0633 
133 1 -3.39858 6.76995 11.8803 
136 1 0.327996 8.49772 22.0962 
147 1 0.501534 5.92303 19.8562 
153 1 -4.64587 9.27034 11.9109 
160 1 0.919082 8.43926 18.5225 
1 1 7.78154 4.89287 10.5373 
4 1 9.12082 4.84236 10.9961 
20 1 7.80938 4.95085 9.06502 
42 1 9.44161 5.46756 7.44416 
67 1 9.94601 4.59854 0.776721 
77 1 7.78071 4.89205 0.0758989 
94 1 7.80971 4.95215 1.54932 
96 1 9.13494 4.70128 1.99898 
121 1 4.67624 5.53528 10.665 
130 1 9.44131 5.46819 3.1694 
134 1 9.94719 4.59975 9.83759 
152 1 9.13519 4.70151 8.61529 
45 1 4.64051 5.52728 22.0792 
55 1 4.81541 5.54742 13.0674 
106 1 9.12086 4.84239 21.7678 
137 1 4.81658 5.54568 19.6964 
2 1 7.26356 10.4675 9.03959 
3 1 8.96662 7.66205 6.07382 
6 1 8.50781 6.40004 6.80732 
16 1 2.37137 8.69429 0.861565 
22 1 7.07891 6.17084 8.69373 
26 1 7.20074 8.40174 7.52606 
35 1 7.24597 10.4855 10.4849 
37 1 6.89525 9.19636 11.0023 
39 1 8.29452 8.92377 6.75006 
41 1 6.69628 6.97276 9.84014 
48 1 3.68682 6.35582 0.842369 
61 1 7.26072 10.4697 1.57955 
62 1 8.96658 7.66219 4.53898 
64 1 6.71774 9.1781 1.99277 
68 1 7.37786 6.95249 3.07279 
71 1 4.35237 8.52327 10.7571 
74 1 3.6225 7.78317 9.80614 
81 1 8.50793 6.40013 3.80668 
83 1 6.53794 8.39661 0.792728 
93 1 7.24955 10.4796 0.136106 
97 1 8.29463 8.92474 3.86297 
101 1 2.42609 9.84156 10.6865 
103 1 2.40159 8.63347 9.84866 
117 1 7.07735 6.17013 1.92154 
120 1 7.20041 8.40156 3.08728 
123 1 3.78466 6.34863 9.79139 
129 1 6.69537 6.9719 0.774634 
132 1 6.71848 9.17775 8.62083 
135 1 7.37741 6.95256 7.54112 
141 1 7.2045 6.20954 10.9543 
144 1 6.53562 8.39645 9.82033 
148 1 3.60153 7.80796 0.82266 
7 1 9.16446 6.03077 11.9348 
10 1 3.75247 9.82979 21.6122 
13 1 2.41344 9.88243 22.0715 
15 1 3.02604 8.32495 17.8815 
28 1 3.72524 9.7718 20.14 
30 1 4.4568 8.5527 19.7683 
34 1 4.33228 6.3222 18.6021 
40 1 7.84766 8.36744 11.9144 
49 1 4.83902 7.75079 20.9148 
50 1 2.09237 9.25622 18.519 
58 1 1.59527 10.1163 11.8491 
59 1 4.15809 7.77342 14.1534 
69 1 3.78133 9.82635 11.1634 
73 1 3.02217 8.32799 14.8822 
75 1 5.00709 6.33203 11.8819 
79 1 7.20346 6.21063 21.8099 
82 1 7.9328 6.91597 20.8665 
86 1 3.73518 9.7771 12.6278 
88 1 2.39757 10.0224 13.0647 
108 1 9.16322 6.02993 20.8279 
112 1 4.4622 8.5607 13.0081 
115 1 4.3323 6.32389 14.1639 
124 1 4.86002 7.75068 11.8636 
125 1 2.09223 9.25515 14.2392 
126 1 6.89361 9.19748 21.7611 
128 1 7.84806 8.36822 20.8489 
139 1 1.58782 10.1255 20.9126 
140 1 4.15533 7.7704 18.6165 
143 1 7.93375 6.91547 11.8973 
146 1 4.33115 8.5126 22.0284 
149 1 4.9968 6.32692 20.8979 
157 1 2.39947 10.0234 19.6894 
ITEM: TIMESTEP
50
ITEM: NUMBER OF ATOMS
161
ITEM: BOX BOUNDS xy xz yz pp pp pp
-6.7755000000000001e+00 1.3552000000000000e+01 -6.7755000000000001e+00
0.0000000000000000e+00 1.1735510246683001e+01 0.0000000000000000e+00
0.0000000000000000e+00 2.2149999999999999e+01 0.0000000000000000e+00
ITEM: ATOMS id type x y z 
8 1 -2.47792 5.46931 9.82833 
87 1 2.94856 4.39011 10.6539 
90 1 2.60836 5.57248 9.76585 
109 1 -2.47953 5.46759 0.785769 
158 1 2.6065 5.4673 0.869198 
11 1 4.24963 4.31772 20.0827 
14 1 2.85441 4.17743 19.7111 
18 1 1.27578 5.87339 18.6152 
33 1 2.07247 4.22148 20.9191 
43 1 4.25009 4.3194 21.5216 
47 1 3.22017 5.79659 17.8352 
52 1 4.24887 4.31728 12.6549 
76 1 2.3841 4.94066 14.1771 
85 1 4.25393 4.31178 11.2238 
89 1 3.22202 5.79664 14.9295 
91 1 0.886711 4.99393 11.854 
102 1 2.85692 4.1846 13.0476 
105 1 1.27861 5.86957 14.1525 
114 1 2.06922 4.2286 11.8419 
150 1 2.37973 4.94522 18.5872 
156 1 2.94055 4.32312 22.124 
159 1 0.907055 5.013 20.9281 
5 1 -4.87191 10.5471 8.6359 
9 1 -3.29401 8.85137 7.53709 
19 1 -1.74242 7.53888 10.5375 
21 1 -2.58581 8.79268 10.8795 
23 1 -3.2985 7.5481 6.8395 
25 1 -4.09411 10.502 9.84505 
32 1 1.56723 6.40464 0.75745 
36 1 -1.78496 7.58089 9.04991 
38 1 -2.12837 6.27118 8.63752 
54 1 0.336256 8.47325 10.6902 
57 1 1.33647 7.94853 9.65904 
60 1 -1.73771 7.53136 0.0736152 
65 1 -3.29984 7.54948 3.77249 
78 1 -1.78106 7.57795 1.55881 
80 1 -2.47358 8.82139 1.83007 
84 1 -4.39796 9.77988 3.10101 
99 1 -2.92481 9.70977 0.759138 
100 1 -2.93449 6.28741 3.15778 
107 1 -4.87195 10.5462 1.97721 
110 1 -3.29445 8.85021 3.07456 
111 1 0.524495 5.90969 10.8048 
113 1 1.47505 6.35335 9.8886 
119 1 -4.0913 10.5009 0.768125 
127 1 -2.12763 6.27058 1.97514 
131 1 -2.3718 6.26201 11.0171 
138 1 1.40284 7.94457 0.812779 
142 1 -2.47462 8.82305 8.782 
145 1 -4.39984 9.77848 7.51194 
151 1 -4.9601 10.4038 11.0508 
154 1 -2.92696 9.71843 9.85091 
155 1 -2.93511 6.2885 7.4557 
161 2 1.10282 8.01633 8.55104 
12 1 2.5693 7.04809 17.1513 
17 1 0.46284 9.25728 20.9038 
24 1 -3.58262 8.327 11.8327 
27 1 -0.279775 7.19262 21.6147 
29 1 0.564262 5.94083 21.9562 
31 1 1.28157 7.17391 17.9167 
44 1 -0.236735 7.14668 20.1297 
46 1 0.11067 8.45302 19.7134 
51 1 -0.290022 7.23925 11.1523 
53 1 2.56735 7.04778 15.6156 
56 1 1.28173 7.16913 14.8519 
63 1 -2.37394 6.25955 21.746 
66 1 -3.42096 6.77705 20.8758 
70 1 -0.230789 7.14623 12.6375 
72 1 0.458347 5.89744 12.9075 
92 1 0.914277 8.43339 14.236 
95 1 -4.95818 10.4012 21.715 
98 1 -4.62162 9.2571 20.8191 
104 1 0.460968 9.26224 11.8518 
116 1 -2.58121 8.78464 21.8832 
118 1 -3.58648 8.32197 20.9312 
122 1 0.108796 8.44766 13.058 
133 1 -3.41598 6.77681 11.8854 
136 1 0.358141 8.46415 22.0935 
147 1 0.457006 5.90285 19.8607 
153 1 -4.62574 9.25317 11.9458 
160 1 0.917116 8.43587 18.5312 
1 1 7.68276 4.87262 10.5467 
4 1 9.04583 4.87734 10.9736 
20 1 7.73399 4.96152 9.08433 
42 1 9.41794 5.49746 7.45421 
67 1 9.89289 4.66499 0.794317 
77 1 7.68416 4.87547 0.0670728 
94 1 7.7314 4.95988 1.53192 
96 1 9.07073 4.73884 1.99911 
121 1 4.66377 5.58843 10.6571 
130 1 9.4187 5.49665 3.15923 
134 1 9.89598 4.6666 9.81917 
152 1 9.07125 4.73821 8.61506 
45 1 4.60093 5.58881 22.085 
55 1 4.81258 5.60547 13.0737 
106 1 9.04333 4.87656 21.791 
137 1 4.81619 5.60155 19.686 
2 1 7.27915 10.4115 9.00701 
3 1 8.9654 7.67369 6.07635 
6 1 8.494 6.41218 6.79172 
16 1 2.40822 8.68869 0.870361 
22 1 7.00089 6.14416 8.66423 
26 1 7.20467 8.37349 7.5017 
35 1 7.28605 10.4028 10.4396 
37 1 6.93202 9.14097 11.0116 
39 1 8.31337 8.92783 6.75992 
41 1 6.65275 6.933 9.84043 
48 1 3.65816 6.37552 0.886183 
61 1 7.28226 10.4081 1.60698 
62 1 8.96533 7.67573 4.53915 
64 1 6.71833 9.12229 2.00108 
68 1 7.34522 6.92763 3.08708 
71 1 4.41213 8.54573 10.7476 
74 1 3.65023 7.80234 9.78782 
81 1 8.49382 6.41263 3.81981 
83 1 6.5342 8.35489 0.786865 
93 1 7.28307 10.4047 0.171472 
97 1 8.31412 8.92646 3.85282 
101 1 2.50634 9.78551 10.7047 
103 1 2.42818 8.59521 9.84086 
117 1 6.99933 6.14814 1.94772 
120 1 7.20374 8.37308 3.11263 
123 1 3.77805 6.36639 9.75823 
129 1 6.64888 6.93152 0.774247 
132 1 6.71982 9.12426 8.61315 
135 1 7.34529 6.92919 7.52517 
141 1 7.17146 6.19128 10.9707 
144 1 6.53663 8.35435 9.82784 
148 1 3.62535 7.83255 0.859293 
7 1 9.12855 6.03628 11.944 
10 1 3.85187 9.8497 21.6215 
13 1 2.49056 9.84513 22.0485 
15 1 3.03942 8.31097 17.8688 
28 1 3.80125 9.76199 20.1586 
30 1 4.5336 8.57747 19.7414 
34 1 4.32965 6.35016 18.5769 
40 1 7.87709 8.34963 11.9614 
49 1 4.8868 7.79079 20.9162 
50 1 2.11528 9.22713 18.5289 
58 1 1.6589 10.0349 11.8647 
59 1 4.1884 7.79767 14.1747 
69 1 3.88565 9.84209 11.155 
73 1 3.0353 8.31555 14.9003 
75 1 5.02468 6.37405 11.8855 
79 1 7.16743 6.18942 21.7953 
82 1 7.90846 6.89143 20.8299 
86 1 3.81028 9.76248 12.6122 