ITEM: TIMESTEP
0
ITEM: NUMBER OF ATOMS
129
ITEM: BOX BOUNDS xy xz yz pp pp pp
0.0000000000000000e+00 2.3654499999999999e+01 7.8845000000000001e+00
0.0000000000000000e+00 1.3658086643083999e+01 0.0000000000000000e+00
0.0000000000000000e+00 2.5747000000000000e+01 0.0000000000000000e+00
ITEM: ATOMS id type x y z 
18 1 10.522 6.683 2.644 
28 1 5.247 4.273 12.803 
31 1 9.65 6.514 0.446 
62 1 9.171 5.15 12.405 
91 1 9.65 6.514 11.889 
92 1 10.81 6.18 11.007 
106 1 10.522 6.683 9.691 
127 1 10.81 6.18 1.328 
4 1 4.402 5.735 13.319 
5 1 3.307 5.568 14.201 
43 1 4.549 6.796 15.517 
52 1 9.172 5.15 25.677 
66 1 4.402 5.735 24.762 
67 1 5.003 6.76 23.881 
88 1 5.247 4.273 25.278 
107 1 3.307 5.568 23.881 
116 1 4.549 6.796 22.565 
117 1 5.003 6.76 14.201 
129 2 4.5 6.796 16.867 
11 1 11.272 7.494 3.321 
12 1 10.477 8.871 4.018 
14 1 9.018 11.397 0.446 
15 1 10.114 11.565 1.328 
16 1 8.412 9.024 0.654 
19 1 10.477 8.871 5.569 
29 1 10.927 10.156 3.321 
32 1 8.77 7.648 1.328 
35 1 12.036 9.594 2.644 
45 1 9.231 8.963 3.321 
47 1 12.762 8.702 0.446 
49 1 11.224 11 0.654 
51 1 8.872 10.337 2.644 
53 1 11.272 7.494 9.014 
54 1 10.477 8.871 8.317 
56 1 9.018 11.397 11.889 
57 1 8.418 10.372 11.007 
58 1 11.224 11 11.681 
60 1 12.255 7.901 9.691 
61 1 10.477 8.871 6.766 
73 1 9.231 8.963 9.014 
75 1 12.762 8.702 11.889 
76 1 12.202 10.061 11.007 
79 1 9.224 7.617 9.691 
80 1 8.174 12.859 12.405 
89 1 10.927 10.156 9.014 
93 1 8.412 9.024 11.681 
95 1 9.951 11.095 9.691 
105 1 10.114 11.565 11.007 
109 1 8.77 7.648 11.007 
110 1 12.036 9.594 9.691 
114 1 8.872 10.337 9.691 
119 1 8.418 10.372 1.328 
120 1 12.255 7.901 2.644 
123 1 12.202 10.061 1.328 
124 1 9.224 7.617 2.644 
128 1 9.951 11.095 2.644 
6 1 5.009 8.108 13.527 
13 1 9.663 10.28 25.128 
17 1 9.204 8.965 25.162 
30 1 10.016 7.556 25.128 
34 1 11.289 7.464 25.162 
36 1 8.174 12.859 25.677 
46 1 11.752 8.777 25.128 
50 1 10.937 10.184 25.162 
55 1 9.663 10.28 12.954 
59 1 10.937 10.184 12.919 
74 1 11.752 8.777 12.954 
78 1 11.289 7.464 12.919 
90 1 10.016 7.556 12.954 
94 1 9.204 8.965 12.919 
101 1 5.009 8.108 24.555 
33 1 11.795 6.589 0.654 
77 1 11.795 6.589 11.681 
41 1 17.967 6.132 13.527 
68 1 17.967 6.132 24.554 
103 1 19.24 6.037 22.565 
126 1 19.24 6.037 15.517 
3 1 19.528 6.852 12.254 
7 1 19.987 8.167 12.289 
10 1 15.106 8.528 12.804 
22 1 19.175 9.576 12.254 
26 1 17.902 9.668 12.289 
38 1 17.439 8.356 12.254 
42 1 18.254 6.949 12.289 
44 1 20.019 11.982 12.804 
48 1 12.546 7.4 1.328 
65 1 19.528 6.852 0.081 
69 1 18.254 6.949 0.046 
82 1 17.439 8.356 0.081 
86 1 17.902 9.668 0.046 
96 1 14.084 8.604 12.405 
98 1 19.175 9.576 0.081 
102 1 19.987 8.167 0.046 
113 1 12.546 7.4 11.007 
1 1 17.919 9.638 16.194 
2 1 18.714 8.261 16.892 
8 1 18.669 10.449 15.517 
9 1 18.714 8.261 18.442 
20 1 14.084 8.604 25.677 
21 1 18.264 6.977 16.194 
23 1 19.541 10.618 13.32 
24 1 20.421 9.484 14.201 
25 1 17.396 10.544 13.527 
27 1 17.155 7.538 15.517 
37 1 19.96 8.169 16.194 
39 1 16.429 8.43 13.319 
40 1 16.644 9.732 14.201 
63 1 17.919 9.638 21.888 
64 1 18.714 8.261 21.19 
70 1 16.936 9.231 22.565 
71 1 18.714 8.261 19.64 
72 1 20.019 11.982 25.278 
81 1 19.96 8.169 21.888 
83 1 16.429 8.43 24.762 
84 1 16.989 7.071 23.881 
85 1 17.396 10.544 24.555 
87 1 19.967 9.515 22.565 
97 1 18.263 6.977 21.888 
99 1 19.541 10.618 24.762 
100 1 18.38 10.953 23.881 
104 1 15.106 8.528 25.278 
108 1 18.669 10.449 22.565 
111 1 20.421 9.484 23.881 
112 1 17.155 7.538 22.565 
115 1 16.644 9.732 23.881 
118 1 16.936 9.231 15.517 
121 1 16.989 7.071 14.201 
122 1 19.967 9.515 15.517 
125 1 18.38 10.953 14.201 
ITEM: TIMESTEP
10
ITEM: NUMBER OF ATOMS
129
ITEM: BOX BOUNDS xy xz yz pp pp pp
0.0000000000000000e+00 2.3654499999999999e+01 7.8845000000000001e+00
0.0000000000000000e+00 1.3658086643083999e+01 0.0000000000000000e+00
0.0000000000000000e+00 2.5747000000000000e+01 0.0000000000000000e+00
ITEM: ATOMS id type x y z 
18 1 10.3991 6.75647 2.65194 
28 1 5.12175 4.54158 12.8835 
31 1 9.35231 6.48276 0.386223 
62 1 9.12107 5.26704 12.376 
91 1 9.35123 6.47891 11.9394 
92 1 10.8319 6.19376 10.946 
106 1 10.4056 6.77958 9.70452 
127 1 10.8298 6.17041 1.36215 
4 1 4.45464 5.7418 13.271 
5 1 3.1351 5.54617 14.2076 
43 1 4.60835 6.88409 15.5523 
52 1 9.12389 5.27753 25.7099 
66 1 4.46155 5.79891 24.8435 
67 1 5.11255 6.95846 23.8839 
88 1 5.11066 4.56115 25.1939 
107 1 3.18672 5.58724 23.8494 
116 1 4.60696 6.96726 22.6021 
117 1 5.07036 6.9196 14.0156 
129 2 4.76723 7.04202 16.9982 
11 1 11.2348 7.53361 3.44696 
12 1 10.4872 8.81589 4.13983 
14 1 8.97579 11.3115 0.364104 
15 1 10.2267 11.5515 1.36413 
16 1 8.41363 8.93604 0.695229 
19 1 10.4694 8.86449 5.55168 
29 1 10.9586 10.1561 3.35149 
32 1 8.6971 7.66755 1.27227 
35 1 12.0198 9.61628 2.57894 
45 1 9.25059 8.96175 3.27386 
47 1 12.7416 8.7455 0.52498 
49 1 11.3019 11.0433 0.695377 
51 1 8.83879 10.1762 2.60384 
53 1 11.3387 7.57589 8.99474 
54 1 10.4978 8.8409 8.20789 
56 1 8.97067 11.3313 11.9486 
57 1 8.31019 10.1907 11.0036 
58 1 11.3464 10.9546 11.6776 
60 1 12.247 8.0286 9.58586 
61 1 10.4721 8.86962 6.78462 
73 1 9.23509 8.95091 9.06648 
75 1 12.708 8.79488 11.7395 
76 1 12.2832 10.0617 11.0202 
79 1 9.21245 7.65455 9.7707 
80 1 8.32557 12.5455 12.3134 
89 1 10.9527 10.1362 8.9841 
93 1 8.38213 8.94619 11.6096 
95 1 10.0536 11.0451 9.70216 
105 1 10.2673 11.5182 11.0001 
109 1 8.70149 7.66026 11.0473 
110 1 12.0342 9.62367 9.72627 
114 1 8.82123 10.1639 9.75341 
119 1 8.28886 10.198 1.3291 
120 1 12.362 8.11133 2.69039 
123 1 12.2454 10.0579 1.21726 
124 1 9.1814 7.67615 2.55977 
128 1 10.0348 11.0173 2.6175 
6 1 5.00807 8.216 13.541 
13 1 9.63595 10.2646 25.1397 
17 1 9.15723 8.96232 25.1462 
30 1 9.92094 7.74804 25.0563 
34 1 11.2802 7.5021 25.1161 
36 1 8.31235 12.5696 25.7602 
46 1 11.7034 8.80046 25.0732 
50 1 11.0399 10.1094 25.2405 
55 1 9.60962 10.2679 13.0081 
59 1 10.9805 10.123 12.8862 
74 1 11.6927 8.84595 13.0352 
78 1 11.2863 7.52165 12.939 
90 1 9.91011 7.70999 13.0293 
94 1 9.15348 8.97482 12.9583 
101 1 5.00242 8.19138 24.5168 
33 1 11.7215 6.58041 0.706174 
77 1 11.7198 6.60571 11.6388 
41 1 17.8678 6.12045 13.5166 
68 1 17.8875 6.11243 24.549 
103 1 19.1215 6.09033 22.566 
126 1 19.0094 6.05808 15.4539 
3 1 19.6493 6.87168 12.297 
7 1 20.0422 8.2077 12.2624 
10 1 15.1355 8.45423 12.8453 
22 1 19.2477 9.40629 12.1559 
26 1 17.9111 9.63252 12.2564 
38 1 17.4858 8.33766 12.1662 
42 1 18.1384 7.00992 12.4249 
44 1 20.0776 11.9008 12.8208 
48 1 12.6092 7.55299 1.37772 
65 1 19.5694 6.8023 0.0877288 
69 1 18.2645 7.0715 -0.03219 
82 1 17.5195 8.34356 0.159765 
86 1 17.976 9.6594 0.0883957 
96 1 14.0457 8.68192 12.3572 
98 1 19.1455 9.41081 0.124954 
102 1 19.9769 8.11129 0.0691242 
113 1 12.5822 7.56025 10.9577 
1 1 17.9342 9.58333 16.2773 
2 1 18.6664 8.30675 16.9843 
8 1 18.7958 10.3466 15.5041 
9 1 18.7074 8.25696 18.406 
20 1 14.0482 8.67786 25.7198 
21 1 18.113 6.90894 16.169 
23 1 19.8406 10.6307 13.2839 
24 1 20.4972 9.48396 14.1877 
25 1 17.4801 10.5462 13.5675 
27 1 17.0944 7.51147 15.4477 
37 1 20.1134 8.19676 16.3065 
39 1 16.4556 8.38092 13.4185 
40 1 16.5891 9.58225 14.2716 
63 1 17.968 9.5825 21.7783 
64 1 18.6848 8.30814 21.09 
70 1 16.8457 9.02027 22.5409 
71 1 18.7158 8.26607 19.633 
72 1 20.0704 11.8696 25.251 
81 1 19.93 8.19067 21.936 
83 1 16.4519 8.3768 24.6702 
84 1 16.9375 7.07365 23.9504 
85 1 17.4624 10.5519 24.5035 
87 1 19.9836 9.4504 22.6591 
97 1 18.2481 7.01847 21.8586 
99 1 19.8266 10.6229 24.8163 
100 1 18.3734 10.954 23.8292 
104 1 15.1347 8.45631 25.2337 
108 1 18.7966 10.3635 22.5537 
111 1 20.4837 9.4568 23.9315 
112 1 17.1827 7.52585 22.6181 
115 1 16.5829 9.5806 23.8002 
118 1 16.8721 9.04937 15.5784 
121 1 16.9239 7.07074 14.0657 
122 1 19.9755 9.44176 15.4423 
125 1 18.3522 10.9378 14.2753 
ITEM: TIMESTEP
20
ITEM: NUMBER OF ATOMS
129
ITEM: BOX BOUNDS xy xz yz pp pp pp
0.0000000000000000e+00 2.3654499999999999e+01 7.8845000000000001e+00
0.0000000000000000e+00 1.3658086643083999e+01 0.0000000000000000e+00
0.0000000000000000e+00 2.5747000000000000e+01 0.0000000000000000e+00
ITEM: ATOMS id type x y z 
18 1 10.3931 6.7867 2.65392 
28 1 5.12631 4.54486 12.8817 
31 1 9.35915 6.51475 0.392498 
62 1 9.09842 5.28468 12.3708 
91 1 9.35568 6.50188 11.9458 
92 1 10.8127 6.20077 10.9534 
106 1 10.3884 6.78307 9.69918 
127 1 10.8056 6.18954 1.37863 
4 1 4.42519 5.74913 13.2943 
5 1 3.12988 5.56848 14.1982 
43 1 4.59503 6.87889 15.5257 
52 1 9.09888 5.28067 25.7096 
66 1 4.4599 5.80645 24.7981 
67 1 5.09319 6.97737 23.882 
88 1 5.106 4.58378 25.1912 
107 1 3.1687 5.62258 23.8601 
116 1 4.58424 6.97526 22.6099 
117 1 4.99937 6.94664 14.0802 
129 2 4.80734 7.0323 16.9568 
11 1 11.2426 7.56879 3.41656 
12 1 10.5106 8.80518 4.0983 
14 1 8.98413 11.2838 0.397173 
15 1 10.2266 11.5289 1.33919 
16 1 8.383 8.92079 0.698476 
19 1 10.4685 8.8623 5.56312 
29 1 10.9623 10.13 3.33181 
32 1 8.68118 7.66786 1.28018 
35 1 12.0337 9.60601 2.57576 
45 1 9.23669 8.94004 3.26022 
47 1 12.7134 8.76614 0.511146 
49 1 11.3304 11.0192 0.690972 
51 1 8.82816 10.1622 2.59799 
53 1 11.332 7.58234 8.96818 
54 1 10.4879 8.85197 8.23826 
56 1 8.99322 11.2937 11.9289 
57 1 8.32796 10.1848 11.0181 
58 1 11.3636 10.9438 11.6851 
60 1 12.2719 8.04568 9.59683 
61 1 10.47 8.86899 6.78169 
73 1 9.2336 8.93634 9.07073 
75 1 12.697 8.81339 11.7687 
76 1 12.2863 10.0808 11.0028 
79 1 9.1972 7.65945 9.7808 
80 1 8.34037 12.5063 12.305 
89 1 10.9502 10.1354 8.9855 
93 1 8.36539 8.9153 11.6376 
95 1 10.0432 11.0312 9.70629 
105 1 10.2586 11.4799 11.0114 
109 1 8.67818 7.6625 11.0504 
110 1 12.0515 9.635 9.72373 
114 1 8.84615 10.1604 9.74248 
119 1 8.31513 10.178 1.31343 
120 1 12.3106 8.11947 2.68163 
123 1 12.2366 10.0766 1.23429 
124 1 9.18866 7.67577 2.54925 
128 1 10.0446 11.0166 2.63993 
6 1 5.02996 8.24595 13.5445 
13 1 9.643 10.2587 25.1341 
17 1 9.13616 8.95224 25.1412 
30 1 9.91994 7.73868 25.0441 
34 1 11.2488 7.50616 25.1415 
36 1 8.33045 12.5229 25.7675 
46 1 11.7232 8.79656 25.0945 
50 1 11.0603 10.1422 25.2479 
55 1 9.61934 10.2548 13.0057 
59 1 10.9884 10.1148 12.8872 
74 1 11.6777 8.85553 13.0078 
78 1 11.2483 7.54881 12.9286 
90 1 9.90949 7.73532 13.0346 
94 1 9.1468 8.94979 12.9429 
101 1 5.00914 8.21012 24.5311 
33 1 11.7186 6.62033 0.707088 
77 1 11.7162 6.63159 11.6474 
41 1 17.8384 6.12006 13.5252 
68 1 17.8473 6.15203 24.5227 
103 1 19.1395 6.11016 22.5596 
126 1 19.0382 6.10694 15.4794 
3 1 19.6228 6.88646 12.3253 
7 1 20.0775 8.23274 12.2549 
10 1 15.1319 8.45158 12.8434 
22 1 19.2625 9.42739 12.1551 
26 1 17.9266 9.62779 12.262 
38 1 17.4792 8.32323 12.2081 
42 1 18.1557 7.01491 12.4016 
44 1 20.1001 11.8713 12.8319 
48 1 12.5857 7.56938 1.41052 
65 1 19.5959 6.806 0.118996 
69 1 18.2334 7.05302 -0.00710558 
82 1 17.5152 8.3491 0.145925 
86 1 17.9666 9.66139 0.0779181 
96 1 14.0463 8.6861 12.356 
98 1 19.1517 9.40946 0.155815 
102 1 20.0218 8.11571 0.0535277 
113 1 12.5615 7.56727 10.9343 
1 1 17.9561 9.52676 16.304 
2 1 18.6313 8.28983 16.9355 
8 1 18.8108 10.3274 15.5242 
9 1 18.6999 8.26009 18.4041 
20 1 14.0526 8.68676 25.7158 
21 1 18.1179 6.96404 16.1531 
23 1 19.8248 10.6067 13.2813 
24 1 20.5147 9.49144 14.1696 
25 1 17.4731 10.5112 13.5766 
27 1 17.0955 7.51216 15.4566 
37 1 20.113 8.21736 16.2923 
39 1 16.4853 8.36187 13.3913 
40 1 16.6088 9.56584 14.2884 
63 1 17.9575 9.55028 21.7892 
64 1 18.6717 8.31869 21.1039 
70 1 16.8783 9.02706 22.533 
71 1 18.7145 8.2671 19.6174 
72 1 20.096 11.8539 25.2474 
81 1 19.9621 8.19882 21.9445 
83 1 16.4824 8.34302 24.6853 
84 1 16.951 7.04686 23.9233 
85 1 17.4491 10.5314 24.4784 
87 1 19.992 9.45284 22.67 
97 1 18.2426 7.01313 21.8653 
99 1 19.8189 10.604 24.7906 
100 1 18.4017 10.9371 23.8258 
104 1 15.1355 8.45279 25.2315 
108 1 18.8065 10.3474 22.545 
111 1 20.4978 9.46872 23.9457 
112 1 17.1526 7.51595 22.6344 
115 1 16.607 9.57313 23.794 
118 1 16.8686 9.0235 15.5575 
121 1 16.9064 7.05937 14.0852 
122 1 19.9913 9.45108 15.4332 
125 1 18.3846 10.9311 14.2642 
ITEM: TIMESTEP
30
ITEM: NUMBER OF ATOMS
129
ITEM: BOX BOUNDS xy xz yz pp pp pp
0.0000000000000000e+00 2.3654499999999999e+01 7.8845000000000001e+00
0.0000000000000000e+00 1.3658086643083999e+01 0.0000000000000000e+00
0.0000000000000000e+00 2.5747000000000000e+01 0.0000000000000000e+00
ITEM: ATOMS id type x y z 
18 1 10.3734 6.79072 2.6581 
28 1 5.1281 4.55199 12.8815 
31 1 9.37684 6.54772 0.406206 
62 1 9.07403 5.29217 12.3693 
91 1 9.37169 6.53822 11.9335 
92 1 10.7901 6.21522 10.9647 
106 1 10.3765 6.7914 9.69462 
127 1 10.7806 6.20656 1.3732 
4 1 4.39748 5.75589 13.2986 
5 1 3.1333 5.58013 14.2116 
43 1 4.60359 6.86988 15.5175 
52 1 9.07453 5.29076 25.7117 
66 1 4.44449 5.82272 24.7688 
67 1 5.08186 6.97649 23.8932 
88 1 5.10527 4.59885 25.1872 
107 1 3.16914 5.65068 23.8697 
116 1 4.57668 6.97977 22.6063 
117 1 4.97877 6.9639 14.0965 
129 2 4.82137 7.05299 16.9357 
11 1 11.2378 7.57834 3.42047 
12 1 10.519 8.80476 4.07987 
14 1 9.00009 11.2576 0.404645 
15 1 10.2283 11.5128 1.34476 
16 1 8.36474 8.89784 0.685748 
19 1 10.4694 8.85995 5.56569 
29 1 10.9527 10.1146 3.32079 
32 1 8.66784 7.65688 1.27013 
35 1 12.0505 9.61051 2.58357 
45 1 9.22132 8.93632 3.25495 
47 1 12.7028 8.78071 0.507677 
49 1 11.3432 11.0242 0.676533 
51 1 8.83739 10.1571 2.60262 
53 1 11.3313 7.58905 8.96593 
54 1 10.49 8.84691 8.25012 
56 1 9.00735 11.2607 11.9256 
57 1 8.33727 10.1652 11.0249 
58 1 11.3813 10.9419 11.6899 
60 1 12.273 8.05559 9.59101 
61 1 10.4668 8.86859 6.7771 
73 1 9.22884 8.93081 9.07516 
75 1 12.6942 8.8256 11.7777 
76 1 12.2958 10.0872 10.9925 
79 1 9.19243 7.65114 9.79112 
80 1 8.33576 12.5048 12.3072 
89 1 10.9496 10.1305 8.98895 
93 1 8.34188 8.89251 11.65 
95 1 10.0365 11.0343 9.69827 
105 1 10.2588 11.4587 11.0166 
109 1 8.6665 7.65051 11.0606 
110 1 12.0696 9.6386 9.71846 
114 1 8.85284 10.1633 9.73712 
119 1 8.32138 10.1584 1.3105 
120 1 12.308 8.12797 2.68218 
123 1 12.2484 10.0879 1.23979 
124 1 9.18467 7.66751 2.54139 
128 1 10.0395 11.0223 2.65193 
6 1 5.03971 8.2716 13.5387 
13 1 9.64955 10.2415 25.1388 
17 1 9.12504 8.94866 25.1412 
30 1 9.90882 7.73646 25.0439 
34 1 11.2392 7.49349 25.1395 
36 1 8.32897 12.5125 25.765 
46 1 11.7123 8.79871 25.1059 
50 1 11.0746 10.1563 25.2466 
55 1 9.62433 10.2459 13.0082 
59 1 10.9962 10.1302 12.8908 
74 1 11.6737 8.8581 12.9883 
78 1 11.2387 7.54068 12.9335 
90 1 9.90049 7.73093 13.0373 
94 1 9.12532 8.94324 12.9404 
101 1 5.02469 8.22712 24.5398 
33 1 11.7103 6.63864 0.716392 
77 1 11.707 6.64547 11.6429 
41 1 17.8143 6.11478 13.5184 
68 1 17.8411 6.17686 24.5359 
103 1 19.1448 6.10944 22.5537 
126 1 19.0374 6.12326 15.4909 
3 1 19.6147 6.90437 12.3408 
7 1 20.0976 8.24435 12.2544 
10 1 15.1325 8.45196 12.8381 
22 1 19.2708 9.43168 12.156 
26 1 17.937 9.64366 12.2606 
38 1 17.491 8.3291 12.2244 
42 1 18.1478 7.00032 12.4042 
44 1 20.1222 11.8494 12.8397 
48 1 12.5793 7.58104 1.4045 
65 1 19.6092 6.8081 0.135376 
69 1 18.2317 7.03571 0.00759757 
82 1 17.5125 8.33588 0.139939 
86 1 17.9758 9.65594 0.0689259 
96 1 14.0428 8.68554 12.3571 
98 1 19.1575 9.41306 0.181546 
102 1 20.0229 8.12491 0.0490427 
113 1 12.5494 7.58563 10.9328 
1 1 17.9631 9.50874 16.3098 
2 1 18.6367 8.26543 16.906 
8 1 18.8238 10.3106 15.5342 
9 1 18.6902 8.25888 18.402 
20 1 14.051 8.69137 25.7106 
21 1 18.13 6.98758 16.158 
23 1 19.8086 10.5971 13.283 
24 1 20.5281 9.49676 14.1596 
25 1 17.4816 10.4928 13.5895 
27 1 17.0758 7.51249 15.4549 
37 1 20.1236 8.24484 16.2971 
39 1 16.4886 8.35175 13.3766 
40 1 16.613 9.55138 14.2786 
63 1 17.9597 9.54074 21.7847 
64 1 18.6759 8.31839 21.1138 
70 1 16.8788 9.02037 22.5257 
71 1 18.7133 8.26926 19.6094 
72 1 20.1239 11.846 25.2468 
81 1 19.969 8.20325 21.9431 
83 1 16.5053 8.32127 24.6935 
84 1 16.9289 7.0339 23.9049 
85 1 17.448 10.5272 24.4669 
87 1 20.0014 9.45999 22.6718 
97 1 18.2442 7.02155 21.8694 
99 1 19.8056 10.599 24.7766 
100 1 18.4195 10.9205 23.8255 
104 1 15.1425 8.45296 25.2302 
108 1 18.8261 10.3416 22.5353 
111 1 20.5137 9.47652 23.9515 
112 1 17.1315 7.51516 22.6167 
115 1 16.6165 9.55375 23.8037 
118 1 16.8634 9.00864 15.5603 
121 1 16.8983 7.04195 14.0891 
122 1 20.0097 9.45091 15.4372 
125 1 18.4086 10.9132 14.2581 
ITEM: TIMESTEP
40
ITEM: NUMBER OF ATOMS
129
ITEM: BOX BOUNDS xy xz yz pp pp pp
0.0000000000000000e+00 2.3654499999999999e+01 7.8845000000000001e+00
0.0000000000000000e+00 1.3658086643083999e+01 0.0000000000000000e+00
0.0000000000000000e+00 2.5747000000000000e+01 0.0000000000000000e+00
ITEM: ATOMS id type x y z 
18 1 10.3501 6.80283 2.68402 
28 1 5.11077 4.61159 12.8925 
31 1 9.37777 6.58089 0.414265 
62 1 8.99004 5.28054 12.3806 
91 1 9.37748 6.60583 11.9219 
92 1 10.7387 6.26157 10.9819 
106 1 10.3607 6.81232 9.6842 
127 1 10.7334 6.25382 1.3709 
4 1 4.35638 5.78466 13.308 
5 1 3.10484 5.60079 14.2331 
43 1 4.61169 6.87863 15.5151 
52 1 8.99426 5.29862 25.7059 
66 1 4.42168 5.86895 24.761 
67 1 5.08296 7.01851 23.8953 
88 1 5.10481 4.63829 25.1718 
107 1 3.1446 5.70343 23.8694 
116 1 4.567 6.98548 22.6099 
117 1 4.9647 7.00295 14.0996 
129 2 4.88613 7.11875 16.9415 
11 1 11.2333 7.57896 3.41608 
12 1 10.5081 8.7909 4.07425 
14 1 9.0205 11.2045 0.416001 
15 1 10.244 11.4877 1.35804 
16 1 8.30126 8.86595 0.643232 
19 1 10.4706 8.85414 5.56663 
29 1 10.9466 10.093 3.29666 
32 1 8.59396 7.62885 1.27236 
35 1 12.0832 9.62843 2.58529 
45 1 9.20578 8.92306 3.25881 
47 1 12.6944 8.8193 0.503206 
49 1 11.3747 11.0566 0.670793 
51 1 8.84493 10.1482 2.59751 
53 1 11.3267 7.60528 8.95915 
54 1 10.4912 8.82905 8.25209 
56 1 9.02202 11.2068 11.938 
57 1 8.34202 10.1085 11.0329 
58 1 11.4129 10.9351 11.6903 
60 1 12.2742 8.08582 9.57149 
61 1 10.4586 8.86522 6.77719 
73 1 9.22683 8.9207 9.08409 
75 1 12.6842 8.86529 11.7788 
76 1 12.3427 10.1107 10.9726 
79 1 9.16923 7.64569 9.79224 
80 1 8.34108 12.4592 12.3034 
89 1 10.9504 10.1168 8.99707 
93 1 8.28002 8.86069 11.6875 
95 1 10.0357 11.0262 9.69475 
105 1 10.2762 11.4185 11.019 
109 1 8.60666 7.62001 11.0689 
110 1 12.1033 9.65918 9.69506 
114 1 8.85518 10.1575 9.7415 
119 1 8.32744 10.1113 1.30514 
120 1 12.3059 8.15917 2.68555 
123 1 12.279 10.1195 1.24094 
124 1 9.14788 7.65653 2.54761 
128 1 10.0261 11.0286 2.66749 
6 1 5.0774 8.29443 13.5192 
13 1 9.67582 10.2087 25.1436 
17 1 9.10845 8.93596 25.1338 
30 1 9.88838 7.73203 25.0203 
34 1 11.2281 7.49032 25.1266 
36 1 8.33554 12.4556 25.7634 
46 1 11.691 8.79032 25.1147 
50 1 11.0998 10.1738 25.2526 
55 1 9.629 10.2161 13.0063 
59 1 11.0145 10.164 12.9041 
74 1 11.6516 8.85271 12.9624 
78 1 11.2309 7.53579 12.9511 
90 1 9.88424 7.7325 13.0542 
94 1 9.07735 8.92567 12.9466 
101 1 5.06327 8.25594 24.5591 
33 1 11.6796 6.6777 0.728035 
77 1 11.6825 6.68825 11.6348 
41 1 17.776 6.07688 13.5192 
68 1 17.8221 6.23528 24.5539 
103 1 19.1432 6.12096 22.5413 
126 1 19.0558 6.1582 15.5032 
3 1 19.5851 6.94205 12.3521 
7 1 20.1214 8.26141 12.2452 
10 1 15.1296 8.44655 12.818 
22 1 19.2998 9.44376 12.1385 
26 1 17.9602 9.65883 12.256 
38 1 17.5195 8.3434 12.2381 
42 1 18.1254 6.98821 12.4215 
44 1 20.2012 11.8511 12.835 
48 1 12.5665 7.62117 1.40388 
65 1 19.6257 6.81739 0.151814 
69 1 18.2571 7.0028 0.0565903 
82 1 17.5244 8.3147 0.133856 
86 1 17.9876 9.64129 0.0465718 
96 1 14.0337 8.68958 12.3596 
98 1 19.1622 9.41847 0.248493 
102 1 20.0223 8.13366 0.0565575 
113 1 12.5207 7.63186 10.9302 
1 1 17.9646 9.47802 16.2899 
2 1 18.6731 8.23616 16.8857 
8 1 18.8321 10.2766 15.5566 
9 1 18.6739 8.24593 18.3866 
20 1 14.064 8.69896 25.6838 
21 1 18.1144 7.01478 16.1631 
23 1 19.8079 10.5611 13.3037 
24 1 20.5773 9.52044 14.1538 
25 1 17.5125 10.4493 13.6091 
27 1 17.0296 7.49408 15.4453 
37 1 20.1721 8.26524 16.2961 
39 1 16.4918 8.31997 13.3606 
40 1 16.6212 9.5095 14.2712 
63 1 17.9697 9.53314 21.7807 
64 1 18.6931 8.32904 21.1113 
70 1 16.8804 8.99501 22.5124 
71 1 18.7033 8.27611 19.5928 
72 1 20.2116 11.8251 25.2478 
81 1 19.9821 8.21179 21.94 
83 1 16.5412 8.25191 24.7041 
84 1 16.8663 7.02124 23.8782 
85 1 17.4602 10.5051 24.4349 
87 1 20.0469 9.47045 22.6723 
97 1 18.2461 7.03913 21.8746 
99 1 19.7986 10.5895 24.7588 
100 1 18.4546 10.8825 23.8191 
104 1 15.1581 8.45326 25.2333 
108 1 18.8573 10.3174 22.5076 
111 1 20.5581 9.49834 23.9573 
112 1 17.0775 7.50155 22.5756 
115 1 16.6436 9.49587 23.8127 
118 1 16.8437 8.97902 15.5679 
121 1 16.8625 7.00766 14.0942 
122 1 20.0827 9.46233 15.4597 
125 1 18.4599 10.8559 14.2709 
ITEM: TIMESTEP
50
ITEM: NUMBER OF ATOMS
129
ITEM: BOX BOUNDS xy xz yz pp pp pp
0.0000000000000000e+00 2.3654499999999999e+01 7.8845000000000001e+00
0.0000000000000000e+00 1.3658086643083999e+01 0.0000000000000000e+00
0.0000000000000000e+00 2.5747000000000000e+01 0.0000000000000000e+00
ITEM: ATOMS id type x y z 
18 1 10.3324 6.8152 2.67704 
28 1 5.10901 4.62837 12.8925 
31 1 9.33419 6.5655 0.402733 
62 1 8.95732 5.31596 12.3754 
91 1 9.32744 6.56117 11.9467 
92 1 10.734 6.28152 10.9786 
106 1 10.3524 6.82595 9.68957 
127 1 10.729 6.26921 1.37317 
4 1 4.34646 5.79889 13.3178 
5 1 3.09094 5.6083 14.2414 
43 1 4.62449 6.91581 15.5283 
52 1 8.956 5.31666 25.7064 
66 1 4.42788 5.88162 24.7674 
67 1 5.08864 7.02625 23.8985 
88 1 5.10491 4.6573 25.1611 
107 1 3.13805 5.71702 23.8688 
116 1 4.57023 6.9927 22.6076 
117 1 4.96418 7.01687 14.1068 
129 2 4.92613 7.12854 16.9519 
11 1 11.2387 7.5915 3.41563 
12 1 10.5098 8.7827 4.0815 
14 1 9.02448 11.1938 0.414631 
15 1 10.2527 11.491 1.35823 
16 1 8.28615 8.85666 0.645162 
19 1 10.4664 8.85109 5.56268 
29 1 10.9412 10.0901 3.30215 
32 1 8.58155 7.62593 1.2704 
35 1 12.0835 9.64069 2.58177 
45 1 9.20069 8.92031 3.25249 
47 1 12.7137 8.82793 0.495177 
49 1 11.3842 11.0545 0.677524 
51 1 8.837 10.1395 2.5921 
53 1 11.3266 7.60665 8.95652 
54 1 10.4881 8.83066 8.2483 
56 1 9.02101 11.1954 11.9303 
57 1 8.3316 10.0977 11.04 
58 1 11.4175 10.928 11.6851 
60 1 12.2698 8.09623 9.5675 
61 1 10.459 8.86181 6.77494 
73 1 9.22406 8.92132 9.08117 
75 1 12.6898 8.87831 11.7706 
76 1 12.3569 10.1271 10.9651 
79 1 9.14838 7.64509 9.80354 
80 1 8.34239 12.4356 12.3039 
89 1 10.9521 10.113 8.99398 
93 1 8.26962 8.8419 11.6828 
95 1 10.0382 11.0114 9.70354 
105 1 10.2855 11.4148 11.0204 
109 1 8.58662 7.62626 11.0617 
110 1 12.1117 9.67188 9.69034 
114 1 8.84864 10.1441 9.75349 
119 1 8.31864 10.0895 1.30118 
120 1 12.2942 8.16572 2.68514 
123 1 12.2966 10.1266 1.2319 
124 1 9.13002 7.65558 2.54859 
128 1 10.0266 11.014 2.65982 
6 1 5.09095 8.3085 13.5132 
13 1 9.67722 10.2002 25.147 
17 1 9.10824 8.92644 25.1365 
30 1 9.89927 7.72819 25.0191 
34 1 11.2197 7.49209 25.1304 
36 1 8.33479 12.4312 25.76 
46 1 11.6935 8.79531 25.1119 
50 1 11.0983 10.1727 25.2617 
55 1 9.62825 10.2011 13.0096 
59 1 11.0092 10.1572 12.9086 
74 1 11.6521 8.86099 12.9758 
78 1 11.2191 7.54393 12.9505 
90 1 9.88419 7.73282 13.0604 
94 1 9.08006 8.9148 12.9527 
101 1 5.06814 8.27308 24.5662 
33 1 11.6678 6.69658 0.725165 
77 1 11.6692 6.70881 11.6397 
41 1 17.7621 6.07891 13.5258 
68 1 17.8199 6.23901 24.5511 
103 1 19.1382 6.13265 22.5519 
126 1 19.0489 6.17223 15.4984 
3 1 19.5855 6.94928 12.3519 
7 1 20.1169 8.26838 12.248 
10 1 15.1288 8.44119 12.8123 
22 1 19.2984 9.44647 12.1355 
26 1 17.9691 9.65585 12.2591 
38 1 17.5221 8.34193 12.2358 
42 1 18.1251 6.99037 12.4274 
44 1 20.2363 11.8307 12.8403 
48 1 12.5605 7.63693 1.39945 
65 1 19.6329 6.8186 0.166044 
69 1 18.2592 7.01574 0.0500552 
82 1 17.5302 8.30712 0.14138 
86 1 17.9946 9.64122 0.0434899 
96 1 14.0351 8.69549 12.3559 
98 1 19.1615 9.4076 0.263572 
102 1 20.0221 8.14037 0.0617046 
113 1 12.5147 7.6449 10.9244 
1 1 17.9649 9.44855 16.2943 
2 1 18.6857 8.24664 16.8868 
8 1 18.8575 10.2507 15.5558 
9 1 18.6816 8.23943 18.3806 
20 1 14.0632 8.7042 25.6816 
21 1 18.1132 7.00826 16.1571 
23 1 19.8539 10.5872 13.2906 
24 1 20.5942 9.51778 14.1574 
25 1 17.5224 10.4316 13.6107 
27 1 17.0154 7.47668 15.4555 
37 1 20.1774 8.25608 16.2898 
39 1 16.4857 8.3071 13.359 
40 1 16.6234 9.50035 14.2733 
63 1 17.9699 9.52533 21.7773 
64 1 18.6964 8.33824 21.0907 
70 1 16.89 8.97992 22.5039 
71 1 18.6935 8.27671 19.5873 
72 1 20.2511 11.8017 25.2439 
81 1 19.9873 8.21322 21.9417 
83 1 16.5236 8.24812 24.7083 
84 1 16.8546 7.02063 23.8779 
85 1 17.4765 10.4833 24.43 
87 1 20.0637 9.46872 22.6671 
97 1 18.2398 7.05049 21.8679 
99 1 19.8248 10.5995 24.7663 
100 1 18.4608 10.8784 23.8095 
104 1 15.1599 8.44337 25.2341 
108 1 18.8675 10.3114 22.5136 
111 1 20.5685 9.50679 23.9575 
112 1 17.0685 7.48645 22.5708 
115 1 16.6521 9.47595 23.8049 
118 1 16.8432 8.96748 15.5612 
121 1 16.8416 6.99869 14.0854 
122 1 20.1113 9.48175 15.4632 
125 1 18.4613 10.8412 14.2767 
ITEM: TIMESTEP
60
ITEM: NUMBER OF ATOMS
129
ITEM: BOX BOUNDS xy xz yz pp pp pp
0.0000000000000000e+00 2.3654499999999999e+01 7.8845000000000001e+00
0.0000000000000000e+00 1.3658086643083999e+01 0.0000000000000000e+00
0.0000000000000000e+00 2.5747000000000000e+01 0.0000000000000000e+00
ITEM: ATOMS id type x y z 
18 1 10.3348 6.8202 2.67907 
28 1 5.10719 4.64034 12.8932 
31 1 9.33078 6.57696 0.406636 
62 1 8.92634 5.30697 12.3825 
91 1 9.32804 6.58283 11.9372 
92 1 10.7191 6.28829 10.9856 
106 1 10.3457 6.83153 9.69063 
127 1 10.7132 6.27663 1.36917 
4 1 4.34329 5.81062 13.3239 
5 1 3.08814 5.61344 14.2441 
43 1 4.63002 6.9151 15.5323 
52 1 8.9267 5.31524 25.7026 
66 1 4.42552 5.89304 24.7677 
67 1 5.08877 7.03823 23.8983 
88 1 5.11008 4.66157 25.1571 
107 1 3.14032 5.72543 23.8721 
116 1 4.57398 6.99657 22.6131 
117 1 4.96453 7.02902 14.1044 
129 2 4.94686 7.13894 16.9486 
11 1 11.2328 7.5856 3.41199 
12 1 10.5047 8.7837 4.07554 
14 1 9.02667 11.1844 0.42044 
15 1 10.2535 11.4853 1.35922 
16 1 8.27656 8.8448 0.641341 
19 1 10.4648 8.84862 5.56365 
29 1 10.9411 10.089 3.29826 
32 1 8.57058 7.62023 1.26985 
35 1 12.0853 9.64603 2.58187 
45 1 9.19865 8.91808 3.25384 
47 1 12.7066 8.83179 0.497141 
49 1 11.3872 11.0609 0.677906 
51 1 8.83182 10.1345 2.5879 
53 1 11.3245 7.60899 8.95753 
54 1 10.4886 8.82616 8.24809 
56 1 9.02424 11.1848 11.9324 
57 1 8.32389 10.0886 11.0418 
58 1 11.4218 10.9277 11.6883 
60 1 12.2689 8.10349 9.56388 
61 1 10.4575 8.86013 6.77539 
73 1 9.22171 8.91987 9.08403 
75 1 12.6864 8.88661 11.7716 
76 1 12.363 10.1309 10.9613 
79 1 9.1415 7.64703 9.79957 
80 1 8.33936 12.4269 12.3061 
89 1 10.9509 10.1099 8.996 
93 1 8.26027 8.84168 11.6916 
95 1 10.0347 11.0081 9.70568 
105 1 10.2867 11.4085 11.0224 
109 1 8.5754 7.61281 11.0689 
110 1 12.1165 9.67628 9.68606 
114 1 8.84707 10.1424 9.75753 
119 1 8.31626 10.0879 1.30009 
120 1 12.2931 8.17423 2.67852 
123 1 12.3016 10.135 1.23472 
124 1 9.11329 7.65576 2.54306 
128 1 10.0243 11.0133 2.65718 
6 1 5.09634 8.307 13.5125 
13 1 9.67752 10.1925 25.1493 
17 1 9.10471 8.92424 25.1357 
30 1 9.89114 7.72751 25.0189 
34 1 11.2244 7.49251 25.1254 
36 1 8.33081 12.4215 25.7553 
46 1 11.6918 8.79383 25.1107 
50 1 11.1015 10.1723 25.2629 
55 1 9.62617 10.1976 13.0079 
59 1 11.0108 10.1577 12.908 
74 1 11.6486 8.85899 12.9728 
78 1 11.2213 7.54388 12.9557 
90 1 9.8801 7.73124 13.0637 
94 1 9.06861 8.91127 12.954 
101 1 5.07196 8.27348 24.5679 
33 1 11.6638 6.7022 0.729349 
77 1 11.664 6.71657 11.6356 
41 1 17.7568 6.07278 13.5267 
68 1 17.8142 6.24076 24.5525 
103 1 19.1374 6.13909 22.5479 
126 1 19.0575 6.18034 15.5006 
3 1 19.5824 6.95188 12.3577 
7 1 20.1221 8.26934 12.247 
10 1 15.1266 8.43877 12.8083 
22 1 19.3035 9.44833 12.1357 
26 1 17.9699 9.65908 12.2576 
38 1 17.5248 8.3443 12.239 
42 1 18.1211 6.99011 12.4324 
44 1 20.2644 11.8325 12.8392 
48 1 12.5565 7.64198 1.4003 
65 1 19.6325 6.82333 0.168031 
69 1 18.2638 7.01601 0.0540519 
82 1 17.5233 8.30744 0.139784 
86 1 17.998 9.63649 0.0441785 
96 1 14.0342 8.69845 12.3516 
98 1 19.1699 9.40677 0.272745 
102 1 20.0273 8.14577 0.0701659 
113 1 12.509 7.65612 10.9256 
1 1 17.9689 9.44671 16.2842 
2 1 18.6901 8.23364 16.8834 
8 1 18.8595 10.2444 15.5575 
9 1 18.6819 8.23877 18.3768 
20 1 14.0675 8.70769 25.6787 
21 1 18.112 7.01311 16.1568 
23 1 19.8526 10.5746 13.2966 
24 1 20.6091 9.52747 14.1602 
25 1 17.5281 10.4272 13.6167 
27 1 17.0014 7.4648 15.4526 
37 1 20.1904 8.26519 16.294 
39 1 16.4853 8.30893 13.3554 
40 1 16.6261 9.49173 14.2722 
63 1 17.9752 9.52637 21.7771 
64 1 18.6981 8.33819 21.0933 
70 1 16.8897 8.97462 22.5006 
71 1 18.6927 8.27523 19.584 
72 1 20.2806 11.798 25.2459 
81 1 19.9898 8.21427 21.9393 
83 1 16.5358 8.24107 24.7068 
84 1 16.8492 7.01554 23.876 
85 1 17.4843 10.4726 24.4266 
87 1 20.0721 9.47018 22.6663 
97 1 18.2437 7.05344 21.8683 
99 1 19.8246 10.5947 24.7608 
100 1 18.4731 10.8755 23.8125 
104 1 15.1601 8.43813 25.2337 
108 1 18.8723 10.3074 22.5071 
111 1 20.5783 9.51074 23.9557 
112 1 17.0628 7.48023 22.5647 
115 1 16.6581 9.46848 23.802 
118 1 16.847 8.95653 15.562 
121 1 16.8346 6.99492 14.0867 
122 1 20.1266 9.48099 15.4624 
125 1 18.4783 10.8318 14.2728 
ITEM: TIMESTEP
70
ITEM: NUMBER OF ATOMS
129
ITEM: BOX BOUNDS xy xz yz pp pp pp
0.0000000000000000e+00 2.3654499999999999e+01 7.8845000000000001e+00
0.0000000000000000e+00 1.3658086643083999e+01 0.0000000000000000e+00
0.0000000000000000e+00 2.5747000000000000e+01 0.0000000000000000e+00
ITEM: ATOMS id type x y z 
18 1 10.3253 6.82441 2.67688 
28 1 5.10827 4.64869 12.8923 
31 1 9.31866 6.57658 0.403591 
62 1 8.89837 5.31688 12.3842 
91 1 9.31739 6.57721 11.9434 
92 1 10.7082 6.29788 10.989 
106 1 10.3404 6.83735 9.69262 
127 1 10.7033 6.28387 1.36637 
4 1 4.34166 5.81678 13.3297 
5 1 3.08358 5.61936 14.2489 
43 1 4.63887 6.92064 15.5331 
52 1 8.8967 5.31928 25.6995 
66 1 4.42777 5.90188 24.7709 
67 1 5.09076 7.04606 23.9005 
88 1 5.11493 4.66808 25.1522 
107 1 3.13862 5.7322 23.8721 
116 1 4.57785 7.00087 22.6141 
117 1 4.9647 7.03771 14.1067 
129 2 4.97202 7.14738 16.9462 
11 1 11.2309 7.59006 3.4098 
12 1 10.5037 8.7817 4.07542 
14 1 9.02711 11.1787 0.421362 
15 1 10.255 11.4823 1.35798 
16 1 8.26655 8.83886 0.638971 
19 1 10.463 8.84615 5.56329 
29 1 10.9394 10.0863 3.2961 
32 1 8.55795 7.61978 1.27043 
35 1 12.0859 9.6523 2.58152 
45 1 9.1934 8.91776 3.25026 
47 1 12.7111 8.83721 0.494319 
49 1 11.3904 11.0645 0.678638 
51 1 8.82859 10.1304 2.58455 
53 1 11.3217 7.6118 8.95845 
54 1 10.4855 8.82524 8.24815 