ITEM: TIMESTEP
0
ITEM: NUMBER OF ATOMS
57
ITEM: BOX BOUNDS pp pp pp
0.0000000000000000e+00 3.2808000000000000e+01
0.0000000000000000e+00 1.7780000000000001e+01
0.0000000000000000e+00 2.4729999999999999e+00
ITEM: ATOMS id type x y z 
13 1 7.043 0.849 2.464 
29 1 7.397 1.432 1.228 
37 1 8.035 2.733 1.228 
1 1 6.173 17.398 2.464 
5 1 5.371 17.398 1.228 
9 1 3.973 17.398 1.228 
16 1 7.043 16.167 2.464 
32 1 7.397 15.584 1.228 
40 1 8.035 14.283 1.228 
45 1 3.236 17.398 2.464 
49 1 1.81 17.398 2.464 
53 1 1.083 17.398 1.228 
4 1 10.968 8.508 2.464 
8 1 11.771 8.508 1.228 
12 1 13.168 8.508 1.228 
18 1 10.098 7.277 2.464 
21 1 8.308 3.392 2.464 
26 1 8.833 4.734 2.464 
34 1 9.745 6.694 1.228 
42 1 9.106 5.393 1.228 
48 1 13.906 8.508 2.464 
52 1 15.331 8.508 2.464 
56 1 16.058 8.508 1.228 
57 2 8.747 1.332 1.228 
19 1 10.098 9.739 2.464 
24 1 8.308 13.624 2.464 
27 1 8.833 12.282 2.464 
35 1 9.745 10.322 1.228 
43 1 9.106 11.623 1.228 
3 1 22.577 8.508 2.464 
7 1 21.775 8.508 1.228 
11 1 20.377 8.508 1.228 
20 1 23.447 7.277 2.464 
36 1 23.801 6.694 1.228 
44 1 24.439 5.393 1.228 
47 1 19.64 8.508 2.464 
51 1 18.214 8.508 2.464 
55 1 17.487 8.508 1.228 
17 1 23.447 9.739 2.464 
33 1 23.801 10.322 1.228 
41 1 24.439 11.623 1.228 
15 1 26.502 0.849 2.464 
23 1 25.237 3.392 2.464 
28 1 24.712 4.734 2.464 
31 1 26.149 1.432 1.228 
39 1 25.511 2.733 1.228 
2 1 27.373 17.398 2.464 
6 1 28.175 17.398 1.228 
10 1 29.572 17.398 1.228 
14 1 26.502 16.167 2.464 
22 1 25.237 13.624 2.464 
25 1 24.712 12.282 2.464 
30 1 26.149 15.584 1.228 
38 1 25.511 14.283 1.228 
46 1 30.31 17.398 2.464 
50 1 31.735 17.398 2.464 
54 1 32.462 17.398 1.228 
ITEM: TIMESTEP
10
ITEM: NUMBER OF ATOMS
57
ITEM: BOX BOUNDS pp pp pp
0.0000000000000000e+00 3.2808000000000000e+01
0.0000000000000000e+00 1.7780000000000001e+01
0.0000000000000000e+00 2.4729999999999999e+00
ITEM: ATOMS id type x y z 
13 1 6.99429 0.839711 2.46428 
29 1 7.37749 1.45383 1.22777 
37 1 8.07137 2.70412 1.22776 
1 1 6.16246 17.381 2.46423 
5 1 5.35269 17.3775 1.22774 
9 1 3.96509 17.398 1.22776 
16 1 7.04642 16.1585 2.46425 
32 1 7.40314 15.5791 1.22776 
40 1 8.03809 14.2806 1.22775 
45 1 3.22853 17.3983 2.46425 
49 1 1.80048 17.3981 2.46425 
53 1 1.07738 17.398 1.22775 
4 1 10.9722 8.50921 2.46424 
8 1 11.7745 8.50902 1.22775 
12 1 13.1711 8.50798 1.22776 
18 1 10.0991 7.28144 2.46425 
21 1 8.30623 3.42203 2.46425 
26 1 8.82773 4.73573 2.46425 
34 1 9.7449 6.6975 1.22775 
42 1 9.10994 5.40624 1.22775 
48 1 13.9072 8.50798 2.46425 
52 1 15.3335 8.508 2.46425 
56 1 16.0591 8.508 1.22775 
57 2 8.83673 1.3611 1.22795 
19 1 10.0977 9.73836 2.46425 
24 1 8.31074 13.618 2.46425 
27 1 8.83357 12.2801 2.46425 
35 1 9.74425 10.3207 1.22775 
43 1 9.10746 11.618 1.22775 
3 1 22.5772 8.508 2.46424 
7 1 21.775 8.508 1.22775 
11 1 20.3777 8.508 1.22776 
20 1 23.447 7.27672 2.46425 
36 1 23.8009 6.69379 1.22775 
44 1 24.4385 5.39274 1.22775 
47 1 19.6406 8.508 2.46425 
51 1 18.215 8.508 2.46425 
55 1 17.489 8.508 1.22775 
17 1 23.447 9.73928 2.46425 
33 1 23.8009 10.3222 1.22775 
41 1 24.4385 11.6233 1.22775 
15 1 26.5014 0.849632 2.46425 
23 1 25.2373 3.39256 2.46425 
28 1 24.7118 4.73364 2.46425 
31 1 26.1484 1.4332 1.22775 
39 1 25.5111 2.73373 1.22775 
2 1 27.3689 17.398 2.46424 
6 1 28.1728 17.398 1.22775 
10 1 29.5676 17.398 1.22776 
14 1 26.5014 16.1664 2.46425 
22 1 25.2373 13.6234 2.46425 
25 1 24.7118 12.2824 2.46425 
30 1 26.1484 15.5828 1.22775 
38 1 25.5111 14.2823 1.22775 
46 1 30.3039 17.398 2.46425 
50 1 31.7303 17.398 2.46425 
54 1 32.4539 17.398 1.22775 
ITEM: TIMESTEP
20
ITEM: NUMBER OF ATOMS
57
ITEM: BOX BOUNDS pp pp pp
0.0000000000000000e+00 3.2808000000000000e+01
0.0000000000000000e+00 1.7780000000000001e+01
0.0000000000000000e+00 2.4729999999999999e+00
ITEM: ATOMS id type x y z 
13 1 6.9523 0.845003 2.46428 
29 1 7.39655 1.40406 1.22778 
37 1 8.14697 2.69748 1.22777 
1 1 6.15274 17.3679 2.46425 
5 1 5.34205 17.3452 1.22775 
9 1 3.95588 17.3959 1.22775 
16 1 7.05056 16.1547 2.46425 
32 1 7.4083 15.5788 1.22775 
40 1 8.04245 14.2795 1.22775 
45 1 3.22036 17.3999 2.46425 
49 1 1.79233 17.3987 2.46425 
53 1 1.0692 17.398 1.22775 
4 1 10.9789 8.51435 2.46425 
8 1 11.7807 8.51135 1.22775 
12 1 13.1752 8.50806 1.22775 
18 1 10.0996 7.28911 2.46425 
21 1 8.29912 3.44099 2.46427 
26 1 8.82001 4.74753 2.46425 
34 1 9.74544 6.70801 1.22775 
42 1 9.10791 5.41647 1.22775 
48 1 13.9109 8.50789 2.46425 
52 1 15.3379 8.50796 2.46425 
56 1 16.062 8.508 1.22775 
57 2 8.8624 1.4093 1.2279 
19 1 10.0973 9.73629 2.46425 
24 1 8.3127 13.616 2.46425 
27 1 8.83376 12.2775 2.46425 
35 1 9.74192 10.3171 1.22775 
43 1 9.10601 11.615 1.22775 
3 1 22.5786 8.508 2.46425 
7 1 21.7756 8.508 1.22775 
11 1 20.3799 8.508 1.22775 
20 1 23.4484 7.2774 2.46425 
36 1 23.8014 6.69454 1.22775 
44 1 24.4379 5.39446 1.22775 
47 1 19.6437 8.508 2.46425 
51 1 18.2173 8.508 2.46425 
55 1 17.4926 8.508 1.22775 
17 1 23.4484 9.7386 2.46425 
33 1 23.8014 10.3215 1.22775 
41 1 24.4379 11.6215 1.22775 
15 1 26.4964 0.850763 2.46425 
23 1 25.2363 3.39557 2.46425 
28 1 24.7112 4.73468 2.46425 
31 1 26.1452 1.43522 1.22775 
39 1 25.5099 2.73502 1.22775 
2 1 27.3623 17.398 2.46425 
6 1 28.1665 17.398 1.22775 
10 1 29.561 17.398 1.22775 
14 1 26.4964 16.1652 2.46425 
22 1 25.2363 13.6204 2.46425 
25 1 24.7112 12.2813 2.46425 
30 1 26.1452 15.5808 1.22775 
38 1 25.5099 14.281 1.22775 
46 1 30.296 17.398 2.46425 
50 1 31.7232 17.398 2.46425 
54 1 32.4466 17.398 1.22775 
ITEM: TIMESTEP
30
ITEM: NUMBER OF ATOMS
57
ITEM: BOX BOUNDS pp pp pp
0.0000000000000000e+00 3.2808000000000000e+01
0.0000000000000000e+00 1.7780000000000001e+01
0.0000000000000000e+00 2.4729999999999999e+00
ITEM: ATOMS id type x y z 
13 1 6.92665 0.846804 2.46428 
29 1 7.44079 1.33788 1.22778 
37 1 8.20117 2.69907 1.22778 
1 1 6.1462 17.3684 2.46426 
5 1 5.3374 17.3071 1.22775 
9 1 3.94856 17.3865 1.22775 
16 1 7.05456 16.162 2.46425 
32 1 7.41327 15.5843 1.22775 
40 1 8.04669 14.2834 1.22775 
45 1 3.21425 17.4035 2.46425 
49 1 1.78536 17.4014 2.46425 
53 1 1.06319 17.3985 1.22775 
4 1 10.9809 8.52136 2.46425 
8 1 11.783 8.5175 1.22775 
12 1 13.1786 8.50846 1.22775 
18 1 10.0986 7.29729 2.46425 
21 1 8.29827 3.44367 2.46428 
26 1 8.79741 4.76634 2.46426 
34 1 9.74003 6.71729 1.22775 
42 1 9.09524 5.42974 1.22776 
48 1 13.9143 8.50746 2.46425 
52 1 15.3415 8.50777 2.46425 
56 1 16.0666 8.50798 1.22775 
57 2 8.89548 1.42145 1.22784 
19 1 10.0947 9.73797 2.46425 
24 1 8.31426 13.6202 2.46425 
27 1 8.83067 12.2787 2.46425 
35 1 9.73354 10.3166 1.22775 
43 1 9.0986 11.6177 1.22775 
3 1 22.5799 8.508 2.46425 
7 1 21.7774 8.508 1.22774 
11 1 20.3822 8.508 1.22775 
20 1 23.4552 7.28054 2.46425 
36 1 23.8074 6.69706 1.22775 
44 1 24.4406 5.39784 1.22775 
47 1 19.6468 8.508 2.46425 
51 1 18.2203 8.508 2.46425 
55 1 17.496 8.50801 1.22775 
17 1 23.4552 9.73546 2.46425 
33 1 23.8074 10.3189 1.22775 
41 1 24.4406 11.6182 1.22775 
15 1 26.4859 0.848227 2.46425 
23 1 25.235 3.39612 2.46425 
28 1 24.7123 4.73503 2.46425 
31 1 26.1377 1.43283 1.22775 
39 1 25.506 2.7345 1.22775 
2 1 27.3573 17.398 2.46425 
6 1 28.1585 17.398 1.22775 
10 1 29.5544 17.398 1.22775 
14 1 26.4859 16.1678 2.46425 
22 1 25.235 13.6199 2.46425 
25 1 24.7123 12.281 2.46425 
30 1 26.1377 15.5832 1.22775 
38 1 25.506 14.2815 1.22775 
46 1 30.2917 17.398 2.46425 
50 1 31.7152 17.3979 2.46425 
54 1 32.4384 17.3978 1.22775 
ITEM: TIMESTEP
40
ITEM: NUMBER OF ATOMS
57
ITEM: BOX BOUNDS pp pp pp
0.0000000000000000e+00 3.2808000000000000e+01
0.0000000000000000e+00 1.7780000000000001e+01
0.0000000000000000e+00 2.4729999999999999e+00
ITEM: ATOMS id type x y z 
13 1 6.93331 0.848962 2.46428 
29 1 7.45093 1.32596 1.22778 
37 1 8.20764 2.69829 1.22778 
1 1 6.14429 17.369 2.46426 
5 1 5.33598 17.3027 1.22776 
9 1 3.94824 17.3831 1.22775 
16 1 7.05723 16.1626 2.46425 
32 1 7.41514 15.5865 1.22775 
40 1 8.04798 14.2845 1.22775 
45 1 3.21157 17.4038 2.46425 
49 1 1.78441 17.4027 2.46425 
53 1 1.06216 17.3989 1.22775 
4 1 10.9818 8.52068 2.46425 
8 1 11.7839 8.51895 1.22775 
12 1 13.1787 8.50878 1.22775 
18 1 10.0989 7.29846 2.46425 
21 1 8.30254 3.44638 2.46428 
26 1 8.78981 4.77021 2.46426 
34 1 9.7381 6.71839 1.22775 
42 1 9.08929 5.43451 1.22776 
48 1 13.9143 8.50729 2.46425 
52 1 15.341 8.50763 2.46425 
56 1 16.0653 8.50795 1.22775 
57 2 8.90418 1.41618 1.22783 
19 1 10.094 9.73867 2.46425 
24 1 8.31445 13.6223 2.46425 
27 1 8.82942 12.2793 2.46425 
35 1 9.73196 10.3165 1.22775 
43 1 9.09699 11.617 1.22775 
3 1 22.5803 8.508 2.46425 
7 1 21.7776 8.508 1.22775 
11 1 20.3826 8.508 1.22775 
20 1 23.4565 7.28162 2.46425 
36 1 23.8094 6.69872 1.22775 
44 1 24.4419 5.39847 1.22775 
47 1 19.6471 8.508 2.46425 
51 1 18.2201 8.50801 2.46425 
55 1 17.4955 8.50802 1.22775 
17 1 23.4565 9.73438 2.46425 
33 1 23.8094 10.3173 1.22775 
41 1 24.4419 11.6175 1.22775 
15 1 26.4834 0.847229 2.46425 
23 1 25.2343 3.3962 2.46425 
28 1 24.7127 4.73599 2.46425 
31 1 26.1344 1.43221 1.22775 
39 1 25.5045 2.73433 1.22775 
2 1 27.3546 17.398 2.46425 
6 1 28.158 17.398 1.22775 
10 1 29.5523 17.398 1.22775 
14 1 26.4834 16.1688 2.46425 
22 1 25.2343 13.6198 2.46425 
25 1 24.7127 12.28 2.46425 
30 1 26.1344 15.5838 1.22775 
38 1 25.5045 14.2817 1.22775 
46 1 30.2893 17.398 2.46425 
50 1 31.7149 17.3979 2.46425 
54 1 32.4381 17.3977 1.22775 
ITEM: TIMESTEP
50
ITEM: NUMBER OF ATOMS
57
ITEM: BOX BOUNDS pp pp pp
0.0000000000000000e+00 3.2808000000000000e+01
0.0000000000000000e+00 1.7780000000000001e+01
0.0000000000000000e+00 2.4729999999999999e+00
ITEM: ATOMS id type x y z 
13 1 6.95245 0.83645 2.46428 
29 1 7.4901 1.28176 1.22778 
37 1 8.25252 2.69655 1.22778 
1 1 6.13941 17.3701 2.46426 
5 1 5.33208 17.2949 1.22776 
9 1 3.9451 17.3688 1.22776 
16 1 7.06241 16.1675 2.46426 
32 1 7.42367 15.5947 1.22775 
40 1 8.05338 14.2899 1.22775 
45 1 3.20702 17.4021 2.46425 
49 1 1.78091 17.4085 2.46425 
53 1 1.05825 17.4019 1.22775 
4 1 10.9799 8.52383 2.46425 
8 1 11.7819 8.52486 1.22775 
12 1 13.1776 8.51045 1.22775 
18 1 10.0985 7.30022 2.46425 
21 1 8.32363 3.4446 2.46428 
26 1 8.75695 4.78731 2.46427 
34 1 9.73008 6.72488 1.22776 
42 1 9.05818 5.45251 1.22777 
48 1 13.9133 8.50674 2.46425 
52 1 15.3401 8.5069 2.46425 
56 1 16.065 8.50771 1.22775 
57 2 8.93697 1.41019 1.22779 
19 1 10.0912 9.74146 2.46425 
24 1 8.31708 13.6265 2.46425 
27 1 8.82443 12.2809 2.46425 
35 1 9.72637 10.3176 1.22775 
43 1 9.08979 11.6172 1.22775 
3 1 22.5796 8.508 2.46425 
7 1 21.7778 8.508 1.22775 
11 1 20.3821 8.508 1.22775 
20 1 23.462 7.28552 2.46425 
36 1 23.8189 6.70458 1.22775 
44 1 24.448 5.40207 1.22775 
47 1 19.6463 8.50801 2.46425 
51 1 18.2197 8.50804 2.46425 
55 1 17.4948 8.50806 1.22775 
17 1 23.462 9.73048 2.46425 
33 1 23.8189 10.3114 1.22775 
41 1 24.448 11.6139 1.22775 
15 1 26.4731 0.843898 2.46425 
23 1 25.2311 3.39591 2.46425 
28 1 24.7156 4.73867 2.46425 
31 1 26.1214 1.42731 1.22775 
39 1 25.4974 2.73312 1.22775 
2 1 27.3498 17.398 2.46425 
6 1 28.1518 17.398 1.22775 
10 1 29.5468 17.398 1.22775 
14 1 26.4731 16.1721 2.46425 
22 1 25.2311 13.6201 2.46425 
25 1 24.7156 12.2773 2.46425 
30 1 26.1214 15.5887 1.22775 
38 1 25.4974 14.2829 1.22775 
46 1 30.2849 17.3979 2.46425 
50 1 31.7095 17.3975 2.46425 
54 1 32.432 17.3975 1.22775 
ITEM: TIMESTEP
60
ITEM: NUMBER OF ATOMS
57
ITEM: BOX BOUNDS pp pp pp
0.0000000000000000e+00 3.2808000000000000e+01
0.0000000000000000e+00 1.7780000000000001e+01
0.0000000000000000e+00 2.4729999999999999e+00
ITEM: ATOMS id type x y z 
13 1 6.99421 0.804335 2.46427 
29 1 7.53808 1.22572 1.22777 
37 1 8.32671 2.7015 1.22777 
1 1 6.12895 17.3603 2.46426 
5 1 5.32778 17.3201 1.22776 
9 1 3.93504 17.3582 1.22776 
16 1 7.04816 16.1579 2.46426 
32 1 7.43197 15.5974 1.22776 
40 1 8.06402 14.2962 1.22775 
45 1 3.19863 17.3837 2.46426 
49 1 1.77297 17.4131 2.46425 
53 1 1.0527 17.4116 1.22775 
4 1 10.9792 8.52942 2.46425 
8 1 11.7797 8.5269 1.22775 
12 1 13.1757 8.51335 1.22775 
18 1 10.098 7.30341 2.46426 
21 1 8.3653 3.46241 2.46427 
26 1 8.71815 4.81796 2.46427 
34 1 9.71506 6.74061 1.22776 
42 1 9.00232 5.48712 1.22777 
48 1 13.9119 8.50784 2.46425 
52 1 15.337 8.50543 2.46425 
56 1 16.0616 8.50657 1.22775 
57 2 8.9778 1.37956 1.22777 
19 1 10.0877 9.74311 2.46425 
24 1 8.32173 13.6281 2.46425 
27 1 8.81854 12.2792 2.46425 
35 1 9.72507 10.3191 1.22775 
43 1 9.084 11.6168 1.22775 
3 1 22.5791 8.508 2.46425 
7 1 21.7779 8.508 1.22775 
11 1 20.3815 8.508 1.22775 
20 1 23.4639 7.28741 2.46425 
36 1 23.8259 6.70994 1.22775 
44 1 24.4576 5.40641 1.22775 
47 1 19.6436 8.50805 2.46425 
51 1 18.2179 8.50819 2.46425 
55 1 17.4931 8.50805 1.22775 
17 1 23.4639 9.7286 2.46425 
33 1 23.8259 10.3061 1.22775 
41 1 24.4576 11.6096 1.22775 
15 1 26.4643 0.841613 2.46425 
23 1 25.2252 3.39566 2.46425 
28 1 24.721 4.74328 2.46425 
31 1 26.1077 1.42405 1.22775 
39 1 25.4865 2.73056 1.22775 
2 1 27.3425 17.398 2.46425 
6 1 28.1466 17.3981 1.22775 
10 1 29.5407 17.398 1.22775 
14 1 26.4643 16.1744 2.46425 
22 1 25.2252 13.6203 2.46425 
25 1 24.721 12.2727 2.46425 
30 1 26.1077 15.592 1.22775 
38 1 25.4865 14.2854 1.22775 
46 1 30.2825 17.3973 2.46425 
50 1 31.707 17.3963 2.46425 
54 1 32.4232 17.3989 1.22775 
ITEM: TIMESTEP
70
ITEM: NUMBER OF ATOMS
57
ITEM: BOX BOUNDS pp pp pp
0.0000000000000000e+00 3.2808000000000000e+01
0.0000000000000000e+00 1.7780000000000001e+01
0.0000000000000000e+00 2.4729999999999999e+00
ITEM: ATOMS id type x y z 
13 1 6.99844 0.801603 2.46427 
29 1 7.56352 1.20167 1.22777 
37 1 8.36385 2.70256 1.22777 
1 1 6.12883 17.3702 2.46426 
5 1 5.32559 17.3146 1.22776 
9 1 3.93485 17.3568 1.22776 
16 1 7.04214 16.1555 2.46426 
32 1 7.42267 15.5972 1.22776 
40 1 8.06874 14.2976 1.22775 
45 1 3.20021 17.3824 2.46426 
49 1 1.7731 17.4114 2.46425 
53 1 1.04306 17.4129 1.22775 
4 1 10.9819 8.52793 2.46425 
8 1 11.7836 8.53007 1.22775 
12 1 13.1795 8.51343 1.22775 
18 1 10.0935 7.30948 2.46426 
21 1 8.37839 3.46211 2.46427 
26 1 8.69454 4.82633 2.46427 
34 1 9.70335 6.74648 1.22776 
42 1 8.98558 5.49517 1.22777 
48 1 13.9148 8.50823 2.46425 
52 1 15.3432 8.50536 2.46425 
56 1 16.0682 8.50605 1.22775 
57 2 8.9883 1.37053 1.22777 
19 1 10.0883 9.74335 2.46425 
24 1 8.32443 13.6326 2.46425 
27 1 8.81702 12.2803 2.46425 
35 1 9.71999 10.3181 1.22775 
43 1 9.07984 11.6156 1.22775 
3 1 22.5791 8.50801 2.46425 
7 1 21.778 8.508 1.22775 
11 1 20.3822 8.50802 1.22775 
20 1 23.4653 7.28739 2.46425 
36 1 23.827 6.70885 1.22775 
44 1 24.4588 5.41017 1.22775 
47 1 19.6482 8.50813 2.46425 
51 1 18.2213 8.50823 2.46425 
55 1 17.4954 8.50782 1.22775 
17 1 23.4653 9.72863 2.46425 
33 1 23.827 10.3072 1.22775 
41 1 24.4588 11.6058 1.22775 
15 1 26.4594 0.842863 2.46425 
23 1 25.2235 3.39519 2.46425 
28 1 24.7229 4.74409 2.46425 
31 1 26.1052 1.42441 1.22775 
39 1 25.4837 2.73012 1.22775 
2 1 27.3393 17.398 2.46425 
6 1 28.1403 17.3981 1.22775 
10 1 29.5375 17.3977 1.22775 
14 1 26.4595 16.1731 2.46425 
22 1 25.2235 13.6208 2.46425 
25 1 24.7229 12.2719 2.46425 
30 1 26.1052 15.5916 1.22775 
38 1 25.4837 14.2859 1.22775 
46 1 30.2727 17.3967 2.46425 
50 1 31.6989 17.3966 2.46425 
54 1 32.4241 17.4011 1.22775 
ITEM: TIMESTEP
80
ITEM: NUMBER OF ATOMS
57
ITEM: BOX BOUNDS pp pp pp
0.0000000000000000e+00 3.2808000000000000e+01
0.0000000000000000e+00 1.7780000000000001e+01
0.0000000000000000e+00 2.4729999999999999e+00
ITEM: ATOMS id type x y z 
13 1 7.0168 0.791377 2.46427 
29 1 7.58632 1.17164 1.22777 
37 1 8.41814 2.70595 1.22777 
1 1 6.12461 17.3683 2.46426 
5 1 5.32199 17.3177 1.22776 
9 1 3.93146 17.3537 1.22776 
16 1 7.03075 16.1492 2.46426 
32 1 7.41116 15.5902 1.22776 
40 1 8.07012 14.2989 1.22775 
45 1 3.19495 17.3796 2.46426 
49 1 1.76864 17.4094 2.46426 
53 1 1.04378 17.4138 1.22776 
4 1 10.9809 8.52723 2.46426 
8 1 11.7809 8.52983 1.22775 
12 1 13.1769 8.51457 1.22775 
18 1 10.0855 7.31342 2.46426 
21 1 8.40791 3.46143 2.46427 
26 1 8.6716 4.84486 2.46427 
34 1 9.69004 6.75747 1.22776 
42 1 8.96034 5.51225 1.22777 
48 1 13.9133 8.50881 2.46425 
52 1 15.3399 8.50513 2.46425 
56 1 16.0652 8.50538 1.22775 
57 2 9.01041 1.37115 1.22777 
19 1 10.0895 9.74497 2.46425 
24 1 8.33007 13.6347 2.46425 
27 1 8.81654 12.2802 2.46425 
35 1 9.71842 10.3176 1.22775 
43 1 9.07735 11.614 1.22775 
3 1 22.5797 8.50802 2.46425 
7 1 21.779 8.508 1.22775 
11 1 20.3827 8.50808 1.22775 
20 1 23.4675 7.289 2.46425 
36 1 23.8294 6.7118 1.22775 
44 1 24.4641 5.41127 1.22775 
47 1 19.646 8.50825 2.46425 
51 1 18.22 8.5082 2.46425 
55 1 17.495 8.50745 1.22775 
17 1 23.4675 9.72704 2.46425 
33 1 23.8294 10.3042 1.22775 
41 1 24.4641 11.6048 1.22775 
15 1 26.4548 0.840099 2.46425 
23 1 25.2202 3.39543 2.46425 
28 1 24.7259 4.74587 2.46425 
31 1 26.0999 1.42202 1.22775 
39 1 25.4784 2.72855 1.22775 
2 1 27.3375 17.398 2.46425 
6 1 28.1392 17.3981 1.22775 
10 1 29.5344 17.397 1.22775 
14 1 26.4549 16.1759 2.46425 
22 1 25.2202 13.6206 2.46425 
25 1 24.726 12.2702 2.46425 
30 1 26.1 15.594 1.22775 
38 1 25.4784 14.2875 1.22775 
46 1 30.27 17.3958 2.46425 
50 1 31.6973 17.398 2.46425 
54 1 32.4228 17.4041 1.22775 
ITEM: TIMESTEP
90
ITEM: NUMBER OF ATOMS
57
ITEM: BOX BOUNDS pp pp pp
0.0000000000000000e+00 3.2808000000000000e+01
0.0000000000000000e+00 1.7780000000000001e+01
0.0000000000000000e+00 2.4729999999999999e+00
ITEM: ATOMS id type x y z 
13 1 7.02992 0.78363 2.46427 
29 1 7.5966 1.16872 1.22777 
37 1 8.42744 2.70629 1.22777 
1 1 6.12518 17.3692 2.46426 
5 1 5.32245 17.3272 1.22776 
9 1 3.93146 17.353 1.22776 
16 1 7.02447 16.1447 2.46426 
32 1 7.40798 15.5881 1.22776 
40 1 8.06906 14.2983 1.22776 
45 1 3.19514 17.3775 2.46426 
49 1 1.76853 17.4094 2.46426 
53 1 1.04365 17.4136 1.22776 
4 1 10.9792 8.52645 2.46426 
8 1 11.7801 8.52663 1.22775 
12 1 13.1756 8.51501 1.22775 
18 1 10.0827 7.31443 2.46426 
21 1 8.4218 3.4606 2.46427 
26 1 8.66968 4.84799 2.46427 
34 1 9.68376 6.76026 1.22776 
42 1 8.94791 5.51898 1.22776 
48 1 13.912 8.50921 2.46425 
52 1 15.3386 8.50498 2.46425 
56 1 16.0638 8.50527 1.22775 
57 2 9.02009 1.37111 1.22777 
19 1 10.0896 9.74489 2.46425 
24 1 8.33131 13.6345 2.46425 
27 1 8.81744 12.2796 2.46425 
35 1 9.72024 10.3174 1.22775 
43 1 9.07698 11.6148 1.22775 
3 1 22.5791 8.50802 2.46425 
7 1 21.7776 8.50801 1.22775 
11 1 20.3821 8.50815 1.22775 
20 1 23.4667 7.28927 2.46425 
36 1 23.8308 6.71278 1.22775 
44 1 24.4653 5.41203 1.22775 
47 1 19.6458 8.50829 2.46425 
51 1 18.2192 8.50808 2.46425 
55 1 17.4941 8.5073 1.22775 
17 1 23.4667 9.72678 2.46425 
33 1 23.8308 10.3033 1.22775 
41 1 24.4653 11.604 1.22775 
15 1 26.4538 0.840394 2.46425 
23 1 25.2192 3.39536 2.46425 
28 1 24.7267 4.74707 2.46425 
31 1 26.0971 1.42145 1.22775 
39 1 25.4765 2.72878 1.22775 
2 1 27.336 17.3981 2.46425 
6 1 28.1379 17.398 1.22775 
10 1 29.5335 17.3965 1.22775 
14 1 26.454 16.1756 2.46425 
22 1 25.2192 13.6207 2.46425 
25 1 24.7267 12.269 2.46425 
30 1 26.0972 15.5946 1.22775 
38 1 25.4765 14.2873 1.22775 
46 1 30.2698 17.3958 2.46425 
50 1 31.6964 17.3991 2.46425 
54 1 32.4211 17.4047 1.22775 
ITEM: TIMESTEP
100
ITEM: NUMBER OF ATOMS
57
ITEM: BOX BOUNDS pp pp pp
0.0000000000000000e+00 3.2808000000000000e+01
0.0000000000000000e+00 1.7780000000000001e+01
0.0000000000000000e+00 2.4729999999999999e+00
ITEM: ATOMS id type x y z 
13 1 7.07006 0.7627 2.46426 
29 1 7.63605 1.14488 1.22776 
37 1 8.46657 2.70477 1.22777 
1 1 6.12465 17.3772 2.46426 
5 1 5.32198 17.3559 1.22776 
9 1 3.93034 17.3549 1.22776 
16 1 6.99762 16.1341 2.46426 
32 1 7.38654 15.5796 1.22776 
40 1 8.06511 14.2982 1.22776 
45 1 3.19255 17.3702 2.46426 
49 1 1.76703 17.4056 2.46426 
53 1 1.04132 17.4131 1.22776 
4 1 10.9755 8.52121 2.46426 
8 1 11.7756 8.51918 1.22776 
12 1 13.1722 8.51455 1.22775 
18 1 10.0668 7.31671 2.46426 
21 1 8.463 3.45798 2.46427 
26 1 8.65593 4.85539 2.46426 
34 1 9.65654 6.77161 1.22776 
42 1 8.91196 5.53534 1.22776 
48 1 13.9097 8.51108 2.46425 
52 1 15.3356 8.50515 2.46425 
56 1 16.0619 8.50467 1.22775 
57 2 9.05883 1.37559 1.22777 
19 1 10.0933 9.74525 2.46425 
24 1 8.33202 13.6367 2.46426 
27 1 8.81944 12.281 2.46425 
35 1 9.72287 10.3185 1.22775 
43 1 9.07852 11.6164 1.22775 
3 1 22.5781 8.50802 2.46425 
7 1 21.7779 8.50807 1.22775 
11 1 20.3808 8.50837 1.22775 
20 1 23.4665 7.28905 2.46425 
36 1 23.8323 6.71416 1.22775 
44 1 24.4697 5.41415 1.22775 
47 1 19.6441 8.50839 2.46425 
51 1 18.2178 8.50767 2.46425 
55 1 17.4918 8.5067 1.22775 
17 1 23.4665 9.72701 2.46425 
33 1 23.8323 10.3019 1.22775 
41 1 24.4697 11.6019 1.22775 
15 1 26.4506 0.839709 2.46425 
23 1 25.2164 3.39472 2.46425 
28 1 24.7296 4.74895 2.46425 
31 1 26.0922 1.4199 1.22775 
39 1 25.4713 2.72748 1.22775 
2 1 27.3335 17.3981 2.46425 
6 1 28.1355 17.3975 1.22775 
10 1 29.5309 17.3953 1.22775 
14 1 26.4506 16.1763 2.46425 
22 1 25.2164 13.6213 2.46425 
25 1 24.7296 12.2671 2.46425 
30 1 26.0923 15.5961 1.22775 
38 1 25.4714 14.2885 1.22775 
46 1 30.2676 17.396 2.46425 
50 1 31.6939 17.4024 2.46425 
54 1 32.4194 17.4076 1.22775 
ITEM: TIMESTEP
110
ITEM: NUMBER OF ATOMS
57
ITEM: BOX BOUNDS pp pp pp
0.0000000000000000e+00 3.2808000000000000e+01
0.0000000000000000e+00 1.7780000000000001e+01
0.0000000000000000e+00 2.4729999999999999e+00
ITEM: ATOMS id type x y z 
13 1 7.07778 0.751255 2.46426 
29 1 7.65194 1.12926 1.22776 
37 1 8.48897 2.71118 1.22776 
1 1 6.12342 17.3773 2.46426 
5 1 5.32168 17.3629 1.22776 
9 1 3.9291 17.3573 1.22776 
16 1 6.98945 16.1289 2.46426 
32 1 7.37612 15.5742 1.22776 
40 1 8.06134 14.2931 1.22776 
45 1 3.1949 17.3699 2.46426 
49 1 1.76521 17.4031 2.46426 
53 1 1.04099 17.4119 1.22776 
4 1 10.9749 8.52181 2.46426 
8 1 11.7753 8.51609 1.22776 
12 1 13.1708 8.51401 1.22775 
18 1 10.0613 7.32251 2.46426 
21 1 8.46835 3.45713 2.46426 
26 1 8.65283 4.86125 2.46426 
34 1 9.65035 6.77733 1.22776 
42 1 8.90747 5.53924 1.22776 
48 1 13.9074 8.51104 2.46425 
52 1 15.3345 8.50569 2.46425 
56 1 16.0609 8.50481 1.22775 
57 2 9.07202 1.38211 1.22777 
19 1 10.0954 9.74712 2.46425 
24 1 8.33061 13.6366 2.46426 
27 1 8.82219 12.2804 2.46425 
35 1 9.72637 10.3203 1.22775 
43 1 9.08159 11.6184 1.22775 
3 1 22.5777 8.50799 2.46425 
7 1 21.7752 8.50808 1.22775 
11 1 20.3801 8.5084 1.22775 
20 1 23.4649 7.28927 2.46425 
36 1 23.8313 6.7137 1.22775 
44 1 24.4691 5.41479 1.22775 
47 1 19.6437 8.50838 2.46425 
51 1 18.2163 8.50749 2.46425 
55 1 17.49 8.50643 1.22775 
17 1 23.4649 9.72674 2.46425 
33 1 23.8313 10.3023 1.22775 
41 1 24.4691 11.6012 1.22775 
15 1 26.4504 0.840273 2.46425 
23 1 25.2157 3.39514 2.46425 
28 1 24.7298 4.74942 2.46425 
31 1 26.0919 1.42068 1.22775 
39 1 25.4709 2.72799 1.22775 
2 1 27.3321 17.3981 2.46425 
6 1 28.1343 17.3974 1.22775 
10 1 29.5293 17.3955 1.22775 
14 1 26.4502 16.1758 2.46425 
22 1 25.2157 13.6209 2.46425 
25 1 24.7298 12.2666 2.46425 
30 1 26.0919 15.5953 1.22775 
38 1 25.4709 14.288 1.22775 
46 1 30.2666 17.3963 2.46425 
50 1 31.6927 17.4032 2.46425 
54 1 32.4188 17.4086 1.22775 
ITEM: TIMESTEP
120
ITEM: NUMBER OF ATOMS
57
ITEM: BOX BOUNDS pp pp pp
0.0000000000000000e+00 3.2808000000000000e+01
0.0000000000000000e+00 1.7780000000000001e+01
0.0000000000000000e+00 2.4729999999999999e+00
ITEM: ATOMS id type x y z 
13 1 7.08085 0.745327 2.46426 
29 1 7.6595 1.12166 1.22776 
37 1 8.49824 2.71077 1.22776 
1 1 6.12227 17.379 2.46426 
5 1 5.32073 17.3666 1.22776 
9 1 3.92806 17.3583 1.22776 
16 1 6.98604 16.1266 2.46426 
32 1 7.37252 15.5718 1.22776 
40 1 8.05768 14.2967 1.22776 
45 1 3.18994 17.37 2.46426 
49 1 1.76539 17.4021 2.46426 
53 1 1.03953 17.4113 1.22776 
4 1 10.9766 8.52095 2.46426 
8 1 11.7762 8.5148 1.22776 
12 1 13.1728 8.51365 1.22775 
18 1 10.0586 7.32382 2.46426 
21 1 8.47081 3.45893 2.46426 
26 1 8.64957 4.86211 2.46426 
34 1 9.64656 6.77935 1.22776 
42 1 8.90428 5.54298 1.22776 
48 1 13.9093 8.51104 2.46425 
52 1 15.3355 8.50587 2.46425 
56 1 16.061 8.50492 1.22775 
57 2 9.08038 1.38343 1.22777 
19 1 10.0962 9.7478 2.46425 
24 1 8.3308 13.6348 2.46426 
27 1 8.82199 12.2832 2.46425 
35 1 9.72699 10.3208 1.22775 
43 1 9.0829 11.617 1.22775 
3 1 22.5755 8.50798 2.46425 
7 1 21.7756 8.50808 1.22775 
11 1 20.3785 8.50841 1.22775 
20 1 23.4644 7.2893 2.46425 
36 1 23.8305 6.71452 1.22775 
44 1 24.4691 5.41508 1.22775 
47 1 19.642 8.50837 2.46425 
51 1 18.2162 8.5074 2.46425 
55 1 17.4907 8.50635 1.22775 
17 1 23.4644 9.72668 2.46425 
33 1 23.8304 10.3015 1.22775 
41 1 24.4691 11.6009 1.22775 
15 1 26.45 0.840361 2.46425 
23 1 25.2155 3.39528 2.46425 
28 1 24.7296 4.75003 2.46425 
31 1 26.092 1.42035 1.22775 
39 1 25.4706 2.72801 1.22775 
2 1 27.3329 17.398 2.46425 
6 1 28.134 17.3974 1.22775 
10 1 29.5306 17.3955 1.22775 
14 1 26.4498 16.1757 2.46425 
22 1 25.2156 13.6207 2.46425 
25 1 24.7296 12.266 2.46425 
30 1 26.0919 15.5957 1.22775 
38 1 25.4706 14.288 1.22775 
46 1 30.2663 17.3965 2.46425 
50 1 31.693 17.4036 2.46425 
54 1 32.418 17.4089 1.22775 
ITEM: TIMESTEP
130
ITEM: NUMBER OF ATOMS
57
ITEM: BOX BOUNDS pp pp pp
0.0000000000000000e+00 3.2808000000000000e+01
0.0000000000000000e+00 1.7780000000000001e+01
0.0000000000000000e+00 2.4729999999999999e+00
ITEM: ATOMS id type x y z 
13 1 7.07473 0.724901 2.46426 
29 1 7.67372 1.10865 1.22776 
37 1 8.52246 2.71758 1.22776 
1 1 6.12135 17.3764 2.46426 
5 1 5.31937 17.3756 1.22776 
9 1 3.92484 17.3602 1.22776 
16 1 6.98095 16.1247 2.46426 
32 1 7.36685 15.5677 1.22776 
40 1 8.0567 14.2907 1.22776 
45 1 3.19068 17.3698 2.46426 
49 1 1.76223 17.4007 2.46426 
53 1 1.0384 17.4103 1.22776 
4 1 10.974 8.52147 2.46426 
8 1 11.7758 8.51268 1.22776 
12 1 13.1701 8.51297 1.22775 
18 1 10.0546 7.32671 2.46426 
21 1 8.47724 3.45852 2.46426 
26 1 8.64571 4.86756 2.46426 
34 1 9.64077 6.78321 1.22776 
42 1 8.89795 5.54696 1.22776 
48 1 13.908 8.51099 2.46425 
52 1 15.3346 8.50616 2.46425 
56 1 16.0593 8.50509 1.22775 
57 2 9.10497 1.39848 1.22776 
19 1 10.0982 9.74904 2.46426 
24 1 8.32933 13.635 2.46426 
27 1 8.82402 12.282 2.46426 
35 1 9.72889 10.3224 1.22775 
43 1 9.08481 11.6181 1.22776 
3 1 22.5776 8.50796 2.46425 
7 1 21.7746 8.50807 1.22775 
11 1 20.3797 8.50842 1.22775 
20 1 23.464 7.28926 2.46425 
36 1 23.8304 6.71385 1.22775 
44 1 24.4694 5.41468 1.22775 
47 1 19.6438 8.50834 2.46425 
51 1 18.2151 8.50725 2.46425 
55 1 17.4907 8.50623 1.22775 
17 1 23.464 9.72668 2.46425 
33 1 23.8304 10.3021 1.22775 
41 1 24.4693 11.6013 1.22775 
15 1 26.4491 0.840569 2.46425 
23 1 25.2155 3.39503 2.46425 
28 1 24.7295 4.75071 2.46425 
31 1 26.0912 1.421 1.22775 
39 1 25.4696 2.72959 1.22775 
2 1 27.3292 17.398 2.46425 
6 1 28.1326 17.3973 1.22775 
10 1 29.5269 17.3956 1.22775 
14 1 26.4488 16.1755 2.46425 
22 1 25.2155 13.6209 2.46425 
25 1 24.7295 12.2652 2.46425 
30 1 26.091 15.595 1.22775 
38 1 25.4696 14.2864 1.22775 
46 1 30.2643 17.3968 2.46425 
50 1 31.6907 17.4043 2.46425 
54 1 32.4157 17.4093 1.22775 
ITEM: TIMESTEP
140
ITEM: NUMBER OF ATOMS
57
ITEM: BOX BOUNDS pp pp pp
0.0000000000000000e+00 3.2808000000000000e+01
0.0000000000000000e+00 1.7780000000000001e+01
0.0000000000000000e+00 2.4729999999999999e+00
ITEM: ATOMS id type x y z 
13 1 7.08186 0.711116 2.46426 
29 1 7.68947 1.09127 1.22776 
37 1 8.54795 2.72317 1.22776 
1 1 6.11535 17.3728 2.46426 
5 1 5.31751 17.3871 1.22776 
9 1 3.91935 17.3623 1.22776 
16 1 6.98079 16.1248 2.46426 
32 1 7.36484 15.5653 1.22776 
40 1 8.05365 14.2944 1.22776 
45 1 3.1846 17.3695 2.46426 
49 1 1.76068 17.3995 2.46426 
53 1 1.03596 17.4097 1.22776 
4 1 10.9788 8.51834 2.46426 
8 1 11.7766 8.51038 1.22776 
12 1 13.1726 8.51232 1.22775 
18 1 10.0516 7.32885 2.46426 
21 1 8.48249 3.45961 2.46426 
26 1 8.63909 4.87392 2.46426 
34 1 9.63528 6.78776 1.22776 
42 1 8.88965 5.55333 1.22776 
48 1 13.9095 8.51089 2.46425 
52 1 15.3366 8.5064 2.46425 
56 1 16.0607 8.50526 1.22775 
57 2 9.11772 1.40436 1.22776 
19 1 10.1002 9.74836 2.46426 
24 1 8.32957 13.6341 2.46426 
27 1 8.82429 12.283 2.46426 
35 1 9.73069 10.3199 1.22776 
43 1 9.08545 11.6161 1.22776 
3 1 22.5734 8.50795 2.46425 
7 1 21.7742 8.50807 1.22775 
11 1 20.3776 8.50842 1.22775 
20 1 23.4638 7.28963 2.46425 
36 1 23.8304 6.71461 1.22775 
44 1 24.469 5.41748 1.22775 
47 1 19.6402 8.5083 2.46425 
51 1 18.2161 8.50714 2.46425 
55 1 17.4905 8.50616 1.22775 
17 1 23.4639 9.72628 2.46425 
33 1 23.8304 10.3013 1.22775 
41 1 24.469 11.5984 1.22775 
15 1 26.4468 0.840871 2.46425 
23 1 25.2145 3.39642 2.46425 
28 1 24.7297 4.75137 2.46425 
31 1 26.0894 1.42159 1.22775 
39 1 25.4694 2.72738 1.22775 
2 1 27.3295 17.398 2.46425 
6 1 28.1298 17.3973 1.22775 
10 1 29.5252 17.3957 1.22775 
14 1 26.4464 16.1753 2.46425 
22 1 25.2145 13.6195 2.46425 
25 1 24.7297 12.2645 2.46425 
30 1 26.0891 15.5945 1.22775 
38 1 25.4693 14.2885 1.22775 
46 1 30.2619 17.3971 2.46425 
50 1 31.6885 17.4049 2.46425 
54 1 32.4129 17.4097 1.22775 
ITEM: TIMESTEP
145
ITEM: NUMBER OF ATOMS
57
ITEM: BOX BOUNDS pp pp pp
0.0000000000000000e+00 3.2808000000000000e+01
0.0000000000000000e+00 1.7780000000000001e+01
0.0000000000000000e+00 2.4729999999999999e+00
ITEM: ATOMS id type x y z 
13 1 7.08807 0.709667 2.46426 
29 1 7.69312 1.08614 1.22776 
37 1 8.55244 2.72383 1.22776 
1 1 6.11646 17.3746 2.46426 
5 1 5.31737 17.3894 1.22776 
9 1 3.92109 17.3629 1.22776 
16 1 6.97971 16.1251 2.46426 
32 1 7.36466 15.5646 1.22776 
40 1 8.05531 14.2896 1.22776 
45 1 3.1871 17.3693 2.46426 
49 1 1.75879 17.3993 2.46426 
53 1 1.03422 17.4096 1.22776 
4 1 10.9752 8.52074 2.46426 
8 1 11.7766 8.51009 1.22776 
12 1 13.1717 8.51217 1.22775 
18 1 10.0508 7.32958 2.46426 
21 1 8.48457 3.46129 2.46426 
26 1 8.63735 4.87381 2.46426 
34 1 9.63417 6.78909 1.22776 
42 1 8.88746 5.55432 1.22776 
48 1 13.9079 8.51087 2.46425 
52 1 15.3345 8.50645 2.46425 
56 1 16.0599 8.50528 1.22775 
57 2 9.11532 1.40413 1.22776 
19 1 10.1005 9.74904 2.46426 
24 1 8.32963 13.633 2.46426 
27 1 8.82507 12.2817 2.46426 
35 1 9.73098 10.3208 1.22776 
43 1 9.08573 11.6172 1.22776 
3 1 22.5763 8.50794 2.46425 
7 1 21.7739 8.50806 1.22775 
11 1 20.3787 8.50842 1.22775 
20 1 23.4639 7.28961 2.46425 
36 1 23.8306 6.71439 1.22775 
44 1 24.4698 5.41588 1.22775 
47 1 19.6437 8.5083 2.46425 
51 1 18.2158 8.50711 2.46425 
55 1 17.4904 8.50614 1.22775 
17 1 23.464 9.72629 2.46425 
33 1 23.8306 10.3015 1.22775 
41 1 24.4698 11.6 1.22775 
15 1 26.4464 0.840805 2.46425 