ITEM: TIMESTEP
0
ITEM: NUMBER OF ATOMS
81
ITEM: BOX BOUNDS pp pp pp
0.0000000000000000e+00 1.3416000000000000e+01
0.0000000000000000e+00 1.3416000000000000e+01
0.0000000000000000e+00 1.3414999999999999e+01
ITEM: ATOMS id type x y z 
21 1 1.912 1.912 1.912 
22 1 2.794 2.794 2.795 
23 1 0.386 2.099 2.099 
33 1 2.098 2.099 0.386 
37 1 2.099 0.386 2.099 
41 1 4.371 4.372 4.372 
42 1 3.489 3.489 3.489 
43 1 4.184 5.897 4.185 
53 1 4.185 4.185 5.898 
57 1 5.897 4.185 4.185 
4 1 1.912 1.912 11.079 
5 1 2.794 2.794 10.197 
6 1 2.099 0.386 10.892 
16 1 2.098 2.099 12.605 
19 1 0.386 2.099 10.892 
64 1 4.371 4.372 8.62 
65 1 3.489 3.489 9.502 
66 1 5.897 4.185 8.807 
76 1 4.185 4.185 7.094 
79 1 4.184 5.897 8.807 
10 1 1.911 11.079 1.912 
11 1 2.794 10.197 2.795 
12 1 2.099 12.605 2.099 
15 1 2.099 10.892 0.386 
18 1 0.386 10.892 2.099 
67 1 4.372 8.62 4.371 
68 1 3.489 9.502 3.489 
69 1 5.897 8.807 4.185 
74 1 4.185 8.807 5.897 
80 1 4.185 7.094 4.185 
30 1 1.911 11.079 11.079 
31 1 2.794 10.197 10.197 
32 1 0.386 10.892 10.892 
35 1 2.099 10.892 12.605 
38 1 2.099 12.605 10.892 
47 1 4.372 8.62 8.62 
48 1 3.489 9.502 9.502 
49 1 4.184 7.094 8.807 
54 1 4.184 8.807 7.094 
60 1 5.897 8.807 8.807 
7 1 11.08 1.912 1.912 
8 1 10.197 2.794 2.795 
9 1 10.893 0.386 2.099 
14 1 10.893 2.099 0.386 
20 1 12.606 2.099 2.099 
70 1 8.62 4.372 4.372 
71 1 9.502 3.489 3.489 
72 1 7.094 4.185 4.185 
75 1 8.807 4.185 5.897 
78 1 8.807 5.898 4.185 
27 1 11.08 1.912 11.079 
28 1 10.197 2.794 10.197 
29 1 12.606 2.099 10.892 
34 1 10.893 2.099 12.605 
40 1 10.893 0.386 10.892 
50 1 8.62 4.372 8.62 
51 1 9.502 3.489 9.502 
52 1 8.807 5.897 8.807 
55 1 8.807 4.185 7.094 
58 1 7.094 4.185 8.807 
24 1 11.08 11.08 1.912 
25 1 10.197 10.197 2.795 
26 1 12.606 10.892 2.099 
36 1 10.893 10.892 0.386 
39 1 10.893 12.605 2.099 
44 1 8.62 8.62 4.372 
45 1 9.502 9.502 3.489 
46 1 8.807 7.094 4.185 
56 1 8.807 8.807 5.898 
59 1 7.094 8.807 4.185 
1 1 11.08 11.079 11.079 
2 1 10.197 10.197 10.197 
3 1 10.893 12.605 10.892 
13 1 10.893 10.892 12.605 
17 1 12.606 10.892 10.892 
61 1 8.62 8.62 8.62 
62 1 9.502 9.502 9.502 
63 1 7.094 8.807 8.807 
73 1 8.807 8.807 7.094 
77 1 8.807 7.094 8.807 
81 2 9.646 11.142 10.091 
ITEM: TIMESTEP
10
ITEM: NUMBER OF ATOMS
81
ITEM: BOX BOUNDS pp pp pp
0.0000000000000000e+00 1.3416000000000000e+01
0.0000000000000000e+00 1.3416000000000000e+01
0.0000000000000000e+00 1.3414999999999999e+01
ITEM: ATOMS id type x y z 
21 1 1.9104 1.91048 1.91097 
22 1 2.79582 2.79547 2.79593 
23 1 0.383734 2.10327 2.10328 
33 1 2.10232 2.10328 0.38391 
37 1 2.10332 0.38356 2.10326 
41 1 4.37263 4.37294 4.37324 
42 1 3.48774 3.48798 3.48794 
43 1 4.17986 5.89893 4.18064 
53 1 4.18067 4.18072 5.89892 
57 1 5.8999 4.18074 4.18072 
4 1 1.91044 1.91054 11.0804 
5 1 2.79482 2.796 10.1955 
6 1 2.10352 0.386194 10.8878 
16 1 2.10232 2.1033 12.6071 
19 1 0.384085 2.10328 10.8878 
64 1 4.37257 4.37328 8.61862 
65 1 3.48832 3.48752 9.50334 
66 1 5.899 4.18086 8.81127 
76 1 4.18074 4.18079 7.09321 
79 1 4.17981 5.89939 8.81127 
10 1 1.91031 11.0809 1.91142 
11 1 2.79531 10.1951 2.79529 
12 1 2.10325 12.6073 2.10335 
15 1 2.10342 10.8877 0.387449 
18 1 0.385725 10.8877 2.10344 
67 1 4.37306 8.61815 4.3727 
68 1 3.48799 9.50392 3.48846 
69 1 5.89901 8.81123 4.18076 
74 1 4.18067 8.81113 5.89933 
80 1 4.18064 7.09263 4.18086 
30 1 1.90715 11.0797 11.0794 
31 1 2.7954 10.1951 10.1949 
32 1 0.394325 10.8874 10.8858 
35 1 2.10326 10.8874 12.6053 
38 1 2.10331 12.6061 10.8874 
47 1 4.36996 8.61765 8.61774 
48 1 3.48775 9.50281 9.50275 
49 1 4.17975 7.09205 8.81114 
54 1 4.17997 8.81124 7.09179 
60 1 5.90245 8.81149 8.8113 
7 1 11.0812 1.91054 1.91078 
8 1 10.1953 2.79567 2.79537 
9 1 10.8888 0.3856 2.10338 
14 1 10.8888 2.10326 0.384226 
20 1 12.608 2.10327 2.10326 
70 1 8.61798 4.37289 4.37305 
71 1 9.50403 3.48784 3.48852 
72 1 7.09125 4.18083 4.18081 
75 1 8.81129 4.18087 5.89975 
78 1 8.81124 5.89936 4.18085 
27 1 11.0809 1.90793 11.0799 
28 1 10.196 2.79453 10.1957 
29 1 12.6071 2.10299 10.8876 
34 1 10.8887 2.10299 12.6063 
40 1 10.8873 0.380964 10.8873 
50 1 8.61797 4.36975 8.61806 
51 1 9.50383 3.48713 9.50362 
52 1 8.8114 5.89057 8.81137 
55 1 8.81116 4.18066 7.09158 
58 1 7.09196 4.18063 8.81116 
24 1 11.0806 11.0802 1.90824 
25 1 10.1955 10.1954 2.79532 
26 1 12.6065 10.8876 2.10322 
36 1 10.8865 10.8881 0.391713 
39 1 10.8886 12.6064 2.10326 
44 1 8.61784 8.61805 4.37016 
45 1 9.5034 9.50345 3.48788 
46 1 8.81123 7.09238 4.18059 
56 1 8.81137 8.81156 5.90263 
59 1 7.09215 8.81125 4.18062 
1 1 11.1433 11.1108 11.1328 
2 1 10.1506 10.1979 10.1645 
3 1 10.8932 12.6035 10.8914 
13 1 10.8929 10.8885 12.6112 
17 1 12.617 10.8873 10.8903 
61 1 8.63429 8.63172 8.63302 
62 1 9.48882 9.42412 9.46987 
63 1 7.08373 8.81331 8.81313 
73 1 8.81304 8.81291 7.08364 
77 1 8.81305 7.09017 8.81266 
81 2 9.61162 11.1981 10.0836 
ITEM: TIMESTEP
20
ITEM: NUMBER OF ATOMS
81
ITEM: BOX BOUNDS pp pp pp
0.0000000000000000e+00 1.3416000000000000e+01
0.0000000000000000e+00 1.3416000000000000e+01
0.0000000000000000e+00 1.3414999999999999e+01
ITEM: ATOMS id type x y z 
21 1 1.91153 1.9105 1.90854 
22 1 2.79384 2.79701 2.79654 
23 1 0.384071 2.11865 2.11922 
33 1 2.11823 2.11862 0.386021 
37 1 2.11887 0.384693 2.11891 
41 1 4.37377 4.37298 4.3715 
42 1 3.48672 3.48629 3.4895 
43 1 4.16444 5.89929 4.16474 
53 1 4.16472 4.1648 5.89873 
57 1 5.89999 4.1649 4.16487 
4 1 1.9091 1.91451 11.0803 
5 1 2.79996 2.79135 10.1952 
6 1 2.1197 0.389361 10.8714 
16 1 2.11823 2.11931 12.608 
19 1 0.382712 2.11955 10.8721 
64 1 4.37369 4.37196 8.61885 
65 1 3.48308 3.49223 9.50383 
66 1 5.89765 4.16551 8.82763 
76 1 4.16467 4.16482 7.09244 
79 1 4.16468 5.89989 8.8278 
10 1 1.91279 11.0799 1.91253 
11 1 2.79743 10.2 2.80066 
12 1 2.1191 12.6084 2.1194 
15 1 2.11983 10.8714 0.389877 
18 1 0.388207 10.8717 2.12019 
67 1 4.37348 8.61994 4.37465 
68 1 3.48675 9.49802 3.48422 
69 1 5.89917 8.82753 4.16545 
74 1 4.1652 8.82738 5.89972 
80 1 4.16432 7.09204 4.16491 
30 1 1.93013 11.0805 11.0791 
31 1 2.79841 10.1913 10.1911 
32 1 0.412873 10.862 10.8602 
35 1 2.1213 10.87 12.6145 
38 1 2.12157 12.6158 10.8701 
47 1 4.36719 8.6141 8.61397 
48 1 3.48845 9.49749 9.49734 
49 1 4.16288 7.09261 8.82579 
54 1 4.16352 8.8259 7.09214 
60 1 5.90269 8.8286 8.82636 
7 1 11.0806 1.91331 1.90879 
8 1 10.2004 2.79634 2.80009 
9 1 10.8729 0.389222 2.11946 
14 1 10.8733 2.11915 0.383805 
20 1 12.6073 2.11889 2.11893 
70 1 8.61914 4.37327 4.37396 
71 1 9.4992 3.48684 3.48335 
72 1 7.09215 4.16514 4.16495 
75 1 8.82735 4.16567 5.89724 
78 1 8.8273 5.89884 4.16576 
27 1 11.0807 1.90427 11.0805 
28 1 10.1962 2.79154 10.1949 
29 1 12.6059 2.11728 10.8718 
34 1 10.8729 2.11739 12.6067 
40 1 10.8679 0.393735 10.8679 
50 1 8.61716 4.35871 8.61724 
51 1 9.50364 3.48269 9.50415 
52 1 8.82837 5.88483 8.82794 
55 1 8.82664 4.16296 7.09118 
58 1 7.09163 4.16289 8.82659 
24 1 11.0791 11.0799 1.92273 
25 1 10.1929 10.1929 2.79698 
26 1 12.6121 10.8701 2.12048 
36 1 10.8618 10.8652 0.407062 
39 1 10.8713 12.6134 2.12073 
44 1 8.61568 8.61556 4.36635 
45 1 9.49939 9.49935 3.48689 
46 1 8.82618 7.09151 4.16349 
56 1 8.82656 8.82858 5.89492 
59 1 7.09187 8.82624 4.1634 
1 1 11.1737 11.1289 11.1583 
2 1 10.0244 10.2448 10.0862 
3 1 10.9085 12.6107 10.9014 
13 1 10.8924 10.8808 12.6241 
17 1 12.634 10.8751 10.8849 
61 1 8.61718 8.58392 8.61715 
62 1 9.50446 9.35031 9.45803 
63 1 7.09199 8.83347 8.83274 
73 1 8.8332 8.83102 7.08505 
77 1 8.8322 7.07743 8.82914 
81 2 9.59944 11.273 10.1042 
ITEM: TIMESTEP
30
ITEM: NUMBER OF ATOMS
81
ITEM: BOX BOUNDS pp pp pp
0.0000000000000000e+00 1.3416000000000000e+01
0.0000000000000000e+00 1.3416000000000000e+01
0.0000000000000000e+00 1.3414999999999999e+01
ITEM: ATOMS id type x y z 
21 1 1.91111 1.91072 1.90934 
22 1 2.79423 2.79677 2.79676 
23 1 0.384335 2.11902 2.11957 
33 1 2.11877 2.11905 0.385846 
37 1 2.11932 0.38507 2.11928 
41 1 4.37366 4.37265 4.37207 
42 1 3.4866 3.48667 3.48926 
43 1 4.1641 5.89923 4.1643 
53 1 4.16439 4.16449 5.89889 
57 1 5.89942 4.16457 4.16443 
4 1 1.90926 1.91486 11.0808 
5 1 2.7995 2.79218 10.1951 
6 1 2.11993 0.388702 10.8708 
16 1 2.11854 2.11976 12.6072 
19 1 0.382662 2.12004 10.8717 
64 1 4.37345 4.37276 8.61887 
65 1 3.48367 3.49163 9.50387 
66 1 5.89719 4.16512 8.82798 
76 1 4.16435 4.16443 7.09192 
79 1 4.16433 5.89879 8.82804 
10 1 1.91313 11.0805 1.91345 
11 1 2.79748 10.1993 2.80027 
12 1 2.11951 12.608 2.11985 
15 1 2.12019 10.8707 0.388513 
18 1 0.386449 10.871 2.12055 
67 1 4.37349 8.61918 4.37424 
68 1 3.48694 9.49858 3.48484 
69 1 5.89817 8.82794 4.16509 
74 1 4.16479 8.82781 5.89878 
80 1 4.16399 7.09251 4.16464 
30 1 1.9266 11.0815 11.0802 
31 1 2.79904 10.1912 10.191 
32 1 0.414638 10.862 10.8606 
35 1 2.12187 10.8703 12.6125 
38 1 2.12216 12.6136 10.8704 
47 1 4.36856 8.61467 8.61435 
48 1 3.48809 9.49791 9.49777 
49 1 4.16241 7.09195 8.82632 
54 1 4.16301 8.82636 7.0923 
60 1 5.90188 8.82936 8.82655 
7 1 11.0809 1.91372 1.90941 
8 1 10.1997 2.79653 2.79959 
9 1 10.8722 0.387558 2.11978 
14 1 10.8728 2.11971 0.383923 
20 1 12.6074 2.11937 2.11932 
70 1 8.61889 4.37315 4.37343 
71 1 9.49983 3.48682 3.48388 
72 1 7.09245 4.16471 4.16459 
75 1 8.82785 4.16525 5.8971 
78 1 8.82772 5.89799 4.1653 
27 1 11.0805 1.90421 11.0803 
28 1 10.1961 2.79143 10.1952 
29 1 12.6064 2.11767 10.8714 
34 1 10.8725 2.11776 12.6064 
40 1 10.8682 0.389472 10.868 
50 1 8.61725 4.35903 8.61724 
51 1 9.50375 3.48229 9.50393 
52 1 8.82908 5.88341 8.82846 
55 1 8.8271 4.16223 7.09099 
58 1 7.09098 4.16217 8.8271 
24 1 11.08 11.081 1.91976 
25 1 10.1929 10.193 2.79737 
26 1 12.6111 10.8703 2.12092 
36 1 10.8623 10.8652 0.405937 
39 1 10.8715 12.6122 2.12116 
44 1 8.61585 8.61567 4.36621 
45 1 9.49985 9.49978 3.48651 
46 1 8.82669 7.09166 4.16295 
56 1 8.82706 8.82945 5.8957 
59 1 7.0918 8.82673 4.16282 
1 1 11.1701 11.129 11.1562 
2 1 10.0243 10.246 10.0862 
3 1 10.9102 12.6093 10.903 
13 1 10.8933 10.8815 12.6245 
17 1 12.6334 10.8754 10.8853 
61 1 8.62131 8.5868 8.61822 
62 1 9.50368 9.34835 9.45713 
63 1 7.09208 8.83308 8.83307 
73 1 8.83312 8.8304 7.08618 
77 1 8.83219 7.07645 8.82931 
81 2 9.59841 11.2794 10.1058 
ITEM: TIMESTEP
40
ITEM: NUMBER OF ATOMS
81
ITEM: BOX BOUNDS pp pp pp
0.0000000000000000e+00 1.3416000000000000e+01
0.0000000000000000e+00 1.3416000000000000e+01
0.0000000000000000e+00 1.3414999999999999e+01
ITEM: ATOMS id type x y z 
21 1 1.90905 1.91084 1.91221 
22 1 2.79634 2.79561 2.79779 
23 1 0.384836 2.12128 2.12171 
33 1 2.12158 2.12154 0.384182 
37 1 2.12177 0.385223 2.12146 
41 1 4.37285 4.37323 4.37582 
42 1 3.48665 3.48892 3.4883 
43 1 4.16233 5.89737 4.16217 
53 1 4.16275 4.16248 5.89606 
57 1 5.89883 4.16261 4.16224 
4 1 1.91121 1.91465 11.0822 
5 1 2.79541 2.7969 10.1953 
6 1 2.12184 0.383535 10.8677 
16 1 2.12079 2.12275 12.6065 
19 1 0.3817 2.12334 10.8691 
64 1 4.36981 4.37529 8.61831 
65 1 3.48824 3.48817 9.50336 
66 1 5.89746 4.16239 8.83062 
76 1 4.16203 4.16197 7.09071 
79 1 4.16154 5.89725 8.82995 
10 1 1.91326 11.0836 1.91554 
11 1 2.79673 10.1953 2.79678 
12 1 2.12199 12.6078 2.1225 
15 1 2.12265 10.8675 0.383203 
18 1 0.382182 10.8681 2.12304 
67 1 4.37415 8.61669 4.37182 
68 1 3.48814 9.50274 3.48865 
69 1 5.89688 8.83024 4.1625 
74 1 4.16177 8.83011 5.8989 
80 1 4.16176 7.0914 4.16255 
30 1 1.9105 11.0843 11.0825 
31 1 2.80121 10.1924 10.1918 
32 1 0.410373 10.8612 10.8631 
35 1 2.12539 10.8708 12.608 
38 1 2.1257 12.6084 10.8708 
47 1 4.37427 8.61454 8.61484 
48 1 3.48807 9.49918 9.49908 
49 1 4.16031 7.089 8.82949 
54 1 4.16055 8.82936 7.0897 
60 1 5.90487 8.83388 8.82829 
7 1 11.0831 1.91429 1.91259 
8 1 10.1959 2.79697 2.79536 
9 1 10.869 0.382662 2.12208 
14 1 10.87 2.12311 0.381857 
20 1 12.6085 2.12225 2.12167 
70 1 8.61738 4.37438 4.37043 
71 1 9.50359 3.48748 3.48796 
72 1 7.0908 4.16234 4.16243 
75 1 8.83048 4.16248 5.89578 
78 1 8.8299 5.89599 4.16245 
27 1 11.0801 1.89934 11.08 
28 1 10.1958 2.78997 10.1965 
29 1 12.6061 2.11953 10.8697 
34 1 10.8708 2.11953 12.6055 
40 1 10.8718 0.376744 10.8698 
50 1 8.61544 4.35847 8.61629 
51 1 9.50426 3.47942 9.50322 
52 1 8.83315 5.87873 8.83198 
55 1 8.83005 4.15785 7.09023 
58 1 7.08906 4.15795 8.83004 
24 1 11.082 11.0836 1.90592 
25 1 10.1935 10.1941 2.79815 
26 1 12.6067 10.8706 2.12365 
36 1 10.8653 10.8648 0.399784 
39 1 10.8715 12.6075 2.12386 
44 1 8.61561 8.61558 4.36798 
45 1 9.50107 9.50096 3.4866 
46 1 8.8296 7.08926 4.16005 
56 1 8.82954 8.83402 5.90239 
59 1 7.08942 8.82953 4.15979 
1 1 11.1534 11.1188 11.1419 
2 1 10.0177 10.2544 10.0837 
3 1 10.9209 12.596 10.9128 
13 1 10.899 10.8861 12.6152 
17 1 12.6266 10.8787 10.889 
61 1 8.63855 8.60153 8.62387 
62 1 9.50555 9.34716 9.45786 
63 1 7.09634 8.82923 8.8335 
73 1 8.83257 8.82599 7.09092 
77 1 8.83186 7.07002 8.82931 
81 2 9.59419 11.3169 10.117 
ITEM: TIMESTEP
50
ITEM: NUMBER OF ATOMS
81
ITEM: BOX BOUNDS pp pp pp
0.0000000000000000e+00 1.3416000000000000e+01
0.0000000000000000e+00 1.3416000000000000e+01
0.0000000000000000e+00 1.3414999999999999e+01
ITEM: ATOMS id type x y z 
21 1 1.90988 1.91031 1.91157 
22 1 2.79589 2.79569 2.79743 
23 1 0.384194 2.12154 2.12195 
33 1 2.1216 2.12178 0.384686 
37 1 2.12183 0.385003 2.12171 
41 1 4.3725 4.37311 4.37498 
42 1 3.48679 3.48857 3.48847 
43 1 4.16193 5.899 4.16196 
53 1 4.16241 4.16207 5.89794 
57 1 5.89799 4.1622 4.16202 
4 1 1.91068 1.91363 11.0815 
5 1 2.79552 2.79681 10.1956 
6 1 2.12221 0.385281 10.868 
16 1 2.12102 2.12289 12.6065 
19 1 0.380978 2.12353 10.8691 
64 1 4.3705 4.37424 8.61766 
65 1 3.48769 3.48805 9.50344 
66 1 5.89619 4.16224 8.83081 
76 1 4.16179 4.16192 7.0905 
79 1 4.16111 5.89692 8.83016 
10 1 1.9123 11.0829 1.91427 
11 1 2.79647 10.1957 2.79689 
12 1 2.12216 12.608 2.12261 
15 1 2.12296 10.8678 0.386018 
18 1 0.38361 10.8684 2.12336 
67 1 4.37315 8.61642 4.37231 
68 1 3.48807 9.50286 3.48812 
69 1 5.8976 8.83044 4.16208 
74 1 4.16153 8.83028 5.89859 
80 1 4.16171 7.09066 4.1622 
30 1 1.91284 11.0831 11.0814 
31 1 2.80088 10.1924 10.1918 
32 1 0.408263 10.8608 10.8629 
35 1 2.12557 10.8701 12.6085 
38 1 2.12582 12.6097 10.8701 
47 1 4.37458 8.61418 8.61473 
48 1 3.48876 9.49906 9.49898 
49 1 4.1604 7.09094 8.82962 
54 1 4.16055 8.82952 7.09023 
60 1 5.90686 8.83372 8.82853 
7 1 11.0833 1.91293 1.91234 
8 1 10.1963 2.79661 2.7954 
9 1 10.8693 0.384187 2.1223 
14 1 10.8701 2.12327 0.382308 
20 1 12.6075 2.12236 2.1217 
70 1 8.61749 4.37356 4.37077 
71 1 9.50363 3.48752 3.48748 
72 1 7.09209 4.16216 4.16203 
75 1 8.8307 4.16221 5.89621 
78 1 8.83016 5.89733 4.16201 
27 1 11.0804 1.8977 11.0803 
28 1 10.1961 2.7895 10.1965 
29 1 12.6066 2.11947 10.8697 
34 1 10.8708 2.11944 12.6049 
40 1 10.8727 0.377485 10.8705 
50 1 8.61596 4.3577 8.61625 
51 1 9.50413 3.47913 9.50349 
52 1 8.83331 5.87795 8.83238 
55 1 8.83029 4.15745 7.08943 
58 1 7.08912 4.15749 8.83033 
24 1 11.0813 11.0824 1.90733 
25 1 10.1934 10.1938 2.79789 
26 1 12.6078 10.8701 2.12374 
36 1 10.8654 10.8646 0.397913 
39 1 10.8709 12.6092 2.12392 
44 1 8.61485 8.61481 4.36855 
45 1 9.50089 9.50098 3.48705 
46 1 8.82967 7.0903 4.16016 
56 1 8.82948 8.83382 5.90126 
59 1 7.09096 8.82963 4.1599 
1 1 11.1541 11.1152 11.1414 
2 1 10.015 10.2583 10.0833 
3 1 10.921 12.5986 10.9128 
13 1 10.899 10.886 12.6145 
17 1 12.6243 10.8785 10.889 
61 1 8.63692 8.6 8.62377 
62 1 9.50655 9.34786 9.45812 
63 1 7.09636 8.82918 8.83323 
73 1 8.83279 8.82604 7.09159 
77 1 8.8321 7.07132 8.8292 
81 2 9.59451 11.318 10.1178 
ITEM: TIMESTEP
57
ITEM: NUMBER OF ATOMS
81
ITEM: BOX BOUNDS pp pp pp
0.0000000000000000e+00 1.3416000000000000e+01
0.0000000000000000e+00 1.3416000000000000e+01
0.0000000000000000e+00 1.3414999999999999e+01
ITEM: ATOMS id type x y z 
21 1 1.90989 1.9103 1.91136 
22 1 2.79583 2.79573 2.79736 
23 1 0.384583 2.12157 2.12198 
33 1 2.12161 2.12181 0.384653 
37 1 2.12185 0.385136 2.12176 
41 1 4.37247 4.37304 4.37478 
42 1 3.4868 3.48848 3.48849 
43 1 4.16184 5.89829 4.1619 
53 1 4.16233 4.16198 5.89811 
57 1 5.89838 4.16213 4.16197 
4 1 1.91068 1.91363 11.0814 
5 1 2.79553 2.7968 10.1957 
6 1 2.12232 0.38566 10.868 
16 1 2.12109 2.12294 12.6068 
19 1 0.381507 2.1236 10.8691 
64 1 4.37059 4.37422 8.61756 
65 1 3.48759 3.48803 9.50345 
66 1 5.8961 4.16219 8.83085 
76 1 4.16174 4.16189 7.09067 
79 1 4.16104 5.8973 8.83019 
10 1 1.91224 11.0828 1.91411 
11 1 2.79646 10.1958 2.79694 
12 1 2.1222 12.6079 2.12266 
15 1 2.12304 10.8678 0.385828 
18 1 0.383681 10.8684 2.12345 
67 1 4.37304 8.61655 4.37226 
68 1 3.48806 9.50291 3.48802 
69 1 5.89774 8.83049 4.16199 
74 1 4.16144 8.83033 5.8981 
80 1 4.16164 7.0914 4.16211 
30 1 1.91295 11.0829 11.0814 
31 1 2.80082 10.1924 10.1917 
32 1 0.407535 10.8608 10.8629 
35 1 2.12557 10.87 12.6089 
38 1 2.12583 12.6094 10.87 
47 1 4.37461 8.61416 8.61472 
48 1 3.48887 9.49908 9.499 
49 1 4.16041 7.09067 8.82966 
54 1 4.16054 8.82957 7.09092 
60 1 5.9068 8.83369 8.82858 
7 1 11.0832 1.91294 1.91224 
8 1 10.1964 2.79658 2.79547 
9 1 10.8693 0.384578 2.12241 
14 1 10.8701 2.12333 0.381951 
20 1 12.6073 2.12242 2.12177 
70 1 8.61741 4.37334 4.37089 
71 1 9.50367 3.48751 3.48735 
72 1 7.09186 4.16214 4.16195 
75 1 8.83075 4.16216 5.8962 
78 1 8.83022 5.89718 4.16192 
27 1 11.0803 1.89746 11.0804 
28 1 10.1961 2.78942 10.1965 
29 1 12.606 2.11947 10.8697 
34 1 10.8707 2.11943 12.6051 
40 1 10.8729 0.377489 10.8707 
50 1 8.61604 4.35757 8.6163 
51 1 9.50413 3.47904 9.50355 
52 1 8.83335 5.87812 8.83245 
55 1 8.83036 4.15735 7.08924 
58 1 7.08899 4.15739 8.8304 
24 1 11.0812 11.0823 1.90737 
25 1 10.1934 10.1938 2.79786 
26 1 12.6078 10.87 2.12373 
36 1 10.8655 10.8647 0.397476 
39 1 10.8708 12.6088 2.12391 
44 1 8.6148 8.61482 4.36873 
45 1 9.50087 9.50104 3.48704 
46 1 8.82971 7.09073 4.16015 
56 1 8.82948 8.83378 5.90138 
59 1 7.09111 8.82966 4.15988 
1 1 11.1541 11.1147 11.1413 
2 1 10.0144 10.2591 10.0832 
3 1 10.9211 12.5989 10.9128 
13 1 10.899 10.8859 12.6147 
17 1 12.6246 10.8784 10.889 
61 1 8.63672 8.59969 8.62382 
62 1 9.50671 9.34806 9.45818 
63 1 7.09685 8.82917 8.83319 
73 1 8.83283 8.82605 7.09141 
77 1 8.83214 7.07125 8.82918 
81 2 9.59451 11.3183 10.118 
ITEM: TIMESTEP
58
ITEM: NUMBER OF ATOMS
81
ITEM: BOX BOUNDS pp pp pp
0.0000000000000000e+00 1.3416000000000000e+01
0.0000000000000000e+00 1.3416000000000000e+01
0.0000000000000000e+00 1.3414999999999999e+01
ITEM: ATOMS id type x y z 
21 1 1.90989 1.9103 1.91136 
22 1 2.79583 2.79573 2.79736 
23 1 0.384583 2.12157 2.12198 
33 1 2.12161 2.12181 0.384653 
37 1 2.12185 0.385136 2.12176 
41 1 4.37247 4.37304 4.37478 
42 1 3.4868 3.48848 3.48849 
43 1 4.16184 5.89829 4.1619 
53 1 4.16233 4.16198 5.89811 
57 1 5.89838 4.16213 4.16197 
4 1 1.91068 1.91363 11.0814 
5 1 2.79553 2.7968 10.1957 
6 1 2.12232 0.38566 10.868 
16 1 2.12109 2.12294 12.6068 
19 1 0.381507 2.1236 10.8691 
64 1 4.37059 4.37422 8.61756 
65 1 3.48759 3.48803 9.50345 
66 1 5.8961 4.16219 8.83085 
76 1 4.16174 4.16189 7.09067 
79 1 4.16104 5.8973 8.83019 
10 1 1.91224 11.0828 1.91411 
11 1 2.79646 10.1958 2.79694 
12 1 2.1222 12.6079 2.12266 
15 1 2.12304 10.8678 0.385828 
18 1 0.383681 10.8684 2.12345 
67 1 4.37304 8.61655 4.37226 
68 1 3.48806 9.50291 3.48802 
69 1 5.89774 8.83049 4.16199 
74 1 4.16144 8.83033 5.8981 
80 1 4.16164 7.0914 4.16211 
30 1 1.91295 11.0829 11.0814 
31 1 2.80082 10.1924 10.1917 
32 1 0.407535 10.8608 10.8629 
35 1 2.12557 10.87 12.6089 
38 1 2.12583 12.6094 10.87 
47 1 4.37461 8.61416 8.61472 
48 1 3.48887 9.49908 9.499 
49 1 4.16041 7.09067 8.82966 
54 1 4.16054 8.82957 7.09092 
60 1 5.9068 8.83369 8.82858 
7 1 11.0832 1.91294 1.91224 
8 1 10.1964 2.79658 2.79547 
9 1 10.8693 0.384578 2.12241 
14 1 10.8701 2.12333 0.381951 
20 1 12.6073 2.12242 2.12177 
70 1 8.61741 4.37334 4.37089 
71 1 9.50367 3.48751 3.48735 
72 1 7.09186 4.16214 4.16195 
75 1 8.83075 4.16216 5.8962 
78 1 8.83022 5.89718 4.16192 
27 1 11.0803 1.89746 11.0804 
28 1 10.1961 2.78942 10.1965 
29 1 12.606 2.11947 10.8697 
34 1 10.8707 2.11943 12.6051 
40 1 10.8729 0.377489 10.8707 
50 1 8.61604 4.35757 8.6163 
51 1 9.50413 3.47904 9.50355 
52 1 8.83335 5.87812 8.83245 
55 1 8.83036 4.15735 7.08924 
58 1 7.08899 4.15739 8.8304 
24 1 11.0812 11.0823 1.90737 
25 1 10.1934 10.1938 2.79786 
26 1 12.6078 10.87 2.12373 
36 1 10.8655 10.8647 0.397476 
39 1 10.8708 12.6088 2.12391 
44 1 8.6148 8.61482 4.36873 
45 1 9.50087 9.50104 3.48704 
46 1 8.82971 7.09073 4.16015 
56 1 8.82948 8.83378 5.90138 
59 1 7.09111 8.82966 4.15988 
1 1 11.1541 11.1147 11.1413 
2 1 10.0144 10.2591 10.0832 
3 1 10.9211 12.5989 10.9128 
13 1 10.899 10.8859 12.6147 
17 1 12.6246 10.8784 10.889 
61 1 8.63672 8.59969 8.62382 
62 1 9.50671 9.34806 9.45818 
63 1 7.09685 8.82917 8.83319 
73 1 8.83283 8.82605 7.09141 
77 1 8.83214 7.07125 8.82918 
81 2 9.59451 11.3183 10.118 
ITEM: TIMESTEP
60
ITEM: NUMBER OF ATOMS
81
ITEM: BOX BOUNDS pp pp pp
1.1903872277865646e-04 1.3415880961277221e+01
-4.5979789193724977e-04 1.3416459797891939e+01
-3.1012622309657629e-04 1.3415310126223096e+01
ITEM: ATOMS id type x y z 
21 1 1.90997 1.90997 1.91114 
22 1 2.79589 2.79546 2.79718 
23 1 0.384689 2.12125 2.12177 
33 1 2.12169 2.12149 0.384356 
37 1 2.12193 0.384697 2.12154 
41 1 4.37251 4.37288 4.37467 
42 1 3.48686 3.48825 3.48834 
43 1 4.16189 5.89824 4.16178 
53 1 4.16237 4.1618 5.89807 
57 1 5.89841 4.16195 4.16185 
4 1 1.91077 1.91331 11.0816 
5 1 2.7956 2.79654 10.1959 
6 1 2.1224 0.385224 10.8682 
16 1 2.12117 2.12263 12.6071 
19 1 0.381621 2.12328 10.8693 
64 1 4.37063 4.37406 8.61765 
65 1 3.48764 3.48781 9.50358 
66 1 5.89611 4.16202 8.83094 
76 1 4.16179 4.16172 7.0907 
79 1 4.16109 5.89724 8.83029 
10 1 1.91232 11.0831 1.91389 
11 1 2.79653 10.196 2.79676 
12 1 2.12228 12.6083 2.12244 
15 1 2.12312 10.8681 0.385533 
18 1 0.383791 10.8687 2.12324 
67 1 4.37309 8.61669 4.37215 
68 1 3.48811 9.5031 3.48787 
69 1 5.89776 8.83063 4.16187 
74 1 4.16148 8.83047 5.89806 
80 1 4.16169 7.09142 4.16199 
30 1 1.91304 11.0832 11.0816 
31 1 2.80089 10.1926 10.1919 
32 1 0.407636 10.8611 10.8631 
35 1 2.12566 10.8703 12.6092 
38 1 2.12591 12.6098 10.8702 
47 1 4.37465 8.61429 8.61481 
48 1 3.48893 9.49927 9.49913 
49 1 4.16045 7.09071 8.82976 
54 1 4.16059 8.82971 7.09094 
60 1 5.90681 8.83384 8.82868 
7 1 11.0831 1.91261 1.91201 
8 1 10.1963 2.79632 2.79529 
9 1 10.8692 0.384144 2.1222 
14 1 10.87 2.12302 0.381666 
20 1 12.6072 2.12211 2.12155 
70 1 8.61737 4.37318 4.37078 
71 1 9.50363 3.48729 3.4872 
72 1 7.09184 4.16196 4.16183 
75 1 8.83072 4.16199 5.89616 
78 1 8.83018 5.89713 4.1618 
27 1 11.0803 1.89713 11.0806 
28 1 10.1961 2.78915 10.1966 
29 1 12.6059 2.11916 10.8699 
34 1 10.8707 2.11912 12.6054 
40 1 10.8728 0.377061 10.8709 
50 1 8.616 4.35741 8.61639 
51 1 9.50408 3.47882 9.50368 
52 1 8.83331 5.87806 8.83255 
55 1 8.83032 4.15717 7.08925 
58 1 7.08898 4.15721 8.8305 
24 1 11.0811 11.0826 1.90715 
25 1 10.1933 10.194 2.79767 
26 1 12.6077 10.8703 2.12352 
36 1 10.8654 10.865 0.397178 
39 1 10.8708 12.6092 2.1237 
44 1 8.61476 8.61495 4.36863 
45 1 9.50082 9.50123 3.4869 
46 1 8.82967 7.09075 4.16003 
56 1 8.82945 8.83393 5.90135 
59 1 7.09109 8.82981 4.15977 
1 1 11.154 11.115 11.1415 
2 1 10.0144 10.2593 10.0833 
3 1 10.921 12.5993 10.913 
13 1 10.8989 10.8862 12.615 
17 1 12.6245 10.8787 10.8891 
61 1 8.63669 8.59982 8.62391 
62 1 9.50666 9.34824 9.45831 
63 1 7.09685 8.82931 8.83329 
73 1 8.83279 8.8262 7.09143 
77 1 8.83211 7.07127 8.82928 
81 2 9.59446 11.3186 10.1181 
ITEM: TIMESTEP
62
ITEM: NUMBER OF ATOMS
81
ITEM: BOX BOUNDS pp pp pp
1.2231411340365647e-04 1.3415877685886596e+01
-4.6010827820717782e-04 1.3416460108278210e+01
-3.0807759360454141e-04 1.3415308077593604e+01
ITEM: ATOMS id type x y z 
21 1 1.90997 1.90997 1.91114 
22 1 2.7959 2.79546 2.79718 
23 1 0.384692 2.12125 2.12177 
33 1 2.12169 2.12149 0.384358 
37 1 2.12193 0.384696 2.12155 
41 1 4.37251 4.37288 4.37468 
42 1 3.48686 3.48825 3.48834 
43 1 4.16189 5.89824 4.16178 
53 1 4.16238 4.1618 5.89807 
57 1 5.89841 4.16195 4.16185 
4 1 1.91077 1.91331 11.0816 
5 1 2.79561 2.79654 10.1959 
6 1 2.1224 0.385224 10.8682 
16 1 2.12117 2.12263 12.6071 
19 1 0.381624 2.12328 10.8693 
64 1 4.37063 4.37406 8.61765 
65 1 3.48765 3.48781 9.50358 
66 1 5.89611 4.16202 8.83094 
76 1 4.16179 4.16172 7.0907 
79 1 4.16109 5.89724 8.83029 
10 1 1.91233 11.0831 1.91389 
11 1 2.79653 10.196 2.79677 
12 1 2.12228 12.6083 2.12245 
15 1 2.12313 10.8681 0.385535 
18 1 0.383794 10.8687 2.12324 
67 1 4.37309 8.61669 4.37215 
68 1 3.48812 9.5031 3.48787 
69 1 5.89776 8.83063 4.16188 
74 1 4.16148 8.83047 5.89806 
80 1 4.16169 7.09142 4.16199 
30 1 1.91304 11.0832 11.0816 
31 1 2.80089 10.1926 10.1919 
32 1 0.407639 10.8611 10.8631 
35 1 2.12566 10.8703 12.6092 
38 1 2.12591 12.6098 10.8702 
47 1 4.37466 8.61429 8.61481 
48 1 3.48893 9.49927 9.49913 
49 1 4.16045 7.09071 8.82976 
54 1 4.16059 8.82971 7.09094 
60 1 5.90681 8.83384 8.82868 
7 1 11.0831 1.91261 1.91201 
8 1 10.1963 2.79632 2.79529 
9 1 10.8692 0.384144 2.1222 
14 1 10.87 2.12302 0.381667 
20 1 12.6072 2.12211 2.12156 
70 1 8.61737 4.37318 4.37079 
71 1 9.50362 3.48729 3.4872 
72 1 7.09184 4.16196 4.16183 
75 1 8.83072 4.16199 5.89616 
78 1 8.83018 5.89713 4.1618 
27 1 11.0803 1.89713 11.0806 
28 1 10.1961 2.78915 10.1966 
29 1 12.6059 2.11916 10.8699 
34 1 10.8707 2.11912 12.6054 
40 1 10.8728 0.377061 10.8709 
50 1 8.616 4.35741 8.61639 
51 1 9.50408 3.47882 9.50368 
52 1 8.83331 5.87806 8.83255 
55 1 8.83032 4.15717 7.08925 
58 1 7.08898 4.15721 8.8305 
24 1 11.0811 11.0826 1.90715 
25 1 10.1933 10.194 2.79768 
26 1 12.6077 10.8703 2.12352 
36 1 10.8654 10.865 0.39718 
39 1 10.8708 12.6092 2.1237 
44 1 8.61476 8.61495 4.36863 
45 1 9.50082 9.50123 3.4869 
46 1 8.82967 7.09075 4.16003 
56 1 8.82945 8.83393 5.90135 
59 1 7.09109 8.82981 4.15977 
1 1 11.154 11.115 11.1415 
2 1 10.0144 10.2593 10.0833 
3 1 10.921 12.5993 10.913 
13 1 10.8989 10.8862 12.615 
17 1 12.6245 10.8787 10.8891 
61 1 8.63669 8.59982 8.62391 
62 1 9.50666 9.34824 9.45831 
63 1 7.09685 8.82931 8.83328 
73 1 8.83279 8.8262 7.09143 
77 1 8.8321 7.07127 8.82928 
81 2 9.59446 11.3186 10.1181 
ITEM: TIMESTEP
63
ITEM: NUMBER OF ATOMS
81
ITEM: BOX BOUNDS pp pp pp
1.2231411340365647e-04 1.3415877685886596e+01
-4.6010827820717782e-04 1.3416460108278210e+01
-3.0807759360454141e-04 1.3415308077593604e+01
ITEM: ATOMS id type x y z 
21 1 1.90997 1.90997 1.91114 
22 1 2.7959 2.79546 2.79718 
23 1 0.384692 2.12125 2.12177 
33 1 2.12169 2.12149 0.384358 
37 1 2.12193 0.384696 2.12155 
41 1 4.37251 4.37288 4.37468 
42 1 3.48686 3.48825 3.48834 
43 1 4.16189 5.89824 4.16178 
53 1 4.16238 4.1618 5.89807 
57 1 5.89841 4.16195 4.16185 
4 1 1.91077 1.91331 11.0816 
5 1 2.79561 2.79654 10.1959 
6 1 2.1224 0.385224 10.8682 
16 1 2.12117 2.12263 12.6071 
19 1 0.381624 2.12328 10.8693 
64 1 4.37063 4.37406 8.61765 
65 1 3.48765 3.48781 9.50358 
66 1 5.89611 4.16202 8.83094 
76 1 4.16179 4.16172 7.0907 
79 1 4.16109 5.89724 8.83029 
10 1 1.91233 11.0831 1.91389 
11 1 2.79653 10.196 2.79677 
12 1 2.12228 12.6083 2.12245 
15 1 2.12313 10.8681 0.385535 
18 1 0.383794 10.8687 2.12324 
67 1 4.37309 8.61669 4.37215 
68 1 3.48812 9.5031 3.48787 
69 1 5.89776 8.83063 4.16188 
74 1 4.16148 8.83047 5.89806 
80 1 4.16169 7.09142 4.16199 
30 1 1.91304 11.0832 11.0816 
31 1 2.80089 10.1926 10.1919 
32 1 0.407639 10.8611 10.8631 
35 1 2.12566 10.8703 12.6092 
38 1 2.12591 12.6098 10.8702 
47 1 4.37466 8.61429 8.61481 
48 1 3.48893 9.49927 9.49913 
49 1 4.16045 7.09071 8.82976 
54 1 4.16059 8.82971 7.09094 
60 1 5.90681 8.83384 8.82868 
7 1 11.0831 1.91261 1.91201 
8 1 10.1963 2.79632 2.79529 
9 1 10.8692 0.384144 2.1222 
14 1 10.87 2.12302 0.381667 
20 1 12.6072 2.12211 2.12156 
70 1 8.61737 4.37318 4.37079 
71 1 9.50362 3.48729 3.4872 
72 1 7.09184 4.16196 4.16183 
75 1 8.83072 4.16199 5.89616 
78 1 8.83018 5.89713 4.1618 
27 1 11.0803 1.89713 11.0806 
28 1 10.1961 2.78915 10.1966 
29 1 12.6059 2.11916 10.8699 
34 1 10.8707 2.11912 12.6054 
40 1 10.8728 0.377061 10.8709 
50 1 8.616 4.35741 8.61639 
51 1 9.50408 3.47882 9.50368 
52 1 8.83331 5.87806 8.83255 
55 1 8.83032 4.15717 7.08925 
58 1 7.08898 4.15721 8.8305 
24 1 11.0811 11.0826 1.90715 
25 1 10.1933 10.194 2.79768 
26 1 12.6077 10.8703 2.12352 
36 1 10.8654 10.865 0.39718 
39 1 10.8708 12.6092 2.1237 
44 1 8.61476 8.61495 4.36863 
45 1 9.50082 9.50123 3.4869 
46 1 8.82967 7.09075 4.16003 
56 1 8.82945 8.83393 5.90135 
59 1 7.09109 8.82981 4.15977 
1 1 11.154 11.115 11.1415 
2 1 10.0144 10.2593 10.0833 
3 1 10.921 12.5993 10.913 
13 1 10.8989 10.8862 12.615 
17 1 12.6245 10.8787 10.8891 
61 1 8.63669 8.59982 8.62391 
62 1 9.50666 9.34824 9.45831 
63 1 7.09685 8.82931 8.83328 
73 1 8.83279 8.8262 7.09143 
77 1 8.8321 7.07127 8.82928 
81 2 9.59446 11.3186 10.1181 
ITEM: TIMESTEP
64
ITEM: NUMBER OF ATOMS
81
ITEM: BOX BOUNDS pp pp pp
1.2264164649378764e-04 1.3415877358353505e+01
-4.6014076782030966e-04 1.3416460140767823e+01
-3.0787336038516443e-04 1.3415307873360385e+01
ITEM: ATOMS id type x y z 
21 1 1.90997 1.90997 1.91114 
22 1 2.7959 2.79546 2.79718 
23 1 0.384692 2.12125 2.12177 
33 1 2.12169 2.12149 0.384358 
37 1 2.12194 0.384696 2.12155 
41 1 4.37251 4.37288 4.37468 
42 1 3.48686 3.48825 3.48834 
43 1 4.16189 5.89824 4.16178 
53 1 4.16238 4.1618 5.89807 
57 1 5.89841 4.16195 4.16185 
4 1 1.91077 1.91331 11.0816 
5 1 2.79561 2.79654 10.1959 
6 1 2.1224 0.385224 10.8682 
16 1 2.12117 2.12263 12.6071 
19 1 0.381624 2.12328 10.8693 
64 1 4.37063 4.37406 8.61765 
65 1 3.48765 3.48781 9.50358 
66 1 5.89611 4.16202 8.83094 
76 1 4.16179 4.16172 7.0907 
79 1 4.16109 5.89724 8.83029 
10 1 1.91233 11.0831 1.91389 
11 1 2.79653 10.196 2.79677 
12 1 2.12228 12.6083 2.12245 
15 1 2.12313 10.8681 0.385535 
18 1 0.383795 10.8687 2.12324 
67 1 4.37309 8.61669 4.37215 
68 1 3.48812 9.5031 3.48787 
69 1 5.89776 8.83063 4.16188 
74 1 4.16148 8.83047 5.89806 
80 1 4.16169 7.09142 4.16199 
30 1 1.91304 11.0832 11.0816 
31 1 2.80089 10.1926 10.1919 
32 1 0.407639 10.8611 10.8631 
35 1 2.12566 10.8703 12.6092 
38 1 2.12591 12.6098 10.8702 
47 1 4.37466 8.61429 8.61481 
48 1 3.48893 9.49927 9.49913 
49 1 4.16046 7.09071 8.82976 