
     Program PWSCF v.7.1 starts on  6May2025 at 23:42:49 

     This program is part of the open-source Quantum ESPRESSO suite
     for quantum simulation of materials; please cite
         "P. Giannozzi et al., J. Phys.:Condens. Matter 21 395502 (2009);
         "P. Giannozzi et al., J. Phys.:Condens. Matter 29 465901 (2017);
         "P. Giannozzi et al., J. Chem. Phys. 152 154105 (2020);
          URL http://www.quantum-espresso.org", 
     in publications or presentations arising from this work. More details at
     http://www.quantum-espresso.org/quote

     Parallel version (MPI), running on    16 processors

     MPI processes distributed on     1 nodes
     242395 MiB available memory on the printing compute node when the environment starts

     Reading input from input.pwi
Warning: card &CELL ignored
Warning: card / ignored
Warning: card &FCP ignored
Warning: card / ignored
Warning: card &RISM ignored
Warning: card / ignored

     Current dimensions of program PWSCF are:
     Max number of different atomic species (ntypx) = 10
     Max number of k-points (npk) =  40000
     Max angular momentum in pseudopotentials (lmaxx) =  4
     file C.pbe-n-kjpaw_psl.1.0.0.UPF: wavefunction(s)  2S 2P renormalized
     file O.pbe-n-kjpaw_psl.0.1.UPF: wavefunction(s)  2P renormalized

     IMPORTANT: XC functional enforced from input :
     Exchange-correlation= PBE
                           (   1   4   3   4   0   0   0)
     Any further DFT definition will be discarded
     Please, verify this is what you really want


     gamma-point specific algorithms are used
     Message from routine  set_nelup_neldw :
     BEWARE: non-integer number of up and down electrons!

     R & G space division:  proc/nbgrp/npool/nimage =      16
     Subspace diagonalization in iterative solution of the eigenvalue problem:
     a serial algorithm will be used


     Parallelization info
     --------------------
     sticks:   dense  smooth     PW     G-vecs:    dense   smooth      PW
     Min         356     177     43                70548    24945    3112
     Max         358     180     46                70590    24972    3130
     Sum        5721    2869    717              1129231   399349   49901

     Using Slab Decomposition



     bravais-lattice index     =            0
     lattice parameter (alat)  =      13.4114  a.u.
     unit-cell volume          =    8357.3659 (a.u.)^3
     number of atoms/cell      =           35
     number of atomic types    =            3
     number of electrons       =       141.00 (up:  70.50, down:  70.50)
     number of Kohn-Sham states=           85
     kinetic-energy cutoff     =      50.0000  Ry
     charge density cutoff     =     400.0000  Ry
     scf convergence threshold =      1.0E-06
     mixing beta               =       0.3000
     number of iterations used =            8  plain     mixing
     energy convergence thresh.=      1.0E-04
     force convergence thresh. =      1.0E-03
     Exchange-correlation= PBE
                           (   1   4   3   4   0   0   0)
     nstep                     =         1000


     celldm(1)=  13.411386  celldm(2)=   0.000000  celldm(3)=   0.000000
     celldm(4)=   0.000000  celldm(5)=   0.000000  celldm(6)=   0.000000

     crystal axes: (cart. coord. in units of alat)
               a(1) = (   1.000000   0.000000   0.000000 )  
               a(2) = (   0.000000   1.000000   0.000000 )  
               a(3) = (   0.000000   0.000000   3.464562 )  

     reciprocal axes: (cart. coord. in units 2 pi/alat)
               b(1) = (  1.000000  0.000000  0.000000 )  
               b(2) = (  0.000000  1.000000  0.000000 )  
               b(3) = (  0.000000  0.000000  0.288637 )  


     PseudoPot. # 1 for C  read from file:
     /home/ana.bisette/espresso/pseudo/C.pbe-n-kjpaw_psl.1.0.0.UPF
     MD5 check sum: 5d2aebdfa2cae82b50a7e79e9516da0f
     Pseudo is Projector augmented-wave + core cor, Zval =  4.0
     Generated using "atomic" code by A. Dal Corso  v.5.1
     Shape of augmentation charge: PSQ
     Using radial grid of 1073 points,  4 beta functions with: 
                l(1) =   0
                l(2) =   0
                l(3) =   1
                l(4) =   1
     Q(r) pseudized with 0 coefficients 


     PseudoPot. # 2 for O  read from file:
     /home/ana.bisette/espresso/pseudo/O.pbe-n-kjpaw_psl.0.1.UPF
     MD5 check sum: 0234752ac141de4415c5fc33072bef88
     Pseudo is Projector augmented-wave + core cor, Zval =  6.0
     Generated using "atomic" code by A. Dal Corso  v.5.0.99 svn rev. 10869
     Shape of augmentation charge: BESSEL
     Using radial grid of 1095 points,  4 beta functions with: 
                l(1) =   0
                l(2) =   0
                l(3) =   1
                l(4) =   1
     Q(r) pseudized with 0 coefficients 


     PseudoPot. # 3 for H  read from file:
     /home/ana.bisette/espresso/pseudo/H.pbe-rrkjus_psl.1.0.0.UPF
     MD5 check sum: f52b6d4d1c606e5624b1dc7b2218f220
     Pseudo is Ultrasoft, Zval =  1.0
     Generated using "atomic" code by A. Dal Corso  v.5.1
     Using radial grid of  929 points,  2 beta functions with: 
                l(1) =   0
                l(2) =   0
     Q(r) pseudized with 0 coefficients 


     atomic species   valence    mass     pseudopotential
        C              4.00    12.01100     C ( 1.00)
        O              6.00    15.99900     O ( 1.00)
        H              1.00     1.00800     H ( 1.00)

     Starting magnetic structure 
     atomic species   magnetization
        C            0.000
        O            0.000
        H            0.000

     No symmetry found



   Cartesian axes

     site n.     atom                  positions (alat units)
         1           C   tau(   1) = (   0.6547837   0.7372129   0.9093983  )
         2           C   tau(   2) = (   0.4704805   0.2299563   1.8767085  )
         3           C   tau(   3) = (   0.4773848   0.7342539   1.2126251  )
         4           C   tau(   4) = (   0.3047767   0.7372129   0.9093983  )
         5           C   tau(   5) = (   0.6553473   0.2227702   2.5550232  )
         6           C   tau(   6) = (   0.4703396   0.7301677   1.5878540  )
         7           C   tau(   7) = (   0.4778075   0.2257292   2.2517965  )
         8           C   tau(   8) = (   0.3051994   0.2227702   2.5551642  )
         9           C   tau(   9) = (   0.4703396   0.5550232   1.6888826  )
        10           C   tau(  10) = (   0.9798506   0.7372129   0.7217134  )
        11           C   tau(  11) = (   0.4741440   0.7318585   1.3856559  )
        12           C   tau(  12) = (   0.4703396   0.9050303   1.6890235  )
        13           C   tau(  13) = (  -0.0104269   0.5548823   0.0432577  )
        14           C   tau(  14) = (   0.4796393   0.7372129   1.0104269  )
        15           C   tau(  15) = (  -0.0145132   0.7318585   0.3464844  )
        16           C   tau(  16) = (  -0.0104269   0.9050303   0.0432577  )
        17           C   tau(  17) = (  -0.0104269   0.4051007   3.4211639  )
        18           C   tau(  18) = (   0.4802029   0.2227702   2.4539946  )
        19           C   tau(  19) = (  -0.0140905   0.2281246   3.1180781  )
        20           C   tau(  20) = (  -0.0104269   0.0549528   3.4213048  )
        21           C   tau(  21) = (   0.4703396   0.4051007   1.7756799  )
        22           C   tau(  22) = (  -0.0197266   0.2227702   2.7428491  )
        23           C   tau(  23) = (   0.4744258   0.2281246   2.0787657  )
        24           C   tau(  24) = (   0.4703396   0.0549528   1.7755390  )
        25           C   tau(  25) = (   0.8051289   0.2227702   2.6416796  )
        26           C   tau(  26) = (  -0.0105678   0.7300268   0.1444272  )
        27           C   tau(  27) = (  -0.0173313   0.2257292   2.9449063  )
        28           C   tau(  28) = (   0.1552769   0.2227702   2.6416796  )
        29           C   tau(  29) = (   0.8047062   0.7372129   0.8227420  )
        30           C   tau(  30) = (  -0.0102860   0.2298154   3.3201353  )
        31           C   tau(  31) = (  -0.0178949   0.7342539   0.5196562  )
        32           C   tau(  32) = (   0.1547133   0.7372129   0.8228829  )
        33           O   tau(  33) = (   0.4476539   0.5905312   1.8758630  )
        34           O   tau(  34) = (   0.6013809   0.5157109   2.0008454  )
        35           H   tau(  35) = (   0.5832042   0.6087079   2.0994787  )

     number of k points=     1  Gaussian smearing, width (Ry)=  0.0001
                       cart. coord. in units 2pi/alat
        k(    1) = (   0.0000000   0.0000000   0.0000000), wk =   1.0000000

     Dense  grid:   564616 G-vectors     FFT dimensions: (  90,  90, 300)

     Smooth grid:   199675 G-vectors     FFT dimensions: (  64,  64, 216)

     Estimated max dynamical RAM per process >     132.19 MB

     Estimated total dynamical RAM >       2.07 GB

     Check: negative core charge=   -0.000003
     Generating pointlists ...
     new r_m :   0.0714 (alat units)  0.9573 (a.u.) for type    1
     new r_m :   0.0564 (alat units)  0.7567 (a.u.) for type    2
     new r_m :   0.0564 (alat units)  0.7567 (a.u.) for type    3

     Initial potential from superposition of free atoms

     starting charge     140.9987, renormalised to     141.0000

     negative rho (up, down):  4.686E-08 4.686E-08
     Starting wfcs are  137 randomized atomic wfcs
     Checking if some PAW data can be deallocated... 

     total cpu time spent up to now is       12.3 secs

     Self-consistent Calculation

     iteration #  1     ecut=    50.00 Ry     beta= 0.30
     Davidson diagonalization with overlap
     ethr =  1.00E-02,  avg # of iterations =  2.0

     negative rho (up, down):  2.442E-07 2.462E-07

     total cpu time spent up to now is       21.6 secs

     total energy              =    -672.37480171 Ry
     estimated scf accuracy    <       4.10928464 Ry

     total magnetization       =    -0.00 Bohr mag/cell
     absolute magnetization    =     0.04 Bohr mag/cell

     iteration #  2     ecut=    50.00 Ry     beta= 0.30
     Davidson diagonalization with overlap
     ethr =  2.91E-03,  avg # of iterations =  1.0

     negative rho (up, down):  4.260E-06 4.274E-06

     total cpu time spent up to now is       29.0 secs

     total energy              =    -671.83934081 Ry
     estimated scf accuracy    <       1.30723085 Ry

     total magnetization       =    -0.00 Bohr mag/cell
     absolute magnetization    =     0.03 Bohr mag/cell

     iteration #  3     ecut=    50.00 Ry     beta= 0.30
     Davidson diagonalization with overlap
     ethr =  9.27E-04,  avg # of iterations =  2.0

     negative rho (up, down):  6.042E-06 6.067E-06

     total cpu time spent up to now is       36.8 secs

     total energy              =    -671.89537450 Ry
     estimated scf accuracy    <       0.81210785 Ry

     total magnetization       =     0.00 Bohr mag/cell
     absolute magnetization    =     0.02 Bohr mag/cell

     iteration #  4     ecut=    50.00 Ry     beta= 0.30
     Davidson diagonalization with overlap
     ethr =  5.76E-04,  avg # of iterations = 14.5

     negative rho (up, down):  7.260E-06 7.283E-06

     total cpu time spent up to now is       46.7 secs

     total energy              =    -672.03939359 Ry
     estimated scf accuracy    <       0.17622827 Ry

     total magnetization       =    -0.00 Bohr mag/cell
     absolute magnetization    =     0.03 Bohr mag/cell

     iteration #  5     ecut=    50.00 Ry     beta= 0.30
     Davidson diagonalization with overlap
     ethr =  1.25E-04,  avg # of iterations = 14.5

     negative rho (up, down):  9.506E-06 9.517E-06

     total cpu time spent up to now is       55.6 secs

     total energy              =    -672.03820100 Ry
     estimated scf accuracy    <       0.07121854 Ry

     total magnetization       =     0.00 Bohr mag/cell
     absolute magnetization    =     0.02 Bohr mag/cell

     iteration #  6     ecut=    50.00 Ry     beta= 0.30
     Davidson diagonalization with overlap
     ethr =  5.05E-05,  avg # of iterations =  6.0

     negative rho (up, down):  1.424E-05 1.425E-05

     total cpu time spent up to now is       63.6 secs

     total energy              =    -672.04054642 Ry
     estimated scf accuracy    <       0.03473077 Ry

     total magnetization       =     0.00 Bohr mag/cell
     absolute magnetization    =     0.02 Bohr mag/cell

     iteration #  7     ecut=    50.00 Ry     beta= 0.30
     Davidson diagonalization with overlap
     ethr =  2.46E-05,  avg # of iterations =  9.0

     negative rho (up, down):  2.409E-05 2.409E-05

     total cpu time spent up to now is       71.9 secs

     total energy              =    -672.04153203 Ry
     estimated scf accuracy    <       0.00526843 Ry

     total magnetization       =     0.00 Bohr mag/cell
     absolute magnetization    =     0.01 Bohr mag/cell

     iteration #  8     ecut=    50.00 Ry     beta= 0.30
     Davidson diagonalization with overlap
     ethr =  3.74E-06,  avg # of iterations =  9.0

     negative rho (up, down):  3.169E-05 3.168E-05

     total cpu time spent up to now is       81.4 secs

     total energy              =    -672.04208050 Ry
     estimated scf accuracy    <       0.00145390 Ry

     total magnetization       =    -0.00 Bohr mag/cell
     absolute magnetization    =     0.01 Bohr mag/cell

     iteration #  9     ecut=    50.00 Ry     beta= 0.30
     Davidson diagonalization with overlap
     ethr =  1.03E-06,  avg # of iterations =  2.0

     negative rho (up, down):  3.846E-05 3.846E-05

     total cpu time spent up to now is       89.3 secs

     total energy              =    -672.04218935 Ry
     estimated scf accuracy    <       0.00019533 Ry

     total magnetization       =     0.00 Bohr mag/cell
     absolute magnetization    =     0.01 Bohr mag/cell

     iteration # 10     ecut=    50.00 Ry     beta= 0.30
     Davidson diagonalization with overlap
     ethr =  1.39E-07,  avg # of iterations =  5.5

     negative rho (up, down):  4.205E-05 4.205E-05

     total cpu time spent up to now is       98.1 secs

     total energy              =    -672.04219355 Ry
     estimated scf accuracy    <       0.00009321 Ry

     total magnetization       =     0.00 Bohr mag/cell
     absolute magnetization    =     0.01 Bohr mag/cell

     iteration # 11     ecut=    50.00 Ry     beta= 0.30
     Davidson diagonalization with overlap
     ethr =  6.61E-08,  avg # of iterations =  2.0

     negative rho (up, down):  4.281E-05 4.281E-05

     total cpu time spent up to now is      106.2 secs

     total energy              =    -672.04220471 Ry
     estimated scf accuracy    <       0.00000811 Ry

     total magnetization       =    -0.00 Bohr mag/cell
     absolute magnetization    =     0.00 Bohr mag/cell

     iteration # 12     ecut=    50.00 Ry     beta= 0.30
     Davidson diagonalization with overlap
     ethr =  5.75E-09,  avg # of iterations =  4.5

     negative rho (up, down):  4.321E-05 4.321E-05

     total cpu time spent up to now is      114.8 secs

     total energy              =    -672.04220542 Ry
     estimated scf accuracy    <       0.00000226 Ry

     total magnetization       =     0.00 Bohr mag/cell
     absolute magnetization    =     0.00 Bohr mag/cell

     iteration # 13     ecut=    50.00 Ry     beta= 0.30
     Davidson diagonalization with overlap
     ethr =  1.60E-09,  avg # of iterations =  4.0

     negative rho (up, down):  4.362E-05 4.362E-05

     Magnetic moment per site  (integrated on atomic sphere of radius R)
     atom   1 (R=0.071)  charge=  1.1825  magn= -0.0000
     atom   2 (R=0.071)  charge=  1.1431  magn=  0.0001
     atom   3 (R=0.071)  charge=  1.1880  magn= -0.0000
     atom   4 (R=0.071)  charge=  1.1819  magn=  0.0000
     atom   5 (R=0.071)  charge=  1.1846  magn= -0.0001
     atom   6 (R=0.071)  charge=  1.1478  magn= -0.0000
     atom   7 (R=0.071)  charge=  1.1876  magn=  0.0000
     atom   8 (R=0.071)  charge=  1.1826  magn= -0.0001
     atom   9 (R=0.071)  charge=  1.2285  magn=  0.0000
     atom  10 (R=0.071)  charge=  1.1318  magn= -0.0000
     atom  11 (R=0.071)  charge=  1.1848  magn=  0.0000
     atom  12 (R=0.071)  charge=  1.1790  magn=  0.0000
     atom  13 (R=0.071)  charge=  1.1836  magn=  0.0000
     atom  14 (R=0.071)  charge=  1.1310  magn=  0.0000
     atom  15 (R=0.071)  charge=  1.1842  magn=  0.0000
     atom  16 (R=0.071)  charge=  1.1819  magn= -0.0000
     atom  17 (R=0.071)  charge=  1.1816  magn= -0.0000
     atom  18 (R=0.071)  charge=  1.1317  magn=  0.0001
     atom  19 (R=0.071)  charge=  1.1827  magn= -0.0000
     atom  20 (R=0.071)  charge=  1.1840  magn=  0.0000
     atom  21 (R=0.071)  charge=  1.1915  magn= -0.0000
     atom  22 (R=0.071)  charge=  1.1323  magn= -0.0000
     atom  23 (R=0.071)  charge=  1.1814  magn= -0.0000
     atom  24 (R=0.071)  charge=  1.1838  magn= -0.0000
     atom  25 (R=0.071)  charge=  1.1817  magn=  0.0001
     atom  26 (R=0.071)  charge=  1.1312  magn=  0.0000
     atom  27 (R=0.071)  charge=  1.1832  magn=  0.0000
     atom  28 (R=0.071)  charge=  1.1840  magn=  0.0001
     atom  29 (R=0.071)  charge=  1.1817  magn=  0.0000
     atom  30 (R=0.071)  charge=  1.1317  magn= -0.0000
     atom  31 (R=0.071)  charge=  1.1832  magn= -0.0000
     atom  32 (R=0.071)  charge=  1.1831  magn= -0.0000
     atom  33 (R=0.056)  charge=  1.9001  magn= -0.0000
     atom  34 (R=0.056)  charge=  1.9098  magn= -0.0001
     atom  35 (R=0.056)  charge=  0.4053  magn= -0.0000

     total cpu time spent up to now is      122.9 secs

     End of self-consistent calculation

 ------ SPIN UP ------------


          k = 0.0000 0.0000 0.0000 ( 24951 PWs)   bands (ev):

   -29.1102 -23.1110 -19.0913 -18.9541 -18.8846 -18.7810 -18.5693 -18.3012
   -18.1074 -17.8993 -17.0256 -16.8017 -16.7051 -16.6466 -16.6323 -16.3111
   -16.1992 -15.7212 -15.3571 -14.7498 -14.5242 -14.1323 -13.7018 -12.3465
   -12.1421 -12.0515 -12.0409 -11.9795 -11.9469 -11.8395 -11.4448 -11.1258
   -10.9195 -10.6440 -10.4784 -10.3164 -10.2276 -10.1978 -10.1472 -10.0630
    -9.1678  -8.0549  -7.7012  -7.5779  -7.5136  -7.4648  -6.5683  -6.3863
    -6.3506  -6.2980  -5.8226  -5.5128  -5.4020  -5.2979  -5.2106  -5.1822
    -5.1609  -5.0706  -5.0523  -4.9868  -4.9274  -4.9172  -4.7376  -4.6504
    -4.3780  -4.3181  -3.8992  -3.6525  -3.6011  -3.4915  -1.2740  -0.8482
    -0.7780  -0.7343  -0.6096   0.7674   0.9146   1.0168   1.1261   1.2458
     1.2586   1.4298   1.6702   1.7168   1.7580

 ------ SPIN DOWN ----------


          k = 0.0000 0.0000 0.0000 ( 24951 PWs)   bands (ev):

   -29.1103 -23.1111 -19.0912 -18.9540 -18.8846 -18.7811 -18.5692 -18.3012
   -18.1073 -17.8994 -17.0257 -16.8017 -16.7051 -16.6466 -16.6323 -16.3111
   -16.1992 -15.7211 -15.3571 -14.7498 -14.5242 -14.1323 -13.7018 -12.3465
   -12.1421 -12.0515 -12.0410 -11.9796 -11.9470 -11.8395 -11.4448 -11.1258
   -10.9195 -10.6440 -10.4784 -10.3164 -10.2276 -10.1978 -10.1472 -10.0631
    -9.1678  -8.0550  -7.7012  -7.5779  -7.5137  -7.4647  -6.5682  -6.3862
    -6.3505  -6.2980  -5.8226  -5.5128  -5.4020  -5.2979  -5.2106  -5.1821
    -5.1610  -5.0706  -5.0523  -4.9868  -4.9273  -4.9172  -4.7376  -4.6504
    -4.3780  -4.3180  -3.8991  -3.6525  -3.6011  -3.4915  -1.2742  -0.8481
    -0.7781  -0.7343  -0.6097   0.7673   0.9146   1.0168   1.1261   1.2457
     1.2585   1.4297   1.6701   1.7167   1.7579

     the spin up/dw Fermi energies are    -1.2740   -1.2742 ev

!    total energy              =    -672.04220577 Ry
     estimated scf accuracy    <       0.00000031 Ry
     smearing contrib. (-TS)   =      -0.00005642 Ry
     internal energy E=F+TS    =    -672.04214936 Ry

     The total energy is F=E-TS. E is the sum of the following terms:
     one-electron contribution =    -904.89253927 Ry
     hartree contribution      =     481.01760559 Ry
     xc contribution           =    -160.71040184 Ry
     ewald contribution        =     129.00886578 Ry
     one-center paw contrib.   =    -216.46567963 Ry

     total magnetization       =    -0.00 Bohr mag/cell
     absolute magnetization    =     0.00 Bohr mag/cell

     convergence has been achieved in  13 iterations

     negative rho (up, down):  4.362E-05 4.362E-05

     Forces acting on atoms (cartesian axes, Ry/au):

     atom    1 type  1   force =    -0.08393684   -0.00052058    0.04980868
     atom    2 type  1   force =    -0.01238098   -0.02697088   -0.05117755
     atom    3 type  1   force =     0.00085163    0.00118145   -0.01492820
     atom    4 type  1   force =     0.08210760    0.00121347    0.04596743
     atom    5 type  1   force =    -0.08487683    0.00080996   -0.05142511
     atom    6 type  1   force =     0.01962723    0.01218301   -0.08771334
     atom    7 type  1   force =     0.00010086   -0.01477589    0.01545417
     atom    8 type  1   force =     0.08323350   -0.00115252   -0.04760417
     atom    9 type  1   force =     0.02065934    0.32111880   -0.22315302
     atom   10 type  1   force =     0.00063982   -0.00236750    0.07153100
     atom   11 type  1   force =     0.00574574    0.00169916    0.02720298
     atom   12 type  1   force =    -0.00733127   -0.07630898   -0.01991654
     atom   13 type  1   force =     0.00011615    0.08687274    0.05268024
     atom   14 type  1   force =    -0.00104244   -0.00265393   -0.06504188
     atom   15 type  1   force =     0.00130320   -0.00116973    0.00932538
     atom   16 type  1   force =     0.00039238   -0.08562927    0.04999552
     atom   17 type  1   force =     0.00042474   -0.08703445   -0.05296085
     atom   18 type  1   force =    -0.00245975    0.00102697    0.06227558
     atom   19 type  1   force =     0.00141243    0.00086197   -0.00934166
     atom   20 type  1   force =     0.00075334    0.08462874   -0.04999365
     atom   21 type  1   force =    -0.06646643   -0.35419092    0.10889483
     atom   22 type  1   force =     0.00103479    0.00235219   -0.06846319
     atom   23 type  1   force =    -0.00745765   -0.00251265   -0.01647155
     atom   24 type  1   force =    -0.00447982    0.06299407    0.02547407
     atom   25 type  1   force =     0.08621795   -0.00009865    0.05263546
     atom   26 type  1   force =    -0.00283664    0.00087322   -0.07011047
     atom   27 type  1   force =    -0.00145363   -0.00099979    0.00865139
     atom   28 type  1   force =    -0.08426703   -0.00055909    0.04846881
     atom   29 type  1   force =     0.08403769   -0.00036043   -0.05204817
     atom   30 type  1   force =    -0.00333293    0.00060588    0.07092012
     atom   31 type  1   force =    -0.00097679    0.00119852   -0.01005561
     atom   32 type  1   force =    -0.08276987    0.00092252   -0.04895311
     atom   33 type  2   force =    -0.17529535    0.01958713    0.03621680
     atom   34 type  2   force =     0.21494701    0.05123094    0.17873526
     atom   35 type  3   force =     0.01775885    0.00594451    0.02512036

     Total force =     0.760422     Total SCF correction =     0.000604

     BFGS Geometry Optimization
     Energy error            =      0.0E+00 Ry
     Gradient error          =      3.5E-01 Ry/Bohr

     number of scf cycles    =   1
     number of bfgs steps    =   0

     energy             new  =    -672.0422057742 Ry

     new trust radius        =       0.3915882585 bohr
     new conv_thr            =       0.0000010000 Ry


ATOMIC_POSITIONS (angstrom)
C             4.6025825351        5.2317245233        6.4803576160
C             3.3324482663        1.6177276233       13.2919180059
C             3.3884506650        5.2116251965        8.5981003387
C             2.2064494713        5.2326421431        6.4783249152
C             4.6060851142        1.5814286102       18.1057870060
C             3.3483862840        5.1884469706       11.2225840993
C             3.3910533754        1.5941809349       15.9891779926
C             2.2100452722        1.5803901136       18.1088089607
C             3.3489324534        4.1089287518       11.8679125065
C             6.9543385773        5.2307471714        5.1598525751
C             3.3680405163        5.1948991584        9.8483951953
C             3.3341204596        6.3826190283       11.9764606185
C            -0.0739385353        3.9839710724        0.3348771810
C             3.4034483623        5.2305956033        7.1365813211
C            -0.1023103745        5.1933810034        2.4639347790
C            -0.0737923599        6.3776869397        0.3334564903
C            -0.0737752358        2.8289433508       24.2519743269
C             3.4066983579        1.5815434468       17.4489548195
C            -0.0992525752        1.6194561370       22.1240566056
C            -0.0736013476        0.4347836009       24.2545444977
C             3.3028274791        2.6875702388       12.6596246608
C            -0.1394524131        1.5822447254       19.4297708425
C             3.3630535797        1.6176703635       14.7442836297
C             3.3356293818        0.4233350288       12.6144802997
C             5.7596245726        1.5809477991       18.7758534865
C            -0.0765010842        5.1814620905        0.9878991380
C            -0.1237692294        1.6014709345       20.9045781204
C             1.0574078107        1.5807041444       18.7736485893
C             5.7554708309        5.2318092677        5.8114572928
C            -0.0747637096        1.6313206167       23.6005293092
C            -0.1275168958        5.2116342273        3.6826788003
C             1.0542000685        5.2324881783        5.8140951281
O             3.0842376936        4.2013650607       13.3321651040
O             4.3817450573        3.6871102470       14.2945826278
H             4.1483975761        4.3231456976       14.9132931197



     Writing config-only to output data dir ./pwscf.save/
     NEW-OLD atomic charge density approx. for the potential

     Check: negative core charge=   -0.000003

     negative rho (up, down):  4.519E-05 4.519E-05
     Generating pointlists ...
     new r_m :   0.0533 (alat units)  0.7152 (a.u.) for type    2
     new r_m :   0.0533 (alat units)  0.7152 (a.u.) for type    3

     total cpu time spent up to now is      140.4 secs

     Self-consistent Calculation

     iteration #  1     ecut=    50.00 Ry     beta= 0.30
     Davidson diagonalization with overlap
     c_bands:  2 eigenvalues not converged
     c_bands:  2 eigenvalues not converged
     ethr =  1.00E-06,  avg # of iterations = 20.0

     negative rho (up, down):  4.092E-05 4.091E-05

     total cpu time spent up to now is      162.1 secs

     total energy              =    -671.80143530 Ry
     estimated scf accuracy    <       0.58160662 Ry

     total magnetization       =     0.00 Bohr mag/cell
     absolute magnetization    =     0.00 Bohr mag/cell

     iteration #  2     ecut=    50.00 Ry     beta= 0.30
     Davidson diagonalization with overlap
     ethr =  4.12E-04,  avg # of iterations =  2.0

     negative rho (up, down):  4.127E-05 4.127E-05

     total cpu time spent up to now is      170.0 secs

     total energy              =    -671.83153697 Ry
     estimated scf accuracy    <       0.39804534 Ry

     total magnetization       =    -0.00 Bohr mag/cell
     absolute magnetization    =     0.00 Bohr mag/cell

     iteration #  3     ecut=    50.00 Ry     beta= 0.30
     Davidson diagonalization with overlap
     ethr =  2.82E-04,  avg # of iterations =  2.0

     negative rho (up, down):  3.759E-05 3.758E-05

     total cpu time spent up to now is      177.8 secs

     total energy              =    -671.88091706 Ry
     estimated scf accuracy    <       0.07007586 Ry

     total magnetization       =     0.00 Bohr mag/cell
     absolute magnetization    =     0.00 Bohr mag/cell

     iteration #  4     ecut=    50.00 Ry     beta= 0.30
     Davidson diagonalization with overlap
     ethr =  4.97E-05,  avg # of iterations =  2.0

     negative rho (up, down):  3.937E-05 3.937E-05

     total cpu time spent up to now is      185.6 secs

     total energy              =    -671.88304420 Ry
     estimated scf accuracy    <       0.01041795 Ry

     total magnetization       =    -0.00 Bohr mag/cell
     absolute magnetization    =     0.00 Bohr mag/cell

     iteration #  5     ecut=    50.00 Ry     beta= 0.30
     Davidson diagonalization with overlap
     c_bands:  1 eigenvalues not converged
     c_bands:  1 eigenvalues not converged
     ethr =  7.39E-06,  avg # of iterations = 20.0

     negative rho (up, down):  4.063E-05 4.063E-05

     total cpu time spent up to now is      196.5 secs

     total energy              =    -671.88398865 Ry
     estimated scf accuracy    <       0.00220104 Ry

     total magnetization       =     0.00 Bohr mag/cell
     absolute magnetization    =     0.00 Bohr mag/cell

     iteration #  6     ecut=    50.00 Ry     beta= 0.30
     Davidson diagonalization with overlap
     ethr =  1.56E-06,  avg # of iterations = 14.5

     negative rho (up, down):  3.998E-05 3.997E-05

     total cpu time spent up to now is      205.8 secs

     total energy              =    -671.88413424 Ry
     estimated scf accuracy    <       0.00037601 Ry

     total magnetization       =    -0.00 Bohr mag/cell
     absolute magnetization    =     0.00 Bohr mag/cell

     iteration #  7     ecut=    50.00 Ry     beta= 0.30
     Davidson diagonalization with overlap
     ethr =  2.67E-07,  avg # of iterations =  3.0

     negative rho (up, down):  3.974E-05 3.973E-05

     total cpu time spent up to now is      213.2 secs

     total energy              =    -671.88416266 Ry
     estimated scf accuracy    <       0.00006193 Ry

     total magnetization       =    -0.00 Bohr mag/cell
     absolute magnetization    =     0.00 Bohr mag/cell

     iteration #  8     ecut=    50.00 Ry     beta= 0.30
     Davidson diagonalization with overlap
     ethr =  4.39E-08,  avg # of iterations =  3.0

     negative rho (up, down):  3.935E-05 3.935E-05

     total cpu time spent up to now is      221.4 secs

     total energy              =    -671.88417221 Ry
     estimated scf accuracy    <       0.00001178 Ry

     total magnetization       =     0.00 Bohr mag/cell
     absolute magnetization    =     0.00 Bohr mag/cell

     iteration #  9     ecut=    50.00 Ry     beta= 0.30
     Davidson diagonalization with overlap
     ethr =  8.35E-09,  avg # of iterations =  4.0

     negative rho (up, down):  3.911E-05 3.911E-05

     total cpu time spent up to now is      228.7 secs

     total energy              =    -671.88417361 Ry
     estimated scf accuracy    <       0.00000283 Ry

     total magnetization       =     0.00 Bohr mag/cell
     absolute magnetization    =     0.00 Bohr mag/cell

     iteration # 10     ecut=    50.00 Ry     beta= 0.30
     Davidson diagonalization with overlap
     ethr =  2.01E-09,  avg # of iterations =  3.0

     negative rho (up, down):  3.888E-05 3.888E-05

     Magnetic moment per site  (integrated on atomic sphere of radius R)
     atom   1 (R=0.071)  charge=  1.1470  magn= -0.0000
     atom   2 (R=0.071)  charge=  1.2347  magn=  0.0000
     atom   3 (R=0.071)  charge=  1.1647  magn=  0.0000
     atom   4 (R=0.071)  charge=  1.1499  magn= -0.0000
     atom   5 (R=0.071)  charge=  1.1470  magn=  0.0000
     atom   6 (R=0.071)  charge=  1.2428  magn=  0.0000
     atom   7 (R=0.071)  charge=  1.1684  magn=  0.0000
     atom   8 (R=0.071)  charge=  1.1510  magn=  0.0000
     atom   9 (R=0.071)  charge=  1.1375  magn=  0.0000
     atom  10 (R=0.071)  charge=  1.1673  magn= -0.0000
     atom  11 (R=0.071)  charge=  1.1929  magn= -0.0000
     atom  12 (R=0.071)  charge=  1.1441  magn=  0.0000
     atom  13 (R=0.071)  charge=  1.1470  magn= -0.0000
     atom  14 (R=0.071)  charge=  1.1696  magn= -0.0000
     atom  15 (R=0.071)  charge=  1.1801  magn=  0.0000
     atom  16 (R=0.071)  charge=  1.1501  magn= -0.0000
     atom  17 (R=0.071)  charge=  1.1486  magn=  0.0000
     atom  18 (R=0.071)  charge=  1.1698  magn=  0.0000
     atom  19 (R=0.071)  charge=  1.1794  magn= -0.0000
     atom  20 (R=0.071)  charge=  1.1485  magn=  0.0000
     atom  21 (R=0.071)  charge=  1.1254  magn= -0.0000
     atom  22 (R=0.071)  charge=  1.1687  magn= -0.0000
     atom  23 (R=0.071)  charge=  1.1653  magn= -0.0000
     atom  24 (R=0.071)  charge=  1.1594  magn= -0.0000
     atom  25 (R=0.071)  charge=  1.1491  magn= -0.0000
     atom  26 (R=0.071)  charge=  1.1684  magn= -0.0000
     atom  27 (R=0.071)  charge=  1.1786  magn=  0.0000
     atom  28 (R=0.071)  charge=  1.1490  magn= -0.0000
     atom  29 (R=0.071)  charge=  1.1491  magn=  0.0000
     atom  30 (R=0.071)  charge=  1.1681  magn= -0.0000
     atom  31 (R=0.071)  charge=  1.1803  magn=  0.0000
     atom  32 (R=0.071)  charge=  1.1497  magn=  0.0000
     atom  33 (R=0.053)  charge=  1.6480  magn= -0.0000
     atom  34 (R=0.053)  charge=  1.6819  magn= -0.0000
     atom  35 (R=0.053)  charge=  0.4043  magn=  0.0000

     total cpu time spent up to now is      236.1 secs

     End of self-consistent calculation

 ------ SPIN UP ------------


          k = 0.0000 0.0000 0.0000 ( 24951 PWs)   bands (ev):

   -25.0596 -21.1908 -19.9918 -19.6563 -19.4014 -19.3019 -19.1927 -18.8172
   -18.6687 -18.5243 -16.6694 -16.5037 -16.4353 -16.3910 -16.3374 -16.3000
   -16.0900 -16.0695 -14.4721 -14.2529 -14.0064 -13.8649 -13.6343 -13.0513
   -12.9682 -12.8607 -12.7870 -12.3203 -12.0225 -11.5962 -11.3963 -11.0652
   -10.8312 -10.7682 -10.6713 -10.5734 -10.5227 -10.2871  -9.7608  -8.5054
    -8.1171  -7.9473  -7.8435  -7.7626  -7.4948  -7.2414  -6.7499  -6.6558
    -6.5821  -6.3493  -5.3860  -5.1682  -5.1487  -5.0351  -5.0210  -5.0083
    -4.9314  -4.9092  -4.9053  -4.7925  -4.7819  -4.7058  -4.5414  -4.3525
    -4.3018  -4.2107  -4.0186  -3.8713  -3.7703  -3.0916  -1.3785  -0.6132
    -0.5434  -0.3746  -0.2406  -0.0668   0.0123   0.1429   0.2906   0.3229
     1.0914   1.1724   1.2866   1.3624   1.4160

 ------ SPIN DOWN ----------


          k = 0.0000 0.0000 0.0000 ( 24951 PWs)   bands (ev):

   -25.0596 -21.1908 -19.9918 -19.6563 -19.4014 -19.3019 -19.1927 -18.8172
   -18.6687 -18.5243 -16.6694 -16.5037 -16.4353 -16.3910 -16.3374 -16.3000
   -16.0900 -16.0695 -14.4721 -14.2529 -14.0064 -13.8649 -13.6343 -13.0513
   -12.9682 -12.8607 -12.7870 -12.3203 -12.0225 -11.5962 -11.3963 -11.0652
   -10.8312 -10.7682 -10.6713 -10.5734 -10.5227 -10.2871  -9.7608  -8.5054
    -8.1171  -7.9473  -7.8435  -7.7626  -7.4948  -7.2414  -6.7499  -6.6558
    -6.5821  -6.3493  -5.3860  -5.1682  -5.1487  -5.0351  -5.0210  -5.0083
    -4.9314  -4.9092  -4.9053  -4.7925  -4.7819  -4.7058  -4.5414  -4.3525
    -4.3018  -4.2107  -4.0186  -3.8713  -3.7703  -3.0916  -1.3786  -0.6132
    -0.5434  -0.3746  -0.2406  -0.0668   0.0123   0.1429   0.2906   0.3229
     1.0914   1.1724   1.2866   1.3620   1.4160

     the spin up/dw Fermi energies are    -1.3785   -1.3786 ev

!    total energy              =    -671.88417400 Ry
     estimated scf accuracy    <       0.00000067 Ry
     smearing contrib. (-TS)   =      -0.00005642 Ry
     internal energy E=F+TS    =    -671.88411758 Ry

     The total energy is F=E-TS. E is the sum of the following terms:
     one-electron contribution =    -890.12921977 Ry
     hartree contribution      =     473.77183359 Ry
     xc contribution           =    -160.22907673 Ry
     ewald contribution        =     121.15788018 Ry
     one-center paw contrib.   =    -216.45553486 Ry

     total magnetization       =    -0.00 Bohr mag/cell
     absolute magnetization    =     0.00 Bohr mag/cell

     convergence has been achieved in  10 iterations

     negative rho (up, down):  3.888E-05 3.888E-05

     Forces acting on atoms (cartesian axes, Ry/au):

     atom    1 type  1   force =     0.23489930   -0.00007048   -0.13328751
     atom    2 type  1   force =    -0.00085811   -0.22635052    0.17182533
     atom    3 type  1   force =    -0.00064587    0.00035665    0.06836277
     atom    4 type  1   force =    -0.23198517    0.00031466   -0.13311084
     atom    5 type  1   force =     0.23723569    0.00007417    0.13527538
     atom    6 type  1   force =     0.01438653    0.21624909   -0.12567060
     atom    7 type  1   force =    -0.00906811   -0.01715360   -0.05997921
     atom    8 type  1   force =    -0.23432978    0.00009364    0.13495969
     atom    9 type  1   force =    -0.04584182   -0.41749818    0.38490852
     atom   10 type  1   force =     0.00039713   -0.00210026   -0.05577615
     atom   11 type  1   force =     0.01338577    0.01623043   -0.19147345
     atom   12 type  1   force =    -0.00987631    0.19971032    0.10831088
     atom   13 type  1   force =     0.00012763   -0.24150551   -0.13699296
     atom   14 type  1   force =    -0.00077688   -0.00253631    0.03966780
     atom   15 type  1   force =     0.00163206   -0.00103414   -0.03260252
     atom   16 type  1   force =     0.00016556    0.23863111   -0.13629550
     atom   17 type  1   force =     0.00019399    0.24189580    0.13847513
     atom   18 type  1   force =     0.00070697   -0.00053264   -0.04336231
     atom   19 type  1   force =     0.00160304    0.00093096    0.03092232
     atom   20 type  1   force =     0.00022516   -0.23804979    0.13702049
     atom   21 type  1   force =    -0.04443059    0.52203262   -0.26595573
     atom   22 type  1   force =     0.00101298    0.00213187    0.05232794
     atom   23 type  1   force =    -0.00464325   -0.00030908    0.09284509
     atom   24 type  1   force =     0.00426730   -0.25316387   -0.13721488
     atom   25 type  1   force =    -0.23900528   -0.00080135   -0.13564305
     atom   26 type  1   force =    -0.00266261    0.00000313    0.05302726
     atom   27 type  1   force =    -0.00122244   -0.00092104   -0.02968382
     atom   28 type  1   force =     0.23490995    0.00033898   -0.13446687
     atom   29 type  1   force =    -0.23608216   -0.00038209    0.13463365
     atom   30 type  1   force =    -0.00285938   -0.00117035   -0.05601569
     atom   31 type  1   force =    -0.00113628    0.00145113    0.03449263
     atom   32 type  1   force =     0.23264616    0.00065844    0.13371575
     atom   33 type  2   force =    -0.07556002   -0.05977885   -0.17064915
     atom   34 type  2   force =     0.17882188   -0.06391253    0.02768811
     atom   35 type  3   force =    -0.01563307    0.08616760    0.09972153

     Total force =     1.416747     Total SCF correction =     0.000877
     Energy error            =      1.6E-01 Ry
     Gradient error          =      5.2E-01 Ry/Bohr

     number of scf cycles    =   2
     number of bfgs steps    =   1

     energy             old  =    -672.0422057742 Ry
     energy             new  =    -671.8841740014 Ry

     CASE: energy            _new > energy            _old

     new trust radius        =       0.1537693670 bohr
     new conv_thr            =       0.0000010000 Ry


ATOMIC_POSITIONS (angstrom)
C             4.6295580943        5.2318918255        6.4643501416
C             3.3364272570        1.6263955053       13.3083654087
C             3.3881769677        5.2112455029        8.6028979511
C             2.1800617927        5.2322521575        6.4635519381
C             4.6333627665        1.5811683072       18.1223139675
C             3.3420784990        5.1845316045       11.2507733461
C             3.3910209595        1.5989295997       15.9842113444
C             2.1832957525        1.5807605090       18.1241079512
C             3.3422929695        4.0057278348       11.9396292554
C             6.9541329529        5.2315080377        5.1368639965
C             3.3661939537        5.1943530826        9.8396527233
C             3.3364765772        6.4071431495       11.9828613825
C            -0.0739758640        3.9560519782        0.3179468463
C             3.4037833822        5.2314485198        7.1574844301
C            -0.1027291970        5.1937569316        2.4609377952
C            -0.0739184636        6.4052064108        0.3173889677
C            -0.0739117393        2.8569144174       24.2689948436
C             3.4074888696        1.5812134014       17.4289407397
C            -0.0997065003        1.6191791164       22.1270588217
C            -0.0738434567        0.4075856804       24.2706114203
C             3.3241884105        2.8013998470       12.6246281238
C            -0.1397849729        1.5814887803       19.4517734891
C             3.3654503147        1.6184778767       14.7495772448
C             3.3370691027        0.4030900408       12.6062934609
C             5.7319159142        1.5809795017       18.7589375419
C            -0.0755894476        5.1811814543        1.0104311871
C            -0.1233020620        1.6017922459       20.9017977421
C             1.0844894833        1.5808838231       18.7580717201
C             5.7284628615        5.2319251030        5.8281844953
C            -0.0736925757        1.6311259002       23.5777370561
C            -0.1272029753        5.2112490492        3.6859104647
C             1.0808005881        5.2321916985        5.8298276425
O             3.1405739815        4.1950701650       13.3205257770
O             4.3126655513        3.6706456857       14.2371408246
H             4.1426902519        4.3212352565       14.9052199589



     Writing config-only to output data dir ./pwscf.save/
     NEW-OLD atomic charge density approx. for the potential

     Check: negative core charge=   -0.000003

     negative rho (up, down):  3.923E-05 3.923E-05
     Generating pointlists ...

     total cpu time spent up to now is      254.3 secs

     Self-consistent Calculation

     iteration #  1     ecut=    50.00 Ry     beta= 0.30
     Davidson diagonalization with overlap
     c_bands:  1 eigenvalues not converged
     c_bands:  1 eigenvalues not converged
     ethr =  1.00E-06,  avg # of iterations = 20.0

     negative rho (up, down):  4.021E-05 4.021E-05

     total cpu time spent up to now is      274.9 secs

     total energy              =    -672.10571314 Ry
     estimated scf accuracy    <       0.21238147 Ry

     total magnetization       =    -0.00 Bohr mag/cell
     absolute magnetization    =     0.00 Bohr mag/cell

     iteration #  2     ecut=    50.00 Ry     beta= 0.30
     Davidson diagonalization with overlap
     ethr =  1.51E-04,  avg # of iterations =  4.0

     negative rho (up, down):  4.228E-05 4.227E-05

     total cpu time spent up to now is      283.2 secs

     total energy              =    -672.11959253 Ry
     estimated scf accuracy    <       0.16999114 Ry

     total magnetization       =    -0.00 Bohr mag/cell
     absolute magnetization    =     0.00 Bohr mag/cell

     iteration #  3     ecut=    50.00 Ry     beta= 0.30
     Davidson diagonalization with overlap
     ethr =  1.21E-04,  avg # of iterations =  3.0

     negative rho (up, down):  4.132E-05 4.132E-05

     total cpu time spent up to now is      291.0 secs

     total energy              =    -672.13643698 Ry
     estimated scf accuracy    <       0.02313717 Ry

     total magnetization       =    -0.00 Bohr mag/cell
     absolute magnetization    =     0.00 Bohr mag/cell

     iteration #  4     ecut=    50.00 Ry     beta= 0.30
     Davidson diagonalization with overlap
     ethr =  1.64E-05,  avg # of iterations =  2.0

     negative rho (up, down):  4.166E-05 4.166E-05

     total cpu time spent up to now is      298.3 secs

     total energy              =    -672.13779056 Ry
     estimated scf accuracy    <       0.00322823 Ry

     total magnetization       =    -0.00 Bohr mag/cell
     absolute magnetization    =     0.00 Bohr mag/cell

     iteration #  5     ecut=    50.00 Ry     beta= 0.30
     Davidson diagonalization with overlap
     c_bands:  1 eigenvalues not converged
     c_bands:  1 eigenvalues not converged
     ethr =  2.29E-06,  avg # of iterations = 20.0

     negative rho (up, down):  4.223E-05 4.223E-05

     total cpu time spent up to now is      308.8 secs

     total energy              =    -672.13791598 Ry
     estimated scf accuracy    <       0.00089856 Ry

     total magnetization       =    -0.00 Bohr mag/cell
     absolute magnetization    =     0.00 Bohr mag/cell

     iteration #  6     ecut=    50.00 Ry     beta= 0.30
     Davidson diagonalization with overlap
     ethr =  6.37E-07,  avg # of iterations =  2.0

     negative rho (up, down):  4.199E-05 4.199E-05

     total cpu time spent up to now is      315.6 secs

     total energy              =    -672.13799323 Ry
     estimated scf accuracy    <       0.00012448 Ry

     total magnetization       =    -0.00 Bohr mag/cell
     absolute magnetization    =     0.00 Bohr mag/cell

     iteration #  7     ecut=    50.00 Ry     beta= 0.30
     Davidson diagonalization with overlap
     ethr =  8.83E-08,  avg # of iterations =  5.0

     negative rho (up, down):  4.166E-05 4.166E-05

     total cpu time spent up to now is      323.5 secs

     total energy              =    -672.13800630 Ry
     estimated scf accuracy    <       0.00002694 Ry

     total magnetization       =    -0.00 Bohr mag/cell
     absolute magnetization    =     0.00 Bohr mag/cell

     iteration #  8     ecut=    50.00 Ry     beta= 0.30
     Davidson diagonalization with overlap
     ethr =  1.91E-08,  avg # of iterations =  2.0

     negative rho (up, down):  4.139E-05 4.138E-05

     total cpu time spent up to now is      331.6 secs

     total energy              =    -672.13800860 Ry
     estimated scf accuracy    <       0.00000650 Ry

     total magnetization       =     0.00 Bohr mag/cell
     absolute magnetization    =     0.00 Bohr mag/cell

     iteration #  9     ecut=    50.00 Ry     beta= 0.30
     Davidson diagonalization with overlap
     ethr =  4.61E-09,  avg # of iterations =  4.0

     negative rho (up, down):  4.096E-05 4.096E-05

     Magnetic moment per site  (integrated on atomic sphere of radius R)
     atom   1 (R=0.071)  charge=  1.1650  magn=  0.0000
     atom   2 (R=0.071)  charge=  1.1703  magn=  0.0000
     atom   3 (R=0.071)  charge=  1.1787  magn=  0.0000
     atom   4 (R=0.071)  charge=  1.1656  magn=  0.0000
     atom   5 (R=0.071)  charge=  1.1663  magn=  0.0000
     atom   6 (R=0.071)  charge=  1.1775  magn=  0.0000
     atom   7 (R=0.071)  charge=  1.1796  magn= -0.0000
     atom   8 (R=0.071)  charge=  1.1670  magn=  0.0000
     atom   9 (R=0.071)  charge=  1.1623  magn=  0.0000
     atom  10 (R=0.071)  charge=  1.1439  magn=  0.0000
     atom  11 (R=0.071)  charge=  1.1878  magn= -0.0000
     atom  12 (R=0.071)  charge=  1.1637  magn=  0.0000
     atom  13 (R=0.071)  charge=  1.1660  magn= -0.0000
     atom  14 (R=0.071)  charge=  1.1445  magn= -0.0000
     atom  15 (R=0.071)  charge=  1.1824  magn=  0.0000
     atom  16 (R=0.071)  charge=  1.1666  magn= -0.0000
     atom  17 (R=0.071)  charge=  1.1657  magn=  0.0000
     atom  18 (R=0.071)  charge=  1.1451  magn= -0.0000
     atom  19 (R=0.071)  charge=  1.1811  magn=  0.0000
     atom  20 (R=0.071)  charge=  1.1670  magn=  0.0000
     atom  21 (R=0.071)  charge=  1.1330  magn= -0.0000
     atom  22 (R=0.071)  charge=  1.1447  magn=  0.0000
     atom  23 (R=0.071)  charge=  1.1751  magn=  0.0000
     atom  24 (R=0.071)  charge=  1.1730  magn= -0.0000
     atom  25 (R=0.071)  charge=  1.1654  magn= -0.0000
     atom  26 (R=0.071)  charge=  1.1440  magn=  0.0000
     atom  27 (R=0.071)  charge=  1.1812  magn= -0.0000
     atom  28 (R=0.071)  charge=  1.1667  magn= -0.0000
     atom  29 (R=0.071)  charge=  1.1651  magn=  0.0000
     atom  30 (R=0.071)  charge=  1.1441  magn=  0.0000
     atom  31 (R=0.071)  charge=  1.1818  magn= -0.0000
     atom  32 (R=0.071)  charge=  1.1667  magn=  0.0000
     atom  33 (R=0.053)  charge=  1.6610  magn= -0.0000
     atom  34 (R=0.053)  charge=  1.6803  magn= -0.0000
     atom  35 (R=0.053)  charge=  0.3764  magn=  0.0000

     total cpu time spent up to now is      340.0 secs

     End of self-consistent calculation

 ------ SPIN UP ------------


          k = 0.0000 0.0000 0.0000 ( 24951 PWs)   bands (ev):

   -27.2770 -22.0816 -19.3660 -19.1199 -19.0783 -18.9911 -18.8944 -18.4826
   -18.3204 -18.1586 -16.7438 -16.6146 -16.5795 -16.5681 -16.4959 -16.3349
   -16.0866 -15.8502 -15.0127 -14.5952 -14.4313 -14.0655 -13.6348 -12.4550
   -12.4233 -12.4146 -12.3935 -12.2407 -11.9336 -11.5396 -11.3454 -10.9490
   -10.9429 -10.6337 -10.4678 -10.4492 -10.4240 -10.4008 -10.2458  -9.2439
    -8.8128  -7.7420  -7.6796  -7.6691  -7.6638  -7.3832  -6.5707  -6.5130
    -6.4691  -6.4527  -5.5711  -5.3071  -5.2531  -5.2063  -5.1543  -5.1311
    -5.0020  -4.9905  -4.9578  -4.9499  -4.9393  -4.7723  -4.7109  -4.5246
    -4.2519  -4.1596  -4.0753  -3.8073  -3.7209  -3.4159  -1.2761  -0.7029
    -0.6523  -0.6051  -0.4817   0.4029   0.5690   0.6514   0.7560   0.8566
     1.2945   1.3569   1.5608   1.5751   1.7163

 ------ SPIN DOWN ----------


          k = 0.0000 0.0000 0.0000 ( 24951 PWs)   bands (ev):

   -27.2770 -22.0816 -19.3660 -19.1199 -19.0783 -18.9911 -18.8944 -18.4826
   -18.3204 -18.1586 -16.7438 -16.6146 -16.5795 -16.5681 -16.4959 -16.3349
   -16.0866 -15.8502 -15.0127 -14.5952 -14.4313 -14.0655 -13.6348 -12.4550
   -12.4233 -12.4146 -12.3935 -12.2407 -11.9336 -11.5396 -11.3454 -10.9490
   -10.9429 -10.6337 -10.4678 -10.4492 -10.4240 -10.4008 -10.2458  -9.2439
    -8.8128  -7.7420  -7.6796  -7.6691  -7.6638  -7.3832  -6.5707  -6.5130
    -6.4691  -6.4527  -5.5711  -5.3071  -5.2531  -5.2063  -5.1543  -5.1311
    -5.0020  -4.9905  -4.9578  -4.9499  -4.9393  -4.7723  -4.7109  -4.5246
    -4.2519  -4.1596  -4.0753  -3.8073  -3.7209  -3.4159  -1.2762  -0.7029
    -0.6523  -0.6051  -0.4817   0.4029   0.5690   0.6514   0.7560   0.8566
     1.2945   1.3569   1.5608   1.5751   1.7164

     the spin up/dw Fermi energies are    -1.2761   -1.2762 ev

!    total energy              =    -672.13800945 Ry
     estimated scf accuracy    <       0.00000091 Ry
     smearing contrib. (-TS)   =      -0.00005642 Ry
     internal energy E=F+TS    =    -672.13795303 Ry

     The total energy is F=E-TS. E is the sum of the following terms:
     one-electron contribution =    -898.01127809 Ry
     hartree contribution      =     477.64445560 Ry
     xc contribution           =    -160.41684345 Ry
     ewald contribution        =     125.09488353 Ry
     one-center paw contrib.   =    -216.44917062 Ry

     total magnetization       =    -0.00 Bohr mag/cell
     absolute magnetization    =     0.00 Bohr mag/cell

     convergence has been achieved in   9 iterations

     negative rho (up, down):  4.096E-05 4.096E-05

     Forces acting on atoms (cartesian axes, Ry/au):

     atom    1 type  1   force =     0.05377817   -0.00036858   -0.03056157
     atom    2 type  1   force =    -0.00913026   -0.06420598    0.00451775
     atom    3 type  1   force =     0.00011217    0.00084233    0.01785547
     atom    4 type  1   force =    -0.05287281    0.00083760   -0.03225963
     atom    5 type  1   force =     0.05485826    0.00036932    0.03045583
     atom    6 type  1   force =     0.01956566    0.06160193   -0.08417307
     atom    7 type  1   force =    -0.00364758   -0.01644114   -0.01695777
     atom    8 type  1   force =    -0.05357988   -0.00047672    0.03192393
     atom    9 type  1   force =    -0.01089966   -0.06215177    0.09013763
     atom   10 type  1   force =     0.00050154   -0.00227104    0.02417909
     atom   11 type  1   force =     0.00951628    0.00757157   -0.05381882
     atom   12 type  1   force =    -0.00914589    0.03686550    0.03255190
     atom   13 type  1   force =     0.00012605   -0.05511242   -0.03074859
     atom   14 type  1   force =    -0.00091199   -0.00261765   -0.02682100
     atom   15 type  1   force =     0.00145855   -0.00110666   -0.00673156
     atom   16 type  1   force =     0.00027844    0.05390283   -0.03148704
     atom   17 type  1   force =     0.00035705    0.05525581    0.03108092
     atom   18 type  1   force =    -0.00127960    0.00044395    0.02434341
     atom   19 type  1   force =     0.00151798    0.00087439    0.00597806
     atom   20 type  1   force =     0.00053132   -0.05427442    0.03184141
     atom   21 type  1   force =    -0.05588497    0.08890579   -0.08102202
     atom   22 type  1   force =     0.00091471    0.00225372   -0.02384493
     atom   23 type  1   force =    -0.00599569   -0.00050092    0.02998622
     atom   24 type  1   force =    -0.00115936   -0.06329870   -0.04059408
     atom   25 type  1   force =    -0.05450161   -0.00053072   -0.03004186
     atom   26 type  1   force =    -0.00274284    0.00052270   -0.02463033
     atom   27 type  1   force =    -0.00132254   -0.00098335   -0.00587803
     atom   28 type  1   force =     0.05287176   -0.00004595   -0.03149227
     atom   29 type  1   force =    -0.05400881   -0.00043310    0.02957312
     atom   30 type  1   force =    -0.00312914    0.00014758    0.02404382
     atom   31 type  1   force =    -0.00099992    0.00130725    0.00709834
     atom   32 type  1   force =     0.05235663    0.00083501    0.03053080
     atom   33 type  2   force =    -0.14191882   -0.02528271   -0.07773105
     atom   34 type  2   force =     0.20491336    0.00271526    0.12783802
     atom   35 type  3   force =     0.00947346    0.03484928    0.05485792

     Total force =     0.445009     Total SCF correction =     0.001746
     Energy error            =      9.6E-02 Ry
     Gradient error          =      2.0E-01 Ry/Bohr

     number of scf cycles    =   3
     number of bfgs steps    =   1

     energy             old  =    -672.0422057742 Ry
     energy             new  =    -672.1380094507 Ry

     CASE: energy            _new < energy            _old

     new trust radius        =       0.3149122437 bohr
     new conv_thr            =       0.0000010000 Ry


ATOMIC_POSITIONS (angstrom)
C             4.6409826215        5.2316210068        6.4582280770
C             3.3298090487        1.5904122357       13.3015730882
C             3.3883811694        5.2118629670        8.6089645235
C             2.1687564835        5.2328729464        6.4559287053
C             4.6451477696        1.5814903250       18.1281006004
C             3.3550479832        5.2166497240       11.1944021523
C             3.3892636300        1.5883329060       15.9786740301
C             2.1718441563        1.5803260442       18.1312802777
C             3.3406182008        4.0318963246       11.9442902866
C             6.9544894237        5.2299869445        5.1611969570
C             3.3718343434        5.1983362038        9.8182414526
C             3.3307378926        6.4116773946       11.9952034428
C            -0.0738941194        3.9444939266        0.3122382431
C             3.4031564390        5.2297084353        7.1330058200
C            -0.1017904637        5.1930128893        2.4593002406
C            -0.0737140302        6.4163942802        0.3108493565
C            -0.0736633691        2.8685138377       24.2748158729
C             3.4064340404        1.5816098587       17.4517276819
C            -0.0987196583        1.6197560564       22.1283268377
C            -0.0734525510        0.3960412099       24.2773238050
C             3.2853159116        2.7824407937       12.6043303105
C            -0.1391580518        1.5829987547       19.4281420950
C             3.3612224308        1.6177926900       14.7612759583
C             3.3357179046        0.3833532559       12.5910141154
C             5.7205400717        1.5807039029       18.7535649947
C            -0.0774225565        5.1815892264        0.9861281920
C            -0.1242010346        1.6011380702       20.9004571387
C             1.0954149147        1.5807632444       18.7512613529
C             5.7169438116        5.2316510176        5.8334321107
C            -0.0758008582        1.6313041561       23.6018968723
C            -0.1278611750        5.2120957621        3.6875982244
C             1.0917383526        5.2327601151        5.8360850392
O             3.0407151995        4.1862076949       13.2890614551
O             4.4501458178        3.6809672425       14.3307516793
H             4.1504202510        4.3392385566       14.9363290104



     Writing config-only to output data dir ./pwscf.save/
     NEW-OLD atomic charge density approx. for the potential

     Check: negative core charge=   -0.000003

     negative rho (up, down):  4.175E-05 4.175E-05
     Generating pointlists ...
     new r_m :   0.0703 (alat units)  0.9428 (a.u.) for type    1

     total cpu time spent up to now is      358.0 secs

     Self-consistent Calculation

     iteration #  1     ecut=    50.00 Ry     beta= 0.30
     Davidson diagonalization with overlap
     ethr =  1.00E-06,  avg # of iterations = 12.0

     negative rho (up, down):  4.370E-05 4.370E-05

     total cpu time spent up to now is      374.4 secs

     total energy              =    -672.18629761 Ry
     estimated scf accuracy    <       0.19522895 Ry

     total magnetization       =     0.00 Bohr mag/cell
     absolute magnetization    =     0.00 Bohr mag/cell

     iteration #  2     ecut=    50.00 Ry     beta= 0.30
     Davidson diagonalization with overlap
     ethr =  1.38E-04,  avg # of iterations =  7.0

     negative rho (up, down):  4.431E-05 4.431E-05

     total cpu time spent up to now is      383.3 secs

     total energy              =    -672.21825120 Ry
     estimated scf accuracy    <       0.21484506 Ry

     total magnetization       =    -0.00 Bohr mag/cell
     absolute magnetization    =     0.00 Bohr mag/cell

     iteration #  3     ecut=    50.00 Ry     beta= 0.30
     Davidson diagonalization with overlap
     ethr =  1.38E-04,  avg # of iterations =  2.0

     negative rho (up, down):  4.444E-05 4.444E-05

     total cpu time spent up to now is      391.0 secs

     total energy              =    -672.23806634 Ry
     estimated scf accuracy    <       0.00742919 Ry

     total magnetization       =     0.00 Bohr mag/cell
     absolute magnetization    =     0.00 Bohr mag/cell

     iteration #  4     ecut=    50.00 Ry     beta= 0.30
     Davidson diagonalization with overlap
     ethr =  5.27E-06,  avg # of iterations = 10.0

     negative rho (up, down):  4.570E-05 4.570E-05

     total cpu time spent up to now is      400.1 secs

     total energy              =    -672.23660359 Ry
     estimated scf accuracy    <       0.00204728 Ry

     total magnetization       =     0.00 Bohr mag/cell
     absolute magnetization    =     0.00 Bohr mag/cell

     iteration #  5     ecut=    50.00 Ry     beta= 0.30
     Davidson diagonalization with overlap
     ethr =  1.45E-06,  avg # of iterations =  2.0

     negative rho (up, down):  4.639E-05 4.639E-05

     total cpu time spent up to now is      407.5 secs

     total energy              =    -672.23637802 Ry
     estimated scf accuracy    <       0.00049564 Ry

     total magnetization       =    -0.00 Bohr mag/cell
     absolute magnetization    =     0.00 Bohr mag/cell

     iteration #  6     ecut=    50.00 Ry     beta= 0.30
     Davidson diagonalization with overlap
     ethr =  3.52E-07,  avg # of iterations =  2.0

     negative rho (up, down):  4.626E-05 4.626E-05

     total cpu time spent up to now is      415.1 secs

     total energy              =    -672.23637627 Ry
     estimated scf accuracy    <       0.00006988 Ry

     total magnetization       =    -0.00 Bohr mag/cell
     absolute magnetization    =     0.00 Bohr mag/cell

     iteration #  7     ecut=    50.00 Ry     beta= 0.30
     Davidson diagonalization with overlap
     ethr =  4.96E-08,  avg # of iterations =  2.0

     negative rho (up, down):  4.617E-05 4.617E-05

     total cpu time spent up to now is      422.6 secs

     total energy              =    -672.23637497 Ry
     estimated scf accuracy    <       0.00001283 Ry

     total magnetization       =    -0.00 Bohr mag/cell
     absolute magnetization    =     0.00 Bohr mag/cell

     iteration #  8     ecut=    50.00 Ry     beta= 0.30
     Davidson diagonalization with overlap
     ethr =  9.10E-09,  avg # of iterations =  3.0

     negative rho (up, down):  4.603E-05 4.603E-05

     total cpu time spent up to now is      430.9 secs

     total energy              =    -672.23637716 Ry
     estimated scf accuracy    <       0.00000199 Ry

     total magnetization       =    -0.00 Bohr mag/cell
     absolute magnetization    =     0.00 Bohr mag/cell

     iteration #  9     ecut=    50.00 Ry     beta= 0.30
     Davidson diagonalization with overlap
     ethr =  1.41E-09,  avg # of iterations =  4.0

     negative rho (up, down):  4.581E-05 4.581E-05

     Magnetic moment per site  (integrated on atomic sphere of radius R)
     atom   1 (R=0.070)  charge=  1.1337  magn=  0.0000
     atom   2 (R=0.070)  charge=  1.1109  magn=  0.0000
     atom   3 (R=0.070)  charge=  1.1407  magn=  0.0000
     atom   4 (R=0.070)  charge=  1.1339  magn=  0.0000
     atom   5 (R=0.070)  charge=  1.1343  magn=  0.0000
     atom   6 (R=0.070)  charge=  1.1245  magn=  0.0000
     atom   7 (R=0.070)  charge=  1.1357  magn= -0.0000
     atom   8 (R=0.070)  charge=  1.1350  magn=  0.0000
     atom   9 (R=0.070)  charge=  1.0961  magn=  0.0000
     atom  10 (R=0.070)  charge=  1.0925  magn=  0.0000
     atom  11 (R=0.070)  charge=  1.1703  magn= -0.0000
     atom  12 (R=0.070)  charge=  1.1371  magn=  0.0000
     atom  13 (R=0.070)  charge=  1.1349  magn=  0.0000
     atom  14 (R=0.070)  charge=  1.0918  magn= -0.0000
     atom  15 (R=0.070)  charge=  1.1266  magn= -0.0000
     atom  16 (R=0.070)  charge=  1.1349  magn=  0.0000
     atom  17 (R=0.070)  charge=  1.1335  magn= -0.0000
     atom  18 (R=0.070)  charge=  1.0914  magn= -0.0000
     atom  19 (R=0.070)  charge=  1.1286  magn= -0.0000
     atom  20 (R=0.070)  charge=  1.1362  magn= -0.0000
     atom  21 (R=0.070)  charge=  1.0690  magn= -0.0000
     atom  22 (R=0.070)  charge=  1.0934  magn=  0.0000
     atom  23 (R=0.070)  charge=  1.1339  magn=  0.0000
     atom  24 (R=0.070)  charge=  1.1508  magn= -0.0000
     atom  25 (R=0.070)  charge=  1.1331  magn= -0.0000
     atom  26 (R=0.070)  charge=  1.0930  magn= -0.0000
     atom  27 (R=0.070)  charge=  1.1270  magn=  0.0000
     atom  28 (R=0.070)  charge=  1.1363  magn= -0.0000
     atom  29 (R=0.070)  charge=  1.1330  magn= -0.0000
     atom  30 (R=0.070)  charge=  1.0921  magn=  0.0000
     atom  31 (R=0.070)  charge=  1.1282  magn=  0.0000
     atom  32 (R=0.070)  charge=  1.1360  magn= -0.0000
     atom  33 (R=0.053)  charge=  1.6579  magn=  0.0000
     atom  34 (R=0.053)  charge=  1.6713  magn= -0.0000
     atom  35 (R=0.053)  charge=  0.3814  magn=  0.0000

     total cpu time spent up to now is      439.2 secs

     End of self-consistent calculation

 ------ SPIN UP ------------


          k = 0.0000 0.0000 0.0000 ( 24951 PWs)   bands (ev):

   -26.1752 -20.8312 -19.2922 -19.1931 -19.0912 -18.9873 -18.8849 -18.4588
   -18.2693 -18.0531 -16.9838 -16.9424 -16.8182 -16.6612 -16.4815 -16.3807
   -16.0544 -15.9165 -14.9293 -14.6343 -14.5032 -14.1453 -13.3737 -12.6258
   -12.4974 -12.4713 -12.3047 -12.0346 -11.8700 -11.4476 -11.0956 -10.9410
   -10.7090 -10.6142 -10.5530 -10.3908 -10.3789 -10.1125  -9.7907  -8.7047
    -7.9920  -7.9101  -7.7548  -7.6081  -7.3919  -7.2579  -6.6088  -6.4920
    -6.4357  -6.3421  -5.5965  -5.4855  -5.3557  -5.3251  -5.3192  -5.2225
    -5.1581  -5.1558  -5.1218  -5.0292  -5.0047  -4.9068  -4.6971  -4.5164
    -4.2418  -4.1572  -4.0785  -3.9349  -3.7948  -2.9509  -1.9889  -0.8681
    -0.7416  -0.6326  -0.4902   0.4749   0.5358   0.7086   0.8219   0.9312
     1.3551   1.4297   1.6008   1.6361   1.7032

 ------ SPIN DOWN ----------


          k = 0.0000 0.0000 0.0000 ( 24951 PWs)   bands (ev):

   -26.1752 -20.8312 -19.2922 -19.1931 -19.0912 -18.9873 -18.8849 -18.4588
   -18.2693 -18.0531 -16.9838 -16.9424 -16.8182 -16.6611 -16.4815 -16.3807
   -16.0544 -15.9165 -14.9293 -14.6343 -14.5032 -14.1453 -13.3737 -12.6258
   -12.4974 -12.4713 -12.3047 -12.0346 -11.8700 -11.4476 -11.0956 -10.9410
   -10.7090 -10.6142 -10.5530 -10.3908 -10.3789 -10.1125  -9.7907  -8.7047
    -7.9920  -7.9101  -7.7548  -7.6081  -7.3919  -7.2579  -6.6088  -6.4920
    -6.4357  -6.3421  -5.5965  -5.4855  -5.3557  -5.3251  -5.3192  -5.2225
    -5.1581  -5.1558  -5.1218  -5.0292  -5.0047  -4.9068  -4.6971  -4.5164
    -4.2418  -4.1572  -4.0785  -3.9349  -3.7948  -2.9509  -1.9889  -0.8681
    -0.7416  -0.6326  -0.4902   0.4749   0.5358   0.7086   0.8219   0.9312
     1.3551   1.4297   1.6008   1.6361   1.7032

     the spin up/dw Fermi energies are    -1.9889   -1.9889 ev

!    total energy              =    -672.23637774 Ry
     estimated scf accuracy    <       0.00000036 Ry
     smearing contrib. (-TS)   =      -0.00005642 Ry
     internal energy E=F+TS    =    -672.23632132 Ry

     The total energy is F=E-TS. E is the sum of the following terms:
     one-electron contribution =    -886.08532659 Ry
     hartree contribution      =     471.93839335 Ry
     xc contribution           =    -160.44677472 Ry
     ewald contribution        =     118.81680070 Ry
     one-center paw contrib.   =    -216.45941406 Ry

     total magnetization       =    -0.00 Bohr mag/cell
     absolute magnetization    =     0.00 Bohr mag/cell

     convergence has been achieved in   9 iterations

     negative rho (up, down):  4.581E-05 4.581E-05

     Forces acting on atoms (cartesian axes, Ry/au):

     atom    1 type  1   force =    -0.02348841   -0.00024550    0.00738382
     atom    2 type  1   force =    -0.00569481   -0.01082998    0.00237248
     atom    3 type  1   force =     0.00212551    0.00202616   -0.10689984
     atom    4 type  1   force =     0.02569286   -0.00016338    0.00731151
     atom    5 type  1   force =    -0.02339525    0.00013538   -0.00722036
     atom    6 type  1   force =     0.01274158    0.00603304    0.05250749
     atom    7 type  1   force =    -0.00638589   -0.01795943    0.06815307
     atom    8 type  1   force =     0.02574763    0.00028536   -0.00714828
     atom    9 type  1   force =    -0.03090102   -0.03881086    0.06560074
     atom   10 type  1   force =    -0.00029700   -0.00153560   -0.00658554
     atom   11 type  1   force =     0.00782584    0.01281881   -0.01420974
     atom   12 type  1   force =    -0.00342034   -0.06952430   -0.05529433
     atom   13 type  1   force =    -0.00019753    0.02102431    0.00575820
     atom   14 type  1   force =    -0.00007807   -0.00235314    0.00451033
     atom   15 type  1   force =     0.00088505   -0.00055545   -0.01605322
     atom   16 type  1   force =    -0.00019729   -0.02298079    0.00598293
     atom   17 type  1   force =    -0.00002337   -0.02119099   -0.00413076
     atom   18 type  1   force =     0.00115841   -0.00065063   -0.00858344
     atom   19 type  1   force =     0.00090645    0.00058442    0.01926161
     atom   20 type  1   force =    -0.00003655    0.02441083   -0.00503893
     atom   21 type  1   force =    -0.02694571    0.10412328   -0.03206300
     atom   22 type  1   force =    -0.00020464    0.00154225    0.00274894
     atom   23 type  1   force =    -0.00844032   -0.00094853   -0.04301855
     atom   24 type  1   force =     0.00269552    0.03148662    0.02424464
     atom   25 type  1   force =     0.02114999   -0.00067745    0.00610715
     atom   26 type  1   force =    -0.00184090   -0.00054769    0.00246967
     atom   27 type  1   force =    -0.00061716   -0.00043676   -0.01773237
     atom   28 type  1   force =    -0.02453560    0.00065957    0.00674831
     atom   29 type  1   force =     0.02223497   -0.00038780   -0.00503961
     atom   30 type  1   force =    -0.00211106   -0.00062234   -0.00614075
     atom   31 type  1   force =    -0.00051173    0.00079535    0.01705974
     atom   32 type  1   force =    -0.02504836    0.00017750   -0.00548098
     atom   33 type  2   force =    -0.04633917   -0.04675010   -0.03990042
     atom   34 type  2   force =     0.11285603   -0.01084804    0.02752788
     atom   35 type  3   force =    -0.00530966    0.04191587    0.05479160

     Total force =     0.289132     Total SCF correction =     0.000489
     Energy error            =      9.8E-02 Ry
     Gradient error          =      1.1E-01 Ry/Bohr

     number of scf cycles    =   4
     number of bfgs steps    =   2

     energy             old  =    -672.1380094507 Ry
     energy             new  =    -672.2363777374 Ry

     CASE: energy            _new < energy            _old

     new trust radius        =       0.3807829847 bohr
     new conv_thr            =       0.0000010000 Ry


ATOMIC_POSITIONS (angstrom)
C             4.6311954300        5.2312488625        6.4602394345
C             3.3209242176        1.5565312634       13.2965605786
C             3.3899409223        5.2136667202        8.5432051606
C             2.1800066185        5.2332535500        6.4566857704
C             4.6356507541        1.5818370282       18.1259014179
C             3.3733394697        5.2441382171       11.1851152492
C             3.3838388711        1.5685102741       16.0195868165
C             2.1830609972        1.5801612652       18.1302512999
C             3.3199470320        4.0358962570       11.9831558662
C             6.9545737439        5.2278126828        5.1767743457
C             3.3811872639        5.2096158576        9.7944243332
C             3.3241330501        6.3671740453       11.9674313492
C            -0.0739600983        3.9526745724        0.3135817447
C             3.4026196331        5.2268342881        7.1161817662
C            -0.1004945599        5.1920764694        2.4479623299
C            -0.0736824188        6.4067122677        0.3116529081
C            -0.0734857038        2.8602491845       24.2746047037
C             3.4063483077        1.5815051657       17.4645882185
C            -0.0973715728        1.6205808593       22.1414881312
C            -0.0731700232        0.4063653382       24.2772599705
C             3.2375701836        2.8251214810       12.5723335464
C            -0.1388057062        1.5851688393       19.4106704326
C             3.3524322758        1.6165990476       14.7411498787
C             3.3363544198        0.3916778628       12.5966178798
C             5.7289127676        1.5800605605       18.7553767505
C            -0.0800359727        5.1815547761        0.9679368102
C            -0.1252986024        1.6003493043       20.8882174778
C             1.0845747949        1.5810878960       18.7523188049
C             5.7258494320        5.2311889955        5.8322448563
C            -0.0788048388        1.6310468741       23.6176193820
C            -0.1287009432        5.2132634633        3.6996044514
C             1.0806215972        5.2333156110        5.8354388144
O             2.9328226563        4.1499918004       13.2415480898
O             4.6297946266        3.6830044360       14.4219935638
H             4.1531113751        4.3797248830       14.9952778668



     Writing config-only to output data dir ./pwscf.save/
     NEW-OLD atomic charge density approx. for the potential

     Check: negative core charge=   -0.000003

     negative rho (up, down):  4.475E-05 4.475E-05
     Generating pointlists ...

     total cpu time spent up to now is      457.1 secs

     Self-consistent Calculation

     iteration #  1     ecut=    50.00 Ry     beta= 0.30
     Davidson diagonalization with overlap
     ethr =  1.00E-06,  avg # of iterations = 16.0

     negative rho (up, down):  4.380E-05 4.380E-05

     total cpu time spent up to now is      476.1 secs

     total energy              =    -672.15656857 Ry
     estimated scf accuracy    <       0.32269140 Ry

     total magnetization       =     0.00 Bohr mag/cell
     absolute magnetization    =     0.00 Bohr mag/cell

     iteration #  2     ecut=    50.00 Ry     beta= 0.30
     Davidson diagonalization with overlap
     ethr =  2.29E-04,  avg # of iterations =  6.0

     negative rho (up, down):  4.398E-05 4.398E-05

     total cpu time spent up to now is      484.9 secs

     total energy              =    -672.24554895 Ry
     estimated scf accuracy    <       0.26703955 Ry

     total magnetization       =     0.00 Bohr mag/cell
     absolute magnetization    =     0.01 Bohr mag/cell

     iteration #  3     ecut=    50.00 Ry     beta= 0.30
     Davidson diagonalization with overlap
     ethr =  1.89E-04,  avg # of iterations =  2.0

     negative rho (up, down):  4.432E-05 4.434E-05

     total cpu time spent up to now is      492.5 secs

     total energy              =    -672.25509461 Ry
     estimated scf accuracy    <       0.03768340 Ry

     total magnetization       =     0.00 Bohr mag/cell
     absolute magnetization    =     0.01 Bohr mag/cell

     iteration #  4     ecut=    50.00 Ry     beta= 0.30
     Davidson diagonalization with overlap
     ethr =  2.67E-05,  avg # of iterations =  8.5

     negative rho (up, down):  4.340E-05 4.341E-05

     total cpu time spent up to now is      501.0 secs

     total energy              =    -672.24938521 Ry
     estimated scf accuracy    <       0.01417639 Ry

     total magnetization       =     0.00 Bohr mag/cell
     absolute magnetization    =     0.01 Bohr mag/cell

     iteration #  5     ecut=    50.00 Ry     beta= 0.30
     Davidson diagonalization with overlap
     ethr =  1.01E-05,  avg # of iterations =  7.5

     negative rho (up, down):  4.321E-05 4.320E-05

     total cpu time spent up to now is      509.3 secs

     total energy              =    -672.24669201 Ry
     estimated scf accuracy    <       0.00487003 Ry

     total magnetization       =    -0.00 Bohr mag/cell
     absolute magnetization    =     0.00 Bohr mag/cell

     iteration #  6     ecut=    50.00 Ry     beta= 0.30
     Davidson diagonalization with overlap
     ethr =  3.45E-06,  avg # of iterations = 11.5

     negative rho (up, down):  4.337E-05 4.336E-05

     total cpu time spent up to now is      518.2 secs

     total energy              =    -672.24518572 Ry
     estimated scf accuracy    <       0.08233758 Ry

     total magnetization       =     0.00 Bohr mag/cell
     absolute magnetization    =     0.00 Bohr mag/cell

     iteration #  7     ecut=    50.00 Ry     beta= 0.30
     Davidson diagonalization with overlap
     ethr =  3.45E-06,  avg # of iterations =  1.0

     negative rho (up, down):  4.334E-05 4.334E-05

     total cpu time spent up to now is      525.1 secs

     total energy              =    -672.24685436 Ry
     estimated scf accuracy    <       0.00140982 Ry

     total magnetization       =     0.00 Bohr mag/cell
     absolute magnetization    =     0.00 Bohr mag/cell

     iteration #  8     ecut=    50.00 Ry     beta= 0.30
     Davidson diagonalization with overlap
     ethr =  1.00E-06,  avg # of iterations =  2.0

     negative rho (up, down):  4.349E-05 4.350E-05

     total cpu time spent up to now is      532.7 secs

     total energy              =    -672.24669920 Ry
     estimated scf accuracy    <       0.00049405 Ry

     total magnetization       =    -0.00 Bohr mag/cell
     absolute magnetization    =     0.01 Bohr mag/cell

     iteration #  9     ecut=    50.00 Ry     beta= 0.30
     Davidson diagonalization with overlap
     ethr =  3.50E-07,  avg # of iterations =  2.0

     negative rho (up, down):  4.348E-05 4.348E-05

     total cpu time spent up to now is      540.4 secs

     total energy              =    -672.24669894 Ry
     estimated scf accuracy    <       0.00103301 Ry

     total magnetization       =     0.00 Bohr mag/cell
     absolute magnetization    =     0.04 Bohr mag/cell

     iteration # 10     ecut=    50.00 Ry     beta= 0.30
     Davidson diagonalization with overlap
     ethr =  3.50E-07,  avg # of iterations =  1.0

     negative rho (up, down):  4.346E-05 4.346E-05

     total cpu time spent up to now is      548.0 secs

     total energy              =    -672.24673542 Ry
     estimated scf accuracy    <       0.00035167 Ry

     total magnetization       =    -0.00 Bohr mag/cell
     absolute magnetization    =     0.12 Bohr mag/cell

     iteration # 11     ecut=    50.00 Ry     beta= 0.30
     Davidson diagonalization with overlap
     ethr =  2.49E-07,  avg # of iterations =  1.0

     negative rho (up, down):  4.351E-05 4.348E-05

     total cpu time spent up to now is      555.5 secs

     total energy              =    -672.24668106 Ry
     estimated scf accuracy    <       0.00034598 Ry

     total magnetization       =    -0.00 Bohr mag/cell
     absolute magnetization    =     0.11 Bohr mag/cell

     iteration # 12     ecut=    50.00 Ry     beta= 0.30
     Davidson diagonalization with overlap
     ethr =  2.45E-07,  avg # of iterations =  1.0

     negative rho (up, down):  4.359E-05 4.356E-05

     total cpu time spent up to now is      563.0 secs

     total energy              =    -672.24662520 Ry
     estimated scf accuracy    <       0.00026900 Ry

     total magnetization       =    -0.00 Bohr mag/cell
     absolute magnetization    =     0.06 Bohr mag/cell

     iteration # 13     ecut=    50.00 Ry     beta= 0.30
     Davidson diagonalization with overlap
     ethr =  1.91E-07,  avg # of iterations =  1.0

     negative rho (up, down):  4.357E-05 4.356E-05

     total cpu time spent up to now is      570.6 secs

     total energy              =    -672.24662779 Ry
     estimated scf accuracy    <       0.00024308 Ry

     total magnetization       =     0.00 Bohr mag/cell
     absolute magnetization    =     0.07 Bohr mag/cell

     iteration # 14     ecut=    50.00 Ry     beta= 0.30
     Davidson diagonalization with overlap
     ethr =  1.72E-07,  avg # of iterations =  1.0

     negative rho (up, down):  4.360E-05 4.358E-05

     total cpu time spent up to now is      578.0 secs

     total energy              =    -672.24662015 Ry
     estimated scf accuracy    <       0.00020230 Ry

     total magnetization       =     0.00 Bohr mag/cell
     absolute magnetization    =     0.05 Bohr mag/cell

     iteration # 15     ecut=    50.00 Ry     beta= 0.30
     Davidson diagonalization with overlap
     ethr =  1.43E-07,  avg # of iterations =  1.0

     negative rho (up, down):  4.354E-05 4.356E-05

     total cpu time spent up to now is      585.2 secs

     total energy              =    -672.24657488 Ry
     estimated scf accuracy    <       0.00029774 Ry

     total magnetization       =    -0.00 Bohr mag/cell
     absolute magnetization    =     0.08 Bohr mag/cell

     iteration # 16     ecut=    50.00 Ry     beta= 0.30
     Davidson diagonalization with overlap
     ethr =  1.43E-07,  avg # of iterations =  1.5

     negative rho (up, down):  4.360E-05 4.358E-05

     total cpu time spent up to now is      592.2 secs

     total energy              =    -672.24661869 Ry
     estimated scf accuracy    <       0.00083297 Ry

     total magnetization       =    -0.00 Bohr mag/cell
     absolute magnetization    =     0.21 Bohr mag/cell

     iteration # 17     ecut=    50.00 Ry     beta= 0.30
     Davidson diagonalization with overlap
     ethr =  1.43E-07,  avg # of iterations =  1.0

     negative rho (up, down):  4.358E-05 4.356E-05

     total cpu time spent up to now is      599.3 secs

     total energy              =    -672.24663268 Ry
     estimated scf accuracy    <       0.00018995 Ry

     total magnetization       =     0.00 Bohr mag/cell
     absolute magnetization    =     0.05 Bohr mag/cell

     iteration # 18     ecut=    50.00 Ry     beta= 0.30
     Davidson diagonalization with overlap
     ethr =  1.35E-07,  avg # of iterations =  1.0

     negative rho (up, down):  4.358E-05 4.356E-05

     total cpu time spent up to now is      606.3 secs

     total energy              =    -672.24663402 Ry
     estimated scf accuracy    <       0.00057513 Ry

     total magnetization       =     0.00 Bohr mag/cell
[...]
     atom   33 type  2   force =     0.00023777   -0.00046253    0.00029580
     atom   34 type  2   force =     0.00036355    0.00083361   -0.00055353
     atom   35 type  3   force =     0.00060769   -0.00084757   -0.00076287

     Total force =     0.004032     Total SCF correction =     0.000048
     Energy error            =      2.4E-05 Ry
     Gradient error          =      1.1E-03 Ry/Bohr

     number of scf cycles    =  62
     number of bfgs steps    =  60

     energy             old  =    -672.3581748498 Ry
     energy             new  =    -672.3581983845 Ry

     CASE: energy            _new < energy            _old

     new trust radius        =       0.0105114058 bohr
     new conv_thr            =       0.0000000100 Ry


ATOMIC_POSITIONS (angstrom)
C             4.5893453848        5.1209542777        6.3614244835
C             3.3038631993        1.6565677490       13.2778523269
C             3.3589716800        5.1291906923        8.5068020614
C             2.1324502132        5.1217137683        6.3618640491
C             4.5477363494        1.5585990919       18.1029427601
C             3.3341169850        5.2380402830       11.1897549232
C             3.3096496233        1.5538203493       15.9660989364
C             2.0913296388        1.5596842128       18.1080971149
C             3.3098338658        4.1466489365       12.0599982160
C             6.9096463563        5.1331779772        5.0792807719
C             3.3521756312        5.1431509225        9.7385850536
C             3.3253335219        6.5000819045       11.8658432110
C            -0.1764279866        3.9492859881        0.2340633751
C             3.3608968931        5.1200288029        7.0396165152
C            -0.1766928878        5.1669973463        2.3819367867
C            -0.1763960921        6.4049186965        0.2398167251
C            -0.1771388703        2.8559901789       24.2209945027
C             3.3180919381        1.5535435029       17.4296086189
C            -0.2020295108        1.6168744001       22.0798745311
C            -0.1770784500        0.4014078795       24.2270926897
C             3.2954758018        2.9636631228       12.7691094206
C            -0.2301202959        1.5769620985       19.3829986702
C             3.3014476791        1.5672382369       14.7351938400
C             3.3199958692        0.4765467215       12.4922012532
C             5.6395262254        1.5669369037       18.7060406787
C            -0.1757886488        5.1754676411        0.9148840066
C            -0.2210147343        1.5973897621       20.8490875577
C             0.9962079315        1.5676730528       18.7045252459
C             5.6826812896        5.1256570986        5.7598829657
C            -0.1833618619        1.6268730198       23.5447615108
C            -0.1837089647        5.1501467197        3.6132497153
C             1.0389324484        5.1266768493        5.7610528309
O             3.2566933124        4.2047670692       13.4885461147
O             5.4148273573        3.8466658189       15.1551709935
H             4.9955291086        4.6766589248       15.4667475436



     Writing config-only to output data dir ./pwscf.save/
     NEW-OLD atomic charge density approx. for the potential

     Check: negative core charge=   -0.000003

     negative rho (up, down):  4.671E-05 4.708E-05
     Generating pointlists ...

     total cpu time spent up to now is     7359.2 secs

     Self-consistent Calculation

     iteration #  1     ecut=    50.00 Ry     beta= 0.30
     Davidson diagonalization with overlap
     ethr =  1.00E-06,  avg # of iterations =  3.0

     Threshold (ethr) on eigenvalues was too large:
     Diagonalizing with lowered threshold

     Davidson diagonalization with overlap
     ethr =  2.08E-08,  avg # of iterations =  4.0

     negative rho (up, down):  4.666E-05 4.692E-05

     total cpu time spent up to now is     7372.6 secs

     total energy              =    -672.35822013 Ry
     estimated scf accuracy    <       0.00003711 Ry

     total magnetization       =     0.00 Bohr mag/cell
     absolute magnetization    =     0.69 Bohr mag/cell

     iteration #  2     ecut=    50.00 Ry     beta= 0.30
     Davidson diagonalization with overlap
     ethr =  2.63E-08,  avg # of iterations =  2.0

     negative rho (up, down):  4.663E-05 4.688E-05

     total cpu time spent up to now is     7379.2 secs

     total energy              =    -672.35821967 Ry
     estimated scf accuracy    <       0.00001362 Ry

     total magnetization       =     0.00 Bohr mag/cell
     absolute magnetization    =     0.69 Bohr mag/cell

     iteration #  3     ecut=    50.00 Ry     beta= 0.30
     Davidson diagonalization with overlap
     ethr =  9.66E-09,  avg # of iterations =  2.0

     negative rho (up, down):  4.662E-05 4.687E-05

     total cpu time spent up to now is     7386.0 secs

     total energy              =    -672.35821981 Ry
     estimated scf accuracy    <       0.00001629 Ry

     total magnetization       =     0.00 Bohr mag/cell
     absolute magnetization    =     0.69 Bohr mag/cell

     iteration #  4     ecut=    50.00 Ry     beta= 0.30
     Davidson diagonalization with overlap
     ethr =  9.66E-09,  avg # of iterations =  2.0

     negative rho (up, down):  4.661E-05 4.687E-05

     total cpu time spent up to now is     7392.8 secs

     total energy              =    -672.35822162 Ry
     estimated scf accuracy    <       0.00000225 Ry

     total magnetization       =    -0.00 Bohr mag/cell
     absolute magnetization    =     0.69 Bohr mag/cell

     iteration #  5     ecut=    50.00 Ry     beta= 0.30
     Davidson diagonalization with overlap
     ethr =  1.59E-09,  avg # of iterations =  2.0

     negative rho (up, down):  4.660E-05 4.687E-05

     total cpu time spent up to now is     7399.5 secs

     total energy              =    -672.35822190 Ry
     estimated scf accuracy    <       0.00000032 Ry

     total magnetization       =    -0.00 Bohr mag/cell
     absolute magnetization    =     0.69 Bohr mag/cell

     iteration #  6     ecut=    50.00 Ry     beta= 0.30
     Davidson diagonalization with overlap
     ethr =  2.25E-10,  avg # of iterations =  2.0

     negative rho (up, down):  4.660E-05 4.687E-05

     total cpu time spent up to now is     7406.5 secs

     total energy              =    -672.35822196 Ry
     estimated scf accuracy    <       0.00000007 Ry

     total magnetization       =    -0.00 Bohr mag/cell
     absolute magnetization    =     0.69 Bohr mag/cell

     iteration #  7     ecut=    50.00 Ry     beta= 0.30
     Davidson diagonalization with overlap
     ethr =  4.68E-11,  avg # of iterations =  2.5

     negative rho (up, down):  4.660E-05 4.687E-05

     total cpu time spent up to now is     7413.5 secs

     total energy              =    -672.35822199 Ry
     estimated scf accuracy    <       0.00000001 Ry

     total magnetization       =     0.00 Bohr mag/cell
     absolute magnetization    =     0.69 Bohr mag/cell

     iteration #  8     ecut=    50.00 Ry     beta= 0.30
     Davidson diagonalization with overlap
     ethr =  1.04E-11,  avg # of iterations =  2.5

     negative rho (up, down):  4.660E-05 4.687E-05

     Magnetic moment per site  (integrated on atomic sphere of radius R)
     atom   1 (R=0.070)  charge=  1.1348  magn= -0.0001
     atom   2 (R=0.070)  charge=  1.1010  magn=  0.0000
     atom   3 (R=0.070)  charge=  1.1261  magn= -0.0021
     atom   4 (R=0.070)  charge=  1.1358  magn= -0.0001
     atom   5 (R=0.070)  charge=  1.1337  magn= -0.0001
     atom   6 (R=0.070)  charge=  1.1013  magn= -0.0020
     atom   7 (R=0.070)  charge=  1.1262  magn=  0.0041
     atom   8 (R=0.070)  charge=  1.1341  magn=  0.0004
     atom   9 (R=0.070)  charge=  1.0957  magn= -0.0029
     atom  10 (R=0.070)  charge=  1.0972  magn= -0.0000
     atom  11 (R=0.070)  charge=  1.1297  magn=  0.0003
     atom  12 (R=0.070)  charge=  1.1272  magn= -0.0012
     atom  13 (R=0.070)  charge=  1.1348  magn=  0.0000
     atom  14 (R=0.070)  charge=  1.0973  magn=  0.0001
     atom  15 (R=0.070)  charge=  1.1265  magn= -0.0000
     atom  16 (R=0.070)  charge=  1.1342  magn=  0.0000
     atom  17 (R=0.070)  charge=  1.1348  magn=  0.0000
     atom  18 (R=0.070)  charge=  1.0998  magn= -0.0003
     atom  19 (R=0.070)  charge=  1.1281  magn=  0.0003
     atom  20 (R=0.070)  charge=  1.1352  magn=  0.0000
     atom  21 (R=0.070)  charge=  1.0920  magn= -0.0016
     atom  22 (R=0.070)  charge=  1.1000  magn=  0.0004
     atom  23 (R=0.070)  charge=  1.1297  magn=  0.0045
     atom  24 (R=0.070)  charge=  1.1326  magn= -0.0025
     atom  25 (R=0.070)  charge=  1.1337  magn= -0.0004
     atom  26 (R=0.070)  charge=  1.0980  magn= -0.0000
     atom  27 (R=0.070)  charge=  1.1278  magn= -0.0001
     atom  28 (R=0.070)  charge=  1.1344  magn= -0.0002
     atom  29 (R=0.070)  charge=  1.1358  magn= -0.0001
     atom  30 (R=0.070)  charge=  1.0971  magn= -0.0000
     atom  31 (R=0.070)  charge=  1.1280  magn=  0.0000
     atom  32 (R=0.070)  charge=  1.1352  magn= -0.0001
     atom  33 (R=0.053)  charge=  1.6606  magn= -0.0214
     atom  34 (R=0.053)  charge=  1.6497  magn=  0.0225
     atom  35 (R=0.053)  charge=  0.3505  magn= -0.0004

     total cpu time spent up to now is     7420.0 secs

     End of self-consistent calculation

 ------ SPIN UP ------------


          k = 0.0000 0.0000 0.0000 ( 24951 PWs)   bands (ev):

   -26.2666 -20.3137 -19.3557 -19.2002 -19.0765 -18.9878 -18.8086 -18.5709
   -18.4026 -18.1901 -17.0107 -16.8718 -16.7983 -16.7035 -16.4797 -16.3778
   -16.0032 -15.9367 -14.9508 -14.5928 -14.4679 -14.1344 -13.3423 -12.7040
   -12.5712 -12.4213 -12.4101 -12.0287 -11.8579 -11.4972 -11.1150 -10.9839
   -10.7505 -10.6388 -10.6169 -10.4866 -10.4678 -10.2515  -9.4308  -8.5029
    -7.9947  -7.8578  -7.7078  -7.5330  -7.1045  -6.9294  -6.7109  -6.6810
    -6.5477  -6.4263  -5.5332  -5.4388  -5.3739  -5.3621  -5.3478  -5.2121
    -5.2070  -5.1715  -5.0912  -5.0350  -5.0271  -4.9247  -4.6578  -4.4880
    -4.2596  -4.1105  -4.0623  -3.8382  -3.7818  -3.5555  -3.0877  -0.9083
    -0.7540  -0.6070  -0.5338   0.4436   0.6373   0.6461   0.8132   1.0352
     1.3352   1.4818   1.5686   1.6429   1.6552

 ------ SPIN DOWN ----------


          k = 0.0000 0.0000 0.0000 ( 24951 PWs)   bands (ev):

   -26.3224 -20.1961 -19.3568 -19.2003 -19.0776 -18.9941 -18.8098 -18.5724
   -18.4026 -18.1891 -17.0112 -16.8718 -16.8022 -16.7040 -16.4826 -16.3736
   -16.0168 -15.9340 -14.9555 -14.5945 -14.4810 -14.1400 -13.3493 -12.7046
   -12.5711 -12.4210 -12.4118 -12.0289 -11.8578 -11.4984 -11.1196 -10.9864
   -10.7511 -10.6391 -10.6168 -10.4857 -10.4673 -10.2506  -9.5056  -8.5279
    -7.9951  -7.8578  -7.7058  -7.5553  -7.0660  -6.9715  -6.7148  -6.6817
    -6.5477  -6.4175  -5.5341  -5.4385  -5.3739  -5.3622  -5.3480  -5.2135
    -5.2070  -5.1730  -5.0885  -5.0340  -5.0143  -4.9226  -4.6369  -4.4919
    -4.1515  -4.0996  -4.0656  -3.8401  -3.8310  -3.4949  -3.0299  -0.9084
    -0.7585  -0.6021  -0.5645   0.4427   0.6214   0.6382   0.8131   1.0324
     1.3346   1.4792   1.5675   1.6420   1.6570

     the spin up/dw Fermi energies are    -3.0877   -3.0299 ev

!    total energy              =    -672.35822200 Ry
     estimated scf accuracy    <          7.0E-09 Ry
     smearing contrib. (-TS)   =      -0.00005642 Ry
     internal energy E=F+TS    =    -672.35816558 Ry

     The total energy is F=E-TS. E is the sum of the following terms:
     one-electron contribution =    -844.10419672 Ry
     hartree contribution      =     450.73850978 Ry
     xc contribution           =    -160.21094090 Ry
     ewald contribution        =      97.66512095 Ry
     one-center paw contrib.   =    -216.44665870 Ry

     total magnetization       =    -0.00 Bohr mag/cell
     absolute magnetization    =     0.69 Bohr mag/cell

     convergence has been achieved in   8 iterations

     negative rho (up, down):  4.660E-05 4.687E-05

     Forces acting on atoms (cartesian axes, Ry/au):

     atom    1 type  1   force =    -0.00001339    0.00030469   -0.00016773
     atom    2 type  1   force =     0.00026317   -0.00004421   -0.00041813
     atom    3 type  1   force =    -0.00015725   -0.00003262    0.00016113
     atom    4 type  1   force =     0.00044810    0.00028097   -0.00023799
     atom    5 type  1   force =    -0.00011938    0.00022838    0.00033007
     atom    6 type  1   force =    -0.00071439    0.00003133    0.00000481
     atom    7 type  1   force =    -0.00008202    0.00004530   -0.00050153
     atom    8 type  1   force =     0.00020361    0.00023462    0.00014365
     atom    9 type  1   force =     0.00003569    0.00055082    0.00029597
     atom   10 type  1   force =     0.00022848    0.00006647    0.00022888
     atom   11 type  1   force =     0.00009244    0.00010518   -0.00021594
     atom   12 type  1   force =    -0.00004354   -0.00005166   -0.00007388
     atom   13 type  1   force =    -0.00002820   -0.00010688   -0.00006146
     atom   14 type  1   force =     0.00017580    0.00022886    0.00002380
     atom   15 type  1   force =    -0.00028245   -0.00048164    0.00023988
     atom   16 type  1   force =    -0.00001586   -0.00014860    0.00036156
     atom   17 type  1   force =    -0.00057218   -0.00060768    0.00027617
     atom   18 type  1   force =     0.00004604    0.00005544   -0.00017494
     atom   19 type  1   force =     0.00013557   -0.00038244   -0.00002264
     atom   20 type  1   force =    -0.00057208    0.00013579    0.00076966
     atom   21 type  1   force =     0.00025916   -0.00002065   -0.00054496
     atom   22 type  1   force =     0.00010665   -0.00004729   -0.00004111
     atom   23 type  1   force =     0.00012547    0.00016837   -0.00032864
     atom   24 type  1   force =    -0.00022194   -0.00030157    0.00032769
     atom   25 type  1   force =    -0.00049293    0.00003232    0.00042234
     atom   26 type  1   force =     0.00006802   -0.00020275    0.00007633
     atom   27 type  1   force =     0.00022385    0.00008484   -0.00027659
     atom   28 type  1   force =     0.00017660    0.00003028    0.00017792
     atom   29 type  1   force =    -0.00022883    0.00027107   -0.00003835
     atom   30 type  1   force =    -0.00039203   -0.00018104    0.00002666
     atom   31 type  1   force =     0.00008889   -0.00012513    0.00011219
     atom   32 type  1   force =    -0.00004764    0.00013228    0.00000418
     atom   33 type  2   force =     0.00038836   -0.00024479    0.00042568
     atom   34 type  2   force =     0.00027276    0.00083434   -0.00056011
     atom   35 type  3   force =     0.00064543   -0.00084238   -0.00074454

     Total force =     0.003148     Total SCF correction =     0.000066
     Energy error            =      2.4E-05 Ry
     Gradient error          =      8.4E-04 Ry/Bohr

     bfgs converged in  63 scf cycles and  61 bfgs steps
     (criteria: energy <  1.0E-04 Ry, force <  1.0E-03 Ry/Bohr)

     End of BFGS Geometry Optimization

     Final energy             =    -672.3582220013 Ry

     File ./pwscf.bfgs deleted, as requested
Begin final coordinates

ATOMIC_POSITIONS (angstrom)
C             4.5893453848        5.1209542777        6.3614244835
C             3.3038631993        1.6565677490       13.2778523269
C             3.3589716800        5.1291906923        8.5068020614
C             2.1324502132        5.1217137683        6.3618640491
C             4.5477363494        1.5585990919       18.1029427601
C             3.3341169850        5.2380402830       11.1897549232
C             3.3096496233        1.5538203493       15.9660989364
C             2.0913296388        1.5596842128       18.1080971149
C             3.3098338658        4.1466489365       12.0599982160
C             6.9096463563        5.1331779772        5.0792807719
C             3.3521756312        5.1431509225        9.7385850536
C             3.3253335219        6.5000819045       11.8658432110
C            -0.1764279866        3.9492859881        0.2340633751
C             3.3608968931        5.1200288029        7.0396165152
C            -0.1766928878        5.1669973463        2.3819367867
C            -0.1763960921        6.4049186965        0.2398167251
C            -0.1771388703        2.8559901789       24.2209945027
C             3.3180919381        1.5535435029       17.4296086189
C            -0.2020295108        1.6168744001       22.0798745311
C            -0.1770784500        0.4014078795       24.2270926897
C             3.2954758018        2.9636631228       12.7691094206
C            -0.2301202959        1.5769620985       19.3829986702
C             3.3014476791        1.5672382369       14.7351938400
C             3.3199958692        0.4765467215       12.4922012532
C             5.6395262254        1.5669369037       18.7060406787
C            -0.1757886488        5.1754676411        0.9148840066
C            -0.2210147343        1.5973897621       20.8490875577
C             0.9962079315        1.5676730528       18.7045252459
C             5.6826812896        5.1256570986        5.7598829657
C            -0.1833618619        1.6268730198       23.5447615108
C            -0.1837089647        5.1501467197        3.6132497153
C             1.0389324484        5.1266768493        5.7610528309
O             3.2566933124        4.2047670692       13.4885461147
O             5.4148273573        3.8466658189       15.1551709935
H             4.9955291086        4.6766589248       15.4667475436
End final coordinates



     Writing all to output data dir ./pwscf.save/

     init_run     :     11.07s CPU     11.86s WALL (       1 calls)
     electrons    :   6238.60s CPU   6318.82s WALL (      63 calls)
     update_pot   :    513.35s CPU    515.07s WALL (      62 calls)
     forces       :    428.31s CPU    439.43s WALL (      63 calls)

     Called by init_run:
     wfcinit      :      2.21s CPU      2.26s WALL (       1 calls)
     potinit      :      4.73s CPU      5.07s WALL (       1 calls)
     hinit0       :      3.29s CPU      3.60s WALL (       1 calls)

     Called by electrons:
     c_bands      :   2986.22s CPU   3019.49s WALL (     786 calls)
     sum_band     :   1128.91s CPU   1142.47s WALL (     786 calls)
     v_of_rho     :    913.78s CPU    925.68s WALL (     834 calls)
     newd         :    331.20s CPU    335.28s WALL (     834 calls)
     PAW_pot      :    808.93s CPU    811.26s WALL (     896 calls)
     mix_rho      :    156.27s CPU    159.58s WALL (     786 calls)

     Called by c_bands:
     init_us_2    :     33.98s CPU     34.66s WALL (    3396 calls)
     init_us_2:cp :     33.88s CPU     34.61s WALL (    3396 calls)
     regterg      :   2915.14s CPU   2947.08s WALL (    1572 calls)

     Called by *egterg:
     rdiaghg      :    112.05s CPU    112.77s WALL (    6567 calls)
     h_psi        :   2286.74s CPU   2313.67s WALL (    6723 calls)
     s_psi        :    116.78s CPU    117.23s WALL (    6723 calls)
     g_psi        :      5.57s CPU      5.67s WALL (    5149 calls)

     Called by h_psi:
     h_psi:calbec :    122.35s CPU    123.02s WALL (    6723 calls)
     vloc_psi     :   2022.14s CPU   2047.69s WALL (    6723 calls)
     add_vuspsi   :    124.42s CPU    124.95s WALL (    6723 calls)

     General routines
     calbec       :    177.74s CPU    178.71s WALL (    8923 calls)
     fft          :    641.49s CPU    656.29s WALL (   18110 calls)
     ffts         :     33.36s CPU     34.81s WALL (    3240 calls)
     fftw         :   1905.05s CPU   1926.53s WALL (  397720 calls)
     interpolate  :     88.76s CPU     90.93s WALL (    1668 calls)

     Parallel routines

     PWSCF        :      2h 2m CPU      2h 3m WALL


   This run was terminated on:   1:46:36   7May2025            

=------------------------------------------------------------------------------=
   JOB DONE.
=------------------------------------------------------------------------------=
