
     Program PWSCF v.7.1 starts on 24May2025 at 21:53: 5 

     This program is part of the open-source Quantum ESPRESSO suite
     for quantum simulation of materials; please cite
         "P. Giannozzi et al., J. Phys.:Condens. Matter 21 395502 (2009);
         "P. Giannozzi et al., J. Phys.:Condens. Matter 29 465901 (2017);
         "P. Giannozzi et al., J. Chem. Phys. 152 154105 (2020);
          URL http://www.quantum-espresso.org", 
     in publications or presentations arising from this work. More details at
     http://www.quantum-espresso.org/quote

     Parallel version (MPI), running on    16 processors

     MPI processes distributed on     1 nodes
     157661 MiB available memory on the printing compute node when the environment starts

     Reading input from input.pwi
Warning: card &CELL ignored
Warning: card / ignored
Warning: card &FCP ignored
Warning: card / ignored
Warning: card &RISM ignored
Warning: card / ignored

     Current dimensions of program PWSCF are:
     Max number of different atomic species (ntypx) = 10
     Max number of k-points (npk) =  40000
     Max angular momentum in pseudopotentials (lmaxx) =  4
     file C.pbe-n-kjpaw_psl.1.0.0.UPF: wavefunction(s)  2S 2P renormalized
     file O.pbe-n-kjpaw_psl.0.1.UPF: wavefunction(s)  2P renormalized

     IMPORTANT: XC functional enforced from input :
     Exchange-correlation= PBE
                           (   1   4   3   4   0   0   0)
     Any further DFT definition will be discarded
     Please, verify this is what you really want


     gamma-point specific algorithms are used
     Message from routine  set_nelup_neldw :
     BEWARE: non-integer number of up and down electrons!

     R & G space division:  proc/nbgrp/npool/nimage =      16
     Subspace diagonalization in iterative solution of the eigenvalue problem:
     a serial algorithm will be used


     Parallelization info
     --------------------
     sticks:   dense  smooth     PW     G-vecs:    dense   smooth      PW
     Min         858     428    106                75870    26832    3354
     Max         860     430    108                75880    26846    3360
     Sum       13753    6869   1725              1214029   429409   53715

     Using Slab Decomposition



     bravais-lattice index     =            0
     lattice parameter (alat)  =      20.7870  a.u.
     unit-cell volume          =    8983.6663 (a.u.)^3
     number of atoms/cell      =           51
     number of atomic types    =            3
     number of electrons       =       205.00 (up: 102.50, down: 102.50)
     number of Kohn-Sham states=          123
     kinetic-energy cutoff     =      50.0000  Ry
     charge density cutoff     =     400.0000  Ry
     scf convergence threshold =      1.0E-06
     mixing beta               =       0.3000
     number of iterations used =            8  plain     mixing
     energy convergence thresh.=      1.0E-04
     force convergence thresh. =      1.0E-03
     Exchange-correlation= PBE
                           (   1   4   3   4   0   0   0)
     nstep                     =         1000


     celldm(1)=  20.786987  celldm(2)=   0.000000  celldm(3)=   0.000000
     celldm(4)=   0.000000  celldm(5)=   0.000000  celldm(6)=   0.000000

     crystal axes: (cart. coord. in units of alat)
               a(1) = (   1.000000   0.000000   0.000000 )  
               a(2) = (   0.000000   1.000182   0.000000 )  
               a(3) = (   0.000000   0.000000   1.000000 )  

     reciprocal axes: (cart. coord. in units 2 pi/alat)
               b(1) = (  1.000000  0.000000  0.000000 )  
               b(2) = (  0.000000  0.999818  0.000000 )  
               b(3) = (  0.000000  0.000000  1.000000 )  


     PseudoPot. # 1 for C  read from file:
     /home/ana.bisette/espresso/pseudo/C.pbe-n-kjpaw_psl.1.0.0.UPF
     MD5 check sum: 5d2aebdfa2cae82b50a7e79e9516da0f
     Pseudo is Projector augmented-wave + core cor, Zval =  4.0
     Generated using "atomic" code by A. Dal Corso  v.5.1
     Shape of augmentation charge: PSQ
     Using radial grid of 1073 points,  4 beta functions with: 
                l(1) =   0
                l(2) =   0
                l(3) =   1
                l(4) =   1
     Q(r) pseudized with 0 coefficients 


     PseudoPot. # 2 for O  read from file:
     /home/ana.bisette/espresso/pseudo/O.pbe-n-kjpaw_psl.0.1.UPF
     MD5 check sum: 0234752ac141de4415c5fc33072bef88
     Pseudo is Projector augmented-wave + core cor, Zval =  6.0
     Generated using "atomic" code by A. Dal Corso  v.5.0.99 svn rev. 10869
     Shape of augmentation charge: BESSEL
     Using radial grid of 1095 points,  4 beta functions with: 
                l(1) =   0
                l(2) =   0
                l(3) =   1
                l(4) =   1
     Q(r) pseudized with 0 coefficients 


     PseudoPot. # 3 for H  read from file:
     /home/ana.bisette/espresso/pseudo/H.pbe-rrkjus_psl.1.0.0.UPF
     MD5 check sum: f52b6d4d1c606e5624b1dc7b2218f220
     Pseudo is Ultrasoft, Zval =  1.0
     Generated using "atomic" code by A. Dal Corso  v.5.1
     Using radial grid of  929 points,  2 beta functions with: 
                l(1) =   0
                l(2) =   0
     Q(r) pseudized with 0 coefficients 


     atomic species   valence    mass     pseudopotential
        C              4.00    12.01100     C ( 1.00)
        O              6.00    15.99900     O ( 1.00)
        H              1.00     1.00800     H ( 1.00)

     Starting magnetic structure 
     atomic species   magnetization
        C            0.000
        O            0.000
        H            0.000

     No symmetry found



   Cartesian axes

     site n.     atom                  positions (alat units)
         1           C   tau(   1) = (   0.5607273   0.4189091   0.5608182  )
         2           C   tau(   2) = (   0.6985455   0.2805455   0.6985455  )
         3           C   tau(   3) = (   0.6340000   0.3453636   0.6340000  )
         4           C   tau(   4) = (   0.4189091   0.5608182   0.5608182  )
         5           C   tau(   5) = (   0.2805455   0.6985455   0.6985455  )
         6           C   tau(   6) = (   0.3453636   0.6340000   0.6340000  )
         7           C   tau(   7) = (   0.5608182   0.5608182   0.4189091  )
         8           C   tau(   8) = (   0.6985455   0.6985455   0.2805455  )
         9           C   tau(   9) = (   0.6340000   0.6340000   0.3453636  )
        10           C   tau(  10) = (   0.4184545   0.4184545   0.4184545  )
        11           C   tau(  11) = (   0.2804545   0.2804545   0.2804545  )
        12           C   tau(  12) = (   0.3450909   0.3450909   0.3450909  )
        13           C   tau(  13) = (   0.5659091   0.4132727   0.4132727  )
        14           C   tau(  14) = (   0.7058182   0.2739091   0.2739091  )
        15           C   tau(  15) = (   0.6411818   0.3382727   0.3383636  )
        16           C   tau(  16) = (   0.4132727   0.5659091   0.4132727  )
        17           C   tau(  17) = (   0.2739091   0.7059091   0.2739091  )
        18           C   tau(  18) = (   0.3382727   0.6411818   0.3383636  )
        19           C   tau(  19) = (   0.4132727   0.4131818   0.5660000  )
        20           C   tau(  20) = (   0.2739091   0.2739091   0.7058182  )
        21           C   tau(  21) = (   0.3382727   0.3382727   0.6411818  )
        22           C   tau(  22) = (   0.5662727   0.5662727   0.5662727  )
        23           C   tau(  23) = (   0.7058182   0.7059091   0.7059091  )
        24           C   tau(  24) = (   0.6413636   0.6414545   0.6413636  )
        25           C   tau(  25) = (   0.0607273   0.9184545   0.0607273  )
        26           C   tau(  26) = (   0.1989091   0.7808182   0.1989091  )
        27           C   tau(  27) = (   0.1341818   0.8452727   0.1341818  )
        28           C   tau(  28) = (   0.9183636   0.0606364   0.0607273  )
        29           C   tau(  29) = (   0.7808182   0.1988182   0.1989091  )
        30           C   tau(  30) = (   0.8452727   0.1340909   0.1341818  )
        31           C   tau(  31) = (   0.0607273   0.0606364   0.9184545  )
        32           C   tau(  32) = (   0.1988182   0.1988182   0.7808182  )
        33           C   tau(  33) = (   0.1341818   0.1340909   0.8452727  )
        34           C   tau(  34) = (   0.9189091   0.9189091   0.9188182  )
        35           C   tau(  35) = (   0.7809091   0.7809091   0.7809091  )
        36           C   tau(  36) = (   0.8455455   0.8455455   0.8454545  )
        37           C   tau(  37) = (   0.0662727   0.9132727   0.9132727  )
        38           C   tau(  38) = (   0.2053636   0.7735455   0.7734545  )
        39           C   tau(  39) = (   0.1410909   0.8380909   0.8380909  )
        40           C   tau(  40) = (   0.9131818   0.0661818   0.9132727  )
        41           C   tau(  41) = (   0.7734545   0.2053636   0.7734545  )
        42           C   tau(  42) = (   0.8380000   0.1410000   0.8380000  )
        43           C   tau(  43) = (   0.9132727   0.9133636   0.0662727  )
        44           C   tau(  44) = (   0.7734545   0.7735455   0.2053636  )
        45           C   tau(  45) = (   0.8380909   0.8380909   0.1410909  )
        46           C   tau(  46) = (   0.0660000   0.0659091   0.0659091  )
        47           C   tau(  47) = (   0.2054545   0.2053636   0.2054545  )
        48           C   tau(  48) = (   0.1410000   0.1409091   0.1409091  )
        49           O   tau(  49) = (   0.6814545   0.3169091   0.8151818  )
        50           O   tau(  50) = (   0.5664545   0.3073636   0.8860000  )
        51           H   tau(  51) = (   0.6244545   0.2989091   0.9534545  )

     number of k points=     1  Gaussian smearing, width (Ry)=  0.0001
                       cart. coord. in units 2pi/alat
        k(    1) = (   0.0000000   0.0000000   0.0000000), wk =   1.0000000

     Dense  grid:   607015 G-vectors     FFT dimensions: ( 135, 135, 135)

     Smooth grid:   214705 G-vectors     FFT dimensions: (  96,  96,  96)

     Estimated max dynamical RAM per process >     175.85 MB

     Estimated total dynamical RAM >       2.75 GB

     Check: negative core charge=   -0.000004
     Generating pointlists ...
     new r_m :   0.0461 (alat units)  0.9573 (a.u.) for type    1
     new r_m :   0.0369 (alat units)  0.7662 (a.u.) for type    2
     new r_m :   0.0369 (alat units)  0.7662 (a.u.) for type    3

     Initial potential from superposition of free atoms

     starting charge     204.9980, renormalised to     205.0000
     Starting wfcs are  201 randomized atomic wfcs
     Checking if some PAW data can be deallocated... 

     total cpu time spent up to now is        3.1 secs

     Self-consistent Calculation

     iteration #  1     ecut=    50.00 Ry     beta= 0.30
     Davidson diagonalization with overlap
     ethr =  1.00E-02,  avg # of iterations =  2.0

     total cpu time spent up to now is        5.6 secs

     total energy              =    -966.10406750 Ry
     estimated scf accuracy    <       5.45850526 Ry

     total magnetization       =     0.00 Bohr mag/cell
     absolute magnetization    =     0.07 Bohr mag/cell

     iteration #  2     ecut=    50.00 Ry     beta= 0.30
     Davidson diagonalization with overlap
     ethr =  2.66E-03,  avg # of iterations =  1.0

     negative rho (up, down):  1.193E-06 1.183E-06

     total cpu time spent up to now is        7.5 secs

     total energy              =    -965.18620769 Ry
     estimated scf accuracy    <       1.81642394 Ry

     total magnetization       =     0.00 Bohr mag/cell
     absolute magnetization    =     0.05 Bohr mag/cell

     iteration #  3     ecut=    50.00 Ry     beta= 0.30
     Davidson diagonalization with overlap
     ethr =  8.86E-04,  avg # of iterations =  2.0

     negative rho (up, down):  6.391E-07 6.335E-07

     total cpu time spent up to now is        9.8 secs

     total energy              =    -965.56190718 Ry
     estimated scf accuracy    <       0.19749979 Ry

     total magnetization       =    -0.00 Bohr mag/cell
     absolute magnetization    =     0.03 Bohr mag/cell

     iteration #  4     ecut=    50.00 Ry     beta= 0.30
     Davidson diagonalization with overlap
     ethr =  9.63E-05,  avg # of iterations =  2.0

     negative rho (up, down):  4.267E-07 4.240E-07

     total cpu time spent up to now is       11.8 secs

     total energy              =    -965.56677669 Ry
     estimated scf accuracy    <       0.08001879 Ry

     total magnetization       =    -0.00 Bohr mag/cell
     absolute magnetization    =     0.02 Bohr mag/cell

     iteration #  5     ecut=    50.00 Ry     beta= 0.30
     Davidson diagonalization with overlap
     ethr =  3.90E-05,  avg # of iterations =  2.0

     negative rho (up, down):  6.460E-07 6.446E-07

     total cpu time spent up to now is       13.9 secs

     total energy              =    -965.57166469 Ry
     estimated scf accuracy    <       0.02387260 Ry

     total magnetization       =    -0.00 Bohr mag/cell
     absolute magnetization    =     0.02 Bohr mag/cell

     iteration #  6     ecut=    50.00 Ry     beta= 0.30
     Davidson diagonalization with overlap
     ethr =  1.16E-05,  avg # of iterations =  7.0

     negative rho (up, down):  9.465E-07 9.473E-07

     total cpu time spent up to now is       16.4 secs

     total energy              =    -965.57208798 Ry
     estimated scf accuracy    <       0.00716044 Ry

     total magnetization       =    -0.00 Bohr mag/cell
     absolute magnetization    =     0.02 Bohr mag/cell

     iteration #  7     ecut=    50.00 Ry     beta= 0.30
     Davidson diagonalization with overlap
     ethr =  3.49E-06,  avg # of iterations =  8.0

     negative rho (up, down):  9.284E-07 9.332E-07

     total cpu time spent up to now is       19.1 secs

     total energy              =    -965.57333140 Ry
     estimated scf accuracy    <       0.00123824 Ry

     total magnetization       =    -0.00 Bohr mag/cell
     absolute magnetization    =     0.01 Bohr mag/cell

     iteration #  8     ecut=    50.00 Ry     beta= 0.30
     Davidson diagonalization with overlap
     ethr =  6.04E-07,  avg # of iterations =  2.0

     negative rho (up, down):  9.119E-07 9.140E-07

     total cpu time spent up to now is       21.2 secs

     total energy              =    -965.57341603 Ry
     estimated scf accuracy    <       0.00018379 Ry

     total magnetization       =    -0.00 Bohr mag/cell
     absolute magnetization    =     0.01 Bohr mag/cell

     iteration #  9     ecut=    50.00 Ry     beta= 0.30
     Davidson diagonalization with overlap
     ethr =  8.97E-08,  avg # of iterations =  2.0

     negative rho (up, down):  9.198E-07 9.206E-07

     total cpu time spent up to now is       23.4 secs

     total energy              =    -965.57343402 Ry
     estimated scf accuracy    <       0.00004571 Ry

     total magnetization       =    -0.00 Bohr mag/cell
     absolute magnetization    =     0.01 Bohr mag/cell

     iteration # 10     ecut=    50.00 Ry     beta= 0.30
     Davidson diagonalization with overlap
     ethr =  2.23E-08,  avg # of iterations =  2.0

     negative rho (up, down):  9.246E-07 9.247E-07

     total cpu time spent up to now is       25.6 secs

     total energy              =    -965.57343836 Ry
     estimated scf accuracy    <       0.00000791 Ry

     total magnetization       =     0.00 Bohr mag/cell
     absolute magnetization    =     0.01 Bohr mag/cell

     iteration # 11     ecut=    50.00 Ry     beta= 0.30
     Davidson diagonalization with overlap
     ethr =  3.86E-09,  avg # of iterations =  3.0

     negative rho (up, down):  9.181E-07 9.179E-07

     Magnetic moment per site  (integrated on atomic sphere of radius R)
     atom   1 (R=0.046)  charge=  1.1221  magn= -0.0000
     atom   2 (R=0.046)  charge=  1.2161  magn= -0.0000
     atom   3 (R=0.046)  charge=  1.2153  magn=  0.0000
     atom   4 (R=0.046)  charge=  1.1272  magn=  0.0000
     atom   5 (R=0.046)  charge=  1.1712  magn=  0.0001
     atom   6 (R=0.046)  charge=  1.1953  magn= -0.0001
     atom   7 (R=0.046)  charge=  1.1272  magn= -0.0000
     atom   8 (R=0.046)  charge=  1.1714  magn= -0.0000
     atom   9 (R=0.046)  charge=  1.1953  magn=  0.0000
     atom  10 (R=0.046)  charge=  1.1268  magn= -0.0000
     atom  11 (R=0.046)  charge=  1.1717  magn=  0.0000
     atom  12 (R=0.046)  charge=  1.1948  magn= -0.0000
     atom  13 (R=0.046)  charge=  1.1200  magn=  0.0000
     atom  14 (R=0.046)  charge=  1.1722  magn= -0.0001
     atom  15 (R=0.046)  charge=  1.1839  magn=  0.0001
     atom  16 (R=0.046)  charge=  1.1183  magn= -0.0000
     atom  17 (R=0.046)  charge=  1.1716  magn= -0.0001
     atom  18 (R=0.046)  charge=  1.1837  magn=  0.0001
     atom  19 (R=0.046)  charge=  1.1186  magn=  0.0000
     atom  20 (R=0.046)  charge=  1.1717  magn=  0.0000
     atom  21 (R=0.046)  charge=  1.1846  magn= -0.0001
     atom  22 (R=0.046)  charge=  1.1169  magn=  0.0000
     atom  23 (R=0.046)  charge=  1.1707  magn= -0.0000
     atom  24 (R=0.046)  charge=  1.1834  magn=  0.0000
     atom  25 (R=0.046)  charge=  1.1274  magn=  0.0000
     atom  26 (R=0.046)  charge=  1.1725  magn= -0.0000
     atom  27 (R=0.046)  charge=  1.1961  magn= -0.0000
     atom  28 (R=0.046)  charge=  1.1312  magn=  0.0000
     atom  29 (R=0.046)  charge=  1.1733  magn=  0.0000
     atom  30 (R=0.046)  charge=  1.1953  magn= -0.0000
     atom  31 (R=0.046)  charge=  1.1281  magn= -0.0000
     atom  32 (R=0.046)  charge=  1.1722  magn= -0.0000
     atom  33 (R=0.046)  charge=  1.1965  magn=  0.0000
     atom  34 (R=0.046)  charge=  1.1284  magn= -0.0000
     atom  35 (R=0.046)  charge=  1.1714  magn= -0.0000
     atom  36 (R=0.046)  charge=  1.1961  magn=  0.0000
     atom  37 (R=0.046)  charge=  1.1189  magn=  0.0000
     atom  38 (R=0.046)  charge=  1.1708  magn= -0.0001
     atom  39 (R=0.046)  charge=  1.1848  magn=  0.0000
     atom  40 (R=0.046)  charge=  1.1141  magn=  0.0000
     atom  41 (R=0.046)  charge=  1.1782  magn=  0.0000
     atom  42 (R=0.046)  charge=  1.1957  magn= -0.0001
     atom  43 (R=0.046)  charge=  1.1188  magn= -0.0000
     atom  44 (R=0.046)  charge=  1.1709  magn=  0.0000
     atom  45 (R=0.046)  charge=  1.1847  magn= -0.0000
     atom  46 (R=0.046)  charge=  1.1190  magn= -0.0000
     atom  47 (R=0.046)  charge=  1.1714  magn= -0.0000
     atom  48 (R=0.046)  charge=  1.1854  magn=  0.0000
     atom  49 (R=0.037)  charge=  1.9658  magn=  0.0001
     atom  50 (R=0.037)  charge=  1.9378  magn= -0.0001
     atom  51 (R=0.037)  charge=  0.4052  magn=  0.0000

     total cpu time spent up to now is       27.8 secs

     End of self-consistent calculation

 ------ SPIN UP ------------


          k = 0.0000 0.0000 0.0000 ( 26858 PWs)   bands (ev):

   -26.1037 -21.6508 -21.4731 -21.4122 -17.5089 -17.4802 -17.4193 -17.3360
   -17.3241 -17.3083 -16.7573 -16.6997 -16.6555 -16.5879 -16.2833 -16.1471
   -15.9638 -15.9223 -15.8332 -15.7928 -15.7060 -15.5583 -15.3782 -14.7814
   -14.5747 -14.5347 -14.0288 -13.9967 -13.9299 -13.4787 -13.0881 -12.9310
   -12.8365 -12.8053 -12.3753 -12.1997 -11.7823 -11.7416 -11.5323 -11.1690
   -10.7977 -10.7494 -10.5536 -10.2489  -9.9879  -9.8933  -9.8710  -9.6107
    -9.5022  -9.4447  -9.3931  -9.3699  -9.3598  -9.3490  -9.3179  -9.1524
    -7.8053  -6.8514  -6.7890  -6.7532  -6.6687  -6.5350  -6.5178  -6.2822
    -6.1606  -6.1411  -6.0995  -5.8011  -5.7999  -5.6975  -5.4780  -5.4471
    -5.4225  -5.3546  -5.3108  -5.2889  -5.1998  -5.1607  -4.9827  -4.7677
    -4.6244  -4.6033  -4.3847  -4.2141  -4.1977  -3.8864  -3.8192  -3.7279
    -3.6646  -3.4932  -3.4818  -3.3756  -3.3125  -3.1848  -3.0403  -2.9299
    -2.9143  -2.8739  -2.3576  -2.0353  -1.9712  -1.8411  -1.1012  -0.2692
    -0.1497   0.0920   0.4300   0.6739   0.8433   0.9904   1.2852   1.3110
     1.3607   1.5358   1.6268   1.8736   2.3056   2.3541   2.3666   2.4703
     2.5175   2.6630   2.7479

 ------ SPIN DOWN ----------


          k = 0.0000 0.0000 0.0000 ( 26858 PWs)   bands (ev):

   -26.1034 -21.6511 -21.4731 -21.4121 -17.5089 -17.4802 -17.4192 -17.3359
   -17.3241 -17.3083 -16.7573 -16.6997 -16.6555 -16.5879 -16.2833 -16.1471
   -15.9639 -15.9223 -15.8332 -15.7928 -15.7060 -15.5583 -15.3782 -14.7814
   -14.5748 -14.5347 -14.0287 -13.9967 -13.9299 -13.4787 -13.0881 -12.9310
   -12.8364 -12.8053 -12.3753 -12.1997 -11.7823 -11.7416 -11.5323 -11.1690
   -10.7977 -10.7494 -10.5536 -10.2489  -9.9879  -9.8932  -9.8709  -9.6105
    -9.5022  -9.4446  -9.3931  -9.3699  -9.3598  -9.3490  -9.3178  -9.1524
    -7.8053  -6.8514  -6.7889  -6.7532  -6.6687  -6.5350  -6.5178  -6.2821
    -6.1606  -6.1411  -6.0995  -5.8010  -5.7999  -5.6975  -5.4780  -5.4472
    -5.4225  -5.3546  -5.3109  -5.2889  -5.1999  -5.1607  -4.9827  -4.7677
    -4.6245  -4.6033  -4.3848  -4.2142  -4.1977  -3.8864  -3.8192  -3.7279
    -3.6648  -3.4933  -3.4818  -3.3756  -3.3125  -3.1848  -3.0403  -2.9300
    -2.9143  -2.8739  -2.3576  -2.0353  -1.9713  -1.8411  -1.1011  -0.2693
    -0.1497   0.0921   0.4299   0.6739   0.8433   0.9904   1.2852   1.3110
     1.3607   1.5358   1.6267   1.8737   2.3057   2.3541   2.3667   2.4704
     2.5176   2.6630   2.7480

     the spin up/dw Fermi energies are    -1.1012   -1.1011 ev

!    total energy              =    -965.57343964 Ry
     estimated scf accuracy    <       0.00000086 Ry
     smearing contrib. (-TS)   =      -0.00005642 Ry
     internal energy E=F+TS    =    -965.57338323 Ry

     The total energy is F=E-TS. E is the sum of the following terms:
     one-electron contribution =   -1307.22829309 Ry
     hartree contribution      =     702.71970300 Ry
     xc contribution           =    -233.82072090 Ry
     ewald contribution        =     187.87839810 Ry
     one-center paw contrib.   =    -315.12247033 Ry

     total magnetization       =     0.00 Bohr mag/cell
     absolute magnetization    =     0.00 Bohr mag/cell

     convergence has been achieved in  11 iterations

     negative rho (up, down):  9.181E-07 9.179E-07

     Forces acting on atoms (cartesian axes, Ry/au):

     atom    1 type  1   force =     0.05196517   -0.06217868    0.08063603
     atom    2 type  1   force =     0.07068577   -0.12037043    0.04379600
     atom    3 type  1   force =    -0.10774904    0.09573015   -0.22239991
     atom    4 type  1   force =    -0.01683892    0.01190545    0.02022254
     atom    5 type  1   force =    -0.04788188    0.04779689    0.04755950
     atom    6 type  1   force =    -0.03861182    0.03887053    0.03972086
     atom    7 type  1   force =     0.01669993    0.01575009   -0.02114743
     atom    8 type  1   force =     0.04778105    0.04789514   -0.04814185
     atom    9 type  1   force =     0.03886116    0.03869935   -0.03895102
     atom   10 type  1   force =    -0.01546838   -0.01675934   -0.01725429
     atom   11 type  1   force =    -0.04810624   -0.04838542   -0.04809889
     atom   12 type  1   force =    -0.03727918   -0.03771701   -0.03781006
     atom   13 type  1   force =    -0.05307328    0.05544991    0.00809009
     atom   14 type  1   force =     0.05679197   -0.05693939   -0.05505518
     atom   15 type  1   force =    -0.01593644    0.01612815    0.00934938
     atom   16 type  1   force =     0.05517746   -0.05281937    0.04916717
     atom   17 type  1   force =    -0.04868036    0.04821696   -0.04856649
     atom   18 type  1   force =     0.00360463   -0.00330464    0.00313097
     atom   19 type  1   force =     0.04413235    0.04745010   -0.05102045
     atom   20 type  1   force =    -0.05402154   -0.05457700    0.05354432
     atom   21 type  1   force =     0.00781547    0.00933379   -0.00895803
     atom   22 type  1   force =    -0.04538464   -0.04352622   -0.05046256
     atom   23 type  1   force =     0.05353412    0.05323923    0.05262715
     atom   24 type  1   force =    -0.00850999   -0.00885339   -0.00861016
     atom   25 type  1   force =     0.01665968   -0.01437437    0.02060604
     atom   26 type  1   force =     0.04604454   -0.04602727    0.04605815
     atom   27 type  1   force =     0.03896129   -0.03869618    0.03902865
     atom   28 type  1   force =    -0.01345531    0.01534007    0.03830437
     atom   29 type  1   force =    -0.05363088    0.05379098    0.05125292
     atom   30 type  1   force =    -0.03050731    0.03005793    0.03527498
     atom   31 type  1   force =     0.02163880    0.02101461   -0.01797349
     atom   32 type  1   force =     0.05029496    0.05035274   -0.04987818
     atom   33 type  1   force =     0.03675480    0.03521378   -0.03594512
     atom   34 type  1   force =    -0.02354851   -0.02409882   -0.02028166
     atom   35 type  1   force =    -0.05062098   -0.05022042   -0.05006876
     atom   36 type  1   force =    -0.03513096   -0.03601871   -0.03611618
     atom   37 type  1   force =    -0.05380799    0.05363933    0.04875973
     atom   38 type  1   force =     0.05162568   -0.05107526   -0.05103755
     atom   39 type  1   force =    -0.00581420    0.00561298    0.00593630
     atom   40 type  1   force =     0.03469823   -0.03360913    0.02799376
     atom   41 type  1   force =     0.05447398   -0.06566385   -0.10188527
     atom   42 type  1   force =     0.06273798   -0.06626269    0.03545404
     atom   43 type  1   force =     0.05150657    0.05258615   -0.05220386
     atom   44 type  1   force =    -0.05071323   -0.05087735    0.05146432
     atom   45 type  1   force =     0.00604617    0.00548524   -0.00587665
     atom   46 type  1   force =    -0.05299995   -0.05184527   -0.05171634
     atom   47 type  1   force =     0.05126526    0.05164699    0.05141814
     atom   48 type  1   force =    -0.00453862   -0.00530815   -0.00482180
     atom   49 type  2   force =     0.00576005    0.15413534    0.21584799
     atom   50 type  2   force =    -0.01537940   -0.01135623    0.01874408
     atom   51 type  3   force =    -0.04782804   -0.00447728    0.04029364

     Total force =     0.639010     Total SCF correction =     0.001295

     BFGS Geometry Optimization
     Energy error            =      0.0E+00 Ry
     Gradient error          =      2.2E-01 Ry/Bohr

     number of scf cycles    =   1
     number of bfgs steps    =   0

     energy             new  =    -965.5734396444 Ry

     new trust radius        =       0.2652946223 bohr
     new conv_thr            =       0.0000010000 Ry


ATOMIC_POSITIONS (angstrom)
C             6.1954987848        4.5750964590        6.2116707509
C             7.7214053005        3.0223027136        7.7071758440
C             6.9169816633        3.8496582158        6.8563110362
C             4.5990892290        6.1753000906        6.1797013075
C             3.0606620027        7.7092930270        7.7091674056
C             3.7785675073        6.9945694005        6.9950193732
C             6.1778372247        6.1773345871        4.5968092619
C             7.7092846436        7.7093450156        3.0605244311
C             6.9945644387        6.9944788127        3.7783880095
C             4.5948144835        4.5941313395        4.5938694205
C             3.0595432763        3.0593955390        3.0595471641
C             3.7762727083        3.7760410165        3.7759917795
C             6.1969148320        4.5753428291        4.5502810924
C             7.7940530153        2.9828689748        2.9838660543
C             7.0445668009        3.7295346481        3.7269474806
C             4.5751986531        6.1970491947        4.5720181443
C             2.9872394622        7.7905153164        2.9872997208
C             3.7229074883        7.0512512591        3.7236568405
C             4.5693538355        4.5701095093        6.1990011417
C             2.9844130299        2.9841190967        7.7923344340
C             3.7251357680        3.7259392282        7.0482596121
C             6.2049834838        6.2059669138        6.2022963618
C             7.7923290367        7.7931729862        7.7928490909
C             7.0504967098        7.0513149887        7.0504436982
C             0.6768159223       10.0953934124        0.6789042491
C             2.2123657208        8.5646434175        2.2123729249
C             1.4966174259        9.2775228633        1.4966530720
C            10.0948797585        0.6751176160        0.6882697998
C             8.5606197589        2.2154649610        2.2151218765
C             9.2818562272        1.4909059721        1.4946667178
C             0.6794507585        0.6781204523       10.0934888409
C             2.2136149458        2.2136455211        8.5626056054
C             1.4954498038        1.4936343283        9.2789786640
C            10.0955386632       10.0952474531       10.0962674077
C             8.5632125288        8.5634244959        8.5635047511
C             9.2824094988        9.2819397194        9.2808881419
C             0.7005260371       10.0743847102       10.0718025388
C             2.2863191321        8.4819721387        8.4809920896
C             1.5489232566        9.2219702630        9.2221413571
C            10.0633615147        0.7102148152       10.0608136620
C             8.5368263871        2.2242521882        8.4540846381
C             9.2511995091        1.5159352952        9.2367614724
C            10.0732561036       10.0748273917        0.7013749070
C             8.4811637140        8.4820768633        2.2862337478
C             9.2221994958        9.2219026637        1.5488902082
C             0.6979536328        0.6975646623        0.6976328908
C             2.2871284061        2.2863304107        2.2872093101
C             1.5485982648        1.5471910492        1.5474484152
O             7.4990480883        3.5675649094        9.0812218380
O             6.2228615746        3.3749905403        9.7559189412
H             6.8436904927        3.2856307246       10.5093224771



     Writing config-only to output data dir ./pwscf.save/
     NEW-OLD atomic charge density approx. for the potential

     Check: negative core charge=   -0.000004

     negative rho (up, down):  9.930E-07 9.928E-07
     Generating pointlists ...
     new r_m :   0.0453 (alat units)  0.9426 (a.u.) for type    1

     total cpu time spent up to now is       32.2 secs

     Self-consistent Calculation

     iteration #  1     ecut=    50.00 Ry     beta= 0.30
     Davidson diagonalization with overlap
     ethr =  1.00E-06,  avg # of iterations = 16.0

     negative rho (up, down):  9.070E-07 9.067E-07

     total cpu time spent up to now is       38.3 secs

     total energy              =    -965.53926430 Ry
     estimated scf accuracy    <       0.41120120 Ry

     total magnetization       =    -0.00 Bohr mag/cell
     absolute magnetization    =     0.00 Bohr mag/cell

     iteration #  2     ecut=    50.00 Ry     beta= 0.30
     Davidson diagonalization with overlap
     ethr =  2.01E-04,  avg # of iterations =  2.0

     negative rho (up, down):  9.314E-07 9.313E-07

     total cpu time spent up to now is       40.5 secs

     total energy              =    -965.59446322 Ry
     estimated scf accuracy    <       0.09467740 Ry

     total magnetization       =    -0.00 Bohr mag/cell
     absolute magnetization    =     0.00 Bohr mag/cell

     iteration #  3     ecut=    50.00 Ry     beta= 0.30
     Davidson diagonalization with overlap
     ethr =  4.62E-05,  avg # of iterations =  2.0

     negative rho (up, down):  1.021E-06 1.021E-06

     total cpu time spent up to now is       42.5 secs

     total energy              =    -965.59614212 Ry
     estimated scf accuracy    <       0.05777180 Ry

     total magnetization       =    -0.00 Bohr mag/cell
     absolute magnetization    =     0.00 Bohr mag/cell

     iteration #  4     ecut=    50.00 Ry     beta= 0.30
     Davidson diagonalization with overlap
     ethr =  2.82E-05,  avg # of iterations =  2.0

     negative rho (up, down):  8.837E-07 8.836E-07

     total cpu time spent up to now is       44.5 secs

     total energy              =    -965.59858292 Ry
     estimated scf accuracy    <       0.02849100 Ry

     total magnetization       =    -0.00 Bohr mag/cell
     absolute magnetization    =     0.00 Bohr mag/cell

     iteration #  5     ecut=    50.00 Ry     beta= 0.30
     Davidson diagonalization with overlap
     ethr =  1.39E-05,  avg # of iterations =  1.0

     negative rho (up, down):  8.764E-07 8.764E-07

     total cpu time spent up to now is       46.4 secs

     total energy              =    -965.59982121 Ry
     estimated scf accuracy    <       0.00253882 Ry

     total magnetization       =    -0.00 Bohr mag/cell
     absolute magnetization    =     0.00 Bohr mag/cell

     iteration #  6     ecut=    50.00 Ry     beta= 0.30
     Davidson diagonalization with overlap
     ethr =  1.24E-06,  avg # of iterations =  4.0

     negative rho (up, down):  8.786E-07 8.786E-07

     total cpu time spent up to now is       48.7 secs

     total energy              =    -965.60005801 Ry
     estimated scf accuracy    <       0.00038842 Ry

     total magnetization       =     0.00 Bohr mag/cell
     absolute magnetization    =     0.00 Bohr mag/cell

     iteration #  7     ecut=    50.00 Ry     beta= 0.30
     Davidson diagonalization with overlap
     ethr =  1.89E-07,  avg # of iterations =  4.0

     negative rho (up, down):  8.881E-07 8.881E-07

     total cpu time spent up to now is       50.9 secs

     total energy              =    -965.60007140 Ry
     estimated scf accuracy    <       0.00013910 Ry

     total magnetization       =     0.00 Bohr mag/cell
     absolute magnetization    =     0.00 Bohr mag/cell

     iteration #  8     ecut=    50.00 Ry     beta= 0.30
     Davidson diagonalization with overlap
     ethr =  6.79E-08,  avg # of iterations =  2.0

     negative rho (up, down):  8.915E-07 8.915E-07

     total cpu time spent up to now is       52.9 secs

     total energy              =    -965.60007528 Ry
     estimated scf accuracy    <       0.00003070 Ry

     total magnetization       =     0.00 Bohr mag/cell
     absolute magnetization    =     0.00 Bohr mag/cell

     iteration #  9     ecut=    50.00 Ry     beta= 0.30
     Davidson diagonalization with overlap
     ethr =  1.50E-08,  avg # of iterations =  2.0

     negative rho (up, down):  8.886E-07 8.886E-07

     total cpu time spent up to now is       55.1 secs

     total energy              =    -965.60007818 Ry
     estimated scf accuracy    <       0.00000603 Ry

     total magnetization       =     0.00 Bohr mag/cell
     absolute magnetization    =     0.00 Bohr mag/cell

     iteration # 10     ecut=    50.00 Ry     beta= 0.30
     Davidson diagonalization with overlap
     ethr =  2.94E-09,  avg # of iterations =  4.0

     negative rho (up, down):  8.865E-07 8.865E-07

     total cpu time spent up to now is       57.3 secs

     total energy              =    -965.60007900 Ry
     estimated scf accuracy    <       0.00000130 Ry

     total magnetization       =     0.00 Bohr mag/cell
     absolute magnetization    =     0.00 Bohr mag/cell

     iteration # 11     ecut=    50.00 Ry     beta= 0.30
     Davidson diagonalization with overlap
     ethr =  6.34E-10,  avg # of iterations =  4.0

     negative rho (up, down):  8.897E-07 8.897E-07

     Magnetic moment per site  (integrated on atomic sphere of radius R)
     atom   1 (R=0.045)  charge=  1.1613  magn= -0.0000
     atom   2 (R=0.045)  charge=  1.0731  magn= -0.0000
     atom   3 (R=0.045)  charge=  1.1618  magn=  0.0000
     atom   4 (R=0.045)  charge=  1.0843  magn=  0.0000
     atom   5 (R=0.045)  charge=  1.1502  magn=  0.0000
     atom   6 (R=0.045)  charge=  1.1382  magn= -0.0000
     atom   7 (R=0.045)  charge=  1.0854  magn=  0.0000
     atom   8 (R=0.045)  charge=  1.1504  magn= -0.0000
     atom   9 (R=0.045)  charge=  1.1384  magn=  0.0000
     atom  10 (R=0.045)  charge=  1.0845  magn=  0.0000
     atom  11 (R=0.045)  charge=  1.1496  magn=  0.0000
     atom  12 (R=0.045)  charge=  1.1364  magn= -0.0000
     atom  13 (R=0.045)  charge=  1.0724  magn= -0.0000
     atom  14 (R=0.045)  charge=  1.1237  magn= -0.0000
     atom  15 (R=0.045)  charge=  1.0959  magn=  0.0000
     atom  16 (R=0.045)  charge=  1.0695  magn= -0.0000
     atom  17 (R=0.045)  charge=  1.1263  magn= -0.0000
     atom  18 (R=0.045)  charge=  1.0992  magn=  0.0000
     atom  19 (R=0.045)  charge=  1.0682  magn=  0.0000
     atom  20 (R=0.045)  charge=  1.1244  magn=  0.0000
     atom  21 (R=0.045)  charge=  1.0970  magn= -0.0000
     atom  22 (R=0.045)  charge=  1.0675  magn=  0.0000
     atom  23 (R=0.045)  charge=  1.1248  magn=  0.0000
     atom  24 (R=0.045)  charge=  1.0964  magn= -0.0000
     atom  25 (R=0.045)  charge=  1.0856  magn=  0.0000
     atom  26 (R=0.045)  charge=  1.1501  magn=  0.0000
     atom  27 (R=0.045)  charge=  1.1389  magn= -0.0000
     atom  28 (R=0.045)  charge=  1.0891  magn=  0.0000
     atom  29 (R=0.045)  charge=  1.1480  magn=  0.0000
     atom  30 (R=0.045)  charge=  1.1349  magn= -0.0000
     atom  31 (R=0.045)  charge=  1.0860  magn= -0.0000
     atom  32 (R=0.045)  charge=  1.1492  magn= -0.0000
     atom  33 (R=0.045)  charge=  1.1374  magn=  0.0000
     atom  34 (R=0.045)  charge=  1.0855  magn= -0.0000
     atom  35 (R=0.045)  charge=  1.1488  magn= -0.0000
     atom  36 (R=0.045)  charge=  1.1363  magn=  0.0000
     atom  37 (R=0.045)  charge=  1.0698  magn= -0.0000
     atom  38 (R=0.045)  charge=  1.1249  magn= -0.0000
     atom  39 (R=0.045)  charge=  1.0967  magn=  0.0000
     atom  40 (R=0.045)  charge=  1.0787  magn=  0.0000
     atom  41 (R=0.045)  charge=  1.1222  magn=  0.0000
     atom  42 (R=0.045)  charge=  1.1256  magn= -0.0000
     atom  43 (R=0.045)  charge=  1.0704  magn= -0.0000
     atom  44 (R=0.045)  charge=  1.1250  magn=  0.0000
     atom  45 (R=0.045)  charge=  1.0970  magn= -0.0000
     atom  46 (R=0.045)  charge=  1.0711  magn= -0.0000
     atom  47 (R=0.045)  charge=  1.1255  magn= -0.0000
     atom  48 (R=0.045)  charge=  1.0964  magn=  0.0000
     atom  49 (R=0.037)  charge=  1.9415  magn=  0.0000
     atom  50 (R=0.037)  charge=  1.9391  magn= -0.0000
     atom  51 (R=0.037)  charge=  0.4071  magn=  0.0000

     total cpu time spent up to now is       59.5 secs

     End of self-consistent calculation

 ------ SPIN UP ------------


          k = 0.0000 0.0000 0.0000 ( 26858 PWs)   bands (ev):

   -25.4319 -21.7082 -21.6971 -20.5120 -17.7649 -17.5307 -17.4912 -17.4227
   -17.3390 -17.3058 -16.8565 -16.7926 -16.7711 -16.7447 -16.5550 -16.1610
   -16.1131 -15.9108 -15.6982 -15.6555 -15.5172 -15.4277 -15.2771 -14.4493
   -14.4250 -14.3868 -14.2084 -14.1824 -14.1485 -13.7427 -13.2716 -12.8079
   -12.6505 -12.6253 -12.2591 -12.1824 -12.1294 -12.1044 -11.4045 -11.2115
   -11.0487 -11.0076 -10.7057 -10.3097  -9.9736  -9.8416  -9.7964  -9.6008
    -9.5877  -9.5273  -9.5077  -9.4960  -9.3818  -9.3378  -9.2138  -9.0150
    -7.5297  -6.8708  -6.8526  -6.8200  -6.6031  -6.5791  -6.5292  -6.2662
    -6.2355  -6.1767  -5.9180  -5.8855  -5.8477  -5.5983  -5.5714  -5.5392
    -5.4735  -5.4426  -5.4378  -5.3866  -5.3821  -5.3101  -5.1380  -5.0133
    -4.8679  -4.7922  -4.6633  -4.4819  -4.4272  -3.8154  -3.6189  -3.5828
    -3.4882  -3.2387  -3.2181  -3.1547  -3.0228  -2.9761  -2.8456  -2.7927
    -2.7371  -2.7039  -2.3364  -2.0227  -1.8772  -1.7237  -0.9978  -0.6462
    -0.3646  -0.0476   0.2264   0.4641   0.6168   0.8209   1.0059   1.0500
     1.0607   1.1695   1.2464   1.5141   2.0607   2.1985   2.2923   2.4878
     2.5185   2.5265   2.6410

 ------ SPIN DOWN ----------


          k = 0.0000 0.0000 0.0000 ( 26858 PWs)   bands (ev):

   -25.4319 -21.7082 -21.6971 -20.5120 -17.7649 -17.5307 -17.4912 -17.4227
   -17.3390 -17.3058 -16.8565 -16.7926 -16.7711 -16.7447 -16.5550 -16.1610
   -16.1131 -15.9108 -15.6982 -15.6555 -15.5172 -15.4277 -15.2771 -14.4493
   -14.4250 -14.3868 -14.2084 -14.1824 -14.1485 -13.7427 -13.2716 -12.8079
   -12.6505 -12.6253 -12.2591 -12.1824 -12.1294 -12.1044 -11.4045 -11.2115
   -11.0487 -11.0076 -10.7057 -10.3097  -9.9736  -9.8416  -9.7964  -9.6008
    -9.5877  -9.5273  -9.5077  -9.4960  -9.3818  -9.3378  -9.2138  -9.0151
    -7.5297  -6.8708  -6.8526  -6.8200  -6.6031  -6.5791  -6.5292  -6.2662
    -6.2355  -6.1767  -5.9180  -5.8855  -5.8477  -5.5983  -5.5714  -5.5392
    -5.4735  -5.4426  -5.4378  -5.3866  -5.3821  -5.3101  -5.1380  -5.0133
    -4.8679  -4.7922  -4.6633  -4.4819  -4.4273  -3.8154  -3.6189  -3.5828
    -3.4882  -3.2387  -3.2181  -3.1547  -3.0228  -2.9761  -2.8456  -2.7927
    -2.7371  -2.7039  -2.3364  -2.0227  -1.8772  -1.7237  -0.9978  -0.6462
    -0.3646  -0.0476   0.2264   0.4641   0.6168   0.8209   1.0059   1.0500
     1.0607   1.1695   1.2464   1.5141   2.0607   2.1985   2.2923   2.4878
     2.5185   2.5265   2.6410

     the spin up/dw Fermi energies are    -0.9978   -0.9978 ev

!    total energy              =    -965.60007927 Ry
     estimated scf accuracy    <       0.00000025 Ry
     smearing contrib. (-TS)   =      -0.00005642 Ry
     internal energy E=F+TS    =    -965.60002285 Ry

     The total energy is F=E-TS. E is the sum of the following terms:
     one-electron contribution =   -1296.20298232 Ry
     hartree contribution      =     696.97570137 Ry
     xc contribution           =    -233.46128987 Ry
     ewald contribution        =     182.19622246 Ry
     one-center paw contrib.   =    -315.10767449 Ry

     total magnetization       =    -0.00 Bohr mag/cell
     absolute magnetization    =     0.00 Bohr mag/cell

     convergence has been achieved in  11 iterations

     negative rho (up, down):  8.897E-07 8.897E-07

     Forces acting on atoms (cartesian axes, Ry/au):

     atom    1 type  1   force =    -0.20744056    0.19518665   -0.15261201
     atom    2 type  1   force =    -0.18495880    0.18225787   -0.06725655
     atom    3 type  1   force =     0.37821116   -0.39450683    0.31353316
     atom    4 type  1   force =    -0.00970762    0.00863663    0.02045388
     atom    5 type  1   force =     0.03497209   -0.03477864   -0.03468308
     atom    6 type  1   force =    -0.02204119    0.02164199    0.02406413
     atom    7 type  1   force =     0.01799896    0.00983644   -0.01478182
     atom    8 type  1   force =    -0.03504344   -0.03519942    0.03489361
     atom    9 type  1   force =     0.02497319    0.02516110   -0.02455542
     atom   10 type  1   force =    -0.00721629   -0.01877997   -0.01362981
     atom   11 type  1   force =     0.03837774    0.03807440    0.03819937
     atom   12 type  1   force =    -0.02642718   -0.02671941   -0.02558027
     atom   13 type  1   force =     0.00073354    0.00363804   -0.07833366
     atom   14 type  1   force =    -0.11936653    0.11921104    0.12172280
     atom   15 type  1   force =     0.05267845   -0.05277772   -0.06930274
     atom   16 type  1   force =    -0.00911163    0.01236795   -0.01294501
     atom   17 type  1   force =     0.10098857   -0.10185680    0.10104670
     atom   18 type  1   force =    -0.04747834    0.04808820   -0.04874679
     atom   19 type  1   force =    -0.03089272   -0.01515260    0.01173459
     atom   20 type  1   force =     0.11551118    0.11409362   -0.11609105
     atom   21 type  1   force =    -0.05867253   -0.05569411    0.05685557
     atom   22 type  1   force =     0.01281766    0.03749421    0.00707277
     atom   23 type  1   force =    -0.11243661   -0.11425532   -0.11389463
     atom   24 type  1   force =     0.05357794    0.05640393    0.05398496
     atom   25 type  1   force =     0.01689277   -0.01729122    0.01996175
     atom   26 type  1   force =    -0.03054238    0.03050263   -0.03047247
     atom   27 type  1   force =     0.02125540   -0.02093053    0.02163079
     atom   28 type  1   force =    -0.01001497    0.01130593    0.02080304
     atom   29 type  1   force =     0.05167402   -0.05172397   -0.05256733
     atom   30 type  1   force =    -0.03785444    0.03737982    0.04545720
     atom   31 type  1   force =     0.01096329    0.01544784   -0.01418891
     atom   32 type  1   force =    -0.04352656   -0.04380525    0.04403228
     atom   33 type  1   force =     0.03269214    0.03382327   -0.03311492
     atom   34 type  1   force =    -0.01530053   -0.01272139   -0.01220495
     atom   35 type  1   force =     0.04309293    0.04334993    0.04367355
     atom   36 type  1   force =    -0.03497905   -0.03475195   -0.03525251
     atom   37 type  1   force =     0.00909122   -0.01094239   -0.01468765
     atom   38 type  1   force =    -0.10813391    0.10899896    0.10880009
     atom   39 type  1   force =     0.05268392   -0.05296939   -0.05371364
     atom   40 type  1   force =     0.02586030   -0.02228090    0.01104334
     atom   41 type  1   force =     0.13751525   -0.15863423    0.01959325
     atom   42 type  1   force =    -0.04132501    0.03841728   -0.07752365
     atom   43 type  1   force =    -0.01389120   -0.01252967    0.01284247
     atom   44 type  1   force =     0.10866161    0.10827508   -0.10776928
     atom   45 type  1   force =    -0.05269719   -0.05295451    0.05316281
     atom   46 type  1   force =     0.01267232    0.01454872    0.01365392
     atom   47 type  1   force =    -0.10795640   -0.10790472   -0.10814385
     atom   48 type  1   force =     0.05265952    0.05248672    0.05317453
     atom   49 type  2   force =     0.01624384    0.10744715   -0.01056802
     atom   50 type  2   force =     0.00295590   -0.01241488    0.01689145
     atom   51 type  3   force =    -0.05873984   -0.01249957    0.05433802

     Total force =     1.017282     Total SCF correction =     0.000392
     Energy error            =      2.7E-02 Ry
     Gradient error          =      3.9E-01 Ry/Bohr

     number of scf cycles    =   2
     number of bfgs steps    =   1

     energy             old  =    -965.5734396444 Ry
     energy             new  =    -965.6000792728 Ry

     CASE: energy            _new < energy            _old

     new trust radius        =       0.2255328160 bohr
     new conv_thr            =       0.0000010000 Ry


ATOMIC_POSITIONS (angstrom)
C             6.1507272492        4.6135227391        6.1905464347
C             7.6882702194        3.0408248941        7.7001672739
C             6.9949873747        3.7636499022        6.8839034989
C             4.5916254840        6.1810835454        6.1911769876
C             3.0573113455        7.7126752616        7.7125107989
C             3.7615154627        7.0115795032        7.0129581651
C             6.1876303907        6.1845317929        4.5866959498
C             7.7125868324        7.7126344374        3.0570789343
C             7.0125233712        7.0124463390        3.7605233644
C             4.5884441141        4.5840985563        4.5851697158
C             3.0571028236        3.0567906711        3.0570578121
C             3.7583392110        3.7579020775        3.7581522761
C             6.1823388460        4.5918295065        4.5301615406
C             7.7757815050        3.0010550068        3.0032943993
C             7.0551729314        3.7189535747        3.7097581249
C             4.5879679189        6.1858669167        4.5820181511
C             3.0025217177        7.7748559839        3.0026303015
C             3.7103511183        7.0640653868        3.7106062287
C             4.5728250575        4.5790006397        6.1881391226
C             3.0023551930        3.0015016396        7.7740937020
C             3.7105552415        3.7126323693        7.0620028819
C             6.1960008669        6.2045500404        6.1902582702
C             7.7751292294        7.7753715739        7.7749801829
C             7.0634286574        7.0649584156        7.0634639887
C             0.6862819285       10.0864502598        0.6903462095
C             2.2164697159        8.5605328802        2.2165006785
C             1.5135423939        9.2607645373        1.5137040243
C            10.0882708567        0.6826203047        0.7048825585
C             8.5604378441        2.2156772091        2.2143861795
C             9.2625454728        1.5099559785        1.5174771506
C             0.6886103259        0.6883869873       10.0844290925
C             2.2151945613        2.2151616355        8.5612865410
C             1.5150265912        1.5131048746        9.2595066924
C            10.0846082920       10.0849004147       10.0871312830
C             8.5614182360        8.5618151968        8.5620301329
C             9.2626319168        9.2619796837        9.2607579862
C             0.6881324573       10.0862025797       10.0811913120
C             2.2698165784        8.4988751039        8.4978487582
C             1.5623508668        9.2084050623        9.2084536601
C            10.0804140863        0.6944879871       10.0717664991
C             8.5912786474        2.1606506651        8.4312969243
C             9.2568743787        1.5084479934        9.2244964994
C            10.0836375894       10.0858985071        0.6904996335
C             8.4980711812        8.4988282103        2.2697903870
C             9.2088327202        9.2083061237        1.5624371990
C             0.6868079784        0.6872766159        0.6871251940
C             2.2705761445        2.2698992554        2.2706461029
C             1.5623742653        1.5607033153        1.5612926212
O             7.5052922600        3.6411935475        9.1383357719
O             6.2194213351        3.3682809602        9.7659652571
H             6.8135892143        3.2808133373       10.5360675455



     Writing config-only to output data dir ./pwscf.save/
     NEW-OLD atomic charge density approx. for the potential

     Check: negative core charge=   -0.000004

     negative rho (up, down):  8.541E-07 8.541E-07
     Generating pointlists ...

     total cpu time spent up to now is       64.1 secs

     Self-consistent Calculation

     iteration #  1     ecut=    50.00 Ry     beta= 0.30
     Davidson diagonalization with overlap
     ethr =  1.00E-06,  avg # of iterations = 11.0

     negative rho (up, down):  1.051E-06 1.051E-06

     total cpu time spent up to now is       69.6 secs

     total energy              =    -965.76594984 Ry
     estimated scf accuracy    <       0.14537958 Ry

     total magnetization       =    -0.00 Bohr mag/cell
     absolute magnetization    =     0.00 Bohr mag/cell

     iteration #  2     ecut=    50.00 Ry     beta= 0.30
     Davidson diagonalization with overlap
     ethr =  7.09E-05,  avg # of iterations =  4.0

     negative rho (up, down):  1.177E-06 1.177E-06

     total cpu time spent up to now is       71.7 secs

     total energy              =    -965.76761030 Ry
     estimated scf accuracy    <       0.04373715 Ry

     total magnetization       =     0.00 Bohr mag/cell
     absolute magnetization    =     0.00 Bohr mag/cell

     iteration #  3     ecut=    50.00 Ry     beta= 0.30
     Davidson diagonalization with overlap
     ethr =  2.13E-05,  avg # of iterations =  3.0

     negative rho (up, down):  1.277E-06 1.277E-06

     total cpu time spent up to now is       73.8 secs

     total energy              =    -965.76682945 Ry
     estimated scf accuracy    <       0.01971329 Ry

     total magnetization       =    -0.00 Bohr mag/cell
     absolute magnetization    =     0.00 Bohr mag/cell

     iteration #  4     ecut=    50.00 Ry     beta= 0.30
     Davidson diagonalization with overlap
     ethr =  9.62E-06,  avg # of iterations =  2.0

     negative rho (up, down):  1.305E-06 1.305E-06

     total cpu time spent up to now is       75.8 secs

     total energy              =    -965.76828432 Ry
     estimated scf accuracy    <       0.00723857 Ry

     total magnetization       =     0.00 Bohr mag/cell
     absolute magnetization    =     0.00 Bohr mag/cell

     iteration #  5     ecut=    50.00 Ry     beta= 0.30
     Davidson diagonalization with overlap
     ethr =  3.53E-06,  avg # of iterations =  2.0

     negative rho (up, down):  1.312E-06 1.312E-06

     total cpu time spent up to now is       77.9 secs

     total energy              =    -965.76902320 Ry
     estimated scf accuracy    <       0.00084609 Ry

     total magnetization       =     0.00 Bohr mag/cell
     absolute magnetization    =     0.00 Bohr mag/cell

     iteration #  6     ecut=    50.00 Ry     beta= 0.30
     Davidson diagonalization with overlap
     ethr =  4.13E-07,  avg # of iterations =  7.0

     negative rho (up, down):  1.288E-06 1.288E-06

     total cpu time spent up to now is       80.3 secs

     total energy              =    -965.76910503 Ry
     estimated scf accuracy    <       0.00018563 Ry

     total magnetization       =     0.00 Bohr mag/cell
     absolute magnetization    =     0.00 Bohr mag/cell

     iteration #  7     ecut=    50.00 Ry     beta= 0.30
     Davidson diagonalization with overlap
     ethr =  9.06E-08,  avg # of iterations =  2.0

     negative rho (up, down):  1.269E-06 1.269E-06

     total cpu time spent up to now is       82.4 secs

     total energy              =    -965.76912004 Ry
     estimated scf accuracy    <       0.00003619 Ry

     total magnetization       =     0.00 Bohr mag/cell
     absolute magnetization    =     0.00 Bohr mag/cell

     iteration #  8     ecut=    50.00 Ry     beta= 0.30
     Davidson diagonalization with overlap
     ethr =  1.77E-08,  avg # of iterations =  4.0

     negative rho (up, down):  1.257E-06 1.257E-06

     total cpu time spent up to now is       84.6 secs

     total energy              =    -965.76912259 Ry
     estimated scf accuracy    <       0.00000878 Ry

     total magnetization       =    -0.00 Bohr mag/cell
     absolute magnetization    =     0.00 Bohr mag/cell

     iteration #  9     ecut=    50.00 Ry     beta= 0.30
     Davidson diagonalization with overlap
     ethr =  4.28E-09,  avg # of iterations =  2.0

     negative rho (up, down):  1.250E-06 1.250E-06

     total cpu time spent up to now is       86.7 secs

     total energy              =    -965.76912359 Ry
     estimated scf accuracy    <       0.00000155 Ry

     total magnetization       =    -0.00 Bohr mag/cell
     absolute magnetization    =     0.00 Bohr mag/cell

     iteration # 10     ecut=    50.00 Ry     beta= 0.30
     Davidson diagonalization with overlap
     ethr =  7.56E-10,  avg # of iterations =  4.0

     negative rho (up, down):  1.244E-06 1.244E-06

     Magnetic moment per site  (integrated on atomic sphere of radius R)
     atom   1 (R=0.045)  charge=  1.0927  magn= -0.0000
     atom   2 (R=0.045)  charge=  1.0855  magn= -0.0000
     atom   3 (R=0.045)  charge=  1.1311  magn=  0.0000
     atom   4 (R=0.045)  charge=  1.0814  magn=  0.0000
     atom   5 (R=0.045)  charge=  1.1572  magn=  0.0000
     atom   6 (R=0.045)  charge=  1.1476  magn= -0.0000
     atom   7 (R=0.045)  charge=  1.0834  magn=  0.0000
     atom   8 (R=0.045)  charge=  1.1581  magn=  0.0000
     atom   9 (R=0.045)  charge=  1.1489  magn=  0.0000
     atom  10 (R=0.045)  charge=  1.0825  magn=  0.0000
     atom  11 (R=0.045)  charge=  1.1577  magn=  0.0000
     atom  12 (R=0.045)  charge=  1.1484  magn= -0.0000
     atom  13 (R=0.045)  charge=  1.0681  magn= -0.0000
     atom  14 (R=0.045)  charge=  1.1428  magn= -0.0000
     atom  15 (R=0.045)  charge=  1.1187  magn=  0.0000
     atom  16 (R=0.045)  charge=  1.0623  magn= -0.0000
     atom  17 (R=0.045)  charge=  1.1494  magn= -0.0000
     atom  18 (R=0.045)  charge=  1.1186  magn=  0.0000
     atom  19 (R=0.045)  charge=  1.0680  magn=  0.0000
     atom  20 (R=0.045)  charge=  1.1467  magn=  0.0000
     atom  21 (R=0.045)  charge=  1.1197  magn= -0.0000
     atom  22 (R=0.045)  charge=  1.0649  magn=  0.0000
     atom  23 (R=0.045)  charge=  1.1455  magn=  0.0000
     atom  24 (R=0.045)  charge=  1.1190  magn= -0.0000
     atom  25 (R=0.045)  charge=  1.0821  magn=  0.0000
     atom  26 (R=0.045)  charge=  1.1574  magn=  0.0000
     atom  27 (R=0.045)  charge=  1.1483  magn= -0.0000
     atom  28 (R=0.045)  charge=  1.0837  magn=  0.0000
     atom  29 (R=0.045)  charge=  1.1583  magn=  0.0000
     atom  30 (R=0.045)  charge=  1.1497  magn= -0.0000
     atom  31 (R=0.045)  charge=  1.0820  magn= -0.0000
     atom  32 (R=0.045)  charge=  1.1586  magn= -0.0000
     atom  33 (R=0.045)  charge=  1.1506  magn=  0.0000
     atom  34 (R=0.045)  charge=  1.0827  magn= -0.0000
     atom  35 (R=0.045)  charge=  1.1588  magn= -0.0000
     atom  36 (R=0.045)  charge=  1.1516  magn=  0.0000
     atom  37 (R=0.045)  charge=  1.0603  magn= -0.0000
     atom  38 (R=0.045)  charge=  1.1494  magn= -0.0000
     atom  39 (R=0.045)  charge=  1.1180  magn=  0.0000
     atom  40 (R=0.045)  charge=  1.0739  magn=  0.0000
     atom  41 (R=0.045)  charge=  1.1251  magn=  0.0000
     atom  42 (R=0.045)  charge=  1.1464  magn= -0.0000
     atom  43 (R=0.045)  charge=  1.0619  magn=  0.0000
     atom  44 (R=0.045)  charge=  1.1495  magn=  0.0000
     atom  45 (R=0.045)  charge=  1.1183  magn= -0.0000
     atom  46 (R=0.045)  charge=  1.0622  magn= -0.0000
     atom  47 (R=0.045)  charge=  1.1488  magn= -0.0000
     atom  48 (R=0.045)  charge=  1.1196  magn=  0.0000
     atom  49 (R=0.037)  charge=  1.9343  magn=  0.0000
     atom  50 (R=0.037)  charge=  1.9396  magn= -0.0000
     atom  51 (R=0.037)  charge=  0.4102  magn=  0.0000

     total cpu time spent up to now is       89.0 secs

     End of self-consistent calculation

 ------ SPIN UP ------------


          k = 0.0000 0.0000 0.0000 ( 26858 PWs)   bands (ev):

   -24.8412 -21.8521 -21.7068 -19.4730 -17.5171 -17.4645 -17.4114 -17.3222
   -17.2578 -17.2429 -16.8872 -16.8224 -16.8076 -16.7819 -16.4815 -16.1504
   -16.1047 -15.8772 -15.7736 -15.7252 -15.6161 -15.4997 -15.4427 -14.7113
   -14.6737 -14.6604 -13.9369 -13.8900 -13.8693 -13.4840 -12.9571 -12.7532
   -12.6548 -12.6484 -12.1130 -12.0810 -12.0564 -12.0494 -11.1927 -11.0951
   -11.0478 -11.0241 -10.6821 -10.2121  -9.8440  -9.7618  -9.7212  -9.5784
    -9.5527  -9.4761  -9.4603  -9.3784  -9.3062  -9.2926  -8.9818  -8.5665
    -7.0563  -6.8691  -6.7622  -6.6712  -6.5112  -6.4808  -6.4111  -6.2461
    -6.2044  -6.1398  -5.8838  -5.8616  -5.7062  -5.6250  -5.6183  -5.5894
    -5.5383  -5.4958  -5.4894  -5.4396  -5.4129  -5.2341  -5.0460  -4.9693
    -4.8573  -4.8216  -4.6378  -4.5093  -4.3864  -3.8069  -3.7453  -3.7041
    -3.5758  -3.3877  -3.3666  -3.2716  -3.2045  -3.1532  -3.0892  -3.0080
    -2.9853  -2.9206  -2.4163  -2.1555  -2.1418  -1.8642  -1.2254  -0.1412
    -0.1104   0.1516   0.7128   0.8103   0.8952   1.1662   1.2886   1.3556
     1.3683   1.4481   1.4944   1.8414   2.2341   2.3699   2.3757   2.4658
     2.5297   2.5344   2.5833

 ------ SPIN DOWN ----------


          k = 0.0000 0.0000 0.0000 ( 26858 PWs)   bands (ev):

   -24.8412 -21.8521 -21.7068 -19.4730 -17.5171 -17.4645 -17.4114 -17.3222
   -17.2578 -17.2429 -16.8872 -16.8224 -16.8077 -16.7819 -16.4815 -16.1504
   -16.1047 -15.8772 -15.7736 -15.7252 -15.6161 -15.4997 -15.4427 -14.7113
   -14.6737 -14.6604 -13.9369 -13.8900 -13.8693 -13.4840 -12.9571 -12.7532
   -12.6548 -12.6484 -12.1130 -12.0810 -12.0564 -12.0494 -11.1927 -11.0951
   -11.0478 -11.0241 -10.6821 -10.2121  -9.8440  -9.7618  -9.7212  -9.5784
    -9.5527  -9.4761  -9.4603  -9.3784  -9.3062  -9.2926  -8.9818  -8.5665
    -7.0563  -6.8691  -6.7622  -6.6712  -6.5112  -6.4808  -6.4111  -6.2461
    -6.2044  -6.1398  -5.8838  -5.8616  -5.7062  -5.6250  -5.6183  -5.5894
    -5.5383  -5.4958  -5.4894  -5.4396  -5.4129  -5.2341  -5.0460  -4.9693
    -4.8573  -4.8216  -4.6378  -4.5093  -4.3864  -3.8069  -3.7453  -3.7041
    -3.5758  -3.3877  -3.3666  -3.2716  -3.2045  -3.1532  -3.0892  -3.0080
    -2.9853  -2.9206  -2.4163  -2.1555  -2.1418  -1.8642  -1.2253  -0.1412
    -0.1104   0.1516   0.7128   0.8103   0.8952   1.1662   1.2886   1.3556
     1.3683   1.4481   1.4944   1.8414   2.2341   2.3699   2.3757   2.4658
     2.5297   2.5344   2.5833

     the spin up/dw Fermi energies are    -1.2254   -1.2253 ev

!    total energy              =    -965.76912379 Ry
     estimated scf accuracy    <       0.00000044 Ry
     smearing contrib. (-TS)   =      -0.00005642 Ry
     internal energy E=F+TS    =    -965.76906737 Ry

     The total energy is F=E-TS. E is the sum of the following terms:
     one-electron contribution =   -1287.93758523 Ry
     hartree contribution      =     693.27517534 Ry
     xc contribution           =    -233.80284819 Ry
     ewald contribution        =     177.83288845 Ry
     one-center paw contrib.   =    -315.13669773 Ry

     total magnetization       =     0.00 Bohr mag/cell
     absolute magnetization    =     0.00 Bohr mag/cell

     convergence has been achieved in  10 iterations

     negative rho (up, down):  1.244E-06 1.244E-06

     Forces acting on atoms (cartesian axes, Ry/au):

     atom    1 type  1   force =     0.04338563   -0.04516163    0.02263419
     atom    2 type  1   force =     0.01331783    0.00389001    0.09929376
     atom    3 type  1   force =     0.02635148   -0.04322675   -0.00702720
     atom    4 type  1   force =    -0.01995839    0.02131564    0.00881120
     atom    5 type  1   force =    -0.02403980    0.02402106    0.02425435
     atom    6 type  1   force =     0.03189127   -0.03240137   -0.03132343
     atom    7 type  1   force =     0.01298971    0.02047438   -0.02064143
     atom    8 type  1   force =     0.02541378    0.02517244   -0.02538250
     atom    9 type  1   force =    -0.03202921   -0.02877235    0.03003812
     atom   10 type  1   force =    -0.02013697   -0.01288222   -0.02202895
     atom   11 type  1   force =    -0.02599468   -0.02640799   -0.02604210
     atom   12 type  1   force =     0.03162226    0.03415924    0.03285916
     atom   13 type  1   force =     0.02459229   -0.02367923   -0.03283693
     atom   14 type  1   force =    -0.01915847    0.01909283    0.01846426
     atom   15 type  1   force =    -0.03132934    0.03169803    0.01834852
     atom   16 type  1   force =    -0.04377447    0.04492384   -0.04022538
     atom   17 type  1   force =     0.00655784   -0.00691807    0.00650177
     atom   18 type  1   force =     0.05143644   -0.05122328    0.05009214
     atom   19 type  1   force =    -0.04019287   -0.03520158    0.03421890
     atom   20 type  1   force =     0.00923274    0.00952470   -0.01046367
     atom   21 type  1   force =     0.04091312    0.04010814   -0.04152649
     atom   22 type  1   force =     0.03312010    0.03883582    0.03048329
     atom   23 type  1   force =    -0.01104408   -0.01132045   -0.01195090
     atom   24 type  1   force =    -0.03968544   -0.03993086   -0.04078087
     atom   25 type  1   force =     0.00813519   -0.00835274    0.00459439
     atom   26 type  1   force =     0.02156696   -0.02154673    0.02169701
     atom   27 type  1   force =    -0.02791388    0.02804137   -0.02724442
     atom   28 type  1   force =    -0.00580834    0.00587017   -0.00044854
     atom   29 type  1   force =    -0.03145288    0.03142035    0.03194412
     atom   30 type  1   force =     0.03397625   -0.03397079   -0.02836603
     atom   31 type  1   force =     0.00704341    0.00605778   -0.00559423
     atom   32 type  1   force =     0.03195523    0.03173469   -0.03143565
     atom   33 type  1   force =    -0.03535205   -0.03525325    0.03577007
     atom   34 type  1   force =    -0.00491814   -0.00712120   -0.00406142
     atom   35 type  1   force =    -0.03285889   -0.03258531   -0.03260853
     atom   36 type  1   force =     0.03470777    0.03433178    0.03550387
     atom   37 type  1   force =     0.04244520   -0.04343833   -0.04264391
     atom   38 type  1   force =    -0.00623557    0.00664121    0.00651323
     atom   39 type  1   force =    -0.04996335    0.05031684    0.04952272
     atom   40 type  1   force =    -0.00876309    0.00740787   -0.00769863
     atom   41 type  1   force =    -0.02285973    0.00026573   -0.10028784
     atom   42 type  1   force =     0.03851465   -0.03995633    0.01237952
     atom   43 type  1   force =    -0.04415509   -0.04483120    0.04358031
     atom   44 type  1   force =     0.00733044    0.00699459   -0.00670409
     atom   45 type  1   force =     0.04909553    0.04900794   -0.04845838
     atom   46 type  1   force =     0.04512896    0.04490204    0.04541046
     atom   47 type  1   force =    -0.00546208   -0.00548602   -0.00551977
     atom   48 type  1   force =    -0.04920439   -0.04950781   -0.04925170
     atom   49 type  2   force =     0.00061166    0.08527398   -0.03105208
     atom   50 type  2   force =     0.01458652   -0.00449445    0.01399455
     atom   51 type  3   force =    -0.05363106   -0.01781255    0.05469516

     Total force =     0.405680     Total SCF correction =     0.001076
     Energy error            =      1.7E-01 Ry
     Gradient error          =      1.0E-01 Ry/Bohr

     number of scf cycles    =   3
     number of bfgs steps    =   2

     energy             old  =    -965.6000792728 Ry
     energy             new  =    -965.7691237869 Ry

     CASE: energy            _new < energy            _old

     new trust radius        =       0.1373987422 bohr
     new conv_thr            =       0.0000010000 Ry


ATOMIC_POSITIONS (angstrom)
C             6.1540023226        4.6074851325        6.1910861907
C             7.6803258857        3.0537773557        7.7445751098
C             7.0397334989        3.7082356166        6.8985163617
C             4.5798205652        6.1931319806        6.1988451483
C             3.0461244901        7.7238673822        7.7238117614
C             3.7724197599        7.0004014022        7.0026078440
C             6.1968681691        6.1965335515        4.5737677094
C             7.7244315226        7.7243524251        3.0452115242
C             7.0018669411        7.0033905693        3.7702437786
C             4.5768927038        4.5748297661        4.5719260034
C             3.0452944910        3.0447317952        3.0452085378
C             3.7687477067        3.7694930016        3.7692183923
C             6.1910935567        4.5841172095        4.5066187098
C             7.7577941958        3.0189850758        3.0212924656
C             7.0442424369        3.7300661663        3.7122318015
C             4.5691150964        6.2057625125        4.5641300024
C             3.0129834392        7.7641003497        3.0130777240
C             3.7308636392        7.0437382251        3.7303023770
C             4.5528021652        4.5632340544        6.2028516235
C             3.0152720921        3.0143814317        7.7604859678
C             3.7250460297        3.7271296077        7.0469548059
C             6.2106415707        6.2246224124        6.2027039076
C             7.7616106220        7.7615135146        7.7608123768
C             7.0489735809        7.0506505651        7.0485088604
C             0.6930317235       10.0796971916        0.6959274420
C             2.2267851422        8.5502243638        2.2268876606
C             1.5045235496        9.2698955571        1.5050549423
C            10.0835625516        0.6876092978        0.7091985735
C             8.5469731705        2.2291309534        2.2278500611
C             9.2733627075        1.4990646459        1.5104784200
C             0.6945338951        0.6942478481       10.0791147120
C             2.2295274072        2.2293618574        8.5472855096
C             1.5034025078        1.5015477186        9.2713427942
C            10.0791600330       10.0786044383       10.0826235207
C             8.5465789522        8.5471610735        8.5474072679
C             9.2738096067        9.2729409854        9.2722348149
C             0.7064197237       10.0672302013       10.0619175260
C             2.2589675078        8.5100454239        8.5089385864
C             1.5429511713        9.2279356865        9.2275404823
C            10.0809566651        0.6937173686       10.0708935223
C             8.5975851707        2.1404405220        8.3778788831
C             9.2754205174        1.4886784615        9.2248552020
C            10.0638794545       10.0660169920        0.7098258461
C             8.5095666368        8.5101097111        2.2587394612
C             9.2278215456        9.2271905666        1.5438179903
C             0.7068235594        0.7074456679        0.7074593872
C             2.2601005495        2.2594412560        2.2601327794
C             1.5434232201        1.5415379228        1.5423532652
O             7.5076133289        3.7035421875        9.1356585959
O             6.2258844094        3.3641015783        9.7757095269
H             6.7783688117        3.2705494197       10.5708842431



     Writing config-only to output data dir ./pwscf.save/
     NEW-OLD atomic charge density approx. for the potential

     Check: negative core charge=   -0.000004

     negative rho (up, down):  1.292E-06 1.292E-06
     Generating pointlists ...
     new r_m :   0.0365 (alat units)  0.7583 (a.u.) for type    2
     new r_m :   0.0365 (alat units)  0.7583 (a.u.) for type    3

     total cpu time spent up to now is       93.6 secs

     Self-consistent Calculation

     iteration #  1     ecut=    50.00 Ry     beta= 0.30
     Davidson diagonalization with overlap
     ethr =  1.00E-06,  avg # of iterations = 12.0

     negative rho (up, down):  1.144E-06 1.144E-06

     total cpu time spent up to now is       98.9 secs

     total energy              =    -965.80034079 Ry
     estimated scf accuracy    <       0.09792784 Ry

     total magnetization       =    -0.00 Bohr mag/cell
     absolute magnetization    =     0.00 Bohr mag/cell

     iteration #  2     ecut=    50.00 Ry     beta= 0.30
     Davidson diagonalization with overlap
     ethr =  4.78E-05,  avg # of iterations =  2.0

     negative rho (up, down):  1.098E-06 1.098E-06

     total cpu time spent up to now is      101.0 secs

     total energy              =    -965.81182100 Ry
     estimated scf accuracy    <       0.02361721 Ry

     total magnetization       =     0.00 Bohr mag/cell
     absolute magnetization    =     0.00 Bohr mag/cell

     iteration #  3     ecut=    50.00 Ry     beta= 0.30
     Davidson diagonalization with overlap
     ethr =  1.15E-05,  avg # of iterations =  2.0

     negative rho (up, down):  1.078E-06 1.078E-06

     total cpu time spent up to now is      103.0 secs

     total energy              =    -965.81259839 Ry
     estimated scf accuracy    <       0.01188880 Ry

     total magnetization       =     0.00 Bohr mag/cell
     absolute magnetization    =     0.00 Bohr mag/cell

     iteration #  4     ecut=    50.00 Ry     beta= 0.30
     Davidson diagonalization with overlap
     ethr =  5.80E-06,  avg # of iterations =  1.0

     negative rho (up, down):  1.044E-06 1.044E-06

     total cpu time spent up to now is      104.9 secs

     total energy              =    -965.81334100 Ry
     estimated scf accuracy    <       0.00538995 Ry

     total magnetization       =    -0.00 Bohr mag/cell
     absolute magnetization    =     0.00 Bohr mag/cell

     iteration #  5     ecut=    50.00 Ry     beta= 0.30
     Davidson diagonalization with overlap
     ethr =  2.63E-06,  avg # of iterations =  1.0

     negative rho (up, down):  1.057E-06 1.057E-06

     total cpu time spent up to now is      106.8 secs

     total energy              =    -965.81376242 Ry
     estimated scf accuracy    <       0.00067947 Ry

     total magnetization       =    -0.00 Bohr mag/cell
     absolute magnetization    =     0.00 Bohr mag/cell

     iteration #  6     ecut=    50.00 Ry     beta= 0.30
     Davidson diagonalization with overlap
     ethr =  3.31E-07,  avg # of iterations =  4.0

     negative rho (up, down):  1.073E-06 1.073E-06

     total cpu time spent up to now is      109.0 secs

     total energy              =    -965.81383575 Ry
     estimated scf accuracy    <       0.00016206 Ry

     total magnetization       =    -0.00 Bohr mag/cell
     absolute magnetization    =     0.00 Bohr mag/cell

     iteration #  7     ecut=    50.00 Ry     beta= 0.30
     Davidson diagonalization with overlap
     ethr =  7.91E-08,  avg # of iterations =  2.0

     negative rho (up, down):  1.086E-06 1.086E-06

     total cpu time spent up to now is      111.0 secs

     total energy              =    -965.81384680 Ry
     estimated scf accuracy    <       0.00003560 Ry

     total magnetization       =     0.00 Bohr mag/cell
     absolute magnetization    =     0.00 Bohr mag/cell

     iteration #  8     ecut=    50.00 Ry     beta= 0.30
     Davidson diagonalization with overlap
     ethr =  1.74E-08,  avg # of iterations =  2.0

     negative rho (up, down):  1.087E-06 1.087E-06

     total cpu time spent up to now is      113.1 secs

     total energy              =    -965.81385030 Ry
     estimated scf accuracy    <       0.00000623 Ry

     total magnetization       =     0.00 Bohr mag/cell
     absolute magnetization    =     0.00 Bohr mag/cell

     iteration #  9     ecut=    50.00 Ry     beta= 0.30
     Davidson diagonalization with overlap
     ethr =  3.04E-09,  avg # of iterations =  4.0

     negative rho (up, down):  1.083E-06 1.083E-06

     total cpu time spent up to now is      115.5 secs

     total energy              =    -965.81385119 Ry
     estimated scf accuracy    <       0.00000141 Ry

     total magnetization       =    -0.00 Bohr mag/cell
     absolute magnetization    =     0.00 Bohr mag/cell

     iteration # 10     ecut=    50.00 Ry     beta= 0.30
     Davidson diagonalization with overlap
     ethr =  6.89E-10,  avg # of iterations =  2.0

     negative rho (up, down):  1.073E-06 1.073E-06

     Magnetic moment per site  (integrated on atomic sphere of radius R)
     atom   1 (R=0.045)  charge=  1.0621  magn= -0.0000
     atom   2 (R=0.045)  charge=  1.1173  magn= -0.0000
     atom   3 (R=0.045)  charge=  1.1369  magn=  0.0000
     atom   4 (R=0.045)  charge=  1.0792  magn=  0.0000
     atom   5 (R=0.045)  charge=  1.1339  magn=  0.0000
     atom   6 (R=0.045)  charge=  1.1353  magn= -0.0000
     atom   7 (R=0.045)  charge=  1.0819  magn=  0.0000
     atom   8 (R=0.045)  charge=  1.1355  magn=  0.0000
     atom   9 (R=0.045)  charge=  1.1368  magn= -0.0000
     atom  10 (R=0.045)  charge=  1.0818  magn=  0.0000
     atom  11 (R=0.045)  charge=  1.1338  magn=  0.0000
     atom  12 (R=0.045)  charge=  1.1357  magn= -0.0000
     atom  13 (R=0.045)  charge=  1.0676  magn= -0.0000
     atom  14 (R=0.045)  charge=  1.1495  magn= -0.0000
     atom  15 (R=0.045)  charge=  1.1392  magn=  0.0000
     atom  16 (R=0.045)  charge=  1.0645  magn= -0.0000
     atom  17 (R=0.045)  charge=  1.1377  magn= -0.0000
     atom  18 (R=0.045)  charge=  1.1247  magn=  0.0000
     atom  19 (R=0.045)  charge=  1.0679  magn= -0.0000
     atom  20 (R=0.045)  charge=  1.1445  magn=  0.0000
     atom  21 (R=0.045)  charge=  1.1315  magn= -0.0000
     atom  22 (R=0.045)  charge=  1.0664  magn= -0.0000
     atom  23 (R=0.045)  charge=  1.1453  magn=  0.0000
     atom  24 (R=0.045)  charge=  1.1306  magn= -0.0000
     atom  25 (R=0.045)  charge=  1.0778  magn=  0.0000
     atom  26 (R=0.045)  charge=  1.1368  magn=  0.0000
     atom  27 (R=0.045)  charge=  1.1353  magn= -0.0000
     atom  28 (R=0.045)  charge=  1.0818  magn=  0.0000
     atom  29 (R=0.045)  charge=  1.1313  magn=  0.0000
     atom  30 (R=0.045)  charge=  1.1328  magn= -0.0000
     atom  31 (R=0.045)  charge=  1.0821  magn= -0.0000
     atom  32 (R=0.045)  charge=  1.1320  magn= -0.0000
     atom  33 (R=0.045)  charge=  1.1321  magn=  0.0000
     atom  34 (R=0.045)  charge=  1.0828  magn= -0.0000
     atom  35 (R=0.045)  charge=  1.1309  magn= -0.0000
     atom  36 (R=0.045)  charge=  1.1326  magn=  0.0000
     atom  37 (R=0.045)  charge=  1.0655  magn= -0.0000
     atom  38 (R=0.045)  charge=  1.1390  magn= -0.0000
     atom  39 (R=0.045)  charge=  1.1251  magn=  0.0000
     atom  40 (R=0.045)  charge=  1.0773  magn=  0.0000
     atom  41 (R=0.045)  charge=  1.1071  magn=  0.0000
     atom  42 (R=0.045)  charge=  1.1265  magn= -0.0000
     atom  43 (R=0.045)  charge=  1.0669  magn= -0.0000
     atom  44 (R=0.045)  charge=  1.1400  magn=  0.0000
     atom  45 (R=0.045)  charge=  1.1265  magn= -0.0000
     atom  46 (R=0.045)  charge=  1.0673  magn= -0.0000
     atom  47 (R=0.045)  charge=  1.1402  magn= -0.0000
     atom  48 (R=0.045)  charge=  1.1251  magn=  0.0000
     atom  49 (R=0.036)  charge=  1.8886  magn=  0.0000
     atom  50 (R=0.036)  charge=  1.8945  magn= -0.0000
     atom  51 (R=0.036)  charge=  0.4042  magn= -0.0000

     total cpu time spent up to now is      117.6 secs

     End of self-consistent calculation

 ------ SPIN UP ------------


          k = 0.0000 0.0000 0.0000 ( 26858 PWs)   bands (ev):

   -24.5856 -21.3621 -21.3541 -19.5150 -17.5397 -17.4973 -17.4148 -17.3249
   -17.2852 -17.1799 -16.9003 -16.8364 -16.8009 -16.7478 -16.3831 -16.1038
   -16.0577 -15.8687 -15.8260 -15.7923 -15.6051 -15.5665 -15.4557 -14.5233
   -14.5101 -14.4482 -14.2008 -14.1945 -14.0752 -13.5965 -13.2070 -12.7935
   -12.7784 -12.7256 -12.1351 -12.0735 -12.0269 -11.9896 -11.4561 -11.0385
   -11.0122 -10.9945 -10.6908 -10.3418  -9.9150  -9.8364  -9.7526  -9.4558
    -9.4349  -9.3991  -9.3829  -9.3732  -9.3452  -9.2457  -8.8919  -8.6690
    -7.0305  -6.9356  -6.8035  -6.7141  -6.5898  -6.5202  -6.4551  -6.3073
    -6.2446  -6.1796  -5.9716  -5.9193  -5.7123  -5.6240  -5.6004  -5.5732
    -5.5141  -5.4669  -5.4524  -5.3572  -5.3320  -5.1693  -4.9752  -4.8815
    -4.8188  -4.7251  -4.5453  -4.4394  -4.3496  -3.7867  -3.7453  -3.7226
    -3.5850  -3.3983  -3.3764  -3.2631  -3.1913  -3.0791  -2.9310  -2.8894
    -2.8624  -2.7802  -2.2473  -2.0038  -1.9396  -1.8892  -1.1836  -0.3764
    -0.3103  -0.1216   0.4712   0.4834   0.6064   1.0354   1.0660   1.0723
     1.1185   1.3197   1.4403   1.6996   2.1626   2.2781   2.3847   2.3929
     2.4487   2.5051   2.5547

 ------ SPIN DOWN ----------


          k = 0.0000 0.0000 0.0000 ( 26858 PWs)   bands (ev):

   -24.5856 -21.3621 -21.3541 -19.5150 -17.5397 -17.4973 -17.4148 -17.3249
   -17.2852 -17.1799 -16.9003 -16.8364 -16.8009 -16.7478 -16.3831 -16.1038
   -16.0577 -15.8687 -15.8260 -15.7923 -15.6051 -15.5665 -15.4557 -14.5233
   -14.5101 -14.4482 -14.2008 -14.1945 -14.0752 -13.5965 -13.2070 -12.7935
   -12.7784 -12.7256 -12.1351 -12.0735 -12.0269 -11.9896 -11.4561 -11.0385
   -11.0122 -10.9945 -10.6908 -10.3418  -9.9150  -9.8364  -9.7526  -9.4558
    -9.4349  -9.3991  -9.3829  -9.3732  -9.3452  -9.2457  -8.8919  -8.6690
    -7.0305  -6.9356  -6.8035  -6.7141  -6.5898  -6.5202  -6.4551  -6.3073
    -6.2446  -6.1796  -5.9716  -5.9193  -5.7123  -5.6240  -5.6004  -5.5732
    -5.5141  -5.4669  -5.4524  -5.3572  -5.3320  -5.1693  -4.9752  -4.8815
    -4.8188  -4.7251  -4.5453  -4.4394  -4.3496  -3.7867  -3.7453  -3.7226
    -3.5850  -3.3983  -3.3764  -3.2631  -3.1913  -3.0791  -2.9310  -2.8894
    -2.8624  -2.7802  -2.2473  -2.0038  -1.9396  -1.8892  -1.1836  -0.3764
    -0.3103  -0.1216   0.4712   0.4834   0.6064   1.0354   1.0660   1.0723
     1.1185   1.3197   1.4403   1.6996   2.1626   2.2781   2.3847   2.3929
     2.4488   2.5051   2.5547

     the spin up/dw Fermi energies are    -1.1836   -1.1836 ev

!    total energy              =    -965.81385140 Ry
     estimated scf accuracy    <       0.00000029 Ry
     smearing contrib. (-TS)   =      -0.00005642 Ry
     internal energy E=F+TS    =    -965.81379498 Ry

     The total energy is F=E-TS. E is the sum of the following terms:
     one-electron contribution =   -1280.52568076 Ry
     hartree contribution      =     689.43985411 Ry
     xc contribution           =    -233.42386913 Ry
     ewald contribution        =     173.81062710 Ry
     one-center paw contrib.   =    -315.11472631 Ry

     total magnetization       =     0.00 Bohr mag/cell
     absolute magnetization    =     0.00 Bohr mag/cell

     convergence has been achieved in  10 iterations

[...]

     total energy              =    -966.04417071 Ry
     estimated scf accuracy    <       0.00057335 Ry

     total magnetization       =    -0.00 Bohr mag/cell
     absolute magnetization    =     0.01 Bohr mag/cell

     iteration #  8     ecut=    50.00 Ry     beta= 0.30
     Davidson diagonalization with overlap
     ethr =  2.80E-07,  avg # of iterations =  4.0

     negative rho (up, down):  1.876E-06 1.875E-06

     total cpu time spent up to now is     2325.6 secs

     total energy              =    -966.04437739 Ry
     estimated scf accuracy    <       0.00012355 Ry

     total magnetization       =    -0.00 Bohr mag/cell
     absolute magnetization    =     0.01 Bohr mag/cell

     iteration #  9     ecut=    50.00 Ry     beta= 0.30
     Davidson diagonalization with overlap
     ethr =  6.03E-08,  avg # of iterations =  2.0

     negative rho (up, down):  1.892E-06 1.891E-06

     total cpu time spent up to now is     2327.9 secs

     total energy              =    -966.04450714 Ry
     estimated scf accuracy    <       0.00002559 Ry

     total magnetization       =     0.00 Bohr mag/cell
     absolute magnetization    =     0.01 Bohr mag/cell

     iteration # 10     ecut=    50.00 Ry     beta= 0.30
     Davidson diagonalization with overlap
     ethr =  1.25E-08,  avg # of iterations =  2.0

     negative rho (up, down):  1.879E-06 1.879E-06

     total cpu time spent up to now is     2330.0 secs

     total energy              =    -966.04453385 Ry
     estimated scf accuracy    <       0.00000303 Ry

     total magnetization       =     0.00 Bohr mag/cell
     absolute magnetization    =     0.00 Bohr mag/cell

     iteration # 11     ecut=    50.00 Ry     beta= 0.30
     Davidson diagonalization with overlap
     ethr =  1.48E-09,  avg # of iterations =  4.0

     negative rho (up, down):  1.870E-06 1.870E-06

     total cpu time spent up to now is     2332.5 secs

     total energy              =    -966.04454312 Ry
     estimated scf accuracy    <       0.00000076 Ry

     total magnetization       =    -0.00 Bohr mag/cell
     absolute magnetization    =     0.00 Bohr mag/cell

     iteration # 12     ecut=    50.00 Ry     beta= 0.30
     Davidson diagonalization with overlap
     ethr =  3.73E-10,  avg # of iterations =  2.0

     negative rho (up, down):  1.869E-06 1.868E-06

     total cpu time spent up to now is     2334.6 secs

     total energy              =    -966.04455038 Ry
     estimated scf accuracy    <       0.00000018 Ry

     total magnetization       =    -0.00 Bohr mag/cell
     absolute magnetization    =     0.00 Bohr mag/cell

     iteration # 13     ecut=    50.00 Ry     beta= 0.30
     Davidson diagonalization with overlap
     ethr =  8.88E-11,  avg # of iterations =  4.0

     negative rho (up, down):  1.867E-06 1.867E-06

     total cpu time spent up to now is     2336.9 secs

     total energy              =    -966.04455360 Ry
     estimated scf accuracy    <       0.00000003 Ry

     total magnetization       =    -0.00 Bohr mag/cell
     absolute magnetization    =     0.00 Bohr mag/cell

     iteration # 14     ecut=    50.00 Ry     beta= 0.30
     Davidson diagonalization with overlap
     ethr =  1.29E-11,  avg # of iterations =  2.5

     negative rho (up, down):  1.862E-06 1.862E-06

     Magnetic moment per site  (integrated on atomic sphere of radius R)
     atom   1 (R=0.045)  charge=  1.1078  magn=  0.0000
     atom   2 (R=0.045)  charge=  1.0969  magn=  0.0000
     atom   3 (R=0.045)  charge=  1.1279  magn= -0.0000
     atom   4 (R=0.045)  charge=  1.0733  magn=  0.0000
     atom   5 (R=0.045)  charge=  1.1409  magn=  0.0000
     atom   6 (R=0.045)  charge=  1.1337  magn= -0.0000
     atom   7 (R=0.045)  charge=  1.0681  magn= -0.0000
     atom   8 (R=0.045)  charge=  1.1420  magn= -0.0000
     atom   9 (R=0.045)  charge=  1.1313  magn=  0.0000
     atom  10 (R=0.045)  charge=  1.0682  magn=  0.0000
     atom  11 (R=0.045)  charge=  1.1415  magn= -0.0000
     atom  12 (R=0.045)  charge=  1.1321  magn=  0.0000
     atom  13 (R=0.045)  charge=  1.1068  magn=  0.0000
     atom  14 (R=0.045)  charge=  1.1420  magn=  0.0000
     atom  15 (R=0.045)  charge=  1.1390  magn= -0.0000
     atom  16 (R=0.045)  charge=  1.0726  magn=  0.0000
     atom  17 (R=0.045)  charge=  1.1407  magn=  0.0000
     atom  18 (R=0.045)  charge=  1.1332  magn= -0.0000
     atom  19 (R=0.045)  charge=  1.0663  magn= -0.0000
     atom  20 (R=0.045)  charge=  1.1426  magn= -0.0000
     atom  21 (R=0.045)  charge=  1.1342  magn=  0.0000
     atom  22 (R=0.045)  charge=  1.0662  magn= -0.0000
     atom  23 (R=0.045)  charge=  1.1421  magn=  0.0000
     atom  24 (R=0.045)  charge=  1.1335  magn=  0.0000
     atom  25 (R=0.045)  charge=  1.0724  magn= -0.0000
     atom  26 (R=0.045)  charge=  1.1404  magn=  0.0000
     atom  27 (R=0.045)  charge=  1.1330  magn= -0.0000
     atom  28 (R=0.045)  charge=  1.0785  magn=  0.0000
     atom  29 (R=0.045)  charge=  1.1462  magn= -0.0000
     atom  30 (R=0.045)  charge=  1.1354  magn=  0.0000
     atom  31 (R=0.045)  charge=  1.0717  magn=  0.0000
     atom  32 (R=0.045)  charge=  1.1420  magn=  0.0000
     atom  33 (R=0.045)  charge=  1.1356  magn= -0.0000
     atom  34 (R=0.045)  charge=  1.0726  magn=  0.0000
     atom  35 (R=0.045)  charge=  1.1410  magn= -0.0000
     atom  36 (R=0.045)  charge=  1.1351  magn=  0.0000
     atom  37 (R=0.045)  charge=  1.0721  magn=  0.0000
     atom  38 (R=0.045)  charge=  1.1413  magn= -0.0000
     atom  39 (R=0.045)  charge=  1.1344  magn= -0.0000
     atom  40 (R=0.045)  charge=  1.0707  magn= -0.0000
     atom  41 (R=0.045)  charge=  1.1344  magn= -0.0000
     atom  42 (R=0.045)  charge=  1.1368  magn=  0.0000
     atom  43 (R=0.045)  charge=  1.0722  magn=  0.0000
     atom  44 (R=0.045)  charge=  1.1396  magn= -0.0000
     atom  45 (R=0.045)  charge=  1.1336  magn=  0.0000
     atom  46 (R=0.045)  charge=  1.0720  magn= -0.0000
     atom  47 (R=0.045)  charge=  1.1409  magn=  0.0000
     atom  48 (R=0.045)  charge=  1.1344  magn= -0.0000
     atom  49 (R=0.036)  charge=  1.8411  magn=  0.0000
     atom  50 (R=0.036)  charge=  1.8461  magn= -0.0000
     atom  51 (R=0.036)  charge=  0.3851  magn=  0.0000

     total cpu time spent up to now is     2339.1 secs

     End of self-consistent calculation

 ------ SPIN UP ------------


          k = 0.0000 0.0000 0.0000 ( 26858 PWs)   bands (ev):

   -24.6960 -21.4757 -20.8521 -19.9523 -18.1903 -17.5377 -17.4024 -17.3973
   -17.0773 -17.0511 -16.9733 -16.8398 -16.7981 -16.7310 -16.5553 -16.2095
   -15.9876 -15.8664 -15.8615 -15.8235 -15.7913 -15.5147 -15.4672 -14.7494
   -14.3982 -14.3929 -14.2825 -14.1757 -13.9954 -13.4633 -13.1699 -12.9019
   -12.8678 -12.6552 -12.2672 -12.0427 -11.9020 -11.8677 -11.4605 -11.1258
   -11.0433 -10.8714 -10.6456 -10.3821 -10.2691 -10.1692  -9.9277  -9.6425
    -9.5813  -9.5280  -9.4225  -9.4188  -9.2417  -8.5211  -8.4798  -8.2833
    -7.3644  -7.0585  -6.9072  -6.7649  -6.7576  -6.6231  -6.4745  -6.4354
    -6.3239  -6.1891  -6.0276  -6.0169  -5.7497  -5.6978  -5.5935  -5.5444
    -5.5325  -5.4732  -5.4528  -5.3782  -5.2700  -5.2602  -5.0327  -5.0096
    -4.6881  -4.5626  -4.4868  -4.3501  -4.2091  -3.9300  -3.7277  -3.6542
    -3.4822  -3.4359  -3.4127  -3.3727  -3.2600  -3.2145  -3.0463  -2.9994
    -2.9670  -2.9361  -2.8417  -2.4803  -2.0958  -2.0495  -1.5052  -0.1564
    -0.0541   0.1454   0.5536   0.5926   0.8220   0.8638   1.1375   1.1975
     1.2504   1.3079   1.3652   1.5152   1.7656   1.9860   2.3290   2.4319
     2.4952   2.5326   2.7831

 ------ SPIN DOWN ----------


          k = 0.0000 0.0000 0.0000 ( 26858 PWs)   bands (ev):

   -24.6960 -21.4757 -20.8521 -19.9523 -18.1903 -17.5377 -17.4024 -17.3973
   -17.0773 -17.0511 -16.9733 -16.8398 -16.7981 -16.7310 -16.5553 -16.2095
   -15.9876 -15.8664 -15.8615 -15.8235 -15.7913 -15.5147 -15.4672 -14.7494
   -14.3982 -14.3929 -14.2825 -14.1757 -13.9954 -13.4633 -13.1699 -12.9019
   -12.8678 -12.6552 -12.2672 -12.0427 -11.9020 -11.8677 -11.4605 -11.1258
   -11.0433 -10.8714 -10.6456 -10.3821 -10.2691 -10.1692  -9.9277  -9.6425
    -9.5813  -9.5280  -9.4225  -9.4188  -9.2417  -8.5211  -8.4798  -8.2833
    -7.3644  -7.0585  -6.9072  -6.7649  -6.7576  -6.6231  -6.4745  -6.4354
    -6.3239  -6.1891  -6.0276  -6.0169  -5.7497  -5.6977  -5.5935  -5.5444
    -5.5325  -5.4733  -5.4528  -5.3782  -5.2700  -5.2602  -5.0327  -5.0096
    -4.6881  -4.5626  -4.4868  -4.3501  -4.2091  -3.9300  -3.7277  -3.6542
    -3.4822  -3.4359  -3.4127  -3.3727  -3.2600  -3.2145  -3.0463  -2.9994
    -2.9670  -2.9361  -2.8417  -2.4804  -2.0958  -2.0495  -1.5052  -0.1564
    -0.0541   0.1454   0.5536   0.5926   0.8220   0.8637   1.1375   1.1975
     1.2504   1.3079   1.3652   1.5152   1.7656   1.9860   2.3290   2.4319
     2.4952   2.5326   2.7831

     the spin up/dw Fermi energies are    -1.5052   -1.5052 ev

!    total energy              =    -966.04455446 Ry
     estimated scf accuracy    <          6.1E-09 Ry
     smearing contrib. (-TS)   =      -0.00005642 Ry
     internal energy E=F+TS    =    -966.04449804 Ry

     The total energy is F=E-TS. E is the sum of the following terms:
     one-electron contribution =   -1271.09363935 Ry
     hartree contribution      =     684.46890732 Ry
     xc contribution           =    -233.50554223 Ry
     ewald contribution        =     169.20171488 Ry
     one-center paw contrib.   =    -315.11593867 Ry

     total magnetization       =     0.00 Bohr mag/cell
     absolute magnetization    =     0.00 Bohr mag/cell

     convergence has been achieved in  14 iterations

     negative rho (up, down):  1.862E-06 1.862E-06

     Forces acting on atoms (cartesian axes, Ry/au):

     atom    1 type  1   force =     0.00056120   -0.00047575   -0.00003278
     atom    2 type  1   force =    -0.00055172    0.00000241   -0.00034982
     atom    3 type  1   force =    -0.00000455    0.00043091    0.00076685
     atom    4 type  1   force =    -0.00005019    0.00019996    0.00004241
     atom    5 type  1   force =    -0.00002469    0.00001042   -0.00022681
     atom    6 type  1   force =    -0.00038210    0.00032809    0.00018319
     atom    7 type  1   force =    -0.00025287    0.00030030   -0.00019180
     atom    8 type  1   force =     0.00021244    0.00017485   -0.00021078
     atom    9 type  1   force =     0.00032793   -0.00034605    0.00062310
     atom   10 type  1   force =    -0.00014911    0.00055003   -0.00003553
     atom   11 type  1   force =     0.00062688    0.00072974    0.00042658
     atom   12 type  1   force =    -0.00011363   -0.00091346   -0.00023426
     atom   13 type  1   force =     0.00005461    0.00022679    0.00079262
     atom   14 type  1   force =    -0.00006295   -0.00014801    0.00012164
     atom   15 type  1   force =     0.00005833   -0.00016310   -0.00004305
     atom   16 type  1   force =    -0.00003203    0.00026042    0.00008986
     atom   17 type  1   force =     0.00053097   -0.00054492    0.00030452
     atom   18 type  1   force =    -0.00078000    0.00087584   -0.00071264
     atom   19 type  1   force =     0.00003574    0.00039471    0.00025211
     atom   20 type  1   force =    -0.00073261   -0.00016821   -0.00007529
     atom   21 type  1   force =    -0.00011675    0.00021807    0.00044565
     atom   22 type  1   force =    -0.00027591   -0.00008377    0.00049334
     atom   23 type  1   force =    -0.00014669    0.00016532    0.00006350
     atom   24 type  1   force =     0.00007048   -0.00012842    0.00046450
     atom   25 type  1   force =     0.00009557   -0.00017706    0.00001945
     atom   26 type  1   force =    -0.00002085   -0.00003531   -0.00055087
     atom   27 type  1   force =     0.00035205   -0.00032835   -0.00031841
     atom   28 type  1   force =     0.00018864   -0.00020440   -0.00056446
     atom   29 type  1   force =     0.00030047   -0.00034116    0.00054561
     atom   30 type  1   force =     0.00008598    0.00021762   -0.00023585
     atom   31 type  1   force =     0.00002544   -0.00025855    0.00020267
     atom   32 type  1   force =     0.00026424    0.00011820   -0.00038376
     atom   33 type  1   force =    -0.00038582    0.00009023    0.00026063
     atom   34 type  1   force =     0.00036288   -0.00003078    0.00022248
     atom   35 type  1   force =     0.00032567    0.00036102    0.00050201
     atom   36 type  1   force =    -0.00056888   -0.00021854   -0.00060775
     atom   37 type  1   force =     0.00010769   -0.00015716   -0.00014275
     atom   38 type  1   force =     0.00017993   -0.00030803   -0.00034258
     atom   39 type  1   force =    -0.00097040    0.00077858   -0.00024331
     atom   40 type  1   force =    -0.00033101    0.00020651   -0.00025633
     atom   41 type  1   force =     0.00015387    0.00011551   -0.00065893
     atom   42 type  1   force =     0.00000123   -0.00053090    0.00017061
     atom   43 type  1   force =     0.00017261   -0.00023398   -0.00003438
     atom   44 type  1   force =     0.00046308   -0.00018563   -0.00008587
     atom   45 type  1   force =    -0.00054336   -0.00004068    0.00010626
     atom   46 type  1   force =     0.00028078   -0.00021385   -0.00009221
     atom   47 type  1   force =     0.00024099   -0.00037934    0.00007463
     atom   48 type  1   force =     0.00011026    0.00033478   -0.00037356
     atom   49 type  2   force =     0.00000173   -0.00013348    0.00039991
     atom   50 type  2   force =     0.00070131   -0.00022083   -0.00033026
     atom   51 type  3   force =    -0.00039688   -0.00012058   -0.00024008

     Total force =     0.004397     Total SCF correction =     0.000101
     Energy error            =      1.5E-05 Ry
     Gradient error          =      9.7E-04 Ry/Bohr

     bfgs converged in  96 scf cycles and  93 bfgs steps
     (criteria: energy <  1.0E-04 Ry, force <  1.0E-03 Ry/Bohr)

     End of BFGS Geometry Optimization

     Final energy             =    -966.0445544614 Ry

     File ./pwscf.bfgs deleted, as requested
Begin final coordinates

ATOMIC_POSITIONS (angstrom)
C             6.1106842777        4.6682202205        6.6841959099
C             7.4592134785        3.3914684298        8.5455512765
C             6.8581478807        3.9089210882        7.4660731098
C             4.5983317138        6.1721189821        6.1198485040
C             3.0679765649        7.7039808513        7.6857191051
C             3.7800284893        6.9891356602        6.9751913753
C             6.2145118275        6.1197954541        4.4476645154
C             7.7714444544        7.7568927502        3.0075099357
C             7.0607086142        7.0430803885        3.7196997705
C             4.6538617079        4.5515370328        4.4517432930
C             3.0152191932        2.9888296419        3.0202893948
C             3.7304293487        3.7008871039        3.7299982396
C             6.0814215880        4.6905946947        3.9709374727
C             7.7121464218        3.0693515986        2.7259712174
C             6.9314952796        3.8458840550        3.3299866177
C             4.5828390822        6.1835321370        4.5312858228
C             3.0454980990        7.7183433332        2.9728212576
C             3.7564614798        7.0066172558        3.6877262226
C             4.6602678573        4.5423879854        6.1809733408
C             3.0227809931        2.9838537304        7.6056367629
C             3.7377533525        3.6989463314        6.8990776246
C             6.2271101961        6.1206391078        6.1799055241
C             7.7872201257        7.7666766889        7.5926755888
C             7.0674042872        7.0500614229        6.8921024096
C             0.7225846543       10.0484236813        0.6176982963
C             2.2554954105        8.5099588567        2.1758476800
C             1.5486148237        9.2190878235        1.4539090772
C            10.1169705169        0.6543362826        0.6356840055
C             8.5361157257        2.2427968688        2.0620710279
C             9.2915690104        1.4816279902        1.4303469136
C             0.7237622436        0.6732015364        9.9920484990
C             2.2372536456        2.1988243910        8.4093549013
C             1.5429056988        1.4921933474        9.1450342620
C            10.1011766108       10.0556312325        9.9865001074
C             8.5758884469        8.5493307597        8.3956342148
C             9.2827643338        9.2395271060        9.1357317227
C             0.7212204999       10.0558319251        9.9922862850
C             2.2732029293        8.5025081149        8.4691545287
C             1.5560517916        9.2222715687        9.1691657046
C            10.1068664510        0.6701536697        9.9917123256
C             8.4366417443        2.3557352298        8.7772074757
C             9.2299246183        1.5559417141        9.2727455465
C            10.1028724364       10.0413186803        0.6186785458
C             8.5617585352        8.5385806038        2.2011497614
C             9.2781431746        9.2259183093        1.4668353576
C             0.7317851210        0.6658371749        0.6245220117
C             2.2324189597        2.2002444254        2.2142017272
C             1.5443632538        1.4861567477        1.4788361300
O             7.0844013562        4.0662070759        9.7214646282
O             6.3685685592        3.1128634322       10.6026910451
H             7.0517231352        2.9697355079       11.2939039275
End final coordinates



     Writing all to output data dir ./pwscf.save/

     init_run     :      2.76s CPU      2.91s WALL (       1 calls)
     electrons    :   1844.68s CPU   1926.02s WALL (      97 calls)
     update_pot   :    163.46s CPU    164.96s WALL (      95 calls)
     forces       :    160.34s CPU    166.91s WALL (      97 calls)

     Called by init_run:
     wfcinit      :      0.67s CPU      0.71s WALL (       1 calls)
     potinit      :      2.21s CPU      2.26s WALL (       2 calls)
     hinit0       :      0.69s CPU      0.71s WALL (       1 calls)

     Called by electrons:
     c_bands      :   1009.92s CPU   1039.52s WALL (     858 calls)
     sum_band     :    271.69s CPU    280.20s WALL (     858 calls)
     v_of_rho     :    210.63s CPU    217.14s WALL (     932 calls)
     newd         :    105.20s CPU    107.35s WALL (     932 calls)
     PAW_pot      :    292.01s CPU    293.42s WALL (    1027 calls)
     mix_rho      :     22.45s CPU     24.08s WALL (     858 calls)

     Called by c_bands:
     init_us_2    :     18.48s CPU     18.86s WALL (    3818 calls)
     init_us_2:cp :     18.45s CPU     18.86s WALL (    3818 calls)
     regterg      :    982.72s CPU   1011.57s WALL (    1716 calls)

     Called by *egterg:
     rdiaghg      :     61.72s CPU     62.01s WALL (    6014 calls)
     h_psi        :    554.89s CPU    580.59s WALL (    6254 calls)
     s_psi        :     93.97s CPU     94.48s WALL (    6254 calls)
     g_psi        :      1.84s CPU      1.86s WALL (    4536 calls)

     Called by h_psi:
     h_psi:calbec :     98.37s CPU     99.90s WALL (    6254 calls)
     vloc_psi     :    353.03s CPU    376.58s WALL (    6254 calls)
     add_vuspsi   :     97.36s CPU     97.93s WALL (    6254 calls)

     General routines
     calbec       :    157.54s CPU    159.91s WALL (    8936 calls)
     fft          :     90.86s CPU    101.52s WALL (   20487 calls)
     ffts         :      4.09s CPU      4.71s WALL (    3580 calls)
     fftw         :    363.84s CPU    388.46s WALL (  622402 calls)
     interpolate  :     11.94s CPU     13.31s WALL (    1864 calls)

     Parallel routines

     PWSCF        :  37m18.78s CPU  39m 3.52s WALL


   This run was terminated on:  22:32: 9  24May2025            

=------------------------------------------------------------------------------=
   JOB DONE.
=------------------------------------------------------------------------------=
