
     Program PWSCF v.7.1 starts on 25May2025 at 16: 6:33 

     This program is part of the open-source Quantum ESPRESSO suite
     for quantum simulation of materials; please cite
         "P. Giannozzi et al., J. Phys.:Condens. Matter 21 395502 (2009);
         "P. Giannozzi et al., J. Phys.:Condens. Matter 29 465901 (2017);
         "P. Giannozzi et al., J. Chem. Phys. 152 154105 (2020);
          URL http://www.quantum-espresso.org", 
     in publications or presentations arising from this work. More details at
     http://www.quantum-espresso.org/quote

     Parallel version (MPI), running on    16 processors

     MPI processes distributed on     1 nodes
     245033 MiB available memory on the printing compute node when the environment starts

     Reading input from input.pwi
Warning: card &CELL ignored
Warning: card / ignored
Warning: card &FCP ignored
Warning: card / ignored
Warning: card &RISM ignored
Warning: card / ignored

     Current dimensions of program PWSCF are:
     Max number of different atomic species (ntypx) = 10
     Max number of k-points (npk) =  40000
     Max angular momentum in pseudopotentials (lmaxx) =  4
     file C.pbe-n-kjpaw_psl.1.0.0.UPF: wavefunction(s)  2S 2P renormalized
     file O.pbe-n-kjpaw_psl.0.1.UPF: wavefunction(s)  2P renormalized

     IMPORTANT: XC functional enforced from input :
     Exchange-correlation= PBE
                           (   1   4   3   4   0   0   0)
     Any further DFT definition will be discarded
     Please, verify this is what you really want


     gamma-point specific algorithms are used
     Message from routine  set_nelup_neldw :
     BEWARE: non-integer number of up and down electrons!

     K-points division:     npool     =       2
     R & G space division:  proc/nbgrp/npool/nimage =       8
     Subspace diagonalization in iterative solution of the eigenvalue problem:
     a serial algorithm will be used


     Parallelization info
     --------------------
     sticks:   dense  smooth     PW     G-vecs:    dense   smooth      PW
     Min        8285    4142   1034               164313    58201    7273
     Max        8290    4146   1038               164314    58204    7274
     Sum       66295   33157   8285              1314511   465617   58191

     Using Slab Decomposition



     bravais-lattice index     =            0
     lattice parameter (alat)  =      61.9981  a.u.
     unit-cell volume          =    9734.9165 (a.u.)^3
     number of atoms/cell      =           58
     number of atomic types    =            3
     number of electrons       =       231.00 (up: 115.50, down: 115.50)
     number of Kohn-Sham states=          139
     kinetic-energy cutoff     =      50.0000  Ry
     charge density cutoff     =     400.0000  Ry
     scf convergence threshold =      1.0E-06
     mixing beta               =       0.3000
     number of iterations used =            8  plain     mixing
     energy convergence thresh.=      1.0E-04
     force convergence thresh. =      1.0E-03
     Exchange-correlation= PBE
                           (   1   4   3   4   0   0   0)
     nstep                     =         1000


     celldm(1)=  61.998135  celldm(2)=   0.000000  celldm(3)=   0.000000
     celldm(4)=   0.000000  celldm(5)=   0.000000  celldm(6)=   0.000000

     crystal axes: (cart. coord. in units of alat)
               a(1) = (   1.000000   0.000000   0.000000 )  
               a(2) = (   0.000000   0.541941   0.000000 )  
               a(3) = (   0.000000   0.000000   0.075378 )  

     reciprocal axes: (cart. coord. in units 2 pi/alat)
               b(1) = (  1.000000  0.000000  0.000000 )  
               b(2) = (  0.000000  1.845219  0.000000 )  
               b(3) = (  0.000000  0.000000 13.266478 )  


     PseudoPot. # 1 for C  read from file:
     /home/ana.bisette/espresso/pseudo/C.pbe-n-kjpaw_psl.1.0.0.UPF
     MD5 check sum: 5d2aebdfa2cae82b50a7e79e9516da0f
     Pseudo is Projector augmented-wave + core cor, Zval =  4.0
     Generated using "atomic" code by A. Dal Corso  v.5.1
     Shape of augmentation charge: PSQ
     Using radial grid of 1073 points,  4 beta functions with: 
                l(1) =   0
                l(2) =   0
                l(3) =   1
                l(4) =   1
     Q(r) pseudized with 0 coefficients 


     PseudoPot. # 2 for O  read from file:
     /home/ana.bisette/espresso/pseudo/O.pbe-n-kjpaw_psl.0.1.UPF
     MD5 check sum: 0234752ac141de4415c5fc33072bef88
     Pseudo is Projector augmented-wave + core cor, Zval =  6.0
     Generated using "atomic" code by A. Dal Corso  v.5.0.99 svn rev. 10869
     Shape of augmentation charge: BESSEL
     Using radial grid of 1095 points,  4 beta functions with: 
                l(1) =   0
                l(2) =   0
                l(3) =   1
                l(4) =   1
     Q(r) pseudized with 0 coefficients 


     PseudoPot. # 3 for H  read from file:
     /home/ana.bisette/espresso/pseudo/H.pbe-rrkjus_psl.1.0.0.UPF
     MD5 check sum: f52b6d4d1c606e5624b1dc7b2218f220
     Pseudo is Ultrasoft, Zval =  1.0
     Generated using "atomic" code by A. Dal Corso  v.5.1
     Using radial grid of  929 points,  2 beta functions with: 
                l(1) =   0
                l(2) =   0
     Q(r) pseudized with 0 coefficients 


     atomic species   valence    mass     pseudopotential
        C              4.00    12.01100     C ( 1.00)
        O              6.00    15.99900     O ( 1.00)
        H              1.00     1.00800     H ( 1.00)

     Starting magnetic structure 
     atomic species   magnetization
        C            0.000
        O            0.000
        H            0.000

     No symmetry found



   Cartesian axes

     site n.     atom                  positions (alat units)
         1           C   tau(   1) = (   0.1881553  -0.0116435   0.0751036  )
         2           C   tau(   2) = (   0.8343392  -0.0116435   0.0751036  )
         3           C   tau(   3) = (   0.6881553   0.2593270   0.0751036  )
         4           C   tau(   4) = (   0.3343087   0.2593270   0.0751036  )
         5           C   tau(   5) = (   0.1637101  -0.0116435   0.0374299  )
         6           C   tau(   6) = (   0.8587844  -0.0116435   0.0374299  )
         7           C   tau(   7) = (   0.6637101   0.2593270   0.0374299  )
         8           C   tau(   8) = (   0.3587844   0.2593270   0.0374299  )
         9           C   tau(   9) = (   0.1210985   0.5302975   0.0374299  )
        10           C   tau(  10) = (   0.9013655  -0.0116435   0.0374299  )
        11           C   tau(  11) = (   0.6210985   0.2593270   0.0374299  )
        12           C   tau(  12) = (   0.4013655   0.2593270   0.0374299  )
        13           C   tau(  13) = (   0.2146733   0.0258778   0.0751036  )
        14           C   tau(  14) = (   0.8077908   0.4927762   0.0751036  )
        15           C   tau(  15) = (   0.8077908   0.0258778   0.0751036  )
        16           C   tau(  16) = (   0.2146733   0.4927762   0.0751036  )
        17           C   tau(  17) = (   0.7146733   0.2968483   0.0751036  )
        18           C   tau(  18) = (   0.3077908   0.2218057   0.0751036  )
        19           C   tau(  19) = (   0.3077908   0.2968483   0.0751036  )
        20           C   tau(  20) = (   0.7146733   0.2218057   0.0751036  )
        21           C   tau(  21) = (   0.2532309   0.1033894   0.0751036  )
        22           C   tau(  22) = (   0.7692331   0.4152646   0.0751036  )
        23           C   tau(  23) = (   0.7692331   0.1033894   0.0751036  )
        24           C   tau(  24) = (   0.2532309   0.4152646   0.0751036  )
        25           C   tau(  25) = (   0.7532309   0.3743599   0.0751036  )
        26           C   tau(  26) = (   0.2692331   0.1442941   0.0751036  )
        27           C   tau(  27) = (   0.2692331   0.3743599   0.0751036  )
        28           C   tau(  28) = (   0.7532309   0.1442941   0.0751036  )
        29           C   tau(  29) = (   0.2254633   0.0436479   0.0374299  )
        30           C   tau(  30) = (   0.7970312   0.4750061   0.0374299  )
        31           C   tau(  31) = (   0.7970312   0.0436479   0.0374299  )
        32           C   tau(  32) = (   0.2254633   0.4750061   0.0374299  )
        33           C   tau(  33) = (   0.7254633   0.3146184   0.0374299  )
        34           C   tau(  34) = (   0.2970312   0.2040356   0.0374299  )
        35           C   tau(  35) = (   0.2970312   0.3146184   0.0374299  )
        36           C   tau(  36) = (   0.7254633   0.2040356   0.0374299  )
        37           C   tau(  37) = (   0.2449098   0.0833029   0.0374299  )
        38           C   tau(  38) = (   0.7775847   0.4353511   0.0374299  )
        39           C   tau(  39) = (   0.7775847   0.0833029   0.0374299  )
        40           C   tau(  40) = (   0.2449098   0.4353511   0.0374299  )
        41           C   tau(  41) = (   0.7449098   0.3542733   0.0374299  )
        42           C   tau(  42) = (   0.2775543   0.1643806   0.0374299  )
        43           C   tau(  43) = (   0.2775543   0.3542733   0.0374299  )
        44           C   tau(  44) = (   0.7449098   0.1643806   0.0374299  )
        45           C   tau(  45) = (   0.0986345   0.5302975   0.0751036  )
        46           C   tau(  46) = (   0.9238600   0.5302975   0.0751036  )
        47           C   tau(  47) = (   0.5986345   0.2593270   0.0751036  )
        48           C   tau(  48) = (   0.4238600   0.2593270   0.0751036  )
        49           C   tau(  49) = (   0.0551695   0.5302975   0.0751036  )
        50           C   tau(  50) = (   0.9672946   0.5302975   0.0751036  )
        51           C   tau(  51) = (   0.5551695   0.2593270   0.0751036  )
        52           C   tau(  52) = (   0.4672946   0.2593270   0.0751036  )
        53           C   tau(  53) = (   0.0330102   0.5302975   0.0374299  )
        54           C   tau(  54) = (   0.9894538   0.5302975   0.0374299  )
        55           C   tau(  55) = (   0.5330102   0.2593270   0.0374299  )
        56           C   tau(  56) = (   0.4894538   0.2593270   0.0374299  )
        57           O   tau(  57) = (   0.0551695   0.5714460   0.0751036  )
        58           H   tau(  58) = (   0.0551695   0.6011948   0.0751036  )

     number of k points=     1  Gaussian smearing, width (Ry)=  0.0001
                       cart. coord. in units 2pi/alat
        k(    1) = (   0.0000000   0.0000000   0.0000000), wk =   1.0000000

     Dense  grid:   657256 G-vectors     FFT dimensions: ( 400, 216,  30)

     Smooth grid:   232809 G-vectors     FFT dimensions: ( 288, 160,  24)

     Estimated max dynamical RAM per process >     267.57 MB

     Estimated total dynamical RAM >       3.87 GB

     Check: negative core charge=   -0.000003
     Generating pointlists ...
     new r_m :   0.0170 (alat units)  1.0523 (a.u.) for type    1
     new r_m :   0.0123 (alat units)  0.7608 (a.u.) for type    2
     new r_m :   0.0123 (alat units)  0.7608 (a.u.) for type    3

     Initial potential from superposition of free atoms

     starting charge     230.9977, renormalised to     231.0000

     negative rho (up, down):  4.372E-04 4.372E-04
     Starting wfcs are  229 randomized atomic wfcs
     Checking if some PAW data can be deallocated... 

     total cpu time spent up to now is        6.2 secs

     Self-consistent Calculation

     iteration #  1     ecut=    50.00 Ry     beta= 0.30
     Davidson diagonalization with overlap
     ethr =  1.00E-02,  avg # of iterations =  2.0

     negative rho (up, down):  4.310E-04 4.310E-04

     total cpu time spent up to now is       10.1 secs

     total energy              =   -1070.87615205 Ry
     estimated scf accuracy    <       6.74445800 Ry

     total magnetization       =     0.00 Bohr mag/cell
     absolute magnetization    =     0.04 Bohr mag/cell

     iteration #  2     ecut=    50.00 Ry     beta= 0.30
     Davidson diagonalization with overlap
     ethr =  2.92E-03,  avg # of iterations =  2.0

     negative rho (up, down):  4.546E-04 4.546E-04

     total cpu time spent up to now is       13.4 secs

     total energy              =   -1069.65213769 Ry
     estimated scf accuracy    <       3.96459114 Ry

     total magnetization       =     0.00 Bohr mag/cell
     absolute magnetization    =     0.04 Bohr mag/cell

     iteration #  3     ecut=    50.00 Ry     beta= 0.30
     Davidson diagonalization with overlap
     ethr =  1.72E-03,  avg # of iterations = 10.0

     negative rho (up, down):  4.342E-04 4.335E-04

     total cpu time spent up to now is       17.5 secs

     total energy              =   -1067.04109928 Ry
     estimated scf accuracy    <      76.38313504 Ry

     total magnetization       =     0.00 Bohr mag/cell
     absolute magnetization    =     0.03 Bohr mag/cell

     iteration #  4     ecut=    50.00 Ry     beta= 0.30
     Davidson diagonalization with overlap
     ethr =  1.72E-03,  avg # of iterations =  9.0

     negative rho (up, down):  4.494E-04 4.487E-04

     total cpu time spent up to now is       21.4 secs

     total energy              =   -1069.67073377 Ry
     estimated scf accuracy    <       6.56409447 Ry

     total magnetization       =     0.00 Bohr mag/cell
     absolute magnetization    =     0.03 Bohr mag/cell

     iteration #  5     ecut=    50.00 Ry     beta= 0.30
     Davidson diagonalization with overlap
     ethr =  1.72E-03,  avg # of iterations =  6.5

     negative rho (up, down):  4.456E-04 4.448E-04

     total cpu time spent up to now is       24.9 secs

     total energy              =   -1070.02311711 Ry
     estimated scf accuracy    <       1.33261366 Ry

     total magnetization       =    -0.00 Bohr mag/cell
     absolute magnetization    =     0.02 Bohr mag/cell

     iteration #  6     ecut=    50.00 Ry     beta= 0.30
     Davidson diagonalization with overlap
     ethr =  5.77E-04,  avg # of iterations =  7.0

     negative rho (up, down):  4.521E-04 4.503E-04

     total cpu time spent up to now is       28.6 secs

     total energy              =   -1070.06898735 Ry
     estimated scf accuracy    <       2.60087310 Ry

     total magnetization       =     0.00 Bohr mag/cell
     absolute magnetization    =     0.02 Bohr mag/cell

     iteration #  7     ecut=    50.00 Ry     beta= 0.30
     Davidson diagonalization with overlap
     ethr =  5.77E-04,  avg # of iterations =  2.0

     negative rho (up, down):  4.577E-04 4.559E-04

     total cpu time spent up to now is       31.8 secs

     total energy              =   -1070.12120396 Ry
     estimated scf accuracy    <       0.55909342 Ry

     total magnetization       =    -0.00 Bohr mag/cell
     absolute magnetization    =     0.02 Bohr mag/cell

     iteration #  8     ecut=    50.00 Ry     beta= 0.30
     Davidson diagonalization with overlap
     ethr =  2.42E-04,  avg # of iterations =  1.5

     negative rho (up, down):  4.709E-04 4.693E-04

     total cpu time spent up to now is       34.8 secs

     total energy              =   -1070.12971849 Ry
     estimated scf accuracy    <       0.07529816 Ry

     total magnetization       =     0.00 Bohr mag/cell
     absolute magnetization    =     0.02 Bohr mag/cell

     iteration #  9     ecut=    50.00 Ry     beta= 0.30
     Davidson diagonalization with overlap
     ethr =  3.26E-05,  avg # of iterations = 10.5

     negative rho (up, down):  5.039E-04 5.029E-04

     total cpu time spent up to now is       38.5 secs

     total energy              =   -1070.13010143 Ry
     estimated scf accuracy    <       0.09718398 Ry

     total magnetization       =     0.00 Bohr mag/cell
     absolute magnetization    =     0.01 Bohr mag/cell

     iteration # 10     ecut=    50.00 Ry     beta= 0.30
     Davidson diagonalization with overlap
     ethr =  3.26E-05,  avg # of iterations =  1.5

     negative rho (up, down):  5.316E-04 5.311E-04

     total cpu time spent up to now is       41.7 secs

     total energy              =   -1070.13430812 Ry
     estimated scf accuracy    <       0.02253417 Ry

     total magnetization       =     0.00 Bohr mag/cell
     absolute magnetization    =     0.01 Bohr mag/cell

     iteration # 11     ecut=    50.00 Ry     beta= 0.30
     Davidson diagonalization with overlap
     ethr =  9.76E-06,  avg # of iterations =  4.0

     negative rho (up, down):  5.568E-04 5.569E-04

     total cpu time spent up to now is       45.1 secs

     total energy              =   -1070.13497341 Ry
     estimated scf accuracy    <       0.01572425 Ry

     total magnetization       =     0.00 Bohr mag/cell
     absolute magnetization    =     0.01 Bohr mag/cell

     iteration # 12     ecut=    50.00 Ry     beta= 0.30
     Davidson diagonalization with overlap
     ethr =  6.81E-06,  avg # of iterations =  5.0

     negative rho (up, down):  5.455E-04 5.455E-04

     total cpu time spent up to now is       48.5 secs

     total energy              =   -1070.13559399 Ry
     estimated scf accuracy    <       0.00656826 Ry

     total magnetization       =    -0.00 Bohr mag/cell
     absolute magnetization    =     0.01 Bohr mag/cell

     iteration # 13     ecut=    50.00 Ry     beta= 0.30
     Davidson diagonalization with overlap
     ethr =  2.84E-06,  avg # of iterations = 16.5

     negative rho (up, down):  5.433E-04 5.433E-04

     total cpu time spent up to now is       52.7 secs

     total energy              =   -1070.13578373 Ry
     estimated scf accuracy    <       0.00089062 Ry

     total magnetization       =     0.00 Bohr mag/cell
     absolute magnetization    =     0.01 Bohr mag/cell

     iteration # 14     ecut=    50.00 Ry     beta= 0.30
     Davidson diagonalization with overlap
     ethr =  3.86E-07,  avg # of iterations =  2.0

     negative rho (up, down):  5.402E-04 5.402E-04

     total cpu time spent up to now is       56.0 secs

     total energy              =   -1070.13581242 Ry
     estimated scf accuracy    <       0.00031945 Ry

     total magnetization       =     0.00 Bohr mag/cell
     absolute magnetization    =     0.01 Bohr mag/cell

     iteration # 15     ecut=    50.00 Ry     beta= 0.30
     Davidson diagonalization with overlap
     ethr =  1.38E-07,  avg # of iterations =  2.0

     negative rho (up, down):  5.388E-04 5.388E-04

     total cpu time spent up to now is       59.2 secs

     total energy              =   -1070.13582318 Ry
     estimated scf accuracy    <       0.00018989 Ry

     total magnetization       =    -0.00 Bohr mag/cell
     absolute magnetization    =     0.01 Bohr mag/cell

     iteration # 16     ecut=    50.00 Ry     beta= 0.30
     Davidson diagonalization with overlap
     ethr =  8.22E-08,  avg # of iterations =  1.0

     negative rho (up, down):  5.368E-04 5.368E-04

     total cpu time spent up to now is       62.4 secs

     total energy              =   -1070.13582726 Ry
     estimated scf accuracy    <       0.00000284 Ry

     total magnetization       =    -0.00 Bohr mag/cell
     absolute magnetization    =     0.01 Bohr mag/cell

     iteration # 17     ecut=    50.00 Ry     beta= 0.30
     Davidson diagonalization with overlap
     ethr =  1.23E-09,  avg # of iterations =  5.0

     negative rho (up, down):  5.356E-04 5.356E-04

     Magnetic moment per site  (integrated on atomic sphere of radius R)
     atom   1 (R=0.017)  charge=  1.5365  magn= -0.0000
     atom   2 (R=0.017)  charge=  1.5370  magn=  0.0000
     atom   3 (R=0.017)  charge=  1.5373  magn= -0.0000
     atom   4 (R=0.017)  charge=  1.5370  magn=  0.0000
     atom   5 (R=0.017)  charge=  1.5183  magn=  0.0001
     atom   6 (R=0.017)  charge=  1.5178  magn= -0.0000
     atom   7 (R=0.017)  charge=  1.5175  magn= -0.0006
     atom   8 (R=0.017)  charge=  1.5179  magn=  0.0006
     atom   9 (R=0.017)  charge=  1.5153  magn= -0.0000
     atom  10 (R=0.017)  charge=  1.5147  magn= -0.0000
     atom  11 (R=0.017)  charge=  1.5148  magn=  0.0001
     atom  12 (R=0.017)  charge=  1.5147  magn= -0.0000
     atom  13 (R=0.017)  charge=  1.5026  magn=  0.0000
     atom  14 (R=0.017)  charge=  1.5026  magn= -0.0000
     atom  15 (R=0.017)  charge=  1.5023  magn=  0.0000
     atom  16 (R=0.017)  charge=  1.5031  magn=  0.0000
     atom  17 (R=0.017)  charge=  1.5022  magn= -0.0002
     atom  18 (R=0.017)  charge=  1.5027  magn=  0.0002
     atom  19 (R=0.017)  charge=  1.5024  magn=  0.0002
     atom  20 (R=0.017)  charge=  1.5025  magn= -0.0002
     atom  21 (R=0.017)  charge=  1.5108  magn= -0.0000
     atom  22 (R=0.017)  charge=  1.5114  magn=  0.0000
     atom  23 (R=0.017)  charge=  1.5108  magn= -0.0000
     atom  24 (R=0.017)  charge=  1.5114  magn=  0.0000
     atom  25 (R=0.017)  charge=  1.5106  magn=  0.0000
     atom  26 (R=0.017)  charge=  1.5115  magn=  0.0000
     atom  27 (R=0.017)  charge=  1.5107  magn=  0.0000
     atom  28 (R=0.017)  charge=  1.5113  magn= -0.0000
     atom  29 (R=0.017)  charge=  1.5207  magn= -0.0000
     atom  30 (R=0.017)  charge=  1.5206  magn=  0.0000
     atom  31 (R=0.017)  charge=  1.5210  magn= -0.0000
     atom  32 (R=0.017)  charge=  1.5203  magn=  0.0000
     atom  33 (R=0.017)  charge=  1.5205  magn= -0.0000
     atom  34 (R=0.017)  charge=  1.5204  magn=  0.0000
     atom  35 (R=0.017)  charge=  1.5207  magn=  0.0000
     atom  36 (R=0.017)  charge=  1.5203  magn= -0.0000
     atom  37 (R=0.017)  charge=  1.5069  magn=  0.0000
     atom  38 (R=0.017)  charge=  1.5080  magn= -0.0000
     atom  39 (R=0.017)  charge=  1.5066  magn=  0.0000
     atom  40 (R=0.017)  charge=  1.5082  magn= -0.0000
     atom  41 (R=0.017)  charge=  1.5069  magn= -0.0000
     atom  42 (R=0.017)  charge=  1.5080  magn=  0.0000
     atom  43 (R=0.017)  charge=  1.5067  magn=  0.0000
     atom  44 (R=0.017)  charge=  1.5083  magn= -0.0000
     atom  45 (R=0.017)  charge=  1.5139  magn=  0.0000
     atom  46 (R=0.017)  charge=  1.5080  magn= -0.0000
     atom  47 (R=0.017)  charge=  1.5088  magn= -0.0003
     atom  48 (R=0.017)  charge=  1.5090  magn=  0.0002
     atom  49 (R=0.017)  charge=  1.5521  magn=  0.0000
     atom  50 (R=0.017)  charge=  1.5098  magn= -0.0000
     atom  51 (R=0.017)  charge=  1.5087  magn=  0.0001
     atom  52 (R=0.017)  charge=  1.5091  magn= -0.0001
     atom  53 (R=0.017)  charge=  1.5391  magn= -0.0000
     atom  54 (R=0.017)  charge=  1.5075  magn=  0.0000
     atom  55 (R=0.017)  charge=  1.5094  magn= -0.0001
     atom  56 (R=0.017)  charge=  1.5096  magn=  0.0001
     atom  57 (R=0.012)  charge=  2.0145  magn= -0.0000
     atom  58 (R=0.012)  charge=  0.3634  magn= -0.0000

     total cpu time spent up to now is       66.0 secs

     End of self-consistent calculation

 ------ SPIN UP ------------


          k = 0.0000 0.0000 0.0000 ( 29096 PWs)   bands (ev):

   -23.9405 -20.4030 -20.3617 -20.3423 -20.2482 -19.6229 -19.5555 -19.2947
   -19.2371 -18.9603 -18.8761 -18.8095 -18.7001 -18.5262 -18.3003 -18.0462
   -17.7093 -17.5321 -17.4989 -17.4646 -17.0702 -16.6970 -16.0773 -16.0383
   -15.7415 -15.6734 -15.2850 -15.0098 -14.3938 -13.7394 -13.0147 -12.7948
   -12.7720 -12.7261 -11.9023 -11.6561 -10.9365 -10.6535 -10.5855 -10.4870
   -10.1374  -9.2212  -9.1330  -8.6412  -8.5751  -8.2514  -7.9558  -7.8003
    -7.7347  -7.7302  -7.5696  -7.4681  -7.2015  -7.1622  -7.1599  -6.9117
    -6.8819  -6.8329  -6.7423  -6.6995  -6.6969  -6.6385  -6.5772  -6.5741
    -6.5515  -6.5113  -6.4859  -6.2565  -6.1831  -6.1611  -6.0730  -6.0454
    -6.0065  -5.9155  -5.8641  -5.8495  -5.6662  -5.4447  -5.3376  -5.2085
    -5.2042  -5.0720  -5.0413  -5.0039  -4.9281  -4.8748  -4.6643  -4.5263
    -4.5004  -4.4710  -4.4481  -4.3758  -4.2954  -4.2323  -4.1376  -4.1356
    -4.0087  -3.9608  -3.9272  -3.8583  -3.6564  -3.5986  -3.4242  -3.3062
    -3.2913  -3.1640  -3.1429  -3.1231  -3.0662  -2.9418  -2.8339  -2.7524
    -0.7295  -0.5257  -0.4228   0.0479   0.1309   0.6152   1.9068   1.9743
     2.1809   2.6418   2.7377   2.7886   2.8329   3.2316   3.2964   3.3483
     3.3764   3.4473   3.5519   3.5657   3.6037   3.8746   3.9166   3.9702
     4.0131   4.0789   4.1377

 ------ SPIN DOWN ----------


          k = 0.0000 0.0000 0.0000 ( 29096 PWs)   bands (ev):

   -23.9406 -20.4028 -20.3621 -20.3420 -20.2483 -19.6229 -19.5556 -19.2946
   -19.2372 -18.9603 -18.8760 -18.8096 -18.7002 -18.5261 -18.3002 -18.0462
   -17.7093 -17.5320 -17.4990 -17.4647 -17.0702 -16.6970 -16.0773 -16.0383
   -15.7414 -15.6735 -15.2850 -15.0098 -14.3939 -13.7394 -13.0147 -12.7946
   -12.7720 -12.7262 -11.9022 -11.6562 -10.9365 -10.6532 -10.5858 -10.4870
   -10.1374  -9.2212  -9.1330  -8.6408  -8.5755  -8.2514  -7.9558  -7.8002
    -7.7348  -7.7302  -7.5696  -7.4681  -7.2015  -7.1622  -7.1599  -6.9117
    -6.8818  -6.8330  -6.7422  -6.6995  -6.6969  -6.6386  -6.5772  -6.5741
    -6.5515  -6.5113  -6.4859  -6.2565  -6.1831  -6.1611  -6.0729  -6.0454
    -6.0065  -5.9155  -5.8641  -5.8495  -5.6662  -5.4447  -5.3376  -5.2085
    -5.2042  -5.0719  -5.0412  -5.0039  -4.9281  -4.8748  -4.6643  -4.5262
    -4.5004  -4.4710  -4.4480  -4.3758  -4.2954  -4.2323  -4.1376  -4.1356
    -4.0087  -3.9608  -3.9272  -3.8583  -3.6564  -3.5986  -3.4241  -3.3061
    -3.2912  -3.1640  -3.1429  -3.1231  -3.0663  -2.9418  -2.8340  -2.7524
    -0.7297  -0.5257  -0.4228   0.0482   0.1307   0.6151   1.9069   1.9742
     2.1808   2.6419   2.7377   2.7887   2.8329   3.2317   3.2965   3.3483
     3.3765   3.4474   3.5519   3.5656   3.6037   3.8746   3.9166   3.9702
     4.0131   4.0789   4.1375

     the spin up/dw Fermi energies are     0.0479    0.0482 ev

!    total energy              =   -1070.13582790 Ry
     estimated scf accuracy    <       0.00000058 Ry
     smearing contrib. (-TS)   =      -0.00005642 Ry
     internal energy E=F+TS    =   -1070.13577148 Ry

     The total energy is F=E-TS. E is the sum of the following terms:
     one-electron contribution =   -4214.82570402 Ry
     hartree contribution      =    2169.61863782 Ry
     xc contribution           =    -269.18275781 Ry
     ewald contribution        =    1598.35022804 Ry
     one-center paw contrib.   =    -354.09617551 Ry

     total magnetization       =     0.00 Bohr mag/cell
     absolute magnetization    =     0.01 Bohr mag/cell

     convergence has been achieved in  17 iterations

     negative rho (up, down):  5.356E-04 5.356E-04

     Forces acting on atoms (cartesian axes, Ry/au):

     atom    1 type  1   force =    -0.12572609   -0.00315988    0.00112469
     atom    2 type  1   force =     0.12238166    0.00080747    0.00112371
     atom    3 type  1   force =    -0.12638344    0.00000832    0.00112363
     atom    4 type  1   force =     0.12628920   -0.00004381    0.00111944
     atom    5 type  1   force =     0.04011833    0.00879165   -0.00121522
     atom    6 type  1   force =    -0.03150988   -0.00074625   -0.00121355
     atom    7 type  1   force =     0.03748539   -0.00001199   -0.00121242
     atom    8 type  1   force =    -0.03895347   -0.00008826   -0.00121038
     atom    9 type  1   force =    -0.18490948   -0.00987847   -0.00129351
     atom   10 type  1   force =     0.16433922   -0.00175675   -0.00131399
     atom   11 type  1   force =    -0.17213168   -0.00000962   -0.00131122
     atom   12 type  1   force =     0.17385149   -0.00001529   -0.00130877
     atom   13 type  1   force =     0.14259133    0.17388622    0.00143854
     atom   14 type  1   force =    -0.14035544   -0.17232982    0.00144182
     atom   15 type  1   force =    -0.14063159    0.17203075    0.00144213
     atom   16 type  1   force =     0.14313399   -0.17369313    0.00143993
     atom   17 type  1   force =     0.14267471    0.17432845    0.00143718
     atom   18 type  1   force =    -0.14143795   -0.17341784    0.00144020
     atom   19 type  1   force =    -0.14161806    0.17371580    0.00144026
     atom   20 type  1   force =     0.14263624   -0.17421622    0.00143820
     atom   21 type  1   force =    -0.09241620   -0.21595537    0.00133159
     atom   22 type  1   force =     0.09319418    0.21619547    0.00132627
     atom   23 type  1   force =     0.09312821   -0.21623928    0.00132983
     atom   24 type  1   force =    -0.09259484    0.21614194    0.00132759
     atom   25 type  1   force =    -0.09264905   -0.21614625    0.00133138
     atom   26 type  1   force =     0.09256786    0.21611467    0.00132758
     atom   27 type  1   force =     0.09261921   -0.21640818    0.00133072
     atom   28 type  1   force =    -0.09267168    0.21594397    0.00132754
     atom   29 type  1   force =    -0.10957954   -0.18656395   -0.00141464
     atom   30 type  1   force =     0.10884477    0.18663054   -0.00141712
     atom   31 type  1   force =     0.10870787   -0.18631442   -0.00141583
     atom   32 type  1   force =    -0.10967481    0.18700114   -0.00141502
     atom   33 type  1   force =    -0.11009707   -0.18748464   -0.00141220
     atom   34 type  1   force =     0.10872416    0.18668639   -0.00141647
     atom   35 type  1   force =     0.10879612   -0.18672728   -0.00141453
     atom   36 type  1   force =    -0.11007541    0.18753047   -0.00141391
     atom   37 type  1   force =     0.09875849    0.21526567   -0.00134199
     atom   38 type  1   force =    -0.09969023   -0.21551213   -0.00134280
     atom   39 type  1   force =    -0.09954910    0.21551552   -0.00134072
     atom   40 type  1   force =     0.09887265   -0.21555268   -0.00134427
     atom   41 type  1   force =     0.09932910    0.21546989   -0.00134128
     atom   42 type  1   force =    -0.09862829   -0.21503652   -0.00134363
     atom   43 type  1   force =    -0.09878251    0.21533727   -0.00134182
     atom   44 type  1   force =     0.09929470   -0.21534771   -0.00134312
     atom   45 type  1   force =     0.26598580   -0.10929188    0.00127321
     atom   46 type  1   force =    -0.15928644    0.00176195    0.00129930
     atom   47 type  1   force =     0.17224399   -0.00000649    0.00129711
     atom   48 type  1   force =    -0.17396696    0.00000540    0.00129386
     atom   49 type  1   force =    -0.13425749   -0.06317123    0.00144626
     atom   50 type  1   force =     0.16359219    0.00224163    0.00131739
     atom   51 type  1   force =    -0.18523233    0.00000124    0.00131944
     atom   52 type  1   force =     0.18600307   -0.00000024    0.00131940
     atom   53 type  1   force =    -0.01029601   -0.25371088   -0.00118112
     atom   54 type  1   force =    -0.14921598   -0.00995555   -0.00133884
     atom   55 type  1   force =     0.19071544   -0.00000989   -0.00133067
     atom   56 type  1   force =    -0.19038579   -0.00001293   -0.00133087
     atom   57 type  2   force =     0.04079274    0.38589382    0.00009329
     atom   58 type  3   force =    -0.00496531    0.05150922    0.00001843

     Total force =     1.567454     Total SCF correction =     0.001325

     BFGS Geometry Optimization
     Energy error            =      0.0E+00 Ry
     Gradient error          =      3.9E-01 Ry/Bohr

     number of scf cycles    =   1
     number of bfgs steps    =   0

     energy             new  =   -1070.1358278997 Ry

     new trust radius        =       0.3880439340 bohr
     new conv_thr            =       0.0000010000 Ry


ATOMIC_POSITIONS (angstrom)
C             6.1064686159       -0.3836721341        2.4645951623
C            27.4377615846       -0.3815727045        2.4645946435
C            22.5101207629        8.5080044007        2.4645945969
C            11.0348293674        8.5079768167        2.4645923830
C             5.3922297045       -0.3773476591        1.2273569311
C            28.1583256905       -0.3823948971        1.2273578144
C            21.7948364135        8.5079936562        1.2273584157
C            11.7503867123        8.5079532946        1.2273594923
C             3.8751501191       17.3927725370        1.2273155065
C            29.6589645724       -0.3829296345        1.2273046679
C            20.2859118360        8.5079949093        1.2273061309
C            13.2599982460        8.5079919099        1.2273074268
C             7.1184560847        0.9410166224        2.4647612429
C            26.4277271015       16.0758069861        2.4647629797
C            26.4275809666        0.9400347531        2.4647631403
C             7.1187432433       16.0750855516        2.4647619773
C            23.5225002065        9.8312506450        2.4647605249
C            10.0231542591        7.1852312309        2.4647621218
C            10.0230589511        9.8309264436        2.4647621527
C            23.5224798497        7.1848087469        2.4647610614
C             8.2590954534        3.2777213418        2.4647046479
C            25.2863162350       13.7384057155        2.4647018341
C            25.2862813247        3.2775711001        2.4647037133
C             8.2590009216       13.7383773867        2.4647025306
C            24.6629722349       12.1676203327        2.4647045385
C             8.8819848007        4.8483629563        2.4647025237
C             8.8820119774       12.1674817211        2.4647041874
C            24.6629602606        4.8482726262        2.4647025048
C             7.3390130045        1.3332746097        1.2272514022
C            26.2065981723       15.6827606293        1.2272500917
C            26.2065257290        1.3334066539        1.2272507743
C             7.3389625887       15.6829567407        1.2272512015
C            23.7427391395       10.2227874014        1.2272526936
C             9.8025343494        6.7927901828        1.2272504355
C             9.8025724283       10.2231881791        1.2272514650
C            23.7427506024        6.7932368507        1.2272517898
C             8.0872607397        2.8469136846        1.2272898479
C            25.4582462029       14.1689558901        1.2272894221
C            25.4583208841        2.8470459034        1.2272905207
C             8.0873211531       14.1689344321        1.2272886435
C            24.4915626939       11.7370217556        1.2272902278
C             9.0538081561        5.2792075725        1.2272889815
C             9.0537265449       11.7369515767        1.2272899371
C            24.4915444917        5.2790428975        1.2272892519
C             3.3767536216       17.3401652278        2.4646737540
C            30.2257092460       17.3989323817        2.4646875607
C            19.7311475968        8.5079965639        2.4646863989
C            13.8139406486        8.5080028570        2.4646846830
C             1.7389539965       17.3645712234        2.4647653285
C            31.8215692611       17.3991862202        2.4646971328
C            18.1159792733        8.5080006561        2.4646982152
C            15.4294285839        8.5079998745        2.4646981956
C             1.0775515883       17.2637419859        1.2273749766
C            32.3830383055       17.3927317515        1.2272915179
C            17.5879222664        8.5079947669        1.2272958398
C            15.9572521772        8.5079931563        1.2272957365
O             1.8315865895       18.9522062139        2.4640493684
H             1.8073724689       19.7512575056        2.4640097534



     Writing config-only to output data dir ./pwscf.save/
     NEW-OLD atomic charge density approx. for the potential

     Check: negative core charge=   -0.000003

     negative rho (up, down):  5.793E-04 5.791E-04
     Generating pointlists ...
     new r_m :   0.0165 (alat units)  1.0248 (a.u.) for type    1
     new r_m :   0.0101 (alat units)  0.6232 (a.u.) for type    2
     new r_m :   0.0101 (alat units)  0.6232 (a.u.) for type    3

     total cpu time spent up to now is       74.7 secs

     Self-consistent Calculation

     iteration #  1     ecut=    50.00 Ry     beta= 0.30
     Davidson diagonalization with overlap
     c_bands:  5 eigenvalues not converged
     ethr =  1.00E-06,  avg # of iterations = 20.0

     negative rho (up, down):  5.809E-04 5.808E-04

     total cpu time spent up to now is       86.0 secs

     total energy              =   -1071.04332654 Ry
     estimated scf accuracy    <       1.99200329 Ry

     total magnetization       =     0.00 Bohr mag/cell
     absolute magnetization    =     0.01 Bohr mag/cell

     iteration #  2     ecut=    50.00 Ry     beta= 0.30
     Davidson diagonalization with overlap
     ethr =  8.62E-04,  avg # of iterations = 11.0

     negative rho (up, down):  5.087E-04 5.087E-04

     total cpu time spent up to now is       90.1 secs

     total energy              =   -1068.87566162 Ry
     estimated scf accuracy    <      73.53533768 Ry

     total magnetization       =    -0.00 Bohr mag/cell
     absolute magnetization    =     0.01 Bohr mag/cell

     iteration #  3     ecut=    50.00 Ry     beta= 0.30
     Davidson diagonalization with overlap
     ethr =  8.62E-04,  avg # of iterations =  9.0

     negative rho (up, down):  6.629E-04 6.629E-04

     total cpu time spent up to now is       94.5 secs

     total energy              =   -1071.12764825 Ry
     estimated scf accuracy    <       2.86000704 Ry

     total magnetization       =     0.00 Bohr mag/cell
     absolute magnetization    =     0.01 Bohr mag/cell

     iteration #  4     ecut=    50.00 Ry     beta= 0.30
     Davidson diagonalization with overlap
     ethr =  8.62E-04,  avg # of iterations =  7.5

     negative rho (up, down):  5.352E-04 5.357E-04

     total cpu time spent up to now is       98.2 secs

     total energy              =   -1071.45877231 Ry
     estimated scf accuracy    <       1.28326518 Ry

     total magnetization       =     0.00 Bohr mag/cell
     absolute magnetization    =     0.01 Bohr mag/cell

     iteration #  5     ecut=    50.00 Ry     beta= 0.30
     Davidson diagonalization with overlap
     ethr =  5.56E-04,  avg # of iterations =  5.0

     negative rho (up, down):  4.361E-04 4.370E-04

     total cpu time spent up to now is      101.7 secs

     total energy              =   -1071.39095647 Ry
     estimated scf accuracy    <       3.47814892 Ry

     total magnetization       =    -0.00 Bohr mag/cell
     absolute magnetization    =     0.02 Bohr mag/cell

     iteration #  6     ecut=    50.00 Ry     beta= 0.30
     Davidson diagonalization with overlap
     ethr =  5.56E-04,  avg # of iterations =  1.5

     negative rho (up, down):  3.622E-04 3.626E-04

     total cpu time spent up to now is      104.9 secs

     total energy              =   -1071.45051274 Ry
     estimated scf accuracy    <       0.74175301 Ry

     total magnetization       =    -0.00 Bohr mag/cell
     absolute magnetization    =     0.01 Bohr mag/cell

     iteration #  7     ecut=    50.00 Ry     beta= 0.30
     Davidson diagonalization with overlap
     ethr =  3.21E-04,  avg # of iterations =  1.0

     negative rho (up, down):  3.663E-04 3.663E-04

     total cpu time spent up to now is      108.0 secs

     total energy              =   -1071.44739982 Ry
     estimated scf accuracy    <       0.35524352 Ry

     total magnetization       =    -0.00 Bohr mag/cell
     absolute magnetization    =     0.01 Bohr mag/cell

     iteration #  8     ecut=    50.00 Ry     beta= 0.30
     Davidson diagonalization with overlap
     ethr =  1.54E-04,  avg # of iterations =  3.5

     negative rho (up, down):  3.692E-04 3.691E-04

     total cpu time spent up to now is      111.3 secs

     total energy              =   -1071.43828113 Ry
     estimated scf accuracy    <       0.29678257 Ry

     total magnetization       =     0.00 Bohr mag/cell
     absolute magnetization    =     0.01 Bohr mag/cell

     iteration #  9     ecut=    50.00 Ry     beta= 0.30
     Davidson diagonalization with overlap
     ethr =  1.28E-04,  avg # of iterations =  1.0

     negative rho (up, down):  3.726E-04 3.726E-04

     total cpu time spent up to now is      114.2 secs

     total energy              =   -1071.42921120 Ry
     estimated scf accuracy    <       0.21106889 Ry

     total magnetization       =    -0.00 Bohr mag/cell
     absolute magnetization    =     0.01 Bohr mag/cell

     iteration # 10     ecut=    50.00 Ry     beta= 0.30
     Davidson diagonalization with overlap
     ethr =  9.14E-05,  avg # of iterations =  4.0

     negative rho (up, down):  3.747E-04 3.748E-04

     total cpu time spent up to now is      117.5 secs

     total energy              =   -1071.44842271 Ry
     estimated scf accuracy    <       0.32735346 Ry

     total magnetization       =    -0.00 Bohr mag/cell
     absolute magnetization    =     0.01 Bohr mag/cell

     iteration # 11     ecut=    50.00 Ry     beta= 0.30
     Davidson diagonalization with overlap
     ethr =  9.14E-05,  avg # of iterations =  2.0

     negative rho (up, down):  3.806E-04 3.807E-04

     total cpu time spent up to now is      120.7 secs

     total energy              =   -1071.45311555 Ry
     estimated scf accuracy    <       0.30745178 Ry

     total magnetization       =    -0.00 Bohr mag/cell
     absolute magnetization    =     0.00 Bohr mag/cell

     iteration # 12     ecut=    50.00 Ry     beta= 0.30
     Davidson diagonalization with overlap
     ethr =  9.14E-05,  avg # of iterations = 16.0

     negative rho (up, down):  3.968E-04 3.970E-04

     total cpu time spent up to now is      124.9 secs

     total energy              =   -1071.43638176 Ry
     estimated scf accuracy    <       0.41938572 Ry

     total magnetization       =     0.00 Bohr mag/cell
     absolute magnetization    =     0.02 Bohr mag/cell

     iteration # 13     ecut=    50.00 Ry     beta= 0.30
     Davidson diagonalization with overlap
     ethr =  9.14E-05,  avg # of iterations =  1.0

     negative rho (up, down):  3.999E-04 4.001E-04

     total cpu time spent up to now is      128.0 secs

     total energy              =   -1071.43163241 Ry
     estimated scf accuracy    <       0.29938086 Ry

     total magnetization       =    -0.00 Bohr mag/cell
     absolute magnetization    =     0.03 Bohr mag/cell

     iteration # 14     ecut=    50.00 Ry     beta= 0.30
     Davidson diagonalization with overlap
     ethr =  9.14E-05,  avg # of iterations =  1.0

     negative rho (up, down):  3.986E-04 3.988E-04

     total cpu time spent up to now is      131.1 secs

     total energy              =   -1071.44095893 Ry
     estimated scf accuracy    <       0.08488250 Ry

     total magnetization       =     0.00 Bohr mag/cell
     absolute magnetization    =     0.02 Bohr mag/cell

     iteration # 15     ecut=    50.00 Ry     beta= 0.30
     Davidson diagonalization with overlap
     ethr =  3.67E-05,  avg # of iterations =  1.5

     negative rho (up, down):  4.058E-04 4.060E-04

     total cpu time spent up to now is      134.3 secs

     total energy              =   -1071.43845450 Ry
     estimated scf accuracy    <       0.09142375 Ry

     total magnetization       =     0.00 Bohr mag/cell
     absolute magnetization    =     0.01 Bohr mag/cell

     iteration # 16     ecut=    50.00 Ry     beta= 0.30
     Davidson diagonalization with overlap
     ethr =  3.67E-05,  avg # of iterations =  1.5

     negative rho (up, down):  4.399E-04 4.403E-04

     total cpu time spent up to now is      137.6 secs

     total energy              =   -1071.43552319 Ry
     estimated scf accuracy    <       0.08386134 Ry

     total magnetization       =    -0.00 Bohr mag/cell
     absolute magnetization    =     0.01 Bohr mag/cell

     iteration # 17     ecut=    50.00 Ry     beta= 0.30
     Davidson diagonalization with overlap
     ethr =  3.63E-05,  avg # of iterations =  1.5

     negative rho (up, down):  4.511E-04 4.514E-04

     total cpu time spent up to now is      140.9 secs

     total energy              =   -1071.43452326 Ry
     estimated scf accuracy    <       0.10489931 Ry

     total magnetization       =    -0.00 Bohr mag/cell
     absolute magnetization    =     0.06 Bohr mag/cell

     iteration # 18     ecut=    50.00 Ry     beta= 0.30
     Davidson diagonalization with overlap
     ethr =  3.63E-05,  avg # of iterations =  1.0

     negative rho (up, down):  4.671E-04 4.672E-04

     total cpu time spent up to now is      144.0 secs

     total energy              =   -1071.43278257 Ry
     estimated scf accuracy    <       0.28411167 Ry

     total magnetization       =    -0.00 Bohr mag/cell
     absolute magnetization    =     0.03 Bohr mag/cell

     iteration # 19     ecut=    50.00 Ry     beta= 0.30
     Davidson diagonalization with overlap
     ethr =  3.63E-05,  avg # of iterations =  1.5

     negative rho (up, down):  4.822E-04 4.824E-04

     total cpu time spent up to now is      147.3 secs

     total energy              =   -1071.43839220 Ry
     estimated scf accuracy    <       0.13170826 Ry

     total magnetization       =     0.00 Bohr mag/cell
     absolute magnetization    =     0.04 Bohr mag/cell

     iteration # 20     ecut=    50.00 Ry     beta= 0.30
     Davidson diagonalization with overlap
     ethr =  3.63E-05,  avg # of iterations =  1.0

     negative rho (up, down):  4.704E-04 4.705E-04

     total cpu time spent up to now is      150.3 secs

     total energy              =   -1071.43692177 Ry
     estimated scf accuracy    <       0.10957513 Ry

     total magnetization       =     0.00 Bohr mag/cell
     absolute magnetization    =     0.04 Bohr mag/cell

     iteration # 21     ecut=    50.00 Ry     beta= 0.30
     Davidson diagonalization with overlap
     ethr =  3.63E-05,  avg # of iterations =  9.5

     negative rho (up, down):  4.813E-04 4.814E-04

     total cpu time spent up to now is      154.0 secs

     total energy              =   -1071.43669811 Ry
     estimated scf accuracy    <       0.08721090 Ry

     total magnetization       =    -0.00 Bohr mag/cell
     absolute magnetization    =     0.11 Bohr mag/cell

     iteration # 22     ecut=    50.00 Ry     beta= 0.30
     Davidson diagonalization with overlap
     ethr =  3.63E-05,  avg # of iterations =  1.0

     negative rho (up, down):  5.057E-04 5.057E-04

     total cpu time spent up to now is      157.0 secs

     total energy              =   -1071.43626567 Ry
     estimated scf accuracy    <       0.04019550 Ry

     total magnetization       =    -0.00 Bohr mag/cell
     absolute magnetization    =     0.24 Bohr mag/cell

     iteration # 23     ecut=    50.00 Ry     beta= 0.30
     Davidson diagonalization with overlap
     ethr =  1.74E-05,  avg # of iterations =  1.0

     negative rho (up, down):  4.845E-04 4.848E-04

     total cpu time spent up to now is      160.1 secs

     total energy              =   -1071.43630669 Ry
     estimated scf accuracy    <       0.00571020 Ry

     total magnetization       =    -0.00 Bohr mag/cell
     absolute magnetization    =     0.34 Bohr mag/cell

     iteration # 24     ecut=    50.00 Ry     beta= 0.30
     Davidson diagonalization with overlap
     c_bands:  1 eigenvalues not converged
     ethr =  2.47E-06,  avg # of iterations = 20.0

     negative rho (up, down):  4.988E-04 4.990E-04

     total cpu time spent up to now is      164.3 secs

     total energy              =   -1071.43618631 Ry
     estimated scf accuracy    <       0.07930944 Ry

     total magnetization       =     0.00 Bohr mag/cell
     absolute magnetization    =     0.15 Bohr mag/cell

     iteration # 25     ecut=    50.00 Ry     beta= 0.30
     Davidson diagonalization with overlap
     ethr =  2.47E-06,  avg # of iterations = 11.0

     negative rho (up, down):  4.800E-04 4.799E-04

     total cpu time spent up to now is      168.4 secs

     total energy              =   -1071.43675258 Ry
     estimated scf accuracy    <       0.01786125 Ry

     total magnetization       =    -0.00 Bohr mag/cell
     absolute magnetization    =     0.37 Bohr mag/cell

     iteration # 26     ecut=    50.00 Ry     beta= 0.30
     Davidson diagonalization with overlap
     ethr =  2.47E-06,  avg # of iterations =  1.5

     negative rho (up, down):  4.787E-04 4.788E-04

     total cpu time spent up to now is      171.6 secs

     total energy              =   -1071.43612028 Ry
     estimated scf accuracy    <       0.02018859 Ry

     total magnetization       =    -0.00 Bohr mag/cell
     absolute magnetization    =     0.38 Bohr mag/cell

     iteration # 27     ecut=    50.00 Ry     beta= 0.30
     Davidson diagonalization with overlap
     ethr =  2.47E-06,  avg # of iterations =  1.0

     negative rho (up, down):  5.802E-04 5.801E-04

     total cpu time spent up to now is      174.7 secs

     total energy              =   -1071.43588087 Ry
     estimated scf accuracy    <       0.08478907 Ry

     total magnetization       =     0.00 Bohr mag/cell
     absolute magnetization    =     0.15 Bohr mag/cell

     iteration # 28     ecut=    50.00 Ry     beta= 0.30
     Davidson diagonalization with overlap
     ethr =  2.47E-06,  avg # of iterations =  7.5

     negative rho (up, down):  4.776E-04 4.776E-04

     total cpu time spent up to now is      178.5 secs

     total energy              =   -1071.43519333 Ry
     estimated scf accuracy    <       0.00752730 Ry

     total magnetization       =     0.00 Bohr mag/cell
     absolute magnetization    =     0.34 Bohr mag/cell

     iteration # 29     ecut=    50.00 Ry     beta= 0.30
     Davidson diagonalization with overlap
     ethr =  2.47E-06,  avg # of iterations =  2.0

     negative rho (up, down):  4.995E-04 4.994E-04

     total cpu time spent up to now is      181.7 secs

     total energy              =   -1071.43761966 Ry
     estimated scf accuracy    <       0.08944442 Ry

     total magnetization       =     0.00 Bohr mag/cell
     absolute magnetization    =     0.14 Bohr mag/cell

     iteration # 30     ecut=    50.00 Ry     beta= 0.30
     Davidson diagonalization with overlap
     ethr =  2.47E-06,  avg # of iterations =  1.0

     negative rho (up, down):  5.007E-04 5.005E-04

     total cpu time spent up to now is      184.8 secs

     total energy              =   -1071.43772275 Ry
     estimated scf accuracy    <       0.08407145 Ry

     total magnetization       =    -0.00 Bohr mag/cell
     absolute magnetization    =     0.16 Bohr mag/cell

     iteration # 31     ecut=    50.00 Ry     beta= 0.30
     Davidson diagonalization with overlap
     ethr =  2.47E-06,  avg # of iterations =  1.0

     negative rho (up, down):  4.930E-04 4.927E-04

     total cpu time spent up to now is      187.9 secs

     total energy              =   -1071.43729801 Ry
     estimated scf accuracy    <       0.08032165 Ry

     total magnetization       =    -0.00 Bohr mag/cell
     absolute magnetization    =     0.17 Bohr mag/cell

     iteration # 32     ecut=    50.00 Ry     beta= 0.30
     Davidson diagonalization with overlap
     ethr =  2.47E-06,  avg # of iterations =  1.0

     negative rho (up, down):  5.030E-04 5.026E-04

     total cpu time spent up to now is      190.8 secs

     total energy              =   -1071.43757285 Ry
     estimated scf accuracy    <       0.09454630 Ry

     total magnetization       =     0.00 Bohr mag/cell
     absolute magnetization    =     0.15 Bohr mag/cell

     iteration # 33     ecut=    50.00 Ry     beta= 0.30
     Davidson diagonalization with overlap
     ethr =  2.47E-06,  avg # of iterations =  1.0

     negative rho (up, down):  5.431E-04 5.427E-04

     total cpu time spent up to now is      193.7 secs

     total energy              =   -1071.43839367 Ry
     estimated scf accuracy    <       0.08551001 Ry

     total magnetization       =     0.00 Bohr mag/cell
     absolute magnetization    =     0.16 Bohr mag/cell

     iteration # 34     ecut=    50.00 Ry     beta= 0.30
     Davidson diagonalization with overlap
     ethr =  2.47E-06,  avg # of iterations =  1.0

     negative rho (up, down):  5.545E-04 5.541E-04

     total cpu time spent up to now is      196.6 secs

     total energy              =   -1071.43846119 Ry
     estimated scf accuracy    <       0.08473013 Ry

     total magnetization       =    -0.00 Bohr mag/cell
     absolute magnetization    =     0.17 Bohr mag/cell

     iteration # 35     ecut=    50.00 Ry     beta= 0.30
     Davidson diagonalization with overlap
     ethr =  2.47E-06,  avg # of iterations =  1.0

     negative rho (up, down):  4.753E-04 4.743E-04

     total cpu time spent up to now is      199.7 secs

     total energy              =   -1071.43566764 Ry
     estimated scf accuracy    <       0.09314089 Ry

     total magnetization       =    -0.00 Bohr mag/cell
     absolute magnetization    =     0.14 Bohr mag/cell

     iteration # 36     ecut=    50.00 Ry     beta= 0.30
     Davidson diagonalization with overlap
     ethr =  2.47E-06,  avg # of iterations =  2.0

     negative rho (up, down):  4.566E-04 4.585E-04

     total cpu time spent up to now is      203.0 secs

     total energy              =   -1071.43922563 Ry
     estimated scf accuracy    <       0.05000614 Ry

     total magnetization       =    -0.00 Bohr mag/cell
     absolute magnetization    =     0.65 Bohr mag/cell

     iteration # 37     ecut=    50.00 Ry     beta= 0.30
     Davidson diagonalization with overlap
     ethr =  2.47E-06,  avg # of iterations =  1.0

     negative rho (up, down):  4.949E-04 4.961E-04

     total cpu time spent up to now is      206.1 secs

     total energy              =   -1071.43767877 Ry
     estimated scf accuracy    <       0.04271950 Ry

     total magnetization       =     0.00 Bohr mag/cell
     absolute magnetization    =     0.70 Bohr mag/cell

     iteration # 38     ecut=    50.00 Ry     beta= 0.30
     Davidson diagonalization with overlap
     ethr =  2.47E-06,  avg # of iterations =  2.0

     negative rho (up, down):  7.867E-04 7.870E-04

     total cpu time spent up to now is      209.4 secs

     total energy              =   -1071.43893196 Ry
     estimated scf accuracy    <       0.00773730 Ry

     total magnetization       =    -0.00 Bohr mag/cell
     absolute magnetization    =     0.53 Bohr mag/cell

     iteration # 39     ecut=    50.00 Ry     beta= 0.30
     Davidson diagonalization with overlap
     ethr =  2.47E-06,  avg # of iterations =  3.5

     negative rho (up, down):  7.785E-04 7.793E-04

     total cpu time spent up to now is      212.9 secs

     total energy              =   -1071.44006032 Ry
     estimated scf accuracy    <       0.00741038 Ry

     total magnetization       =    -0.00 Bohr mag/cell
     absolute magnetization    =     0.36 Bohr mag/cell

     iteration # 40     ecut=    50.00 Ry     beta= 0.30
     Davidson diagonalization with overlap
     ethr =  2.47E-06,  avg # of iterations =  2.0

     negative rho (up, down):  5.095E-04 5.107E-04

     total cpu time spent up to now is      216.1 secs

     total energy              =   -1071.44029007 Ry
     estimated scf accuracy    <       0.00144625 Ry

     total magnetization       =    -0.00 Bohr mag/cell
     absolute magnetization    =     0.44 Bohr mag/cell

     iteration # 41     ecut=    50.00 Ry     beta= 0.30
     Davidson diagonalization with overlap
     ethr =  6.26E-07,  avg # of iterations =  2.5

     negative rho (up, down):  5.161E-04 5.167E-04

     total cpu time spent up to now is      219.5 secs

     total energy              =   -1071.44082985 Ry
     estimated scf accuracy    <       0.02255632 Ry

     total magnetization       =    -0.00 Bohr mag/cell
     absolute magnetization    =     0.56 Bohr mag/cell

     iteration # 42     ecut=    50.00 Ry     beta= 0.30
     Davidson diagonalization with overlap
     ethr =  6.26E-07,  avg # of iterations =  1.0

     negative rho (up, down):  5.808E-04 5.807E-04

     total cpu time spent up to now is      222.6 secs

     total energy              =   -1071.44027710 Ry
     estimated scf accuracy    <       0.01393221 Ry

     total magnetization       =     0.00 Bohr mag/cell
     absolute magnetization    =     0.55 Bohr mag/cell

     iteration # 43     ecut=    50.00 Ry     beta= 0.30
     Davidson diagonalization with overlap
     ethr =  6.26E-07,  avg # of iterations =  2.0

     negative rho (up, down):  5.892E-04 5.894E-04

     total cpu time spent up to now is      225.9 secs

     total energy              =   -1071.44056213 Ry
     estimated scf accuracy    <       0.00361428 Ry

     total magnetization       =    -0.00 Bohr mag/cell
     absolute magnetization    =     0.50 Bohr mag/cell

     iteration # 44     ecut=    50.00 Ry     beta= 0.30
     Davidson diagonalization with overlap
     ethr =  6.26E-07,  avg # of iterations =  1.0

     negative rho (up, down):  8.556E-04 8.546E-04

     total cpu time spent up to now is      228.9 secs

     total energy              =   -1071.43973396 Ry
     estimated scf accuracy    <       0.00423886 Ry

     total magnetization       =    -0.00 Bohr mag/cell
     absolute magnetization    =     0.52 Bohr mag/cell

     iteration # 45     ecut=    50.00 Ry     beta= 0.30
     Davidson diagonalization with overlap
     ethr =  6.26E-07,  avg # of iterations =  2.0

     negative rho (up, down):  6.552E-04 6.558E-04

     total cpu time spent up to now is      232.0 secs

     total energy              =   -1071.44012265 Ry
     estimated scf accuracy    <       0.00907491 Ry

     total magnetization       =     0.00 Bohr mag/cell
     absolute magnetization    =     0.39 Bohr mag/cell

     iteration # 46     ecut=    50.00 Ry     beta= 0.30
     Davidson diagonalization with overlap
     ethr =  6.26E-07,  avg # of iterations =  1.5

     negative rho (up, down):  6.849E-04 6.846E-04

     total cpu time spent up to now is      235.1 secs

     total energy              =   -1071.43996261 Ry
     estimated scf accuracy    <       0.00050230 Ry

     total magnetization       =     0.00 Bohr mag/cell
     absolute magnetization    =     0.50 Bohr mag/cell

     iteration # 47     ecut=    50.00 Ry     beta= 0.30
     Davidson diagonalization with overlap
     ethr =  2.17E-07,  avg # of iterations =  2.0

     negative rho (up, down):  6.438E-04 6.436E-04

     total cpu time spent up to now is      238.3 secs

     total energy              =   -1071.44022218 Ry
     estimated scf accuracy    <       0.00035869 Ry

     total magnetization       =     0.00 Bohr mag/cell
     absolute magnetization    =     0.40 Bohr mag/cell

     iteration # 48     ecut=    50.00 Ry     beta= 0.30
     Davidson diagonalization with overlap
     ethr =  1.55E-07,  avg # of iterations =  1.0

     negative rho (up, down):  6.048E-04 6.048E-04

     total cpu time spent up to now is      241.4 secs

     total energy              =   -1071.44023055 Ry
     estimated scf accuracy    <       0.00002768 Ry

     total magnetization       =     0.00 Bohr mag/cell
     absolute magnetization    =     0.39 Bohr mag/cell

     iteration # 49     ecut=    50.00 Ry     beta= 0.30
     Davidson diagonalization with overlap
     ethr =  1.20E-08,  avg # of iterations =  2.5

     negative rho (up, down):  5.827E-04 5.828E-04

     total cpu time spent up to now is      244.7 secs

     total energy              =   -1071.44023246 Ry
     estimated scf accuracy    <       0.00000569 Ry

     total magnetization       =    -0.00 Bohr mag/cell
     absolute magnetization    =     0.38 Bohr mag/cell

     iteration # 50     ecut=    50.00 Ry     beta= 0.30
     Davidson diagonalization with overlap
     ethr =  2.47E-09,  avg # of iterations =  3.0

     negative rho (up, down):  5.776E-04 5.776E-04

     total cpu time spent up to now is      248.1 secs

     total energy              =   -1071.44023212 Ry
     estimated scf accuracy    <       0.00000275 Ry

     total magnetization       =     0.00 Bohr mag/cell
     absolute magnetization    =     0.39 Bohr mag/cell

     iteration # 51     ecut=    50.00 Ry     beta= 0.30
     Davidson diagonalization with overlap
     ethr =  1.19E-09,  avg # of iterations =  2.0

     negative rho (up, down):  5.719E-04 5.719E-04

     total cpu time spent up to now is      251.5 secs

     total energy              =   -1071.44023307 Ry
     estimated scf accuracy    <       0.00000675 Ry

     total magnetization       =     0.00 Bohr mag/cell
     absolute magnetization    =     0.38 Bohr mag/cell

     iteration # 52     ecut=    50.00 Ry     beta= 0.30
     Davidson diagonalization with overlap
     ethr =  1.19E-09,  avg # of iterations =  2.0

     negative rho (up, down):  5.700E-04 5.700E-04

     total cpu time spent up to now is      254.7 secs

     total energy              =   -1071.44023372 Ry
     estimated scf accuracy    <       0.00000206 Ry

     total magnetization       =    -0.00 Bohr mag/cell
     absolute magnetization    =     0.39 Bohr mag/cell

     iteration # 53     ecut=    50.00 Ry     beta= 0.30
     Davidson diagonalization with overlap
     ethr =  8.93E-10,  avg # of iterations =  3.0

     negative rho (up, down):  5.701E-04 5.701E-04

     Magnetic moment per site  (integrated on atomic sphere of radius R)
     atom   1 (R=0.017)  charge=  1.4111  magn=  0.0000
     atom   2 (R=0.017)  charge=  1.4091  magn= -0.0000
     atom   3 (R=0.017)  charge=  1.4087  magn= -0.0000
     atom   4 (R=0.017)  charge=  1.4088  magn= -0.0000
     atom   5 (R=0.017)  charge=  1.4230  magn=  0.0000
     atom   6 (R=0.017)  charge=  1.4235  magn=  0.0000
     atom   7 (R=0.017)  charge=  1.4248  magn=  0.0001
     atom   8 (R=0.017)  charge=  1.4245  magn=  0.0001
     atom   9 (R=0.017)  charge=  1.4638  magn=  0.0000
     atom  10 (R=0.017)  charge=  1.4446  magn=  0.0000
     atom  11 (R=0.017)  charge=  1.4458  magn= -0.0000
     atom  12 (R=0.017)  charge=  1.4459  magn= -0.0000
     atom  13 (R=0.017)  charge=  1.4553  magn=  0.0000
     atom  14 (R=0.017)  charge=  1.4557  magn=  0.0000
     atom  15 (R=0.017)  charge=  1.4560  magn=  0.0000
     atom  16 (R=0.017)  charge=  1.4561  magn= -0.0000
     atom  17 (R=0.017)  charge=  1.4576  magn=  0.0001
     atom  18 (R=0.017)  charge=  1.4574  magn=  0.0001
     atom  19 (R=0.017)  charge=  1.4574  magn=  0.0001
     atom  20 (R=0.017)  charge=  1.4574  magn=  0.0001
     atom  21 (R=0.017)  charge=  1.4546  magn=  0.0000
     atom  22 (R=0.017)  charge=  1.4545  magn=  0.0000
     atom  23 (R=0.017)  charge=  1.4544  magn=  0.0000
     atom  24 (R=0.017)  charge=  1.4547  magn=  0.0000
     atom  25 (R=0.017)  charge=  1.4539  magn= -0.0000
     atom  26 (R=0.017)  charge=  1.4538  magn= -0.0000
     atom  27 (R=0.017)  charge=  1.4539  magn= -0.0000
     atom  28 (R=0.017)  charge=  1.4540  magn= -0.0000
     atom  29 (R=0.017)  charge=  1.4616  magn=  0.0000
     atom  30 (R=0.017)  charge=  1.4614  magn=  0.0000
     atom  31 (R=0.017)  charge=  1.4609  magn=  0.0000
     atom  32 (R=0.017)  charge=  1.4620  magn=  0.0000
     atom  33 (R=0.017)  charge=  1.4609  magn= -0.0000
     atom  34 (R=0.017)  charge=  1.4610  magn= -0.0000
     atom  35 (R=0.017)  charge=  1.4607  magn= -0.0000
     atom  36 (R=0.017)  charge=  1.4613  magn= -0.0000
     atom  37 (R=0.017)  charge=  1.4543  magn=  0.0000
     atom  38 (R=0.017)  charge=  1.4540  magn=  0.0000
     atom  39 (R=0.017)  charge=  1.4547  magn= -0.0000
     atom  40 (R=0.017)  charge=  1.4540  magn= -0.0000
     atom  41 (R=0.017)  charge=  1.4554  magn=  0.0000
     atom  42 (R=0.017)  charge=  1.4549  magn=  0.0000
     atom  43 (R=0.017)  charge=  1.4555  magn=  0.0000
     atom  44 (R=0.017)  charge=  1.4547  magn=  0.0000
     atom  45 (R=0.017)  charge=  1.4464  magn=  0.0000
     atom  46 (R=0.017)  charge=  1.4356  magn=  0.0000
     atom  47 (R=0.017)  charge=  1.4389  magn=  0.0000
     atom  48 (R=0.017)  charge=  1.4392  magn=  0.0000
     atom  49 (R=0.017)  charge=  1.3809  magn=  0.0000
     atom  50 (R=0.017)  charge=  1.4338  magn=  0.0000
     atom  51 (R=0.017)  charge=  1.4404  magn= -0.0000
     atom  52 (R=0.017)  charge=  1.4405  magn= -0.0000
     atom  53 (R=0.017)  charge=  1.4369  magn=  0.0002
     atom  54 (R=0.017)  charge=  1.4461  magn=  0.0000
     atom  55 (R=0.017)  charge=  1.4415  magn=  0.0000
     atom  56 (R=0.017)  charge=  1.4415  magn=  0.0000
     atom  57 (R=0.010)  charge=  1.2409  magn= -0.0005
     atom  58 (R=0.010)  charge=  0.3795  magn= -0.0000

     total cpu time spent up to now is      258.0 secs

     End of self-consistent calculation

 ------ SPIN UP ------------


          k = 0.0000 0.0000 0.0000 ( 29096 PWs)   bands (ev):

   -20.8818 -20.3987 -20.3878 -20.1482 -20.1335 -20.0883 -20.0806 -19.3449
   -19.3331 -19.2841 -19.2718 -18.7961 -18.4300 -18.2449 -18.0075 -17.9737
   -17.9617 -17.8160 -17.4598 -17.2347 -16.8084 -16.5409 -16.5269 -16.3530
   -15.7935 -15.5883 -15.0550 -14.8069 -14.3359 -12.2596 -11.8531 -11.8417
   -11.8288 -11.5906 -10.7704 -10.4454  -9.8884  -9.8810  -9.4728  -9.3061
    -8.9911  -8.9784  -8.9423  -8.9279  -8.7229  -8.6227  -8.6128  -8.5453
    -8.4775  -8.4664  -8.3571  -8.3420  -8.3144  -8.1140  -8.1029  -8.0583
    -8.0482  -8.0273  -7.8842  -7.8780  -7.8671  -7.7867  -7.4764  -7.4687
    -7.4622  -7.3886  -7.3734  -7.0725  -6.9808  -6.8853  -6.8217  -6.6719
    -6.6191  -6.5182  -6.4926  -6.4846  -6.4552  -6.3419  -6.1869  -6.1646
    -6.0544  -5.9990  -5.9008  -5.5761  -5.4654  -5.3462  -5.3353  -5.2593
    -5.1418  -4.8424  -4.8339  -4.8274  -4.6386  -4.4909  -4.2340  -4.1567
    -4.1199  -4.0869  -3.9796  -3.8124  -3.5250  -3.5183  -3.5082  -3.1975
    -2.4959  -2.1394  -2.0162  -1.7002  -1.4779  -0.8845  -0.5684  -0.2608
     0.0335   0.3135   0.4144   0.6070   1.4649   1.5690   2.4986   2.5197
     2.9794   3.0004   3.0412   3.0584   3.1961   3.3180   3.3699   3.4888
     3.5661   3.7151   3.8028   3.9024   4.0624   4.0665   4.0830   4.1081
     4.1530   4.2952   4.3281

 ------ SPIN DOWN ----------


          k = 0.0000 0.0000 0.0000 ( 29096 PWs)   bands (ev):

   -20.8835 -20.3986 -20.3877 -20.1481 -20.1334 -20.0883 -20.0805 -19.3448
   -19.3330 -19.2840 -19.2718 -18.7960 -18.4299 -18.2449 -18.0075 -17.9737
   -17.9616 -17.8161 -17.4598 -17.2347 -16.8084 -16.5408 -16.5269 -16.3529
   -15.7935 -15.5883 -15.0549 -14.8069 -14.3359 -12.2596 -11.8530 -11.8416
   -11.8288 -11.5906 -10.7704 -10.4454  -9.8884  -9.8809  -9.4729  -9.3061
    -8.9911  -8.9784  -8.9423  -8.9279  -8.7233  -8.6226  -8.6128  -8.5453
    -8.4775  -8.4664  -8.3571  -8.3420  -8.3144  -8.1139  -8.1028  -8.0583
    -8.0481  -8.0273  -7.8842  -7.8779  -7.8671  -7.7867  -7.4764  -7.4687
    -7.4622  -7.3886  -7.3733  -7.0724  -6.9808  -6.8853  -6.8217  -6.6719
    -6.6190  -6.5181  -6.4926  -6.4845  -6.4553  -6.3418  -6.1868  -6.1646
    -6.0544  -5.9990  -5.9008  -5.5761  -5.4653  -5.3462  -5.3352  -5.2592
    -5.1419  -4.8424  -4.8339  -4.8273  -4.6386  -4.4909  -4.2340  -4.1566
    -4.1199  -4.0869  -3.9796  -3.8123  -3.5250  -3.5188  -3.5079  -3.1974
    -2.4960  -2.1393  -2.0161  -1.7004  -1.4780  -0.8845  -0.5684  -0.2608
     0.0320   0.3137   0.4121   0.6067   1.4651   1.5693   2.4986   2.5197
     2.9794   3.0005   3.0412   3.0584   3.1961   3.3180   3.3700   3.4888
     3.5661   3.7151   3.8028   3.9024   4.0624   4.0666   4.0830   4.1081
     4.1530   4.2945   4.3293

     the spin up/dw Fermi energies are     0.6070    0.6067 ev

!    total energy              =   -1071.44023405 Ry
     estimated scf accuracy    <       0.00000027 Ry
     smearing contrib. (-TS)   =      -0.00005642 Ry
     internal energy E=F+TS    =   -1071.44017764 Ry

     The total energy is F=E-TS. E is the sum of the following terms:
     one-electron contribution =   -4197.23121911 Ry
     hartree contribution      =    2160.87409051 Ry
     xc contribution           =    -270.09206813 Ry
     ewald contribution        =    1589.17581605 Ry
     one-center paw contrib.   =    -354.16679695 Ry

     total magnetization       =     0.00 Bohr mag/cell
     absolute magnetization    =     0.39 Bohr mag/cell

     convergence has been achieved in  53 iterations

     negative rho (up, down):  5.701E-04 5.701E-04

     Forces acting on atoms (cartesian axes, Ry/au):

     atom    1 type  1   force =    -0.23732426    0.00037146   -0.00190461
     atom    2 type  1   force =     0.23536591    0.00165262   -0.00187085
     atom    3 type  1   force =    -0.23232638    0.00006097   -0.00189358
     atom    4 type  1   force =     0.23061514    0.00077370   -0.00188207
     atom    5 type  1   force =     0.08055842    0.00993261    0.00195621
     atom    6 type  1   force =    -0.07033950   -0.00210588    0.00190940
     atom    7 type  1   force =     0.06529429    0.00003977    0.00193420
     atom    8 type  1   force =    -0.06419124    0.00015376    0.00192533
     atom    9 type  1   force =     0.01606678   -0.04651569    0.00364604
     atom   10 type  1   force =     0.03651132   -0.00135071    0.00333075
     atom   11 type  1   force =    -0.03267696    0.00001411    0.00338840
     atom   12 type  1   force =     0.03103321   -0.00019253    0.00338264
     atom   13 type  1   force =     0.09756590    0.07301631   -0.00447053
     atom   14 type  1   force =    -0.09474821   -0.06958944   -0.00448081
     atom   15 type  1   force =    -0.09406702    0.06810650   -0.00448130
     atom   16 type  1   force =     0.09330174   -0.06805251   -0.00448223
     atom   17 type  1   force =     0.09697496    0.06855545   -0.00447175
     atom   18 type  1   force =    -0.09660992   -0.06866936   -0.00448248
     atom   19 type  1   force =    -0.09594966    0.06742157   -0.00448372
     atom   20 type  1   force =     0.09692630   -0.06840924   -0.00447647
     atom   21 type  1   force =    -0.03845163   -0.10387399   -0.00392149
     atom   22 type  1   force =     0.03829383    0.10391430   -0.00390882
     atom   23 type  1   force =     0.03802292   -0.10328176   -0.00391545
     atom   24 type  1   force =    -0.03718819    0.10146017   -0.00392049
     atom   25 type  1   force =    -0.03754665   -0.10429637   -0.00391807
     atom   26 type  1   force =     0.03750876    0.10347812   -0.00391124
     atom   27 type  1   force =     0.03669300   -0.10171855   -0.00392062
     atom   28 type  1   force =    -0.03743482    0.10380740   -0.00391088
     atom   29 type  1   force =    -0.02489872   -0.10924952    0.00443496
     atom   30 type  1   force =     0.02526727    0.10762814    0.00444147
     atom   31 type  1   force =     0.02444931   -0.10630346    0.00444230
     atom   32 type  1   force =    -0.02345281    0.10446070    0.00444570
     atom   33 type  1   force =    -0.02553953   -0.10728935    0.00442954
     atom   34 type  1   force =     0.02539010    0.10690407    0.00443764
     atom   35 type  1   force =     0.02467813   -0.10547602    0.00443999
     atom   36 type  1   force =    -0.02543988    0.10711426    0.00443296
     atom   37 type  1   force =     0.04152335    0.10811859    0.00390533
     atom   38 type  1   force =    -0.04120690   -0.10719397    0.00389963
     atom   39 type  1   force =    -0.04077476    0.10621502    0.00390088
     atom   40 type  1   force =     0.04036580   -0.10538033    0.00390997
     atom   41 type  1   force =     0.04076093    0.10876197    0.00390813
     atom   42 type  1   force =    -0.04054752   -0.10789631    0.00390639
     atom   43 type  1   force =    -0.03987602    0.10614713    0.00391100
     atom   44 type  1   force =     0.04060721   -0.10859028    0.00390598
     atom   45 type  1   force =    -0.07731107   -0.01367186   -0.00362341
     atom   46 type  1   force =     0.00758971    0.00899508   -0.00333366
     atom   47 type  1   force =     0.00402498    0.00005510   -0.00339607
     atom   48 type  1   force =    -0.00310536    0.00004720   -0.00338914
     atom   49 type  1   force =    -0.09949165   -0.13299848   -0.00259484
     atom   50 type  1   force =    -0.00453264    0.01222038   -0.00345387
     atom   51 type  1   force =    -0.01342469    0.00004920   -0.00360500
     atom   52 type  1   force =     0.01326199    0.00010462   -0.00360772
     atom   53 type  1   force =     0.10878050   -0.11855006    0.00251183
     atom   54 type  1   force =    -0.03182378   -0.03221940    0.00348193
     atom   55 type  1   force =     0.01909552    0.00001001    0.00359745
     atom   56 type  1   force =    -0.01882802    0.00002600    0.00360009
     atom   57 type  2   force =     0.06001015   -0.37474213    0.00019372
     atom   58 type  3   force =    -0.02742963    0.68800092    0.00010130

     Total force =     1.155964     Total SCF correction =     0.000869
     Energy error            =      1.3E+00 Ry
     Gradient error          =      6.9E-01 Ry/Bohr

     number of scf cycles    =   2
     number of bfgs steps    =   1

     energy             old  =   -1070.1358278997 Ry
     energy             new  =   -1071.4402340550 Ry

     CASE: energy            _new < energy            _old

     new trust radius        =       0.8000000000 bohr
     new conv_thr            =       0.0000010000 Ry


ATOMIC_POSITIONS (angstrom)
C             5.9196189301       -0.3846529201        2.4639049786
C            27.6221943484       -0.3802973745        2.4639238810
C            22.3259523345        8.5080433048        2.4639104723
C            11.2179586308        8.5084138697        2.4639134199
C             5.4546842419       -0.3681886541        1.2280430343
C            28.1051285492       -0.3839127851        1.2280170989
C            21.8473418237        8.5080124301        1.2280326747
C            11.6979712213        8.5080099740        1.2280293205
C             3.8144315265       17.3617501212        1.2289627800
C            29.7427106111       -0.3843880194        1.2287592946
C            20.2014583187        8.5079995334        1.2287956068
C            13.3441402771        8.5078732146        1.2287944578
C             7.2297532064        1.0497893814        2.4626855300
C            26.3189303032       15.9696340032        2.4626824828
C            26.3190788455        1.0452247429        2.4626824724
C             7.2277458352       15.9692966453        2.4626799295
C            23.6334824476        9.9375754469        2.4626835849
C             9.9128551954        7.0791850515        2.4626800342
C             9.9130787217        9.9363539849        2.4626793574
C            23.6334189623        7.0786122538        2.4626817371
C             8.2014934340        3.1348969975        2.4629103105
C            25.3441208283       13.8813447699        2.4629129085
C            25.3439020362        3.1349863269        2.4629122483
C             8.2020719865       13.8798571119        2.4629072620
C            24.6058125416       12.0244759160        2.4629121235
C             8.9390914736        4.9910155962        2.4629126707
C             8.9386597998       12.0257494994        2.4629100258
C            24.6058575582        4.9910536003        2.4629128525
C             7.2828476038        1.1984469427        1.2293153208
C            26.2627009669       15.8166628307        1.2293168900
C            26.2620969667        1.2004011168        1.2293185481
C             7.2836088881       15.8151422284        1.2293212711
C            23.6860016805       10.0887598849        1.2293143572
C             9.8586634200        6.9262889923        1.2293152335
C             9.8583113150       10.0905112203        1.2293183807
C            23.6860797932        6.9271790851        1.2293148112
C             8.1490696630        2.9919653072        1.2290707670
C            25.3962694052       14.0243529451        1.2290666951
C            25.3966510116        2.9910761115        1.2290693114
C             8.1484946300       14.0253795672        1.2290714189
C            24.5531410020       11.8825281066        1.2290730624
C             8.9926208104        5.1343732028        1.2290699020
C             8.9928744499       11.8808743606        1.2290742441
C            24.5530196171        5.1336835678        1.2290701242
C             3.4323142830       17.2906920177        2.4630320514
C            30.1697392700       17.4048751476        2.4632256585
C            19.7988431059        8.5080264098        2.4631870694
C            13.7461308226        8.5080325829        2.4631881859
C             1.6296888589       17.2626230995        2.4637923920
C            31.8809650610       17.4072021533        2.4631716059
C            18.0378453577        8.5080299766        2.4630848447
C            15.5077594552        8.5080611317        2.4630832182
C             1.1374315513       17.0979906843        1.2283998131
C            32.3077774232       17.3700629921        1.2288253672
C            17.6714612307        8.5079968879        1.2289005222
C            15.8739951116        8.5080034951        1.2289018947
O             1.8822480923       18.8788461123        2.4641983479
H             1.7894051647       20.1742178166        2.4640761419



     Writing config-only to output data dir ./pwscf.save/
     NEW-OLD atomic charge density approx. for the potential

     Check: negative core charge=   -0.000003

     negative rho (up, down):  5.872E-04 5.789E-04
     Generating pointlists ...
     new r_m :   0.0156 (alat units)  0.9690 (a.u.) for type    1

     total cpu time spent up to now is      267.2 secs

     Self-consistent Calculation

     iteration #  1     ecut=    50.00 Ry     beta= 0.30
     Davidson diagonalization with overlap
     c_bands:  5 eigenvalues not converged
     ethr =  1.00E-06,  avg # of iterations = 20.0

     negative rho (up, down):  6.056E-04 5.994E-04

     total cpu time spent up to now is      277.7 secs

     total energy              =   -1073.75707419 Ry
     estimated scf accuracy    <       1.81558406 Ry

     total magnetization       =     0.00 Bohr mag/cell
     absolute magnetization    =     0.17 Bohr mag/cell

     iteration #  2     ecut=    50.00 Ry     beta= 0.30
     Davidson diagonalization with overlap
     ethr =  7.86E-04,  avg # of iterations =  7.0

     negative rho (up, down):  6.748E-04 6.691E-04

     total cpu time spent up to now is      281.4 secs

     total energy              =   -1073.57072783 Ry
     estimated scf accuracy    <       8.95860662 Ry

     total magnetization       =    -0.00 Bohr mag/cell
     absolute magnetization    =     0.05 Bohr mag/cell

     iteration #  3     ecut=    50.00 Ry     beta= 0.30
     Davidson diagonalization with overlap
     ethr =  7.86E-04,  avg # of iterations =  8.5

     negative rho (up, down):  3.975E-04 3.923E-04

     total cpu time spent up to now is      285.1 secs

     total energy              =   -1073.92243656 Ry
     estimated scf accuracy    <       2.11943373 Ry

     total magnetization       =     0.00 Bohr mag/cell
     absolute magnetization    =     0.05 Bohr mag/cell

     iteration #  4     ecut=    50.00 Ry     beta= 0.30
     Davidson diagonalization with overlap
     ethr =  7.86E-04,  avg # of iterations =  3.0

     negative rho (up, down):  3.901E-04 3.856E-04

     total cpu time spent up to now is      288.4 secs

     total energy              =   -1073.97080567 Ry
     estimated scf accuracy    <       1.20022045 Ry

     total magnetization       =    -0.00 Bohr mag/cell
     absolute magnetization    =     0.05 Bohr mag/cell

     iteration #  5     ecut=    50.00 Ry     beta= 0.30
     Davidson diagonalization with overlap
     ethr =  5.20E-04,  avg # of iterations =  3.0

     negative rho (up, down):  2.124E-04 2.103E-04

     total cpu time spent up to now is      291.7 secs

     total energy              =   -1073.92294870 Ry
     estimated scf accuracy    <       4.34870756 Ry

     total magnetization       =     0.00 Bohr mag/cell
     absolute magnetization    =     0.16 Bohr mag/cell

     iteration #  6     ecut=    50.00 Ry     beta= 0.30
     Davidson diagonalization with overlap
     ethr =  5.20E-04,  avg # of iterations =  2.0

     negative rho (up, down):  1.744E-04 1.732E-04

[...]

     iteration #  7     ecut=    50.00 Ry     beta= 0.30
     Davidson diagonalization with overlap
     ethr =  1.10E-08,  avg # of iterations =  3.0

     negative rho (up, down):  5.746E-05 5.748E-05

     total cpu time spent up to now is    13149.1 secs

     total energy              =   -1084.67341621 Ry
     estimated scf accuracy    <       0.00003103 Ry

     total magnetization       =     0.00 Bohr mag/cell
     absolute magnetization    =     0.01 Bohr mag/cell

     iteration #  8     ecut=    50.00 Ry     beta= 0.30
     Davidson diagonalization with overlap
     ethr =  1.10E-08,  avg # of iterations =  2.0

     negative rho (up, down):  5.511E-05 5.511E-05

     total cpu time spent up to now is    13153.0 secs

     total energy              =   -1084.67342717 Ry
     estimated scf accuracy    <       0.00000514 Ry

     total magnetization       =    -0.00 Bohr mag/cell
     absolute magnetization    =     0.00 Bohr mag/cell

     iteration #  9     ecut=    50.00 Ry     beta= 0.30
     Davidson diagonalization with overlap
     ethr =  2.23E-09,  avg # of iterations =  2.0

     negative rho (up, down):  5.392E-05 5.392E-05

     total cpu time spent up to now is    13156.7 secs

     total energy              =   -1084.67342965 Ry
     estimated scf accuracy    <       0.00000001 Ry

     total magnetization       =     0.00 Bohr mag/cell
     absolute magnetization    =     0.00 Bohr mag/cell

     iteration # 10     ecut=    50.00 Ry     beta= 0.30
     Davidson diagonalization with overlap
     ethr =  6.02E-12,  avg # of iterations =  3.5

     negative rho (up, down):  5.272E-05 5.272E-05

     Magnetic moment per site  (integrated on atomic sphere of radius R)
     atom   1 (R=0.013)  charge=  0.8247  magn=  0.0000
     atom   2 (R=0.013)  charge=  0.8248  magn=  0.0000
     atom   3 (R=0.013)  charge=  0.8240  magn= -0.0000
     atom   4 (R=0.013)  charge=  0.8246  magn= -0.0000
     atom   5 (R=0.013)  charge=  0.8247  magn= -0.0000
     atom   6 (R=0.013)  charge=  0.8248  magn= -0.0000
     atom   7 (R=0.013)  charge=  0.8240  magn=  0.0000
     atom   8 (R=0.013)  charge=  0.8246  magn=  0.0000
     atom   9 (R=0.013)  charge=  0.8239  magn= -0.0000
     atom  10 (R=0.013)  charge=  0.8239  magn= -0.0000
     atom  11 (R=0.013)  charge=  0.8242  magn=  0.0000
     atom  12 (R=0.013)  charge=  0.8238  magn=  0.0000
     atom  13 (R=0.013)  charge=  0.8247  magn=  0.0000
     atom  14 (R=0.013)  charge=  0.8246  magn=  0.0000
     atom  15 (R=0.013)  charge=  0.8249  magn= -0.0000
     atom  16 (R=0.013)  charge=  0.8244  magn=  0.0000
     atom  17 (R=0.013)  charge=  0.8243  magn=  0.0000
     atom  18 (R=0.013)  charge=  0.8248  magn= -0.0000
     atom  19 (R=0.013)  charge=  0.8243  magn=  0.0000
     atom  20 (R=0.013)  charge=  0.8243  magn= -0.0000
     atom  21 (R=0.013)  charge=  0.8247  magn=  0.0000
     atom  22 (R=0.013)  charge=  0.8245  magn= -0.0000
     atom  23 (R=0.013)  charge=  0.8247  magn=  0.0000
     atom  24 (R=0.013)  charge=  0.8245  magn=  0.0000
     atom  25 (R=0.013)  charge=  0.8241  magn= -0.0000
     atom  26 (R=0.013)  charge=  0.8248  magn=  0.0000
     atom  27 (R=0.013)  charge=  0.8248  magn= -0.0000
     atom  28 (R=0.013)  charge=  0.8243  magn= -0.0000
     atom  29 (R=0.013)  charge=  0.8247  magn= -0.0000
     atom  30 (R=0.013)  charge=  0.8246  magn= -0.0000
     atom  31 (R=0.013)  charge=  0.8249  magn=  0.0000
     atom  32 (R=0.013)  charge=  0.8244  magn= -0.0000
     atom  33 (R=0.013)  charge=  0.8243  magn= -0.0000
     atom  34 (R=0.013)  charge=  0.8248  magn=  0.0000
     atom  35 (R=0.013)  charge=  0.8243  magn= -0.0000
     atom  36 (R=0.013)  charge=  0.8244  magn=  0.0000
     atom  37 (R=0.013)  charge=  0.8247  magn= -0.0000
     atom  38 (R=0.013)  charge=  0.8245  magn=  0.0000
     atom  39 (R=0.013)  charge=  0.8247  magn= -0.0000
     atom  40 (R=0.013)  charge=  0.8245  magn= -0.0000
     atom  41 (R=0.013)  charge=  0.8241  magn=  0.0000
     atom  42 (R=0.013)  charge=  0.8248  magn= -0.0000
     atom  43 (R=0.013)  charge=  0.8248  magn=  0.0000
     atom  44 (R=0.013)  charge=  0.8243  magn=  0.0000
     atom  45 (R=0.013)  charge=  0.8239  magn=  0.0000
     atom  46 (R=0.013)  charge=  0.8239  magn=  0.0000
     atom  47 (R=0.013)  charge=  0.8242  magn= -0.0000
     atom  48 (R=0.013)  charge=  0.8238  magn= -0.0000
     atom  49 (R=0.013)  charge=  0.8249  magn= -0.0000
     atom  50 (R=0.013)  charge=  0.8248  magn= -0.0000
     atom  51 (R=0.013)  charge=  0.8246  magn=  0.0000
     atom  52 (R=0.013)  charge=  0.8248  magn=  0.0000
     atom  53 (R=0.013)  charge=  0.8249  magn=  0.0000
     atom  54 (R=0.013)  charge=  0.8247  magn=  0.0000
     atom  55 (R=0.013)  charge=  0.8246  magn= -0.0000
     atom  56 (R=0.013)  charge=  0.8248  magn= -0.0000
     atom  57 (R=0.010)  charge=  1.1686  magn=  0.0000
     atom  58 (R=0.010)  charge=  0.2361  magn= -0.0000

     total cpu time spent up to now is    13160.4 secs

     End of self-consistent calculation

 ------ SPIN UP ------------


          k = 0.0000 0.0000 0.0000 ( 29096 PWs)   bands (ev):

   -21.7022 -18.1607 -18.0547 -17.7958 -17.7534 -17.6600 -17.6515 -17.6243
   -17.6167 -17.6096 -17.5949 -17.5715 -17.5662 -17.5529 -17.5512 -17.5436
   -17.5365 -17.5136 -17.5007 -17.4956 -17.4690 -17.4595 -17.4470 -17.4295
   -17.4159 -17.3297 -17.3132 -17.3067 -17.1840 -10.7392 -10.6330 -10.3652
   -10.3363 -10.2309 -10.2212 -10.2001 -10.1921 -10.1882 -10.1818 -10.1512
   -10.1401 -10.1274 -10.1266 -10.1099 -10.0839 -10.0717 -10.0677 -10.0627
   -10.0553 -10.0479 -10.0374 -10.0346  -9.9927  -9.9081  -9.8887  -9.8850
    -9.7639  -8.4451  -7.4388  -7.3907  -7.3104  -7.2489  -7.1650  -7.0759
    -7.0592  -7.0419  -7.0219  -7.0081  -6.9873  -6.9675  -6.9510  -6.9474
    -6.9410  -6.9342  -6.9071  -6.8990  -6.8869  -6.8809  -6.8554  -6.8534
    -6.8465  -6.8255  -6.8221  -6.8208  -6.8067  -6.7830  -6.7761  -6.7612
    -6.7533  -6.7459  -6.7324  -6.7206  -6.7166  -6.7065  -6.7006  -6.6908
    -6.6785  -6.6669  -6.6488  -6.6457  -6.6081  -6.5918  -6.5795  -6.5356
    -6.5230  -6.5024  -6.4918  -6.4773  -6.4756  -6.4528  -6.4260  -6.3573
    -6.3519  -6.2650  -4.7629  -3.1926   1.6540   2.5300   2.7302   2.7934
     3.1139   3.1626   3.2030   3.2269   3.3853   3.4349   3.4522   3.6637
     3.7674   3.8434   3.8771   3.9398   4.0584   4.2552   4.3862   4.4212
     4.5286   4.5797   4.6324

 ------ SPIN DOWN ----------


          k = 0.0000 0.0000 0.0000 ( 29096 PWs)   bands (ev):

   -21.7022 -18.1607 -18.0547 -17.7958 -17.7534 -17.6600 -17.6515 -17.6243
   -17.6167 -17.6096 -17.5949 -17.5715 -17.5662 -17.5529 -17.5512 -17.5436
   -17.5365 -17.5136 -17.5007 -17.4956 -17.4690 -17.4595 -17.4470 -17.4295
   -17.4159 -17.3297 -17.3132 -17.3067 -17.1840 -10.7392 -10.6330 -10.3652
   -10.3363 -10.2309 -10.2213 -10.2001 -10.1921 -10.1882 -10.1818 -10.1512
   -10.1401 -10.1274 -10.1266 -10.1099 -10.0839 -10.0717 -10.0677 -10.0627
   -10.0553 -10.0478 -10.0374 -10.0346  -9.9927  -9.9081  -9.8887  -9.8850
    -9.7639  -8.4451  -7.4388  -7.3907  -7.3104  -7.2489  -7.1650  -7.0759
    -7.0592  -7.0419  -7.0219  -7.0081  -6.9873  -6.9675  -6.9510  -6.9474
    -6.9410  -6.9342  -6.9071  -6.8990  -6.8869  -6.8809  -6.8554  -6.8534
    -6.8465  -6.8255  -6.8221  -6.8208  -6.8067  -6.7830  -6.7761  -6.7612
    -6.7533  -6.7459  -6.7324  -6.7206  -6.7166  -6.7065  -6.7006  -6.6908
    -6.6785  -6.6669  -6.6488  -6.6457  -6.6081  -6.5918  -6.5795  -6.5356
    -6.5230  -6.5024  -6.4918  -6.4773  -6.4756  -6.4528  -6.4260  -6.3573
    -6.3519  -6.2650  -4.7629  -3.1926   1.6540   2.5300   2.7302   2.7934
     3.1139   3.1626   3.2030   3.2269   3.3853   3.4349   3.4522   3.6637
     3.7674   3.8434   3.8771   3.9398   4.0584   4.2552   4.3862   4.4212
     4.5286   4.5797   4.6324

     the spin up/dw Fermi energies are    -3.1926   -3.1926 ev

!    total energy              =   -1084.67343119 Ry
     estimated scf accuracy    <          4.3E-09 Ry
     smearing contrib. (-TS)   =      -0.00005642 Ry
     internal energy E=F+TS    =   -1084.67337477 Ry

     The total energy is F=E-TS. E is the sum of the following terms:
     one-electron contribution =   -1459.83831733 Ry
     hartree contribution      =     780.89974429 Ry
     xc contribution           =    -266.96840742 Ry
     ewald contribution        =     215.26028764 Ry
     one-center paw contrib.   =    -354.02668195 Ry

     total magnetization       =    -0.00 Bohr mag/cell
     absolute magnetization    =     0.00 Bohr mag/cell

     convergence has been achieved in  10 iterations

     negative rho (up, down):  5.272E-05 5.272E-05

     Forces acting on atoms (cartesian axes, Ry/au):

     atom    1 type  1   force =    -0.00018207   -0.00004922   -0.00003915
     atom    2 type  1   force =     0.00009853    0.00031092    0.00047272
     atom    3 type  1   force =    -0.00036568    0.00017542    0.00011532
     atom    4 type  1   force =     0.00013797   -0.00032171   -0.00001879
     atom    5 type  1   force =    -0.00019310   -0.00004424    0.00004479
     atom    6 type  1   force =     0.00010845    0.00031030   -0.00046381
     atom    7 type  1   force =    -0.00039236    0.00017538   -0.00011198
     atom    8 type  1   force =     0.00015661   -0.00032324    0.00002336
     atom    9 type  1   force =     0.00013784    0.00002188   -0.00027997
     atom   10 type  1   force =    -0.00022356    0.00020554   -0.00014737
     atom   11 type  1   force =    -0.00074118    0.00080860   -0.00005546
     atom   12 type  1   force =    -0.00013897    0.00010717    0.00009277
     atom   13 type  1   force =     0.00006691    0.00004620    0.00016070
     atom   14 type  1   force =    -0.00036874   -0.00055817    0.00014411
     atom   15 type  1   force =     0.00024365    0.00028842   -0.00019953
     atom   16 type  1   force =    -0.00001391    0.00020835   -0.00006014
     atom   17 type  1   force =     0.00007057    0.00023384    0.00001817
     atom   18 type  1   force =     0.00011913   -0.00005156   -0.00018450
     atom   19 type  1   force =    -0.00018461   -0.00041436   -0.00002011
     atom   20 type  1   force =    -0.00025029   -0.00005146    0.00026255
     atom   21 type  1   force =     0.00025304    0.00009258    0.00006699
     atom   22 type  1   force =     0.00022666    0.00019442   -0.00032511
     atom   23 type  1   force =     0.00014679   -0.00011355   -0.00023521
     atom   24 type  1   force =     0.00014144    0.00014974   -0.00005632
     atom   25 type  1   force =     0.00014185   -0.00024926    0.00024263
     atom   26 type  1   force =     0.00016786   -0.00024123   -0.00014768
     atom   27 type  1   force =     0.00018488   -0.00006134    0.00019091
     atom   28 type  1   force =     0.00006949   -0.00086180   -0.00004888
     atom   29 type  1   force =     0.00006351    0.00003653   -0.00015580
     atom   30 type  1   force =    -0.00036574   -0.00055079   -0.00014373
     atom   31 type  1   force =     0.00024699    0.00028206    0.00020457
     atom   32 type  1   force =    -0.00001801    0.00021635    0.00006319
     atom   33 type  1   force =     0.00006865    0.00022753   -0.00001798
     atom   34 type  1   force =     0.00012485   -0.00004601    0.00019122
     atom   35 type  1   force =    -0.00018007   -0.00042126    0.00001913
     atom   36 type  1   force =    -0.00025422   -0.00004413   -0.00026072
     atom   37 type  1   force =     0.00025028    0.00009005   -0.00006101
     atom   38 type  1   force =     0.00022970    0.00019861    0.00032295
     atom   39 type  1   force =     0.00014776   -0.00011829    0.00024090
     atom   40 type  1   force =     0.00013976    0.00015211    0.00005823
     atom   41 type  1   force =     0.00013932   -0.00025457   -0.00023739
     atom   42 type  1   force =     0.00016875   -0.00023730    0.00015318
     atom   43 type  1   force =     0.00018812   -0.00006342   -0.00018147
     atom   44 type  1   force =     0.00006489   -0.00085679    0.00005372
     atom   45 type  1   force =     0.00011439    0.00001628    0.00028663
     atom   46 type  1   force =    -0.00018449    0.00021298    0.00014946
     atom   47 type  1   force =    -0.00080838    0.00080916    0.00006158
     atom   48 type  1   force =    -0.00006890    0.00010766   -0.00008605
     atom   49 type  1   force =     0.00016651   -0.00018313   -0.00017826
     atom   50 type  1   force =    -0.00013315    0.00015273    0.00007696
     atom   51 type  1   force =    -0.00010425    0.00001279   -0.00004968
     atom   52 type  1   force =     0.00006265    0.00006513   -0.00012835
     atom   53 type  1   force =     0.00014519   -0.00026060    0.00016976
     atom   54 type  1   force =    -0.00010844    0.00013035   -0.00006928
     atom   55 type  1   force =    -0.00015469    0.00001304    0.00005432
     atom   56 type  1   force =     0.00012615    0.00006540    0.00013112
     atom   57 type  2   force =     0.00043492    0.00036198   -0.00023270
     atom   58 type  3   force =     0.00008073   -0.00010206    0.00012448

     Total force =     0.003235     Total SCF correction =     0.000072
     Energy error            =      3.5E-05 Ry
     Gradient error          =      8.6E-04 Ry/Bohr

     bfgs converged in 157 scf cycles and 143 bfgs steps
     (criteria: energy <  1.0E-04 Ry, force <  1.0E-03 Ry/Bohr)

     End of BFGS Geometry Optimization

     Final energy             =   -1084.6734311922 Ry

     File ./pwscf.bfgs deleted, as requested
Begin final coordinates

ATOMIC_POSITIONS (angstrom)
C             4.9254822552        0.5834360241        2.4703941708
C            28.3609637477        0.0950257349        2.4701679180
C            25.9049347833        7.6875873011        2.4702165396
C             7.2776780439        8.9592624610        2.4703563879
C             4.9254862685        0.5834342243        1.2338875146
C            28.3609598799        0.0950265273        1.2337416770
C            25.9049453894        7.6875872689        1.2337344379
C             7.2776697789        8.9592629635        1.2338530911
C             2.7882680342       14.7830129446        1.2335198950
C            31.5923595810       -2.5014612897        1.2339280951
C            21.2944002772        8.7087742634        1.2333081266
C            11.6399301723        8.7720837223        1.2330599604
C            12.9570588058        0.6700609001        2.4700846209
C            22.0905676908       15.5250223591        2.4701877603
C            22.9728164348        1.3932533056        2.4700622227
C             9.1289194483       16.5983628306        2.4704806684
C            28.4857371469       10.6547899830        2.4698687268
C             4.3552520327        5.4997785638        2.4706482339
C             3.5727798172       10.6760088119        2.4696435060
C            29.9948089831        6.2895608918        2.4708008573
C             7.9660596496        3.1903934377        2.4704247731
C            26.5165114823       14.3509836182        2.4708676917
C            26.5151071871        3.6950896787        2.4704753104
C             6.7727870904       13.1425139017        2.4706456064
C            23.5058906331       11.8482227770        2.4702344875
C            11.8205647665        4.7640163333        2.4702080218
C            11.0786134474       12.9084615176        2.4703363257
C            22.5260787855        5.2552397578        2.4704669117
C            12.9570601026        0.6700649208        1.2336095201
C            22.0905661706       15.5250188062        1.2337103456
C            22.9728151545        1.3932558547        1.2335303656
C             9.1289204740       16.5983590693        1.2339709679
C            28.4857378490       10.6547926775        1.2333716782
C             4.3552003142        5.4997797922        1.2341187080
C             3.5727836503       10.6760200027        1.2331405607
C            29.9947697124        6.2895447006        1.2343418882
C             7.9660603479        3.1903951227        1.2339347348
C            26.5165100743       14.3509816044        1.2343166728
C            26.5151070564        3.6950921208        1.2339378834
C             6.7727871366       13.1425124262        1.2341366013
C            23.5058911625       11.8482246811        1.2337721911
C            11.8205641952        4.7640146055        1.2336843905
C            11.0786119216       12.9084624274        1.2338656073
C            22.5260805009        5.2552373116        1.2339588287
C             2.7882775299       14.7830150039        2.4699753824
C            31.5923435130       15.2785345907        2.4704047018
C            21.2944277229        8.7087739834        2.4697989508
C            11.6399014086        8.7720832452        2.4695740014
C            -0.3879951358       11.3187388956        2.4270779782
C            33.7754875895       20.4986723043        2.4696656936
C            17.6543900429        6.7652629632        2.4700582057
C            15.3790270067       10.7385917367        2.4701724141
C            -0.3879881465       11.3187775349        1.1905508629
C            33.7754797940       20.4987147458        1.2331773180
C            17.6544101431        6.7652626745        1.2335501014
C            15.3790008324       10.7385914239        1.2336520220
O             0.8158517052       25.0666131361        2.3414482207
H             1.1462885581       24.1118208246        2.3378896643
End final coordinates



     Writing all to output data dir ./pwscf.save/

     init_run     :      5.86s CPU      6.05s WALL (       1 calls)
     electrons    :  11300.08s CPU  11745.54s WALL (     158 calls)
     update_pot   :    620.20s CPU    629.95s WALL (     156 calls)
     forces       :    569.83s CPU    587.90s WALL (     158 calls)

     Called by init_run:
     wfcinit      :      1.08s CPU      1.11s WALL (       1 calls)
     potinit      :      4.81s CPU      4.96s WALL (       2 calls)
     hinit0       :      1.90s CPU      1.93s WALL (       1 calls)

     Called by electrons:
     c_bands      :   6109.25s CPU   6220.21s WALL (    3189 calls)
     sum_band     :   1530.05s CPU   1611.88s WALL (    3189 calls)
     v_of_rho     :   1784.90s CPU   1900.89s WALL (    3347 calls)
     newd         :    479.65s CPU    536.71s WALL (    3347 calls)
     PAW_pot      :   1118.67s CPU   1125.60s WALL (    3503 calls)
     mix_rho      :    265.04s CPU    281.08s WALL (    3189 calls)

     Called by c_bands:
     init_us_2    :     70.53s CPU     72.03s WALL (    6535 calls)
     init_us_2:cp :     70.49s CPU     72.02s WALL (    6535 calls)
     regterg      :   5896.29s CPU   6004.91s WALL (    3203 calls)

     Called by *egterg:
     rdiaghg      :    250.76s CPU    252.26s WALL (   17492 calls)
     h_psi        :   3692.49s CPU   3765.10s WALL (   17656 calls)
     s_psi        :    568.48s CPU    572.41s WALL (   17656 calls)
     g_psi        :      9.70s CPU      9.83s WALL (   14452 calls)

     Called by h_psi:
     h_psi:calbec :    527.61s CPU    533.18s WALL (   17656 calls)
     vloc_psi     :   2559.78s CPU   2622.38s WALL (   17656 calls)
     add_vuspsi   :    573.81s CPU    577.97s WALL (   17656 calls)

     General routines
     calbec       :    767.84s CPU    775.72s WALL (   21633 calls)
     fft          :    953.66s CPU   1063.58s WALL (   71773 calls)
     ffts         :     41.58s CPU     44.59s WALL (   13072 calls)
     fftw         :   2399.73s CPU   2455.61s WALL ( 1322664 calls)
     interpolate  :    139.78s CPU    150.61s WALL (    6694 calls)

     Parallel routines

     PWSCF        :      3h31m CPU      3h39m WALL


   This run was terminated on:  19:45:59  25May2025            

=------------------------------------------------------------------------------=
   JOB DONE.
=------------------------------------------------------------------------------=
