ITEM: TIMESTEP
0
ITEM: NUMBER OF ATOMS
57
ITEM: BOX BOUNDS pp pp pp
0.0000000000000000e+00 3.2808000000000000e+01
0.0000000000000000e+00 1.7780000000000001e+01
0.0000000000000000e+00 2.4729999999999999e+00
ITEM: ATOMS id type x y z 
13 1 7.043 0.849 2.464 
29 1 7.397 1.432 1.228 
37 1 8.035 2.733 1.228 
1 1 6.173 17.398 2.464 
5 1 5.371 17.398 1.228 
9 1 3.973 17.398 1.228 
16 1 7.043 16.167 2.464 
32 1 7.397 15.584 1.228 
40 1 8.035 14.283 1.228 
45 1 3.236 17.398 2.464 
49 1 1.81 17.398 2.464 
53 1 1.083 17.398 1.228 
57 2 1.091 16.296 1.224 
4 1 10.968 8.508 2.464 
8 1 11.771 8.508 1.228 
12 1 13.168 8.508 1.228 
18 1 10.098 7.277 2.464 
21 1 8.308 3.392 2.464 
26 1 8.833 4.734 2.464 
34 1 9.745 6.694 1.228 
42 1 9.106 5.393 1.228 
48 1 13.906 8.508 2.464 
52 1 15.331 8.508 2.464 
56 1 16.058 8.508 1.228 
19 1 10.098 9.739 2.464 
24 1 8.308 13.624 2.464 
27 1 8.833 12.282 2.464 
35 1 9.745 10.322 1.228 
43 1 9.106 11.623 1.228 
3 1 22.577 8.508 2.464 
7 1 21.775 8.508 1.228 
11 1 20.377 8.508 1.228 
20 1 23.447 7.277 2.464 
36 1 23.801 6.694 1.228 
44 1 24.439 5.393 1.228 
47 1 19.64 8.508 2.464 
51 1 18.214 8.508 2.464 
55 1 17.487 8.508 1.228 
17 1 23.447 9.739 2.464 
33 1 23.801 10.322 1.228 
41 1 24.439 11.623 1.228 
15 1 26.502 0.849 2.464 
23 1 25.237 3.392 2.464 
28 1 24.712 4.734 2.464 
31 1 26.149 1.432 1.228 
39 1 25.511 2.733 1.228 
2 1 27.373 17.398 2.464 
6 1 28.175 17.398 1.228 
10 1 29.572 17.398 1.228 
14 1 26.502 16.167 2.464 
22 1 25.237 13.624 2.464 
25 1 24.712 12.282 2.464 
30 1 26.149 15.584 1.228 
38 1 25.511 14.283 1.228 
46 1 30.31 17.398 2.464 
50 1 31.735 17.398 2.464 
54 1 32.462 17.398 1.228 
ITEM: TIMESTEP
10
ITEM: NUMBER OF ATOMS
57
ITEM: BOX BOUNDS pp pp pp
0.0000000000000000e+00 3.2808000000000000e+01
0.0000000000000000e+00 1.7780000000000001e+01
0.0000000000000000e+00 2.4729999999999999e+00
ITEM: ATOMS id type x y z 
13 1 7.05363 0.852246 2.46423 
29 1 7.40334 1.43685 1.22777 
37 1 8.03858 2.73778 1.22777 
1 1 6.18923 17.3981 2.46425 
5 1 5.38503 17.3968 1.22773 
9 1 3.99465 17.3956 1.22772 
16 1 7.05372 16.1638 2.46423 
32 1 7.40339 15.5791 1.22777 
40 1 8.03861 14.2782 1.22777 
45 1 3.23352 17.4107 2.46417 
49 1 1.84848 17.547 2.46374 
53 1 1.10451 17.3212 1.22721 
57 2 1.06011 16.1525 1.22508 
4 1 10.9718 8.50799 2.46425 
8 1 11.7743 8.508 1.22774 
12 1 13.1699 8.508 1.22776 
18 1 10.0986 7.27944 2.46424 
21 1 8.31056 3.39799 2.46424 
26 1 8.8339 4.73625 2.46424 
34 1 9.7452 6.69759 1.22776 
42 1 9.10779 5.39815 1.22776 
48 1 13.9073 8.508 2.46424 
52 1 15.3349 8.508 2.46424 
56 1 16.0587 8.508 1.22776 
19 1 10.0986 9.73655 2.46424 
24 1 8.31058 13.618 2.46424 
27 1 8.83391 12.2797 2.46424 
35 1 9.74521 10.3184 1.22776 
43 1 9.1078 11.6178 1.22776 
3 1 22.5748 8.508 2.46425 
7 1 21.773 8.508 1.22774 
11 1 20.3764 8.508 1.22776 
20 1 23.4467 7.27811 2.46424 
36 1 23.8003 6.6959 1.22776 
44 1 24.4374 5.39596 1.22776 
47 1 19.6394 8.508 2.46424 
51 1 18.2138 8.508 2.46424 
55 1 17.4887 8.508 1.22776 
17 1 23.4467 9.73789 2.46424 
33 1 23.8003 10.3201 1.22776 
41 1 24.4374 11.62 1.22776 
15 1 26.4946 0.851889 2.46423 
23 1 25.2361 3.39551 2.46424 
28 1 24.7112 4.73504 2.46424 
31 1 26.1441 1.43703 1.22776 
39 1 25.5089 2.73653 1.22776 
2 1 27.3575 17.398 2.46425 
6 1 28.1664 17.398 1.22775 
10 1 29.5649 17.3977 1.22775 
14 1 26.4946 16.1641 2.46423 
22 1 25.2361 13.6205 2.46424 
25 1 24.7112 12.281 2.46424 
30 1 26.1441 15.579 1.22776 
38 1 25.5089 14.2795 1.22776 
46 1 30.2881 17.3974 2.46424 
50 1 31.7276 17.4069 2.46431 
54 1 32.4168 17.4523 1.22781 
ITEM: TIMESTEP
20
ITEM: NUMBER OF ATOMS
57
ITEM: BOX BOUNDS pp pp pp
0.0000000000000000e+00 3.2808000000000000e+01
0.0000000000000000e+00 1.7780000000000001e+01
0.0000000000000000e+00 2.4729999999999999e+00
ITEM: ATOMS id type x y z 
13 1 7.05209 0.84888 2.46423 
29 1 7.40447 1.43346 1.22776 
37 1 8.03753 2.73497 1.22776 
1 1 6.18216 17.398 2.46424 
5 1 5.37586 17.3936 1.22771 
9 1 3.98632 17.4004 1.22762 
16 1 7.05307 16.1674 2.46423 
32 1 7.40504 15.5823 1.22776 
40 1 8.03781 14.2807 1.22776 
45 1 3.22796 17.4427 2.46406 
49 1 1.84004 17.5349 2.46371 
53 1 1.09868 17.2819 1.22719 
57 2 1.07452 16.138 1.22551 
4 1 10.972 8.5078 2.46425 
8 1 11.7722 8.50794 1.22775 
12 1 13.1673 8.508 1.22776 
18 1 10.0971 7.27966 2.46424 
21 1 8.31012 3.39637 2.46424 
26 1 8.83376 4.73655 2.46424 
34 1 9.74225 6.69728 1.22776 
42 1 9.10565 5.39558 1.22776 
48 1 13.9062 8.508 2.46424 
52 1 15.3333 8.508 2.46424 
56 1 16.0595 8.508 1.22776 
19 1 10.0972 9.73609 2.46424 
24 1 8.31029 13.6193 2.46424 
27 1 8.83386 12.2791 2.46424 
35 1 9.74235 10.3184 1.22776 
43 1 9.10574 11.6201 1.22776 
3 1 22.5764 8.50799 2.46425 
7 1 21.775 8.508 1.22774 
11 1 20.3786 8.508 1.22776 
20 1 23.449 7.27879 2.46424 
36 1 23.8026 6.69638 1.22776 
44 1 24.4387 5.39521 1.22776 
47 1 19.6411 8.508 2.46424 
51 1 18.2144 8.508 2.46424 
55 1 17.4882 8.508 1.22776 
17 1 23.449 9.73721 2.46424 
33 1 23.8026 10.3196 1.22776 
41 1 24.4387 11.6208 1.22776 
15 1 26.4947 0.848491 2.46424 
23 1 25.2363 3.39501 2.46424 
28 1 24.7114 4.73503 2.46424 
31 1 26.1434 1.43228 1.22776 
39 1 25.5092 2.73453 1.22776 
2 1 27.3642 17.398 2.46425 
6 1 28.1701 17.3975 1.22775 
10 1 29.5688 17.3964 1.22776 
14 1 26.4947 16.1675 2.46424 
22 1 25.2363 13.621 2.46424 
25 1 24.7114 12.281 2.46424 
30 1 26.1434 15.5837 1.22776 
38 1 25.5092 14.2814 1.22776 
46 1 30.2935 17.4005 2.46425 
50 1 31.7359 17.4318 2.46423 
54 1 32.4212 17.4605 1.22772 
ITEM: TIMESTEP
30
ITEM: NUMBER OF ATOMS
57
ITEM: BOX BOUNDS pp pp pp
0.0000000000000000e+00 3.2808000000000000e+01
0.0000000000000000e+00 1.7780000000000001e+01
0.0000000000000000e+00 2.4729999999999999e+00
ITEM: ATOMS id type x y z 
13 1 7.04108 0.846618 2.46426 
29 1 7.39901 1.42566 1.22771 
37 1 8.03371 2.73138 1.22772 
1 1 6.17072 17.3959 2.46414 
5 1 5.36047 17.3908 1.22763 
9 1 3.97764 17.45 1.22736 
16 1 7.04727 16.1706 2.46426 
32 1 7.40363 15.5893 1.22771 
40 1 8.03561 14.2827 1.22772 
45 1 3.21157 17.5081 2.46385 
49 1 1.82791 17.4964 2.46369 
53 1 1.09163 17.202 1.22722 
57 2 1.10262 16.0663 1.22675 
4 1 10.9683 8.50658 2.46424 
8 1 11.7703 8.50722 1.22776 
12 1 13.168 8.50798 1.22773 
18 1 10.0961 7.27667 2.46427 
21 1 8.3054 3.38825 2.46428 
26 1 8.8321 4.73152 2.46428 
34 1 9.73968 6.69358 1.22773 
42 1 9.10507 5.39066 1.22772 
48 1 13.9062 8.50803 2.46427 
52 1 15.331 8.50801 2.46427 
56 1 16.0571 8.508 1.22773 
19 1 10.0966 9.73708 2.46427 
24 1 8.30662 13.6255 2.46428 
27 1 8.83275 12.2821 2.46428 
35 1 9.74035 10.3201 1.22773 
43 1 9.1056 11.623 1.22772 
3 1 22.5782 8.50782 2.46424 
7 1 21.7754 8.50794 1.22776 
11 1 20.3781 8.508 1.22773 
20 1 23.4504 7.27813 2.46428 
36 1 23.806 6.69473 1.22773 
44 1 24.4395 5.39136 1.22772 
47 1 19.6399 8.508 2.46427 
51 1 18.2146 8.508 2.46427 
55 1 17.4879 8.508 1.22773 
17 1 23.4503 9.73764 2.46428 
33 1 23.8059 10.321 1.22773 
41 1 24.4394 11.6243 1.22772 
15 1 26.5006 0.845337 2.46428 
23 1 25.2395 3.38998 2.46428 
28 1 24.7123 4.73267 2.46428 
31 1 26.1437 1.42619 1.22773 
39 1 25.511 2.7323 1.22772 
2 1 27.3793 17.398 2.46425 
6 1 28.1763 17.3942 1.22776 
10 1 29.5765 17.3969 1.22771 
14 1 26.4997 16.1709 2.46428 
22 1 25.2393 13.6257 2.46428 
25 1 24.7123 12.283 2.46428 
30 1 26.1432 15.5896 1.22773 
38 1 25.5108 14.2834 1.22772 
46 1 30.3146 17.4247 2.46423 
50 1 31.7469 17.4911 2.46401 
54 1 32.4265 17.475 1.22745 
ITEM: TIMESTEP
40
ITEM: NUMBER OF ATOMS
57
ITEM: BOX BOUNDS pp pp pp
0.0000000000000000e+00 3.2808000000000000e+01
0.0000000000000000e+00 1.7780000000000001e+01
0.0000000000000000e+00 2.4729999999999999e+00
ITEM: ATOMS id type x y z 
13 1 7.0338 0.847403 2.4642 
29 1 7.39023 1.42892 1.22773 
37 1 8.02917 2.72993 1.22776 
1 1 6.16626 17.3939 2.46412 
5 1 5.36074 17.402 1.22755 
9 1 3.97308 17.4795 1.22738 
16 1 7.04072 16.1684 2.4642 
32 1 7.3976 15.5864 1.22773 
40 1 8.03229 14.2837 1.22776 
45 1 3.21261 17.5108 2.46384 
49 1 1.82659 17.4733 2.46376 
53 1 1.08859 17.1973 1.22725 
57 2 1.10209 16.0438 1.22707 
4 1 10.9657 8.50591 2.46425 
8 1 11.7669 8.50641 1.22775 
12 1 13.1663 8.50785 1.22776 
18 1 10.0973 7.27237 2.46424 
21 1 8.30345 3.38796 2.46423 
26 1 8.8328 4.72879 2.46423 
34 1 9.74397 6.6894 1.22776 
42 1 9.10713 5.38649 1.22777 
48 1 13.9046 8.50807 2.46424 
52 1 15.3298 8.50805 2.46424 
56 1 16.058 8.50801 1.22777 
19 1 10.0979 9.73998 2.46424 
24 1 8.30527 13.6249 2.46423 
27 1 8.83367 12.2838 2.46423 
35 1 9.7448 10.3231 1.22776 
43 1 9.10794 11.626 1.22777 
3 1 22.5795 8.50748 2.46426 
7 1 21.7785 8.50774 1.22775 
11 1 20.379 8.50799 1.22776 
20 1 23.4485 7.27442 2.46424 
36 1 23.8021 6.69128 1.22776 
44 1 24.4377 5.38818 1.22777 
47 1 19.6407 8.50801 2.46424 
51 1 18.2155 8.508 2.46424 
55 1 17.4873 8.508 1.22777 
17 1 23.4483 9.74077 2.46424 
33 1 23.8018 10.3239 1.22776 
41 1 24.4374 11.6269 1.22777 
15 1 26.5081 0.846738 2.46424 
23 1 25.2412 3.38909 2.46423 
28 1 24.7119 4.73003 2.46423 
31 1 26.1511 1.42818 1.22776 
39 1 25.5148 2.73083 1.22777 
2 1 27.3805 17.3974 2.46425 
6 1 28.1822 17.3934 1.22774 
10 1 29.58 17.4091 1.22768 
14 1 26.5059 16.1698 2.46424 
22 1 25.2408 13.626 2.46423 
25 1 24.7116 12.2851 2.46423 
30 1 26.1493 15.5874 1.22776 
38 1 25.5141 14.2844 1.22777 
46 1 30.3154 17.4408 2.46414 
50 1 31.7485 17.4901 2.46396 
54 1 32.4309 17.4704 1.22745 
ITEM: TIMESTEP
50
ITEM: NUMBER OF ATOMS
57
ITEM: BOX BOUNDS pp pp pp
0.0000000000000000e+00 3.2808000000000000e+01
0.0000000000000000e+00 1.7780000000000001e+01
0.0000000000000000e+00 2.4729999999999999e+00
ITEM: ATOMS id type x y z 
13 1 7.0342 0.848397 2.46419 
29 1 7.38859 1.43089 1.2277 
37 1 8.02796 2.73172 1.22774 
1 1 6.16674 17.3941 2.46409 
5 1 5.35939 17.4052 1.22756 
9 1 3.97366 17.4837 1.22739 
16 1 7.03872 16.1664 2.46419 
32 1 7.39498 15.5844 1.2277 
40 1 8.03129 14.2824 1.22774 
45 1 3.21094 17.5129 2.46387 
49 1 1.8254 17.473 2.46379 
53 1 1.09116 17.1848 1.22729 
57 2 1.09709 16.0418 1.2271 
4 1 10.9676 8.50617 2.46425 
8 1 11.7695 8.5063 1.22775 
12 1 13.1679 8.50772 1.22775 
18 1 10.0996 7.27318 2.46425 
21 1 8.30333 3.38965 2.46424 
26 1 8.83425 4.72948 2.46425 
34 1 9.74657 6.68952 1.22775 
42 1 9.10945 5.38753 1.22775 
48 1 13.9058 8.50806 2.46425 
52 1 15.3309 8.50808 2.46425 
56 1 16.0583 8.50803 1.22775 
19 1 10.1 9.73942 2.46425 
24 1 8.3052 13.6236 2.46424 
27 1 8.83499 12.2834 2.46425 
35 1 9.74716 10.3233 1.22775 
43 1 9.11015 11.6253 1.22775 
3 1 22.5781 8.50723 2.46425 
7 1 21.7762 8.50751 1.22775 
11 1 20.3779 8.50796 1.22775 
20 1 23.4463 7.27446 2.46425 
36 1 23.7993 6.69082 1.22775 
44 1 24.4359 5.38776 1.22775 
47 1 19.6401 8.50802 2.46425 
51 1 18.2148 8.50801 2.46425 
55 1 17.4875 8.508 1.22775 
17 1 23.446 9.7403 2.46425 
33 1 23.7989 10.3239 1.22775 
41 1 24.4356 11.6269 1.22775 
15 1 26.5096 0.848452 2.46425 
23 1 25.2415 3.39024 2.46425 
28 1 24.7107 4.7302 2.46425 
31 1 26.154 1.43043 1.22775 
39 1 25.5164 2.73177 1.22775 
2 1 27.3801 17.3969 2.46423 
6 1 28.1818 17.3947 1.22772 
10 1 29.5804 17.4164 1.22765 
14 1 26.5066 16.1679 2.46425 
22 1 25.2408 13.6246 2.46425 
25 1 24.7103 12.2846 2.46425 
30 1 26.1514 15.5852 1.22775 
38 1 25.5153 14.2832 1.22775 
46 1 30.3128 17.4457 2.46413 
50 1 31.7507 17.4877 2.46397 
54 1 32.4323 17.4667 1.22745 
ITEM: TIMESTEP
60
ITEM: NUMBER OF ATOMS
57
ITEM: BOX BOUNDS pp pp pp
0.0000000000000000e+00 3.2808000000000000e+01
0.0000000000000000e+00 1.7780000000000001e+01
0.0000000000000000e+00 2.4729999999999999e+00
ITEM: ATOMS id type x y z 
13 1 7.03322 0.849064 2.46417 
29 1 7.38577 1.43242 1.22768 
37 1 8.02531 2.73332 1.22773 
1 1 6.16541 17.3947 2.46409 
5 1 5.35814 17.4093 1.22756 
9 1 3.97258 17.4898 1.22743 
16 1 7.03387 16.1645 2.46417 
32 1 7.38953 15.5825 1.22768 
40 1 8.02848 14.2816 1.22773 
45 1 3.20965 17.5161 2.46391 
49 1 1.82554 17.4668 2.46384 
53 1 1.09185 17.1764 1.22734 
57 2 1.09068 16.0332 1.22716 
4 1 10.9678 8.50664 2.46425 
8 1 11.7699 8.50646 1.22775 
12 1 13.1681 8.50757 1.22775 
18 1 10.1012 7.27268 2.46425 
21 1 8.30205 3.39045 2.46423 
26 1 8.83597 4.72915 2.46424 
34 1 9.74929 6.68853 1.22775 
42 1 9.11193 5.38662 1.22775 
48 1 13.9057 8.50799 2.46425 
52 1 15.3312 8.50812 2.46425 
56 1 16.0583 8.50806 1.22775 
19 1 10.1013 9.74061 2.46425 
24 1 8.30405 13.6237 2.46423 
27 1 8.83654 12.2845 2.46424 
35 1 9.74949 10.3249 1.22775 
43 1 9.11237 11.6269 1.22775 
3 1 22.5782 8.50699 2.46425 
7 1 21.7762 8.50719 1.22775 
11 1 20.378 8.50789 1.22775 
20 1 23.4448 7.27303 2.46425 
36 1 23.7965 6.6888 1.22775 
44 1 24.4334 5.38666 1.22775 
47 1 19.6404 8.50803 2.46425 
51 1 18.2149 8.50803 2.46425 
55 1 17.4878 8.50801 1.22775 
17 1 23.4445 9.74119 2.46425 
33 1 23.7962 10.3255 1.22775 
41 1 24.433 11.6276 1.22775 
15 1 26.5129 0.849388 2.46424 
23 1 25.2429 3.39027 2.46425 
28 1 24.7093 4.72908 2.46425 
31 1 26.1588 1.43207 1.22775 
39 1 25.5193 2.73279 1.22775 
2 1 27.3817 17.3963 2.46422 
6 1 28.1828 17.3968 1.2277 
10 1 29.5819 17.4269 1.22762 
14 1 26.5096 16.1665 2.46424 
22 1 25.2419 13.6242 2.46425 
25 1 24.7089 12.2852 2.46425 
30 1 26.1553 15.5835 1.22775 
38 1 25.5176 14.282 1.22775 
46 1 30.3154 17.4541 2.4641 
50 1 31.7519 17.4839 2.46398 
54 1 32.4325 17.4593 1.22747 
ITEM: TIMESTEP
70
ITEM: NUMBER OF ATOMS
57
ITEM: BOX BOUNDS pp pp pp
0.0000000000000000e+00 3.2808000000000000e+01
0.0000000000000000e+00 1.7780000000000001e+01
0.0000000000000000e+00 2.4729999999999999e+00
ITEM: ATOMS id type x y z 
13 1 7.03284 0.849149 2.46417 
29 1 7.38519 1.43316 1.22767 
37 1 8.0241 2.73385 1.22772 
1 1 6.16426 17.3952 2.46409 
5 1 5.35756 17.4107 1.22756 
9 1 3.97128 17.4929 1.22744 
16 1 7.03134 16.164 2.46417 
32 1 7.38688 15.5814 1.22767 
40 1 8.02673 14.2815 1.22772 
45 1 3.20853 17.518 2.46393 
49 1 1.82465 17.4633 2.46386 
53 1 1.09198 17.1703 1.22736 
57 2 1.08844 16.0275 1.22719 
4 1 10.9679 8.50702 2.46425 
8 1 11.7699 8.50678 1.22775 
12 1 13.1679 8.50755 1.22775 
18 1 10.1019 7.2727 2.46425 
21 1 8.30142 3.39133 2.46423 
26 1 8.83684 4.72907 2.46424 
34 1 9.75052 6.6884 1.22775 
42 1 9.11344 5.38665 1.22774 
48 1 13.9057 8.50792 2.46425 
52 1 15.3309 8.50812 2.46425 
56 1 16.0582 8.50809 1.22775 
19 1 10.1019 9.7412 2.46425 
24 1 8.30341 13.6234 2.46423 
27 1 8.83736 12.2852 2.46424 
35 1 9.75051 10.3256 1.22775 
43 1 9.11371 11.6274 1.22774 
3 1 22.5786 8.5069 2.46425 
7 1 21.776 8.50708 1.22775 
11 1 20.3782 8.50784 1.22775 
20 1 23.4443 7.2726 2.46425 
36 1 23.7957 6.68773 1.22775 
44 1 24.432 5.38644 1.22775 
47 1 19.6405 8.50802 2.46425 
51 1 18.2147 8.50804 2.46425 
55 1 17.4875 8.50803 1.22775 
17 1 23.444 9.74147 2.46425 
33 1 23.7954 10.3264 1.22775 
41 1 24.4316 11.6277 1.22775 
15 1 26.5143 0.849548 2.46424 
23 1 25.2437 3.39036 2.46425 
28 1 24.7086 4.72833 2.46425 
31 1 26.1608 1.43237 1.22774 
39 1 25.5206 2.73374 1.22775 
2 1 27.3828 17.3961 2.46421 
6 1 28.1844 17.3979 1.22769 
10 1 29.5831 17.4318 1.22761 
14 1 26.5113 16.166 2.46424 
22 1 25.2426 13.6241 2.46425 
25 1 24.7082 12.2859 2.46425 
30 1 26.1572 15.5831 1.22774 
38 1 25.5187 14.2811 1.22775 
46 1 30.3141 17.4585 2.4641 
50 1 31.7533 17.4831 2.46399 
54 1 32.4345 17.4562 1.22747 
ITEM: TIMESTEP
80
ITEM: NUMBER OF ATOMS
57
ITEM: BOX BOUNDS pp pp pp
0.0000000000000000e+00 3.2808000000000000e+01
0.0000000000000000e+00 1.7780000000000001e+01
0.0000000000000000e+00 2.4729999999999999e+00
ITEM: ATOMS id type x y z 
13 1 7.03229 0.849482 2.46416 
29 1 7.3841 1.43356 1.22766 
37 1 8.02248 2.73438 1.22771 
1 1 6.16346 17.396 2.46409 
5 1 5.35635 17.4128 1.22757 
9 1 3.97034 17.4967 1.22746 
16 1 7.02805 16.1632 2.46416 
32 1 7.38302 15.5806 1.22766 
40 1 8.02422 14.2815 1.22771 
45 1 3.20703 17.5201 2.46395 
49 1 1.824 17.4582 2.46389 
53 1 1.09255 17.1625 1.22739 
57 2 1.08588 16.02 1.22723 
4 1 10.968 8.50749 2.46425 
8 1 11.77 8.5072 1.22775 
12 1 13.1682 8.50754 1.22775 
18 1 10.1027 7.27276 2.46425 
21 1 8.30041 3.39188 2.46422 
26 1 8.83792 4.72896 2.46424 
34 1 9.75198 6.68825 1.22775 
42 1 9.1149 5.38577 1.22774 
48 1 13.906 8.50783 2.46425 
52 1 15.3309 8.50811 2.46425 
56 1 16.0582 8.50811 1.22775 
19 1 10.1025 9.74194 2.46425 
24 1 8.30225 13.6237 2.46422 
27 1 8.8384 12.2862 2.46424 
35 1 9.75172 10.3265 1.22775 
43 1 9.11497 11.6291 1.22774 
3 1 22.5789 8.50685 2.46425 
7 1 21.776 8.50699 1.22775 
11 1 20.3781 8.50777 1.22775 
20 1 23.4436 7.27207 2.46425 
36 1 23.7944 6.68692 1.22775 
44 1 24.4305 5.38536 1.22775 
47 1 19.6405 8.50799 2.46425 
51 1 18.2142 8.50806 2.46425 
55 1 17.4874 8.50806 1.22775 
17 1 23.4434 9.74189 2.46425 
33 1 23.7941 10.3271 1.22775 
41 1 24.4301 11.6287 1.22775 
15 1 26.516 0.849826 2.46423 
23 1 25.2448 3.39065 2.46425 
28 1 24.7077 4.72754 2.46425 
31 1 26.1632 1.4328 1.22773 
39 1 25.5225 2.73421 1.22774 
2 1 27.3839 17.396 2.4642 
6 1 28.1853 17.3992 1.22768 
10 1 29.584 17.4379 1.22761 
14 1 26.5135 16.1654 2.46423 
22 1 25.2435 13.6238 2.46425 
25 1 24.7072 12.2866 2.46425 
30 1 26.1598 15.5825 1.22773 
38 1 25.5204 14.2807 1.22774 
46 1 30.3168 17.4641 2.46409 
50 1 31.7544 17.4822 2.464 
54 1 32.4349 17.4525 1.22748 
ITEM: TIMESTEP
90
ITEM: NUMBER OF ATOMS
57
ITEM: BOX BOUNDS pp pp pp
0.0000000000000000e+00 3.2808000000000000e+01
0.0000000000000000e+00 1.7780000000000001e+01
0.0000000000000000e+00 2.4729999999999999e+00
ITEM: ATOMS id type x y z 
13 1 7.0312 0.850228 2.46414 
29 1 7.38208 1.43465 1.22765 
37 1 8.01966 2.7364 1.2277 
1 1 6.16072 17.3977 2.46409 
5 1 5.35347 17.4179 1.22757 
9 1 3.96793 17.5044 1.2275 
16 1 7.02071 16.1618 2.46414 
32 1 7.37464 15.5789 1.22765 
40 1 8.01871 14.2807 1.2277 
45 1 3.2048 17.5237 2.46399 
49 1 1.82238 17.4454 2.46394 
53 1 1.093 17.145 1.22744 
57 2 1.0817 16.0024 1.22732 
4 1 10.9679 8.5087 2.46425 
8 1 11.7703 8.50829 1.22775 
12 1 13.1683 8.50765 1.22775 
18 1 10.1042 7.27278 2.46424 
21 1 8.2983 3.39276 2.4642 
26 1 8.83997 4.7283 2.46422 
34 1 9.7546 6.6872 1.22775 
42 1 9.1184 5.38489 1.22773 
48 1 13.9059 8.50769 2.46425 
52 1 15.3313 8.50803 2.46425 
56 1 16.0583 8.50814 1.22775 
19 1 10.1036 9.74398 2.46424 
24 1 8.29913 13.6247 2.4642 
27 1 8.84033 12.2891 2.46422 
35 1 9.75382 10.3295 1.22775 
43 1 9.11818 11.6321 1.22773 
3 1 22.5785 8.50693 2.46425 
7 1 21.7761 8.50696 1.22775 
11 1 20.3781 8.50764 1.22775 
20 1 23.4422 7.27116 2.46425 
36 1 23.7917 6.68551 1.22775 
44 1 24.4274 5.38286 1.22775 
47 1 19.6404 8.50791 2.46425 
51 1 18.2148 8.50811 2.46425 
55 1 17.4878 8.50814 1.22775 
17 1 23.4421 9.74279 2.46425 
33 1 23.7915 10.3285 1.22775 
41 1 24.4271 11.6312 1.22775 
15 1 26.5193 0.850418 2.46421 
23 1 25.2475 3.39082 2.46424 
28 1 24.7056 4.72632 2.46424 
31 1 26.1674 1.43447 1.22772 
39 1 25.527 2.73478 1.22774 
2 1 27.3867 17.3959 2.46418 
6 1 28.1881 17.4022 1.22767 
10 1 29.5865 17.4505 1.2276 
14 1 26.5186 16.1639 2.46421 
22 1 25.2457 13.6238 2.46424 
25 1 24.705 12.288 2.46424 
30 1 26.1652 15.5803 1.22772 
38 1 25.5247 14.2803 1.22774 
46 1 30.3194 17.4761 2.46409 
50 1 31.7569 17.4812 2.46401 
54 1 32.4373 17.4444 1.22751 
ITEM: TIMESTEP
100
ITEM: NUMBER OF ATOMS
57
ITEM: BOX BOUNDS pp pp pp
0.0000000000000000e+00 3.2808000000000000e+01
0.0000000000000000e+00 1.7780000000000001e+01
0.0000000000000000e+00 2.4729999999999999e+00
ITEM: ATOMS id type x y z 
13 1 7.03095 0.85061 2.46414 
29 1 7.38159 1.43515 1.22765 
37 1 8.01889 2.73715 1.2277 
1 1 6.15961 17.3987 2.4641 
5 1 5.35251 17.42 1.22758 
9 1 3.96664 17.5066 1.22752 
16 1 7.01775 16.1614 2.46414 
32 1 7.37122 15.5783 1.22765 
40 1 8.01619 14.2804 1.2277 
45 1 3.20318 17.5238 2.464 
49 1 1.8217 17.4393 2.46396 
53 1 1.09248 17.1377 1.22746 
57 2 1.0806 15.995 1.22736 
4 1 10.9676 8.5094 2.46425 
8 1 11.7702 8.50889 1.22774 
12 1 13.1683 8.50779 1.22775 
18 1 10.1048 7.27295 2.46424 
21 1 8.29776 3.39318 2.46419 
26 1 8.84085 4.72846 2.46422 
34 1 9.75567 6.68713 1.22774 
42 1 9.11981 5.38506 1.22773 
48 1 13.9058 8.5077 2.46425 
52 1 15.3313 8.50797 2.46425 
56 1 16.0584 8.50811 1.22775 
19 1 10.104 9.745 2.46424 
24 1 8.29755 13.6251 2.46419 
27 1 8.84104 12.29 2.46422 
35 1 9.75474 10.3308 1.22774 
43 1 9.11953 11.6332 1.22773 
3 1 22.5787 8.50702 2.46425 
7 1 21.7762 8.50707 1.22775 
11 1 20.3784 8.50762 1.22775 
20 1 23.4417 7.27081 2.46425 
36 1 23.7907 6.68479 1.22775 
44 1 24.426 5.38272 1.22775 
47 1 19.6405 8.50787 2.46425 
51 1 18.2147 8.50812 2.46425 
55 1 17.4878 8.50816 1.22775 
17 1 23.4417 9.74334 2.46425 
33 1 23.7907 10.3294 1.22775 
41 1 24.4257 11.6317 1.22775 
15 1 26.5203 0.850574 2.46421 
23 1 25.2484 3.39101 2.46423 
28 1 24.7048 4.72602 2.46424 
31 1 26.1688 1.43477 1.22772 
39 1 25.5284 2.73551 1.22774 
2 1 27.3878 17.396 2.46418 
6 1 28.1893 17.4035 1.22766 
10 1 29.588 17.455 1.2276 
14 1 26.5208 16.1633 2.46421 
22 1 25.2467 13.6239 2.46423 
25 1 24.7042 12.2886 2.46424 
30 1 26.1677 15.5797 1.22772 
38 1 25.5264 14.2797 1.22774 
46 1 30.3205 17.4804 2.46409 
50 1 31.7584 17.481 2.46402 
54 1 32.438 17.4413 1.22752 
ITEM: TIMESTEP
110
ITEM: NUMBER OF ATOMS
57
ITEM: BOX BOUNDS pp pp pp
0.0000000000000000e+00 3.2808000000000000e+01
0.0000000000000000e+00 1.7780000000000001e+01
0.0000000000000000e+00 2.4729999999999999e+00
ITEM: ATOMS id type x y z 
13 1 7.0308 0.850766 2.46414 
29 1 7.38142 1.43549 1.22765 
37 1 8.01863 2.73767 1.22769 
1 1 6.15884 17.3992 2.4641 
5 1 5.35164 17.4211 1.22758 
9 1 3.96596 17.5075 1.22752 
16 1 7.01617 16.1614 2.46414 
32 1 7.36946 15.578 1.22765 
40 1 8.01491 14.2802 1.22769 
45 1 3.20259 17.5236 2.46401 
49 1 1.82156 17.4361 2.46397 
53 1 1.09278 17.1337 1.22747 
57 2 1.08 15.9911 1.22737 
4 1 10.9676 8.50973 2.46425 
8 1 11.7702 8.50923 1.22774 
12 1 13.1681 8.50789 1.22775 
18 1 10.1051 7.27309 2.46424 
21 1 8.29766 3.39372 2.46419 
26 1 8.84128 4.72851 2.46422 
34 1 9.75621 6.68712 1.22774 
42 1 9.12044 5.385 1.22773 
48 1 13.9057 8.50771 2.46425 
52 1 15.3314 8.50794 2.46425 
56 1 16.0584 8.50809 1.22775 
19 1 10.1043 9.74553 2.46424 
24 1 8.29678 13.625 2.46419 
27 1 8.84131 12.2907 2.46422 
35 1 9.7552 10.3315 1.22774 
43 1 9.12012 11.6339 1.22773 
3 1 22.5789 8.50718 2.46425 
7 1 21.7761 8.50716 1.22775 
11 1 20.3781 8.50761 1.22775 
20 1 23.4414 7.27071 2.46425 
36 1 23.7902 6.68456 1.22775 
44 1 24.4253 5.38254 1.22775 
47 1 19.6406 8.50785 2.46425 
51 1 18.215 8.50812 2.46425 
55 1 17.4879 8.50817 1.22775 
17 1 23.4415 9.7436 2.46425 
33 1 23.7902 10.3298 1.22775 
41 1 24.4251 11.6321 1.22775 
15 1 26.5208 0.850685 2.4642 
23 1 25.2489 3.39111 2.46423 
28 1 24.7045 4.72571 2.46424 
31 1 26.1695 1.4349 1.22771 
39 1 25.529 2.73587 1.22774 
2 1 27.3884 17.3962 2.46418 
6 1 28.1899 17.4042 1.22766 
10 1 29.5885 17.4573 1.2276 
14 1 26.522 16.1631 2.4642 
22 1 25.2472 13.6239 2.46423 
25 1 24.7038 12.289 2.46424 
30 1 26.1691 15.5794 1.22771 
38 1 25.5273 14.2795 1.22774 
46 1 30.3209 17.4826 2.46409 
50 1 31.7589 17.4809 2.46403 
54 1 32.4384 17.4397 1.22752 
ITEM: TIMESTEP
117
ITEM: NUMBER OF ATOMS
57
ITEM: BOX BOUNDS pp pp pp
0.0000000000000000e+00 3.2808000000000000e+01
0.0000000000000000e+00 1.7780000000000001e+01
0.0000000000000000e+00 2.4729999999999999e+00
ITEM: ATOMS id type x y z 
13 1 7.03073 0.850836 2.46414 
29 1 7.38135 1.43557 1.22765 
37 1 8.01843 2.7375 1.22769 
1 1 6.15908 17.3993 2.4641 
5 1 5.35165 17.4214 1.22758 
9 1 3.96634 17.5077 1.22752 
16 1 7.01581 16.1613 2.46414 
32 1 7.36906 15.5779 1.22765 
40 1 8.01445 14.2805 1.22769 
45 1 3.20331 17.5236 2.46401 
49 1 1.82117 17.4357 2.46397 
53 1 1.09324 17.1322 1.22747 
57 2 1.07988 15.9902 1.22738 
4 1 10.968 8.50978 2.46424 
8 1 11.7702 8.5093 1.22775 
12 1 13.1685 8.50791 1.22775 
18 1 10.1052 7.27322 2.46424 
21 1 8.29763 3.39382 2.46419 
26 1 8.84127 4.72826 2.46422 
34 1 9.75632 6.68721 1.22774 
42 1 9.12034 5.38452 1.22772 
48 1 13.9061 8.50771 2.46425 
52 1 15.3314 8.50794 2.46425 
56 1 16.0584 8.50809 1.22775 
19 1 10.1043 9.74554 2.46424 
24 1 8.29662 13.625 2.46419 
27 1 8.84125 12.2911 2.46422 
35 1 9.75531 10.3315 1.22774 
43 1 9.11998 11.6346 1.22772 
3 1 22.5784 8.50724 2.46425 
7 1 21.7761 8.50718 1.22775 
11 1 20.3779 8.50762 1.22775 
20 1 23.4413 7.27086 2.46425 
36 1 23.79 6.68486 1.22775 
44 1 24.4257 5.38153 1.22774 
47 1 19.6403 8.50785 2.46425 
51 1 18.215 8.50812 2.46425 
55 1 17.4879 8.50817 1.22775 
17 1 23.4414 9.74352 2.46425 
33 1 23.79 10.3296 1.22775 
41 1 24.4253 11.6329 1.22774 
15 1 26.5209 0.850792 2.46421 
23 1 25.2489 3.39147 2.46423 
28 1 24.7045 4.72552 2.46424 
31 1 26.1695 1.4352 1.22771 
39 1 25.5295 2.73531 1.22773 
2 1 27.3883 17.3963 2.46417 
6 1 28.19 17.4044 1.22766 
10 1 29.5879 17.4577 1.2276 
14 1 26.5223 16.163 2.46421 
22 1 25.2472 13.6237 2.46423 
25 1 24.7038 12.2893 2.46424 
30 1 26.1693 15.5792 1.22771 
38 1 25.5277 14.2799 1.22773 
46 1 30.3211 17.4831 2.46409 
50 1 31.7581 17.4809 2.46403 
54 1 32.4386 17.4396 1.22752 
ITEM: TIMESTEP
120
ITEM: NUMBER OF ATOMS
57
ITEM: BOX BOUNDS pp pp pp
0.0000000000000000e+00 3.2808000000000000e+01
0.0000000000000000e+00 1.7780000000000001e+01
0.0000000000000000e+00 2.4729999999999999e+00
ITEM: ATOMS id type x y z 
13 1 7.03074 0.850856 2.46414 
29 1 7.38136 1.43568 1.22765 
37 1 8.01845 2.73773 1.22769 
1 1 6.15874 17.3994 2.4641 
5 1 5.35146 17.4216 1.22758 
9 1 3.96586 17.5079 1.22752 
16 1 7.01551 16.1613 2.46414 
32 1 7.36874 15.5778 1.22765 
40 1 8.01427 14.2802 1.22769 
45 1 3.20251 17.5235 2.46401 
49 1 1.82134 17.4348 2.46397 
53 1 1.09285 17.1319 1.22747 
57 2 1.07974 15.9894 1.22738 
4 1 10.9676 8.50988 2.46424 
8 1 11.7702 8.50937 1.22774 
12 1 13.1682 8.50793 1.22775 
18 1 10.1052 7.27318 2.46424 
21 1 8.2976 3.39389 2.46419 
26 1 8.84145 4.7285 2.46422 
34 1 9.75644 6.68718 1.22774 
42 1 9.12065 5.38488 1.22772 
48 1 13.9058 8.50771 2.46425 
52 1 15.3314 8.50793 2.46425 
56 1 16.0584 8.50808 1.22775 
19 1 10.1044 9.74574 2.46424 
24 1 8.29644 13.625 2.46419 
27 1 8.8414 12.291 2.46422 
35 1 9.75541 10.3318 1.22774 
43 1 9.1203 11.6343 1.22772 
3 1 22.5787 8.50723 2.46425 
7 1 21.7762 8.5072 1.22775 
11 1 20.3782 8.50762 1.22775 
20 1 23.4413 7.27072 2.46425 
36 1 23.79 6.68448 1.22775 
44 1 24.4252 5.38226 1.22774 
47 1 19.6405 8.50785 2.46425 
51 1 18.215 8.50812 2.46425 
55 1 17.4879 8.50817 1.22775 
17 1 23.4414 9.74367 2.46425 
33 1 23.79 10.3299 1.22775 
41 1 24.4249 11.6324 1.22774 
15 1 26.5209 0.850758 2.46421 
23 1 25.2491 3.39122 2.46423 
28 1 24.7044 4.72557 2.46424 
31 1 26.1697 1.43506 1.22771 
39 1 25.5294 2.73585 1.22773 
2 1 27.3886 17.3963 2.46417 
6 1 28.1902 17.4045 1.22766 
10 1 29.5885 17.4582 1.2276 
14 1 26.5225 16.163 2.46421 
22 1 25.2474 13.6239 2.46423 
25 1 24.7037 12.2892 2.46424 
30 1 26.1696 15.5793 1.22771 
38 1 25.5277 14.2795 1.22773 
46 1 30.3211 17.4835 2.46409 
50 1 31.7589 17.4808 2.46403 
54 1 32.4386 17.4391 1.22752 
ITEM: TIMESTEP
130
ITEM: NUMBER OF ATOMS
57
ITEM: BOX BOUNDS pp pp pp
0.0000000000000000e+00 3.2808000000000000e+01
0.0000000000000000e+00 1.7780000000000001e+01
0.0000000000000000e+00 2.4729999999999999e+00
ITEM: ATOMS id type x y z 
13 1 7.02992 0.852939 2.46414 
29 1 7.37995 1.43826 1.22764 
37 1 8.01602 2.74067 1.22767 
1 1 6.15455 17.4041 2.46411 
5 1 5.34719 17.4305 1.2276 
9 1 3.96135 17.5141 1.22757 
16 1 7.0031 16.1603 2.46414 
32 1 7.35425 15.5757 1.22764 
40 1 8.0028 14.2797 1.22767 
45 1 3.1979 17.521 2.46406 
49 1 1.81857 17.4085 2.46404 
53 1 1.09236 17.0997 1.22754 
57 2 1.07448 15.9575 1.2275 
4 1 10.9676 8.51308 2.46423 
8 1 11.7702 8.51228 1.22773 
12 1 13.1683 8.5088 1.22774 
18 1 10.1076 7.27466 2.46422 
21 1 8.29637 3.39645 2.46417 
26 1 8.84494 4.72906 2.4642 
34 1 9.76063 6.68761 1.22772 
42 1 9.12562 5.38466 1.2277 
48 1 13.906 8.50788 2.46424 
52 1 15.3314 8.50767 2.46425 
56 1 16.0585 8.50789 1.22775 
19 1 10.1064 9.75029 2.46422 
24 1 8.28926 13.6262 2.46417 
27 1 8.84338 12.2959 2.4642 
35 1 9.75921 10.3374 1.22772 
43 1 9.1247 11.6405 1.2277 
3 1 22.5791 8.50814 2.46425 
7 1 21.7763 8.50799 1.22775 
11 1 20.3782 8.50766 1.22775 
20 1 23.4392 7.26992 2.46424 
36 1 23.786 6.68263 1.22774 
44 1 24.4205 5.37985 1.22773 
47 1 19.6406 8.50774 2.46425 
51 1 18.215 8.50809 2.46425 
55 1 17.4879 8.50814 1.22775 
17 1 23.4396 9.746 2.46424 
33 1 23.7864 10.3333 1.22774 
41 1 24.4202 11.6365 1.22773 
15 1 26.5246 0.851713 2.46419 
23 1 25.2526 3.39246 2.46422 
28 1 24.7016 4.72413 2.46423 
31 1 26.1748 1.43685 1.22769 
39 1 25.5349 2.73784 1.22771 
2 1 27.3931 17.3976 2.46416 
6 1 28.1948 17.4107 1.22765 
10 1 29.5926 17.4761 1.22761 
14 1 26.5323 16.1609 2.46419 
22 1 25.2518 13.6241 2.46422 
25 1 24.7009 12.2925 2.46423 
30 1 26.1805 15.5765 1.22769 
38 1 25.5357 14.2783 1.22771 
46 1 30.3254 17.5004 2.46411 
50 1 31.7629 17.4792 2.46407 
54 1 32.4419 17.4255 1.22757 
ITEM: TIMESTEP
140
ITEM: NUMBER OF ATOMS
57
ITEM: BOX BOUNDS pp pp pp
0.0000000000000000e+00 3.2808000000000000e+01
0.0000000000000000e+00 1.7780000000000001e+01
0.0000000000000000e+00 2.4729999999999999e+00
ITEM: ATOMS id type x y z 
13 1 7.02978 0.855111 2.46414 
29 1 7.38013 1.44036 1.22764 
37 1 8.01658 2.74283 1.22767 
1 1 6.15266 17.4079 2.46412 
5 1 5.34549 17.4356 1.22762 
9 1 3.9589 17.5116 1.22759 
16 1 6.9962 16.1609 2.46414 
32 1 7.34585 15.5753 1.22764 
40 1 7.9951 14.2794 1.22767 
45 1 3.1959 17.5127 2.46409 
49 1 1.81728 17.3899 2.46407 
53 1 1.09153 17.0806 1.22757 
57 2 1.06968 15.9399 1.22755 
4 1 10.9672 8.51585 2.46422 
8 1 11.7701 8.51478 1.22772 
12 1 13.1684 8.50988 1.22773 
18 1 10.1085 7.27651 2.46421 
21 1 8.29729 3.39821 2.46417 
26 1 8.84706 4.73024 2.46419 
34 1 9.76242 6.68891 1.22771 
42 1 9.12823 5.38596 1.22769 
48 1 13.906 8.50837 2.46424 
52 1 15.3315 8.50751 2.46424 
56 1 16.0588 8.5076 1.22774 
19 1 10.1077 9.75426 2.46421 
24 1 8.28352 13.6271 2.46417 
27 1 8.84286 12.2992 2.46419 
35 1 9.76125 10.3418 1.22771 
43 1 9.1262 11.6442 1.22769 
3 1 22.5794 8.50937 2.46424 
7 1 21.7768 8.50912 1.22774 
11 1 20.3786 8.50802 1.22775 
20 1 23.438 7.27006 2.46424 
36 1 23.784 6.68239 1.22773 
44 1 24.4185 5.37934 1.22772 
47 1 19.6407 8.50783 2.46425 
51 1 18.2154 8.5079 2.46425 
55 1 17.4881 8.50788 1.22775 
17 1 23.4385 9.74826 2.46424 
33 1 23.7845 10.3359 1.22773 
41 1 24.4184 11.6394 1.22772 
15 1 26.526 0.852638 2.46418 