LAMMPS (3 Mar 2020)
Reading data file ...
  orthogonal box = (0 0 0) to (32.808 17.78 2.473)
  4 by 2 by 1 MPI processor grid
  reading atoms ...
  57 atoms
  read_data CPU = 0.025104 secs
WARNING: Using 'neigh_modify every 1 delay 0 check yes' setting during minimization (../min.cpp:190)
WARNING: Total cutoff < 2*bond cutoff. May need to use an increased neighbor list skin. (../pair_reaxc.cpp:413)
Neighbor list info ...
  update every 1 steps, delay 0 steps, check yes
  max neighbors/atom: 2000, page size: 100000
  master list distance cutoff = 9.5
  ghost atom cutoff = 9.5
  binsize = 4.75, bins = 7 4 1
  2 neighbor lists, perpetual/occasional/extra = 2 0 0
  (1) pair reax/c, perpetual
      attributes: half, newton off, ghost
      pair build: half/bin/newtoff/ghost
      stencil: half/ghost/bin/3d/newtoff
      bin: standard
  (2) fix qeq/reax, perpetual, copy from (1)
      attributes: half, newton off, ghost
      pair build: copy
      stencil: none
      bin: none
Setting up cg style minimization ...
  Unit style    : real
  Current step  : 0
Per MPI rank memory allocation (min/avg/max) = 20.58 | 20.96 | 21.34 Mbytes
Step Temp E_pair E_mol TotEng Press 
       0            0   -11151.747            0   -11151.747    70006.265 
     117            0   -11209.967            0   -11209.967    6303.6122 
Loop time of 13.1598 on 8 procs for 117 steps with 57 atoms

99.9% CPU use with 8 MPI tasks x no OpenMP threads

Minimization stats:
  Stopping criterion = energy tolerance
  Energy initial, next-to-last, final = 
        -11151.7465922     -11209.9671958     -11209.9671978
  Force two-norm initial, final = 458.27 18.3318
  Force max component initial, final = 240.555 7.68289
  Final line search alpha, max atom move = 0.00557372 0.0428223
  Iterations, force evaluations = 117 640

MPI task timing breakdown:
Section |  min time  |  avg time  |  max time  |%varavg| %total
---------------------------------------------------------------
Pair    | 10.465     | 10.905     | 11.255     |   8.0 | 82.87
Neigh   | 0          | 0          | 0          |   0.0 |  0.00
Comm    | 0.10304    | 0.45026    | 0.89192    |  39.4 |  3.42
Output  | 0.0012593  | 0.00185    | 0.0026859  |   1.0 |  0.01
Modify  | 1.7709     | 1.7714     | 1.7732     |   0.1 | 13.46
Other   |            | 0.03133    |            |       |  0.24

Nlocal:    7.125 ave 11 max 3 min
Histogram: 2 0 2 0 0 0 0 1 1 2
Nghost:    720.875 ave 747 max 695 min
Histogram: 1 2 1 0 0 0 1 0 2 1
Neighs:    1112.38 ave 1729 max 472 min
Histogram: 2 0 2 0 0 0 0 1 1 2

Total # of neighbors = 8899
Ave neighs/atom = 156.123
Neighbor list builds = 0
Dangerous builds = 0
WARNING: Using 'neigh_modify every 1 delay 0 check yes' setting during minimization (../min.cpp:190)
WARNING: Total cutoff < 2*bond cutoff. May need to use an increased neighbor list skin. (../pair_reaxc.cpp:413)
Setting up cg style minimization ...
  Unit style    : real
  Current step  : 117
Per MPI rank memory allocation (min/avg/max) = 20.58 | 20.96 | 21.34 Mbytes
Step Temp E_pair E_mol TotEng Press 
     117            0   -11209.967            0   -11209.967    6303.6122 
     209            0   -11211.429            0   -11211.429   -1654.3361 
Loop time of 10.5607 on 8 procs for 92 steps with 57 atoms

99.8% CPU use with 8 MPI tasks x no OpenMP threads

Minimization stats:
  Stopping criterion = energy tolerance
  Energy initial, next-to-last, final = 
        -11209.9671978     -11211.4286941     -11211.4287533
  Force two-norm initial, final = 18.3318 3.37062
  Force max component initial, final = 7.68289 1.3948
  Final line search alpha, max atom move = 0.0038369 0.00535171
  Iterations, force evaluations = 92 509

MPI task timing breakdown:
Section |  min time  |  avg time  |  max time  |%varavg| %total
---------------------------------------------------------------
Pair    | 8.3393     | 8.7755     | 9.0621     |   7.8 | 83.10
Neigh   | 0          | 0          | 0          |   0.0 |  0.00
Comm    | 0.077848   | 0.36225    | 0.7974     |  38.4 |  3.43
Output  | 0.001012   | 0.0014071  | 0.0020176  |   0.8 |  0.01
Modify  | 1.3977     | 1.3982     | 1.3995     |   0.0 | 13.24
Other   |            | 0.02337    |            |       |  0.22

Nlocal:    7.125 ave 11 max 3 min
Histogram: 2 0 2 0 0 0 0 1 1 2
Nghost:    716.375 ave 747 max 686 min
Histogram: 2 0 1 1 0 1 0 1 0 2
Neighs:    1110.62 ave 1729 max 470 min
Histogram: 2 0 2 0 0 0 0 1 1 2

Total # of neighbors = 8885
Ave neighs/atom = 155.877
Neighbor list builds = 0
Dangerous builds = 0
WARNING: Using 'neigh_modify every 1 delay 0 check yes' setting during minimization (../min.cpp:190)
WARNING: Total cutoff < 2*bond cutoff. May need to use an increased neighbor list skin. (../pair_reaxc.cpp:413)
Setting up cg style minimization ...
  Unit style    : real
  Current step  : 209
WARNING: Energy due to 3 extra global DOFs will be included in minimizer energies
Per MPI rank memory allocation (min/avg/max) = 20.58 | 20.96 | 21.34 Mbytes
Step Temp E_pair E_mol TotEng Press Volume 
     209            0   -11211.429            0   -11211.429   -1654.3361    1442.5658 
     239            0   -11211.531            0   -11211.531   -542.61541     1442.688 
Loop time of 1.09816 on 8 procs for 30 steps with 57 atoms

99.9% CPU use with 8 MPI tasks x no OpenMP threads

Minimization stats:
  Stopping criterion = energy tolerance
  Energy initial, next-to-last, final = 
        -11211.4287533     -11211.5311721     -11211.5312677
  Force two-norm initial, final = 164.108 25.3647
  Force max component initial, final = 126.873 18.0302
  Final line search alpha, max atom move = 1.50747e-05 0.000271799
  Iterations, force evaluations = 30 54

MPI task timing breakdown:
Section |  min time  |  avg time  |  max time  |%varavg| %total
---------------------------------------------------------------
Pair    | 0.91346    | 0.95461    | 0.97824    |   2.4 | 86.93
Neigh   | 0          | 0          | 0          |   0.0 |  0.00
Comm    | 0.010666   | 0.03448    | 0.075639   |  12.5 |  3.14
Output  | 0.0002987  | 0.00041866 | 0.00060033 |   0.0 |  0.04
Modify  | 0.10258    | 0.10261    | 0.10275    |   0.0 |  9.34
Other   |            | 0.006043   |            |       |  0.55

Nlocal:    7.125 ave 11 max 3 min
Histogram: 2 0 2 0 0 0 0 1 1 2
Nghost:    716.375 ave 747 max 686 min
Histogram: 2 0 1 1 0 1 0 1 0 2
Neighs:    1108.62 ave 1729 max 468 min
Histogram: 2 0 2 0 0 0 0 1 1 2

Total # of neighbors = 8869
Ave neighs/atom = 155.596
Neighbor list builds = 0
Dangerous builds = 0
WARNING: Using 'neigh_modify every 1 delay 0 check yes' setting during minimization (../min.cpp:190)
WARNING: Total cutoff < 2*bond cutoff. May need to use an increased neighbor list skin. (../pair_reaxc.cpp:413)
Setting up cg style minimization ...
  Unit style    : real
  Current step  : 239
Per MPI rank memory allocation (min/avg/max) = 20.58 | 20.96 | 21.34 Mbytes
Step Temp E_pair E_mol TotEng Press 
     239            0   -11211.531            0   -11211.531   -542.61541 
     256            0   -11211.582            0   -11211.582    79.625358 
Loop time of 2.60629 on 8 procs for 17 steps with 57 atoms

99.8% CPU use with 8 MPI tasks x no OpenMP threads

Minimization stats:
  Stopping criterion = energy tolerance
  Energy initial, next-to-last, final = 
        -11211.5312677     -11211.5821268      -11211.582135
  Force two-norm initial, final = 13.5381 3.70629
  Force max component initial, final = 3.79289 1.08275
  Final line search alpha, max atom move = 0.00103556 0.00112125
  Iterations, force evaluations = 17 125

MPI task timing breakdown:
Section |  min time  |  avg time  |  max time  |%varavg| %total
---------------------------------------------------------------
Pair    | 2.0671     | 2.173      | 2.2423     |   3.9 | 83.38
Neigh   | 0          | 0          | 0          |   0.0 |  0.00
Comm    | 0.02523    | 0.093986   | 0.19963    |  18.5 |  3.61
Output  | 0.00025177 | 0.00032437 | 0.00044585 |   0.0 |  0.01
Modify  | 0.33295    | 0.33305    | 0.33344    |   0.0 | 12.78
Other   |            | 0.005901   |            |       |  0.23

Nlocal:    7.125 ave 11 max 3 min
Histogram: 2 0 2 0 0 0 0 1 1 2
Nghost:    716.375 ave 747 max 686 min
Histogram: 2 0 1 1 0 1 0 1 0 2
Neighs:    1108.62 ave 1729 max 468 min
Histogram: 2 0 2 0 0 0 0 1 1 2

Total # of neighbors = 8869
Ave neighs/atom = 155.596
Neighbor list builds = 0
Dangerous builds = 0
WARNING: Using 'neigh_modify every 1 delay 0 check yes' setting during minimization (../min.cpp:190)
WARNING: Total cutoff < 2*bond cutoff. May need to use an increased neighbor list skin. (../pair_reaxc.cpp:413)
Setting up cg style minimization ...
  Unit style    : real
  Current step  : 256
WARNING: Energy due to 3 extra global DOFs will be included in minimizer energies
Per MPI rank memory allocation (min/avg/max) = 20.58 | 20.96 | 21.34 Mbytes
Step Temp E_pair E_mol TotEng Press Volume 
     256            0   -11211.582            0   -11211.582    79.625358     1442.688 
     332            0   -11211.788            0   -11211.788    311.45125    1442.5625 
Loop time of 2.62047 on 8 procs for 76 steps with 57 atoms

99.8% CPU use with 8 MPI tasks x no OpenMP threads

Minimization stats:
  Stopping criterion = energy tolerance
  Energy initial, next-to-last, final = 
         -11211.582135     -11211.7884262     -11211.7884972
  Force two-norm initial, final = 150.31 17.0219
  Force max component initial, final = 108.355 9.93217
  Final line search alpha, max atom move = 8.60152e-06 8.54318e-05
  Iterations, force evaluations = 76 131

MPI task timing breakdown:
Section |  min time  |  avg time  |  max time  |%varavg| %total
---------------------------------------------------------------
Pair    | 2.1699     | 2.2707     | 2.3379     |   3.6 | 86.65
Neigh   | 0          | 0          | 0          |   0.0 |  0.00
Comm    | 0.022193   | 0.089021   | 0.18967    |  18.3 |  3.40
Output  | 0.00083401 | 0.001138   | 0.0016152  |   0.7 |  0.04
Modify  | 0.24533    | 0.24546    | 0.2458     |   0.0 |  9.37
Other   |            | 0.01411    |            |       |  0.54

Nlocal:    7.125 ave 11 max 3 min
Histogram: 2 0 2 0 0 0 0 1 1 2
Nghost:    716.375 ave 747 max 686 min
Histogram: 2 0 1 1 0 1 0 1 0 2
Neighs:    1109.12 ave 1729 max 468 min
Histogram: 2 0 2 0 0 0 0 1 1 2

Total # of neighbors = 8873
Ave neighs/atom = 155.667
Neighbor list builds = 0
Dangerous builds = 0
WARNING: Using 'neigh_modify every 1 delay 0 check yes' setting during minimization (../min.cpp:190)
WARNING: Total cutoff < 2*bond cutoff. May need to use an increased neighbor list skin. (../pair_reaxc.cpp:413)
Setting up cg style minimization ...
  Unit style    : real
  Current step  : 332
Per MPI rank memory allocation (min/avg/max) = 20.58 | 20.96 | 21.34 Mbytes
Step Temp E_pair E_mol TotEng Press 
     332            0   -11211.788            0   -11211.788    311.45125 
     337            0   -11211.802            0   -11211.802    489.23373 
Loop time of 0.59902 on 8 procs for 5 steps with 57 atoms

99.9% CPU use with 8 MPI tasks x no OpenMP threads

Minimization stats:
  Stopping criterion = energy tolerance
  Energy initial, next-to-last, final = 
        -11211.7884972     -11211.8015851      -11211.801591
  Force two-norm initial, final = 9.94677 17.7041
  Force max component initial, final = 3.80432 10.4898
  Final line search alpha, max atom move = 0.00293927 0.0308323
  Iterations, force evaluations = 5 28

MPI task timing breakdown:
Section |  min time  |  avg time  |  max time  |%varavg| %total
---------------------------------------------------------------
Pair    | 0.47335    | 0.50034    | 0.51885    |   2.0 | 83.53
Neigh   | 0          | 0          | 0          |   0.0 |  0.00
Comm    | 0.0033791  | 0.021783   | 0.048683   |   9.6 |  3.64
Output  | 0          | 0          | 0          |   0.0 |  0.00
Modify  | 0.075372   | 0.075429   | 0.075453   |   0.0 | 12.59
Other   |            | 0.001472   |            |       |  0.25

Nlocal:    7.125 ave 11 max 3 min
Histogram: 2 0 2 0 0 0 0 1 1 2
Nghost:    716.375 ave 747 max 686 min
Histogram: 2 0 1 1 0 1 0 1 0 2
Neighs:    1109.62 ave 1729 max 468 min
Histogram: 2 0 2 0 0 0 0 1 1 2

Total # of neighbors = 8877
Ave neighs/atom = 155.737
Neighbor list builds = 0
Dangerous builds = 0
WARNING: Total cutoff < 2*bond cutoff. May need to use an increased neighbor list skin. (../pair_reaxc.cpp:413)
Setting up Verlet run ...
  Unit style    : real
  Current step  : 0
  Time step     : 0.25
Per MPI rank memory allocation (min/avg/max) = 19.46 | 19.84 | 20.22 Mbytes
Step Temp TotEng KinEng PotEng Press 
       0          300   -11161.724    50.077609   -11211.802    2076.1054 
     200    218.98498   -11141.387    36.554147   -11177.941    7029.3217 
     400    278.78502   -11112.353    46.536291   -11158.889    24918.153 
     600    369.35785   -11096.964    61.655192   -11158.619   -90507.523 
     800    289.89491   -11113.813    48.390813   -11162.203    22729.627 
    1000    321.22139    -11106.61    53.619997    -11160.23    30489.637 
    1200    332.56097   -11104.853     55.51286   -11160.366   -15533.579 
    1400    309.21315   -11123.932    51.615517   -11175.548    37805.831 
    1600    347.58081   -11110.139    58.020053   -11168.159   -23715.725 
    1800    263.10834   -11117.548    43.919456   -11161.468   -3756.3493 
    2000     263.0295   -11124.976    43.906295   -11168.882    23112.399 
    2200    326.17315   -11109.142    54.446572   -11163.589   -33660.928 
    2400    353.78859   -11100.259    59.056289   -11159.315    48550.015 
    2600    315.15123    -11114.92    52.606733   -11167.527    15508.323 
    2800    322.67815   -11120.368    53.863168   -11174.231    47080.982 
    3000    342.25143   -11103.485    57.130443   -11160.615    1707.2571 
    3200    309.48598   -11114.305     51.66106   -11165.966    35154.163 
    3400     320.8708   -11114.773    53.561475   -11168.334    41487.878 
    3600    339.89924   -11099.118    56.737804   -11155.856   -17487.954 
    3800    285.42908   -11100.907    47.645353   -11148.552    1004.2946 
    4000    334.83895   -11108.882    55.893114   -11164.775    105851.94 
    4200    300.05746   -11123.984      50.0872   -11174.071   -7338.9629 
    4400    353.38878   -11101.138     58.98955   -11160.128   -7029.1728 
    4600    349.52076   -11116.703     58.34388   -11175.046   -64411.881 
    4800    251.56558   -11119.417    41.992676    -11161.41   -1932.3485 
    5000    320.72499   -11110.363    53.537135     -11163.9   -29809.502 
    5200    340.66647   -11102.956    56.865875   -11159.822    19350.673 
    5400    317.55672       -11110    53.008271   -11163.009    69541.164 
    5600    325.58967   -11121.003    54.349174   -11175.352    66849.159 
    5800    246.66145    -11132.83    41.174051   -11174.004    10692.625 
    6000    283.08794   -11111.377    47.254558   -11158.631    37576.596 
    6200    331.42552    -11106.75    55.323325   -11162.073   -857.48499 
    6400    294.56221   -11118.052    49.169904   -11167.222   -67115.071 
    6600    295.98609   -11109.281    49.407585   -11158.689   -11585.777 
    6800    324.27529   -11109.586     54.12977   -11163.715   -19432.266 
    7000    304.93595   -11113.433    50.901544   -11164.335    49604.068 
    7200    283.53171   -11125.151    47.328634    -11172.48   -12532.418 
    7400     263.0119   -11118.122    43.903356   -11162.025    2080.4695 
    7600    299.97533   -11107.428    50.073491   -11157.502   -26459.308 
    7800    275.47426   -11116.544    45.983641   -11162.528   -39271.986 
    8000     233.8775    -11137.08    39.040087    -11176.12    489.77791 
    8200    237.29398   -11120.414    39.610383   -11160.024    32193.348 
    8400    276.90342   -11111.125    46.222204   -11157.347   -30745.501 
    8600    323.95399   -11116.894    54.076137    -11170.97   -30962.414 
    8800    275.39826   -11121.776    45.970954   -11167.747    42998.371 
    9000    317.55229   -11105.083    53.007531    -11158.09    18581.501 
    9200    301.55706   -11109.223    50.337522   -11159.561   -48433.486 
    9400     284.5739   -11117.823    47.502601   -11165.325    -14306.68 
    9600    315.87057    -11117.92     52.72681   -11170.647     35435.52 
    9800    361.12676   -11102.907    60.281215   -11163.188   -44294.828 
   10000     275.7192   -11117.857    46.024528   -11163.882    -17981.11 
   10200    274.91708   -11113.849    45.890633    -11159.74     -3547.58 
   10400    353.53072   -11095.814    59.013244   -11154.827   -14375.077 
   10600     279.4541   -11107.444    46.647978   -11154.092   -85643.611 
   10800    276.08164   -11111.516    46.085028   -11157.601   -58860.871 
   11000    271.11874   -11125.849    45.256594   -11171.105    11150.208 
   11200    303.85676   -11111.567    50.721399   -11162.288   -63314.385 
   11400    336.04026   -11115.473    56.093642   -11171.567   -40752.134 
   11600     279.7424   -11122.363    46.696102   -11169.059    51774.012 
   11800    299.25006   -11114.036    49.952425   -11163.989    4881.4052 
   12000    320.55682   -11108.612    53.509063   -11162.121    7246.2281 
   12200     235.5356     -11119.1    39.316866   -11158.417   -38876.234 
   12400    272.31668   -11102.176    45.456561   -11147.633    4013.9301 
   12600    340.55969    -11106.86    56.848049   -11163.708    53357.381 
   12800    304.50615   -11113.308      50.8298   -11164.138    111.09074 
   13000    282.70875   -11118.079     47.19126   -11165.271   -21196.835 
   13200    263.21037   -11122.362    43.936487   -11166.298      28722.3 
   13400    312.12527   -11108.247    52.101624   -11160.349    87446.081 
   13600    344.63944   -11114.642    57.529063   -11172.171   -61714.084 
   13800    297.84057   -11118.955    49.717146   -11168.672    24047.859 
   14000    295.18355   -11111.623     49.27362   -11160.896   -72610.013 
   14200    277.52361   -11117.938     46.32573   -11164.264   -58091.158 
   14400    320.54338   -11122.077    53.506819   -11175.584   -33640.751 
   14600    316.30307   -11105.812    52.799005   -11158.611    -17984.07 
   14800    292.86472   -11108.635    48.886549   -11157.522    31324.141 
   15000    289.55587   -11120.917    48.334218   -11169.252    48864.803 
   15200    313.27106   -11108.859    52.292886   -11161.152    23912.499 
   15400    357.92642   -11106.566    59.746998   -11166.313    4366.4501 
   15600    332.00041   -11116.016     55.41929   -11171.435    1597.3385 
   15800    270.19771    -11123.66    45.102851   -11168.763   -9415.8306 
   16000    321.60978    -11108.66     53.68483   -11162.345   -23906.141 
   16200    378.68002   -11097.272      63.2113   -11160.484   -21274.951 
   16400    291.04171   -11117.098    48.582244   -11165.681    -3238.457 
   16600    297.88237   -11108.205    49.724122   -11157.929     16128.45 
   16800    390.66054   -11091.432    65.211152   -11156.644   -13569.613 
   17000    297.45793    -11115.65    49.653273   -11165.304   -10087.373 
   17200    321.21555   -11114.844    53.619022   -11168.463   -66669.556 
   17400    301.02851   -11101.138    50.249294   -11151.387   -28194.821 
   17600    282.46875   -11106.455    47.151199   -11153.606   -914.45151 
   17800    315.76116    -11108.45    52.708545   -11161.159   -37914.418 
   18000     318.6312   -11112.377    53.187628   -11165.565    14978.962 
   18200     365.1595   -11098.287    60.954381   -11159.241    54062.846 
   18400    288.47742   -11119.833    48.154197   -11167.987   -50592.444 
   18600    305.74858    -11114.85    51.037192   -11165.887    28000.358 
   18800    352.07628   -11098.286     58.77046   -11157.057    56773.849 
   19000    327.02229   -11100.567    54.588314   -11155.156    8048.6108 
   19200    240.31593   -11115.446    40.114824   -11155.561   -68818.624 
   19400    334.99907   -11103.382    55.919841   -11159.302   -40431.324 
   19600    243.94668   -11120.453    40.720889   -11161.174   -20612.894 
   19800    259.50559   -11123.639    43.318065   -11166.957     48022.29 
   20000    282.11173   -11111.858    47.091603   -11158.949   -20193.961 
   20200    308.62224   -11112.881     51.51688   -11164.398   -1815.5615 
   20400    301.24083   -11110.997    50.284735   -11161.282   -63243.905 
   20600    340.64744   -11099.153    56.862698   -11156.016    58414.268 
   20800     245.0256   -11117.739    40.900987    -11158.64   -37479.249 
   21000    295.91032   -11115.365    49.394937    -11164.76    24425.235 
   21200    318.27436   -11111.389    53.128063   -11164.517   -36658.486 
   21400    253.48791   -11115.997    42.313562   -11158.311   -36348.782 
   21600    307.73955    -11098.25    51.369537    -11149.62   -30640.791 
   21800    308.36391    -11106.28    51.473757   -11157.754   -58766.415 
   22000     296.0318   -11114.273    49.415215   -11163.689   -61349.173 
   22200    336.34954   -11099.481    56.145268   -11155.626   -63281.329 
   22400    288.06767   -11118.123      48.0858   -11166.209    11408.297 
   22600    315.76608   -11120.265    52.709367   -11172.975   -6527.6642 
   22800    339.90508   -11102.428    56.738779   -11159.167   -14416.775 
   23000    289.10978    -11114.28    48.259754    -11162.54   -6236.1561 
   23200    310.68323   -11113.434     51.86091   -11165.295    3522.1251 
   23400    309.61596    -11096.72    51.682756   -11148.403   -18276.011 
   23600    400.44636   -11079.252    66.844654   -11146.097   -3619.4317 
   23800    305.03383   -11108.372    50.917883    -11159.29   -12059.648 
   24000    264.42186   -11124.437    44.138715   -11168.576   -23721.613 
   24200    291.77851   -11110.523    48.705234   -11159.228     3076.209 
   24400    321.15367   -11113.026    53.608693   -11166.634    11241.225 
   24600    293.12135    -11114.17    48.929388   -11163.099   -14318.183 
   24800    317.84247   -11097.733     53.05597   -11150.789    16154.331 
   25000    281.65412   -11102.281    47.015217   -11149.297     17900.19 
   25200    316.05547   -11112.982    52.757675    -11165.74   -4098.4782 
   25400    294.44458   -11120.121    49.150269   -11169.271    37862.958 
   25600    287.89368   -11109.448    48.056757   -11157.505    3365.9981 
   25800    270.27924   -11125.049     45.11646   -11170.165      70158.8 
   26000    282.31926    -11109.26    47.126245   -11156.386    9446.1018 
   26200    305.61429   -11111.886    51.014776   -11162.901    3596.6326 
   26400    289.89465   -11114.478    48.390769   -11162.869   -23731.056 
   26600    307.07702   -11098.357    51.258943   -11149.616   -33545.231 
   26800    302.84426   -11120.524    50.552389   -11171.076   -57494.386 
   27000    305.67245   -11117.183    51.024485   -11168.207    64793.992 
   27200    294.45034   -11110.755    49.151229   -11159.906    37690.744 
   27400    277.23363   -11127.698    46.277324   -11173.975    39753.536 
   27600    285.26903    -11117.19    47.618636   -11164.809    16466.546 
   27800    325.31421    -11107.31    54.303193   -11161.613   -45760.437 
   28000    279.88644   -11114.231    46.720145   -11160.951    37432.119 
   28200    264.56956   -11122.781    44.163369   -11166.944    4856.0249 
   28400    357.69193   -11104.823    59.707855   -11164.531   -22425.899 
   28600    285.92481   -11115.858    47.728103   -11163.586     18183.96 
   28800    319.77182   -11117.958    53.378027   -11171.336    27079.051 
   29000    379.54367    -11091.67    63.355465   -11155.026   -16607.896 
   29200    266.82488   -11111.791     44.53984   -11156.331     13761.14 
   29400    313.16936   -11114.974    52.275908    -11167.25   -37238.141 
   29600    303.60919   -11102.103    50.680075   -11152.783   -52171.545 
   29800     322.0841   -11120.542    53.764005   -11174.306   -37062.155 
   30000    291.37159   -11116.201    48.637309   -11164.838    5270.2041 
   30200    301.98084   -11110.071    50.408262    -11160.48    63806.631 
   30400    237.95952   -11124.139     39.72148   -11163.861   -17060.592 
   30600    298.89311   -11107.682    49.892841   -11157.575   -101426.79 
   30800    343.08088   -11108.795      57.2689   -11166.064    43458.129 
   31000    269.72075   -11117.864    45.023234   -11162.888    22825.254 
   31200    306.97463   -11113.971    51.241851   -11165.213    33246.703 
   31400    383.96081   -11100.273    64.092797   -11164.366   -22059.492 
   31600    245.40205   -11120.211    40.963826   -11161.175    36275.469 
   31800    277.70658   -11110.505    46.356271   -11156.862    38194.627 
   32000    357.70312   -11100.828    59.709723   -11160.538   -31911.952 
   32200    343.07714   -11107.638    57.268277   -11164.906   -52413.559 
   32400    275.07097   -11121.133    45.916322   -11167.049    19970.719 
   32600    311.80048   -11122.646    52.047409   -11174.694   -28041.013 
   32800    327.12275   -11113.465    54.605084    -11168.07   -18829.579 
   33000    279.50846   -11116.223    46.657052    -11162.88    28167.282 
   33200    261.92618   -11124.537    43.722123   -11168.259    10052.214 
   33400    283.17024   -11106.285    47.268296   -11153.553   -36562.257 
   33600    326.65738   -11105.109    54.527401   -11159.636    28458.259 
   33800    252.49953   -11123.862    42.148575   -11166.011    -5756.403 
   34000     315.8659   -11116.559    52.726029   -11169.285    -44677.42 
   34200    309.33986   -11108.349    51.636668   -11159.985     10936.12 
   34400    279.68924   -11121.902    46.687228   -11168.589     -33800.9 
   34600    290.02834   -11107.319    48.413086   -11155.732    18612.314 
   34800    329.96225   -11103.459    55.079068   -11158.538    26295.475 
   35000     261.4006   -11114.708    43.634391   -11158.342    43308.427 
   35200    317.24714   -11110.308    52.956595   -11163.265    7229.8028 
   35400    286.20776   -11113.212    47.775335   -11160.988   -37405.915 
   35600    242.95718    -11126.93    40.555716   -11167.486    46262.838 
   35800    340.18825   -11115.698    56.786048   -11172.484    23898.685 
   36000    339.58881   -11109.602    56.685985   -11166.288   -4581.3095 
   36200    303.01371   -11102.668    50.580673   -11153.249   -2462.7517 
   36400    253.83418   -11113.971    42.371362   -11156.342    18069.003 
   36600    300.20419   -11120.158    50.111694    -11170.27    45063.192 
   36800     389.6318   -11105.516    65.039429   -11170.555   -10271.169 
   37000     350.2486   -11110.439    58.465375   -11168.904   -22683.809 
   37200    314.52631   -11122.713    52.502418   -11175.215   -55666.804 
   37400    352.08585   -11109.647    58.772059   -11168.419     -3248.02 
   37600    292.05057   -11110.536    48.750647   -11159.287    50287.607 
   37800     315.9813   -11106.312    52.745293   -11159.058    49991.998 
   38000    277.70791   -11109.103    46.356493   -11155.459    8862.8807 
   38200    273.60377    -11113.07    45.671408   -11158.742    7973.5842 
   38400    282.12977   -11129.328    47.094614   -11176.423   -608.39509 
   38600    288.99699   -11113.562    48.240927   -11161.803   -18361.786 
   38800     297.4259   -11111.422    49.647926    -11161.07    69144.375 
   39000    293.72323   -11117.053    49.029857   -11166.083   -22606.002 
   39200    297.24143   -11100.097    49.617134   -11149.714    16610.467 
   39400    292.41245   -11108.343    48.811054   -11157.154   -31171.227 
   39600    325.09559   -11113.088      54.2667   -11167.355   -60340.594 
   39800    308.07418   -11100.461    51.425395   -11151.886   -16427.126 
   40000    349.83568   -11114.493    58.396448    -11172.89    1697.6812 
   40200    283.30109   -11119.234    47.290138   -11166.525    15636.872 
   40400    327.91378   -11100.521    54.737127   -11155.258     11148.45 
   40600    271.04669   -11115.913    45.244567   -11161.158    11229.646 
   40800    316.11704   -11105.317    52.767951   -11158.085    5302.7368 
   41000    313.60972   -11105.575    52.349416   -11157.924   -14646.646 
   41200    275.84059   -11118.284     46.04479   -11164.328    8545.3402 
   41400    373.73107   -11105.047    62.385194   -11167.432   -64159.282 
   41600    399.98529   -11098.377    66.767689   -11165.145   -31194.232 
   41800    288.71729   -11117.495    48.194238   -11165.689    73137.951 
   42000    315.59806   -11103.743    52.681321   -11156.424    42499.145 
   42200    352.23918   -11101.436    58.797654   -11160.233   -16269.855 
   42400    288.24092   -11115.639     48.11472   -11163.754   -47049.212 
   42600    300.84821   -11112.474    50.219197   -11162.693   -27076.095 
   42800    415.60134   -11094.827    69.374405   -11164.201   -35334.384 
   43000    302.36904   -11114.031    50.473061   -11164.504   -43321.512 
   43200    230.75483   -11119.739    38.518834   -11158.258    22266.546 
   43400    323.49244   -11104.762    53.999093   -11158.761   -70037.545 
   43600     301.4748   -11107.359     50.32379   -11157.683   -26798.493 
   43800    312.75836   -11122.334    52.207303   -11174.541   -11733.032 
   44000    348.61375   -11110.735    58.192477   -11168.928   -3049.0788 
   44200    301.90528   -11119.668    50.395648   -11170.063    37320.661 
   44400    266.51645   -11128.639    44.488355   -11173.127   -10859.056 
   44600    302.49767   -11111.353    50.494533   -11161.847    4113.4478 
   44800    271.08722   -11106.287    45.251333   -11151.539   -45052.091 
   45000    374.83645   -11097.208     62.56971   -11159.778    4797.0057 
   45200    317.95609   -11114.193    53.074935   -11167.268    33633.781 
   45400    291.88411   -11119.255    48.722862   -11167.978    55857.405 
   45600    349.60651   -11097.892    58.358194    -11156.25   -62518.774 
   45800    330.94064   -11113.876    55.242386   -11169.119   -37863.301 
   46000    276.81528   -11114.681    46.207491   -11160.888   -22465.618 
   46200     279.1592   -11107.713    46.598751   -11154.311   -7198.2021 
   46400    345.78405   -11106.858    57.720127   -11164.578   -26341.997 
   46600    268.92608   -11109.066    44.890583   -11153.957   -8110.8588 
   46800    259.41848   -11125.729    43.303525   -11169.033   -62263.785 
   47000    354.00433   -11111.757    59.092302   -11170.849    48002.643 
   47200     360.2498   -11111.798    60.134829   -11171.933    -48716.81 
   47400    291.27107   -11124.187    48.620529   -11172.807   -82529.901 
   47600    329.38206     -11109.1     54.98222   -11164.082   -9300.9026 
   47800    347.24263   -11104.673    57.963601   -11162.637   -21505.996 
   48000    357.02694   -11089.316    59.596852   -11148.913    -9162.943 
   48200    296.80077   -11114.175    49.543576   -11163.718   -21795.282 
   48400    308.72834   -11120.888     51.53459   -11172.423     11059.28 
   48600    315.78536   -11109.983    52.712585   -11162.695   -9611.3485 
   48800    335.93236   -11104.936    56.075631   -11161.012    -14834.42 
   49000     248.3424   -11125.328    41.454646   -11166.783   -84407.509 
   49200    321.23409    -11109.59    53.622117   -11163.212    18670.785 
   49400    268.17682   -11108.209    44.765512   -11152.974    57158.849 
   49600    300.20485   -11107.107    50.111803   -11157.219    2306.6586 
   49800    315.57832   -11120.387    52.678026   -11173.065   -29868.282 
   50000    333.09456   -11100.057     55.60193   -11155.659    83004.523 
   50200    262.65154   -11112.518    43.843204   -11156.361   -18307.241 
   50400     301.9696   -11109.865    50.406385   -11160.271      1889.75 
   50600    351.31563   -11094.331    58.643489   -11152.975   -59960.994 
   50800    294.51548   -11117.246    49.162103   -11166.408    10011.816 
   51000    309.21487   -11110.973    51.615804   -11162.588    60556.709 
   51200    373.61928   -11098.952    62.366534   -11161.319   -49275.436 
   51400    348.85687   -11117.603     58.23306   -11175.836   -39304.183 
   51600    313.25068   -11117.254    52.289484   -11169.543    3653.5689 
   51800    288.81994   -11103.663    48.211373   -11151.875     31113.27 
   52000    339.79887   -11088.564    56.721049   -11145.286    1725.5248 
   52200    297.72213   -11108.561    49.697375   -11158.258   -5199.4882 
   52400    260.81252   -11117.629    43.536225   -11161.165    26578.277 
   52600    392.98122   -11099.299    65.598533   -11164.898    5783.9596 
   52800    334.80381   -11114.183    55.887247    -11170.07   -13207.515 
   53000    299.88569   -11113.485    50.058528   -11163.544    6421.2501 
   53200    306.03696   -11108.488    51.085331   -11159.573    113532.44 
   53400    312.04577    -11106.76    52.088353   -11158.848   -4067.3656 
   53600    290.70483   -11115.995     48.52601   -11164.521   -10927.865 
   53800     335.6511   -11115.609    56.028681   -11171.638    17788.715 
   54000    341.05947   -11108.206    56.931476   -11165.137   -26825.157 
   54200    268.18278   -11119.249    44.766508   -11164.015    23111.777 
   54400    358.66422   -11106.522    59.870155   -11166.392   -41222.229 
   54600    334.34925   -11100.136     55.81137   -11155.947    41592.075 
   54800    245.19948   -11120.541    40.930012   -11161.471    4576.6833 
   55000    272.39634   -11108.693    45.469858   -11154.163    -19976.56 
   55200    306.16809   -11103.527    51.107219   -11154.634    13190.892 
   55400     291.8929   -11118.324    48.724328   -11167.049   -9331.9285 
   55600    317.83405   -11109.442    53.054564   -11162.497   -11841.425 
   55800    276.57569   -11127.492    46.167497    -11173.66    33823.816 
   56000    280.85133    -11119.49     46.88121   -11166.371   -25663.236 
   56200    316.47025   -11108.714    52.826912   -11161.541    25007.565 
   56400    327.53535   -11106.997    54.673958   -11161.671    12536.672 
   56600     299.5453   -11112.417    50.001708   -11162.418    41363.802 
   56800    364.72866   -11115.126    60.882465   -11176.009    20881.418 
   57000    364.41408   -11094.926    60.829952   -11155.756    46572.628 
   57200    310.96632    -11110.51    51.908166   -11162.419   -22525.904 
   57400    294.37513   -11114.429    49.138676   -11163.567    42097.106 
   57600    302.41973   -11106.224    50.481523   -11156.706   -39171.881 
   57800    406.37866   -11096.452    67.834906   -11164.287    19815.974 
   58000    311.12806   -11114.541    51.935164   -11166.476    7167.5015 
   58200    284.63505   -11111.413    47.512809   -11158.926    -42819.74 
   58400    351.83597   -11100.738    58.730347   -11159.469   -42132.866 
   58600     278.1563    -11114.17    46.431341   -11160.601   -41397.145 
   58800    322.43824   -11106.815     53.82312   -11160.638    16384.409 
   59000    374.47503   -11097.129     62.50938   -11159.638    15748.167 
   59200    276.54486   -11115.158    46.162351    -11161.32    4190.4204 
   59400     322.4794   -11104.571    53.829991   -11158.401   -24420.079 
   59600    335.96601   -11109.579    56.081248    -11165.66   -21226.365 
   59800    269.69268   -11119.659    45.018549   -11164.678   -55104.473 
   60000    373.35152   -11100.884    62.321839   -11163.206   -9316.0223 
   60200    342.44753    -11110.68    57.163178   -11167.843   -38768.438 
   60400    325.56285   -11113.677    54.344698   -11168.022    64195.622 
   60600    313.70445    -11108.02     52.36523   -11160.386   -19431.443 
   60800    396.97493   -11094.004    66.265184   -11160.269    26012.413 
   61000    265.30621   -11115.585    44.286335   -11159.872   -30131.478 
   61200    277.08103   -11114.078    46.251852   -11160.329    3579.3205 
   61400    348.91755   -11102.062    58.243188   -11160.306   -14521.691 
   61600    285.53026   -11117.718    47.662242    -11165.38    29722.458 
   61800    329.76697   -11111.142    55.046471   -11166.189    5720.3322 
   62000    416.98478   -11095.141    69.605336   -11164.747   -9836.6576 
   62200    259.29703   -11121.496     43.28325   -11164.779    11889.828 
   62400    294.78533   -11105.493    49.207149   -11154.701   -32913.613 
   62600    325.67664   -11107.753    54.363692   -11162.117   -67898.372 
   62800    289.02491   -11119.659    48.245588   -11167.905   -241.50923 
   63000    290.62466   -11105.917    48.512628    -11154.43    -87267.57 
   63200    335.84886   -11109.323    56.061693   -11165.384   -34490.465 
   63400    284.33234    -11122.94    47.462278   -11170.402    -20753.43 
   63600    321.63915    -11110.02    53.689732    -11163.71    61870.687 
   63800    316.15247    -11115.65    52.773866   -11168.424    2431.4011 
   64000    271.82329   -11123.001    45.374202   -11168.375   -3525.1922 
   64200     319.1719   -11107.789    53.277885   -11161.067    45211.779 
   64400    249.49764    -11112.96    41.647484   -11154.607   -16076.667 
   64600    286.75954    -11120.22     47.86744   -11168.088   -780.22442 
   64800      293.034   -11106.781    48.914807   -11155.695   -37898.247 
   65000    318.41385   -11106.079    53.151348    -11159.23    -10451.45 
   65200    316.24549   -11121.677    52.789393   -11174.467    101.80385 
   65400    316.52765   -11109.837    52.836493   -11162.674   -7690.7986 
   65600    280.78961   -11105.246    46.870908   -11152.117    -92577.36 
   65800    293.20696   -11120.529    48.943678   -11169.473    7279.4419 
   66000    362.19352   -11103.594    60.459285   -11164.054     11513.84 
   66200    282.42573   -11112.699    47.144018   -11159.843   -14092.622 
   66400    321.79824   -11116.212    53.716288   -11169.928    32300.982 
   66600    318.85969   -11107.908    53.225769   -11161.133   -38928.025 
   66800    283.21545   -11120.918    47.275842   -11168.194    33440.988 
   67000     259.6636   -11114.771     43.34444   -11158.115   -7057.9174 
   67200    283.88909   -11109.162     47.38829    -11156.55   -51620.511 
   67400     310.6861   -11117.148    51.861389   -11169.009   -3785.0189 
   67600    235.23227   -11118.971    39.266232   -11158.237   -33604.546 
   67800    285.03629   -11110.269    47.579786   -11157.849    12670.471 
   68000    284.14689   -11119.206    47.431323   -11166.637    23823.465 
   68200    295.99809   -11114.016    49.409589   -11163.425   -35466.507 
   68400    319.76968     -11107.4     53.37767   -11160.778   -20515.394 
   68600    300.21396   -11120.153    50.113324   -11170.266   -15335.156 
   68800    253.56235   -11111.762    42.325988   -11154.088    10966.257 
   69000    329.08161   -11106.517    54.932067   -11161.449   -18604.583 
   69200    301.45712   -11101.715    50.320838   -11152.036    41736.005 
   69400    285.00183   -11116.789    47.574033   -11164.363   -37594.816 
   69600    293.34011   -11114.549    48.965904   -11163.515    30003.103 
   69800    330.58405   -11102.666    55.182862   -11157.849   -6060.2433 
   70000    262.56148   -11114.683     43.82817   -11158.511   -49115.126 
   70200    316.84865   -11110.337    52.890075   -11163.227    69363.655 
   70400    313.62477   -11101.284    52.351929   -11153.636    45830.699 
   70600    272.06709   -11113.487    45.414897   -11158.902    28707.417 
   70800    334.03999   -11095.702    55.759746   -11151.462   -21685.034 
   71000    301.98358   -11116.401    50.408718    -11166.81   -78007.545 
   71200    256.87742   -11111.532    42.879357   -11154.412   -331.51972 
   71400    275.98237   -11103.744    46.068457   -11149.812    -22379.94 
   71600    319.04144   -11118.132    53.256108   -11171.388     2444.535 
   71800    312.40996   -11113.009    52.149146   -11165.158   -28439.642 
   72000    349.99211   -11101.308     58.42256    -11159.73   -24878.711 
   72200    268.10486   -11124.527    44.753501    -11169.28    56353.651 
   72400    298.30129   -11115.683    49.794052   -11165.477    595.61684 
   72600    304.33559   -11108.458     50.80133   -11159.259   -5594.6702 
   72800    321.15155   -11116.287    53.608339   -11169.895    54995.634 
   73000    256.41343   -11127.623    42.801905   -11170.424   -3575.9432 
   73200    295.79004   -11107.965     49.37486    -11157.34    2272.2024 
   73400    323.99284   -11104.631    54.082622   -11158.714   -39081.636 
   73600    300.58724   -11121.975    50.175633   -11172.151   -8144.9188 
   73800    326.39329    -11112.09    54.483318   -11166.573   -23981.543 
   74000    309.80371   -11113.651    51.714096   -11165.365   -41204.178 
   74200    314.57328   -11113.049    52.510259   -11165.559   -20828.811 
   74400    286.77349    -11106.61    47.869768   -11154.479   -19008.372 
   74600    280.00756   -11106.813    46.740364   -11153.554   -78119.765 
   74800    278.51981   -11121.093     46.49202   -11167.585   -1583.4966 
   75000    318.94023    -11109.23    53.239213   -11162.469    22285.291 
   75200    309.09008   -11104.854    51.594974   -11156.449    111275.72 
   75400    283.43613   -11120.324    47.312678   -11167.637    50115.122 
   75600    283.84712   -11118.981    47.381283   -11166.362   -67455.102 
   75800    307.42785   -11109.297    51.317506   -11160.615   -18171.386 
   76000    392.95768   -11085.157    65.594603   -11150.751    66790.262 
   76200    300.05653   -11107.682    50.087046   -11157.769   -32793.122 
   76400    254.93411   -11119.718    42.554968   -11162.273   -12733.293 
   76600     296.3655   -11103.934    49.470918   -11153.405     8870.384 
   76800    316.49335   -11114.549    52.830767    -11167.38    30359.397 
   77000    274.23193   -11120.358    45.776264   -11166.134   -2723.3083 
   77200    335.56871   -11105.086    56.014928   -11161.101    51010.266 
   77400    262.25382   -11113.073    43.776814    -11156.85   -114606.07 
   77600    260.24336   -11122.333    43.441217   -11165.774    18351.089 
   77800    327.82061   -11106.701    54.721574   -11161.422    70938.062 
   78000    310.24064   -11116.694    51.787031   -11168.481   -22595.451 
   78200    223.89813   -11126.904    37.374277   -11164.278    52162.524 
   78400    320.98518   -11105.954    53.580568   -11159.535   -30649.697 
   78600    275.25068     -11117.2     45.94632   -11163.146    33993.327 
   78800    282.72851   -11121.307     47.19456   -11168.501    36532.055 
   79000    317.56817   -11104.413    53.010182   -11157.424   -8570.2006 
   79200    296.16986   -11116.032    49.438262   -11165.471    2593.3673 
   79400    252.38038   -11128.334    42.128686   -11170.463   -50408.564 
   79600    370.83017   -11108.884     61.90096   -11170.785   -4654.0564 
   79800    277.43155   -11117.138    46.310362   -11163.448    48961.278 
   80000    303.52326   -11104.751    50.665731   -11155.417    -28356.58 
   80200    349.72206   -11108.147    58.377482   -11166.524    2758.2514 
   80400    274.74546   -11117.079    45.861986   -11162.941   -24631.209 
   80600    324.30124   -11102.846    54.134102    -11156.98   -20141.659 
   80800    302.93902   -11119.992    50.568206   -11170.561    34608.837 
   81000    253.06659   -11121.089    42.243233   -11163.332   -588.03231 
   81200    279.85429   -11106.959    46.714779   -11153.673   -54884.944 
   81400     296.0691   -11114.197    49.421442   -11163.619    41397.225 
   81600    340.73652   -11108.309    56.877567   -11165.187    3211.1895 
   81800    357.81496   -11093.241    59.728392   -11152.969   -27611.883 
   82000     314.2634   -11111.988    52.458532   -11164.446    9480.0479 
   82200    288.85679   -11115.529    48.217524   -11163.747    33895.692 
   82400    344.76092   -11095.898    57.549341   -11153.447    14935.814 
   82600    276.61165   -11116.822    46.173499   -11162.995    17694.343 
   82800    276.62256   -11118.521    46.175322   -11164.697   -73176.537 
   83000    399.83192   -11102.924    66.742088   -11169.666   -33858.645 
   83200    293.37028   -11108.021    48.970941   -11156.992    21379.272 
   83400    285.56836   -11116.368    47.668603   -11164.036   -69078.829 
   83600    297.50032   -11101.471    49.660348   -11151.131    10633.352 
   83800    285.95983   -11107.396    47.733948    -11155.13    121399.39 
   84000    232.73794   -11123.159    38.849865   -11162.009    22206.138 
   84200    344.06251   -11112.278     57.43276    -11169.71    17885.904 
   84400    314.27671   -11108.669    52.460754   -11161.129    5775.3424 
   84600    222.21531   -11123.625    37.093371   -11160.718   -16439.144 
   84800    263.39048   -11111.639    43.966551   -11155.606     23090.49 
   85000    309.54842   -11110.311    51.671483   -11161.983   -25257.067 
   85200    264.96477   -11120.401    44.229341    -11164.63   -26252.195 
   85400    250.18389    -11129.22    41.762037   -11170.982    38084.369 
   85600    281.81818   -11111.143    47.042603   -11158.186   -35721.408 
   85800    303.81942   -11107.009    50.715167   -11157.725   -38397.244 
   86000    338.58022   -11102.388    56.517626   -11158.905    -4556.412 
   86200     288.7944   -11118.041    48.207109   -11166.248   -19919.075 
   86400    267.92725   -11103.084    44.723854   -11147.808     8796.732 
   86600    343.25492   -11098.121    57.297952   -11155.419   -7777.3072 
   86800    284.07259   -11122.247     47.41892   -11169.666    76543.479 
   87000    290.09793   -11112.301    48.424702   -11160.726   -81268.406 
   87200    323.08173   -11101.039    53.930535   -11154.969     4528.494 
   87400    265.90796   -11111.353    44.386783   -11155.739    2149.0373 
   87600    303.22428   -11110.373    50.615822   -11160.988    1091.7803 
   87800    314.15665   -11100.852    52.440714   -11153.293    43850.874 
   88000    271.65471   -11116.792    45.346061   -11162.138     11638.97 
   88200    256.15737    -11114.47    42.759162    -11157.23   -6675.7951 
   88400    312.09694   -11096.078    52.096895   -11148.175    38403.401 
   88600    290.44151   -11112.146    48.482055   -11160.628    36805.237 
   88800     342.6138   -11111.775    57.190933   -11168.966   -42281.193 
   89000    330.61589   -11101.277    55.188178   -11156.465   -15878.517 
   89200    346.24095   -11108.667    57.796396   -11166.464   -911.87544 
   89400    325.46752   -11116.003    54.328783   -11170.332   -45006.812 
   89600    326.81218    -11099.54    54.553242   -11154.094   -13739.854 
   89800    290.60281   -11110.188    48.508979   -11158.697    19660.805 
   90000    280.59836   -11118.946    46.838983   -11165.785   -10840.118 
   90200    313.27393   -11103.388    52.293365   -11155.682   -10493.578 
   90400    267.68566   -11112.858    44.683525   -11157.541    62158.849 
   90600    304.12309   -11118.801    50.765857   -11169.567    1885.2526 
   90800    328.79731   -11106.981     54.88461   -11161.866     60904.49 
   91000    288.83632   -11122.874    48.214108   -11171.088   -15406.771 
   91200     297.7694   -11117.919    49.705265   -11167.624   -42066.757 
   91400    355.91983   -11106.032    59.412047   -11165.444   -47338.133 
   91600     236.8629   -11126.614    39.538426   -11166.153    88565.048 
   91800    317.62406   -11114.741    53.019511   -11167.761    2788.4261 
   92000    326.56102   -11103.688    54.511317   -11158.199    3834.2748 
   92200    291.02936   -11116.684    48.580182   -11165.264     34648.46 
   92400    316.44229   -11119.625    52.822244   -11172.447     26541.04 
   92600    324.29131   -11106.722    54.132444   -11160.855   -46968.647 
   92800    288.75919   -11117.348    48.201233   -11165.549   -27061.013 
   93000    269.55139    -11125.38    44.994963   -11170.375   -50367.374 
   93200    316.21887   -11108.768     52.78495   -11161.553   -29274.482 
   93400    325.39983   -11104.039    54.317485   -11158.356    13570.103 
   93600    275.95589   -11121.658    46.064037   -11167.722   -52906.437 
   93800    296.70126   -11110.394    49.526965   -11159.921    -27777.01 
   94000    337.10039   -11100.632    56.270605   -11156.903    14041.643 
   94200    311.25095    -11115.05    51.955677   -11167.006   -25970.025 
   94400    301.53978   -11116.514    50.334638   -11166.849    42869.263 
   94600    329.39134   -11099.894    54.983769   -11154.878    35955.209 
   94800    302.20019   -11113.926    50.444877    -11164.37   -71005.441 
   95000    238.01751   -11128.101    39.731159   -11167.833   -30859.945 
   95200    239.83028   -11123.295    40.033757   -11163.329   -4682.8484 
   95400    327.87417    -11110.53    54.730515   -11165.261    50074.937 
   95600    281.98117   -11115.081    47.069809   -11162.151    5155.7479 
   95800    287.08985   -11113.496    47.922577   -11161.419   -38876.157 
   96000    289.90746   -11106.631    48.392908   -11155.024    19982.545 
   96200     284.9871    -11098.84    47.571575   -11146.411    50660.767 
   96400    273.11318   -11118.083    45.589516   -11163.673   -13154.847 
   96600    310.83776   -11109.014    51.886705   -11160.901   -31391.798 
   96800    335.70777   -11100.679    56.038142   -11156.717   -8061.9703 
   97000    290.83583   -11111.224    48.547877   -11159.772   -30709.714 
   97200    251.34954   -11122.688    41.956613   -11164.645    71437.308 
   97400    277.44129   -11116.664    46.311989   -11162.976    53756.828 
   97600    346.85583   -11104.102    57.899035   -11162.001   -4342.6461 
   97800    277.61389   -11123.868      46.3408   -11170.208    18560.584 
   98000    284.99123   -11115.825    47.572265   -11163.397   -26842.253 
   98200    322.02926   -11106.929     53.75485   -11160.684    -31689.38 
   98400    259.85256   -11126.598    43.375982   -11169.974    -53217.84 
   98600    296.65779   -11112.754     49.51971   -11162.274    65647.265 
   98800    371.16436   -11102.697    61.956745   -11164.653    65904.503 
   99000    291.67677    -11114.11    48.688251   -11162.798    -88385.21 
   99200    292.39815   -11114.426    48.808667   -11163.235   -12913.769 
   99400    328.56061   -11106.977    54.845099   -11161.822    -10389.42 
   99600    318.13778   -11104.581    53.105265   -11157.686   -9058.3924 
   99800    289.80605   -11115.931    48.375981   -11164.307   -1760.7726 
  100000    311.60665   -11108.784    52.015054   -11160.799   -23971.347 
  100200    305.94061   -11101.017    51.069248   -11152.087    6811.7427 
  100400    301.43956   -11109.063    50.317907   -11159.381    23093.331 
  100600    237.77209   -11127.738    39.690192   -11167.428   -23779.632 
  100800    313.79329   -11110.121    52.380059   -11162.501   -13231.619 
  101000    313.67056   -11110.504    52.359572   -11162.863   -23445.782 
  101200    240.57529   -11122.574    40.158117   -11162.732   -32538.571 
  101400    332.02761   -11106.155     55.42383   -11161.579    -48635.36 
  101600    336.32068   -11106.444    56.140452   -11162.584   -35498.466 
  101800    270.45901   -11121.629    45.146468   -11166.775   -1970.0535 
  102000    261.03803   -11104.673    43.573869   -11148.247   -11403.906 
  102200    269.37446   -11106.538     44.96543   -11151.503    52652.018 
  102400     276.2519   -11120.651    46.113449   -11166.765   -33248.576 
  102600    293.58547   -11112.064    49.006862   -11161.071    61446.347 
  102800    320.69339    -11107.18     53.53186   -11160.711    -21023.99 
  103000    272.01923   -11113.514    45.406909   -11158.921    70787.472 
  103200    282.46666   -11114.308     47.15085   -11161.459     26458.48 
  103400    307.91066   -11101.285    51.398099   -11152.683   -64172.623 
  103600    260.46567   -11119.507    43.478327   -11162.985    30236.617 
  103800    279.52137   -11116.795    46.659206   -11163.454   -4257.8416 
  104000    370.14958   -11094.501    61.787353   -11156.288    27499.639 
  104200    276.47319   -11105.875    46.150387   -11152.025   -7.7643884 
  104400    283.38601   -11112.588    47.304313   -11159.892     30062.88 
  104600    305.21908   -11112.417    50.948806   -11163.365    -62272.03 
  104800    243.96294   -11104.906    40.723602   -11145.629   -18661.713 
  105000    298.40709   -11117.445    49.811712   -11167.257   -76436.027 
  105200    275.64252    -11120.17    46.011727   -11166.182    42040.834 
  105400    306.75945   -11111.605    51.205933   -11162.811   -11821.715 
  105600    263.09945   -11114.671    43.917971   -11158.589    45292.701 
  105800    246.51115   -11116.216    41.148963   -11157.365   -53035.028 
  106000    284.15754   -11101.069    47.433101   -11148.502    21144.018 
  106200    298.64066   -11117.705      49.8507   -11167.556   -44575.091 
  106400    258.52308   -11122.195    43.154059   -11165.349   -5774.9428 
  106600    316.19171   -11105.628    52.780415   -11158.409    24811.058 
  106800    288.13916   -11111.445    48.097733   -11159.542   -49679.625 
  107000    230.56706   -11124.211    38.487491   -11162.699    53868.187 
  107200    242.81782   -11123.713    40.532452   -11164.245   -51187.935 
  107400    317.50203   -11105.387    52.999142   -11158.386   -6504.9966 
  107600     282.2916    -11110.17    47.121628   -11157.291    980.90043 
  107800     259.9241   -11125.912    43.387925     -11169.3    50258.486 
  108000    332.26813   -11107.201    55.463977   -11162.665   -48647.863 
  108200    304.44187   -11114.488    50.819069   -11165.307   -37171.145 
  108400    254.87604   -11121.911    42.545275   -11164.456    27909.176 
  108600    262.67295   -11118.592    43.846778   -11162.439    8617.6448 
  108800    277.14454   -11105.994    46.262453   -11152.256    18869.607 
  109000    257.38318   -11120.819     42.96378   -11163.782    2454.7328 
  109200    257.75467   -11116.772    43.025792   -11159.798   -56544.252 
  109400     307.3398   -11112.827    51.302808    -11164.13   -25445.554 
  109600    292.14702     -11121.1    48.766748   -11169.867     56791.89 
  109800    280.09314   -11123.044    46.754649   -11169.799    10752.619 
  110000      299.125   -11108.261    49.931548   -11158.193   -6967.1545 
  110200    309.87802   -11114.968      51.7265   -11166.694   -7155.4425 
  110400    269.04636    -11124.09    44.910662       -11169   -977.44934 
  110600     310.7165   -11110.159    51.866464   -11162.026   -35050.441 
  110800    292.30038   -11108.139    48.792348   -11156.932   -10138.438 
  111000     275.2616   -11124.487    45.948142   -11170.435   -46754.298 
  111200    291.80444   -11115.865    48.709562   -11164.575   -73499.753 
  111400    342.04432   -11107.312    57.095872   -11164.408   -53760.369 
  111600    304.59882   -11111.539    50.845268   -11162.384    14016.515 
  111800    301.76742   -11118.628    50.372636   -11169.001   -21781.458 
  112000    294.11397   -11119.265     49.09508    -11168.36     15089.07 
  112200    312.42164   -11101.268    52.151096   -11153.419   -26571.372 
  112400    297.63736   -11116.102    49.683224   -11165.785   -29649.138 
  112600    269.43761   -11114.834    44.975971    -11159.81    17259.118 
  112800    314.50091   -11102.407    52.498179   -11154.905   -21231.353 
  113000    281.87835   -11110.574    47.052645   -11157.627   -70575.044 
  113200    287.30279   -11113.493    47.958123   -11161.451   -33944.751 
  113400      301.286   -11102.531    50.292275   -11152.823   -40246.736 
  113600      283.596   -11125.887    47.339365   -11173.226    50938.799 
  113800    307.06351   -11113.054    51.256688   -11164.311    3089.9313 
  114000    270.22361   -11108.792    45.107175     -11153.9    -53168.38 
  114200     277.5665   -11116.719    46.332888   -11163.052   -12444.264 
  114400    295.27958   -11127.395    49.289651   -11176.685   -31717.952 
  114600    289.52723   -11111.376    48.329438   -11159.706    9780.0376 
  114800    323.59753   -11104.217    54.016636   -11158.234    32743.326 
  115000    272.47741   -11119.518     45.48339   -11165.001    11312.029 
  115200    276.39772   -11119.591     46.13779   -11165.729    -13543.61 
  115400    352.02016   -11104.857    58.761093   -11163.618    19061.644 
  115600    289.12837   -11107.234    48.262857   -11155.497    3259.9862 
  115800    296.27097   -11118.998    49.455139   -11168.453   -35077.742 
  116000    254.35173   -11127.466    42.457756   -11169.924   -31877.512 
  116200    277.61261   -11112.864    46.340586   -11159.205    6550.6673 
  116400    276.62847   -11115.571    46.176307   -11161.748    3342.0516 
  116600    341.24129   -11113.691    56.961827   -11170.653   -17305.801 
  116800    331.94638    -11108.44    55.410269    -11163.85    26988.004 
  117000    286.10634   -11124.212    47.758405    -11171.97    -20387.58 
  117200    310.06593   -11108.867    51.757867   -11160.625   -41217.649 
  117400    278.13501   -11110.301    46.427787   -11156.729    1470.1495 
  117600     287.1738    -11115.64    47.936591   -11163.577   -7170.8465 
  117800    254.32149   -11126.709    42.452708   -11169.162   -6245.1912 
  118000    302.44738   -11106.765    50.486138   -11157.251    9378.1994 
  118200    272.83631   -11110.022      45.5433   -11155.565   -29588.834 
  118400    264.71717   -11121.018    44.188009   -11165.206   -28335.343 
  118600     288.5741   -11114.433    48.170336   -11162.603    3191.8625 
  118800    337.74733   -11094.886    56.378595   -11151.264    75500.706 
  119000    269.81342   -11115.753    45.038702   -11160.792    827.47021 
  119200    345.58047   -11115.543    57.686146   -11173.229   -23385.304 
  119400    314.06918   -11122.158    52.426111   -11174.584    40699.554 
  119600    344.94346   -11103.947    57.579812   -11161.526    35548.888 
  119800    318.80867   -11107.636    53.217252   -11160.853   -2957.8318 
  120000    265.04588   -11122.413     44.24288   -11166.656   -41767.818 
  120200    342.89175   -11107.406     57.23733   -11164.644   -27992.371 
  120400    298.04826   -11116.111    49.751814   -11165.863    100442.59 
  120600    272.61263   -11125.055    45.505962    -11170.56   -56296.778 
  120800    289.33944   -11114.685    48.298091   -11162.983   -10043.625 
  121000    284.28158    -11120.34    47.453805   -11167.793   -4447.7038 
  121200    245.93938   -11123.925     41.05352   -11164.979   -53847.656 
  121400    320.12387   -11103.864    53.436793   -11157.301    30381.505 
  121600    293.53522   -11109.473    48.998473   -11158.472   -59543.939 
  121800    285.42493   -11118.536     47.64466   -11166.181    24993.423 
  122000    270.24326   -11110.769    45.110454   -11155.879      6365.33 
  122200    355.95928   -11106.456    59.418633   -11165.875    18614.752 
  122400    313.12321   -11116.431    52.268205     -11168.7    25463.734 
  122600    268.22165   -11125.116    44.772996   -11169.889    -27443.44 
  122800    354.27355   -11104.681    59.137241   -11163.818   -54573.721 
  123000    304.36565   -11100.736    50.806347   -11151.543    36987.818 
  123200    285.10186   -11119.792    47.590731   -11167.382    643.10383 
  123400    301.16884   -11112.311    50.272718   -11162.584   -17645.419 
  123600    349.96894   -11093.731    58.418692    -11152.15   -76950.851 
  123800    287.24023   -11111.679     47.94768   -11159.626   -68593.507 
  124000    294.74669   -11115.347    49.200698   -11164.547   -19478.425 
  124200    312.35058   -11104.928    52.139234   -11157.067    77760.307 
  124400    303.46082   -11107.752    50.655308   -11158.407    102749.95 
  124600    287.57632   -11118.219    48.003782   -11166.223   -7516.2187 
  124800    290.37239    -11113.48    48.470517   -11161.951    25137.086 
  125000    318.79826    -11120.21    53.215514   -11173.425   -36744.754 
  125200    265.57774   -11127.316     44.33166   -11171.647   -16740.482 
  125400    333.10626   -11111.185    55.603883   -11166.789    6131.4353 
  125600    330.79663   -11104.517    55.218347   -11159.736   -27336.973 
  125800    277.58799   -11120.427    46.336476   -11166.763   -13666.824 
  126000    257.73047   -11112.591    43.021752   -11155.613    25360.362 
  126200    292.74392   -11108.415    48.866385   -11157.282    16910.644 
  126400     259.2605   -11120.593    43.277152    -11163.87   -10096.983 
  126600     260.9035   -11119.793    43.551411   -11163.345    79559.695 
  126800    337.95863   -11105.634    56.413868   -11162.048    17326.468 
  127000    276.65159   -11119.062    46.180167   -11165.242    12526.871 
  127200    321.13495   -11101.957    53.605568   -11155.562    18974.222 
  127400    289.23901   -11103.237    48.281327   -11151.518    21057.468 
  127600    284.31151   -11111.083    47.458802   -11158.542    6661.1523 
  127800    309.65795   -11112.856    51.689765   -11164.545   -8119.8081 
  128000    298.86107   -11113.654    49.887493   -11163.541   -44877.257 
  128200    325.62295   -11112.702    54.354729   -11167.057    31349.866 
  128400    286.80885   -11115.527    47.875672   -11163.403   -19791.884 
  128600    303.54514   -11099.476    50.669383   -11150.145    55290.836 
  128800    307.22036   -11120.684    51.282871   -11171.967   -19431.928 
  129000    299.14847   -11114.473    49.935468   -11164.408    12906.561 
  129200    296.46111   -11106.838    49.486879   -11156.325    914.19768 
  129400    305.10021    -11114.33    50.928963   -11165.259   -211.90131 
  129600    405.46074   -11092.436    67.681682   -11160.118    45054.913 
  129800    310.95509   -11113.081    51.906292   -11164.987    31944.772 
  130000    288.92109   -11114.568    48.228258   -11162.796   -51560.033 
  130200    350.39093    -11101.82    58.489134   -11160.309    -27231.72 
  130400    310.00054   -11110.569    51.746952   -11162.316    13597.244 
  130600    254.54338   -11127.581    42.489746   -11170.071    15496.441 
  130800    296.35655   -11123.959    49.469425   -11173.429   -42714.479 
  131000    357.66678   -11110.394    59.703657   -11170.097   -46655.057 
  131200    289.73614    -11116.08     48.36431   -11164.445   -11508.088 
  131400    255.44882   -11125.825    42.640887   -11168.466    21330.067 
  131600    288.19637   -11110.958    48.107284   -11159.066    12489.095 
  131800    315.46471   -11105.188    52.659061   -11157.847    60365.716 
  132000    296.06278    -11118.88    49.420387     -11168.3   -38737.718 
  132200    275.62803   -11123.187    46.009309   -11169.197    -49611.33 
  132400    320.76035   -11107.001    53.543037   -11160.545   -9752.0945 
  132600    304.85769   -11114.791     50.88848    -11165.68    1938.1354 
  132800    263.74236   -11131.391    44.025289   -11175.417   -7288.7669 
  133000    324.90561   -11115.868    54.234987   -11170.103   -37747.967 
  133200    359.68868   -11105.861    60.041164   -11165.902   -25030.691 
  133400    285.65665   -11113.889     47.68334   -11161.572     7881.222 
  133600    297.21942   -11122.023    49.613459   -11171.636   -1146.9479 
  133800    325.88356    -11109.37    54.398232   -11163.768    28145.105 
  134000    309.40315   -11108.692    51.647233   -11160.339     52774.66 
  134200    239.75372   -11116.844    40.020976   -11156.865   -2166.4816 
  134400    341.29602   -11106.787    56.970961   -11163.758    16916.348 
  134600    351.95683   -11102.242    58.750521   -11160.993   -19298.971 
  134800    312.13928   -11118.056    52.103963    -11170.16    10818.049 
  135000     287.2655   -11111.271    47.951899   -11159.223    1150.0525 
  135200     288.4446   -11120.264    48.148719   -11168.412    34946.778 
  135400    288.26528   -11118.008    48.118787   -11166.127    21108.039 
  135600    333.02248    -11104.98    55.589899    -11160.57    7371.9668 
  135800    302.94681   -11112.377    50.569507   -11162.946   -47481.533 
  136000    229.98084   -11130.791    38.389635   -11169.181   -27914.484 
  136200    273.01977   -11114.368    45.573924   -11159.942    2056.5828 
  136400    322.00946    -11107.57    53.751546   -11161.322   -82233.123 
  136600    285.24703   -11123.332    47.614965   -11170.947    26190.341 
  136800    232.29649   -11113.428    38.776176   -11152.204   -20095.836 
  137000    287.79394   -11105.468    48.040109   -11153.508   -48.813703 
  137200    257.30127   -11114.424    42.950108   -11157.374   -30849.391 
  137400    276.17001   -11126.115    46.099778   -11172.215   -18357.368 
  137600    294.12487   -11112.455    49.096901   -11161.552   -29407.289 
  137800    299.83794    -11106.51    50.050557    -11156.56   -30731.382 
  138000    301.70841   -11124.898    50.362786   -11175.261    9492.0425 
  138200    311.01678   -11119.002    51.916588   -11170.918    28063.959 
  138400    331.34879   -11104.367    55.310517   -11159.678   -9987.7863 
  138600    271.88445   -11112.786     45.38441    -11158.17   -40800.682 
  138800      327.398   -11111.962     54.65103   -11166.613    37442.834 
  139000     281.5327    -11112.72    46.994949   -11159.715    30575.723 
  139200    318.94155   -11106.819    53.239435   -11160.058    43369.112 
  139400     310.9118   -11116.039    51.899065   -11167.938    51746.253 
  139600    227.39511   -11123.708    37.958011   -11161.666    32439.425 
  139800    309.48995   -11109.818    51.661722    -11161.48   -64403.418 
  140000    360.26872   -11104.601    60.137986   -11164.739   -65243.044 
  140200     268.3565   -11117.885    44.795506    -11162.68   -12628.763 
  140400    268.58218   -11108.917    44.833177   -11153.751   -75789.228 
  140600    324.82676   -11105.968    54.221825    -11160.19   -47271.914 
  140800    273.08637   -11120.954    45.585042   -11166.539     49618.38 
  141000    346.10776   -11111.198    57.774163   -11168.972     48815.46 
  141200    284.34026   -11110.618      47.4636   -11158.081     844.4428 
  141400    300.28437   -11113.486    50.125078   -11163.611    18468.102 
  141600    253.17176   -11119.285    42.260788   -11161.545   -53237.563 
  141800    298.74656    -11103.47    49.868377   -11153.338   -56966.215 
  142000    288.45944   -11114.364    48.151197   -11162.515    2216.9928 
  142200    209.92415   -11122.058    35.041665   -11157.099   -28043.625 
  142400    318.22824   -11108.053    53.120365   -11161.173    13700.568 
  142600    296.97346    -11113.43    49.572402   -11163.003   -50825.836 
  142800     370.2133    -11092.32     61.79799   -11154.118    27140.139 
  143000    320.17405   -11104.572    53.445169   -11158.018    16080.856 
  143200    271.90925   -11115.977     45.38855   -11161.366   -44678.606 
  143400    307.43568   -11105.607    51.318813   -11156.926    1623.2392 
  143600    342.45672     -11090.5    57.164712   -11147.665    43907.131 
  143800    313.71613   -11115.356    52.367178   -11167.723    14737.693 
  144000    319.43693   -11111.829    53.322125   -11165.151    23078.258 
  144200    308.74677   -11098.934    51.537666   -11150.471    838.67624 
  144400    289.64086   -11105.246    48.348405   -11153.594    69019.341 
  144600    245.99468    -11114.51    41.062752   -11155.573   -6378.1445 
  144800     313.4476   -11098.679    52.322354   -11151.001    50596.915 
  145000    311.01416   -11112.182    51.916152   -11164.098   -16641.689 
  145200     261.4403   -11114.099    43.641016    -11157.74    55353.306 
  145400    294.71131   -11099.185    49.194792    -11148.38    10796.366 
  145600     295.2294   -11115.193    49.281274   -11164.475   -93915.423 
  145800    298.29451   -11111.402    49.792919   -11161.195    40088.018 
  146000    299.07277   -11109.596    49.922831   -11159.519   -48843.391 
  146200     265.0265   -11124.275    44.239645   -11168.514    50801.091 
  146400    296.24273    -11107.02    49.450425   -11156.471    24682.965 
  146600    256.49326    -11113.97    42.815231   -11156.785    18814.594 
  146800    320.92583   -11103.916     53.57066   -11157.487   -21963.249 
  147000    332.42243   -11102.617    55.489734   -11158.107   -28031.975 
  147200     280.3816   -11114.081      46.8028   -11160.884    20900.076 
  147400    279.14127   -11112.864    46.595758    -11159.46   -34693.982 
  147600    312.34244   -11107.311    52.137875   -11159.449    67739.857 
  147800    296.85258   -11105.979    49.552224   -11155.531    42848.857 
  148000    315.44927   -11120.869    52.656485   -11173.526     36254.28 
  148200    260.29369   -11108.394    43.449619   -11151.843   -30437.186 
  148400     299.8292   -11109.717    50.049098   -11159.766   -9841.0318 
  148600    315.68372   -11111.684    52.695619    -11164.38    14650.112 
  148800     290.8742   -11112.118    48.554282   -11160.672   -36716.999 
  149000    336.24905   -11104.336    56.128495   -11160.464   -25279.554 
  149200    271.21933   -11120.824    45.273385   -11166.097    23195.141 
  149400    310.44982   -11109.983    51.821948   -11161.805   -22473.416 
  149600    308.57435   -11106.404    51.508885   -11157.913    11420.239 
  149800    263.89461   -11117.694    44.050704   -11161.745   -13628.457 
  150000    293.55261   -11108.963    49.001375   -11157.965   -3092.5152 
  150200    330.26519   -11085.788    55.129636   -11140.917   -76605.049 
  150400    310.40916   -11107.046    51.815162   -11158.861    -9245.726 
  150600     295.3492   -11117.051    49.301272   -11166.352   -3030.7788 
  150800    331.79856   -11102.242    55.385595   -11157.628   -103464.25 
  151000    268.77002   -11109.081    44.864533   -11153.946   -18624.499 
  151200    247.89023   -11122.155    41.379167   -11163.534    9175.8726 
  151400     307.0223   -11106.962    51.249809   -11158.212    19939.881 
  151600    318.55365   -11109.787    53.174684   -11162.962   -11863.115 
  151800    255.55123   -11126.152    42.657981    -11168.81   -3438.2655 
  152000    272.70005   -11116.472    45.520554   -11161.992   -79048.659 
  152200    293.61132   -11110.875    49.011176   -11159.886    -48271.86 
  152400    265.49509   -11109.909    44.317865   -11154.227   -59206.203 
  152600    265.62354   -11123.559    44.339305   -11167.898    7532.4661 
  152800    291.66437   -11105.222     48.68618   -11153.908   -16339.902 
  153000    258.69447   -11105.634    43.182668   -11148.817    17925.285 
  153200    307.40264    -11120.95    51.313297   -11172.264   -8986.5659 
  153400    237.11328   -11126.461     39.58022   -11166.041    43226.236 
  153600    311.23073   -11109.216    51.952303   -11161.168    46606.852 
  153800    280.46211   -11112.115    46.816239   -11158.931    29137.549 
  154000     246.0667   -11123.137    41.074773   -11164.212     28190.71 
  154200    294.00738   -11113.029    49.077288   -11162.106   -20526.964 
  154400    311.23446   -11105.009    51.952926   -11156.962   -42174.767 
  154600    335.96755   -11096.713    56.081506   -11152.795   -34052.389 
  154800     275.7841    -11118.02     46.03536   -11164.055   -34203.169 
  155000    314.06024   -11109.283    52.424619   -11161.707    15058.437 
  155200    319.05084   -11104.591    53.257677   -11157.849    20817.572 
  155400    277.00636   -11121.399    46.239388   -11167.638   -24811.495 
  155600    281.61169   -11103.831    47.008134    -11150.84    32118.312 
  155800    265.02631   -11114.049    44.239613   -11158.288   -65047.877 
  156000    299.86803    -11119.14     50.05558   -11169.195   -53804.977 
  156200    297.38991   -11100.025    49.641919   -11149.667    14936.496 
  156400    263.31193   -11114.166     43.95344    -11158.12   -45160.045 
  156600    302.31093   -11114.766    50.463362   -11165.229    23266.151 
  156800    324.39197   -11101.641    54.149247    -11155.79    18756.106 
  157000    330.83285   -11106.601    55.224393   -11161.826    5112.6583 
  157200    310.61531    -11113.46    51.849573   -11165.309     32757.76 
  157400    289.44843   -11111.716    48.316284   -11160.032   -9588.4568 
  157600    318.64418   -11114.009    53.189796   -11167.198   -28648.562 
  157800    222.36452   -11121.231    37.118277   -11158.349    39818.373 
  158000    288.46513   -11103.277    48.152146   -11151.429    11288.902 
  158200    291.60181   -11116.128    48.675738   -11164.804   -13876.496 
  158400    285.58017   -11116.191    47.670573   -11163.862    27764.539 
  158600    302.09704   -11103.027    50.427658   -11153.455   -20291.122 
  158800     286.8111   -11115.691    47.876048   -11163.567    92582.752 
  159000    293.69002   -11119.725    49.024312   -11168.749   -24620.884 
  159200    346.44813   -11103.788     57.83098   -11161.619    53174.844 
  159400    259.20217   -11116.803    43.267415    -11160.07   -1694.0888 
  159600    250.51856   -11129.626    41.817902   -11171.444   -24313.382 
  159800    263.01593   -11112.129    43.904029   -11156.033    21649.852 
  160000    334.19583   -11107.466    55.785759   -11163.252   -20206.012 
  160200    271.88904    -11122.43    45.385176   -11167.816    13618.914 
  160400    298.79522   -11108.391      49.8765   -11158.268   -46886.376 
  160600    309.93756   -11107.346     51.73644   -11159.082    35263.311 
  160800     277.2068   -11113.259    46.272846   -11159.532    8908.2612 
  161000    350.34006   -11100.794    58.480641   -11159.275   -15296.909 
  161200    307.85108   -11111.634    51.388153   -11163.022    110531.99 
  161400    283.05056   -11116.942    47.248317   -11164.191    2512.6891 
  161600    337.25581   -11102.308    56.296549   -11158.605   -18874.242 
  161800    272.30739   -11110.277    45.455009   -11155.732   -104684.17 
  162000    292.74281   -11115.815      48.8662   -11164.681    37522.893 
  162200     295.2108   -11122.028     49.27817   -11171.306   -4290.8128 
  162400    344.72863   -11110.564    57.543952   -11168.108    4027.0902 
  162600    322.80419   -11102.982    53.884207   -11156.866    6667.6113 
  162800     235.9772   -11125.466     39.39058   -11164.856   -7344.1464 
  163000    343.69326   -11114.467    57.371122   -11171.838   -331.46234 
  163200    283.27191    -11109.29    47.285266   -11156.575    -53091.99 
  163400    338.56406   -11097.687    56.514928   -11154.202   -41523.352 
  163600    282.77641   -11114.812    47.202556   -11162.015   -8408.3896 
  163800    292.82873   -11117.559    48.880542    -11166.44    41152.756 
  164000    350.62283   -11100.794    58.527842   -11159.322    28782.748 
  164200    302.91741   -11109.959    50.564599   -11160.524    77862.717 
  164400    289.07865   -11115.222    48.254558   -11163.476    11740.697 
  164600    332.87238    -11111.03    55.564843   -11166.595    8703.4226 
  164800    323.57459    -11114.56    54.012806   -11168.573    45640.755 
  165000    273.76209    -11125.64    45.697837   -11171.337   -49265.124 
  165200     314.8818   -11104.986    52.561758   -11157.548   -66559.267 
  165400    263.42189   -11115.493    43.971794   -11159.465    34877.425 
  165600    256.11037   -11123.327    42.751316   -11166.078    7977.2976 
  165800    305.04202   -11102.688     50.91925   -11153.607    92134.318 
  166000    310.64837   -11107.168    51.855092   -11159.024    15745.675 
  166200    293.75519   -11120.349    49.035191   -11169.384   -17047.257 
  166400    269.49212   -11117.171     44.98507   -11162.156   -19010.698 
  166600     367.7569   -11091.463    61.387954   -11152.851    11124.365 
  166800    292.69845   -11108.965    48.858796   -11157.824   -32876.334 
  167000    298.05347   -11117.738    49.752684   -11167.491    18095.784 
  167200    336.32456   -11097.756    56.141099   -11153.897     10682.89 
  167400    293.12475   -11107.028    48.929954   -11155.958   -19182.027 
  167600    317.35482   -11115.473    52.974569   -11168.448    2060.0783 
  167800    301.16898   -11112.097    50.272742   -11162.369    42775.213 
  168000    272.58589   -11128.474    45.501499   -11173.975    -43347.18 
  168200      307.394   -11121.669    51.311855   -11172.981    43115.878 
  168400     278.4709     -11106.7    46.483857   -11153.184    76981.315 
  168600    319.14129   -11109.022    53.272776   -11162.295   -29078.973 
  168800    250.76809   -11122.035    41.859555   -11163.895     19325.94 
  169000    297.98118   -11107.944    49.740617   -11157.685   -85144.531 
  169200    336.65958   -11107.498    56.197023   -11163.695   -50823.457 
  169400    294.24014    -11114.09    49.116142   -11163.206   -64945.306 
  169600    316.07133   -11117.033    52.760322   -11169.793    51295.196 
  169800    294.34486   -11110.493    49.133623   -11159.627   -23499.613 
  170000    320.81434   -11100.094    53.552051   -11153.646   -91757.418 
  170200    272.11545   -11121.829    45.422971   -11167.252    21745.135 
  170400    282.22367   -11113.161    47.110289   -11160.272    -27119.32 
  170600     287.3818   -11107.375    47.971312   -11155.347    38275.176 
  170800    312.75444   -11111.759    52.206648   -11163.966   -17917.825 
  171000    286.12752   -11117.165     47.76194   -11164.927    34581.972 
  171200    302.09534   -11105.417    50.427374   -11155.845   -11948.058 
  171400    336.48701   -11107.558    56.168217   -11163.726   -14617.959 
  171600    274.57011   -11119.118    45.832716   -11164.951   -49762.724 
  171800    301.99519   -11112.477    50.410657   -11162.888   -22389.677 
  172000    281.35834   -11113.498    46.965843   -11160.464   -2621.9159 
  172200    262.08828   -11123.566    43.749182   -11167.316   -38500.095 
  172400    352.06432   -11106.762    58.768464   -11165.531   -6786.3859 
  172600     327.3488   -11110.754    54.642817   -11165.397   -13592.328 
  172800    293.89843   -11122.621    49.059101    -11171.68   -46242.136 
  173000    347.19114   -11099.081    57.955007   -11157.036    38153.263 
  173200    287.88951    -11113.51    48.056061   -11161.566    21587.538 
  173400    312.77739    -11118.55    52.210479    -11170.76    -14675.21 
  173600    289.70788   -11098.397    48.359593   -11146.756   -35180.872 
  173800    310.78868   -11109.057    51.878514   -11160.936    -30998.19 
  174000    329.78966   -11113.757    55.050259   -11168.807   -39129.611 
  174200    334.43301   -11104.199    55.825352   -11160.024    93396.394 
  174400    298.29472   -11115.159    49.792954   -11164.952   -25604.996 
  174600    247.03357   -11119.344    41.236168    -11160.58   -67096.901 
  174800    370.79328   -11105.719    61.894802   -11167.614   -18654.443 
  175000    302.07159   -11118.834    50.423409   -11169.258   -15907.111 
  175200    331.73738   -11103.085    55.375382    -11158.46    46134.006 
  175400    312.86676   -11102.672    52.225397   -11154.897    14187.959 
  175600     294.3357   -11112.484    49.132093   -11161.616    24983.687 
  175800    371.07841   -11104.907    61.942398   -11166.849    37155.286 
  176000    364.61274   -11094.561    60.863114   -11155.424    55993.902 
  176200    293.79459   -11113.968    49.041768    -11163.01   -86912.876 
  176400      323.146   -11105.243    53.941263   -11159.185    7021.1047 
  176600    296.97467   -11109.633    49.572605   -11159.205   -12463.381 
  176800    311.91984   -11117.584    52.067333   -11169.652     18092.32 
  177000    330.21606    -11101.67    55.121435   -11156.792   -17028.516 
  177200     299.6263    -11117.62    50.015228   -11167.636    14037.043 
  177400     307.0927   -11117.547     51.26156   -11168.809     -15672.3 
  177600    335.94157   -11106.448    56.077169   -11162.526    8614.2593 
  177800    290.22616   -11120.616    48.446106   -11169.063    2524.2856 
  178000    243.51913   -11123.478    40.649519   -11164.127    10073.417 
  178200    325.64907    -11111.09    54.359089    -11165.45   -13388.578 
  178400    362.37059   -11106.912    60.488842   -11167.401   -23072.373 
  178600    327.30263   -11096.671     54.63511   -11151.306    49020.769 
  178800    291.51704   -11117.069    48.661587   -11165.731   -2897.7353 
  179000     305.8027   -11114.007    51.046227   -11165.053   -303.02701 
  179200    354.04184   -11102.271    59.098563    -11161.37    -30111.85 
  179400    246.67032    -11118.38    41.175532   -11159.555   -47869.006 
[...]
  950000    271.23606    -11123.29    45.276178   -11168.566    25612.194 
  950200    310.74451   -11107.348    51.871141   -11159.219    78735.024 
  950400    290.59253   -11110.491    48.507263   -11158.998   -27740.092 
  950600    248.05955   -11126.537    41.407431   -11167.944   -8106.2725 
  950800    299.52336   -11113.713    49.998045   -11163.711    7959.9315 
  951000    276.73132   -11111.194    46.193477   -11157.387   -91293.774 
  951200    371.62908   -11098.929     62.03432   -11160.963   -7909.7974 
  951400    290.64747   -11113.922    48.516435   -11162.438   -13858.636 
  951600     279.4351   -11116.415    46.644806    -11163.06    48368.394 
  951800     365.2356   -11101.055    60.967084   -11162.022    4006.8857 
  952000    356.16533     -11109.9    59.453027   -11169.353    -52224.85 
  952200    308.34895   -11120.326    51.471261   -11171.797   -6674.3623 
  952400    306.84256   -11113.362    51.219805   -11164.582   -62235.581 
  952600    342.47892   -11107.667    57.168418   -11164.835    74434.951 
  952800    334.40826   -11110.814     55.82122   -11166.635     36620.95 
  953000    278.77671   -11112.425    46.534903    -11158.96   -28327.331 
  953200    326.02675   -11093.538    54.422134    -11147.96    9118.5015 
  953400    307.28968   -11113.544    51.294441   -11164.838   -9557.0345 
  953600      310.026   -11116.108    51.751203   -11167.859   -39234.889 
  953800    347.76286   -11096.919    58.050442    -11154.97   -86966.112 
  954000    294.87024   -11111.048    49.221322   -11160.269   -84221.402 
  954200    308.34239   -11116.692    51.470165   -11168.162    33953.601 
  954400    271.66418   -11123.203    45.347642   -11168.551    12346.806 
  954600    302.76949   -11104.879    50.539907   -11155.419   -52741.915 
  954800    285.59645   -11113.992    47.673291   -11161.666    48742.678 
  955000     268.2511   -11116.733    44.777912   -11161.511   -55574.841 
  955200    337.88379   -11106.058    56.401374   -11162.459   -29387.367 
  955400    258.52762   -11122.205    43.154817    -11165.36    53913.615 
  955600    241.52306     -11120.6    40.316325   -11160.916   -74632.145 
  955800      331.983   -11111.473    55.416383    -11166.89   -33626.962 
  956000    323.17947   -11110.442     53.94685   -11164.389    50024.863 
  956200     380.9897   -11096.679    63.596844   -11160.276    88931.501 
  956400    266.20656     -11115.7    44.436627   -11160.136    63294.884 
  956600    309.81723   -11114.345    51.716354   -11166.061   -42631.557 
  956800    364.76815   -11092.612    60.889056   -11153.501   -41912.685 
  957000    369.90319   -11104.613    61.746224   -11166.359   -38611.213 
  957200    311.02103   -11116.059    51.917298   -11167.977    39250.316 
  957400    305.01423   -11115.342    50.914611   -11166.257   -286.84347 
  957600    347.80717   -11099.851    58.057837   -11157.909   -28135.344 
  957800    286.29289   -11116.181    47.789544    -11163.97   -14099.615 
  958000    334.41886   -11112.094     55.82299   -11167.917    27079.873 
  958200    342.76357   -11098.462    57.215932   -11155.678   -76165.523 
  958400    283.24934    -11114.75    47.281499   -11162.032   -3624.9082 
  958600    296.28115   -11116.027    49.456838   -11165.484   -29805.088 
  958800    370.57769   -11100.717    61.858815   -11162.576   -18655.337 
  959000    290.34263   -11112.991    48.465549   -11161.457    66536.859 
  959200    302.94729   -11114.223    50.569586   -11164.792   -13260.184 
  959400    345.35324   -11103.824    57.648215   -11161.472   -38886.293 
  959600    295.48726   -11102.177    49.324319   -11151.501    14006.533 
  959800    304.00015   -11119.969    50.745335   -11170.715    27662.818 
  960000    327.52791   -11105.032    54.672715   -11159.705   -53440.453 
  960200    311.64584   -11107.195    52.021595   -11159.216    43642.564 
  960400    326.49279   -11112.174    54.499928   -11166.674    68028.562 
  960600    334.46004    -11104.74    55.829864    -11160.57    31277.479 
  960800    300.58638   -11102.813    50.175491   -11152.989    -20514.02 
  961000    264.87475    -11115.92    44.214314   -11160.135   -16155.395 
  961200    288.89124   -11108.561    48.223275   -11156.784    37834.669 
  961400     359.7393   -11098.813    60.049613   -11158.863    10418.491 
  961600    290.86489   -11117.096    48.552728   -11165.649    26177.039 
  961800    290.62104   -11105.011    48.512022   -11153.523   -38624.015 
  962000    343.58385   -11102.026    57.352859   -11159.379     10829.92 
  962200    258.70688   -11119.958     43.18474   -11163.143    73294.751 
  962400    303.36625   -11107.345    50.639522   -11157.984   -30327.007 
  962600    331.98727   -11102.651    55.417095   -11158.068    94996.964 
  962800    326.07694   -11112.191    54.430512   -11166.621    -42272.68 
  963000    268.45279   -11114.933    44.811579   -11159.744    15850.555 
  963200    286.81003   -11111.422    47.875868   -11159.298    68198.952 
  963400    382.14808   -11097.124    63.790206   -11160.915   -18870.342 
  963600    296.01406   -11116.858    49.412254    -11166.27   -35451.547 
  963800    297.18978   -11109.015    49.608512   -11158.623    14254.322 
  964000    341.68335   -11095.526    57.035617   -11152.562    31404.601 
  964200    321.00512   -11106.974    53.583895   -11160.558    18714.016 
  964400    304.07068   -11117.702    50.757108   -11168.459    46809.706 
  964600    255.20772   -11109.595    42.600642   -11152.196   -80424.141 
  964800    280.78982   -11100.486    46.870942   -11147.357    18873.505 
  965000    284.32539   -11117.335    47.461118   -11164.796    27664.636 
  965200    307.33526   -11110.235     51.30205   -11161.538   -86141.941 
  965400    351.89437   -11098.728    58.740096   -11157.468    88012.703 
  965600    290.71528   -11115.658    48.527754   -11164.185   -45835.938 
  965800    300.89076   -11112.669    50.226299   -11162.896    38569.317 
  966000    375.21098   -11098.252    62.632229   -11160.884    33914.545 
  966200    271.61561   -11122.848    45.339535   -11168.188    8984.2336 
  966400    295.86312     -11112.2    49.387058   -11161.587    15961.895 
  966600       281.21   -11114.183    46.941081   -11161.124   -44411.664 
  966800    300.63644   -11123.227    50.183847   -11173.411    47309.275 
  967000    352.82266   -11104.903     58.89505   -11163.798   -30810.118 
  967200    292.79102    -11114.75    48.874247   -11163.625   -31992.456 
  967400    298.04988   -11113.962    49.752085   -11163.714   -39478.124 
  967600    302.24518   -11108.468    50.452387   -11158.921    4219.1133 
  967800    320.64333   -11109.503    53.523504   -11163.026     33346.35 
  968000     311.9963   -11118.078    52.080095   -11170.158   -26832.742 
  968200    316.36177   -11103.821    52.808804    -11156.63   -21800.671 
  968400    309.84261   -11109.176    51.720591   -11160.896   -14812.411 
  968600     279.8311   -11116.621    46.710908   -11163.331    19062.764 
  968800    301.01476   -11106.328    50.246999   -11156.575   -38898.812 
  969000    323.73012   -11100.031    54.038767    -11154.07    52355.795 
  969200    280.25916    -11114.85    46.782362   -11161.633    41565.999 
  969400    339.89017   -11102.176    56.736289   -11158.912   -11157.516 
  969600     256.4982    -11122.14    42.816054   -11164.956    7149.0007 
  969800    286.16412   -11109.462     47.76805    -11157.23   -11062.194 
  970000    294.16302   -11109.946    49.103268    -11159.05    32948.689 
  970200    274.16955   -11124.486    45.765852   -11170.251    17831.946 
  970400    319.97412   -11107.379    53.411796    -11160.79   -11516.895 
  970600    362.65621   -11113.809    60.536519   -11174.345   -45897.369 
  970800    262.63145   -11123.889     43.83985   -11167.729    20942.465 
  971000    316.16697   -11108.799    52.776286   -11161.575    17500.141 
  971200    314.03584   -11108.202    52.420546   -11160.623    27174.156 
  971400    259.14316   -11126.354    43.257565   -11169.611   -1148.5666 
  971600    331.95545   -11112.266    55.411784   -11167.678    -500.8633 
  971800    326.59198   -11111.462    54.516485   -11165.979    4881.8555 
  972000    296.43841   -11122.429    49.483088   -11171.912     15024.19 
  972200    243.35386   -11122.225    40.621932   -11162.847    28776.497 
  972400    302.07249   -11107.725     50.42356   -11158.149    48415.845 
  972600    299.09403   -11111.122     49.92638   -11161.048    3378.6036 
  972800    268.73349    -11123.81    44.858436   -11168.669   -18202.246 
  973000    304.31381   -11112.297    50.797694   -11163.095   -15495.012 
  973200    263.74162   -11112.479    44.025166   -11156.504    72301.208 
  973400    252.57025   -11115.453    42.160381   -11157.614   -48603.379 
  973600    326.81278   -11103.615    54.553341   -11158.169   -18228.119 
  973800    272.35329    -11116.31    45.462671   -11161.773   -9712.8922 
  974000    257.24759   -11119.653    42.941148   -11162.594    27094.014 
  974200     329.3733   -11106.604    54.980757   -11161.585    -36093.17 
  974400    274.33437   -11110.808    45.793364   -11156.602    57391.835 
  974600    244.32667   -11115.956    40.784318   -11156.741    2436.0033 
  974800    274.96242   -11122.153    45.898202   -11168.051    3587.5117 
  975000    333.51437   -11104.474    55.672007   -11160.146   -38769.535 
  975200    299.92385   -11116.863    50.064898   -11166.928    42609.226 
  975400    302.11079   -11114.619    50.429953   -11165.049   -30035.948 
  975600    314.44344   -11103.923    52.488585   -11156.412   -447.62621 
  975800    282.42639   -11120.483    47.144128   -11167.627   -36669.717 
  976000    339.93221   -11105.375    56.743307   -11162.118   -13953.574 
  976200    307.23729   -11106.033    51.285697   -11157.319   -6897.0843 
  976400    302.43397   -11113.096      50.4839    -11163.58   -17596.773 
  976600    368.41769   -11106.865    61.498256   -11168.364    10010.898 
  976800    411.45032    -11088.07    68.681494   -11156.752   -2944.5362 
  977000    304.85823   -11110.505     50.88857   -11161.394   -45216.328 
  977200      274.784   -11119.419    45.868419   -11165.288    -13434.71 
  977400    283.32848   -11123.059    47.294709   -11170.354    28854.865 
  977600    336.76215    -11105.89    56.214144   -11162.104    39752.836 
  977800    267.99548   -11113.319    44.735242   -11158.054    757.09319 
  978000    260.18037   -11121.617    43.430702   -11165.047    6544.7809 
  978200    295.28019   -11111.335    49.289753   -11160.625    52112.321 
  978400    308.62579   -11110.279    51.517471   -11161.797   -14617.978 
  978600    283.93002   -11125.252    47.395122   -11172.647    27582.551 
  978800    347.30731   -11108.631    57.974399   -11166.605   -34069.213 
  979000    327.35435   -11105.985    54.643743   -11160.629   -80704.354 
  979200     266.9675   -11124.638    44.563647   -11169.202    28034.285 
  979400    312.15837    -11116.36     52.10715   -11168.467   -6853.1754 
  979600    307.67412    -11111.95    51.358614   -11163.309    807.95804 
  979800    277.57211   -11108.459    46.333825   -11154.793   -43139.489 
  980000    234.00239   -11116.728    39.060934   -11155.789   -29281.134 
  980200    280.34622   -11105.465    46.796894   -11152.262    13071.421 
  980400    318.96795   -11104.213    53.243841   -11157.457   -49142.461 
  980600    285.91961   -11114.326    47.727234   -11162.053   -87235.182 
  980800     306.8003   -11114.458    51.212752    -11165.67    14333.039 
  981000    330.94599   -11107.701     55.24328   -11162.944   -30926.654 
  981200    329.44988   -11100.754     54.99354   -11155.748   -9204.9575 
  981400    254.91944   -11120.954     42.55252   -11163.506   -51345.963 
  981600    341.67298    -11108.62    57.033887   -11165.654   -21424.727 
  981800    294.59923   -11110.645    49.176083   -11159.821   -55865.277 
  982000    282.49645   -11121.108    47.155822   -11168.264   -52011.539 
  982200    320.73082   -11104.081    53.538109   -11157.619   -81473.642 
  982400    272.09019   -11113.596    45.418754   -11159.014    18161.148 
  982600    266.28328   -11126.052    44.449433   -11170.501   -31279.074 
  982800    360.72104   -11112.299     60.21349   -11172.513     37615.99 
  983000     299.2632     -11109.6    49.954618   -11159.554    32228.109 
  983200    244.20304   -11126.273    40.763681   -11167.037    19432.626 
  983400    289.57127   -11111.089     48.33679   -11159.426    -9200.016 
  983600    298.32101   -11108.826    49.797343   -11158.623   -4997.1188 
  983800    269.46759   -11126.905    44.980974   -11171.886    3130.5346 
  984000    311.08166   -11111.199    51.927419   -11163.127    -39835.91 
  984200    276.35912   -11110.521    46.131346   -11156.653    84155.269 
  984400    281.06561   -11120.329    46.916979   -11167.246    40147.993 
  984600    321.50943   -11102.498    53.668078   -11156.166   -33774.282 
  984800    296.03025   -11109.537    49.414957   -11158.952    9715.2646 
  985000    304.73639    -11118.17    50.868233   -11169.038   -35335.654 
  985200    315.18559   -11107.258    52.612468    -11159.87    71440.812 
  985400    307.49128   -11097.381    51.328094   -11148.709   -32408.054 
  985600     333.9696   -11111.721    55.747996   -11167.469     52051.98 
  985800    263.45857   -11119.668    43.977917   -11163.646   -18150.183 
  986000    273.18593   -11102.856    45.601661   -11148.458   -22790.271 
  986200    337.42258   -11111.615    56.324387   -11167.939    31952.176 
  986400    305.29833   -11114.552    50.962034   -11165.514    9799.1647 
  986600    310.89393    -11106.64    51.896082   -11158.536   -38087.287 
  986800    248.72257   -11121.729    41.518105   -11163.248    64271.231 
  987000    347.35004   -11109.994    57.981532   -11167.975   -33470.079 
  987200    290.07293   -11109.475     48.42053   -11157.896    17148.998 
  987400    276.98845   -11114.676    46.236398   -11160.912    21526.597 
  987600    328.53855   -11105.584    54.841417   -11160.426    20576.319 
  987800    324.87594   -11100.884    54.230035   -11155.114   -56047.185 
  988000    285.86113   -11117.981    47.717473   -11165.699    52349.214 
  988200    347.18078   -11107.671    57.953278   -11165.624    37190.065 
  988400     391.6722   -11097.332    65.380025   -11162.712    11346.521 
  988600    253.45663   -11115.042     42.30834    -11157.35    14758.582 
  988800    293.75171   -11105.564    49.034611   -11154.598   -5636.0178 
  989000    381.20864   -11099.758    63.633391   -11163.391    29884.668 
  989200    303.06872    -11117.41    50.589856       -11168    46891.036 
  989400    398.62676   -11104.591    66.540916   -11171.132   -15082.734 
  989600    281.01258   -11117.702    46.908127    -11164.61   -16337.225 
  989800    290.87283   -11119.141    48.554053   -11167.695    95112.722 
  990000    305.54503   -11109.429    51.003215   -11160.432   -10113.976 
  990200    302.82446   -11115.106    50.549083   -11165.655   -48428.651 
  990400    282.97571   -11130.683    47.235824   -11177.918   -61865.301 
  990600     257.2757   -11115.378    42.945839   -11158.323   -40175.292 
  990800    291.63738   -11105.237    48.681676   -11153.919   -9323.5663 
  991000    291.49836   -11106.991    48.658469   -11155.649   -42611.692 
  991200    283.79336   -11120.026    47.372309   -11167.398    3995.8151 
  991400    365.99192   -11101.345    61.093334   -11162.438   -85340.256 
  991600    286.98705   -11117.031    47.905418   -11164.937    8648.3444 
  991800    334.99068   -11113.602     55.91844    -11169.52    -42693.42 
  992000    322.05859   -11097.676    53.759747   -11151.436   -46995.956 
  992200    311.76783   -11115.893    52.041958   -11167.935   -4799.6154 
  992400    268.00902   -11117.689    44.737503   -11162.426    61597.806 
  992600    353.12688    -11099.74    58.945833   -11158.686    27050.512 
  992800     273.6308   -11113.483    45.675921   -11159.159    23065.759 
  993000     313.7934   -11113.705    52.380077   -11166.085    69414.015 
  993200    332.49004    -11094.29     55.50102   -11149.791   -25132.914 
  993400     350.0162   -11106.096    58.426582   -11164.522    61118.314 
  993600    290.28295   -11117.652    48.455587   -11166.107    4493.0524 
  993800    344.17363   -11098.465    57.451308   -11155.916   -51647.957 
  994000    268.35465   -11110.562    44.795197   -11155.357    55281.106 
  994200    332.01972   -11107.217    55.422512    -11162.64    30885.737 
  994400    353.47388   -11104.436    59.003755    -11163.44    38297.058 
  994600    290.17691    -11122.16    48.437885   -11170.598    37479.547 
  994800     312.0763    -11112.08    52.093449   -11164.174    15122.754 
  995000    266.73073   -11112.308    44.524125   -11156.832    42238.839 
  995200     301.0525   -11103.324    50.253298   -11153.578    23714.275 
  995400     314.9796   -11099.131    52.578083   -11151.709    45697.838 
  995600    295.33453   -11115.063    49.298823   -11164.362    41620.299 
  995800    308.20704   -11108.175    51.447572   -11159.623    16859.874 
  996000    338.13979   -11093.606    56.444108    -11150.05   -13865.035 
  996200    291.26112    -11114.44    48.618867   -11163.059    12460.805 
  996400    314.25616    -11108.78    52.457323   -11161.238    14107.164 
  996600    337.95799   -11098.135    56.413761   -11154.549     19746.19 
  996800    286.65454   -11116.453    47.849913   -11164.302   -5002.7324 
  997000    293.19162   -11110.963    48.941117   -11159.904    21191.691 
  997200    325.07614   -11106.323    54.263453   -11160.586     34532.12 
  997400    307.38074   -11114.865    51.309642   -11166.174    82750.142 
  997600    341.47398   -11102.948    57.000669   -11159.949   -11564.295 
  997800    345.84894   -11096.403     57.73096   -11154.134   -24654.272 
  998000    260.51155   -11117.793    43.485985   -11161.279    35856.259 
  998200    315.50063   -11114.242    52.665056   -11166.907   -5837.3189 
  998400    337.16006    -11103.15    56.280566    -11159.43   -46515.838 
  998600    259.66046    -11111.51    43.343916   -11154.854   -20077.087 
  998800    294.63245   -11112.026    49.181629   -11161.207   -36347.376 
  999000    253.83758   -11126.185     42.37193   -11168.557   -2592.4626 
  999200    308.10072     -11109.4    51.429824    -11160.83    39298.256 
  999400    312.18531   -11111.153    52.111647   -11163.264    6597.1197 
  999600     274.2725   -11125.777    45.783037    -11171.56   -38080.915 
  999800    354.69423   -11104.565    59.207463   -11163.772   -88.354843 
 1000000     343.4916   -11111.152    57.337461   -11168.489    59043.469 
Loop time of 19305 on 8 procs for 1000000 steps with 57 atoms

Performance: 1.119 ns/day, 21.450 hours/ns, 51.800 timesteps/s
99.7% CPU use with 8 MPI tasks x no OpenMP threads

MPI task timing breakdown:
Section |  min time  |  avg time  |  max time  |%varavg| %total
---------------------------------------------------------------
Pair    | 15367      | 16424      | 17377      | 559.3 | 85.08
Neigh   | 0.68794    | 0.72996    | 0.77519    |   3.1 |  0.00
Comm    | 173.23     | 1126.3     | 2181.6     |2130.4 |  5.83
Output  | 0.46205    | 0.48773    | 0.64293    |   8.4 |  0.00
Modify  | 1730.8     | 1735.1     | 1738.6     |   7.1 |  8.99
Other   |            | 18.16      |            |       |  0.09

Nlocal:    7.125 ave 11 max 4 min
Histogram: 2 0 3 0 0 0 0 0 2 1
Nghost:    689.125 ave 746 max 642 min
Histogram: 2 0 0 1 2 0 1 1 0 1
Neighs:    1115 ave 1753 max 636 min
Histogram: 2 0 3 0 0 0 0 1 1 1

Total # of neighbors = 8920
Ave neighs/atom = 156.491
Neighbor list builds = 172
Dangerous builds = 0

Please see the log.cite file for references relevant to this simulation

Total wall time: 5:22:15
