ITEM: TIMESTEP
0
ITEM: NUMBER OF ATOMS
50
ITEM: BOX BOUNDS pp pp pp
0.0000000000000000e+00 1.1000000000000000e+01
0.0000000000000000e+00 1.1002000000000001e+01
0.0000000000000000e+00 1.1000000000000000e+01
ITEM: ATOMS id type x y z 
10 1 4.603 4.603 4.603 
11 1 3.085 3.085 3.085 
12 1 3.796 3.796 3.796 
46 1 0.726 0.725 0.725 
47 1 2.26 2.259 2.26 
48 1 1.551 1.55 1.55 
19 1 4.546 4.545 6.226 
20 1 3.013 3.013 7.764 
21 1 3.721 3.721 7.053 
31 1 0.668 0.667 10.103 
32 1 2.187 2.187 8.589 
33 1 1.476 1.475 9.298 
16 1 4.546 6.225 4.546 
17 1 3.013 7.765 3.013 
18 1 3.721 7.053 3.722 
25 1 0.668 10.103 0.668 
26 1 2.188 8.589 2.188 
27 1 1.476 9.298 1.476 
49 2 1.1 9.842 2.656 
50 3 1.1 9.842 3.632 
4 1 4.608 6.169 6.169 
5 1 3.086 7.684 7.684 
6 1 3.799 6.974 6.974 
37 1 0.729 10.046 10.046 
38 1 2.259 8.509 8.508 
39 1 1.552 9.219 9.219 
13 1 6.225 4.546 4.546 
14 1 7.764 3.013 3.013 
15 1 7.053 3.721 3.722 
28 1 10.102 0.667 0.668 
29 1 8.589 2.187 2.188 
30 1 9.298 1.475 1.476 
1 1 6.168 4.608 6.169 
2 1 7.684 3.086 7.684 
3 1 6.974 3.799 6.974 
40 1 10.045 0.728 10.046 
41 1 8.508 2.259 8.508 
42 1 9.218 1.551 9.218 
7 1 6.169 6.169 4.608 
8 1 7.684 7.684 3.086 
9 1 6.974 6.974 3.799 
43 1 10.046 10.047 0.729 
44 1 8.508 8.509 2.259 
45 1 9.219 9.219 1.552 
22 1 6.229 6.229 6.229 
23 1 7.764 7.765 7.765 
24 1 7.055 7.056 7.055 
34 1 10.108 10.108 10.107 
35 1 8.59 8.59 8.59 
36 1 9.301 9.301 9.3 
ITEM: TIMESTEP
10
ITEM: NUMBER OF ATOMS
50
ITEM: BOX BOUNDS pp pp pp
0.0000000000000000e+00 1.1000000000000000e+01
0.0000000000000000e+00 1.1002000000000001e+01
0.0000000000000000e+00 1.1000000000000000e+01
ITEM: ATOMS id type x y z 
10 1 4.6043 4.607 4.60411 
11 1 3.08835 3.08624 3.08883 
12 1 3.79738 3.8024 3.79681 
46 1 0.730261 0.715995 0.729454 
47 1 2.26096 2.26205 2.26118 
48 1 1.5549 1.54739 1.55317 
19 1 4.54541 4.54512 6.2273 
20 1 3.01248 3.01153 7.76618 
21 1 3.72013 3.72018 7.0517 
31 1 0.660899 0.685475 10.0942 
32 1 2.18844 2.18798 8.58584 
33 1 1.47577 1.47846 9.2991 
16 1 4.53505 6.23693 4.53485 
17 1 3.01442 7.76566 3.00454 
18 1 3.7225 7.05288 3.7223 
25 1 0.649645 10.1252 0.621126 
26 1 2.22077 8.5503 2.17565 
27 1 1.47672 9.30034 1.57922 
49 2 1.11886 9.81163 2.63962 
50 3 1.08524 9.8622 3.64486 
4 1 4.6086 6.16809 6.16485 
5 1 3.09009 7.68011 7.68205 
6 1 3.80044 6.97203 6.96696 
37 1 0.739563 10.0357 10.0561 
38 1 2.26259 8.5057 8.50234 
39 1 1.55928 9.21215 9.21989 
13 1 6.22515 4.54668 4.54408 
14 1 7.7642 3.01246 3.0118 
15 1 7.05421 3.7202 3.72301 
28 1 10.0916 0.674933 0.664968 
29 1 8.5871 2.18679 2.18957 
30 1 9.29824 1.47795 1.47465 
1 1 6.16466 4.60881 6.16608 
2 1 7.68112 3.08621 7.68227 
3 1 6.97463 3.80245 6.97257 
40 1 10.0451 0.729346 10.0452 
41 1 8.50581 2.26288 8.50596 
42 1 9.21374 1.55365 9.21371 
7 1 6.16498 6.16745 4.60892 
8 1 7.68349 7.6816 3.0887 
9 1 6.96874 6.97355 3.79871 
43 1 10.0555 10.0437 0.733497 
44 1 8.50612 8.50855 2.25956 
45 1 9.22248 9.21667 1.55569 
22 1 6.22883 6.22946 6.22929 
23 1 7.76407 7.76429 7.76568 
24 1 7.05571 7.05656 7.0534 
34 1 10.089 10.1117 10.099 
35 1 8.58871 8.58528 8.58828 
36 1 9.29571 9.30504 9.29719 
ITEM: TIMESTEP
20
ITEM: NUMBER OF ATOMS
50
ITEM: BOX BOUNDS pp pp pp
0.0000000000000000e+00 1.1000000000000000e+01
0.0000000000000000e+00 1.1002000000000001e+01
0.0000000000000000e+00 1.1000000000000000e+01
ITEM: ATOMS id type x y z 
10 1 4.60502 4.6066 4.60379 
11 1 3.08768 3.08831 3.08645 
12 1 3.79796 3.79907 3.80055 
46 1 0.730121 0.720958 0.725194 
47 1 2.26327 2.26043 2.26292 
48 1 1.55559 1.54938 1.55463 
19 1 4.54243 4.54466 6.22488 
20 1 3.01235 3.01071 7.76432 
21 1 3.72072 3.72001 7.05432 
31 1 0.65725 0.691974 10.0952 
32 1 2.18999 2.18731 8.58583 
33 1 1.47039 1.48307 9.29949 
16 1 4.53788 6.23433 4.53976 
17 1 3.01825 7.75834 2.99 
18 1 3.72373 7.05194 3.71684 
25 1 0.64361 10.1289 0.604419 
26 1 2.23747 8.53224 2.173 
27 1 1.46744 9.32093 1.64224 
49 2 1.13382 9.78724 2.64311 
50 3 1.07318 9.87846 3.64013 
4 1 4.6087 6.16596 6.16422 
5 1 3.08837 7.68017 7.67858 
6 1 3.80475 6.97075 6.96929 
37 1 0.743566 10.0301 10.0544 
38 1 2.26635 8.50203 8.50248 
39 1 1.5627 9.20925 9.21918 
13 1 6.22482 4.54699 4.54151 
14 1 7.76494 3.01134 3.0126 
15 1 7.0544 3.72005 3.72034 
28 1 10.0918 0.675122 0.666477 
29 1 8.58738 2.18759 2.18983 
30 1 9.29682 1.47729 1.47266 
1 1 6.16541 4.6107 6.16537 
2 1 7.68113 3.09024 7.67983 
3 1 6.96791 3.80207 6.97044 
40 1 10.0456 0.727551 10.0404 
41 1 8.50278 2.26483 8.50378 
42 1 9.21342 1.55599 9.21185 
7 1 6.16597 6.16708 4.60767 
8 1 7.68174 7.68271 3.08588 
9 1 6.97215 6.97317 3.80211 
43 1 10.051 10.0445 0.729536 
44 1 8.50903 8.50756 2.26163 
45 1 9.22125 9.21606 1.55537 
22 1 6.22894 6.23278 6.22697 
23 1 7.76489 7.76456 7.76443 
24 1 7.0554 7.0544 7.0547 
34 1 10.0825 10.1164 10.0995 
35 1 8.58849 8.58493 8.58726 
36 1 9.29173 9.30795 9.29859 
ITEM: TIMESTEP
30
ITEM: NUMBER OF ATOMS
50
ITEM: BOX BOUNDS pp pp pp
0.0000000000000000e+00 1.1000000000000000e+01
0.0000000000000000e+00 1.1002000000000001e+01
0.0000000000000000e+00 1.1000000000000000e+01
ITEM: ATOMS id type x y z 
10 1 4.60527 4.60477 4.60487 
11 1 3.08722 3.08802 3.08774 
12 1 3.79878 3.79871 3.79862 
46 1 0.728007 0.724512 0.72166 
47 1 2.26338 2.25909 2.26335 
48 1 1.55533 1.54958 1.55276 
19 1 4.54203 4.54403 6.22494 
20 1 3.01253 3.00969 7.7653 
21 1 3.71985 3.7197 7.05304 
31 1 0.655879 0.694342 10.0974 
32 1 2.19015 2.18744 8.58699 
33 1 1.46763 1.48512 9.29782 
16 1 4.53797 6.23477 4.54009 
17 1 3.0233 7.75078 2.98238 
18 1 3.72781 7.04712 3.71555 
25 1 0.644497 10.1281 0.599993 
26 1 2.23989 8.52977 2.16743 
27 1 1.46835 9.32478 1.6643 
49 2 1.13834 9.779 2.65596 
50 3 1.06501 9.88923 3.64076 
4 1 4.60959 6.1659 6.16582 
5 1 3.08997 7.68038 7.67867 
6 1 3.80262 6.96981 6.9682 
37 1 0.744432 10.0292 10.0539 
38 1 2.26731 8.50148 8.50314 
39 1 1.56282 9.20837 9.22125 
13 1 6.22497 4.54693 4.54049 
14 1 7.76588 3.01035 3.01272 
15 1 7.05351 3.72085 3.71906 
28 1 10.0933 0.675218 0.667447 
29 1 8.58783 2.18764 2.18884 
30 1 9.29642 1.47651 1.47296 
1 1 6.1638 4.61066 6.16438 
2 1 7.67877 3.09122 7.67903 
3 1 6.9682 3.80366 6.96877 
40 1 10.0457 0.72714 10.0369 
41 1 8.50185 2.26625 8.50306 
42 1 9.21276 1.55674 9.20956 
7 1 6.16786 6.167 4.60803 
8 1 7.68218 7.68331 3.0871 
9 1 6.97265 6.97251 3.79983 
43 1 10.0478 10.0461 0.72664 
44 1 8.51054 8.50702 2.26238 
45 1 9.22057 9.21676 1.55408 
22 1 6.23024 6.23281 6.22685 
23 1 7.76605 7.76365 7.76501 
24 1 7.05513 7.05592 7.05428 
34 1 10.0802 10.1191 10.099 
35 1 8.58787 8.58602 8.58709 
36 1 9.28999 9.30809 9.29864 
ITEM: TIMESTEP
40
ITEM: NUMBER OF ATOMS
50
ITEM: BOX BOUNDS pp pp pp
0.0000000000000000e+00 1.1000000000000000e+01
0.0000000000000000e+00 1.1002000000000001e+01
0.0000000000000000e+00 1.1000000000000000e+01
ITEM: ATOMS id type x y z 
10 1 4.60778 4.59775 4.60543 
11 1 3.08604 3.08451 3.08724 
12 1 3.79843 3.79409 3.79797 
46 1 0.715896 0.743005 0.703252 
47 1 2.26185 2.24969 2.26154 
48 1 1.54977 1.55316 1.54283 
19 1 4.53807 4.54112 6.2222 
20 1 3.01299 3.0068 7.76566 
21 1 3.71846 3.71762 7.05284 
31 1 0.645925 0.705198 10.1021 
32 1 2.18533 2.1915 8.5873 
33 1 1.46448 1.48918 9.29863 
16 1 4.54276 6.23303 4.54539 
17 1 3.04682 7.71443 2.93855 
18 1 3.74165 7.02732 3.69659 
25 1 0.661185 10.106 0.595975 
26 1 2.26075 8.50933 2.14963 
27 1 1.47695 9.33842 1.74392 
49 2 1.15486 9.74722 2.72737 
50 3 1.01891 9.94906 3.66451 
4 1 4.60961 6.16506 6.16938 
5 1 3.08855 7.68167 7.67942 
6 1 3.80215 6.97015 6.97105 
37 1 0.74574 10.025 10.0558 
38 1 2.26755 8.50198 8.51372 
39 1 1.56112 9.21056 9.23036 
13 1 6.2243 4.54762 4.53202 
14 1 7.7678 3.00823 3.01021 
15 1 7.05396 3.72016 3.71452 
28 1 10.0999 0.669828 0.674754 
29 1 8.58783 2.1869 2.18559 
30 1 9.29909 1.47346 1.47504 
1 1 6.15976 4.61381 6.15934 
2 1 7.67303 3.09635 7.67542 
3 1 6.96288 3.80842 6.96394 
40 1 10.0441 0.723008 10.0167 
41 1 8.49409 2.27074 8.49834 
42 1 9.21476 1.56393 9.19822 
7 1 6.17538 6.16543 4.60662 
8 1 7.68672 7.68544 3.08555 
9 1 6.97828 6.97356 3.79809 
43 1 10.0311 10.0583 0.710403 
44 1 8.52096 8.50948 2.26089 
45 1 9.21939 9.22399 1.54537 
22 1 6.23086 6.23623 6.22473 
23 1 7.76602 7.76324 7.76579 
24 1 7.06022 7.05432 7.05097 
34 1 10.0714 10.1287 10.0981 
35 1 8.58346 8.58843 8.58702 
36 1 9.28307 9.31258 9.29776 
ITEM: TIMESTEP
50
ITEM: NUMBER OF ATOMS
50
ITEM: BOX BOUNDS pp pp pp
0.0000000000000000e+00 1.1000000000000000e+01
0.0000000000000000e+00 1.1002000000000001e+01
0.0000000000000000e+00 1.1000000000000000e+01
ITEM: ATOMS id type x y z 
10 1 4.60691 4.5962 4.60292 
11 1 3.08499 3.07995 3.08458 
12 1 3.79589 3.78744 3.7981 
46 1 0.711979 0.74281 0.703111 
47 1 2.26057 2.25111 2.25802 
48 1 1.54543 1.5558 1.54027 
19 1 4.53902 4.54507 6.22178 
20 1 3.0133 3.00905 7.76652 
21 1 3.71846 3.71476 7.04759 
31 1 0.646551 0.703018 10.0997 
32 1 2.18842 2.18884 8.58686 
33 1 1.45805 1.49831 9.29945 
16 1 4.54226 6.23154 4.54392 
17 1 3.05568 7.70539 2.9282 
18 1 3.74925 7.01758 3.68638 
25 1 0.667508 10.0966 0.604074 
26 1 2.26658 8.50206 2.14551 
27 1 1.48166 9.33503 1.73601 
49 2 1.15409 9.749 2.74656 
50 3 1.00081 9.97048 3.69251 
4 1 4.60607 6.168 6.17094 
5 1 3.08625 7.68447 7.68499 
6 1 3.79871 6.97345 6.97488 
37 1 0.74672 10.0259 10.0681 
38 1 2.26715 8.50478 8.51317 
39 1 1.56042 9.20634 9.23587 
13 1 6.2234 4.54891 4.53004 
14 1 7.76707 3.00862 3.00889 
15 1 7.05374 3.72032 3.71291 
28 1 10.1033 0.666123 0.678467 
29 1 8.58914 2.18572 2.1859 
30 1 9.30001 1.47221 1.47604 
1 1 6.1593 4.61434 6.15915 
2 1 7.67197 3.09669 7.67566 
3 1 6.96169 3.80833 6.96431 
40 1 10.0472 0.725967 10.0076 
41 1 8.49977 2.27493 8.49829 
42 1 9.20962 1.55381 9.19511 
7 1 6.17722 6.16675 4.60424 
8 1 7.69224 7.68716 3.08426 
9 1 6.98333 6.97536 3.79551 
43 1 10.0346 10.0625 0.71137 
44 1 8.51978 8.51154 2.25753 
45 1 9.21785 9.22728 1.54391 
22 1 6.2328 6.23333 6.22076 
23 1 7.76984 7.76036 7.76227 
24 1 7.0518 7.05694 7.05416 
34 1 10.0704 10.1324 10.0942 
35 1 8.58137 8.58867 8.58715 
36 1 9.28186 9.31381 9.29617 
ITEM: TIMESTEP
60
ITEM: NUMBER OF ATOMS
50
ITEM: BOX BOUNDS pp pp pp
0.0000000000000000e+00 1.1000000000000000e+01
0.0000000000000000e+00 1.1002000000000001e+01
0.0000000000000000e+00 1.1000000000000000e+01
ITEM: ATOMS id type x y z 
10 1 4.60767 4.59396 4.60162 
11 1 3.0854 3.07795 3.08379 
12 1 3.79586 3.78615 3.79809 
46 1 0.711215 0.742829 0.702718 
47 1 2.26008 2.25362 2.25674 
48 1 1.54426 1.55699 1.54127 
19 1 4.53746 4.54519 6.22084 
20 1 3.01389 3.00882 7.7643 
21 1 3.71889 3.71694 7.0484 
31 1 0.642398 0.708375 10.0995 
32 1 2.18654 2.19233 8.58657 
33 1 1.46084 1.49571 9.29871 
16 1 4.54313 6.22998 4.54211 
17 1 3.06076 7.69841 2.91659 
18 1 3.75417 7.01181 3.67693 
25 1 0.666301 10.0939 0.60447 
26 1 2.27027 8.49851 2.14159 
27 1 1.48108 9.33788 1.7499 
49 2 1.15755 9.74634 2.75993 
50 3 0.98735 9.98565 3.70226 
4 1 4.60579 6.16846 6.16998 
5 1 3.08601 7.68461 7.6859 
6 1 3.79844 6.97378 6.97524 
37 1 0.751303 10.0203 10.0768 
38 1 2.26709 8.50389 8.51458 
39 1 1.56315 9.2059 9.23979 
13 1 6.22286 4.54931 4.52762 
14 1 7.76646 3.00857 3.00706 
15 1 7.05366 3.72087 3.71191 
28 1 10.1057 0.66468 0.684715 
29 1 8.58948 2.18528 2.18843 
30 1 9.29956 1.47275 1.47567 
1 1 6.15827 4.61477 6.15952 
2 1 7.67015 3.09865 7.67527 
3 1 6.96158 3.81109 6.96227 
40 1 10.0489 0.719771 10.0013 
41 1 8.49718 2.27388 8.49615 
42 1 9.21172 1.55553 9.19038 
7 1 6.17913 6.16611 4.60352 
8 1 7.6937 7.68686 3.08386 
9 1 6.98458 6.97485 3.79576 
43 1 10.0371 10.0629 0.714971 
44 1 8.51806 8.51297 2.25743 
45 1 9.21781 9.22739 1.54341 
22 1 6.22967 6.2348 6.22086 
23 1 7.76671 7.76027 7.76313 
24 1 7.05418 7.05581 7.05143 
34 1 10.0685 10.1357 10.0907 
35 1 8.58177 8.58705 8.58587 
36 1 9.27837 9.31681 9.29421 
ITEM: TIMESTEP
70
ITEM: NUMBER OF ATOMS
50
ITEM: BOX BOUNDS pp pp pp
0.0000000000000000e+00 1.1000000000000000e+01
0.0000000000000000e+00 1.1002000000000001e+01
0.0000000000000000e+00 1.1000000000000000e+01
ITEM: ATOMS id type x y z 
10 1 4.60684 4.59293 4.60193 
11 1 3.08516 3.07731 3.08587 
12 1 3.79815 3.78748 3.79557 
46 1 0.710562 0.74347 0.703562 
47 1 2.25875 2.25361 2.25598 
48 1 1.54407 1.55689 1.54001 
19 1 4.53721 4.54501 6.2197 
20 1 3.01369 3.00744 7.76349 
21 1 3.71831 3.71875 7.05008 
31 1 0.642534 0.709486 10.1 
32 1 2.18669 2.19288 8.58702 
33 1 1.46011 1.49585 9.29781 
16 1 4.54449 6.22889 4.54163 
17 1 3.06292 7.69634 2.912 
18 1 3.75449 7.00992 3.67394 
25 1 0.665979 10.0924 0.604855 
26 1 2.2697 8.49918 2.13979 
27 1 1.48209 9.33742 1.7537 
49 2 1.15817 9.74612 2.76483 
50 3 0.982841 9.9907 3.70536 
4 1 4.60446 6.16951 6.16978 
5 1 3.08633 7.6838 7.68518 
6 1 3.79971 6.97357 6.97474 
37 1 0.752876 10.0181 10.08 
38 1 2.26632 8.50433 8.51591 
39 1 1.56379 9.20585 9.24225 
13 1 6.22316 4.54965 4.52743 
14 1 7.76691 3.00878 3.00765 
15 1 7.05227 3.72097 3.71031 
28 1 10.1059 0.664633 0.684795 
29 1 8.5885 2.18595 2.18605 
30 1 9.30226 1.47044 1.48016 
1 1 6.15821 4.61546 6.15833 
2 1 7.6709 3.09852 7.67498 
3 1 6.96093 3.81117 6.96389 
40 1 10.0493 0.717457 9.9989 
41 1 8.49607 2.27425 8.49488 
42 1 9.21205 1.55592 9.18847 
7 1 6.17932 6.16603 4.60267 
8 1 7.69344 7.68633 3.08403 
9 1 6.98486 6.97442 3.79635 
43 1 10.0378 10.0629 0.715204 
44 1 8.51754 8.51335 2.25606 
45 1 9.21915 9.2285 1.54495 
22 1 6.22859 6.23543 6.22066 
23 1 7.76613 7.76026 7.76348 
24 1 7.05454 7.05532 7.05036 
34 1 10.0673 10.1374 10.0898 
35 1 8.58099 8.58789 8.5862 
36 1 9.27964 9.31673 9.29336 
ITEM: TIMESTEP
80
ITEM: NUMBER OF ATOMS
50
ITEM: BOX BOUNDS pp pp pp
0.0000000000000000e+00 1.1000000000000000e+01
0.0000000000000000e+00 1.1002000000000001e+01
0.0000000000000000e+00 1.1000000000000000e+01
ITEM: ATOMS id type x y z 
10 1 4.60719 4.59237 4.60068 
11 1 3.08569 3.07576 3.08561 
12 1 3.79844 3.78665 3.79478 
46 1 0.708175 0.745749 0.703388 
47 1 2.25758 2.25545 2.25512 
48 1 1.54287 1.55861 1.53911 
19 1 4.53617 4.5469 6.21932 
20 1 3.01381 3.00775 7.76292 
21 1 3.71775 3.71933 7.04935 
31 1 0.640869 0.712386 10.1004 
32 1 2.18559 2.19412 8.58629 
33 1 1.4601 1.49729 9.2985 
16 1 4.54544 6.22631 4.53723 
17 1 3.06924 7.68751 2.89589 
18 1 3.75917 7.00486 3.66283 
25 1 0.665268 10.0846 0.608284 
26 1 2.27188 8.49702 2.13514 
27 1 1.48123 9.34053 1.76596 
49 2 1.16009 9.74579 2.78238 
50 3 0.966239 10.0093 3.71635 
4 1 4.60321 6.17051 6.16774 
5 1 3.08672 7.68401 7.68574 
6 1 3.79844 6.97408 6.97335 
37 1 0.758686 10.0121 10.0928 
38 1 2.26709 8.50306 8.51888 
39 1 1.56721 9.20334 9.24905 
13 1 6.22313 4.54943 4.52557 
14 1 7.76604 3.00853 3.0054 
15 1 7.05302 3.72183 3.70858 
28 1 10.11 0.661758 0.691804 
29 1 8.58897 2.18505 2.18644 
30 1 9.30441 1.46869 1.48303 
1 1 6.15616 4.61702 6.15815 
2 1 7.6696 3.10052 7.67451 
3 1 6.95974 3.81279 6.96301 
40 1 10.0519 0.711295 9.98914 
41 1 8.49559 2.27421 8.49218 
42 1 9.21242 1.55432 9.18224 
7 1 6.17943 6.16534 4.60118 
8 1 7.69438 7.68603 3.08386 
9 1 6.98535 6.97376 3.79543 
43 1 10.0418 10.064 0.71933 
44 1 8.51631 8.51448 2.25585 
45 1 9.22001 9.22919 1.54654 
22 1 6.22642 6.23675 6.21983 
23 1 7.76538 7.75967 7.76332 
24 1 7.05396 7.05545 7.04975 
34 1 10.0655 10.1422 10.0851 
35 1 8.57974 8.58835 8.58569 
36 1 9.27861 9.31899 9.29087 
ITEM: TIMESTEP
90
ITEM: NUMBER OF ATOMS
50
ITEM: BOX BOUNDS pp pp pp
0.0000000000000000e+00 1.1000000000000000e+01
0.0000000000000000e+00 1.1002000000000001e+01
0.0000000000000000e+00 1.1000000000000000e+01
ITEM: ATOMS id type x y z 
10 1 4.61041 4.59437 4.5957 
11 1 3.08859 3.07569 3.08184 
12 1 3.79668 3.78442 3.7978 
46 1 0.699807 0.759005 0.697633 
47 1 2.25398 2.25943 2.25321 
48 1 1.54159 1.56175 1.53903 
19 1 4.53425 4.55215 6.21749 
20 1 3.01363 3.00969 7.76055 
21 1 3.71691 3.72309 7.0465 
31 1 0.64005 0.716172 10.1077 
32 1 2.18285 2.19615 8.5845 
33 1 1.46162 1.50096 9.30269 
16 1 4.54525 6.22235 4.52317 
17 1 3.08126 7.67147 2.85863 
18 1 3.7676 6.99325 3.63565 
25 1 0.660797 10.0564 0.616657 
26 1 2.27505 8.49281 2.12481 
27 1 1.47841 9.34842 1.79423 
49 2 1.16012 9.75042 2.81901 
50 3 0.929265 10.0505 3.73785 
4 1 4.5979 6.17189 6.16106 
5 1 3.08651 7.6845 7.68355 
6 1 3.79845 6.97421 6.97215 
37 1 0.773727 9.99883 10.1226 
38 1 2.26974 8.49924 8.52695 
39 1 1.58027 9.19271 9.26937 
13 1 6.22414 4.54693 4.52519 
14 1 7.76363 3.00875 3.00132 
15 1 7.05307 3.72488 3.70412 
28 1 10.1213 0.654274 0.709355 
29 1 8.58718 2.18039 2.18798 
30 1 9.31545 1.46917 1.49307 
1 1 6.15093 4.62179 6.15769 
2 1 7.66773 3.10721 7.67394 
3 1 6.95396 3.81317 6.95988 
40 1 10.0601 0.696419 9.96537 
41 1 8.49628 2.27474 8.48474 
42 1 9.21356 1.54428 9.16634 
7 1 6.17834 6.16374 4.59587 
8 1 7.69366 7.68657 3.08436 
9 1 6.98461 6.96988 3.79113 
43 1 10.0531 10.066 0.731585 
44 1 8.5132 8.51671 2.25818 
45 1 9.22539 9.2264 1.55368 
22 1 6.21918 6.24309 6.21761 
23 1 7.76194 7.76131 7.76178 
24 1 7.05474 7.05209 7.05239 
34 1 10.0638 10.154 10.0709 
35 1 8.57696 8.58977 8.58256 
36 1 9.27495 9.32373 9.28458 
ITEM: TIMESTEP
100
ITEM: NUMBER OF ATOMS
50
ITEM: BOX BOUNDS pp pp pp
0.0000000000000000e+00 1.1000000000000000e+01
0.0000000000000000e+00 1.1002000000000001e+01
0.0000000000000000e+00 1.1000000000000000e+01
ITEM: ATOMS id type x y z 
10 1 4.6085 4.59549 4.59502 
11 1 3.0873 3.07542 3.08386 
12 1 3.79922 3.78576 3.7944 
46 1 0.700495 0.760848 0.698178 
47 1 2.25636 2.25991 2.25467 
48 1 1.5397 1.56588 1.53782 
19 1 4.53315 4.55289 6.21784 
20 1 3.01274 3.00965 7.76029 
21 1 3.71561 3.72269 7.04754 
31 1 0.641807 0.717268 10.1083 
32 1 2.18409 2.19667 8.58554 
33 1 1.46004 1.502 9.30072 
16 1 4.54662 6.22115 4.51959 
17 1 3.08443 7.66802 2.85279 
18 1 3.76743 6.99206 3.6316 
25 1 0.656699 10.0487 0.61856 
26 1 2.27457 8.49301 2.12297 
27 1 1.47802 9.34954 1.79859 
49 2 1.15925 9.75228 2.82444 
50 3 0.923176 10.0573 3.74089 
4 1 4.59961 6.173 6.16042 
5 1 3.08725 7.68398 7.68511 
6 1 3.79634 6.97557 6.96856 
37 1 0.777965 9.99599 10.1286 
38 1 2.27279 8.49738 8.52859 
39 1 1.58051 9.19081 9.27224 
13 1 6.22534 4.5482 4.52444 
14 1 7.76395 3.00938 2.9994 
15 1 7.05248 3.72241 3.70463 
28 1 10.124 0.655182 0.712403 
29 1 8.58928 2.18256 2.18906 
30 1 9.31259 1.46502 1.49482 
1 1 6.15059 4.62212 6.15755 
2 1 7.66667 3.10589 7.67273 
3 1 6.95515 3.81687 6.96196 
40 1 10.06 0.692188 9.96072 
41 1 8.49636 2.27265 8.4839 
42 1 9.2152 1.54506 9.16288 
7 1 6.17686 6.16287 4.59601 
8 1 7.69373 7.68504 3.08351 
9 1 6.98278 6.97185 3.79219 
43 1 10.0578 10.0638 0.733593 
44 1 8.51397 8.51539 2.25849 
45 1 9.22525 9.22909 1.55593 
22 1 6.21847 6.24231 6.21682 
23 1 7.76201 7.75942 7.76205 
24 1 7.0514 7.05293 7.05005 
34 1 10.0632 10.1555 10.0693 
35 1 8.57604 8.5898 8.5828 
36 1 9.27522 9.32625 9.28163 
ITEM: TIMESTEP
110
ITEM: NUMBER OF ATOMS
50
ITEM: BOX BOUNDS pp pp pp
0.0000000000000000e+00 1.1000000000000000e+01
0.0000000000000000e+00 1.1002000000000001e+01
0.0000000000000000e+00 1.1000000000000000e+01
ITEM: ATOMS id type x y z 
10 1 4.60804 4.59593 4.59519 
11 1 3.08718 3.0747 3.08522 
12 1 3.80006 3.78789 3.79193 
46 1 0.698919 0.764106 0.697072 
47 1 2.25662 2.25947 2.25514 
48 1 1.53845 1.56935 1.53608 
19 1 4.53262 4.55355 6.21782 
20 1 3.01263 3.01004 7.76017 
21 1 3.71499 3.72333 7.04733 
31 1 0.643151 0.716904 10.1097 
32 1 2.18396 2.19684 8.5856 
33 1 1.46047 1.50219 9.30122 
16 1 4.54661 6.2205 4.51722 
17 1 3.08475 7.6672 2.84965 
18 1 3.76763 6.99143 3.6288 
25 1 0.653236 10.0407 0.619375 
26 1 2.27469 8.49254 2.12241 
27 1 1.4776 9.35047 1.80175 
49 2 1.15782 9.75447 2.82625 
50 3 0.920159 10.0607 3.7418 
4 1 4.59929 6.17359 6.15942 
5 1 3.08704 7.68406 7.68453 
6 1 3.79669 6.97504 6.96903 
37 1 0.780508 9.99519 10.1313 
38 1 2.27399 8.49602 8.53137 
39 1 1.58151 9.19086 9.27331 
13 1 6.22592 4.54833 4.52486 
14 1 7.76393 3.01008 2.9993 
15 1 7.05171 3.72145 3.70544 
28 1 10.1264 0.656071 0.714086 
29 1 8.58963 2.18235 2.18948 
30 1 9.31312 1.46476 1.4955 
1 1 6.15023 4.62206 6.15791 
2 1 7.66645 3.10571 7.67311 
3 1 6.95581 3.81696 6.9618 
40 1 10.0611 0.690301 9.9589 
41 1 8.49676 2.27125 8.48273 
42 1 9.21647 1.54454 9.16156 
7 1 6.17572 6.16265 4.59521 
8 1 7.69311 7.68495 3.08344 
9 1 6.98213 6.97168 3.79201 
43 1 10.0608 10.0632 0.735397 
44 1 8.51416 8.51555 2.25939 
45 1 9.22641 9.22814 1.55718 
22 1 6.21811 6.24138 6.21728 
23 1 7.76233 7.75776 7.76275 
24 1 7.04883 7.05596 7.04859 
34 1 10.0634 10.1563 10.0668 
35 1 8.5754 8.59005 8.58211 
36 1 9.27539 9.32644 9.28035 
ITEM: TIMESTEP
120
ITEM: NUMBER OF ATOMS
50
ITEM: BOX BOUNDS pp pp pp
0.0000000000000000e+00 1.1000000000000000e+01
0.0000000000000000e+00 1.1002000000000001e+01
0.0000000000000000e+00 1.1000000000000000e+01
ITEM: ATOMS id type x y z 
10 1 4.60795 4.59665 4.59453 
11 1 3.08749 3.07497 3.08473 
12 1 3.79977 3.78766 3.7926 
46 1 0.698182 0.766375 0.696207 
47 1 2.25687 2.25977 2.25493 
48 1 1.53753 1.5707 1.53615 
19 1 4.53225 4.55418 6.21762 
20 1 3.01229 3.01035 7.76 
21 1 3.71517 3.72376 7.04717 
31 1 0.644155 0.716544 10.1104 
32 1 2.184 2.19682 8.58544 
33 1 1.46081 1.50266 9.30177 
16 1 4.54652 6.22042 4.51613 
17 1 3.08492 7.66682 2.84801 
18 1 3.76786 6.99085 3.62704 
25 1 0.650758 10.0361 0.61991 
26 1 2.27439 8.49255 2.1219 
27 1 1.47732 9.35104 1.80322 
49 2 1.15703 9.75573 2.82729 
50 3 0.91841 10.0627 3.74234 
4 1 4.59928 6.17338 6.15928 
5 1 3.08715 7.68377 7.68463 
6 1 3.79672 6.97508 6.96876 
37 1 0.781862 9.99488 10.1328 
38 1 2.27457 8.49533 8.53228 
39 1 1.58264 9.19044 9.27436 
13 1 6.226 4.54788 4.5253 
14 1 7.76357 3.00981 2.99938 
15 1 7.05214 3.72169 3.70547 
28 1 10.128 0.656905 0.714963 
29 1 8.58982 2.18249 2.18977 
30 1 9.3133 1.4646 1.49605 
1 1 6.15033 4.62211 6.15792 
2 1 7.66688 3.1057 7.67287 
3 1 6.95515 3.81674 6.96245 
40 1 10.0617 0.68939 9.95778 
41 1 8.4974 2.27098 8.48209 
42 1 9.21645 1.54331 9.16083 
7 1 6.17528 6.16244 4.59481 
8 1 7.69283 7.68473 3.08345 
9 1 6.98144 6.97179 3.79192 
43 1 10.0628 10.0623 0.736312 
44 1 8.51422 8.51542 2.25988 
45 1 9.22717 9.22784 1.55814 
22 1 6.21745 6.24156 6.21735 
23 1 7.76193 7.75749 7.76271 
24 1 7.04813 7.05667 7.04832 
34 1 10.0635 10.157 10.0654 
35 1 8.57517 8.58994 8.58186 
36 1 9.27539 9.32672 9.27952 
ITEM: TIMESTEP
130
ITEM: NUMBER OF ATOMS
50
ITEM: BOX BOUNDS pp pp pp
0.0000000000000000e+00 1.1000000000000000e+01
0.0000000000000000e+00 1.1002000000000001e+01
0.0000000000000000e+00 1.1000000000000000e+01
ITEM: ATOMS id type x y z 
10 1 4.60912 4.60045 4.58963 
11 1 3.09303 3.07322 3.08207 
12 1 3.79181 3.79372 3.79533 
46 1 0.687126 0.789681 0.689103 
47 1 2.25604 2.26306 2.25419 
48 1 1.53304 1.58208 1.53242 
19 1 4.52997 4.55882 6.21657 
20 1 3.01159 3.0139 7.7574 
21 1 3.71258 3.7275 7.04611 
31 1 0.65401 0.713306 10.1173 
32 1 2.18233 2.19804 8.58288 
33 1 1.46929 1.50478 9.30953 
16 1 4.54707 6.22007 4.50582 
17 1 3.08777 7.66418 2.83375 
18 1 3.76808 6.98275 3.6098 
25 1 0.626988 9.99035 0.624632 
26 1 2.27189 8.49214 2.11751 
27 1 1.47458 9.3567 1.81688 
49 2 1.14967 9.76757 2.83696 
50 3 0.901776 10.0817 3.74746 
4 1 4.59959 6.17304 6.15726 
5 1 3.089 7.68216 7.68573 
6 1 3.7951 6.97285 6.96757 
37 1 0.793873 9.99287 10.1448 
38 1 2.2786 8.48826 8.53926 
39 1 1.59652 9.18836 9.28659 
13 1 6.22778 4.54332 4.53107 
14 1 7.76211 3.00588 3.00039 
15 1 7.05347 3.72496 3.70441 
28 1 10.1419 0.664405 0.722897 
29 1 8.58828 2.1804 2.19188 
30 1 9.32202 1.46973 1.5022 
1 1 6.14808 4.62027 6.15979 
2 1 7.66699 3.10365 7.67244 
3 1 6.95661 3.81837 6.96418 
40 1 10.0638 0.679221 9.94773 
41 1 8.50073 2.26629 8.47634 
42 1 9.21993 1.5365 9.15257 
7 1 6.16868 6.1626 4.59122 
8 1 7.68881 7.6849 3.08434 
9 1 6.97742 6.96875 3.78973 
43 1 10.0821 10.0542 0.747216 
44 1 8.5148 8.51528 2.26557 
45 1 9.23413 9.22147 1.56608 
22 1 6.21067 6.24539 6.21692 
23 1 7.75794 7.75883 7.7617 
24 1 7.04297 7.05772 7.0478 
34 1 10.0677 10.1636 10.0463 
35 1 8.57649 8.58949 8.5749 
36 1 9.26811 9.32811 9.27972 
ITEM: TIMESTEP
140
ITEM: NUMBER OF ATOMS
50
ITEM: BOX BOUNDS pp pp pp
0.0000000000000000e+00 1.1000000000000000e+01
0.0000000000000000e+00 1.1002000000000001e+01
0.0000000000000000e+00 1.1000000000000000e+01
ITEM: ATOMS id type x y z 
10 1 4.60601 4.60177 4.59077 
11 1 3.08955 3.07463 3.08522 
12 1 3.79892 3.79301 3.79056 
46 1 0.683263 0.802016 0.686717 
47 1 2.25613 2.26604 2.25357 
48 1 1.53268 1.58498 1.5315 
19 1 4.5298 4.55848 6.21711 
20 1 3.01039 3.0142 7.75746 
21 1 3.71188 3.72823 7.04563 
31 1 0.658679 0.709704 10.1201 
32 1 2.18315 2.19896 8.58477 
33 1 1.46989 1.50298 9.30836 
16 1 4.54659 6.21754 4.50128 
17 1 3.08655 7.66176 2.8285 
18 1 3.76913 6.98527 3.60782 
25 1 0.619534 9.96936 0.623023 
26 1 2.27008 8.49309 2.11733 
27 1 1.4725 9.35971 1.81638 
49 2 1.14814 9.77052 2.83854 
50 3 0.897777 10.0866 3.74842 
4 1 4.59987 6.17369 6.15817 
5 1 3.08906 7.68209 7.68634 
6 1 3.79515 6.97226 6.96799 
37 1 0.799634 9.99741 10.1497 
38 1 2.28124 8.48794 8.54079 
39 1 1.59723 9.18601 9.28929 
13 1 6.22923 4.54512 4.53172 
14 1 7.76207 3.00965 2.99967 
15 1 7.05143 3.71969 3.70929 
28 1 10.1471 0.66851 0.721905 
29 1 8.58917 2.18129 2.19296 
30 1 9.32141 1.46915 1.50348 
1 1 6.14871 4.61944 6.15796 
2 1 7.66729 3.1028 7.67193 
3 1 6.95729 3.81869 6.96445 
40 1 10.0629 0.676105 9.94708 
41 1 8.50148 2.26447 8.47524 
42 1 9.22135 1.53496 9.1513 
7 1 6.16628 6.16223 4.59102 
8 1 7.6869 7.6854 3.08513 
9 1 6.97732 6.96678 3.78971 
43 1 10.0886 10.0518 0.750066 
44 1 8.51504 8.51341 2.26728 
45 1 9.23506 9.22037 1.56895 
22 1 6.20949 6.24579 6.21654 
23 1 7.75628 7.7603 7.76025 
24 1 7.04308 7.05571 7.04821 
34 1 10.0656 10.1651 10.046 
35 1 8.57268 8.58847 8.57856 
36 1 9.27343 9.33151 9.26999 
ITEM: TIMESTEP
150
ITEM: NUMBER OF ATOMS
50
ITEM: BOX BOUNDS pp pp pp
0.0000000000000000e+00 1.1000000000000000e+01
0.0000000000000000e+00 1.1002000000000001e+01
0.0000000000000000e+00 1.1000000000000000e+01
ITEM: ATOMS id type x y z 
10 1 4.60527 4.6031 4.59035 
11 1 3.08874 3.07544 3.08473 
12 1 3.79999 3.79149 3.79053 
46 1 0.682877 0.805307 0.685693 
47 1 2.25722 2.26584 2.25442 
48 1 1.53092 1.58858 1.53033 
19 1 4.52956 4.5588 6.21705 
20 1 3.00948 3.01429 7.75767 
21 1 3.71201 3.72813 7.04567 
31 1 0.660695 0.709288 10.1228 
32 1 2.18396 2.20009 8.58642 
33 1 1.46963 1.50089 9.30562 
16 1 4.5463 6.21714 4.50019 
17 1 3.08648 7.66132 2.82738 
18 1 3.76894 6.98561 3.60685 
25 1 0.617506 9.96216 0.622392 
26 1 2.26885 8.49397 2.11705 
27 1 1.47243 9.36009 1.8163 
49 2 1.14764 9.77149 2.83878 
50 3 0.8966 10.0881 3.74857 
4 1 4.59929 6.17317 6.15814 
5 1 3.08818 7.68076 7.68597 
6 1 3.79734 6.97333 6.96846 
37 1 0.8024 9.99846 10.1515 
38 1 2.28182 8.4883 8.54201 
39 1 1.59793 9.18537 9.28898 
13 1 6.2292 4.54439 4.53271 
14 1 7.76148 3.00913 2.99996 
15 1 7.05212 3.71991 3.70962 
28 1 10.1483 0.670385 0.722651 
29 1 8.58914 2.18094 2.19385 
30 1 9.32217 1.4709 1.50255 
1 1 6.14967 4.62043 6.15823 
2 1 7.66812 3.10409 7.67246 
3 1 6.95626 3.816 6.96315 
40 1 10.063 0.675783 9.94639 
41 1 8.50249 2.26415 8.47467 
42 1 9.22038 1.53365 9.15153 
7 1 6.16652 6.16082 4.59053 
8 1 7.68759 7.68348 3.08504 
9 1 6.9747 6.96928 3.79069 
43 1 10.0896 10.0502 0.751179 
44 1 8.514 8.51317 2.26759 
45 1 9.23658 9.21934 1.57079 
22 1 6.20933 6.24512 6.2171 
23 1 7.75634 7.75913 7.76074 
24 1 7.04187 7.05745 7.04755 
34 1 10.0651 10.1666 10.0448 
35 1 8.57191 8.58883 8.5782 
36 1 9.27406 9.33139 9.26822 
ITEM: TIMESTEP
160
ITEM: NUMBER OF ATOMS
50
ITEM: BOX BOUNDS pp pp pp
0.0000000000000000e+00 1.1000000000000000e+01
0.0000000000000000e+00 1.1002000000000001e+01
0.0000000000000000e+00 1.1000000000000000e+01
ITEM: ATOMS id type x y z 
10 1 4.60054 4.60869 4.58732 
11 1 3.09094 3.07433 3.08368 
12 1 3.79918 3.79412 3.78897 
46 1 0.668167 0.851811 0.671753 
47 1 2.25907 2.26492 2.25574 
48 1 1.51407 1.62324 1.51637 
19 1 4.52646 4.55997 6.21507 
20 1 3.00562 3.01637 7.75559 
21 1 3.70896 3.73396 7.04824 
31 1 0.6817 0.693233 10.1389 
32 1 2.18293 2.19638 8.58291 
33 1 1.48306 1.50234 9.31908 
16 1 4.5451 6.21374 4.48865 
17 1 3.08451 7.66012 2.81493 
18 1 3.7657 6.98507 3.59507 
25 1 0.583907 9.87411 0.616621 
26 1 2.25921 8.49893 2.11598 
27 1 1.46632 9.37028 1.81229 
49 2 1.1419 9.78303 2.84041 
50 3 0.883234 10.1047 3.74947 
4 1 4.60123 6.16718 6.15962 
5 1 3.08746 7.67125 7.68784 
6 1 3.8056 6.97714 6.96671 
37 1 0.829086 10.0096 10.1734 
38 1 2.28723 8.48267 8.54666 
39 1 1.6137 9.18905 9.29289 
13 1 6.23144 4.53929 4.5408 
14 1 7.75737 3.00474 3.00242 
15 1 7.05544 3.7181 3.71643 
28 1 10.171 0.688234 0.722132 
29 1 8.58799 2.18279 2.19286 
30 1 9.33463 1.48018 1.51034 
1 1 6.15219 4.61454 6.15532 
2 1 7.67048 3.09861 7.66973 
3 1 6.96034 3.81647 6.96448 
40 1 10.0573 0.66681 9.94446 
41 1 8.50653 2.25987 8.47083 
42 1 9.22035 1.52647 9.14904 
7 1 6.1566 6.15933 4.58981 
8 1 7.6822 7.68058 3.08835 
9 1 6.96644 6.96734 3.79184 
43 1 10.1138 10.038 0.765035 
44 1 8.51213 8.50971 2.27422 
45 1 9.2447 9.20914 1.58304 
22 1 6.20385 6.24603 6.21904 
23 1 7.7525 7.7567 7.76136 
24 1 7.03344 7.06039 7.04658 
34 1 10.0642 10.1765 10.0315 
35 1 8.57335 8.58867 8.57148 
36 1 9.26881 9.34032 9.25874 
ITEM: TIMESTEP
170
ITEM: NUMBER OF ATOMS
50
ITEM: BOX BOUNDS pp pp pp
0.0000000000000000e+00 1.1000000000000000e+01
0.0000000000000000e+00 1.1002000000000001e+01
0.0000000000000000e+00 1.1000000000000000e+01
ITEM: ATOMS id type x y z 
10 1 4.59462 4.61257 4.58615 
11 1 3.09116 3.07656 3.08524 
12 1 3.80336 3.7927 3.79103 
46 1 0.659114 0.889989 0.663245 
47 1 2.25528 2.27296 2.25338 
48 1 1.51438 1.62717 1.51059 
19 1 4.52524 4.56007 6.21184 
20 1 3.00223 3.0187 7.75441 
21 1 3.70942 3.73289 7.048 
31 1 0.694862 0.685635 10.1533 
32 1 2.18544 2.19729 8.58304 
33 1 1.49109 1.49981 9.32042 
16 1 4.54346 6.20953 4.4809 
17 1 3.07725 7.66539 2.81115 
18 1 3.7637 6.98518 3.58535 
25 1 0.571379 9.82251 0.609429 
26 1 2.24928 8.50871 2.11719 
27 1 1.46132 9.37481 1.7984 
49 2 1.13955 9.7875 2.83342 
50 3 0.880305 10.1093 3.74614 
4 1 4.60242 6.16836 6.15932 
5 1 3.09002 7.67281 7.68413 
6 1 3.80478 6.96747 6.96957 
37 1 0.847562 10.0127 10.1859 
38 1 2.28687 8.48407 8.54763 
39 1 1.62293 9.1915 9.3015 