ITEM: TIMESTEP
0
ITEM: NUMBER OF ATOMS
161
ITEM: BOX BOUNDS xy xz yz pp pp pp
-6.7755000000000001e+00 1.3552000000000000e+01 -6.7755000000000001e+00
0.0000000000000000e+00 1.1735510246683001e+01 0.0000000000000000e+00
0.0000000000000000e+00 2.2149999999999999e+01 0.0000000000000000e+00
ITEM: ATOMS id type x y z 
8 1 -2.486 5.297 9.849 
87 1 3.001 4.231 10.696 
90 1 2.733 5.481 9.824 
109 1 -2.486 5.297 0.765 
158 1 2.733 5.481 0.79 
11 1 4.24 4.139 20.131 
14 1 3.031 4.094 19.728 
18 1 1.299 5.827 18.554 
33 1 2.266 4.151 20.924 
43 1 4.343 3.96 21.647 
47 1 3.32 5.732 17.88 
52 1 4.24 4.139 12.633 
76 1 2.552 4.924 14.209 
85 1 4.343 3.96 11.117 
89 1 3.32 5.732 14.883 
91 1 1.036 5.037 11.84 
102 1 3.031 4.094 13.035 
105 1 1.299 5.827 14.209 
114 1 2.266 4.151 11.84 
150 1 2.552 4.924 18.554 
156 1 3.001 4.231 22.068 
159 1 1.036 5.037 20.924 
161 2 3.067 4.066 15.131 
5 1 -5.049 10.63 8.653 
9 1 -3.317 8.897 7.479 
19 1 -1.707 7.414 10.572 
21 1 -2.66 8.795 10.993 
23 1 -3.31 7.532 6.805 
25 1 -4.284 10.573 9.849 
32 1 1.503 6.367 0.79 
36 1 -1.869 7.426 9.056 
38 1 -2.209 6.086 8.653 
54 1 0.3 8.576 10.696 
57 1 1.291 8.001 9.824 
60 1 -1.707 7.414 0.042 
65 1 -3.31 7.532 3.808 
78 1 -1.869 7.426 1.558 
80 1 -2.566 8.842 1.961 
84 1 -4.57 9.799 3.135 
99 1 -3.054 9.687 0.765 
100 1 -2.96 6.142 3.135 
107 1 -5.049 10.63 1.961 
110 1 -3.317 8.897 3.135 
111 1 0.642 5.929 10.696 
113 1 1.503 6.367 9.824 
119 1 -4.284 10.573 0.765 
127 1 -2.209 6.086 1.961 
131 1 -2.318 6.148 10.993 
138 1 1.291 8.001 0.79 
142 1 -2.566 8.842 8.653 
145 1 -4.57 9.799 7.479 
151 1 -5.019 10.493 10.993 
154 1 -3.054 9.687 9.849 
155 1 -2.96 6.142 7.479 
12 1 2.53 7.1 17.202 
17 1 0.468 9.427 20.924 
24 1 -3.52 8.357 11.865 
27 1 -0.31 7.31 21.647 
29 1 0.642 5.929 22.068 
31 1 1.292 7.192 17.88 
44 1 -0.148 7.298 20.131 
46 1 0.191 8.638 19.728 
51 1 -0.31 7.31 11.117 
53 1 2.53 7.1 15.561 
56 1 1.292 7.192 14.883 
63 1 -2.318 6.148 21.771 
66 1 -3.309 6.723 20.899 
70 1 -0.148 7.298 12.633 
72 1 0.548 5.882 13.035 
92 1 0.942 8.582 14.209 
95 1 -5.019 10.493 21.771 
98 1 -4.751 9.243 20.899 
104 1 0.468 9.427 11.84 
116 1 -2.66 8.795 21.771 
118 1 -3.52 8.357 20.899 
122 1 0.191 8.638 13.035 
133 1 -3.309 6.723 11.865 
136 1 0.3 8.576 22.068 
147 1 0.548 5.882 19.728 
153 1 -4.751 9.243 11.865 
160 1 0.942 8.582 18.554 
1 1 7.976 4.694 10.572 
4 1 9.274 4.77 10.993 
20 1 8.034 4.861 9.056 
42 1 9.55 5.41 7.479 
67 1 10.043 4.578 0.765 
77 1 7.976 4.694 0.042 
94 1 8.035 4.861 1.558 
96 1 9.278 4.635 1.961 
121 1 4.688 5.417 10.696 
130 1 9.55 5.41 3.135 
134 1 10.043 4.578 9.849 
152 1 9.278 4.635 8.653 
45 1 4.688 5.417 22.068 
55 1 4.788 5.329 13.035 
106 1 9.274 4.77 21.771 
137 1 4.788 5.329 19.728 
2 1 7.294 10.585 9.056 
3 1 9.004 7.624 6.127 
6 1 8.556 6.347 6.805 
16 1 2.314 8.72 0.79 
22 1 7.166 6.156 8.653 
26 1 7.226 8.565 7.479 
35 1 7.191 10.764 10.572 
37 1 6.846 9.307 10.993 
39 1 8.214 8.992 6.805 
41 1 6.677 7.002 9.849 
48 1 3.775 6.213 0.79 
61 1 7.294 10.585 1.558 
62 1 9.004 7.624 4.487 
64 1 6.747 9.395 1.961 
68 1 7.437 6.931 3.135 
71 1 4.29 8.493 10.696 
74 1 3.567 7.818 9.824 
81 1 8.556 6.347 3.808 
83 1 6.47 8.606 0.765 
93 1 7.191 10.764 0.042 
97 1 8.214 8.992 3.808 
101 1 2.261 9.954 10.696 
103 1 2.314 8.72 9.824 
117 1 7.166 6.156 1.961 
120 1 7.226 8.565 3.135 
123 1 3.775 6.213 9.824 
129 1 6.677 7.002 0.765 
132 1 6.747 9.395 8.653 
135 1 7.437 6.931 7.479 
141 1 7.244 6.231 10.993 
144 1 6.47 8.606 9.849 
148 1 3.567 7.818 0.79 
7 1 9.22 6.004 11.865 
10 1 3.558 10.029 21.647 
13 1 2.261 9.954 22.068 
15 1 2.978 8.376 17.88 
28 1 3.5 9.862 20.131 
30 1 4.369 8.568 19.728 
34 1 4.308 6.159 18.554 
40 1 7.76 8.511 11.865 
49 1 4.857 7.722 20.924 
50 1 1.984 9.314 18.554 
58 1 1.491 10.146 11.84 
59 1 4.097 7.793 14.209 
69 1 3.558 10.029 11.117 
73 1 2.978 8.376 14.883 
75 1 5.064 6.118 11.84 
79 1 7.244 6.231 21.771 
82 1 7.967 6.906 20.899 
86 1 3.5 9.862 12.633 
88 1 2.256 10.089 13.035 
108 1 9.22 6.004 20.899 
112 1 4.369 8.568 13.035 
115 1 4.308 6.159 14.209 
124 1 4.857 7.722 11.84 
125 1 1.984 9.314 14.209 
126 1 6.846 9.307 21.771 
128 1 7.76 8.511 20.899 
139 1 1.491 10.146 20.924 
140 1 4.097 7.793 18.554 
143 1 7.967 6.906 11.865 
146 1 4.29 8.493 22.068 
149 1 5.064 6.118 20.924 
157 1 2.256 10.089 19.728 
ITEM: TIMESTEP
10
ITEM: NUMBER OF ATOMS
161
ITEM: BOX BOUNDS xy xz yz pp pp pp
-6.7755000000000001e+00 1.3552000000000000e+01 -6.7755000000000001e+00
0.0000000000000000e+00 1.1735510246683001e+01 0.0000000000000000e+00
0.0000000000000000e+00 2.2149999999999999e+01 0.0000000000000000e+00
ITEM: ATOMS id type x y z 
8 1 -2.42172 5.38187 9.84346 
87 1 2.97531 4.29282 10.6368 
90 1 2.65548 5.3999 9.76501 
109 1 -2.42134 5.38591 0.766887 
158 1 2.66177 5.43942 0.840628 
11 1 4.291 4.22041 20.1075 
14 1 2.91124 4.12995 19.7034 
18 1 1.33405 5.86646 18.5988 
33 1 2.11123 4.25111 20.9161 
43 1 4.30425 4.14549 21.588 
47 1 3.23802 5.79014 17.8586 
52 1 4.29419 4.2106 12.663 
76 1 2.40614 4.84864 14.1962 
85 1 4.31699 4.17417 11.1125 
89 1 3.37874 5.69796 15.0252 
91 1 0.928095 5.1116 11.8393 
102 1 2.92603 4.09485 13.0068 
105 1 1.24599 5.89187 14.1586 
114 1 2.11237 4.2198 11.8056 
150 1 2.4196 4.89771 18.5878 
156 1 2.97495 4.284 22.1097 
159 1 0.955187 5.12088 20.9113 
161 2 3.0924 4.25884 15.239 
5 1 -4.93449 10.6089 8.64613 
9 1 -3.37315 8.86658 7.51841 
19 1 -1.77128 7.53901 10.5542 
21 1 -2.6287 8.74825 10.9388 
23 1 -3.28518 7.53059 6.81148 
25 1 -4.11796 10.4652 9.82996 
32 1 1.57705 6.34592 0.763562 
36 1 -1.90714 7.55538 9.06467 
38 1 -2.14842 6.21548 8.65807 
54 1 0.317532 8.51459 10.6913 
57 1 1.3403 7.99666 9.7913 
60 1 -1.76862 7.53169 0.056347 
65 1 -3.30684 7.53062 3.78554 
78 1 -1.90416 7.5511 1.55175 
80 1 -2.56544 8.78421 1.89733 
84 1 -4.44994 9.82085 3.10915 
99 1 -2.97337 9.60934 0.781083 
100 1 -2.92552 6.25028 3.1761 
107 1 -4.92604 10.5968 1.9909 
110 1 -3.35913 8.8677 3.09869 
111 1 0.609385 5.96543 10.7514 
113 1 1.58705 6.34189 9.83851 
119 1 -4.09622 10.469 0.818461 
127 1 -2.15276 6.21644 1.95935 
131 1 -2.32555 6.21538 11.0043 
138 1 1.34766 7.99096 0.827186 
142 1 -2.56879 8.79082 8.71179 
145 1 -4.44197 9.84841 7.50262 
151 1 -4.99441 10.4576 11.0436 
154 1 -2.97647 9.60207 9.83491 
155 1 -2.91947 6.23064 7.44169 
12 1 2.55904 7.0549 17.1297 
17 1 0.402833 9.33745 20.9223 
24 1 -3.61967 8.38276 11.8408 
27 1 -0.246742 7.19957 21.6354 
29 1 0.615211 5.97393 22.004 
31 1 1.29452 7.19522 17.9138 
44 1 -0.107144 7.17296 20.1386 
46 1 0.133548 8.50562 19.7358 
51 1 -0.257937 7.21138 11.099 
53 1 2.60113 7.01416 15.6164 
56 1 1.26292 7.15593 14.8431 
63 1 -2.33003 6.21761 21.7628 
66 1 -3.36726 6.72645 20.8635 
70 1 -0.160606 7.1998 12.6375 
72 1 0.526261 5.92558 12.9716 
92 1 0.899318 8.4964 14.2431 
95 1 -4.97342 10.4818 21.6891 
98 1 -4.63797 9.27391 20.8063 
104 1 0.401363 9.33558 11.8331 
116 1 -2.62262 8.7468 21.8297 
118 1 -3.61999 8.38188 20.9179 
122 1 0.139735 8.54295 13.0414 
133 1 -3.373 6.73272 11.9047 
136 1 0.311081 8.50575 22.0709 
147 1 0.558106 5.93409 19.7851 
153 1 -4.65221 9.29025 11.9288 
160 1 0.907775 8.47251 18.5092 
1 1 7.87893 4.95071 10.528 
4 1 9.18178 4.7802 11.0139 
20 1 7.85116 4.95444 9.05475 
42 1 9.44519 5.43164 7.44152 
67 1 9.97461 4.5736 0.740226 
77 1 7.88201 4.95076 0.0865172 
94 1 7.8538 4.94836 1.55256 
96 1 9.19227 4.65339 1.99859 
121 1 4.67996 5.46227 10.7293 
130 1 9.44816 5.4343 3.17891 
134 1 9.97471 4.57216 9.86934 
152 1 9.19243 4.65741 8.61302 
45 1 4.67357 5.44455 22.0634 
55 1 4.82569 5.46839 13.0639 
106 1 9.18066 4.78233 21.7514 
137 1 4.81413 5.48773 19.6912 
2 1 7.23636 10.5039 9.05325 
3 1 8.94955 7.64383 6.02821 
6 1 8.52462 6.39634 6.8481 
16 1 2.34996 8.69353 0.850219 
22 1 7.13809 6.19734 8.71264 
26 1 7.19712 8.40902 7.54938 
35 1 7.22285 10.5661 10.4796 
37 1 6.8557 9.3057 10.9625 
39 1 8.29813 8.92088 6.78978 
41 1 6.73577 7.00202 9.81906 
48 1 3.7028 6.37151 0.844949 
61 1 7.23902 10.5051 1.58476 
62 1 8.9601 7.64413 4.57564 
64 1 6.71958 9.23748 2.01291 
68 1 7.40532 6.97478 3.05085 
71 1 4.31795 8.55529 10.7741 
74 1 3.62361 7.80054 9.80752 
81 1 8.53845 6.40588 3.76597 
83 1 6.53913 8.4262 0.786047 
93 1 7.1661 10.59 0.126939 
97 1 8.28788 8.93624 3.82073 
101 1 2.35024 9.94852 10.6718 
103 1 2.33823 8.70736 9.76741 
117 1 7.13513 6.19134 1.90508 
120 1 7.19184 8.41646 3.06353 
123 1 3.73528 6.35374 9.77678 
129 1 6.73304 6.99981 0.788729 
132 1 6.71972 9.24358 8.61396 
135 1 7.40539 6.97053 7.57379 
141 1 7.22858 6.1704 10.9077 
144 1 6.54553 8.43028 9.829 
148 1 3.62262 7.78532 0.794146 
7 1 9.18459 6.02118 11.9208 
10 1 3.66208 9.77855 21.6024 
13 1 2.34639 9.95315 22.0928 
15 1 3.01059 8.35086 17.9222 
28 1 3.67884 9.76143 20.1193 
30 1 4.39203 8.52875 19.7813 
34 1 4.34999 6.31806 18.6352 
40 1 7.84184 8.34474 11.9484 
49 1 4.80164 7.72438 20.8899 
50 1 2.07149 9.29165 18.5262 
58 1 1.56001 10.1522 11.8249 
59 1 4.14106 7.77545 14.1163 
69 1 3.65073 9.77479 11.1538 
73 1 3.0116 8.33308 14.8644 
75 1 4.9939 6.26577 11.8431 
79 1 7.22852 6.16545 21.8552 
82 1 7.91196 6.88652 20.8943 
86 1 3.67565 9.78674 12.6488 
88 1 2.33379 10.0615 13.075 
108 1 9.18695 6.01823 20.8453 
112 1 4.40852 8.52938 12.9668 
115 1 4.32109 6.28324 14.1313 
124 1 4.80834 7.73422 11.8691 
125 1 2.07102 9.28865 14.2396 
126 1 6.85608 9.31283 21.8042 
128 1 7.83278 8.33954 20.8025 
139 1 1.55946 10.1509 20.9383 
140 1 4.13663 7.75082 18.6563 
143 1 7.91128 6.90205 11.8681 
146 1 4.30504 8.54566 21.9931 
149 1 4.98997 6.28638 20.8974 
157 1 2.34118 10.0664 19.6918 
ITEM: TIMESTEP
20
ITEM: NUMBER OF ATOMS
161
ITEM: BOX BOUNDS xy xz yz pp pp pp
-6.7755000000000001e+00 1.3552000000000000e+01 -6.7755000000000001e+00
0.0000000000000000e+00 1.1735510246683001e+01 0.0000000000000000e+00
0.0000000000000000e+00 2.2149999999999999e+01 0.0000000000000000e+00
ITEM: ATOMS id type x y z 
8 1 -2.42633 5.40072 9.83935 
87 1 2.97193 4.284 10.6337 
90 1 2.66708 5.44626 9.7499 
109 1 -2.42598 5.4003 0.773663 
158 1 2.65849 5.44876 0.843314 
11 1 4.28014 4.2235 20.122 
14 1 2.88977 4.14306 19.7073 
18 1 1.31001 5.86211 18.584 
33 1 2.09835 4.26576 20.9096 
43 1 4.30024 4.18505 21.5714 
47 1 3.25198 5.78903 17.8463 
52 1 4.27781 4.21738 12.6126 
76 1 2.35633 4.8507 14.1771 
85 1 4.31333 4.19106 11.1655 
89 1 3.40696 5.69824 15.0455 
91 1 0.946551 5.11254 11.8418 
102 1 2.89938 4.11338 12.9867 
105 1 1.23954 5.9024 14.1406 
114 1 2.08458 4.2516 11.8254 
150 1 2.43341 4.90636 18.5855 
156 1 2.95603 4.27966 22.1091 
159 1 0.962317 5.11477 20.9181 
161 2 3.10973 4.284 15.2683 
5 1 -4.91159 10.5843 8.63606 
9 1 -3.34424 8.86032 7.50552 
19 1 -1.77093 7.53319 10.5549 
21 1 -2.626 8.7637 10.954 
23 1 -3.29575 7.52853 6.81865 
25 1 -4.11615 10.4523 9.83749 
32 1 1.59988 6.36148 0.772774 
36 1 -1.89399 7.55938 9.0639 
38 1 -2.15556 6.22918 8.64575 
54 1 0.316611 8.49411 10.6744 
57 1 1.3668 7.99046 9.78973 
60 1 -1.76767 7.53178 0.0555878 
65 1 -3.30476 7.53131 3.78945 
78 1 -1.88789 7.55832 1.55077 
80 1 -2.5516 8.79391 1.89697 
84 1 -4.45756 9.81367 3.10524 
99 1 -2.9771 9.60635 0.772686 
100 1 -2.93426 6.26879 3.1743 
107 1 -4.90986 10.5799 1.98493 
110 1 -3.32716 8.86346 3.10921 
111 1 0.609672 5.96035 10.7489 
113 1 1.6019 6.35265 9.83671 
119 1 -4.11334 10.4545 0.78238 
127 1 -2.15643 6.22667 1.97112 
131 1 -2.3338 6.22859 11.0082 
138 1 1.36637 7.98508 0.826938 
142 1 -2.55625 8.7961 8.70718 
145 1 -4.45506 9.82285 7.50965 
151 1 -4.97584 10.4418 11.0353 
154 1 -2.9816 9.60172 9.84242 
155 1 -2.92786 6.26414 7.44138 
12 1 2.56166 7.0689 17.1684 
17 1 0.408433 9.32781 20.9135 
24 1 -3.60936 8.36523 11.8507 
27 1 -0.250336 7.19152 21.6351 
29 1 0.610526 5.96551 22.026 
31 1 1.28196 7.1958 17.9054 
44 1 -0.128182 7.16355 20.1394 
46 1 0.137496 8.49787 19.7204 
51 1 -0.255859 7.20142 11.132 
53 1 2.57476 7.03816 15.6107 
56 1 1.27543 7.15562 14.8213 
63 1 -2.33319 6.2296 21.7547 
66 1 -3.38277 6.7332 20.8648 
70 1 -0.151089 7.18428 12.6183 
72 1 0.516044 5.9421 12.9725 
92 1 0.910168 8.4528 14.2475 
95 1 -4.97595 10.4431 21.7272 
98 1 -4.69034 9.26441 20.8299 
104 1 0.403118 9.33379 11.8456 
116 1 -2.62517 8.76176 21.8149 
118 1 -3.60559 8.36585 20.9115 
122 1 0.134017 8.50231 13.051 
133 1 -3.38494 6.73546 11.9 
136 1 0.314862 8.49809 22.0864 
147 1 0.536601 5.92781 19.7897 
153 1 -4.68934 9.2683 11.9218 
160 1 0.90712 8.45956 18.5144 
1 1 7.8627 4.94114 10.5219 
4 1 9.16002 4.79358 11.0176 
20 1 7.8424 4.93963 9.05781 
42 1 9.45606 5.44366 7.44278 
67 1 9.97001 4.57641 0.76369 
77 1 7.86733 4.94337 0.0949398 
94 1 7.84178 4.94234 1.5523 
96 1 9.1749 4.66912 1.99481 
121 1 4.65651 5.49207 10.7029 
130 1 9.45815 5.44528 3.17274 
134 1 9.97191 4.5769 9.84563 
152 1 9.17632 4.67071 8.62212 
45 1 4.65833 5.48042 22.0662 
55 1 4.82369 5.50134 13.0649 
106 1 9.15913 4.79356 21.747 
137 1 4.82154 5.50822 19.6989 
2 1 7.25326 10.5009 9.04235 
3 1 8.97379 7.64169 6.06125 
6 1 8.52045 6.39165 6.82597 
16 1 2.36188 8.69301 0.853835 
22 1 7.11218 6.1874 8.71711 
26 1 7.2006 8.42751 7.54464 
35 1 7.24077 10.5378 10.4824 
37 1 6.88228 9.24785 10.9875 
39 1 8.28832 8.93737 6.77658 
41 1 6.72263 6.99842 9.83597 
48 1 3.69796 6.35833 0.831408 
61 1 7.25333 10.503 1.57418 
62 1 8.97528 7.64664 4.54742 
64 1 6.71103 9.21716 1.99267 
68 1 7.39429 6.96145 3.05702 
71 1 4.31944 8.52781 10.7541 
74 1 3.60421 7.79166 9.81562 
81 1 8.52133 6.39667 3.7848 
83 1 6.5502 8.43203 0.779661 
93 1 7.22776 10.5485 0.129824 
97 1 8.2792 8.93853 3.84516 
101 1 2.37717 9.93047 10.6712 
103 1 2.35603 8.69163 9.75839 
117 1 7.11374 6.18628 1.90066 
120 1 7.19285 8.42125 3.07408 
123 1 3.70374 6.357 9.78523 
129 1 6.72368 6.99786 0.77958 
132 1 6.71455 9.2191 8.62061 
135 1 7.39346 6.96231 7.55669 
141 1 7.21963 6.19558 10.9295 
144 1 6.55064 8.43113 9.8294 
148 1 3.60278 7.79455 0.798455 
7 1 9.17544 6.02978 11.9308 
10 1 3.6707 9.78195 21.5976 
13 1 2.3764 9.92513 22.0924 
15 1 3.01877 8.3397 17.9018 
28 1 3.69044 9.77928 20.1351 
30 1 4.41905 8.53466 19.7835 
34 1 4.34142 6.30423 18.6207 
40 1 7.83631 8.3587 11.9168 
49 1 4.81245 7.72533 20.9081 
50 1 2.0732 9.28172 18.5198 
58 1 1.57054 10.1526 11.8416 
59 1 4.13955 7.76048 14.1198 
69 1 3.66614 9.77932 11.1707 
73 1 3.01588 8.31341 14.8533 
75 1 4.99081 6.2979 11.8632 
79 1 7.21752 6.19104 21.834 
82 1 7.93187 6.93434 20.8857 
86 1 3.68747 9.78279 12.63 
88 1 2.35762 10.0496 13.0706 
108 1 9.1749 6.02485 20.8335 
112 1 4.41935 8.53751 12.9762 
115 1 4.31931 6.29588 14.1278 
124 1 4.81615 7.72725 11.8579 
125 1 2.07848 9.2643 14.2485 
126 1 6.88138 9.25494 21.7895 
128 1 7.83943 8.35212 20.8358 
139 1 1.56421 10.1488 20.9262 
140 1 4.13739 7.7615 18.6345 
143 1 7.93135 6.93665 11.8772 
146 1 4.31275 8.52611 22.0077 
149 1 4.98607 6.29539 20.9031 
157 1 2.35768 10.0571 19.6962 
ITEM: TIMESTEP
30
ITEM: NUMBER OF ATOMS
161
ITEM: BOX BOUNDS xy xz yz pp pp pp
-6.7755000000000001e+00 1.3552000000000000e+01 -6.7755000000000001e+00
0.0000000000000000e+00 1.1735510246683001e+01 0.0000000000000000e+00
0.0000000000000000e+00 2.2149999999999999e+01 0.0000000000000000e+00
ITEM: ATOMS id type x y z 
8 1 -2.44446 5.43315 9.83 
87 1 2.95724 4.28607 10.6128 
90 1 2.6418 5.43515 9.741 
109 1 -2.44567 5.43196 0.784695 
158 1 2.64046 5.43754 0.853002 
11 1 4.2627 4.24687 20.1179 
14 1 2.86672 4.16558 19.7103 
18 1 1.28092 5.84726 18.5608 
33 1 2.07587 4.27857 20.9036 
43 1 4.27379 4.23958 21.5515 
47 1 3.25366 5.77452 17.8325 
52 1 4.25903 4.23936 12.6222 
76 1 2.32266 4.84559 14.1807 
85 1 4.28381 4.24012 11.187 
89 1 3.4197 5.70727 15.0691 
91 1 0.932393 5.12458 11.8328 
102 1 2.86044 4.15662 12.9876 
105 1 1.24471 5.8651 14.1297 
114 1 2.06381 4.26839 11.8201 
150 1 2.43312 4.93531 18.5777 
156 1 2.94481 4.28772 22.1149 
159 1 0.943204 5.13145 20.9335 
161 2 3.13028 4.34564 15.3017 
5 1 -4.88338 10.5542 8.63122 
9 1 -3.29837 8.87645 7.48995 
19 1 -1.77343 7.55411 10.566 
21 1 -2.61022 8.76258 10.9727 
23 1 -3.29524 7.543 6.80761 
25 1 -4.09746 10.4443 9.82823 
32 1 1.6037 6.38934 0.791984 
36 1 -1.86722 7.58033 9.06414 
38 1 -2.15536 6.25148 8.64128 
54 1 0.331532 8.47627 10.6677 
57 1 1.37504 7.96894 9.79436 
60 1 -1.77196 7.55052 0.0492461 
65 1 -3.29562 7.54579 3.79882 
78 1 -1.86203 7.57837 1.54654 
80 1 -2.52077 8.80156 1.90216 
84 1 -4.4541 9.78415 3.113 
99 1 -2.95936 9.58972 0.755589 
100 1 -2.93802 6.28856 3.16998 
107 1 -4.88644 10.5533 1.98128 
110 1 -3.2969 8.87621 3.1249 
111 1 0.597939 5.96266 10.7193 
113 1 1.60391 6.39009 9.82571 
119 1 -4.09479 10.4419 0.791547 
127 1 -2.15615 6.25213 1.97315 
131 1 -2.34825 6.24955 11.0152 
138 1 1.37613 7.9739 0.823021 
142 1 -2.5215 8.80214 8.70962 
145 1 -4.4563 9.78293 7.50037 
151 1 -4.96121 10.4365 11.0427 
154 1 -2.96221 9.58736 9.85825 
155 1 -2.93672 6.28273 7.44349 
12 1 2.56777 7.07519 17.1912 
17 1 0.426321 9.29304 20.9075 
24 1 -3.62908 8.33453 11.8702 
27 1 -0.246981 7.17516 21.6411 
29 1 0.592798 5.96019 22.0501 
31 1 1.26588 7.18947 17.9028 
44 1 -0.155714 7.14561 20.1444 
46 1 0.1329 8.47352 19.7194 
51 1 -0.250858 7.18271 11.125 
53 1 2.56231 7.04727 15.6141 
56 1 1.27777 7.14422 14.8267 
63 1 -2.34654 6.25068 21.7496 
66 1 -3.39569 6.74752 20.8668 
70 1 -0.186459 7.16529 12.6181 
72 1 0.483061 5.93226 12.9632 
92 1 0.919806 8.42751 14.2435 
95 1 -4.96158 10.4331 21.7174 
98 1 -4.65723 9.27839 20.8354 
104 1 0.425254 9.30381 11.8548 
116 1 -2.60975 8.76281 21.7933 
118 1 -3.62664 8.33843 20.8921 
122 1 0.130556 8.48086 13.0504 
133 1 -3.39357 6.75067 11.8961 
136 1 0.328167 8.47618 22.0914 
147 1 0.499228 5.9198 19.7908 
153 1 -4.65833 9.28445 11.9277 
160 1 0.911305 8.44388 18.5194 
1 1 7.82181 4.94335 10.517 
4 1 9.13184 4.82448 11.0027 
20 1 7.80551 4.94186 9.06601 
42 1 9.44665 5.46703 7.45006 
67 1 9.95249 4.60128 0.777651 
77 1 7.82706 4.94773 0.0986174 
94 1 7.80534 4.9405 1.55007 
96 1 9.14546 4.69687 1.9969 
121 1 4.64072 5.53278 10.6721 
130 1 9.44359 5.46902 3.16723 
134 1 9.95364 4.60082 9.83675 
152 1 9.14554 4.6981 8.6148 
45 1 4.63627 5.52303 22.0874 
55 1 4.81511 5.51973 13.0513 
106 1 9.13282 4.82219 21.7589 
137 1 4.82046 5.53389 19.7012 
2 1 7.27125 10.4804 9.03633 
3 1 8.9707 7.64845 6.08476 
6 1 8.49826 6.3947 6.80574 
16 1 2.37315 8.69857 0.872543 
22 1 7.07818 6.1782 8.69237 
26 1 7.20016 8.40448 7.53062 
35 1 7.26771 10.4771 10.4718 
37 1 6.89864 9.19956 11.0148 
39 1 8.28877 8.92878 6.74472 
41 1 6.69859 6.97789 9.83883 
48 1 3.70192 6.35057 0.838812 
61 1 7.27097 10.4798 1.57818 
62 1 8.96829 7.65104 4.53245 
64 1 6.7164 9.19235 1.99104 
68 1 7.37974 6.95425 3.06561 
71 1 4.33498 8.5241 10.7332 
74 1 3.58845 7.81155 9.79217 
81 1 8.50207 6.39324 3.80633 
83 1 6.54586 8.39686 0.801442 
93 1 7.26344 10.4841 0.143108 
97 1 8.29242 8.92159 3.86858 
101 1 2.4027 9.90085 10.6831 
103 1 2.37135 8.70144 9.74226 
117 1 7.07715 6.1747 1.91962 
120 1 7.19582 8.40976 3.08441 
123 1 3.70391 6.35705 9.77309 
129 1 6.69838 6.97716 0.774461 
132 1 6.71625 9.19414 8.62829 
135 1 7.38416 6.95456 7.55104 
141 1 7.20854 6.20808 10.9573 
144 1 6.54806 8.39895 9.81415 
148 1 3.59285 7.80843 0.820786 
7 1 9.16303 6.02185 11.9466 
10 1 3.71349 9.78119 21.5948 
13 1 2.4034 9.89934 22.0781 
15 1 3.02467 8.34172 17.8874 
28 1 3.72896 9.78306 20.1429 
30 1 4.459 8.55111 19.7731 
34 1 4.33708 6.31549 18.6067 
40 1 7.83383 8.37471 11.9133 
49 1 4.83791 7.74781 20.9144 
50 1 2.08511 9.26746 18.5228 
58 1 1.58669 10.1271 11.8543 
59 1 4.15533 7.75958 14.12 
69 1 3.70525 9.77411 11.1732 
73 1 3.02687 8.29739 14.8564 
75 1 4.99609 6.32642 11.8749 
79 1 7.20615 6.20918 21.8016 
82 1 7.94113 6.90707 20.867 
86 1 3.73011 9.78692 12.6281 
88 1 2.38729 10.0198 13.0759 
108 1 9.16754 6.02057 20.8173 
112 1 4.45357 8.55248 12.9932 
115 1 4.31742 6.29393 14.1471 
124 1 4.84358 7.75175 11.857 
125 1 2.09061 9.24259 14.2444 
126 1 6.89668 9.20255 21.7463 
128 1 7.82949 8.37702 20.85 
139 1 1.5813 10.1252 20.9141 
140 1 4.15645 7.7688 18.6197 
143 1 7.94032 6.90997 11.8959 
146 1 4.32974 8.51932 22.0308 
149 1 4.99 6.32527 20.8923 
157 1 2.38749 10.031 19.6946 
ITEM: TIMESTEP
40
ITEM: NUMBER OF ATOMS
161
ITEM: BOX BOUNDS xy xz yz pp pp pp
-6.7755000000000001e+00 1.3552000000000000e+01 -6.7755000000000001e+00
0.0000000000000000e+00 1.1735510246683001e+01 0.0000000000000000e+00
0.0000000000000000e+00 2.2149999999999999e+01 0.0000000000000000e+00
ITEM: ATOMS id type x y z 
8 1 -2.4662 5.47274 9.83141 
87 1 2.94392 4.32488 10.6078 
90 1 2.63351 5.48123 9.69819 
109 1 -2.46627 5.47425 0.781422 
158 1 2.63357 5.46553 0.893239 
11 1 4.24669 4.29488 20.0897 
14 1 2.85059 4.17612 19.7254 
18 1 1.28384 5.86045 18.56 
33 1 2.05459 4.30336 20.9294 
43 1 4.25666 4.28051 21.5314 
47 1 3.21859 5.79832 17.852 
52 1 4.21726 4.27187 12.6505 
76 1 2.32317 4.82484 14.237 
85 1 4.25311 4.28119 11.2033 
89 1 3.41669 5.75361 15.0881 
91 1 0.895633 5.13003 11.8042 
102 1 2.81969 4.1976 12.9858 
105 1 1.22306 5.86001 14.1163 
114 1 2.05287 4.29489 11.7887 
150 1 2.37708 4.88899 18.5824 
156 1 2.92831 4.32946 22.1181 
159 1 0.911481 5.13893 20.9233 
161 2 3.12075 4.37239 15.3326 
5 1 -4.86853 10.54 8.64255 
9 1 -3.29901 8.86638 7.47384 
19 1 -1.76249 7.56973 10.5627 
21 1 -2.59705 8.76349 10.9992 
23 1 -3.2858 7.52169 6.83141 
25 1 -4.07437 10.4198 9.84892 
32 1 1.56634 6.36487 0.822257 
36 1 -1.83275 7.6128 9.058 
38 1 -2.14296 6.29341 8.64148 
54 1 0.342028 8.45726 10.6812 
57 1 1.39905 7.98155 9.7721 
60 1 -1.76232 7.57239 0.0456034 
65 1 -3.29382 7.52474 3.78972 
78 1 -1.83347 7.61386 1.5584 
80 1 -2.49992 8.82171 1.91749 
84 1 -4.40726 9.80679 3.11778 
99 1 -2.9264 9.58073 0.771657 
100 1 -2.92878 6.29391 3.1647 
107 1 -4.86863 10.5392 1.9726 
110 1 -3.29524 8.86802 3.13724 
111 1 0.566938 5.95514 10.7011 
113 1 1.5698 6.36863 9.78861 
119 1 -4.07445 10.4205 0.762955 
127 1 -2.14101 6.29277 1.96985 
131 1 -2.35842 6.27399 11.0022 
138 1 1.39661 7.98542 0.842203 
142 1 -2.50498 8.82191 8.69504 
145 1 -4.40231 9.80897 7.49771 
151 1 -4.94324 10.3935 11.0413 
154 1 -2.92931 9.58299 9.84092 
155 1 -2.92326 6.2984 7.44815 
12 1 2.58337 7.04321 17.1731 
17 1 0.447744 9.25526 20.9115 
24 1 -3.57408 8.35803 11.8954 
27 1 -0.256188 7.14978 21.6422 
29 1 0.572014 5.96048 22.068 
31 1 1.27808 7.20818 17.9131 
44 1 -0.184016 7.11147 20.1372 
46 1 0.112896 8.43348 19.726 
51 1 -0.26461 7.16774 11.1195 
53 1 2.57582 7.01728 15.62 
56 1 1.2899 7.11334 14.8036 
63 1 -2.36182 6.27061 21.7605 
66 1 -3.41171 6.7361 20.8484 
70 1 -0.224429 7.13157 12.6236 
72 1 0.448164 5.91015 12.9742 
92 1 0.916751 8.41529 14.2265 
95 1 -4.95312 10.3978 21.7319 
98 1 -4.65699 9.2768 20.7875 
104 1 0.445301 9.26358 11.8517 
116 1 -2.59525 8.75977 21.7642 
118 1 -3.57407 8.34515 20.87 
122 1 0.118041 8.44579 13.0572 
133 1 -3.41523 6.73533 11.917 
136 1 0.342825 8.45317 22.0854 
147 1 0.488016 5.90288 19.7616 
153 1 -4.65503 9.26169 11.9722 
160 1 0.897886 8.45334 18.5313 
1 1 7.76502 4.93597 10.5349 
4 1 9.09227 4.84246 10.9883 
20 1 7.74968 4.95487 9.0452 
42 1 9.42576 5.47735 7.44268 
67 1 9.91993 4.64307 0.787335 
77 1 7.77367 4.94625 0.0860459 
94 1 7.75182 4.94984 1.55854 
96 1 9.09169 4.72102 1.99266 
121 1 4.62007 5.55579 10.6905 
130 1 9.43193 5.47809 3.16487 
134 1 9.92008 4.64433 9.82415 
152 1 9.09216 4.71959 8.63048 
45 1 4.61564 5.5508 22.0629 
55 1 4.81327 5.55225 13.061 
106 1 9.09131 4.83945 21.7765 
137 1 4.80883 5.57062 19.6862 
2 1 7.29355 10.4318 9.01288 
3 1 8.94376 7.6658 6.0528 
6 1 8.51224 6.3912 6.8172 
16 1 2.38706 8.70819 0.889124 
22 1 7.02262 6.15141 8.68472 
26 1 7.20319 8.39365 7.51177 
35 1 7.27531 10.4508 10.4523 
37 1 6.91517 9.17024 10.981 
39 1 8.30834 8.92341 6.76227 
41 1 6.665 6.9463 9.82502 
48 1 3.66388 6.37883 0.894254 
61 1 7.29062 10.4272 1.60296 
62 1 8.95378 7.65999 4.55711 
64 1 6.72369 9.1553 2.00294 
68 1 7.35397 6.93943 3.08149 
71 1 4.36513 8.52228 10.713 
74 1 3.61896 7.81959 9.76972 
81 1 8.50387 6.39639 3.79801 
83 1 6.54828 8.38105 0.781239 
93 1 7.27592 10.4434 0.157077 
97 1 8.30582 8.93036 3.84808 
101 1 2.44229 9.89108 10.6967 
103 1 2.38123 8.70788 9.72199 
117 1 7.01735 6.15604 1.93246 
120 1 7.20597 8.38657 3.10568 
123 1 3.66901 6.38361 9.71095 
129 1 6.66491 6.94592 0.785881 
132 1 6.72487 9.14933 8.60365 
135 1 7.35376 6.93792 7.53417 
141 1 7.1772 6.19561 10.9665 
144 1 6.55506 8.38119 9.83596 
148 1 3.61938 7.80992 0.84579 
7 1 9.14449 6.01599 11.9646 
10 1 3.76888 9.78571 21.6052 
13 1 2.44327 9.88054 22.0684 
15 1 3.02569 8.34254 17.9124 
28 1 3.77922 9.7758 20.1273 
30 1 4.51662 8.56911 19.7515 
34 1 4.33641 6.33595 18.5922 
40 1 7.8734 8.33471 11.9757 
49 1 4.87167 7.77259 20.9105 
50 1 2.09098 9.25953 18.5255 
58 1 1.62332 10.0833 11.8635 
59 1 4.17744 7.76683 14.1286 
69 1 3.75257 9.77387 11.175 
73 1 3.02265 8.28074 14.8519 
75 1 4.98868 6.34957 11.8476 
79 1 7.17192 6.18828 21.8017 
82 1 7.92559 6.92636 20.8313 
86 1 3.78013 9.78636 12.6389 
88 1 2.4408 9.99747 13.0721 
108 1 9.14438 6.01454 20.7953 
112 1 4.5215 8.57 13.0069 
115 1 4.35323 6.32055 14.1442 
124 1 4.87938 7.77314 11.8564 
125 1 2.10106 9.21532 14.2385 
126 1 6.92227 9.17809 21.784 
128 1 7.8754 8.3237 20.7883 
139 1 1.60904 10.0817 20.9086 
140 1 4.17118 7.78831 18.6081 
143 1 7.92045 6.92183 11.9283 
146 1 4.35844 8.51893 22.0465 
149 1 4.98481 6.35224 20.9094 
157 1 2.44694 10.0131 19.7044 
ITEM: TIMESTEP
50
ITEM: NUMBER OF ATOMS
161
ITEM: BOX BOUNDS xy xz yz pp pp pp
-6.7755000000000001e+00 1.3552000000000000e+01 -6.7755000000000001e+00
0.0000000000000000e+00 1.1735510246683001e+01 0.0000000000000000e+00
0.0000000000000000e+00 2.2149999999999999e+01 0.0000000000000000e+00
ITEM: ATOMS id type x y z 
8 1 -2.47356 5.47945 9.82492 
87 1 2.93522 4.32647 10.6014 
90 1 2.62832 5.47088 9.69447 
109 1 -2.47429 5.47935 0.789337 
158 1 2.62532 5.46249 0.897283 
11 1 4.24051 4.30063 20.0942 
14 1 2.83713 4.1833 19.7202 
18 1 1.26698 5.85466 18.5585 
33 1 2.05274 4.30537 20.9266 
43 1 4.24544 4.29578 21.5293 
47 1 3.22651 5.7853 17.8519 
52 1 4.21278 4.28451 12.6492 
76 1 2.30971 4.82969 14.2275 
85 1 4.24301 4.29592 11.2069 
89 1 3.41797 5.76194 15.088 
91 1 0.88698 5.13005 11.8019 
102 1 2.81352 4.20685 12.9912 
105 1 1.23081 5.84865 14.1217 
114 1 2.04531 4.30016 11.7929 
150 1 2.38312 4.91042 18.5764 
156 1 2.9235 4.32941 22.1198 
159 1 0.905713 5.14074 20.9347 
161 2 3.12487 4.37941 15.3446 
5 1 -4.85347 10.5305 8.6379 
9 1 -3.27802 8.86974 7.47528 
19 1 -1.76209 7.57618 10.5621 
21 1 -2.59379 8.76954 10.9948 
23 1 -3.30652 7.53454 6.81251 
25 1 -4.07371 10.4178 9.84491 
32 1 1.56902 6.37646 0.827773 
36 1 -1.82557 7.61666 9.05744 
38 1 -2.14024 6.29507 8.64512 
54 1 0.353231 8.45281 10.6767 
57 1 1.39773 7.97609 9.77269 
60 1 -1.76184 7.57344 0.0498746 
65 1 -3.30405 7.5356 3.80007 
78 1 -1.82516 7.61668 1.55343 
80 1 -2.48996 8.82489 1.92227 
84 1 -4.41194 9.79646 3.12194 
99 1 -2.92378 9.58169 0.756853 
100 1 -2.93176 6.28933 3.16284 
107 1 -4.85483 10.5313 1.97468 
110 1 -3.27732 8.86957 3.13666 
111 1 0.565984 5.9577 10.6893 
113 1 1.57052 6.38339 9.78414 
119 1 -4.07251 10.4163 0.768698 
127 1 -2.14056 6.29516 1.96888 
131 1 -2.37113 6.27828 11.0113 
138 1 1.39743 7.97845 0.843071 
142 1 -2.49178 8.82357 8.69104 
145 1 -4.41165 9.79688 7.49294 
151 1 -4.94167 10.3912 11.0419 
154 1 -2.92398 9.58287 9.85762 
155 1 -2.93038 6.28707 7.44939 
12 1 2.57177 7.05716 17.1784 
17 1 0.454019 9.24694 20.9065 
24 1 -3.58578 8.34865 11.9039 
27 1 -0.257494 7.14917 21.6403 
29 1 0.572357 5.95424 22.0701 
31 1 1.28147 7.19898 17.904 
44 1 -0.191044 7.10824 20.1387 
46 1 0.113872 8.43304 19.7272 
51 1 -0.264069 7.16336 11.1249 
53 1 2.57299 7.01895 15.62 
56 1 1.29288 7.11392 14.81 
63 1 -2.36961 6.27893 21.7535 
66 1 -3.41615 6.74254 20.8461 
70 1 -0.227853 7.13055 12.6219 
72 1 0.437445 5.90428 12.9681 
92 1 0.92143 8.40669 14.227 
95 1 -4.94115 10.3893 21.7207 
98 1 -4.64701 9.2593 20.793 
104 1 0.456342 9.25399 11.8604 
116 1 -2.59103 8.767 21.7681 
118 1 -3.58445 8.34814 20.8609 
122 1 0.116045 8.43965 13.0479 
133 1 -3.4143 6.74215 11.9162 
136 1 0.351612 8.44575 22.0905 
147 1 0.473284 5.8994 19.7647 
153 1 -4.64578 9.26048 11.9735 
160 1 0.902434 8.45127 18.5315 
1 1 7.75345 4.92954 10.5253 
4 1 9.0845 4.84868 10.9851 
20 1 7.7434 4.94916 9.05888 
42 1 9.43251 5.48206 7.45532 
67 1 9.91308 4.65372 0.787045 
77 1 7.76397 4.94364 0.0923086 
94 1 7.73986 4.94703 1.55524 
96 1 9.08584 4.72812 1.99714 
121 1 4.6114 5.5685 10.6794 
130 1 9.43118 5.48389 3.16001 
134 1 9.91496 4.65435 9.82923 
152 1 9.08451 4.72954 8.61465 
45 1 4.60797 5.5637 22.0735 
55 1 4.81209 5.55409 13.0532 
106 1 9.08614 4.84541 21.7756 
137 1 4.81118 5.57822 19.6868 
2 1 7.29457 10.4231 9.01494 
3 1 8.9569 7.66697 6.06897 
6 1 8.49027 6.40115 6.81278 
16 1 2.3919 8.70671 0.892845 
22 1 7.0103 6.15711 8.66445 
26 1 7.20253 8.37465 7.50608 
35 1 7.28882 10.4297 10.4542 
37 1 6.92746 9.16283 10.9942 
39 1 8.31166 8.9241 6.75744 
41 1 6.65991 6.94371 9.83731 
48 1 3.66776 6.3784 0.891253 
61 1 7.29423 10.4226 1.59878 
62 1 8.9595 7.66222 4.54901 
64 1 6.72349 9.14618 2.0024 
68 1 7.35275 6.93254 3.08314 
71 1 4.37302 8.52423 10.7146 
74 1 3.61461 7.82456 9.76172 
81 1 8.49363 6.39975 3.80164 
83 1 6.54768 8.37031 0.7889 
93 1 7.28707 10.4292 0.160981 
97 1 8.30848 8.92928 3.85155 
101 1 2.45101 9.88326 10.6982 
103 1 2.38803 8.71065 9.72036 
117 1 7.0063 6.15527 1.94377 
120 1 7.20475 8.38192 3.10815 
123 1 3.67069 6.38789 9.71383 
129 1 6.65863 6.94161 0.778668 
132 1 6.7246 9.14647 8.6124 
135 1 7.35839 6.9359 7.5342 
141 1 7.17254 6.20735 10.9695 
144 1 6.55521 8.3699 9.82289 
148 1 3.61771 7.81674 0.851169 
7 1 9.14216 6.01669 11.9677 
10 1 3.78075 9.79254 21.6021 
13 1 2.45059 9.87477 22.0643 
15 1 3.0323 8.33524 17.9014 
28 1 3.79262 9.77478 20.1343 
30 1 4.52745 8.57268 19.7481 
34 1 4.33085 6.34222 18.5868 
40 1 7.8717 8.34319 11.9697 
49 1 4.87891 7.78306 20.9118 
50 1 2.09518 9.25519 18.5342 
58 1 1.62581 10.0714 11.8654 
59 1 4.18161 7.77462 14.1292 
69 1 3.76088 9.7745 11.1773 
73 1 3.03297 8.27364 14.859 
75 1 4.98868 6.35151 11.855 
79 1 7.16975 6.20335 21.7908 
82 1 7.92101 6.90529 20.837 
86 1 3.79281 9.78443 12.6355 