ITEM: TIMESTEP
0
ITEM: NUMBER OF ATOMS
163
ITEM: BOX BOUNDS xy xz yz pp pp pp
-6.7755000000000001e+00 1.3552000000000000e+01 -6.7755000000000001e+00
0.0000000000000000e+00 1.1735510246683001e+01 0.0000000000000000e+00
0.0000000000000000e+00 2.2149999999999999e+01 0.0000000000000000e+00
ITEM: ATOMS id type x y z 
8 1 -2.486 5.297 9.849 
87 1 3.001 4.231 10.696 
90 1 2.733 5.481 9.824 
109 1 -2.486 5.297 0.765 
158 1 2.733 5.481 0.79 
11 1 4.24 4.139 20.131 
14 1 3.031 4.094 19.728 
18 1 1.299 5.827 18.554 
33 1 2.266 4.151 20.924 
43 1 4.343 3.96 21.647 
47 1 3.32 5.732 17.88 
52 1 4.24 4.139 12.633 
76 1 2.552 4.924 14.209 
85 1 4.343 3.96 11.117 
89 1 3.32 5.732 14.883 
91 1 1.036 5.037 11.84 
102 1 3.031 4.094 13.035 
105 1 1.299 5.827 14.209 
114 1 2.266 4.151 11.84 
150 1 2.552 4.924 18.554 
156 1 3.001 4.231 22.068 
159 1 1.036 5.037 20.924 
5 1 -5.049 10.63 8.653 
9 1 -3.317 8.897 7.479 
19 1 -1.707 7.414 10.572 
21 1 -2.66 8.795 10.993 
23 1 -3.31 7.532 6.805 
25 1 -4.284 10.573 9.849 
32 1 1.503 6.367 0.79 
36 1 -1.869 7.426 9.056 
38 1 -2.209 6.086 8.653 
54 1 0.3 8.576 10.696 
57 1 1.291 8.001 9.824 
60 1 -1.707 7.414 0.042 
65 1 -3.31 7.532 3.808 
78 1 -1.869 7.426 1.558 
80 1 -2.566 8.842 1.961 
84 1 -4.57 9.799 3.135 
99 1 -3.054 9.687 0.765 
100 1 -2.96 6.142 3.135 
107 1 -5.049 10.63 1.961 
110 1 -3.317 8.897 3.135 
111 1 0.642 5.929 10.696 
113 1 1.503 6.367 9.824 
119 1 -4.284 10.573 0.765 
127 1 -2.209 6.086 1.961 
131 1 -2.318 6.148 10.993 
138 1 1.291 8.001 0.79 
142 1 -2.566 8.842 8.653 
145 1 -4.57 9.799 7.479 
151 1 -5.019 10.493 10.993 
154 1 -3.054 9.687 9.849 
155 1 -2.96 6.142 7.479 
12 1 2.53 7.1 17.202 
17 1 0.468 9.427 20.924 
24 1 -3.52 8.357 11.865 
27 1 -0.31 7.31 21.647 
29 1 0.642 5.929 22.068 
31 1 1.292 7.192 17.88 
44 1 -0.148 7.298 20.131 
46 1 0.191 8.638 19.728 
51 1 -0.31 7.31 11.117 
53 1 2.53 7.1 15.561 
56 1 1.292 7.192 14.883 
63 1 -2.318 6.148 21.771 
66 1 -3.309 6.723 20.899 
70 1 -0.148 7.298 12.633 
72 1 0.548 5.882 13.035 
92 1 0.942 8.582 14.209 
95 1 -5.019 10.493 21.771 
98 1 -4.751 9.243 20.899 
104 1 0.468 9.427 11.84 
116 1 -2.66 8.795 21.771 
118 1 -3.52 8.357 20.899 
122 1 0.191 8.638 13.035 
133 1 -3.309 6.723 11.865 
136 1 0.3 8.576 22.068 
147 1 0.548 5.882 19.728 
153 1 -4.751 9.243 11.865 
160 1 0.942 8.582 18.554 
1 1 7.976 4.694 10.572 
4 1 9.274 4.77 10.993 
20 1 8.034 4.861 9.056 
42 1 9.55 5.41 7.479 
67 1 10.043 4.578 0.765 
77 1 7.976 4.694 0.042 
94 1 8.035 4.861 1.558 
96 1 9.278 4.635 1.961 
121 1 4.688 5.417 10.696 
130 1 9.55 5.41 3.135 
134 1 10.043 4.578 9.849 
152 1 9.278 4.635 8.653 
45 1 4.688 5.417 22.068 
55 1 4.788 5.329 13.035 
106 1 9.274 4.77 21.771 
137 1 4.788 5.329 19.728 
2 1 7.294 10.585 9.056 
3 1 9.004 7.624 6.127 
6 1 8.556 6.347 6.805 
16 1 2.314 8.72 0.79 
22 1 7.166 6.156 8.653 
26 1 7.226 8.565 7.479 
35 1 7.191 10.764 10.572 
37 1 6.846 9.307 10.993 
39 1 8.214 8.992 6.805 
41 1 6.677 7.002 9.849 
48 1 3.775 6.213 0.79 
61 1 7.294 10.585 1.558 
62 1 9.004 7.624 4.487 
64 1 6.747 9.395 1.961 
68 1 7.437 6.931 3.135 
71 1 4.29 8.493 10.696 
74 1 3.567 7.818 9.824 
81 1 8.556 6.347 3.808 
83 1 6.47 8.606 0.765 
93 1 7.191 10.764 0.042 
97 1 8.214 8.992 3.808 
101 1 2.261 9.954 10.696 
103 1 2.314 8.72 9.824 
117 1 7.166 6.156 1.961 
120 1 7.226 8.565 3.135 
123 1 3.775 6.213 9.824 
129 1 6.677 7.002 0.765 
132 1 6.747 9.395 8.653 
135 1 7.437 6.931 7.479 
141 1 7.244 6.231 10.993 
144 1 6.47 8.606 9.849 
148 1 3.567 7.818 0.79 
161 2 3.567 7.818 8.474 
162 2 4.199 7.181 7.257 
163 3 5.172 7.161 7.331 
7 1 9.22 6.004 11.865 
10 1 3.558 10.029 21.647 
13 1 2.261 9.954 22.068 
15 1 2.978 8.376 17.88 
28 1 3.5 9.862 20.131 
30 1 4.369 8.568 19.728 
34 1 4.308 6.159 18.554 
40 1 7.76 8.511 11.865 
49 1 4.857 7.722 20.924 
50 1 1.984 9.314 18.554 
58 1 1.491 10.146 11.84 
59 1 4.097 7.793 14.209 
69 1 3.558 10.029 11.117 
73 1 2.978 8.376 14.883 
75 1 5.064 6.118 11.84 
79 1 7.244 6.231 21.771 
82 1 7.967 6.906 20.899 
86 1 3.5 9.862 12.633 
88 1 2.256 10.089 13.035 
108 1 9.22 6.004 20.899 
112 1 4.369 8.568 13.035 
115 1 4.308 6.159 14.209 
124 1 4.857 7.722 11.84 
125 1 1.984 9.314 14.209 
126 1 6.846 9.307 21.771 
128 1 7.76 8.511 20.899 
139 1 1.491 10.146 20.924 
140 1 4.097 7.793 18.554 
143 1 7.967 6.906 11.865 
146 1 4.29 8.493 22.068 
149 1 5.064 6.118 20.924 
157 1 2.256 10.089 19.728 
ITEM: TIMESTEP
10
ITEM: NUMBER OF ATOMS
163
ITEM: BOX BOUNDS xy xz yz pp pp pp
-6.7755000000000001e+00 1.3552000000000000e+01 -6.7755000000000001e+00
0.0000000000000000e+00 1.1735510246683001e+01 0.0000000000000000e+00
0.0000000000000000e+00 2.2149999999999999e+01 0.0000000000000000e+00
ITEM: ATOMS id type x y z 
8 1 -2.41751 5.34511 9.86653 
87 1 2.99794 4.26162 10.6541 
90 1 2.64403 5.51481 9.79138 
109 1 -2.41488 5.35048 0.75076 
158 1 2.63961 5.47377 0.838298 
11 1 4.27932 4.18409 20.1585 
14 1 2.93974 4.11281 19.7023 
18 1 1.34045 5.8679 18.5847 
33 1 2.1428 4.20076 20.8851 
43 1 4.34351 4.12934 21.5806 
47 1 3.24437 5.79044 17.8275 
52 1 4.27662 4.18634 12.5959 
76 1 2.44204 4.92549 14.1849 
85 1 4.3087 4.12941 11.179 
89 1 3.26042 5.79708 14.933 
91 1 1.00215 5.04785 11.874 
102 1 2.93744 4.12052 13.074 
105 1 1.31976 5.86275 14.1698 
114 1 2.16538 4.19083 11.8666 
150 1 2.43206 4.90072 18.5811 
156 1 2.97464 4.23117 22.1363 
159 1 0.990775 5.06909 20.9056 
5 1 -4.9569 10.6103 8.63525 
9 1 -3.34556 8.86754 7.50437 
19 1 -1.75118 7.4738 10.5478 
21 1 -2.58975 8.7689 10.8632 
23 1 -3.32056 7.53895 6.82916 
25 1 -4.17788 10.5169 9.83014 
32 1 1.58207 6.34903 0.76306 
36 1 -1.9008 7.52059 9.07065 
38 1 -2.15051 6.19976 8.63944 
54 1 0.291774 8.52569 10.673 
57 1 1.34216 7.96001 9.78745 
60 1 -1.74536 7.46332 0.0728924 
65 1 -3.31413 7.54747 3.77338 
78 1 -1.90392 7.51414 1.54789 
80 1 -2.54422 8.78019 1.84777 
84 1 -4.46156 9.80815 3.11253 
99 1 -3.02037 9.6738 0.799366 
100 1 -2.91835 6.2583 3.18214 
107 1 -4.95007 10.6039 1.98587 
110 1 -3.33569 8.86427 3.09602 
111 1 0.604448 5.94662 10.7926 
113 1 1.51139 6.35329 9.84173 
119 1 -4.17693 10.5156 0.78482 
127 1 -2.15445 6.20325 1.97309 
131 1 -2.32355 6.20422 11.0201 
138 1 1.35674 7.98664 0.818788 
142 1 -2.53554 8.78192 8.76462 
145 1 -4.4657 9.82288 7.50009 
151 1 -4.9993 10.4721 11.0327 
154 1 -3.0164 9.66586 9.83192 
155 1 -2.92448 6.25536 7.42746 
12 1 2.55945 7.07689 17.1374 
17 1 0.397165 9.38662 20.9347 
24 1 -3.60025 8.3689 11.8708 
27 1 -0.274013 7.23414 21.6272 
29 1 0.60011 5.96312 21.9517 
31 1 1.29491 7.17444 17.9158 
44 1 -0.117546 7.19408 20.1378 
46 1 0.1343 8.53168 19.7071 
51 1 -0.282651 7.26202 11.1301 
53 1 2.56359 7.06624 15.6072 
56 1 1.29927 7.16714 14.8422 
63 1 -2.32215 6.20852 21.7462 
66 1 -3.34984 6.71415 20.8764 
70 1 -0.127491 7.21664 12.6368 
72 1 0.544752 5.93085 12.9216 
92 1 0.899078 8.46311 14.2563 
95 1 -5.00124 10.4708 21.7316 
98 1 -4.71951 9.27548 20.859 
104 1 0.402117 9.38827 11.8378 
116 1 -2.57142 8.77844 21.9142 
118 1 -3.61336 8.36206 20.8739 
122 1 0.143606 8.52978 13.06 
133 1 -3.36067 6.71587 11.8863 
136 1 0.299906 8.53012 22.1063 
147 1 0.531841 5.9383 19.8386 
153 1 -4.70789 9.26855 11.9033 
160 1 0.901675 8.46128 18.501 
1 1 7.88053 4.8924 10.564 
4 1 9.18321 4.79316 11.0408 
20 1 7.87606 4.92788 9.04884 
42 1 9.46878 5.4298 7.42461 
67 1 10.0007 4.54335 0.758059 
77 1 7.8825 4.89809 0.0842041 
94 1 7.897 4.94829 1.54465 
96 1 9.19718 4.64109 2.00048 
121 1 4.67344 5.43858 10.6979 
130 1 9.47289 5.42223 3.18363 
134 1 10.004 4.54338 9.8586 
152 1 9.22766 4.63718 8.60191 
45 1 4.70158 5.42288 22.0254 
55 1 4.81574 5.47257 13.0446 
106 1 9.18012 4.79262 21.7221 
137 1 4.81888 5.46811 19.7107 
2 1 7.25775 10.538 9.09138 
3 1 8.96075 7.64201 6.07474 
6 1 8.528 6.39027 6.82815 
16 1 2.34373 8.68656 0.831757 
22 1 7.15954 6.21814 8.72779 
26 1 7.19112 8.42602 7.54693 
35 1 7.22 10.5878 10.5062 
37 1 6.84513 9.30899 10.9609 
39 1 8.27745 8.91767 6.76254 
41 1 6.7447 7.01232 9.82777 
48 1 3.73398 6.36161 0.835371 
61 1 7.25557 10.5413 1.52461 
62 1 8.96291 7.65611 4.54526 
64 1 6.71744 9.26169 1.98406 
68 1 7.4071 6.96226 3.0529 
71 1 4.31336 8.55179 10.8789 
74 1 3.63713 7.74082 9.6876 
81 1 8.51366 6.39094 3.78391 
83 1 6.53455 8.45281 0.785938 
93 1 7.22076 10.5879 0.105961 
97 1 8.26453 8.92706 3.85166 
101 1 2.35671 9.93388 10.6432 
103 1 2.3086 8.73836 9.80167 
117 1 7.16921 6.19376 1.88118 
120 1 7.18447 8.42235 3.07078 
123 1 3.78844 6.27198 9.83632 
129 1 6.74434 7.0134 0.787554 
132 1 6.72345 9.26316 8.62571 
135 1 7.42636 6.96622 7.55864 
141 1 7.24383 6.19916 10.9018 
144 1 6.54137 8.4529 9.82595 
148 1 3.61086 7.80987 0.766305 
161 2 3.58917 7.83974 8.54641 
162 2 4.19721 7.1781 7.24549 
163 3 5.14118 7.16177 7.33035 
7 1 9.1937 6.03365 11.9059 
10 1 3.65228 9.82471 21.6075 
13 1 2.35693 9.93164 22.1146 
15 1 3.02289 8.33474 17.8952 
28 1 3.63508 9.77419 20.151 
30 1 4.36846 8.53456 19.8067 
34 1 4.3558 6.30286 18.6267 
40 1 7.81079 8.36307 11.9 
49 1 4.7926 7.70771 20.9038 
50 1 2.05775 9.30658 18.5035 
58 1 1.52152 10.1815 11.8281 
59 1 4.10709 7.73136 14.1633 
69 1 3.64005 9.81513 11.1502 
73 1 3.01128 8.33149 14.8655 
75 1 5.00759 6.24607 11.8712 
79 1 7.24278 6.19325 21.8687 
82 1 7.9191 6.93506 20.9146 
86 1 3.61413 9.84677 12.6087 
88 1 2.31644 10.0945 13.0847 
108 1 9.18374 6.02554 20.858 
112 1 4.40485 8.56232 12.9183 
115 1 4.35228 6.29334 14.1456 
124 1 4.8198 7.67222 11.8207 
125 1 2.06809 9.29152 14.2675 
126 1 6.8444 9.30901 21.8012 
128 1 7.81407 8.36501 20.8648 
139 1 1.53449 10.1828 20.934 
140 1 4.13483 7.76069 18.6387 
143 1 7.91939 6.93553 11.8467 
146 1 4.28657 8.53119 21.977 
149 1 4.99857 6.26562 20.9054 
157 1 2.34052 10.0873 19.6885 
ITEM: TIMESTEP
20
ITEM: NUMBER OF ATOMS
163
ITEM: BOX BOUNDS xy xz yz pp pp pp
-6.7755000000000001e+00 1.3552000000000000e+01 -6.7755000000000001e+00
0.0000000000000000e+00 1.1735510246683001e+01 0.0000000000000000e+00
0.0000000000000000e+00 2.2149999999999999e+01 0.0000000000000000e+00
ITEM: ATOMS id type x y z 
8 1 -2.41682 5.36607 9.84786 
87 1 2.97543 4.27624 10.6557 
90 1 2.63406 5.51619 9.79477 
109 1 -2.41686 5.36639 0.766403 
158 1 2.65631 5.45985 0.829881 
11 1 4.28502 4.19884 20.1357 
14 1 2.91398 4.12839 19.6917 
18 1 1.32726 5.86174 18.5994 
33 1 2.1389 4.21189 20.9075 
43 1 4.3227 4.14417 21.5965 
47 1 3.25737 5.79509 17.8377 
52 1 4.28071 4.19669 12.6236 
76 1 2.44153 4.93371 14.1801 
85 1 4.30071 4.12688 11.1713 
89 1 3.25847 5.79784 14.9328 
91 1 1.00193 5.04684 11.8653 
102 1 2.91468 4.12736 13.0813 
105 1 1.3182 5.85907 14.163 
114 1 2.14559 4.20368 11.8585 
150 1 2.43684 4.9228 18.5853 
156 1 2.97747 4.2615 22.1146 
159 1 0.995116 5.05827 20.9089 
5 1 -4.92889 10.5943 8.61511 
9 1 -3.34064 8.86402 7.51825 
19 1 -1.74952 7.48593 10.5491 
21 1 -2.62409 8.76433 10.8737 
23 1 -3.31108 7.55491 6.84244 
25 1 -4.15659 10.5104 9.83055 
32 1 1.59648 6.35529 0.750291 
36 1 -1.88845 7.52029 9.06536 
38 1 -2.16004 6.20394 8.63969 
54 1 0.292463 8.52603 10.6801 
57 1 1.35857 7.94971 9.78701 
60 1 -1.74769 7.48864 0.0686134 
65 1 -3.3112 7.55471 3.77235 
78 1 -1.88699 7.5178 1.54908 
80 1 -2.54857 8.79368 1.84286 
84 1 -4.4576 9.79332 3.10469 
99 1 -3.01125 9.66181 0.780152 
100 1 -2.93011 6.26587 3.1781 
107 1 -4.9281 10.5911 1.99883 
110 1 -3.33931 8.86493 3.09461 
111 1 0.599133 5.94135 10.8073 
113 1 1.51035 6.36049 9.85092 
119 1 -4.15659 10.5074 0.783951 
127 1 -2.16085 6.20184 1.97399 
131 1 -2.32392 6.1964 11.0232 
138 1 1.35489 7.97506 0.816634 
142 1 -2.54873 8.79253 8.76915 
145 1 -4.45451 9.79723 7.50915 
151 1 -4.99134 10.4668 11.0395 
154 1 -3.01076 9.66308 9.83413 
155 1 -2.9282 6.26828 7.4364 
12 1 2.56381 7.08194 17.1479 
17 1 0.39862 9.35658 20.9256 
24 1 -3.60732 8.36984 11.8356 
27 1 -0.271379 7.23768 21.624 
29 1 0.60927 5.96111 21.9481 
31 1 1.29297 7.17082 17.9159 
44 1 -0.130191 7.20741 20.1409 
46 1 0.140487 8.51966 19.7143 
51 1 -0.28122 7.25833 11.1455 
53 1 2.56475 7.06943 15.6084 
56 1 1.29249 7.16909 14.8433 
63 1 -2.32372 6.20196 21.7417 
66 1 -3.3716 6.74171 20.873 
70 1 -0.132636 7.2086 12.624 
72 1 0.539445 5.9332 12.9088 
92 1 0.913855 8.45818 14.2554 
95 1 -4.99356 10.4661 21.7267 
98 1 -4.67702 9.26386 20.8545 
104 1 0.396085 9.36342 11.8449 
116 1 -2.62197 8.76536 21.8894 
118 1 -3.60483 8.37237 20.9264 
122 1 0.143723 8.51946 13.0551 
133 1 -3.37237 6.74613 11.8896 
136 1 0.305709 8.52697 22.0951 
147 1 0.535577 5.93263 19.8457 
153 1 -4.67377 9.26103 11.9081 
160 1 0.911819 8.45941 18.511 
1 1 7.85574 4.87707 10.5392 
4 1 9.17908 4.80194 11.0198 
20 1 7.88902 4.94368 9.06608 
42 1 9.46932 5.43812 7.43448 
67 1 9.98241 4.552 0.761521 
77 1 7.86173 4.89242 0.0785051 
94 1 7.88247 4.94426 1.55063 
96 1 9.19799 4.65669 2.0021 
121 1 4.68776 5.45648 10.6727 
130 1 9.46533 5.44077 3.17828 
134 1 9.98311 4.5514 9.8546 
152 1 9.19542 4.65502 8.61123 
45 1 4.6715 5.45343 22.0486 
55 1 4.81702 5.49222 13.0619 
106 1 9.17624 4.79785 21.7419 
137 1 4.81282 5.49312 19.7006 
2 1 7.24895 10.529 9.05777 
3 1 8.96887 7.64504 6.07343 
6 1 8.52136 6.38198 6.81637 
16 1 2.3515 8.68893 0.844467 
22 1 7.15423 6.19206 8.72263 
26 1 7.19508 8.42854 7.55025 
35 1 7.21807 10.5734 10.5196 
37 1 6.85549 9.2769 10.9708 
39 1 8.27721 8.9286 6.75931 
41 1 6.73629 7.01356 9.83579 
48 1 3.7052 6.35673 0.817993 
61 1 7.24824 10.5306 1.55672 
62 1 8.96755 7.64769 4.53467 
64 1 6.71972 9.23306 1.98767 
68 1 7.4009 6.96443 3.05697 
71 1 4.32122 8.5427 10.8438 
74 1 3.64507 7.75507 9.68096 
81 1 8.51903 6.39005 3.78968 
83 1 6.53721 8.45139 0.789689 
93 1 7.22201 10.5699 0.0983628 
97 1 8.27068 8.9263 3.85241 
101 1 2.35522 9.93698 10.6476 
103 1 2.30149 8.72018 9.7924 
117 1 7.1532 6.19353 1.88837 
120 1 7.18927 8.4277 3.0629 
123 1 3.78441 6.2729 9.82766 
129 1 6.73415 7.01249 0.783066 
132 1 6.72191 9.23619 8.62568 
135 1 7.41942 6.97034 7.55757 
141 1 7.23536 6.21029 10.9138 
144 1 6.5453 8.44858 9.82276 
148 1 3.60415 7.78898 0.779978 
161 2 3.59652 7.84703 8.55164 
162 2 4.19312 7.17725 7.24153 
163 3 5.13868 7.16163 7.33035 
7 1 9.18511 6.03138 11.9166 
10 1 3.67853 9.84041 21.6144 
13 1 2.35564 9.93107 22.0982 
15 1 3.01526 8.33418 17.8973 
28 1 3.64677 9.77503 20.1371 
30 1 4.38281 8.53276 19.7986 
34 1 4.33688 6.29651 18.6254 
40 1 7.82081 8.36337 11.8976 
49 1 4.79934 7.71204 20.9074 
50 1 2.07107 9.28501 18.5108 
58 1 1.54577 10.1768 11.8413 
59 1 4.11552 7.75012 14.1151 
69 1 3.6483 9.81398 11.1742 
73 1 3.02515 8.33174 14.8581 
75 1 5.01815 6.25604 11.8834 
79 1 7.23703 6.20342 21.8517 
82 1 7.92717 6.93061 20.9086 
86 1 3.64276 9.82564 12.619 
88 1 2.3191 10.0772 13.0813 
108 1 9.18306 6.03137 20.8471 
112 1 4.39296 8.54895 12.9342 
115 1 4.34168 6.31041 14.144 
124 1 4.82614 7.68686 11.8588 
125 1 2.0686 9.27943 14.2545 
126 1 6.85207 9.27748 21.7924 
128 1 7.82028 8.36181 20.8673 
139 1 1.549 10.1728 20.9273 
140 1 4.13339 7.75507 18.6321 
143 1 7.92864 6.93319 11.8559 
146 1 4.30173 8.5146 21.9876 
149 1 4.99635 6.27576 20.9013 
157 1 2.34044 10.067 19.6857 
ITEM: TIMESTEP
30
ITEM: NUMBER OF ATOMS
163
ITEM: BOX BOUNDS xy xz yz pp pp pp
-6.7755000000000001e+00 1.3552000000000000e+01 -6.7755000000000001e+00
0.0000000000000000e+00 1.1735510246683001e+01 0.0000000000000000e+00
0.0000000000000000e+00 2.2149999999999999e+01 0.0000000000000000e+00
ITEM: ATOMS id type x y z 
8 1 -2.42772 5.39569 9.84264 
87 1 2.96446 4.3067 10.6499 
90 1 2.62127 5.52362 9.79651 
109 1 -2.42837 5.39657 0.771886 
158 1 2.63455 5.44283 0.82342 
11 1 4.27731 4.22797 20.1251 
14 1 2.89884 4.1469 19.6953 
18 1 1.30774 5.86012 18.6034 
33 1 2.11542 4.21211 20.9036 
43 1 4.30743 4.19475 21.5774 
47 1 3.24731 5.80282 17.8224 
52 1 4.27377 4.22344 12.6374 
76 1 2.43277 4.93925 14.1785 
85 1 4.28497 4.17153 11.1871 
89 1 3.24615 5.80818 14.9429 
91 1 0.97827 5.0396 11.855 
102 1 2.90051 4.14137 13.077 
105 1 1.3099 5.86068 14.1628 
114 1 2.11622 4.20669 11.8609 
150 1 2.43152 4.94156 18.5876 
156 1 2.96505 4.27234 22.1228 
159 1 0.976881 5.0475 20.9195 
5 1 -4.91532 10.5768 8.6196 
9 1 -3.32271 8.86485 7.52612 
19 1 -1.75183 7.49537 10.5518 
21 1 -2.62784 8.76146 10.878 
23 1 -3.30176 7.55777 6.84115 
25 1 -4.13396 10.5116 9.82905 
32 1 1.60754 6.38599 0.744926 
36 1 -1.85671 7.53215 9.06732 
38 1 -2.15609 6.2211 8.63736 
54 1 0.297842 8.51547 10.6831 
57 1 1.37182 7.9293 9.79366 
60 1 -1.74765 7.49572 0.0637011 
65 1 -3.30054 7.55729 3.77321 
78 1 -1.85529 7.53238 1.54582 
80 1 -2.5372 8.79193 1.83593 
84 1 -4.44926 9.78207 3.1022 
99 1 -2.99265 9.67656 0.769754 
100 1 -2.93729 6.28282 3.173 
107 1 -4.91632 10.5774 1.99307 
110 1 -3.32516 8.86464 3.0867 
111 1 0.572317 5.9399 10.8042 
113 1 1.50939 6.38203 9.86114 
119 1 -4.13452 10.5097 0.78353 
127 1 -2.15699 6.21962 1.97762 
131 1 -2.33484 6.20949 11.0233 
138 1 1.37051 7.95592 0.807669 
142 1 -2.53666 8.79253 8.77778 
145 1 -4.44591 9.78299 7.51147 
151 1 -4.98168 10.452 11.0499 
154 1 -2.99294 9.67745 9.84387 
155 1 -2.93649 6.28392 7.44056 
12 1 2.56613 7.07453 17.1503 
17 1 0.411084 9.32803 20.9158 
24 1 -3.62583 8.3429 11.8241 
27 1 -0.269868 7.22961 21.6256 
29 1 0.608208 5.96234 21.9536 
31 1 1.284 7.16707 17.9163 
44 1 -0.161749 7.19223 20.1443 
46 1 0.139455 8.50503 19.7125 
51 1 -0.286728 7.24913 11.1436 
53 1 2.56982 7.06996 15.6129 
56 1 1.28778 7.16609 14.8487 
63 1 -2.33482 6.21435 21.7423 
66 1 -3.3894 6.7655 20.8801 
70 1 -0.159234 7.19242 12.6253 
72 1 0.525041 5.93011 12.9067 
92 1 0.920948 8.44439 14.2519 
95 1 -4.98263 10.4503 21.7145 
98 1 -4.65524 9.27565 20.8604 
104 1 0.40394 9.33542 11.8524 
116 1 -2.62489 8.75908 21.8859 
118 1 -3.62354 8.34475 20.939 
122 1 0.13687 8.50128 13.0586 
133 1 -3.38815 6.7649 11.883 
136 1 0.31724 8.51036 22.0985 
147 1 0.520322 5.93262 19.8535 
153 1 -4.65688 9.2771 11.9022 
160 1 0.920171 8.44225 18.5164 
1 1 7.80692 4.87656 10.5443 
4 1 9.14398 4.82657 10.9985 
20 1 7.85694 4.95157 9.07941 
42 1 9.45535 5.45553 7.43904 
67 1 9.9658 4.57261 0.77155 
77 1 7.81261 4.88457 0.0746544 
94 1 7.85 4.94761 1.54557 
96 1 9.17179 4.68192 2.00074 
121 1 4.69179 5.47606 10.6553 
130 1 9.45117 5.45699 3.17484 
134 1 9.96581 4.57286 9.84216 
152 1 9.17415 4.67805 8.6111 
45 1 4.65058 5.50074 22.0742 
55 1 4.81426 5.50945 13.0692 
106 1 9.14753 4.82401 21.7634 
137 1 4.81302 5.51535 19.6996 
2 1 7.25464 10.5033 9.04591 
3 1 8.96864 7.65057 6.07387 
6 1 8.51466 6.38799 6.79766 
16 1 2.359 8.69179 0.852328 
22 1 7.12216 6.18288 8.70353 
26 1 7.20408 8.41721 7.53791 
35 1 7.23687 10.5213 10.4931 
37 1 6.88146 9.22559 10.9987 
39 1 8.28934 8.92168 6.74483 
41 1 6.72323 6.99468 9.84152 
48 1 3.70152 6.34702 0.814987 
61 1 7.25306 10.5027 1.57175 
62 1 8.96615 7.64914 4.53832 
64 1 6.71863 9.20915 1.9903 
68 1 7.38638 6.96131 3.06167 
71 1 4.33672 8.52855 10.8236 
74 1 3.66852 7.76744 9.66424 
81 1 8.5114 6.39596 3.80399 
83 1 6.53515 8.42239 0.790321 
93 1 7.23738 10.518 0.124077 
97 1 8.28514 8.91868 3.86432 
101 1 2.36561 9.9201 10.6488 
103 1 2.30236 8.71644 9.79327 
117 1 7.12092 6.18441 1.90379 
120 1 7.1989 8.41467 3.07325 
123 1 3.78623 6.27271 9.82551 
129 1 6.71575 6.99748 0.772128 
132 1 6.72224 9.21131 8.62545 
135 1 7.41374 6.96609 7.55637 
141 1 7.22808 6.20934 10.9353 
144 1 6.54724 8.42016 9.82145 
148 1 3.59374 7.80349 0.797929 
161 2 3.61545 7.86462 8.55698 
162 2 4.18395 7.175 7.2315 
163 3 5.13096 7.16136 7.3303 
7 1 9.17614 6.03383 11.9279 
10 1 3.72576 9.8452 21.6177 
13 1 2.38882 9.89561 22.0738 
15 1 3.02342 8.32872 17.8813 
28 1 3.68071 9.77177 20.152 
30 1 4.41567 8.54028 19.7819 
34 1 4.3321 6.30837 18.6149 
40 1 7.84036 8.37655 11.8944 
49 1 4.81778 7.72903 20.9161 
50 1 2.08356 9.26563 18.5143 
58 1 1.56607 10.1548 11.8472 
59 1 4.12189 7.75612 14.1093 
69 1 3.66111 9.79272 11.194 
73 1 3.03233 8.32578 14.8626 
75 1 5.03006 6.28137 11.8852 
79 1 7.22316 6.21112 21.8309 
82 1 7.94003 6.92059 20.8901 
86 1 3.682 9.84013 12.6221 
88 1 2.34483 10.0592 13.0778 
108 1 9.17649 6.03336 20.8343 
112 1 4.42401 8.56119 12.9209 
115 1 4.33267 6.32677 14.1479 
124 1 4.8492 7.6822 11.8587 
125 1 2.07886 9.26276 14.2497 
126 1 6.87866 9.22582 21.7665 
128 1 7.83583 8.37333 20.8693 
139 1 1.56903 10.1512 20.9178 
140 1 4.14334 7.76113 18.6254 
143 1 7.93972 6.92183 11.8739 
146 1 4.3098 8.51268 22.01 
149 1 4.99791 6.30675 20.8973 
157 1 2.36063 10.0432 19.6877 
ITEM: TIMESTEP
40
ITEM: NUMBER OF ATOMS
163
ITEM: BOX BOUNDS xy xz yz pp pp pp
-6.7755000000000001e+00 1.3552000000000000e+01 -6.7755000000000001e+00
0.0000000000000000e+00 1.1735510246683001e+01 0.0000000000000000e+00
0.0000000000000000e+00 2.2149999999999999e+01 0.0000000000000000e+00
ITEM: ATOMS id type x y z 
8 1 -2.44485 5.42048 9.83811 
87 1 2.95924 4.33754 10.6571 
90 1 2.61792 5.54475 9.79045 
109 1 -2.44567 5.42219 0.776183 
158 1 2.62757 5.45733 0.836695 
11 1 4.2715 4.25955 20.1154 
14 1 2.88064 4.16103 19.7045 
18 1 1.29773 5.86442 18.6052 
33 1 2.09869 4.21246 20.9064 
43 1 4.2861 4.24363 21.5586 
47 1 3.23821 5.79832 17.8243 
52 1 4.25775 4.25099 12.65 
76 1 2.41576 4.94029 14.1807 
85 1 4.27812 4.19817 11.1987 
89 1 3.23977 5.8043 14.9405 
91 1 0.941854 5.02818 11.8494 
102 1 2.88177 4.15577 13.0665 
105 1 1.30249 5.86705 14.1602 
114 1 2.09587 4.20811 11.8601 
150 1 2.41329 4.94207 18.5875 
156 1 2.95979 4.28627 22.119 
159 1 0.950184 5.03916 20.9235 
5 1 -4.89911 10.5645 8.62721 
9 1 -3.31202 8.85932 7.52828 
19 1 -1.75304 7.51168 10.5494 
21 1 -2.61027 8.77376 10.8737 
23 1 -3.30214 7.55332 6.8397 
25 1 -4.11958 10.5154 9.83316 
32 1 1.59317 6.39215 0.752818 
36 1 -1.82707 7.54859 9.0646 
38 1 -2.14212 6.24053 8.63761 
54 1 0.305914 8.49984 10.6877 
57 1 1.3819 7.92654 9.79842 
60 1 -1.74496 7.51013 0.0647513 
65 1 -3.30449 7.55194 3.77439 
78 1 -1.82511 7.54915 1.54722 
80 1 -2.51641 8.80069 1.83672 
84 1 -4.4305 9.78192 3.10288 
99 1 -2.96418 9.6833 0.761031 
100 1 -2.93577 6.28317 3.16609 
107 1 -4.9007 10.566 1.98369 
110 1 -3.31484 8.85914 3.08365 
111 1 0.544784 5.92685 10.8047 
113 1 1.49511 6.39291 9.87113 
119 1 -4.12061 10.5131 0.780376 
127 1 -2.14352 6.23971 1.97653 
131 1 -2.34748 6.22304 11.0235 
138 1 1.38148 7.95078 0.808091 
142 1 -2.51494 8.80147 8.77711 
145 1 -4.42702 9.78377 7.51084 
151 1 -4.97319 10.4384 11.0483 
154 1 -2.96382 9.68436 9.85351 
155 1 -2.93453 6.28426 7.44779 
12 1 2.56766 7.06016 17.148 
17 1 0.427843 9.30281 20.914 
24 1 -3.62396 8.33334 11.8305 
27 1 -0.274566 7.21623 21.624 
29 1 0.587985 5.95191 21.9527 
31 1 1.28565 7.17093 17.9139 
44 1 -0.191381 7.17604 20.1413 
46 1 0.125062 8.48284 19.7124 
51 1 -0.294632 7.24071 11.1479 
53 1 2.57694 7.05876 15.614 
56 1 1.28821 7.16727 14.85 
63 1 -2.34589 6.22956 21.7429 
66 1 -3.40078 6.76969 20.8796 
70 1 -0.189523 7.17703 12.6319 
72 1 0.504927 5.92279 12.9035 
92 1 0.918568 8.44097 14.2477 
95 1 -4.97329 10.4357 21.7147 
98 1 -4.64866 9.27023 20.8491 
104 1 0.416911 9.3142 11.8569 
116 1 -2.60541 8.76898 21.89 
118 1 -3.61365 8.33078 20.9331 
122 1 0.123284 8.48041 13.0635 
133 1 -3.40143 6.76728 11.8843 
136 1 0.329001 8.49596 22.0966 
147 1 0.499025 5.92217 19.8544 
153 1 -4.64301 9.27389 11.9155 
160 1 0.919079 8.44015 18.5227 
1 1 7.76645 4.88209 10.5458 
4 1 9.10943 4.84488 10.9932 
20 1 7.81086 4.95148 9.07335 
42 1 9.44623 5.46521 7.44192 
67 1 9.94677 4.60336 0.782847 
77 1 7.76381 4.88486 0.0701171 
94 1 7.8074 4.95388 1.54071 
96 1 9.13448 4.70346 1.99954 
121 1 4.6836 5.4887 10.6579 
130 1 9.43969 5.46853 3.16926 
134 1 9.94478 4.60299 9.83569 
152 1 9.13477 4.7026 8.61454 
45 1 4.63875 5.52518 22.0793 
55 1 4.81582 5.53651 13.0738 
106 1 9.10881 4.846 21.771 
137 1 4.81301 5.55005 19.6967 
2 1 7.2631 10.4732 9.03192 
3 1 8.96829 7.66541 6.07254 
6 1 8.51233 6.39141 6.79611 
16 1 2.37609 8.69102 0.858409 
22 1 7.08453 6.17051 8.69165 
26 1 7.20845 8.40184 7.52222 
35 1 7.25605 10.4739 10.4742 
37 1 6.89422 9.19574 11.0038 
39 1 8.29863 8.92926 6.74518 
41 1 6.70329 6.97092 9.8391 
48 1 3.68485 6.35361 0.842586 
61 1 7.26163 10.4687 1.58433 
62 1 8.96522 7.66495 4.53924 
64 1 6.7159 9.17587 1.99124 
68 1 7.37691 6.95029 3.07203 
71 1 4.36715 8.51366 10.8285 
74 1 3.67736 7.77512 9.65622 
81 1 8.50813 6.40108 3.80775 
83 1 6.53291 8.396 0.791992 
93 1 7.25542 10.4717 0.142422 
97 1 8.29404 8.92432 3.86255 
101 1 2.38281 9.9005 10.652 
103 1 2.32297 8.70473 9.79038 
117 1 7.07602 6.17342 1.91828 
120 1 7.20019 8.39986 3.08931 
123 1 3.78368 6.29321 9.80677 
129 1 6.69447 6.97001 0.774516 
132 1 6.71995 9.17744 8.62274 
135 1 7.40631 6.95603 7.54665 
141 1 7.21099 6.20153 10.9508 
144 1 6.55165 8.39418 9.82027 
148 1 3.60489 7.80794 0.821795 
161 2 3.64124 7.89118 8.54528 
162 2 4.1737 7.17165 7.2174 
163 3 5.11966 7.1607 7.33018 
7 1 9.16004 6.03278 11.931 
10 1 3.76823 9.83781 21.6188 
13 1 2.42603 9.88158 22.0661 
15 1 3.0276 8.32479 17.8783 
28 1 3.72709 9.77172 20.1487 
30 1 4.4571 8.55314 19.7699 
34 1 4.33304 6.32263 18.6014 
40 1 7.86362 8.37101 11.9222 
49 1 4.84051 7.75657 20.9165 
50 1 2.09392 9.255 18.5178 
58 1 1.58046 10.1251 11.8514 
59 1 4.12976 7.77159 14.0982 
69 1 3.67842 9.78753 11.2006 
73 1 3.03646 8.32483 14.8575 
75 1 5.04515 6.29972 11.8849 
79 1 7.20523 6.20276 21.8121 
82 1 7.93008 6.91344 20.8677 
86 1 3.71538 9.84984 12.6214 
88 1 2.38385 10.0493 13.0766 
108 1 9.15958 6.03248 20.8304 
112 1 4.46742 8.56439 12.9207 
115 1 4.32861 6.34274 14.1521 
124 1 4.87874 7.68738 11.8519 
125 1 2.08761 9.25246 14.2435 
126 1 6.89367 9.19222 21.7577 
128 1 7.85415 8.37101 20.8467 
139 1 1.58861 10.1199 20.9103 
140 1 4.15522 7.77183 18.6143 
143 1 7.9315 6.90962 11.8985 
146 1 4.33027 8.52392 22.0265 
149 1 5.00119 6.3301 20.8938 
157 1 2.4021 10.0197 19.6909 
ITEM: TIMESTEP
50
ITEM: NUMBER OF ATOMS
163
ITEM: BOX BOUNDS xy xz yz pp pp pp
-6.7755000000000001e+00 1.3552000000000000e+01 -6.7755000000000001e+00
0.0000000000000000e+00 1.1735510246683001e+01 0.0000000000000000e+00
0.0000000000000000e+00 2.2149999999999999e+01 0.0000000000000000e+00
ITEM: ATOMS id type x y z 
8 1 -2.45174 5.43008 9.83667 
87 1 2.94839 4.34215 10.6588 
90 1 2.61434 5.55233 9.79291 
109 1 -2.45215 5.43202 0.777982 
158 1 2.62009 5.45933 0.84128 
11 1 4.26681 4.27002 20.1074 
14 1 2.87717 4.16446 19.7065 
18 1 1.29368 5.86723 18.6066 
33 1 2.09378 4.21401 20.9104 
43 1 4.27934 4.2579 21.5502 
47 1 3.23468 5.79907 17.827 
52 1 4.25197 4.25768 12.6518 
76 1 2.40957 4.94129 14.181 
85 1 4.26856 4.20937 11.2013 
89 1 3.23774 5.80518 14.9388 
91 1 0.929059 5.0232 11.8482 
102 1 2.87489 4.16 13.0683 
105 1 1.29741 5.8685 14.1577 
114 1 2.08799 4.21155 11.8546 
150 1 2.40678 4.94279 18.5872 
156 1 2.95488 4.29523 22.1216 
159 1 0.941126 5.03372 20.9236 
5 1 -4.89477 10.561 8.62825 
9 1 -3.30825 8.8571 7.53005 
19 1 -1.75029 7.51059 10.5461 
21 1 -2.60697 8.77751 10.8788 
23 1 -3.3003 7.55411 6.84001 
25 1 -4.11289 10.5133 9.83643 
32 1 1.58859 6.3938 0.753144 
36 1 -1.81831 7.55418 9.06206 
38 1 -2.13887 6.24568 8.63777 
54 1 0.309369 8.49517 10.6894 
57 1 1.3831 7.9244 9.79932 
60 1 -1.74208 7.51196 0.0674092 
65 1 -3.30218 7.55342 3.7738 
78 1 -1.81657 7.55452 1.5507 
80 1 -2.50819 8.8053 1.83235 
84 1 -4.42494 9.78213 3.10178 
99 1 -2.95754 9.69002 0.764692 
100 1 -2.93642 6.28455 3.16468 
107 1 -4.89532 10.5614 1.98353 
110 1 -3.311 8.85658 3.08223 
111 1 0.538017 5.92439 10.803 
113 1 1.4918 6.3924 9.87512 
119 1 -4.11365 10.5104 0.777081 
127 1 -2.14045 6.24594 1.97633 
131 1 -2.35326 6.23009 11.0225 
138 1 1.38723 7.94876 0.808706 
142 1 -2.50742 8.80649 8.78331 
145 1 -4.42012 9.78379 7.5109 
151 1 -4.96967 10.4294 11.0493 
154 1 -2.95781 9.69382 9.84629 
155 1 -2.93449 6.28521 7.44893 
12 1 2.56823 7.05927 17.1481 
17 1 0.434486 9.29269 20.9114 
24 1 -3.60553 8.33058 11.8306 
27 1 -0.276095 7.21238 21.6218 
29 1 0.5843 5.94904 21.9538 
31 1 1.28461 7.17059 17.9146 
44 1 -0.200253 7.16978 20.1385 
46 1 0.122916 8.47791 19.7128 
51 1 -0.297467 7.23513 11.1508 
53 1 2.57735 7.05837 15.6119 
56 1 1.29034 7.16832 14.8512 
63 1 -2.3525 6.2353 21.7431 
66 1 -3.40533 6.77383 20.8791 
70 1 -0.199065 7.17207 12.6346 
72 1 0.496185 5.91891 12.9031 
92 1 0.919273 8.43989 14.2474 
95 1 -4.97076 10.4279 21.7153 
98 1 -4.63817 9.26494 20.8438 
104 1 0.421278 9.30537 11.8611 
116 1 -2.60268 8.77288 21.8855 
118 1 -3.60642 8.33003 20.9337 
122 1 0.119131 8.47514 13.0643 
133 1 -3.40576 6.77401 11.8851 
136 1 0.334988 8.48982 22.0964 
147 1 0.490492 5.91885 19.8566 
153 1 -4.63684 9.26602 11.9197 
160 1 0.919436 8.43879 18.5244 
1 1 7.75459 4.87951 10.5435 
4 1 9.09827 4.84829 10.9906 
20 1 7.79417 4.94957 9.07274 
42 1 9.4423 5.47006 7.44419 
67 1 9.93351 4.61608 0.781796 
77 1 7.75271 4.8841 0.0710749 
94 1 7.79018 4.95325 1.54225 
96 1 9.12051 4.71143 1.99869 
121 1 4.68701 5.50009 10.6515 
130 1 9.43537 5.47459 3.16754 
134 1 9.93377 4.61477 9.83392 
152 1 9.12301 4.70981 8.61446 
45 1 4.63211 5.53912 22.0808 
55 1 4.81701 5.53803 13.0784 
106 1 9.09762 4.85036 21.7748 
137 1 4.81355 5.55991 19.695 
2 1 7.26829 10.4595 9.02658 
3 1 8.96882 7.66687 6.07288 
6 1 8.51144 6.39364 6.7925 
16 1 2.3825 8.6906 0.858462 
22 1 7.07005 6.16557 8.68561 
26 1 7.2096 8.39911 7.51859 
35 1 7.26307 10.462 10.4687 
37 1 6.90462 9.18277 11.0078 
39 1 8.30446 8.92897 6.74674 
41 1 6.69486 6.96295 9.83933 
48 1 3.68236 6.35934 0.849987 
61 1 7.26676 10.4559 1.58877 
62 1 8.96554 7.66583 4.53844 
64 1 6.71634 9.16489 1.99421 
68 1 7.3707 6.94605 3.07523 
71 1 4.36606 8.5333 10.8309 
74 1 3.68359 7.77777 9.6494 
81 1 8.50398 6.40269 3.81001 
83 1 6.53364 8.38763 0.789971 
93 1 7.26124 10.4589 0.146913 
97 1 8.29849 8.92433 3.86013 
101 1 2.3889 9.89449 10.6537 
103 1 2.32885 8.70061 9.78863 
117 1 7.06178 6.1676 1.92409 
120 1 7.20116 8.39526 3.09319 
123 1 3.78377 6.29293 9.80492 
129 1 6.68479 6.96331 0.773192 
132 1 6.72197 9.16869 8.61923 
135 1 7.40025 6.95097 7.5438 
141 1 7.20452 6.20094 10.9545 
144 1 6.55418 8.38636 9.82033 
148 1 3.60918 7.81355 0.828672 
161 2 3.65285 7.90205 8.54086 
162 2 4.16934 7.17005 7.21097 
163 3 5.11448 7.16055 7.33023 
7 1 9.15331 6.0333 11.9341 
10 1 3.78145 9.84054 21.6179 
13 1 2.43656 9.87409 22.0647 
15 1 3.02975 8.32216 17.8766 
28 1 3.74443 9.77139 20.1468 
30 1 4.47136 8.55706 19.7642 