LAMMPS (3 Mar 2020)
# Alpha
clear
units		real
dimension 3
boundary        p p p
atom_style	charge
newton on
read_data       OH_6.lmp
  orthogonal box = (0 0 0) to (11 11.002 11)
  2 by 2 by 2 MPI processor grid
  reading atoms ...
  50 atoms
  read_data CPU = 0.0111491 secs

timestep 0.25

# ---------- Define Interatomic Potential ---------------------
pair_style      reax/c NULL checkqeq no
pair_coeff      * * ffield.reax C H O
fix             2 all qeq/reax 1 0.0 10.0 1.0e-6 reax/c

#------------ Equilibration of the system -------------------------
reset_timestep 0

dump 1 all custom 10 min.lammpstrj id type x y z

minimize 1.0e-8 1.0e-8 100000 100000
WARNING: Using 'neigh_modify every 1 delay 0 check yes' setting during minimization (../min.cpp:190)
WARNING: Total cutoff < 2*bond cutoff. May need to use an increased neighbor list skin. (../pair_reaxc.cpp:413)
Neighbor list info ...
  update every 1 steps, delay 0 steps, check yes
  max neighbors/atom: 2000, page size: 100000
  master list distance cutoff = 9.5
  ghost atom cutoff = 9.5
  binsize = 4.75, bins = 3 3 3
  2 neighbor lists, perpetual/occasional/extra = 2 0 0
  (1) pair reax/c, perpetual
      attributes: half, newton off, ghost
      pair build: half/bin/newtoff/ghost
      stencil: half/ghost/bin/3d/newtoff
      bin: standard
  (2) fix qeq/reax, perpetual, copy from (1)
      attributes: half, newton off, ghost
      pair build: copy
      stencil: none
      bin: none
Per MPI rank memory allocation (min/avg/max) = 18.9 | 19.07 | 19.33 Mbytes
Step Temp E_pair E_mol TotEng Press 
       0            0   -8666.4682            0   -8666.4682    26764.281 
     244            0   -8822.6479            0   -8822.6479    29626.964 
Loop time of 4.79082 on 8 procs for 244 steps with 50 atoms

99.3% CPU use with 8 MPI tasks x no OpenMP threads

Minimization stats:
  Stopping criterion = energy tolerance
  Energy initial, next-to-last, final = 
         -8666.4682356      -8822.6479053     -8822.64791569
  Force two-norm initial, final = 515.4 31.5224
  Force max component initial, final = 175.168 8.81492
  Final line search alpha, max atom move = 2.98305e-06 2.62954e-05
  Iterations, force evaluations = 244 1886

MPI task timing breakdown:
Section |  min time  |  avg time  |  max time  |%varavg| %total
---------------------------------------------------------------
Pair    | 3.7072     | 3.7511     | 3.7922     |   1.5 | 78.30
Neigh   | 0.00070038 | 0.00071632 | 0.00073757 |   0.0 |  0.01
Comm    | 0.045449   | 0.087225   | 0.13135    |   9.7 |  1.82
Output  | 0.0005189  | 0.00073049 | 0.0013321  |   0.0 |  0.02
Modify  | 0.94019    | 0.94064    | 0.94143    |   0.0 | 19.63
Other   |            | 0.01037    |            |       |  0.22

Nlocal:    6.25 ave 8 max 6 min
Histogram: 7 0 0 0 0 0 0 0 0 1
Nghost:    615.5 ave 623 max 611 min
Histogram: 2 0 1 2 0 2 0 0 0 1
Neighs:    818.625 ave 1030 max 781 min
Histogram: 7 0 0 0 0 0 0 0 0 1

Total # of neighbors = 6549
Ave neighs/atom = 130.98
Neighbor list builds = 1
Dangerous builds = 0

###
min_style cg
minimize 1.0e-8 1.0e-8 100000 100000
WARNING: Using 'neigh_modify every 1 delay 0 check yes' setting during minimization (../min.cpp:190)
WARNING: Total cutoff < 2*bond cutoff. May need to use an increased neighbor list skin. (../pair_reaxc.cpp:413)
Per MPI rank memory allocation (min/avg/max) = 18.9 | 19.07 | 19.33 Mbytes
Step Temp E_pair E_mol TotEng Press 
     244            0   -8822.6479            0   -8822.6479    29626.964 
     260            0   -8822.6534            0   -8822.6534    29634.246 
Loop time of 0.612454 on 8 procs for 16 steps with 50 atoms

99.4% CPU use with 8 MPI tasks x no OpenMP threads

Minimization stats:
  Stopping criterion = energy tolerance
  Energy initial, next-to-last, final = 
        -8822.64791569      -8822.6533344     -8822.65339694
  Force two-norm initial, final = 31.5224 31.638
  Force max component initial, final = 8.81492 11.196
  Final line search alpha, max atom move = 6.67866e-07 7.47743e-06
  Iterations, force evaluations = 16 248

MPI task timing breakdown:
Section |  min time  |  avg time  |  max time  |%varavg| %total
---------------------------------------------------------------
Pair    | 0.49926    | 0.50423    | 0.50711    |   0.4 | 82.33
Neigh   | 0          | 0          | 0          |   0.0 |  0.00
Comm    | 0.0052077  | 0.0080888  | 0.013141   |   2.8 |  1.32
Output  | 2.3063e-05 | 2.9961e-05 | 5.6466e-05 |   0.0 |  0.00
Modify  | 0.098748   | 0.098818   | 0.098916   |   0.0 | 16.13
Other   |            | 0.001288   |            |       |  0.21

Nlocal:    6.25 ave 8 max 6 min
Histogram: 7 0 0 0 0 0 0 0 0 1
Nghost:    615.5 ave 623 max 611 min
Histogram: 2 0 1 2 0 2 0 0 0 1
Neighs:    817.375 ave 1027 max 780 min
Histogram: 7 0 0 0 0 0 0 0 0 1

Total # of neighbors = 6539
Ave neighs/atom = 130.78
Neighbor list builds = 0
Dangerous builds = 0

###
fix 1 all box/relax aniso 0.0
min_style cg
minimize 1.0e-8 1.0e-8 100000 100000
WARNING: Using 'neigh_modify every 1 delay 0 check yes' setting during minimization (../min.cpp:190)
WARNING: Total cutoff < 2*bond cutoff. May need to use an increased neighbor list skin. (../pair_reaxc.cpp:413)
Per MPI rank memory allocation (min/avg/max) = 18.9 | 19.07 | 19.33 Mbytes
Step Temp E_pair E_mol TotEng Press Volume 
     260            0   -8822.6534            0   -8822.6534    29634.246     1331.242 
    1028            0   -8836.3149            0   -8836.3149   -286.21432    1350.0875 
Loop time of 3.28583 on 8 procs for 768 steps with 50 atoms

99.4% CPU use with 8 MPI tasks x no OpenMP threads

Minimization stats:
  Stopping criterion = energy tolerance
  Energy initial, next-to-last, final = 
        -8822.65339695     -8836.31484779     -8836.31486276
  Force two-norm initial, final = 997.033 26.583
  Force max component initial, final = 578.433 7.68664
  Final line search alpha, max atom move = 4.63024e-07 3.5591e-06
  Iterations, force evaluations = 768 1379

MPI task timing breakdown:
Section |  min time  |  avg time  |  max time  |%varavg| %total
---------------------------------------------------------------
Pair    | 2.7763     | 2.8005     | 2.8166     |   0.8 | 85.23
Neigh   | 0          | 0          | 0          |   0.0 |  0.00
Comm    | 0.027811   | 0.043947   | 0.068633   |   6.3 |  1.34
Output  | 0.0014294  | 0.0017797  | 0.0029963  |   1.1 |  0.05
Modify  | 0.41513    | 0.41546    | 0.4158     |   0.0 | 12.64
Other   |            | 0.02412    |            |       |  0.73

Nlocal:    6.25 ave 8 max 6 min
Histogram: 7 0 0 0 0 0 0 0 0 1
Nghost:    615.5 ave 623 max 611 min
Histogram: 2 0 1 2 0 2 0 0 0 1
Neighs:    817.375 ave 1027 max 780 min
Histogram: 7 0 0 0 0 0 0 0 0 1

Total # of neighbors = 6539
Ave neighs/atom = 130.78
Neighbor list builds = 0
Dangerous builds = 0

unfix 1
###
min_style cg
minimize 1.0e-8 1.0e-8 100000 100000
WARNING: Using 'neigh_modify every 1 delay 0 check yes' setting during minimization (../min.cpp:190)
WARNING: Total cutoff < 2*bond cutoff. May need to use an increased neighbor list skin. (../pair_reaxc.cpp:413)
Per MPI rank memory allocation (min/avg/max) = 18.9 | 19.07 | 19.33 Mbytes
Step Temp E_pair E_mol TotEng Press 
    1028            0   -8836.3149            0   -8836.3149   -286.21432 
    1029            0   -8836.3149            0   -8836.3149   -283.99221 
Loop time of 0.0482634 on 8 procs for 1 steps with 50 atoms

99.1% CPU use with 8 MPI tasks x no OpenMP threads

Minimization stats:
  Stopping criterion = energy tolerance
  Energy initial, next-to-last, final = 
        -8836.31486276     -8836.31486276     -8836.31490855
  Force two-norm initial, final = 24.731 24.4602
  Force max component initial, final = 7.68664 6.86643
  Final line search alpha, max atom move = 1.98511e-07 1.36306e-06
  Iterations, force evaluations = 1 19

MPI task timing breakdown:
Section |  min time  |  avg time  |  max time  |%varavg| %total
---------------------------------------------------------------
Pair    | 0.039408   | 0.039797   | 0.040023   |   0.1 | 82.46
Neigh   | 0          | 0          | 0          |   0.0 |  0.00
Comm    | 0.0004973  | 0.00072653 | 0.0011222  |   0.0 |  1.51
Output  | 0          | 0          | 0          |   0.0 |  0.00
Modify  | 0.007565   | 0.0075703  | 0.0075762  |   0.0 | 15.69
Other   |            | 0.0001696  |            |       |  0.35

Nlocal:    6.25 ave 8 max 6 min
Histogram: 7 0 0 0 0 0 0 0 0 1
Nghost:    597.375 ave 609 max 588 min
Histogram: 2 0 0 3 0 1 0 0 0 2
Neighs:    806.875 ave 1008 max 768 min
Histogram: 6 1 0 0 0 0 0 0 0 1

Total # of neighbors = 6455
Ave neighs/atom = 129.1
Neighbor list builds = 0
Dangerous builds = 0

###
fix 1 all box/relax aniso 0.0
min_style cg
minimize 1.0e-8 1.0e-8 100000 100000
WARNING: Using 'neigh_modify every 1 delay 0 check yes' setting during minimization (../min.cpp:190)
WARNING: Total cutoff < 2*bond cutoff. May need to use an increased neighbor list skin. (../pair_reaxc.cpp:413)
Per MPI rank memory allocation (min/avg/max) = 18.9 | 19.07 | 19.33 Mbytes
Step Temp E_pair E_mol TotEng Press Volume 
    1029            0   -8836.3149            0   -8836.3149   -283.99221    1350.0875 
    1030            0    -8836.315            0    -8836.315   -204.03166    1350.0836 
Loop time of 0.0254635 on 8 procs for 1 steps with 50 atoms

99.4% CPU use with 8 MPI tasks x no OpenMP threads

Minimization stats:
  Stopping criterion = energy tolerance
  Energy initial, next-to-last, final = 
        -8836.31490854     -8836.31490854     -8836.31495835
  Force two-norm initial, final = 26.3199 26.6016
  Force max component initial, final = 6.86643 8.56732
  Final line search alpha, max atom move = 1.25187e-07 1.07252e-06
  Iterations, force evaluations = 1 10

MPI task timing breakdown:
Section |  min time  |  avg time  |  max time  |%varavg| %total
---------------------------------------------------------------
Pair    | 0.0217     | 0.021923   | 0.022037   |   0.1 | 86.10
Neigh   | 0          | 0          | 0          |   0.0 |  0.00
Comm    | 0.00020999 | 0.00032276 | 0.00054651 |   0.0 |  1.27
Output  | 0          | 0          | 0          |   0.0 |  0.00
Modify  | 0.0030085  | 0.0030116  | 0.0030142  |   0.0 | 11.83
Other   |            | 0.0002057  |            |       |  0.81

Nlocal:    6.25 ave 8 max 6 min
Histogram: 7 0 0 0 0 0 0 0 0 1
Nghost:    597.375 ave 609 max 588 min
Histogram: 2 0 0 3 0 1 0 0 0 2
Neighs:    806.875 ave 1008 max 768 min
Histogram: 6 1 0 0 0 0 0 0 0 1

Total # of neighbors = 6455
Ave neighs/atom = 129.1
Neighbor list builds = 0
Dangerous builds = 0

unfix 1
###
min_style cg
minimize 1.0e-8 1.0e-8 100000 100000
WARNING: Using 'neigh_modify every 1 delay 0 check yes' setting during minimization (../min.cpp:190)
WARNING: Total cutoff < 2*bond cutoff. May need to use an increased neighbor list skin. (../pair_reaxc.cpp:413)
Per MPI rank memory allocation (min/avg/max) = 18.9 | 19.07 | 19.33 Mbytes
Step Temp E_pair E_mol TotEng Press 
    1030            0    -8836.315            0    -8836.315   -204.03166 
    1031            0    -8836.315            0    -8836.315   -203.36167 
Loop time of 0.0508525 on 8 procs for 1 steps with 50 atoms

99.4% CPU use with 8 MPI tasks x no OpenMP threads

Minimization stats:
  Stopping criterion = energy tolerance
  Energy initial, next-to-last, final = 
        -8836.31495835     -8836.31495835     -8836.31498473
  Force two-norm initial, final = 25.662 22.4207
  Force max component initial, final = 8.56732 6.36714
  Final line search alpha, max atom move = 8.90523e-08 5.67009e-07
  Iterations, force evaluations = 1 20

MPI task timing breakdown:
Section |  min time  |  avg time  |  max time  |%varavg| %total
---------------------------------------------------------------
Pair    | 0.041349   | 0.041779   | 0.042067   |   0.1 | 82.16
Neigh   | 0          | 0          | 0          |   0.0 |  0.00
Comm    | 0.00040089 | 0.00069699 | 0.0011349  |   0.0 |  1.37
Output  | 0          | 0          | 0          |   0.0 |  0.00
Modify  | 0.0081945  | 0.0081998  | 0.0082087  |   0.0 | 16.12
Other   |            | 0.0001769  |            |       |  0.35

Nlocal:    6.25 ave 8 max 6 min
Histogram: 7 0 0 0 0 0 0 0 0 1
Nghost:    597.375 ave 609 max 588 min
Histogram: 2 0 0 3 0 1 0 0 0 2
Neighs:    806.875 ave 1008 max 768 min
Histogram: 6 1 0 0 0 0 0 0 0 1

Total # of neighbors = 6455
Ave neighs/atom = 129.1
Neighbor list builds = 0
Dangerous builds = 0

undump 1
#############
#----------- Thermo ------------
reset_timestep 0
thermo  200

thermo_style    custom step temp etotal ke pe press
velocity all create 300 12345 mom yes rot yes
fix 1 all npt temp 300 300 25.0 iso 0.0 0.0 250.0

variable vpe equal pe
variable vtemp equal temp
variable vstep equal step

fix output all print 2500 "${vstep} ${vtemp} ${vpe}" file temp-tpdh-Pt.dat screen no

dump 1 all custom 2500 thermo-tpdh-Pt.lammpstrj id type x y z

run 1000000
WARNING: Total cutoff < 2*bond cutoff. May need to use an increased neighbor list skin. (../pair_reaxc.cpp:413)
Per MPI rank memory allocation (min/avg/max) = 17.77 | 17.95 | 18.2 Mbytes
Step Temp TotEng KinEng PotEng Press 
       0          300   -8792.4971    43.817908    -8836.315    1280.2622 
     200    301.79686   -8776.0024    44.080356   -8820.0828   -2808.3738 
     400    294.25381   -8786.1998    42.978622   -8829.1785    46266.118 
     600    290.56214   -8795.0201    42.439417   -8837.4596   -18967.902 
     800    336.64394   -8781.9692     49.17011   -8831.1393   -24485.628 
    1000    297.93215   -8793.0283    43.515879   -8836.5441   -22406.157 
    1200    300.32657   -8785.6288    43.865607   -8829.4944    12572.474 
    1400    263.03056   -8804.4473    38.418163   -8842.8655    21547.679 
    1600    305.91072   -8791.9074    44.681226   -8836.5887     9743.638 
    1800    312.73689   -8786.8895    45.678254   -8832.5677     14053.83 
    2000    301.68997   -8797.6593    44.064744    -8841.724    3974.3861 
    2200    328.20591   -8784.8165    47.937654   -8832.7542   -26356.947 
    2400    220.62981   -8792.0342    32.225123   -8824.2593   -13967.235 
    2600    261.48382    -8800.896    38.192247   -8839.0883    1268.6419 
    2800    294.15237   -8784.1609    42.963805   -8827.1248    23897.482 
    3000    346.62307   -8776.7415    50.627659   -8827.3692   -10136.058 
    3200    296.23007   -8795.7614    43.267272   -8839.0287   -13658.159 
    3400    269.98481   -8785.3897    39.433899   -8824.8236   -15079.018 
    3600    270.82783   -8786.8952     39.55703   -8826.4523    16721.553 
    3800    242.78623   -8790.4935    35.461282   -8825.9548    -26627.34 
    4000    293.34903   -8787.6123    42.846469   -8830.4588      23059.5 
    4200    277.67652   -8796.1795    40.557348   -8836.7368   -6158.0734 
    4400    283.01831    -8797.204    41.337567   -8838.5416   -27523.299 
    4600    310.74865   -8784.2763    45.387853   -8829.6641    7338.1546 
    4800    281.92728    -8792.093    41.178212   -8833.2712    22940.427 
    5000    270.37261    -8796.943     39.49054   -8836.4335    12549.138 
    5200    309.85924    -8780.576    45.257946    -8825.834   -17433.027 
    5400    306.08168   -8791.0518    44.706196    -8835.758   -20723.536 
    5600     267.1997   -8797.4087    39.027107   -8836.4358    25988.687 
    5800    332.74733   -8785.8021    48.600973   -8834.4031   -17237.846 
    6000     313.4259   -8783.7353     45.77889   -8829.5142    10298.489 
    6200    293.46714   -8797.1159    42.863721   -8839.9796    26265.413 
    6400     350.1077   -8782.9916    51.136623   -8834.1282    28998.983 
    6600    273.10834   -8788.4745     39.89012   -8828.3646   -31643.247 
    6800    291.22328   -8794.7222    42.535982   -8837.2581   -15035.293 
    7000     327.1858    -8780.501    47.788657   -8828.2897    4512.7679 
    7200    340.19174   -8775.6198    49.688301   -8825.3081   -23388.378 
    7400    287.86807   -8793.5479    42.045922   -8835.5938    9741.2568 
    7600    321.19659   -8778.7004    46.913875   -8825.6143   -25171.799 
    7800    282.90178   -8787.8678    41.320548   -8829.1883    12447.975 
    8000    279.65497   -8788.6012    40.846319   -8829.4475    -21637.43 
    8200    313.37829   -8785.7809    45.771937   -8831.5528    16050.304 
    8400    239.86391   -8790.0486    35.034449    -8825.083    470.21237 
    8600     348.7735   -8776.3138    50.941751   -8827.2555   -20497.926 
    8800    310.97603   -8783.4664    45.421064   -8828.8874   -14804.145 
    9000    309.44923   -8787.6562     45.19806   -8832.8542   -25049.512 
    9200    299.67793   -8789.4881    43.770866    -8833.259    -13878.43 
    9400    328.79141   -8779.4104    48.023172   -8827.4336    10674.985 
    9600    304.70004   -8788.7225    44.504394   -8833.2269    2907.3948 
    9800    246.34321   -8793.5653    35.980814   -8829.5461    23996.378 
   10000    328.50953   -8786.4619    47.982001   -8834.4439    23198.956 
   10200    252.72972    -8785.623    36.913625   -8822.5367    60193.957 
   10400    341.04254   -8767.7969    49.812569   -8817.6095    24290.729 
   10600    298.52618   -8786.0486    43.602641   -8829.6512   -16235.108 
   10800    291.40396    -8788.848    42.562373   -8831.4103   -13634.106 
   11000    283.71766   -8798.5716    41.439715   -8840.0113   -28959.189 
   11200    319.26981    -8784.396     46.63245   -8831.0284    7929.6117 
   11400    238.19053   -8784.9908    34.790035   -8819.7808    40601.206 
   11600     233.8604   -8802.6887    34.157578   -8836.8463    3561.5093 
   11800    264.56858   -8794.2485    38.642805   -8832.8913   -10504.595 
   12000    288.21368   -8784.8966    42.096401    -8826.993   -11823.607 
   12200    293.45486    -8782.428    42.861926     -8825.29   -8655.5721 
   12400     274.0371   -8796.4774    40.025775   -8836.5032   -5029.6952 
   12600    329.44388    -8781.279    48.118471   -8829.3974   -9837.3509 
   12800     307.8446   -8787.5119    44.963687   -8832.4756    43460.551 
   13000    235.05387   -8799.7207    34.331895   -8834.0526    7195.0835 
   13200    255.30624   -8789.4265     37.28995   -8826.7164   -44969.155 
   13400    318.16776   -8783.0257    46.471486   -8829.4972   -15107.285 
   13600    272.46532   -8801.5258      39.7962    -8841.322   -42949.833 
   13800    253.98068   -8789.9478     37.09634   -8827.0442    2804.9867 
   14000    344.85928   -8783.4941    50.370041   -8833.8641   -11726.567 
   14200    277.80271   -8797.7895    40.575779   -8838.3652    29620.356 
   14400    311.07854   -8788.7928    45.436036   -8834.2289     30688.51 
   14600     341.8307   -8784.8165    49.927688   -8834.7442    3563.4998 
   14800    284.29466   -8793.5923     41.52399   -8835.1163   -21326.114 
   15000    216.28985   -8796.7151    31.591229   -8828.3063     11736.23 
   15200    299.28048   -8780.5461    43.712815   -8824.2589    19524.238 
   15400    297.71076   -8791.5242    43.483543   -8835.0077   -27165.192 
   15600    249.76407   -8798.3774    36.480463   -8834.8579   -17286.674 
   15800    300.55344     -8786.54    43.898742   -8830.4388    619.29205 
   16000    290.10386   -8785.8597     42.37248   -8828.2322   -24274.978 
   16200    282.40901   -8780.1775    41.248573   -8821.4261    25759.984 
   16400    262.57868    -8795.611    38.352161   -8833.9632   -32405.517 
   16600    328.46281   -8782.6055    47.975177   -8830.5807   -32924.439 
   16800    305.91317   -8785.4087    44.681584   -8830.0903   -3288.8722 
   17000     277.5524     -8793.06    40.539218   -8833.5992   -22174.597 
   17200     317.1842   -8784.0608    46.327827   -8830.3886     38506.51 
   17400    314.42087   -8783.8512    45.924215   -8829.7754     12810.34 
   17600    255.22122   -8799.2972    37.277533   -8836.5747    5829.1463 
   17800    290.40739   -8790.5177    42.416814   -8832.9345   -12682.966 
   18000    278.39116   -8784.2599    40.661727   -8824.9217   -33349.866 
   18200    281.78304    -8799.523    41.157143   -8840.6802    -28636.15 
   18400    280.64992   -8794.6254    40.991641    -8835.617    18498.695 
   18600     258.7284   -8786.4571     37.78979   -8824.2468    10757.953 
   18800    315.45712   -8787.0821     46.07557   -8833.1576   -22023.604 
   19000    286.85808   -8790.1522    41.898404   -8832.0506   -25948.737 
   19200    283.33244   -8779.4646    41.383449    -8820.848   -17918.976 
   19400    328.50094   -8786.2629    47.980746   -8834.2437    27148.358 
   19600    273.24798   -8798.6383    39.910515   -8838.5488    6327.9415 
   19800    287.31066    -8785.575    41.964507   -8827.5395   -21412.328 
   20000     311.4988    -8792.719    45.497419   -8838.2165    -11356.35 
   20200    326.33035   -8787.2428    47.663711   -8834.9065    1255.2578 
   20400    301.18867   -8781.1723    43.991525   -8825.1638    14390.925 
   20600    302.25891   -8790.8029    44.147844   -8834.9508   -9967.2033 
   20800    304.97808   -8793.0005    44.545005   -8837.5455    21250.816 
   21000    299.17308   -8787.7235    43.697129   -8831.4207   -2177.4194 
   21200    350.89488   -8783.0738    51.251598   -8834.3254    30901.893 
   21400     279.5111    -8798.721    40.825305   -8839.5463     14957.83 
   21600    285.92367   -8788.5406    41.761924   -8830.3025   -19211.232 
   21800    272.16055   -8788.8668    39.751686   -8828.6185    29052.087 
   22000    307.26252   -8783.8035     44.87867   -8828.6822   -23789.119 
   22200    310.94418    -8782.372    45.416411   -8827.7884    31503.521 
   22400    302.37994   -8787.6847    44.165521   -8831.8503   -2278.0682 
   22600    285.97178   -8795.7932    41.768951   -8837.5622    44252.714 
   22800    288.85968   -8799.2785    42.190755   -8841.4693    -31772.94 
   23000    332.14992   -8780.7929    48.513715   -8829.3066   -4363.3729 
   23200    321.96393    -8788.664    47.025952   -8835.6899    8031.3214 
   23400    197.96003   -8811.0815    28.913981   -8839.9955    7199.8917 
   23600    249.61439   -8802.3694    36.458601    -8838.828    22671.381 
   23800    265.34116   -8785.7068    38.755648   -8824.4625   -20930.028 
   24000     319.2561   -8783.7021    46.630448   -8830.3325   -34866.021 
   24200    266.57342   -8793.6444    38.935631     -8832.58   -26931.929 
   24400    300.08262   -8786.5292    43.829976   -8830.3592   -36703.924 
   24600    322.54907   -8785.4815    47.111418   -8832.5929   -6042.9557 
   24800    278.85938   -8793.9993    40.730115   -8834.7294   -28622.262 
   25000    315.11942   -8781.2335    46.026246   -8827.2598    33249.713 
   25200     268.5431   -8787.5571    39.223323   -8826.7804   -25711.499 
   25400    303.29224   -8793.5395    44.298772   -8837.8383   -12855.481 
   25600    346.78674   -8783.7758    50.651565   -8834.4273     5779.478 
   25800    288.31647   -8780.6644    42.111415   -8822.7758    -25843.91 
   26000    273.15922   -8797.5568    39.897552   -8837.4544   -2206.8539 
   26200    315.73427   -8786.0996    46.116051   -8832.2156   -40242.872 
   26400    255.30463   -8797.3457    37.289716   -8834.6354    7129.6007 
   26600    307.43583   -8798.6723    44.903983   -8843.5762   -6275.7373 
   26800    340.60317   -8783.7304    49.748394   -8833.4788    25950.943 
   27000    324.15652   -8791.3765    47.346202   -8838.7227    25266.144 
   27200    224.18539   -8802.7139    32.744449   -8835.4584    3641.5831 
   27400    289.44577   -8784.7942     42.27636   -8827.0706   -46599.653 
   27600    246.35644   -8789.9426    35.982745   -8825.9254    2764.2008 
   27800    245.11205    -8794.931     35.80099    -8830.732   -10970.866 
   28000    340.23972   -8782.8901    49.695309   -8832.5855    17910.738 
   28200    301.83541   -8792.8123    44.085987   -8836.8983   -5357.2563 
   28400    318.92022   -8794.2816    46.581389    -8840.863   -15523.199 
   28600    300.84801   -8777.2729    43.941768   -8821.2147     9748.756 
   28800    278.79545   -8790.4491    40.720778   -8831.1698   -32792.779 
   29000    318.72379   -8786.8506    46.552699   -8833.4033    17723.454 
   29200    268.09077   -8798.8659    39.157255   -8838.0231    2998.6898 
   29400    282.21875   -8798.9808    41.220784   -8840.2015    11141.126 
   29600     285.0669     -8788.67    41.636784   -8830.3068    1529.9776 
   29800    317.08895   -8780.7315    46.313914   -8827.0454    290.84219 
   30000    299.95242   -8790.7478    43.810958   -8834.5588   -30680.386 
   30200    278.81329    -8788.465    40.723383   -8829.1884    -12102.57 
   30400    336.63181   -8775.2323    49.168338   -8824.4007    -23356.36 
   30600    290.03766   -8792.9897    42.362811   -8835.3525    17363.751 
   30800     289.7323   -8787.3835     42.31821   -8829.7017   -7063.7163 
   31000    363.32979   -8773.6267    53.067837   -8826.6945    20522.733 
   31200    228.05273   -8789.3408    33.309312   -8822.6501   -7886.3553 
   31400    309.66752   -8792.3293    45.229942   -8837.5592    9943.6014 
   31600    323.64047   -8780.8011    47.270827   -8828.0719    27310.704 
   31800    264.06251   -8786.3611    38.568888   -8824.9299   -4072.9153 
   32000    268.49529   -8794.0451     39.21634   -8833.2614   -32214.662 
   32200    292.16354   -8790.2401    42.673317   -8832.9134   -30886.955 
   32400    311.07052   -8776.1838    45.434865   -8821.6187   -5477.4471 
   32600    323.32158   -8781.5099    47.224251   -8828.7342    1708.2066 
   32800    290.27358   -8792.6057     42.39727    -8835.003    2691.4668 
   33000    308.75362   -8788.8044    45.096459   -8833.9009    2406.8933 
   33200    301.90729   -8781.1359    44.096486   -8825.2323    3597.8731 
   33400    286.34072   -8795.4712    41.822837    -8837.294    -1304.918 
   33600    307.74689   -8791.2725    44.949416   -8836.2219   -23770.436 
   33800    333.66777   -8784.7399    48.735412   -8833.4753    6159.6542 
   34000    272.66666   -8793.3081    39.825609   -8833.1337    32520.044 
   34200    293.39296   -8790.2799    42.852885   -8833.1328    -28441.73 
   34400    337.15609   -8785.2962    49.244915   -8834.5411   -20211.255 
   34600    299.39302   -8785.0328    43.729252   -8828.7621   -19476.779 
   34800    309.10292   -8791.2286    45.147477    -8836.376    8999.1771 
   35000    285.99438   -8775.1117    41.772251    -8816.884    11452.483 
   35200     313.2608   -8777.7251    45.754775   -8823.4799    14778.665 
   35400    273.07793   -8791.3807    39.885679   -8831.2664   -1114.5154 
   35600    340.57761    -8783.261    49.744661   -8833.0056    -10297.42 
   35800    309.31927   -8791.8309    45.179077   -8837.0099   -24255.665 
   36000    320.75741   -8788.3867    46.849729   -8835.2365    7521.3257 
   36200    290.33701   -8779.2559    42.406534   -8821.6624   -3129.6961 
   36400    323.69502   -8788.2348    47.278795   -8835.5136    13035.808 
   36600    259.97567   -8787.7165    37.971966   -8825.6885    7222.9408 
   36800    246.87652   -8801.0724    36.058709   -8837.1311   -10607.609 
   37000    272.88122   -8798.9167    39.856947   -8838.7737    24138.125 
   37200    288.10247   -8789.6593    42.080158   -8831.7394   -30503.435 
   37400    309.58976   -8775.6941    45.218585   -8820.9127   -12722.585 
   37600    309.37786   -8787.1354    45.187635   -8832.3231   -2870.7576 
   37800    285.82703   -8790.0388    41.747808   -8831.7866   -17689.917 
   38000    279.33177   -8792.7454    40.799113   -8833.5445    21884.703 
   38200      307.061   -8787.7925    44.849235   -8832.6417   -32570.807 
   38400    273.14183   -8782.6964    39.895011   -8822.5914   -17583.857 
   38600    238.16177   -8800.9158    34.785835   -8835.7016   -11143.958 
   38800    310.80731   -8786.5261     45.39642   -8831.9225   -26516.879 
   39000    296.82136   -8788.6574    43.353637   -8832.0111     2483.351 
   39200    284.23579   -8791.0069    41.515393   -8832.5223    12342.056 
   39400    345.79702   -8780.1416    50.507007   -8830.6486    2748.4618 
   39600    293.88588   -8794.3662    42.924881   -8837.2911   -22857.128 
   39800     295.3325   -8779.3772    43.136174   -8822.5134    9452.7962 
   40000    306.62958   -8780.0222    44.786223   -8824.8084   -2373.1187 
   40200    288.95881   -8792.1377    42.205235   -8834.3429    7428.0793 
   40400    268.81362   -8783.7404    39.262835   -8823.0032    8745.9416 
   40600    320.41259   -8785.2765    46.799364   -8832.0759    39828.105 
   40800    302.26368   -8794.6676     44.14854   -8838.8162    14705.845 
   41000    244.62951   -8794.9826    35.730511   -8830.7131   -25604.533 
   41200     331.7875   -8776.7742    48.460779   -8825.2349   -11271.561 
   41400    254.04342   -8784.5921    37.105504   -8821.6976    40169.184 
   41600     269.7006   -8799.0722    39.392387   -8838.4646   -26167.166 
   41800    270.95612   -8784.8823    39.575768   -8824.4581   -1960.6115 
   42000    257.59888   -8784.0765    37.624814   -8821.7013   -7251.3318 
   42200    245.30032   -8795.9339    35.828489   -8831.7624   -1965.2994 
   42400    276.69845   -8790.6399    40.414491   -8831.0544    -7549.971 
   42600    297.94853   -8777.4631     43.51827   -8820.9814   -19128.099 
   42800     294.0614   -8791.5441    42.950517   -8834.4946   -23833.138 
   43000    295.39198   -8786.8907    43.144862   -8830.0355   -34524.953 
   43200    293.80578   -8777.7576    42.913181   -8820.6708   -15335.462 
   43400    266.20057   -8792.8242    38.881174   -8831.7054    6284.1136 
   43600     309.6366   -8796.1237    45.225427   -8841.3491    6500.8552 
   43800    321.56162   -8782.2052    46.967191   -8829.1724    20248.016 
   44000    214.12161   -8793.5083    31.274536   -8824.7829    18635.191 
   44200    312.36729    -8778.704     45.62427   -8824.3283   -29405.861 
   44400    309.91412   -8780.1789    45.265962   -8825.4449   -19796.343 
   44600    280.33191   -8794.4095    40.945192   -8835.3547   -17248.026 
   44800    309.33722   -8789.0962      45.1817   -8834.2779   -19657.963 
   45000    321.43455   -8781.8464    46.948632    -8828.795     14108.66 
   45200    307.72071   -8797.8791    44.945592   -8842.8247   -23488.056 
   45400    295.10024    -8783.688    43.102251   -8826.7903   -12966.841 
   45600    323.56751   -8781.9281    47.260172   -8829.1882    -45206.26 
   45800    218.33052   -8797.6946    31.889288   -8829.5839    16894.332 
   46000    237.21104   -8798.0814    34.646972   -8832.7284   -7490.0561 
   46200    331.82752   -8788.3047    48.466625   -8836.7713   -15188.788 
   46400    339.08841   -8778.5557    49.527149   -8828.0828   -11565.131 
   46600     269.0222   -8796.3246      39.2933   -8835.6179    1264.5045 
   46800    309.42054   -8779.2516    45.193869   -8824.4455    36872.652 
   47000    332.30648   -8778.9741    48.536582   -8827.5107    30712.031 
   47200    279.73155   -8794.6875    40.857504    -8835.545   -9831.7779 
   47400    336.64551   -8783.6817     49.17034    -8832.852   -2792.5369 
   47600    339.48437   -8788.5723    49.584983   -8838.1572   -27700.113 
   47800    263.63242   -8797.8107     38.50607   -8836.3168    15632.226 
   48000    317.95222   -8783.2894    46.440003   -8829.7294   -13855.637 
   48200     355.9542   -8779.4099     51.99056   -8831.4005    11211.176 
   48400    297.90323   -8791.5908    43.511654   -8835.1025    31071.673 
   48600    359.40497    -8784.062     52.49458   -8836.5566   -32927.984 
   48800    361.70813   -8777.9861    52.830978   -8830.8171    3186.6403 
   49000    256.83188    -8789.131    37.512786   -8826.6438    20910.834 
   49200    347.07637   -8783.1137    50.693867   -8833.8075    12550.718 
   49400    278.44705   -8790.1245    40.669891   -8830.7944    2070.8833 
   49600    300.64337     -8784.86    43.911878   -8828.7719    17002.356 
   49800    269.30463   -8797.5082    39.334551   -8836.8428   -29728.489 
   50000    221.29547    -8799.445    32.322348   -8831.7674   -10372.746 
   50200    299.93902   -8785.4235       43.809   -8829.2325   -17503.966 
   50400    287.99672   -8787.6577    42.064713   -8829.7224   -14611.167 
   50600    331.26533    -8793.988    48.384512   -8842.3726    5735.8627 
   50800    284.72896   -8788.0082    41.587424   -8829.5956  -0.44385141 
   51000    341.54248   -8773.8795    49.885589   -8823.7651    23309.552 
   51200    277.20563   -8787.6064    40.488569    -8828.095    18954.822 
   51400    290.20196   -8789.1906    42.386809   -8831.5774   -17522.166 
   51600    313.92959   -8774.3181    45.852459   -8820.1705    15444.821 
   51800     285.4651   -8789.2176    41.694945   -8830.9126   -7575.0369 
   52000    297.61831   -8795.7606    43.470038   -8839.2306    2976.4891 
   52200    373.30812   -8776.9836    54.525269   -8831.5089    12819.875 
   52400    335.35718   -8780.3307    48.982166   -8829.3128    1800.7745 
   52600     285.5844   -8790.0771     41.71237   -8831.7895   -7127.1093 
   52800    302.96638   -8785.9662    44.251176   -8830.2174   -8206.1325 
   53000    303.92371   -8774.4853    44.391004   -8818.8763   -1362.0561 
   53200    305.56266   -8785.5291    44.630387   -8830.1594   -46685.413 
   53400    294.49357   -8797.0144    43.013641    -8840.028    30458.451 
   53600    288.74276   -8781.9462    42.173679   -8824.1199    8886.9433 
   53800    281.13468   -8786.3679    41.062445   -8827.4303    15899.537 
   54000    268.42373   -8793.8216    39.205887   -8833.0275   -6150.9725 
   54200    315.60969   -8778.3728    46.097854   -8824.4707   -31506.986 
   54400     292.7959   -8787.8883    42.765679   -8830.6539    18785.925 
   54600    246.67418   -8793.6942    36.029155   -8829.7234     5877.057 
   54800    340.88416   -8775.5142    49.789436   -8825.3037    4485.5643 
   55000    232.43424   -8788.4377    33.949273    -8822.387   -27470.844 
   55200    313.05287   -8787.4731    45.724406   -8833.1975    3384.0677 
   55400    258.49733   -8800.3067     37.75604   -8838.0627    4868.0105 
   55600    235.89487   -8800.1986    34.454732   -8834.6534    15981.856 
   55800    302.01668   -8786.6407    44.112463   -8830.7532   -4583.1304 
   56000    304.81182   -8783.5145    44.520721   -8828.0352   -9010.9546 
   56200    357.88773   -8786.7707    52.272972   -8839.0437   -17887.596 
   56400    277.20958   -8794.5513    40.489146   -8835.0405    22377.715 
   56600    331.59702   -8777.4111    48.432959   -8825.8441    21110.589 
   56800    311.42609    -8784.382    45.486798   -8829.8688    28326.152 
   57000     250.7581   -8805.5729     36.62565   -8842.1986     1988.184 
   57200     289.3823   -8795.0933     42.26709   -8837.3604    141.25574 
   57400     376.5099   -8780.2985     54.99292   -8835.2914   -5703.9339 
   57600    297.21647   -8793.6952    43.411346   -8837.1065     21235.91 
   57800    317.06226   -8791.1085    46.310016   -8837.4185    -9126.153 
   58000    317.56783   -8781.7241    46.383859   -8828.1079   -21264.882 
   58200     379.7684   -8779.6179    55.468856   -8835.0868      21824.8 
   58400     310.4852   -8792.6325    45.349372   -8837.9818    6095.2773 
   58600    324.13482   -8784.1162    47.343033   -8831.4592   -15311.878 
   58800    339.47499   -8783.4732    49.583613   -8833.0569   -2109.6552 
   59000    253.68397   -8796.5809    37.053003   -8833.6339    3314.7001 
   59200    306.69096   -8783.7127    44.795187   -8828.5079     30568.13 
   59400    284.98322   -8784.4937    41.624562   -8826.1183    12261.245 
   59600    280.71726   -8786.9459    41.001477   -8827.9474    8228.5126 
   59800    281.34048   -8800.3344    41.092504   -8841.4269   -20431.545 
   60000    297.65174   -8784.8141    43.474922    -8828.289   -22291.279 
   60200    314.47569    -8781.355    45.932223   -8827.2872   -3852.1579 
   60400    234.70808   -8799.0287     34.28139   -8833.3101    45683.889 
   60600    308.50359   -8787.7774    45.059939   -8832.8373    15035.325 
   60800    262.24622   -8786.2098    38.303603   -8824.5134    13295.567 
   61000    333.21651   -8788.2232      48.6695   -8836.8927    -33043.83 
   61200     276.7869   -8798.3314    40.427409   -8838.7588   -13812.491 
   61400     314.5974   -8780.7188    45.949999   -8826.6688    -5712.906 
   61600     286.3173   -8784.5297    41.819417   -8826.3491    33691.135 
   61800    257.90167   -8787.1811    37.669039   -8824.8501     23027.44 
   62000    315.10945   -8784.0292    46.024789    -8830.054    28131.117 
   62200    218.76297   -8795.2771    31.952453   -8827.2295    -25566.92 
   62400    291.36375   -8790.2966      42.5565   -8832.8531   -18173.233 
   62600    278.20106   -8785.7568    40.633961   -8826.3908   -6934.9992 
   62800    317.23412   -8781.5861    46.335118   -8827.9212     -2135.69 
   63000    266.40278   -8778.5917    38.910708   -8817.5024   -21720.856 
   63200    304.80117   -8789.0071    44.519165   -8833.5263    -14493.93 
   63400    321.65771   -8786.3701    46.981227   -8833.3514   -34240.277 
   63600    424.55039   -8767.4348      62.0097   -8829.4445     24169.37 
   63800    353.92093   -8785.8212    51.693582   -8837.5148    30432.483 
   64000    243.10481   -8796.4391    35.507814   -8831.9469    5081.3008 
   64200    254.78926    -8779.154     37.21444   -8816.3684   -28861.234 
   64400    260.73093   -8789.1207    38.082279    -8827.203   -6454.8407 
   64600    284.93367   -8788.0332    41.617324   -8829.6506   -17937.227 
   64800    322.60397    -8792.583    47.119436   -8839.7025    2053.6993 
   65000    303.19911   -8791.4026    44.285169   -8835.6878    14.248164 
   65200    334.45282   -8784.8536    48.850075   -8833.7037    23567.065 
   65400    292.13576   -8787.8923     42.66926   -8830.5616    33551.371 
   65600    265.30282   -8800.1641    38.750048   -8838.9141   -28812.762 
   65800    300.88555   -8791.9112     43.94725   -8835.8585    10850.012 
   66000    317.49272   -8776.5162    46.372889    -8822.889   -3596.7687 
   66200    327.74974   -8782.8977    47.871026   -8830.7688   -28205.826 
   66400    334.87298   -8787.2241    48.911444   -8836.1356   -5911.7894 
   66600     221.9449   -8805.3854    32.417204   -8837.8026   -12553.428 
   66800    308.99145   -8796.2008    45.131196    -8841.332    4091.8967 
   67000    253.48464   -8788.6033    37.023888   -8825.6271   -24567.453 
   67200    300.81474   -8782.6821    43.936909    -8826.619    29461.112 
   67400    318.62407   -8796.6688    46.538133   -8843.2069    12373.879 
   67600    305.55402   -8777.1615    44.629126   -8821.7906    23559.092 
   67800    338.61171   -8772.9415    49.457522    -8822.399   -1970.7084 
   68000     310.0514   -8793.2868    45.286013   -8838.5728   -6941.9685 
   68200    306.70418    -8786.968    44.797118   -8831.7651    25646.347 
   68400    328.83612   -8779.7992    48.029703   -8827.8289   -5404.4794 
   68600    287.41509   -8793.1079     41.97976   -8835.0877   -20252.348 
   68800    294.03903   -8793.6115     42.94725   -8836.5587    5035.4001 
   69000    360.27174   -8777.7208    52.621179    -8830.342    6747.4021 
   69200    232.45159   -8791.5315    33.951808   -8825.4833   -47601.714 
   69400    285.78267   -8804.4523    41.741329   -8846.1937   -19568.438 
   69600    261.21886   -8794.6694    38.153546    -8832.823   -8781.5405 
   69800    351.22675   -8785.2721    51.300072   -8836.5721    3442.4651 
   70000    326.36303   -8788.5511    47.668484   -8836.2196     34570.97 
   70200    277.10803   -8800.5374    40.474313   -8841.0117    5261.7788 
   70400    276.43645   -8784.8162    40.376223   -8825.1924    13664.376 
   70600    291.67614   -8791.3348    42.602127   -8833.9369    1339.6026 
   70800    229.82046   -8801.8008    33.567506   -8835.3683   -22913.118 
   71000    283.35132   -8794.8186    41.386206   -8836.2048    8447.2068 
   71200    343.37575   -8785.4331    50.153356   -8835.5864   -27569.683 
   71400    216.49818   -8798.6222    31.621658   -8830.2439   -13965.214 
   71600    288.91227   -8791.7964    42.198437   -8833.9948    17563.201 
   71800    328.01774    -8778.764    47.910171   -8826.6742   -44078.742 
   72000    267.39588    -8796.698     39.05576   -8835.7537     2296.865 
   72200    335.95982    -8788.512    49.070189   -8837.5822    7543.3467 
   72400    262.79716     -8786.35    38.384072   -8824.7341    2854.6215 
   72600    243.64211   -8802.3364    35.586292   -8837.9227   -21136.269 
   72800    299.48752   -8788.3112    43.743055   -8832.0543   -2552.1873 
   73000    267.08059   -8791.2869     39.00971   -8830.2966    4692.9541 
   73200    273.21363   -8798.8739    39.905499   -8838.7794   -3542.2246 
   73400    392.79468   -8782.9341    57.371469   -8840.3056     32755.69 
   73600    261.04003    -8795.803    38.127426   -8833.9304   -6928.4979 
   73800    384.90602   -8776.6052    56.219255   -8832.8244   -39424.935 
   74000    287.71996    -8789.904    42.024288   -8831.9283     8882.717 
   74200    245.59592   -8795.3295    35.871664   -8831.2012   -26590.573 
   74400    320.63276   -8776.5704    46.831523   -8823.4019   -4217.2655 
   74600    270.66313   -8789.6735    39.532973   -8829.2065    13836.848 
   74800    292.89012    -8792.446    42.779441   -8835.2255   -2620.6236 
   75000    323.20623   -8770.5959    47.207402   -8817.8033    14427.786 
   75200    319.69295   -8784.1906    46.694254   -8830.8849   -6888.6485 
   75400    284.69087   -8793.7702    41.581861    -8835.352    -15115.97 
   75600    357.15573   -8778.6779    52.166056   -8830.8439    1018.1455 
   75800    330.73627   -8788.2788    48.307238    -8836.586    639.90083 
   76000    299.33248   -8789.9056    43.720409    -8833.626    -2928.488 
   76200    374.18196    -8782.585    54.652903   -8837.2379    32637.178 
   76400    296.26528   -8783.5702    43.272416   -8826.8427   -35003.399 
   76600    273.71954   -8794.3307    39.979392     -8834.31   -22955.694 
   76800    298.70824   -8779.0858    43.629233    -8822.715    1118.8301 
   77000    297.17449   -8786.7242    43.405214   -8830.1294   -36627.477 
   77200    232.04856   -8800.3333    33.892942   -8834.2262   -9053.0894 
   77400    255.51754   -8798.4041    37.320813   -8835.7249   -33030.336 
   77600    240.50415   -8784.8437    35.127962   -8819.9717    34968.667 
   77800    318.78895   -8776.9327    46.562216   -8823.4949   -56583.603 
   78000    317.68077   -8784.4084    46.400356   -8830.8088     20280.76 
   78200    299.79195   -8791.0251     43.78752   -8834.8126   -3486.7185 
   78400    287.41062   -8775.7696    41.979107   -8817.7487   -29174.115 
   78600    290.84777   -8783.7948    42.481137   -8826.2759     30600.87 
   78800    306.90587   -8794.9444    44.826577    -8839.771    13457.963 
   79000    308.06148   -8780.0606    44.995364   -8825.0559   -26179.859 
   79200    313.26848   -8776.4262    45.755898   -8822.1821    17851.824 
   79400    280.15983   -8793.7536    40.920058   -8834.6737    919.78693 
   79600    332.91391   -8782.7232    48.625303   -8831.3485   -28783.817 
   79800     294.3352   -8783.4237    42.990508   -8826.4142   -16011.627 
   80000    281.83739   -8793.4389    41.165082    -8834.604   -10518.972 
   80200    339.83517   -8776.6627     49.63622    -8826.299   -16999.165 
   80400    275.49023   -8785.4127    40.238019   -8825.6508    22380.707 
   80600    269.07578   -8791.1215    39.301126   -8830.4226    31036.353 
   80800    313.61961   -8784.0285    45.807184   -8829.8357   -21908.557 
   81000    280.76767   -8769.9765    41.008839   -8810.9853   -4801.5347 
   81200    267.74618   -8794.1715    39.106925   -8833.2784   -15844.194 
   81400    361.54608   -8784.3785    52.807309   -8837.1858    20543.869 
   81600    277.50402   -8790.0678    40.532152   -8830.5999   -45199.434 
   81800    250.08048   -8798.8826    36.526678   -8835.4093   -20190.904 
   82000    286.61968   -8775.4584    41.863582    -8817.322   -14639.656 
   82200     298.1504   -8788.1638    43.547755   -8831.7116    11150.754 
   82400      285.077    -8795.963    41.638259   -8837.6012    35419.166 
   82600    304.48813   -8780.4212    44.473442   -8824.8947    6201.6914 
   82800    351.02226   -8778.6715    51.270203   -8829.9417    12952.491 
   83000    298.19282   -8791.4414    43.553952   -8834.9953    14283.874 
   83200    318.23131   -8779.7399    46.480767   -8826.2207   -32108.905 
   83400    274.56406    -8788.816    40.102743   -8828.9187   -13675.899 
   83600     250.2961   -8788.4355    36.558172   -8824.9936   -4134.3866 
   83800    332.98138   -8780.6704    48.635158   -8829.3055   -1235.8633 
   84000    284.95868   -8790.5488    41.620977   -8832.1698   -27694.077 
   84200    248.09934   -8790.5239    36.237313   -8826.7612    -6576.896 
   84400    341.22223   -8777.3945    49.838814   -8827.2334    7637.6542 
   84600    235.00058   -8793.2025    34.324112   -8827.5266   -29621.158 
   84800    319.38391   -8790.4876    46.649115   -8837.1367   -21759.775 
   85000    328.81677   -8768.6289    48.026876   -8816.6557   -12945.026 
   85200    369.93742   -8783.8186    54.032945   -8837.8515   -8127.3143 
   85400    291.99342   -8790.7546    42.648469   -8833.4031   -5773.4801 
   85600    350.45063   -8777.2437    51.186711   -8828.4304   -2003.0938 
   85800    304.00104   -8786.2128    44.402299   -8830.6151   -10928.771 
   86000    275.81608   -8790.9893    40.285612   -8831.2749    2745.3302 
   86200    365.17417   -8783.7398    53.337227    -8837.077    33299.827 
   86400    320.69815   -8782.3041    46.841073   -8829.1452    22702.832 
   86600    298.29289   -8793.6066    43.568567   -8837.1752   -1336.5022 
   86800    323.54371   -8778.8451    47.256695   -8826.1018    13923.883 
   87000     285.3485   -8789.4772    41.677913   -8831.1552    3933.1436 
   87200    300.87351   -8797.8176    43.945492   -8841.7631    3269.1675 
   87400     322.3385   -8780.7714    47.080663   -8827.8521    26799.794 
   87600     222.2973   -8793.6421    32.468675   -8826.1108     17766.36 
   87800    257.94443   -8793.2024    37.675285   -8830.8777   -25906.991 
   88000    276.22055   -8780.5258    40.344688   -8820.8705    25084.758 
   88200    311.58499    -8783.783    45.510007    -8829.293   -9274.9369 
   88400    270.04528    -8795.651     39.44273   -8835.0937   -6345.7783 
   88600    319.49684    -8784.475     46.66561   -8831.1406   -1972.3689 
   88800    291.30173   -8781.8127    42.547441   -8824.3601    9298.9553 
   89000     285.8221   -8791.3161    41.747088   -8833.0632   -9421.8517 
   89200    332.29934   -8786.4441     48.53554   -8834.9796    6992.1526 
   89400    334.31831   -8788.8182     48.83043   -8837.6486    3013.5528 
   89600    279.75654   -8789.2701    40.861155   -8830.1312    28199.776 
   89800    282.86509   -8788.5913    41.315188   -8829.9065    9516.7916 
   90000    312.48095   -8792.4345    45.640871   -8838.0754    9222.9969 
   90200    337.77353   -8780.0963    49.335098   -8829.4314    21590.649 
   90400    283.97429   -8796.7245    41.477198   -8838.2017    32695.487 
   90600    308.58001   -8793.2743    45.071102   -8838.3454    -13586.19 
   90800    272.81804   -8782.2264     39.84772   -8822.0742    11247.768 
   91000    288.42423   -8790.7942    42.127154   -8832.9213    15911.297 
   91200    290.74614   -8795.3719    42.466292   -8837.8382    18997.093 
   91400    288.81825   -8792.9541    42.184704   -8835.1388   -15293.195 
   91600    332.55567    -8781.922     48.57298   -8830.4949   -1125.1123 
   91800       271.86   -8793.3791    39.707788   -8833.0868   -2464.2974 
   92000    325.68339   -8791.0963    47.569216   -8838.6655    41431.836 
   92200     281.7023   -8787.7146    41.145351     -8828.86    30687.816 
   92400    309.05955   -8788.1141    45.141143   -8833.2552    29.691491 
   92600    249.22472   -8797.3668    36.401686   -8833.7684   -25657.036 
   92800      281.507    -8786.995    41.116826   -8828.1118    30378.823 
   93000    265.98831   -8781.5227    38.850171   -8820.3729     7085.046 
   93200    288.26806   -8790.4179    42.104343   -8832.5222    31309.993 
   93400    319.57545   -8790.3227    46.677092   -8836.9998   -31683.697 
   93600    310.40861   -8788.1671    45.338186   -8833.5052      47565.3 
   93800    322.45347   -8788.3664    47.097454   -8835.4638    22160.547 
   94000    375.25683   -8770.3595    54.809897   -8825.1694   -22128.927 
   94200    262.61175    -8786.421    38.356991   -8824.7779    18899.892 
   94400    271.20808   -8792.3723    39.612569   -8831.9848   -14249.276 
   94600    378.35427   -8775.4369    55.262308   -8830.6992   -7772.9446 
   94800    265.49367   -8788.4962    38.777924   -8827.2741   -5368.7114 
   95000    306.75238   -8788.3033    44.804158   -8833.1075    8951.2737 
   95200    255.07224   -8790.5927    37.255773   -8827.8484   -2941.2038 
   95400    296.16522   -8777.1683    43.257801   -8820.4261   -34674.687 
   95600    275.99223   -8791.5017     40.31134    -8831.813   -13592.856 
   95800    310.34963   -8792.1573    45.329571   -8837.4869   -19835.815 
   96000    337.11005   -8775.4699    49.238191   -8824.7081    25138.815 
   96200    323.01509   -8786.0065    47.179484    -8833.186    31386.498 
   96400    287.23923   -8793.7174    41.954074   -8835.6715    43.815096 
   96600    317.28785   -8780.6955    46.342966   -8827.0385    -16259.76 
   96800    291.18029   -8792.0336    42.529703   -8834.5633    31193.456 
   97000    262.15774   -8794.3939    38.290679   -8832.6846   -49332.525 
   97200    314.21944   -8781.2548    45.894795   -8827.1496    7891.5387 
   97400    279.92352   -8793.1677    40.885544   -8834.0533   -34849.811 
   97600    292.55761   -8789.8034    42.730875   -8832.5343   -12486.398 
   97800    286.84015     -8794.28    41.895784   -8836.1758    13620.798 
   98000    335.17083   -8777.7757    48.954948   -8826.7307   -12708.888 
   98200    266.84825   -8790.8454    38.975774   -8829.8212    7647.7562 
   98400    283.22436   -8797.9597    41.367662   -8839.3273   -6267.2575 
   98600    284.10624    -8785.775     41.49647   -8827.2715     -2313.97 
   98800     303.8369   -8785.3462    44.378323   -8829.7246   -13823.776 
   99000    224.00696    -8798.159    32.718388   -8830.8774    7154.7359 
   99200    282.23232   -8783.7402    41.222766   -8824.9629   -3609.1682 
   99400    275.06038   -8783.6971    40.175235   -8823.8723    3441.8007 
   99600    325.27464   -8788.5464    47.509514   -8836.0559    22022.609 
   99800    236.17997   -8799.7227    34.496373   -8834.2191   -34423.599 
  100000    334.10305   -8784.3537    48.798989   -8833.1527   -10666.175 
  100200    298.68052   -8794.8293    43.625185   -8838.4545    7070.0329 
  100400    224.10551   -8807.3349    32.732782   -8840.0677   -30135.556 
  100600    271.42107    -8791.409    39.643679   -8831.0526   -7855.1933 
  100800     343.8001   -8776.2848    50.215336   -8826.5001   -2717.2372 
  101000    339.79406   -8787.0978    49.630215    -8836.728   -8354.9942 
  101200    279.88615   -8791.8222    40.880085   -8832.7023   -25235.637 
  101400    348.68551   -8780.7946    50.928898   -8831.7235    26378.773 
  101600    258.61883   -8799.6378    37.773787   -8837.4116   -4789.0328 
  101800    282.53367   -8785.1581    41.266782   -8826.4249   -25532.207 
  102000    305.25816   -8780.7365    44.585913   -8825.3224    -5668.839 
  102200    246.80384   -8795.1183    36.048093   -8831.1664   -11438.364 
  102400    321.38222   -8785.1323    46.940988   -8832.0732     19082.59 
  102600    293.09136   -8789.2582    42.808834    -8832.067   -6898.0498 
  102800    269.13019    -8798.338    39.309073   -8837.6471   -21072.692 
  103000    379.77795   -8782.5806    55.470251   -8838.0509   -6777.7107 
  103200    296.69573   -8785.3252    43.335287   -8828.6604    2635.7454 
  103400    285.78045     -8786.06    41.741004    -8827.801    8208.6531 
  103600    313.34561   -8788.7507    45.767164   -8834.5179    19594.557 
  103800    231.10398   -8802.2445    33.754977   -8835.9995    21599.718 
  104000    294.10713   -8788.1425    42.957197   -8831.0997   -24894.518 
  104200    323.04697   -8787.2636    47.184141   -8834.4477   -24821.508 
  104400    226.12788   -8804.4937    33.028168   -8837.5219    29851.932 
  104600    296.78047    -8786.988    43.347665   -8830.3356   -2006.3175 
  104800    338.54125   -8780.6815    49.447231   -8830.1287   -15816.158 
  105000    273.74124   -8797.6517    39.982561   -8837.6342   -5665.4243 
  105200    286.59851   -8792.7271     41.86049   -8834.5876    30755.866 
  105400    270.09282   -8785.8139    39.449674   -8825.2636    763.43887 
  105600    327.72397   -8770.8499    47.867262   -8818.7171    51410.642 
  105800     287.3478   -8787.0455    41.969932   -8829.0154    13100.206 
  106000     245.8478   -8788.2035    35.908454    -8824.112   -3364.2234 
  106200     330.9555   -8776.1078    48.339259    -8824.447    23191.482 
  106400    302.60651   -8791.8334    44.198613    -8836.032    18988.901 
  106600    320.50532   -8791.8236    46.812909   -8838.6365    2823.4074 
  106800    377.34575    -8776.946    55.115004    -8832.061    -49164.73 
  107000     270.4752    -8786.511    39.505524   -8826.0165    10662.182 
  107200    297.28995    -8787.816    43.422079   -8831.2381    8967.4758 
  107400    312.31754   -8787.4677    45.617004   -8833.0847   -33118.759 
  107600    311.82989   -8788.0497    45.545778   -8833.5954   -8889.9304 
  107800    255.31667   -8802.4845    37.291474    -8839.776    9423.6343 
  108000     291.0115   -8789.4298     42.50505   -8831.9348    7327.7037 
  108200    291.43509   -8783.3789    42.566919   -8825.9458    930.88995 
  108400    339.63198   -8783.1447    49.606542   -8832.7512   -13623.831 
  108600    305.90113   -8785.3995    44.679824   -8830.0794   -2018.9034 
  108800    293.49433   -8784.9859    42.867692   -8827.8536    -31602.79 
  109000    251.49212   -8801.8218    36.732861   -8838.5546   -6061.0581 
  109200    323.26755   -8786.6225    47.216359   -8833.8389   -3164.9878 
  109400    253.09211   -8792.0864    36.966556   -8829.0529    -10854.68 
  109600    252.74165   -8793.0694    36.915368   -8829.9848    22535.002 
  109800    326.61046   -8779.1383    47.704623   -8826.8429    -3345.603 
  110000    305.69779   -8781.2161    44.650125   -8825.8662    16348.193 
  110200    244.43488   -8798.0196    35.702083   -8833.7217   -20188.604 
  110400    308.53406   -8785.9513    45.064389   -8831.0157   -10393.078 
  110600    266.65733   -8784.4939    38.947887   -8823.4418   -26047.173 
  110800     262.4807   -8793.2001    38.337851   -8831.5379   -21517.195 
  111000    324.11912   -8776.3665    47.340738   -8823.7072    2878.5763 
  111200    315.36151   -8776.5051    46.061605   -8822.5667   -20036.612 
  111400    257.75985   -8794.5141    37.648324   -8832.1624    -12722.11 
  111600    358.81118   -8782.9168    52.407851   -8835.3247     22741.67 
  111800    287.37666    -8797.104    41.974146   -8839.0782   -12318.961 
  112000     315.8941   -8792.4364    46.139396   -8838.5758   -3023.7872 
  112200    300.59025   -8777.0875     43.90412   -8820.9916    21369.186 
  112400    319.95688   -8776.5294    46.732803   -8823.2622    1480.1949 
  112600    276.03582   -8790.5441    40.317706   -8830.8618    4230.7227 
  112800    327.17587   -8783.5274    47.787207   -8831.3146    9269.8525 
  113000    268.93209   -8787.9686    39.280138   -8827.2487   -14715.357 
  113200    246.08049   -8799.3501     35.94244   -8835.2925   -10473.058 
  113400    352.86369   -8783.2676    51.539162   -8834.8067    15821.204 
  113600    281.47982   -8788.1508    41.112856   -8829.2637    42880.344 
  113800    338.62151    -8775.792    49.458953   -8825.2509    25987.005 
  114000    295.98616   -8783.8462    43.231647   -8827.0778    -2554.382 
  114200    259.25179   -8795.0275    37.866236   -8832.8937   -28216.226 
  114400    315.84269   -8787.3075    46.131887   -8833.4394   -8391.4553 
  114600    319.56489   -8771.9103     46.67555   -8818.5858   -3458.4434 
  114800    272.87509   -8789.6763    39.856051   -8829.5324   -2159.1306 
  115000    236.19361   -8792.0691    34.498366   -8826.5675    7318.6888 
  115200     399.7417   -8774.8578    58.386149    -8833.244   -6355.3546 
  115400    279.07023   -8790.0278    40.760912   -8830.7888    17738.482 
  115600    277.63958   -8793.4365    40.551952   -8833.9884    57069.691 
  115800     326.5921   -8782.3665    47.701942   -8830.0684    17333.266 
  116000    255.53268   -8793.5035    37.323025   -8830.8265    17887.262 
  116200    267.91106   -8792.9372    39.131006   -8832.0682    25339.106 
  116400    311.54547   -8773.6677    45.504236   -8819.1719    17421.844 
  116600    299.88409   -8782.4959    43.800978   -8826.2969   -21543.903 
  116800    272.50347   -8793.3304    39.801773   -8833.1322    10514.058 
  117000    345.23311   -8785.3555    50.424641   -8835.7802   -11244.488 
  117200    264.45438   -8795.7223    38.626126   -8834.3484   -8149.9232 
  117400    313.85915   -8790.4552    45.842172   -8836.2974   -38248.904 
  117600    282.73515   -8782.5744     41.29621   -8823.8706     7212.094 
  117800    281.21382   -8785.0376    41.074004   -8826.1116   -26147.736 
  118000    262.78687   -8797.9464     38.38257    -8836.329   -25854.946 
  118200    315.55047   -8791.6214    46.089204   -8837.7106   -15501.569 
  118400    313.01085   -8784.4712    45.718268   -8830.1894   -17708.796 
  118600    254.88855   -8794.1325    37.228943   -8831.3615     4580.157 
  118800    257.18831    -8800.212    37.564846   -8837.7769    -7666.405 
  119000    312.24125   -8787.1136     45.60586   -8832.7195   -6947.3203 
  119200    302.03763   -8780.6017    44.115524   -8824.7173    33115.265 
  119400    222.80314   -8797.4078    32.542559   -8829.9503    60799.807 
  119600     250.2016   -8792.9149    36.544368   -8829.4593   -39019.342 
  119800    340.27003    -8780.724    49.699735   -8830.4237   -7606.8907 
  120000    281.69572   -8792.2741    41.144391   -8833.4185   -25721.312 
  120200    298.48557    -8784.813    43.596711   -8828.4097    7545.3438 
  120400    323.31253   -8783.9552    47.222928   -8831.1781    4932.4433 
  120600      302.094   -8785.7115    44.123757   -8829.8352   -20474.279 
  120800    260.74828   -8788.6478    38.084814   -8826.7326    12573.847 
  121000    310.35371   -8796.7524    45.330167   -8842.0826    12978.364 
  121200    358.67284   -8777.5062    52.387645   -8829.8938    44347.336 
  121400    316.12286    -8786.031    46.172808   -8832.2038   -8377.5571 
  121600    261.35011   -8793.5228    38.172717   -8831.6955   -10982.668 
  121800    333.94742    -8777.152    48.776257   -8825.9283   -15131.413 
  122000    302.30381   -8791.8363    44.154402   -8835.9907    5165.3931 
  122200     280.2544   -8791.8571    40.933871   -8832.7909    40473.187 
  122400    346.08251   -8779.1072    50.548705   -8829.6559     2833.912 
  122600    267.63836   -8797.3854    39.091177   -8836.4765   -20980.184 
  122800    284.38542   -8790.4961    41.537247   -8832.0333    21982.931 
  123000    288.81754   -8786.0939    42.184602   -8828.2785    10583.247 
  123200    313.66964   -8774.8708    45.814492   -8820.6853    13821.827 
  123400    315.09877   -8780.6746    46.023229   -8826.6978   -34206.031 
  123600    298.77189   -8793.0572     43.63853   -8836.6957   -7277.1795 
  123800    330.75311   -8780.7505    48.309698   -8829.0602    13.796888 
  124000    268.09229    -8783.794    39.157477   -8822.9515    24614.038 
  124200    302.03965   -8787.7845    44.115818   -8831.9003    10407.867 
  124400    319.66138   -8780.0986    46.689644   -8826.7883   -6995.6493 
  124600    286.84934   -8785.0625    41.897126   -8826.9596    23886.072 
  124800    294.96448   -8797.3416    43.082421    -8840.424   -26479.336 
  125000    331.76862    -8779.124    48.458023    -8827.582    50503.439 
  125200    303.15335   -8786.2116    44.278485     -8830.49    19789.953 
  125400    250.68921   -8791.8608    36.615589   -8828.4764    5328.6321 
  125600    293.11442   -8775.7212    42.812202   -8818.5334    8595.3625 
  125800    274.91427   -8783.5641    40.153894    -8823.718   -14431.564 
  126000    265.79261   -8795.0335    38.821586   -8833.8551    6152.9059 
  126200    280.94888   -8797.6241    41.035306   -8838.6594   -1071.4672 
  126400    315.52737    -8781.845    46.085831   -8827.9308    12577.535 
  126600      308.273   -8786.9077     45.02626   -8831.9339    2557.0418 
  126800    278.64221    -8792.431    40.698396   -8833.1294   -40022.542 
  127000    315.87844   -8781.9756    46.137107   -8828.1127   -17707.896 
  127200    335.80836   -8791.8397    49.048066   -8840.8878    70185.254 
  127400    230.59592   -8795.8329    33.680769   -8829.5137    -22827.12 
  127600    262.36264   -8784.6615    38.320606   -8822.9821   -19848.104 
  127800    265.19001   -8797.1035    38.733572    -8835.837    -6303.859 
  128000     322.3357   -8783.8167    47.080253    -8830.897   -30055.302 
  128200    336.02456   -8785.5133    49.079644   -8834.5929   -10133.076 
  128400    264.08194   -8790.2426    38.571727   -8828.8143    38182.156 
  128600    253.67819   -8791.2099    37.052158   -8828.2621   -4602.2389 
  128800    294.49197   -8787.4911    43.013407   -8830.5045    3637.0703 
  129000    383.82153   -8771.6152    56.060854    -8827.676   -1648.2697 
  129200    272.20683    -8788.778    39.758446   -8828.5364   -56100.994 
  129400    332.45713   -8788.8521    48.558586   -8837.4107   -13996.794 
  129600    283.85333   -8779.9962     41.45953   -8821.4557   -10457.838 
  129800    290.29104   -8782.7208     42.39982   -8825.1206   -24431.768 
  130000    289.60391   -8794.2971    42.299458   -8836.5966    18551.147 
  130200    346.63969   -8774.9146    50.630086   -8825.5447   -12891.026 
  130400    359.86437   -8782.1657     52.56168   -8834.7273   -18432.221 
  130600    257.46662   -8793.4744    37.605495   -8831.0799   -7453.7883 
  130800    301.04015   -8778.7843    43.969832   -8822.7541    38974.427 
  131000    370.88071   -8774.6246    54.170722   -8828.7953   -12769.052 
  131200    317.33242   -8789.9573    46.349475   -8836.3068    36881.899 
  131400    273.41391   -8791.1794    39.934751   -8831.1142   -14070.498 
  131600    345.90329   -8776.5631    50.522529   -8827.0856   -42133.388 
  131800    297.84523   -8796.3707    43.503183   -8839.8738   -13239.516 
  132000    263.42866   -8791.6236    38.476308   -8830.0999    6306.8568 
  132200    339.24668   -8775.5725    49.550266   -8825.1228    28131.749 
  132400    313.00041   -8781.8424    45.716744   -8827.5591   -34133.005 
  132600    313.52228   -8793.2127    45.792967   -8839.0057   -35995.076 
  132800    288.15201   -8776.3291    42.087395   -8818.4165     12266.98 
  133000    264.55822   -8785.0669    38.641292   -8823.7081    49405.209 
  133200    224.22488   -8791.2284    32.750217   -8823.9786   -1482.1033 
  133400    326.68272   -8782.4398    47.715178   -8830.1549    5389.9697 
  133600    335.22473   -8776.9487    48.962821   -8825.9115   -36691.765 
  133800    283.20678   -8792.9001    41.365095   -8834.2651    4205.1761 
  134000    342.95821    -8779.834     50.09237   -8829.9264    9998.5641 
  134200    308.26409   -8792.8998    45.024958   -8837.9248    36490.174 
  134400    295.52891   -8790.6393    43.164861   -8833.8041    10214.818 
  134600     288.1845    -8785.073    42.092139   -8827.1651   -5454.9458 
  134800    249.34447   -8800.2055    36.419176   -8836.6247    231.68952 
  135000    308.32095   -8785.7064    45.033263   -8830.7397    5486.7946 
  135200    296.61421   -8782.2259    43.323381   -8825.5493   -24139.456 
  135400    249.33417   -8798.6682    36.417672   -8835.0858   -13853.434 
  135600    319.14479   -8780.0715     46.61419   -8826.6857    10855.163 
  135800    288.73107   -8788.4648    42.171971   -8830.6368    23766.912 
  136000    261.91602   -8797.3762    38.255373   -8835.6316   -43420.002 
  136200    315.91281   -8779.8449    46.142128   -8825.9871   -20583.241 
  136400    339.14013   -8785.6093    49.534703    -8835.144   -6061.6279 
  136600     272.0862   -8799.9455    39.740827   -8839.6863   -36028.116 
  136800    298.20096    -8798.418    43.555141   -8841.9731    29061.879 
  137000    295.68758    -8787.514    43.188038   -8830.7021    27546.765 
  137200    265.36208   -8789.3078    38.758704   -8828.0665    7025.3926 
  137400    237.88224   -8798.7076    34.745007   -8833.4526   -37457.334 
  137600    337.69343   -8782.8934    49.323399   -8832.2168   -29928.878 
  137800    295.75449   -8784.5156    43.197809   -8827.7134    26386.311 
  138000    278.63859   -8799.4154    40.697867   -8840.1132   -7513.4468 
  138200    343.70621   -8789.7037    50.201624   -8839.9053     10659.66 
  138400    300.46896   -8786.5504    43.886404   -8830.4368     11737.66 
  138600    269.63256   -8794.4111    39.382449   -8833.7936   -34525.738 
  138800    262.86232   -8796.4706     38.39359   -8834.8642   -23611.699 
  139000    309.15862   -8786.1914    45.155612    -8831.347   -27783.106 
  139200    259.51524    -8782.601    37.904716   -8820.5057   -21296.203 
  139400    296.98208   -8796.7188    43.377112   -8840.0959    18303.732 
  139600    330.16554   -8790.1897    48.223878   -8838.4136   -25353.674 
  139800    344.13128   -8784.8769    50.263709   -8835.1406   -39990.132 
  140000    250.14829   -8803.9132    36.536582   -8840.4498   -10384.464 
  140200    266.02828   -8792.9239    38.856009   -8831.7799     -42870.6 
  140400    317.22896   -8781.2307    46.334365   -8827.5651   -29029.527 
  140600    289.10371   -8786.1519    42.226399   -8828.3783    5057.5325 
  140800     315.4713   -8795.7805    46.077641   -8841.8582   -32698.809 
  141000    341.50203   -8780.2224    49.879682   -8830.1021     8256.037 
  141200    299.11936   -8785.7279    43.689282   -8829.4172   -7312.0303 
  141400    282.42254   -8787.9335     41.25055   -8829.1841    39352.246 
  141600     376.0191   -8771.0604    54.921234   -8825.9816   -4228.0863 
  141800    310.50987   -8782.4169    45.352977   -8827.7699   -1572.5686 
  142000     292.3761   -8790.3158    42.704363   -8833.0202    3160.1731 
  142200    308.66899   -8789.2777    45.084098   -8834.3618    5969.8746 
  142400    309.09892   -8783.6712    45.146893   -8828.8181   -14874.016 
  142600    242.93289   -8796.3806    35.482704   -8831.8633   -31892.858 
  142800    415.16151   -8783.4365    60.638363   -8844.0748    -40882.09 
  143000    316.13624    -8786.206    46.174763   -8832.3808   -26334.788 
  143200    266.32687   -8795.2709    38.899621   -8834.1705   -7353.8652 
  143400    321.23378   -8775.3471    46.919307   -8822.2664   -10173.213 
  143600    319.27931   -8788.9812    46.633838    -8835.615     1569.834 
  143800    280.24108   -8794.5306    40.931926   -8835.4625    4145.8709 
  144000    308.12421   -8782.8066    45.004528   -8827.8111   -6263.0605 
  144200    276.43582   -8790.7238     40.37613      -8831.1    33260.163 
  144400    273.20683   -8798.3686    39.904505   -8838.2731    26388.934 
  144600    293.07008   -8780.8874    42.805725   -8823.6931    -34492.94 
  144800    273.28327   -8787.1703    39.915671    -8827.086    3570.5284 
  145000    264.97866   -8800.0971    38.702701   -8838.7998    23481.306 
  145200    243.02322   -8802.0441    35.495896     -8837.54    23762.633 
  145400    342.06555   -8784.8598    49.961989   -8834.8218   -19189.202 
  145600    337.19383   -8787.7106    49.250427    -8836.961   -11067.841 
  145800    293.31493   -8800.8001    42.841489   -8843.6416    29482.412 
  146000    310.20176   -8789.1797    45.307973   -8834.4877   -1165.0181 
  146200    326.51183   -8784.4243    47.690217   -8832.1145    46760.158 
  146400     260.3136   -8799.4722    38.021324   -8837.4935   -9258.2253 
  146600    307.94865   -8792.9256    44.978885   -8837.9045   -4219.6912 
  146800     311.7292   -8789.0163    45.531071   -8834.5474    9650.3371 
  147000    315.33706   -8784.5615    46.058034   -8830.6195      12630.5 
  147200    378.50725   -8777.0711    55.284652   -8832.3557    -12226.41 
  147400    337.19551   -8795.3878    49.250672   -8844.6385   -24562.136 
  147600    326.00345   -8786.1743    47.615964   -8833.7903   -23907.779 
  147800    328.77876   -8788.6014    48.021325   -8836.6228    33612.371 
  148000    282.77112   -8791.1239    41.301463   -8832.4253    13612.361 
  148200    347.92511   -8776.1227    50.817835   -8826.9406    -51622.25 
  148400    266.66133   -8790.6721    38.948472   -8829.6206    11109.092 
  148600    311.05095   -8788.0559    45.432006    -8833.488   -9351.8647 
  148800    268.32095   -8795.3933    39.190875   -8834.5842    19471.739 
  149000    254.53426   -8798.4755    37.177196   -8835.6527   -25663.809 
  149200    349.12213   -8783.4025     50.99267   -8834.3951   -17384.678 
  149400    311.75152   -8787.7809    45.534332   -8833.3152   -12842.207 
  149600    243.25248   -8801.0886    35.529382    -8836.618    2846.9567 
  149800    291.52167     -8787.23    42.579565   -8829.8096    -550.5772 
  150000    323.26572   -8779.2492    47.216092   -8826.4653   -22519.357 
  150200    306.99633    -8797.226     44.83979   -8842.0658   -3839.8752 
  150400    311.02729   -8786.5314     45.42855     -8831.96    6586.0484 
  150600    294.00141   -8781.6521    42.941756   -8824.5938   -7931.8521 
  150800    333.85559    -8784.582    48.762844   -8833.3448   -21957.109 
  151000    332.35114   -8783.1511    48.543105   -8831.6942   -2861.9292 
  151200    304.86322   -8792.4437    44.528229   -8836.9719    575.71448 
  151400    301.67125   -8788.8819     44.06201   -8832.9439    34222.631 
  151600    328.55842   -8781.0801    47.989142   -8829.0692    4779.6606 
  151800    328.14188   -8790.8257    47.928303    -8838.754    5149.1691 
  152000    328.57273   -8788.1215    47.991232   -8836.1127   -654.91124 
  152200    335.14556   -8783.2887    48.951258     -8832.24     3266.842 
  152400    274.05061   -8799.1086    40.027748   -8839.1363   -11002.746 
  152600    290.15233   -8785.8117     42.37956   -8828.1912   -319.50295 
  152800    265.39927   -8783.0639    38.764135    -8821.828   -11724.188 
  153000    252.07576   -8796.5444    36.818108   -8833.3625     917.7863 
  153200    293.84318   -8787.8745    42.918645   -8830.7932   -18661.459 
  153400    328.09844   -8780.5452    47.921958   -8828.4671   -6528.6551 
  153600     291.8642    -8795.141    42.629596   -8837.7706    20403.463 
  153800    313.61764   -8786.9004    45.806896   -8832.7073   -32412.576 
  154000    345.61716   -8778.8791    50.480735   -8829.3599    152.74889 
  154200    284.02364   -8795.5512    41.484406   -8837.0356   -17473.976 
  154400    307.36416   -8789.3808    44.893514   -8834.2744    14652.491 
  154600     384.7241   -8777.5839    56.192683   -8833.7766   -17096.657 
  154800    271.47669   -8790.1981    39.651802   -8829.8499    4062.5175 
  155000    313.58986   -8784.7096    45.802838   -8830.5124    12764.597 
  155200    289.90573   -8788.1668    42.343542   -8830.5104    7175.1243 
  155400    323.72239   -8791.4063    47.282792   -8838.6891    1537.1325 
  155600    364.36324   -8776.5187    53.218783   -8829.7375    24039.611 
  155800    294.77593   -8791.9842    43.054882   -8835.0391   -1293.6792 
  156000    298.49062   -8788.4024    43.597448   -8831.9999    -19170.97 
  156200    312.33318   -8783.1852    45.619289   -8828.8045    27546.538 
  156400    288.67852   -8799.9896    42.164296   -8842.1539   -1557.7228 
  156600    299.70936   -8786.7833    43.775457   -8830.5588    9806.9276 
  156800    293.90182     -8789.48    42.927209   -8832.4072   -1559.2684 
  157000    281.53756   -8799.8253     41.12129   -8840.9466   -2379.0481 
  157200    308.58377   -8785.9522     45.07165   -8831.0238    7311.6889 
  157400    303.62926   -8788.3988    44.347996   -8832.7468   -3864.9497 
  157600    271.32769   -8802.9403    39.630038   -8842.5703    23876.234 
  157800    294.13017    -8796.076    42.960562   -8839.0365   -4525.3974 
  158000    307.47501   -8782.0014    44.909705   -8826.9111    14437.311 
  158200    261.70358   -8794.2947    38.224345   -8832.5191   -17023.938 
  158400    233.62986   -8805.4757    34.123906   -8839.5996    10382.071 
  158600    286.56412   -8788.2004    41.855467   -8830.0559   -18409.242 
  158800    315.72785   -8780.5134    46.115112   -8826.6285    3666.9511 
  159000     274.9727   -8788.0265    40.162428    -8828.189   -6197.7975 
  159200    293.13806   -8796.6449    42.815654   -8839.4606   -33290.793 
  159400    346.06205   -8778.3351    50.545717   -8828.8808   -23634.208 
  159600    308.69747   -8791.1586    45.088258   -8836.2468    28078.925 
  159800    300.59871   -8788.0074    43.905356   -8831.9127    3135.9124 
  160000    322.77429   -8771.6288    47.144314   -8818.7731    2844.8948 
  160200    300.41804    -8786.891    43.878967     -8830.77   -18919.779 
  160400    308.01611    -8790.854    44.988738   -8835.8427   -15228.199 
  160600    364.56552   -8773.7475    53.248328   -8826.9958   -3828.6578 
  160800    230.19023   -8787.9918    33.621514   -8821.6133   -39035.752 
  161000    309.76383    -8791.404     45.24401    -8836.648   -1710.1053 
  161200    283.38905   -8785.0746    41.391718   -8826.4663   -13812.238 
  161400     293.5173   -8785.0843    42.871046   -8827.9554    9131.8933 
  161600    252.20585   -8798.9939    36.837109    -8835.831   -44146.681 
  161800    283.81126   -8784.9423    41.453386   -8826.3957   -1998.3072 
  162000    290.68199   -8786.1886    42.456922   -8828.6455     1525.831 
  162200    267.09859   -8800.1932    39.012338   -8839.2055    41568.321 
  162400    305.41285   -8785.9704    44.608508   -8830.5789   -2690.3809 
  162600    322.30811   -8783.6638    47.076224     -8830.74   -31508.949 
  162800    245.31038   -8801.4832    35.829959   -8837.3131    -2172.218 
  163000    292.45433   -8790.0765    42.715789   -8832.7923    848.91646 
  163200    287.49985   -8789.4831     41.99214   -8831.4753   -25574.061 
  163400    286.91448   -8788.0871     41.90664   -8829.9938   -4984.1942 
  163600     272.3699   -8795.1882    39.782264   -8834.9705    13672.746 
  163800    309.57722   -8783.7003    45.216753    -8828.917   -14515.154 
  164000    302.75733   -8784.3339    44.220642   -8828.5545   -24745.593 
  164200    256.24019   -8795.9995    37.426364   -8833.4259   -64404.139 
  164400    295.30605   -8784.4576     43.13231   -8827.5899    5412.6307 
  164600    343.15723   -8780.0414     50.12144   -8830.1628   -13354.384 
  164800    291.08599   -8792.5703     42.51593   -8835.0862   -4815.8821 
  165000    283.71936   -8788.3721    41.439963    -8829.812    -6859.234 
  165200    299.22758   -8772.9513    43.705088   -8816.6564   -33464.282 
  165400    328.65755   -8794.2305     48.00362   -8842.2341    27697.171 
  165600    283.74632   -8787.0774      41.4439   -8828.5213    18986.635 
  165800    356.22026   -8778.7563    52.029422   -8830.7857     2218.041 
  166000    247.82634   -8795.1434    36.197439   -8831.3408     1893.172 
  166200    298.28298   -8789.4928     43.56712     -8833.06   -23961.091 
  166400    274.90537    -8784.088    40.152594   -8824.2406    22181.056 
  166600    273.01547   -8796.6027    39.876555   -8836.4793    11388.846 
  166800    330.67104   -8788.3527    48.297711   -8836.6504    44013.999 
  167000    324.20508   -8782.0549    47.353295   -8829.4082   -6828.1944 
  167200    273.63661   -8786.6286    39.967278   -8826.5959   -1054.7638 
  167400    327.14339   -8795.2131    47.782463   -8842.9956    14070.508 
  167600    308.35161   -8787.9418    45.037741   -8832.9796   -38473.363 
  167800    336.80994   -8779.3968    49.194357   -8828.5912    9421.5328 
  168000    311.20838   -8792.6737       45.455   -8838.1287   -19414.931 
  168200    326.94473   -8788.0103    47.753447   -8835.7638   -14345.364 
  168400    337.81318   -8779.1905    49.340889   -8828.5314    10377.214 
  168600     314.1247   -8780.1012    45.880957   -8825.9822    23186.529 
  168800    322.30139   -8793.9073    47.075241   -8840.9825    26694.797 
  169000    295.19493   -8777.6144    43.116081   -8820.7305    41107.054 
  169200    302.58517   -8783.1985    44.195496    -8827.394   -1027.7219 
  169400    280.29068   -8789.9095     40.93917   -8830.8487   -12372.992 
  169600    328.54374   -8788.8883    47.986997   -8836.8753   -914.47284 
  169800    275.61319   -8788.2435    40.255978   -8828.4995   -1992.6869 
  170000     310.0968    -8781.401    45.292643   -8826.6936   -8283.1656 
  170200    260.59667   -8777.2469     38.06267   -8815.3095   -8478.7192 
  170400    277.21872   -8795.6428    40.490482   -8836.1333   -19993.966 
  170600    317.29762   -8787.3015    46.344393   -8833.6459    9532.6243 
  170800    391.07186   -8772.2213    57.119835   -8829.3411    6705.5821 
  171000    292.62839   -8793.6983    42.741212   -8836.4395    2662.5181 
  171200    288.57619   -8790.9965     42.14935   -8833.1459    16526.736 
  171400    385.54476   -8775.5471    56.312549   -8831.8597   -46970.894 
  171600    294.29578   -8796.4455    42.984752   -8839.4303    437.48735 
  171800    248.85942   -8794.1659    36.348331   -8830.5142    11740.561 
  172000    332.80707   -8779.6927    48.609698   -8828.3024   -2716.8635 
  172200    337.93071   -8779.2029    49.358056   -8828.5609   -14746.216 
  172400    321.59015   -8787.7895    46.971359   -8834.7608   -18127.123 
  172600    342.27345   -8784.0872    49.992355   -8834.0796     4822.953 
  172800    351.14302   -8778.4661    51.287842   -8829.7539    12953.679 
  173000    302.17455   -8794.3186    44.135522   -8838.4541    -4635.492 
  173200    293.14509   -8782.3871    42.816682   -8825.2037    1713.8142 
  173400     414.0058   -8765.8278     60.46956   -8826.2973   -30083.777 
  173600    295.60791   -8784.8393      43.1764   -8828.0157   -29281.718 
  173800    274.73931   -8788.7487    40.128339   -8828.8771    8158.9514 
  174000    203.05759   -8798.4861     29.65853   -8828.1446    45391.121 
  174200    334.23895   -8788.3066    48.818838   -8837.1255    11094.427 
  174400    347.70901   -8782.9839     50.78627   -8833.7702    9659.3654 
  174600    252.72678   -8802.7004    36.913196   -8839.6135   -49773.177 
  174800    242.63871   -8794.8819    35.439736   -8830.3217    8189.4611 
  175000    313.08103   -8786.5574     45.72852   -8832.2859    40625.727 
  175200    349.09557     -8780.64    50.988792   -8831.6287   -285.45191 
  175400    278.26412   -8793.2491    40.643172   -8833.8923   -15045.081 
  175600     311.6907   -8783.9674    45.525448   -8829.4929    61364.755 
  175800    341.59903   -8777.2505     49.89385   -8827.1443    3329.8024 
  176000    338.65883   -8786.0752    49.464404   -8835.5397   -1631.5961 
  176200    331.23348   -8790.5093    48.379861   -8838.8891    42045.395 
  176400    327.66567   -8783.5397    47.858747   -8831.3984    9366.9766 
  176600    308.67376   -8785.8049    45.084794   -8830.8896   -5274.9744 
  176800    259.80154   -8799.4858    37.946533   -8837.4324   -8503.3858 
  177000    295.80098   -8789.0321      43.2046   -8832.2367   -2977.1351 
  177200    289.18191   -8786.8013    42.237821   -8829.0391   -27922.859 
  177400     270.8085   -8799.5147    39.554207   -8839.0689    12869.797 
  177600    313.00071   -8786.2199    45.716787   -8831.9367    3531.6585 
  177800    276.89898   -8786.9478     40.44378   -8827.3916   -4484.2069 
  178000    239.77501   -8796.2207    35.021464   -8831.2422    17875.449 
[...]
  950000    288.77906   -8790.6662    42.178981   -8832.8452    -16519.94 
  950200    310.69088   -8782.4128    45.379415   -8827.7922   -24945.156 
  950400    270.95539   -8792.9792    39.575662   -8832.5548    13556.502 
  950600    325.08719   -8779.3946    47.482135   -8826.8767   -1705.8121 
  950800    249.16172   -8786.9939    36.392484   -8823.3864    7040.7892 
  951000    238.32195    -8798.713     34.80923   -8833.5222    13587.552 
  951200    382.79652   -8775.9092    55.911141   -8831.8204    9870.1527 
  951400     288.4476   -8790.6283    42.130568   -8832.7589   -23448.224 
  951600    366.85913   -8779.0961    53.583331   -8832.6795    13487.097 
  951800    304.35973   -8779.7653    44.454689     -8824.22   -53259.505 
  952000    297.82564   -8794.3997    43.500322      -8837.9   -10599.798 
  952200     293.4002   -8798.4254    42.853943   -8841.2794   -15780.475 
  952400    342.07961   -8782.9693    49.964042   -8832.9333    10450.769 
  952600    304.16999   -8787.9852    44.426975   -8832.4121     49089.66 
  952800    254.16097   -8791.5974    37.122673   -8828.7201   -24472.468 
  953000     316.4042   -8781.8116    46.213901   -8828.0255    23994.816 
  953200    278.56424   -8796.1806    40.687007   -8836.8676    21730.645 
  953400    324.29829   -8782.9131    47.366909     -8830.28    27254.601 
  953600    307.41883   -8784.0556    44.901499   -8828.9571    4213.8587 
  953800    301.29326   -8783.6709    44.006801   -8827.6777   -413.90373 
  954000      303.782   -8787.0849    44.370305   -8831.4552     24416.06 
  954200    290.10928   -8799.9211    42.373273   -8842.2944    -11311.63 
  954400    325.01213   -8782.4433    47.471171   -8829.9145    48.823561 
  954600    303.60596   -8790.4633    44.344593   -8834.8079    13227.262 
  954800    298.51033   -8787.6813    43.600326   -8831.2817   -26762.128 
  955000    260.65188   -8776.8607    38.070734   -8814.9315   -3234.5137 
  955200    283.43216    -8789.065    41.398014    -8830.463    30426.341 
  955400    278.19814   -8801.6079    40.633535   -8842.2415    27513.663 
  955600    292.87843   -8794.5006    42.777734   -8837.2784   -15381.835 
  955800    326.43639   -8784.1398    47.679198    -8831.819   -11875.219 
  956000    209.13789   -8800.4407    30.546616   -8830.9873   -22078.676 
  956200    311.84274   -8788.4819    45.547654   -8834.0296    23601.603 
  956400    319.82498   -8779.4126    46.713538   -8826.1262   -10657.791 
  956600    282.93778    -8796.581    41.325806   -8837.9068   -42542.322 
  956800    254.10057   -8793.9315     37.11385   -8831.0454   -3111.1155 
  957000    285.52608   -8783.8701    41.703852   -8825.5739   -10284.335 
  957200    278.02955   -8792.5131    40.608911    -8833.122    14021.342 
  957400    287.42691   -8782.4373    41.981486   -8824.4188    4095.6391 
  957600    300.41246   -8784.5418    43.878151   -8828.4199    1375.2517 
  957800    331.29708   -8794.6307    48.389149   -8843.0198    8054.2159 
  958000    302.78991   -8793.7828    44.225401   -8838.0082     -4779.73 
  958200    338.48737    -8775.017    49.439361   -8824.4563    9762.7325 
  958400    295.84055   -8787.8777     43.21038    -8831.088   -26194.177 
  958600    292.89508   -8791.4741    42.780165   -8834.2543   -496.53575 
  958800    369.18302    -8780.025    53.922759   -8833.9477     42713.14 
  959000    258.74964   -8787.9951    37.792893    -8825.788    31867.395 
  959200    264.74724   -8787.9147      38.6689   -8826.5836   -468.29007 
  959400    255.01344   -8793.9631    37.247184   -8831.2103    2734.1008 
  959600    338.13991   -8780.3456    49.388612   -8829.7342    -6188.141 
  959800    323.89549   -8791.1007    47.308076   -8838.4088    21081.317 
  960000    246.66644   -8795.7742    36.028025   -8831.8022     25470.17 
  960200     310.8676   -8781.9523    45.405227   -8827.3575    -17937.83 
  960400    286.07243   -8786.3408    41.783651   -8828.1245    30236.397 
  960600    286.24235   -8798.6122     41.80847   -8840.4207    39270.143 
  960800    297.48348   -8790.9359    43.450346   -8834.3862   -10331.744 
  961000    307.97878    -8786.051    44.983286   -8831.0343    98.063704 
  961200    245.56761   -8802.7532     35.86753   -8838.6207   -10998.899 
  961400     296.9163   -8791.2993    43.367503   -8834.6668    21184.065 
  961600    313.62469   -8787.7403    45.807926   -8833.5483    676.81747 
  961800    342.39421   -8782.8103    50.009993   -8832.8203    28682.783 
  962000    273.64267   -8796.3046    39.968164   -8836.2728    17176.318 
  962200    391.47698   -8784.7973    57.179008   -8841.9763    6070.6697 
  962400    326.01063   -8786.2561    47.617012   -8833.8731   -19187.606 
  962600    307.05034   -8796.8007    44.847679   -8841.6483   -10381.627 
  962800     233.0138   -8806.3887    34.033924   -8840.4226   -12550.649 
  963000    305.23242   -8788.9373    44.582153   -8833.5195   -841.75186 
  963200    322.48723   -8780.4653    47.102386   -8827.5677   -9824.8597 
  963400    226.50592    -8799.071    33.083385   -8832.1544    33564.886 
  963600    275.62176    -8788.989    40.257229   -8829.2462      57456.4 
  963800    381.94722   -8772.3437    55.787094   -8828.1308    5355.9712 
  964000    250.81252   -8789.6329      36.6336   -8826.2665    13892.633 
  964200    368.07615   -8779.7533    53.761089   -8833.5144    371.82057 
  964400     332.4754    -8786.951    48.561255   -8835.5123    25373.378 
  964600    312.41189   -8798.1313    45.630785   -8843.7621     6153.084 
  964800    336.06793   -8781.4527    49.085979   -8830.5386    3271.8949 
  965000    248.76602   -8791.1805    36.334689   -8827.5152   -9321.0956 
  965200    332.46057   -8775.7627    48.559089   -8824.3218   -30073.674 
  965400    325.67769   -8774.2561    47.568383   -8821.8245    6771.3092 
  965600    325.76298   -8783.2133    47.580841   -8830.7942    2981.2442 
  965800    295.42202   -8790.9589    43.149249   -8834.1081    13658.113 
  966000    252.65732   -8799.9751     36.90305   -8836.8781    15158.091 
  966200     330.3691   -8787.7968    48.253609   -8836.0504   -42689.136 
  966400    339.51582   -8788.3948    49.589576   -8837.9843   -17241.176 
  966600    276.00606   -8789.3164     40.31336   -8829.6298   -4044.1152 
  966800    343.61786    -8776.878    50.188718   -8827.0667   -16409.696 
  967000    257.77194   -8793.8891     37.65009   -8831.5392    19608.723 
  967200    357.39249   -8789.0117    52.200637   -8841.2124   -30122.072 
  967400    248.32556   -8793.1175    36.270356   -8829.3879   -24264.863 
  967600    302.90483   -8779.1041    44.242186   -8823.3462   -29149.666 
  967800    239.04601   -8793.3508    34.914987   -8828.2658    3335.9182 
  968000    289.48102   -8782.4477    42.281509   -8824.7292    -12067.68 
  968200    342.08713   -8782.3607    49.965141   -8832.3258   -37452.737 
  968400     274.0976   -8793.5355    40.034612   -8833.5701   -24333.283 
  968600    368.01476   -8777.0553    53.752122   -8830.8074    17600.639 
  968800    298.41311   -8784.9975    43.586127   -8828.5836    26776.013 
  969000    262.78458   -8788.1044    38.382235   -8826.4867    17497.366 
  969200    370.55505   -8771.4238    54.123157   -8825.5469     42704.54 
  969400     269.3126    -8783.178    39.335716   -8822.5137   -45163.649 
  969600    267.91118   -8790.7601    39.131025   -8829.8912    17592.043 
  969800    279.07894   -8795.0998    40.762183    -8835.862   -1712.1743 
  970000    295.04209   -8782.2587    43.093757   -8825.3525    8375.7147 
  970200    302.92654    -8791.256    44.245358   -8835.5014   -2679.6164 
  970400    339.23184   -8784.6094    49.548099   -8834.1575    30605.351 
  970600     343.5065   -8778.6099    50.172454   -8828.7823    4959.6483 
  970800    333.21941   -8788.4276    48.669925   -8837.0975    14886.133 
  971000    316.85586   -8787.6353     46.27987   -8833.9152    7145.9987 
  971200    363.32965   -8774.9292    53.067817    -8827.997    22656.512 
  971400    275.16366   -8788.2579    40.190319   -8828.4482   -52435.044 
  971600    283.59951   -8791.4622    41.422457   -8832.8847   -35096.629 
  971800    342.32287   -8786.6576    49.999574   -8836.6572    28989.047 
  972000    291.09815   -8781.6372    42.517706   -8824.1549   -11718.335 
  972200    272.66943    -8795.941    39.826014    -8835.767    57698.475 
  972400    290.61577   -8784.8929    42.447249   -8827.3402   -7814.2426 
  972600    275.09306   -8789.3272    40.180008   -8829.5072    -25766.92 
  972800     262.1754   -8800.1446    38.293258   -8838.4378    22474.964 
  973000    323.56386   -8791.7063    47.259638   -8838.9659    8508.8366 
  973200     307.6233    -8782.958    44.931364   -8827.8894   -4474.1488 
  973400    284.09284   -8795.3286    41.494512   -8836.8231    1549.5915 
  973600    277.78012    -8794.207    40.572478   -8834.7795   -40251.178 
  973800    322.36061   -8783.1506    47.083891   -8830.2345   -57498.084 
  974000    301.22017   -8794.1752    43.996125   -8838.1713    7361.5803 
  974200    234.95789   -8804.4178    34.317877   -8838.7356   -23446.773 
  974400    330.15623   -8782.5514    48.222518   -8830.7739    2141.0211 
  974600    274.47202   -8784.6759    40.089298   -8824.7651    8386.1079 
  974800    315.69466   -8793.3842    46.110265   -8839.4944    37934.885 
  975000    326.35374   -8782.8091    47.667127   -8830.4762   -16856.618 
  975200    296.78374   -8783.9332    43.348141   -8827.2813   -10178.486 
  975400     296.8735   -8788.7639    43.361253   -8832.1252   -17953.229 
  975600    298.70384   -8787.9721    43.628591   -8831.6007   -11558.344 
  975800    302.73321    -8798.737     44.21712   -8842.9541     13155.98 
  976000    284.98835   -8797.2627    41.625311    -8838.888   -1585.6284 
  976200    258.20716    -8785.569    37.713658   -8823.2826    39735.878 
  976400    312.08301   -8795.2257    45.582749   -8840.8085    30161.912 
  976600    262.99288   -8797.8971    38.412659   -8836.3098    29087.302 
  976800    320.69669   -8784.1597    46.840859   -8831.0005   -28056.505 
  977000    315.38185   -8792.4384    46.064577    -8838.503     17824.78 
  977200    262.00745   -8796.7974    38.268728   -8835.0661    16065.186 
  977400    347.26542   -8786.7939     50.72148   -8837.5154   -1865.7388 
  977600    289.24526   -8790.9529    42.247074      -8833.2   -18350.312 
  977800    297.02625   -8777.4691    43.383563   -8820.8526   -37417.007 
  978000    301.22249   -8785.0358    43.996465   -8829.0322    16400.139 
  978200    240.55275   -8793.9043     35.13506   -8829.0394   -3291.2454 
  978400    322.24149   -8783.6763    47.066493   -8830.7428    32670.773 
  978600    333.29324   -8776.0433    48.680707    -8824.724   -4333.5714 
  978800    313.04499   -8791.9438    45.723255   -8837.6671   -1661.3051 
  979000    272.83381   -8791.6007    39.850022   -8831.4507   -3272.6348 
  979200    355.77549   -8778.7046    51.964459    -8830.669   -11532.071 
  979400    319.51576    -8786.633    46.668374   -8833.3014   -19249.881 
  979600      263.643   -8802.7466    38.507616   -8841.2542    20298.516 
  979800    268.22682   -8797.9627    39.177127   -8837.1398   -42827.025 
  980000    269.93906   -8788.6558    39.427216    -8828.083   -15008.059 
  980200    317.49027   -8782.1401    46.372531   -8828.5126   -28130.308 
  980400    276.28694   -8797.5038    40.354386   -8837.8582   -5976.8008 
  980600    334.91923   -8790.2851      48.9182   -8839.2033    31318.301 
  980800    355.32359   -8772.8026    51.898454    -8824.701   -49629.434 
  981000    354.93066   -8789.7809    51.841064    -8841.622   -29368.278 
  981200    260.77216    -8795.359    38.088301   -8833.4473   -12684.735 
  981400    352.09384   -8775.5287    51.426718   -8826.9554   -12968.361 
  981600    273.04207   -8786.5302    39.880441   -8826.4106    10320.215 
  981800      284.999   -8797.9981    41.626866    -8839.625    50041.596 
  982000    294.36742   -8793.8763    42.995214   -8836.8715   -5301.8488 
  982200    269.43889   -8789.7312    39.354161   -8829.0854   -30930.329 
  982400    276.34947   -8788.9641    40.363518   -8829.3277   -818.39467 
  982600     280.7127   -8790.5512     41.00081    -8831.552    4354.9206 
  982800    314.14339    -8790.232    45.883686   -8836.1157   -12461.193 
  983000    304.11229   -8798.1934    44.418548    -8842.612    8049.6769 
  983200    312.82887   -8784.1108    45.691688   -8829.8024    23723.714 
  983400    320.46223   -8790.9433    46.806614     -8837.75   -4880.5736 
  983600    387.90799   -8774.3219    56.657722   -8830.9796   -7638.4027 
  983800    292.37703   -8790.6989    42.704499   -8833.4034    12219.421 
  984000    290.56287   -8787.1425    42.439524   -8829.5821    -23168.91 
  984200    360.68235   -8782.2425    52.681153   -8834.9237    1855.3387 
  984400    280.22535   -8796.0981    40.929629   -8837.0278   -11313.322 
  984600    358.73825   -8781.7222    52.397198   -8834.1194    -9629.636 
  984800    331.43251   -8775.6544     48.40893   -8824.0633    37352.375 
  985000    289.16381   -8794.9055    42.235178   -8837.1407    27343.067 
  985200     307.1657   -8794.7153    44.864528   -8839.5798    13492.348 
  985400    344.36215   -8779.4356     50.29743    -8829.733   -5456.6021 
  985600    298.94886   -8790.9843    43.664379   -8834.6486    34355.942 
  985800    282.75982   -8788.1266    41.299812   -8829.4265   -1559.1654 
  986000    368.19084   -8778.1161    53.777842   -8831.8939    5957.6287 
  986200    305.18663    -8789.179    44.575465   -8833.7545   -35435.873 
  986400    276.78386   -8794.5263    40.426965   -8834.9533    8514.9393 
  986600    388.13065   -8774.8547    56.690244   -8831.5449    32569.415 
  986800    336.52913   -8784.3792    49.153341   -8833.5325    11459.492 
  987000    295.87894   -8788.2304    43.215987   -8831.4463   -21649.412 
  987200    290.77264   -8786.8295    42.470162   -8829.2997   -17933.722 
  987400    247.26968   -8789.0611    36.116133   -8825.1772   -12100.586 
  987600    338.57493    -8775.989     49.45215   -8825.4411   -29140.174 
  987800    313.70709   -8794.8373    45.819961   -8840.6572   -28019.855 
  988000    317.79273   -8787.9529    46.416708   -8834.3696   -23695.848 
  988200    349.91298   -8779.6693    51.108182   -8830.7775    2331.7293 
  988400    278.39302   -8785.7559    40.661999   -8826.4179   -15408.424 
  988600    314.25055   -8790.2547    45.899339    -8836.154   -35735.962 
  988800    267.20121   -8795.7586    39.027327   -8834.7859     40336.93 
  989000    357.27787   -8783.0642    52.183895   -8835.2481   -6535.7916 
  989200    323.15893   -8795.0663    47.200494   -8842.2668   -15539.065 
  989400    325.37615   -8777.4858     47.52434   -8825.0102    10503.631 
  989600    311.58671   -8788.0622    45.510258   -8833.5725   -14445.249 
  989800    321.92956   -8789.1775    47.020932   -8836.1984   -13821.777 
  990000    335.87858   -8774.6305    49.058322   -8823.6888    1437.2332 
  990200    263.24993   -8788.5923    38.450203   -8827.0425    5971.8721 
  990400    305.01388   -8793.0153    44.550233   -8837.5655   -13090.036 
  990600    258.65505   -8803.5927    37.779077   -8841.3718   -2496.3305 
  990800    327.46147   -8787.6572    47.828922   -8835.4861    27518.804 
  991000     292.2027   -8793.2246    42.679037   -8835.9037    5361.9731 
  991200    269.83427   -8797.1839     39.41191   -8836.5958    11723.538 
  991400    284.92498   -8780.3147    41.616056   -8821.9307    2434.8906 
  991600    337.26415   -8781.5725    49.260698   -8830.8332   -30525.898 
  991800    299.33215   -8795.0526    43.720361   -8838.7729   -34998.007 
  992000    259.74674   -8796.8559    37.938529   -8834.7945   -46533.989 
  992200     333.6549   -8783.0725    48.733532    -8831.806   -31093.719 
  992400    275.27251   -8796.7202    40.206219   -8836.9264   -7622.0503 
  992600    368.27708   -8781.8017    53.790437   -8835.5921    4910.7374 
  992800    354.56879   -8784.0733    51.788208   -8835.8615     -31713.8 
  993000    231.85217   -8794.1235    33.864257   -8827.9877     5557.533 
  993200    226.92597   -8806.3153    33.144738     -8839.46   -23546.388 
  993400    270.31201   -8790.4089    39.481688   -8829.8906   -39030.431 
  993600    322.12128   -8784.3787    47.048935   -8831.4276    30481.709 
  993800    245.27285   -8799.6824    35.824477   -8835.5069   -8895.1108 
  994000    312.09913   -8787.7731    45.585103   -8833.3582    22503.884 
  994200    281.36826   -8781.2916    41.096561   -8822.3882    2711.0296 
  994400    237.85992   -8794.8702    34.741747   -8829.6119   -7834.1769 
  994600    363.63286   -8780.1908    53.112103   -8833.3029    21104.604 
  994800    328.57502   -8788.2009    47.991566   -8836.1925   -6211.9125 
  995000    279.41597   -8795.6471    40.811411   -8836.4585   -1758.3793 
  995200     283.3548   -8785.0104    41.386715   -8826.3971   -10086.818 
  995400    326.09815   -8777.8341    47.629796   -8825.4639   -16350.422 
  995600    310.30071   -8791.2824    45.322427   -8836.6048    10419.468 
  995800     208.2736   -8810.1622    30.420378   -8840.5826   -16660.303 
  996000    259.97181   -8797.8655    37.971403   -8835.8369   -31952.819 
  996200     359.6469   -8783.7888    52.529916   -8836.3187   -6085.7386 
  996400    248.31215   -8795.6248    36.268396   -8831.8932    -15696.65 
  996600    280.26146   -8789.6872    40.934903   -8830.6221    3062.7545 
  996800    309.69248   -8781.8056    45.233588   -8827.0392    20303.746 
  997000    270.26234   -8782.1725    39.474434   -8821.6469    736.40106 
  997200    255.64625   -8797.9574    37.339613    -8835.297   -49011.199 
  997400    299.50794   -8784.7218    43.746037   -8828.4679   -2164.5786 
  997600    316.79993   -8786.5056      46.2717   -8832.7773    19858.104 
  997800    266.32254   -8791.5241    38.898988   -8830.4231    26286.898 
  998000    347.69858   -8774.2353    50.784748   -8825.0201     23004.66 
  998200    270.55171   -8784.5134      39.5167   -8824.0301    38702.478 
  998400    259.19805   -8799.1311    37.858387   -8836.9895    55376.772 
  998600    280.47271   -8797.1529    40.965758   -8838.1186    -36968.65 
  998800    341.16134   -8786.9052    49.829921   -8836.7351   -17803.648 
  999000    284.24774   -8793.5575    41.517137   -8835.0746   -13466.127 
  999200    243.75008   -8800.9183    35.602062   -8836.5203    21053.161 
  999400    334.98923   -8779.9904    48.928424   -8828.9188   -8334.4455 
  999600     281.9001   -8780.3561    41.174242   -8821.5304   -12431.805 
  999800    254.00093    -8797.153    37.099298   -8834.2523   -13658.777 
 1000000    314.24677   -8789.6238    45.898786   -8835.5226    5485.9834 
Loop time of 2422.43 on 8 procs for 1000000 steps with 50 atoms

Performance: 8.917 ns/day, 2.692 hours/ns, 412.809 timesteps/s
99.4% CPU use with 8 MPI tasks x no OpenMP threads

MPI task timing breakdown:
Section |  min time  |  avg time  |  max time  |%varavg| %total
---------------------------------------------------------------
Pair    | 2003.7     | 2013.5     | 2028.5     |  16.4 | 83.12
Neigh   | 2.4809     | 2.4974     | 2.5189     |   0.8 |  0.10
Comm    | 34.187     | 49.322     | 58.958     | 105.1 |  2.04
Output  | 0.10455    | 0.11745    | 0.20013    |   9.1 |  0.00
Modify  | 355.1      | 355.39     | 355.68     |   0.9 | 14.67
Other   |            | 1.633      |            |       |  0.07

Nlocal:    6.25 ave 12 max 4 min
Histogram: 3 2 1 0 0 0 0 1 0 1
Nghost:    538.25 ave 550 max 532 min
Histogram: 2 3 0 0 1 0 0 0 1 1
Neighs:    798 ave 1480 max 522 min
Histogram: 3 2 1 0 0 0 0 1 0 1

Total # of neighbors = 6384
Ave neighs/atom = 127.68
Neighbor list builds = 3790
Dangerous builds = 0

unfix 1
unfix output
undump 1

Please see the log.cite file for references relevant to this simulation

Total wall time: 0:40:31
