LAMMPS (3 Mar 2020)
# Alpha
clear
units		real
dimension 3
boundary        p p p
atom_style	charge
newton on
read_data       O_1.lmp
  orthogonal box = (0 0 0) to (7.097 7.097 24.588)
  1 by 2 by 4 MPI processor grid
  reading atoms ...
  33 atoms
  read_data CPU = 0.0030316 secs

timestep 0.25

# ---------- Define Interatomic Potential ---------------------
pair_style      reax/c NULL checkqeq no
pair_coeff      * * ffield.reax C O
WARNING: Changed valency_val to valency_boc for X (../reaxc_ffield.cpp:315)
fix             2 all qeq/reax 1 0.0 10.0 1.0e-6 reax/c

#------------ Equilibration of the system -------------------------
reset_timestep 0

dump 1 all custom 10 min.lammpstrj id type x y z

minimize 1.0e-8 1.0e-8 100000 100000
WARNING: Using 'neigh_modify every 1 delay 0 check yes' setting during minimization (../min.cpp:190)
Neighbor list info ...
  update every 1 steps, delay 0 steps, check yes
  max neighbors/atom: 2000, page size: 100000
  master list distance cutoff = 12
  ghost atom cutoff = 12
  binsize = 6, bins = 2 2 5
  2 neighbor lists, perpetual/occasional/extra = 2 0 0
  (1) pair reax/c, perpetual
      attributes: half, newton off, ghost
      pair build: half/bin/newtoff/ghost
      stencil: half/ghost/bin/3d/newtoff
      bin: standard
  (2) fix qeq/reax, perpetual, copy from (1)
      attributes: half, newton off, ghost
      pair build: copy
      stencil: none
      bin: none
Per MPI rank memory allocation (min/avg/max) = 18.43 | 19.39 | 20.33 Mbytes
Step Temp E_pair E_mol TotEng Press 
       0            0   -5723.3394            0   -5723.3394   -101899.75 
      26            0   -5897.6397            0   -5897.6397    33272.424 
Loop time of 0.362082 on 8 procs for 26 steps with 33 atoms

99.3% CPU use with 8 MPI tasks x no OpenMP threads

Minimization stats:
  Stopping criterion = energy tolerance
  Energy initial, next-to-last, final = 
        -5723.33937938      -5897.6397276     -5897.63972897
  Force two-norm initial, final = 2725.87 144.718
  Force max component initial, final = 880.6 62.7164
  Final line search alpha, max atom move = 1.08844e-06 6.82627e-05
  Iterations, force evaluations = 26 136

MPI task timing breakdown:
Section |  min time  |  avg time  |  max time  |%varavg| %total
---------------------------------------------------------------
Pair    | 0.24998    | 0.26943    | 0.28935    |   3.3 | 74.41
Neigh   | 0          | 0          | 0          |   0.0 |  0.00
Comm    | 0.0029131  | 0.022768   | 0.04226    |  11.3 |  6.29
Output  | 3.8883e-05 | 5.6192e-05 | 8.2364e-05 |   0.0 |  0.02
Modify  | 0.068867   | 0.068879   | 0.068914   |   0.0 | 19.02
Other   |            | 0.0009524  |            |       |  0.26

Nlocal:    4.125 ave 9 max 0 min
Histogram: 4 0 0 0 0 0 0 0 3 1
Nghost:    661.5 ave 683 max 639 min
Histogram: 1 0 2 0 1 1 0 0 2 1
Neighs:    785.75 ave 1727 max 0 min
Histogram: 4 0 0 0 0 0 0 0 3 1

Total # of neighbors = 6286
Ave neighs/atom = 190.485
Neighbor list builds = 0
Dangerous builds = 0

###
min_style cg
minimize 1.0e-8 1.0e-8 100000 100000
WARNING: Using 'neigh_modify every 1 delay 0 check yes' setting during minimization (../min.cpp:190)
Per MPI rank memory allocation (min/avg/max) = 18.43 | 19.39 | 20.33 Mbytes
Step Temp E_pair E_mol TotEng Press 
      26            0   -5897.6397            0   -5897.6397    33272.428 
      94            0   -5905.5861            0   -5905.5861     27043.84 
Loop time of 1.0879 on 8 procs for 68 steps with 33 atoms

99.4% CPU use with 8 MPI tasks x no OpenMP threads

Minimization stats:
  Stopping criterion = linesearch alpha is zero
  Energy initial, next-to-last, final = 
        -5897.63972824     -5905.58608846     -5905.58608861
  Force two-norm initial, final = 144.718 32.7176
  Force max component initial, final = 62.7164 16.8394
  Final line search alpha, max atom move = 7.38424e-12 1.24347e-10
  Iterations, force evaluations = 68 429

MPI task timing breakdown:
Section |  min time  |  avg time  |  max time  |%varavg| %total
---------------------------------------------------------------
Pair    | 0.74524    | 0.80975    | 0.876      |   5.8 | 74.43
Neigh   | 0          | 0          | 0          |   0.0 |  0.00
Comm    | 0.0088066  | 0.074853   | 0.13943    |  19.1 |  6.88
Output  | 0.00012996 | 0.00017406 | 0.00027749 |   0.0 |  0.02
Modify  | 0.2005     | 0.20052    | 0.20057    |   0.0 | 18.43
Other   |            | 0.002597   |            |       |  0.24

Nlocal:    4.125 ave 9 max 0 min
Histogram: 4 0 0 0 0 0 0 0 3 1
Nghost:    658 ave 683 max 637 min
Histogram: 2 0 1 0 2 1 0 0 1 1
Neighs:    784.25 ave 1723 max 0 min
Histogram: 4 0 0 0 0 0 0 0 3 1

Total # of neighbors = 6274
Ave neighs/atom = 190.121
Neighbor list builds = 0
Dangerous builds = 0

###
fix 1 all box/relax aniso 0.0
min_style cg
minimize 1.0e-8 1.0e-8 100000 100000
WARNING: Using 'neigh_modify every 1 delay 0 check yes' setting during minimization (../min.cpp:190)
Per MPI rank memory allocation (min/avg/max) = 18.43 | 19.39 | 20.33 Mbytes
Step Temp E_pair E_mol TotEng Press Volume 
      94            0   -5905.5861            0   -5905.5861    27043.838    1238.4339 
     130            0   -5908.1021            0   -5908.1021   -412.22662    1248.0303 
Loop time of 0.164506 on 8 procs for 36 steps with 33 atoms

99.4% CPU use with 8 MPI tasks x no OpenMP threads

Minimization stats:
  Stopping criterion = energy tolerance
  Energy initial, next-to-last, final = 
        -5905.58608859     -5908.10207959     -5908.10208091
  Force two-norm initial, final = 914.506 206.67
  Force max component initial, final = 769.898 60.5548
  Final line search alpha, max atom move = 1.73621e-12 1.05136e-10
  Iterations, force evaluations = 36 70

MPI task timing breakdown:
Section |  min time  |  avg time  |  max time  |%varavg| %total
---------------------------------------------------------------
Pair    | 0.1166     | 0.12911    | 0.14344    |   2.5 | 78.48
Neigh   | 0          | 0          | 0          |   0.0 |  0.00
Comm    | 0.001158   | 0.015438   | 0.027908   |   7.2 |  9.38
Output  | 4.3662e-05 | 5.8e-05    | 9.0691e-05 |   0.0 |  0.04
Modify  | 0.018514   | 0.01852    | 0.018524   |   0.0 | 11.26
Other   |            | 0.001379   |            |       |  0.84

Nlocal:    4.125 ave 9 max 0 min
Histogram: 4 0 0 0 0 0 0 0 3 1
Nghost:    635.75 ave 659 max 602 min
Histogram: 1 0 0 1 0 1 3 0 1 1
Neighs:    783.5 ave 1720 max 0 min
Histogram: 4 0 0 0 0 0 0 0 3 1

Total # of neighbors = 6268
Ave neighs/atom = 189.939
Neighbor list builds = 0
Dangerous builds = 0

unfix 1
###
min_style cg
minimize 1.0e-8 1.0e-8 100000 100000
WARNING: Using 'neigh_modify every 1 delay 0 check yes' setting during minimization (../min.cpp:190)
Per MPI rank memory allocation (min/avg/max) = 18.43 | 19.39 | 20.33 Mbytes
Step Temp E_pair E_mol TotEng Press 
     130            0   -5908.1021            0   -5908.1021    -412.2236 
     137            0   -5908.6405            0   -5908.6405    12423.986 
Loop time of 0.202737 on 8 procs for 7 steps with 33 atoms

99.5% CPU use with 8 MPI tasks x no OpenMP threads

Minimization stats:
  Stopping criterion = linesearch alpha is zero
  Energy initial, next-to-last, final = 
         -5908.1020807     -5908.64047123      -5908.6404714
  Force two-norm initial, final = 198.815 54.9507
  Force max component initial, final = 60.5548 24.0049
  Final line search alpha, max atom move = 3.91027e-12 9.38655e-11
  Iterations, force evaluations = 7 87

MPI task timing breakdown:
Section |  min time  |  avg time  |  max time  |%varavg| %total
---------------------------------------------------------------
Pair    | 0.14178    | 0.15356    | 0.16612    |   2.4 | 75.74
Neigh   | 0          | 0          | 0          |   0.0 |  0.00
Comm    | 0.0014623  | 0.013971   | 0.025739   |   7.9 |  6.89
Output  | 0          | 0          | 0          |   0.0 |  0.00
Modify  | 0.034728   | 0.034733   | 0.034739   |   0.0 | 17.13
Other   |            | 0.0004761  |            |       |  0.23

Nlocal:    4.125 ave 9 max 0 min
Histogram: 4 0 0 0 0 0 0 0 3 1
Nghost:    607.75 ave 627 max 583 min
Histogram: 2 0 0 0 1 1 0 1 1 2
Neighs:    779.5 ave 1708 max 0 min
Histogram: 4 0 0 0 0 0 0 0 3 1

Total # of neighbors = 6236
Ave neighs/atom = 188.97
Neighbor list builds = 0
Dangerous builds = 0

###
fix 1 all box/relax aniso 0.0
min_style cg
minimize 1.0e-8 1.0e-8 100000 100000
WARNING: Using 'neigh_modify every 1 delay 0 check yes' setting during minimization (../min.cpp:190)
Per MPI rank memory allocation (min/avg/max) = 18.43 | 19.39 | 20.33 Mbytes
Step Temp E_pair E_mol TotEng Press Volume 
     137            0   -5908.6405            0   -5908.6405    12423.986    1248.0303 
     163            0   -5909.2221            0   -5909.2221    472.73216    1252.1714 
Loop time of 0.261824 on 8 procs for 26 steps with 33 atoms

99.4% CPU use with 8 MPI tasks x no OpenMP threads

Minimization stats:
  Stopping criterion = energy tolerance
  Energy initial, next-to-last, final = 
        -5908.64047126      -5909.2219981     -5909.22205164
  Force two-norm initial, final = 433.316 92.9164
  Force max component initial, final = 368.497 33.9853
  Final line search alpha, max atom move = 6.10342e-09 2.07426e-07
  Iterations, force evaluations = 26 120

MPI task timing breakdown:
Section |  min time  |  avg time  |  max time  |%varavg| %total
---------------------------------------------------------------
Pair    | 0.19362    | 0.20929    | 0.22669    |   2.8 | 79.94
Neigh   | 0          | 0          | 0          |   0.0 |  0.00
Comm    | 0.0019108  | 0.019252   | 0.034923   |   9.2 |  7.35
Output  | 4.3563e-05 | 5.5798e-05 | 8.5541e-05 |   0.0 |  0.02
Modify  | 0.0313     | 0.031314   | 0.031331   |   0.0 | 11.96
Other   |            | 0.001913   |            |       |  0.73

Nlocal:    4.125 ave 9 max 0 min
Histogram: 4 0 0 0 0 0 0 0 3 1
Nghost:    607.75 ave 627 max 583 min
Histogram: 2 0 0 0 1 1 0 1 1 2
Neighs:    779.5 ave 1708 max 0 min
Histogram: 4 0 0 0 0 0 0 0 3 1

Total # of neighbors = 6236
Ave neighs/atom = 188.97
Neighbor list builds = 0
Dangerous builds = 0

unfix 1
###
min_style cg
minimize 1.0e-8 1.0e-8 100000 100000
WARNING: Using 'neigh_modify every 1 delay 0 check yes' setting during minimization (../min.cpp:190)
Per MPI rank memory allocation (min/avg/max) = 18.43 | 19.39 | 20.33 Mbytes
Step Temp E_pair E_mol TotEng Press 
     163            0   -5909.2221            0   -5909.2221    472.72132 
     165            0   -5909.2264            0   -5909.2264    2613.0246 
Loop time of 0.250718 on 8 procs for 2 steps with 33 atoms

99.4% CPU use with 8 MPI tasks x no OpenMP threads

Minimization stats:
  Stopping criterion = linesearch alpha is zero
  Energy initial, next-to-last, final = 
        -5909.22205317     -5909.22643142     -5909.22642962
  Force two-norm initial, final = 90.0864 51.1607
  Force max component initial, final = 33.9853 18.1992
  Final line search alpha, max atom move = 2.55869e-12 4.65662e-11
  Iterations, force evaluations = 2 116

MPI task timing breakdown:
Section |  min time  |  avg time  |  max time  |%varavg| %total
---------------------------------------------------------------
Pair    | 0.17961    | 0.19279    | 0.20961    |   2.6 | 76.89
Neigh   | 0          | 0          | 0          |   0.0 |  0.00
Comm    | 0.001939   | 0.01869    | 0.03186    |   8.5 |  7.45
Output  | 0          | 0          | 0          |   0.0 |  0.00
Modify  | 0.038667   | 0.038685   | 0.038698   |   0.0 | 15.43
Other   |            | 0.0005556  |            |       |  0.22

Nlocal:    4.125 ave 9 max 0 min
Histogram: 4 0 0 0 0 0 0 0 3 1
Nghost:    602.75 ave 627 max 583 min
Histogram: 2 0 1 0 2 1 0 0 0 2
Neighs:    774.5 ave 1700 max 0 min
Histogram: 4 0 0 0 0 0 0 0 3 1

Total # of neighbors = 6196
Ave neighs/atom = 187.758
Neighbor list builds = 0
Dangerous builds = 0

undump 1
#############
#----------- Thermo ------------
reset_timestep 0
thermo  200

thermo_style    custom step temp etotal ke pe press
velocity all create 300 12345 mom yes rot yes
fix 1 all npt temp 300 300 25.0 iso 0.0 0.0 250.0

variable vpe equal pe
variable vtemp equal temp
variable vstep equal step

fix output all print 2500 "${vstep} ${vtemp} ${vpe}" file temp-tpdh-Pt.dat screen no

dump 1 all custom 2500 thermo-tpdh-Pt.lammpstrj id type x y z

run 1000000
Per MPI rank memory allocation (min/avg/max) = 17.31 | 18.27 | 19.2 Mbytes
Step Temp TotEng KinEng PotEng Press 
       0          300   -5880.6107    28.615776   -5909.2264    3657.6734 
     200    216.25523   -5868.5389    20.627704   -5889.1667   -10638.455 
     400    349.56059   -5860.4147    33.343159   -5893.7579    8313.2214 
     600    223.87413   -5873.7969     21.35444   -5895.1513   -47148.967 
     800     299.7498   -5863.0468     28.59191   -5891.6388    5241.1599 
    1000    275.02049   -5874.6745    26.233083   -5900.9076    5598.6893 
    1200    256.63392   -5871.6602    24.479263   -5896.1395   -16658.796 
    1400    256.16172   -5861.5544    24.434222   -5885.9886   -4888.1241 
    1600     299.1459   -5869.3256    28.534307   -5897.8599    9353.4038 
    1800    242.98164   -5870.4443    23.177028   -5893.6214   -20867.059 
    2000     313.7037   -5867.0517    29.922917   -5896.9747   -5096.9827 
    2200    322.19673    -5877.227    30.733032   -5907.9601    19543.961 
    2400    298.27587   -5866.1818    28.451319   -5894.6331    2153.1698 
    2600    331.31996   -5862.6604     31.60326   -5894.2637   -16068.119 
    2800    233.96211   -5874.1785    22.316691   -5896.4952    6907.9526 
    3000    373.52156   -5858.0763    35.628698    -5893.705     -7682.04 
    3200    343.97096   -5860.0824    32.809987   -5892.8924    14397.335 
    3400    290.19441   -5872.5418    27.680461   -5900.2223    3718.4345 
    3600    312.91714   -5864.7658    29.847889   -5894.6137   -12566.225 
    3800    298.03317   -5862.9135    28.428169   -5891.3417    24246.091 
    4000    334.27028   -5864.2807    31.884679   -5896.1654   -2971.2783 
    4200    229.91387   -5863.7269    21.930547   -5885.6574     -12699.2 
    4400    306.08742   -5863.8552    29.196431   -5893.0516    7146.7651 
    4600    312.28601   -5856.0448    29.787689   -5885.8325    21457.241 
    4800     290.8509   -5868.8773    27.743081   -5896.6204   -7190.3136 
    5000    265.96092   -5872.8382    25.368928   -5898.2072     1574.469 
    5200    325.34026   -5863.9648    31.032881   -5894.9977   -9297.2134 
    5400    283.30488   -5867.8364    27.023297   -5894.8597    16481.256 
    5600    258.83944   -5867.9617    24.689638   -5892.6514    10169.671 
    5800    254.74246   -5879.9092    24.298844   -5904.2081    9389.2141 
    6000    318.63532   -5867.5345    30.393324   -5897.9278    -34777.05 
    6200     373.3035   -5856.6493    35.607898   -5892.2572   -5267.8871 
    6400    251.21773   -5870.6018    23.962634   -5894.5644   -1314.6293 
    6600    370.83547   -5864.9029    35.372483   -5900.2753   -12859.611 
    6800    243.78774   -5869.8272    23.253918   -5893.0811   -2587.5305 
    7000     299.3971    -5863.114    28.558269   -5891.6723   -4400.8671 
    7200    328.65799    -5858.799    31.349345   -5890.1483    -9215.614 
    7400    226.72897   -5873.4028    21.626752   -5895.0296   -29871.474 
    7600    257.67605   -5864.2096    24.578668   -5888.7883   -11235.234 
    7800    355.21798   -5863.7662    33.882795    -5897.649    9671.4597 
    8000    223.70421   -5873.3451    21.338233   -5894.6833   -16909.619 
    8200    329.74077   -5868.4936    31.452627   -5899.9463   -5873.1982 
    8400    312.70113   -5861.0521    29.827286   -5890.8793   -9026.2246 
    8600    218.99523   -5872.1739    20.889062   -5893.0629    746.98115 
    8800    297.72653   -5865.4416    28.398919   -5893.8406    622.34289 
    9000    390.80957   -5861.2557    37.277731   -5898.5335   -1347.3984 
    9200    306.48597   -5870.3758    29.234447   -5899.6103   -8029.8912 
    9400    233.27022   -5873.2164    22.250695   -5895.4671    3970.1564 
    9600    274.24902   -5867.2102    26.159496   -5893.3697   -19582.162 
    9800    311.83067   -5859.7516    29.744255   -5889.4958    8112.5934 
   10000    265.96447   -5871.2851    25.369266   -5896.6544    6399.8841 
   10200    300.56417    -5863.348    28.669591   -5892.0176   -1245.5961 
   10400    222.98176   -5859.1882     21.26932   -5880.4575   -10339.365 
   10600    279.76812   -5871.8629     26.68594   -5898.5488    9914.3876 
   10800    311.63163   -5862.6896     29.72527   -5892.4149     831.5637 
   11000    301.10367   -5858.6837    28.721051   -5887.4047   -8072.3416 
   11200    340.51194   -5864.7745    32.480046   -5897.2545   -12079.848 
   11400    276.14441   -5872.3873    26.340289   -5898.7276    3863.1464 
   11600     244.7335    -5858.459    23.344131   -5881.8031    14276.283 
   11800    368.58164   -5862.2149      35.1575   -5897.3724   -4279.8217 
   12000    272.70059    -5869.601    26.011797   -5895.6128   -1950.7372 
   12200    372.40878   -5863.3553    35.522555   -5898.8779     3107.907 
   12400    271.72904   -5865.2828    25.919125    -5891.202    14303.835 
   12600    278.46254   -5874.8087    26.561406   -5901.3701    44617.277 
   12800    350.55161   -5863.7796    33.437689   -5897.2173   -6405.5863 
   13000    332.30729   -5864.9136    31.697437   -5896.6111    14424.035 
   13200    288.76388   -5867.7771    27.544008   -5895.3211   -12648.291 
   13400    322.95449   -5867.2925    30.805311   -5898.0978   -55807.979 
   13600    274.52953   -5855.3116    26.186252   -5881.4979    39824.875 
   13800    235.36991   -5869.0926    22.450976   -5891.5436    14224.755 
   14000    332.41768   -5863.8514    31.707967   -5895.5594   -10123.951 
   14200    283.47506   -5860.0853     27.03953   -5887.1248    16239.245 
   14400    269.43306   -5870.1508    25.700121    -5895.851    4030.0444 
   14600    303.95301   -5860.5143    28.992838   -5889.5072    -7743.101 
   14800    296.47593    -5860.961    28.279629   -5889.2407   -689.05872 
   15000    288.92679   -5869.2261    27.559548   -5896.7857    12161.239 
   15200     332.7289   -5856.5912    31.737653   -5888.3288   -5444.4094 
   15400    338.00673   -5860.8557    32.241084   -5893.0968   -1207.8978 
   15600    357.42478   -5867.1043    34.093292   -5901.1976     26838.37 
   15800    291.64745   -5862.6068    27.819061   -5890.4259   -6274.6747 
   16000    329.02469   -5858.0113    31.384323   -5889.3956   -5308.4329 
   16200    281.04365   -5870.2891    26.807607   -5897.0967    11535.044 
   16400    340.87321   -5864.0485    32.514505    -5896.563     35763.27 
   16600    313.72098   -5859.4592    29.924565   -5889.3837   -8608.3526 
   16800    321.76375   -5870.6859    30.691732   -5901.3777    19169.495 
   17000    286.50799   -5870.0038    27.328829   -5897.3327    12316.512 
   17200    259.09947     -5862.17    24.714442   -5886.8845        21567 
   17400     260.2722   -5872.5047    24.826303    -5897.331    13832.966 
   17600    297.67774   -5869.7167    28.394266    -5898.111    18804.248 
   17800    354.65903   -5861.7645    33.829478    -5895.594   -21621.356 
   18000    232.65045   -5866.1873    22.191578   -5888.3788    17039.638 
   18200    201.70838   -5878.3002    19.240139   -5897.5403     7998.366 
   18400    364.36213   -5865.0147    34.755018   -5899.7697   -2021.5758 
   18600    327.68824   -5863.4369    31.256845   -5894.6937    4432.7799 
   18800    240.39346   -5873.4733    22.930152   -5896.4034   -7439.0515 
   19000    281.91922   -5861.7541    26.891124   -5888.6452    5471.0961 
   19200    312.07687    -5863.466     29.76774   -5893.2337    17598.192 
   19400     327.6375   -5869.6093    31.252005   -5900.8613   -1897.4266 
   19600    466.42976   -5852.4304    44.490832   -5896.9212    15943.599 
   19800    301.10025   -5864.6887    28.720724   -5893.4094   -18073.328 
   20000    287.42075   -5873.8813    27.415893   -5901.2972    17760.005 
   20200    349.42888   -5859.9542    33.330596   -5893.2848    23275.102 
   20400    332.23763   -5862.6404    31.690793   -5894.3312   -14367.399 
   20600     340.2915    -5868.303    32.459018    -5900.762   -26249.208 
   20800    216.09902   -5879.9127    20.612804   -5900.5255   -16675.255 
   21000    307.09348   -5865.1754    29.292395   -5894.4678    13739.219 
   21200    331.92979   -5861.4511    31.661429   -5893.1126    -4172.627 
   21400    227.93359   -5873.6889    21.741656   -5895.4305    17298.901 
   21600    305.42664   -5866.9224    29.133402   -5896.0558    10340.909 
   21800    313.20452   -5862.5084    29.875301   -5892.3837   -17986.252 
   22000    259.70848   -5867.0282    24.772533   -5891.8007   -24597.959 
   22200    273.15664   -5870.0757    26.055298    -5896.131   -2437.2001 
   22400    308.89612   -5859.3586    29.464341    -5888.823   -27431.519 
   22600    248.94702   -5868.7788    23.746041   -5892.5248   -30823.537 
   22800    203.67075   -5882.5582    19.427322   -5901.9855   -10618.729 
   23000      304.137    -5871.201    29.010388   -5900.2113   -426.59689 
   23200    326.00029   -5863.2171    31.095838   -5894.3129    16952.336 
   23400    292.60111   -5872.5916    27.910027   -5900.5016   -14548.516 
   23600    287.78699   -5871.7222    27.450827    -5899.173    28744.415 
   23800     295.3701   -5864.4955     28.17415   -5892.6696   -16615.645 
   24000    327.23815   -5864.7523    31.213912   -5895.9662    24596.646 
   24200     290.1757   -5864.8266    27.678677   -5892.5053    -884.5662 
   24400    229.92429   -5875.4534    21.931541   -5897.3849    13753.401 
   24600    284.34448    -5863.195     27.12246   -5890.3174    22840.724 
   24800    266.82118   -5868.3445    25.450984   -5893.7955    23296.227 
   25000    276.83465   -5867.6916    26.406128   -5894.0978    20716.031 
   25200    357.37056   -5856.0347     34.08812   -5890.1228   -16141.499 
   25400    269.30158   -5870.6438    25.687579   -5896.3314    26578.709 
   25600    250.34237   -5870.2237    23.879138   -5894.1028    15537.293 
   25800    300.24579   -5862.3549    28.639222   -5890.9941   -3690.7752 
   26000    298.68195   -5867.6646    28.490053   -5896.1547    7532.3431 
   26200    307.06861   -5870.8757    29.290022   -5900.1657    17182.343 
   26400    319.98562    -5860.827    30.522123   -5891.3491   -15761.407 
   26600    308.55794   -5866.8022    29.432084   -5896.2343    3537.1817 
   26800     216.5334    -5873.162    20.654238   -5893.8163    30540.212 
   27000    365.68083   -5860.7413    34.880803   -5895.6221    -966.2109 
   27200    282.78808   -5871.5153    26.974001   -5898.4893   -5718.2972 
   27400    274.19916   -5870.9243     26.15474    -5897.079   -20530.438 
   27600      256.064   -5868.3929    24.424901   -5892.8178   -5403.5448 
   27800    337.16774   -5855.5962    32.161056   -5887.7573    10062.815 
   28000    285.55585    -5863.445    27.238008    -5890.683    10648.372 
   28200     310.7398   -5865.1353    29.640203   -5894.7755   -3329.1101 
   28400    431.96001   -5851.5705    41.202904   -5892.7734   -3748.5498 
   28600     329.6145   -5860.3201    31.440583   -5891.7606   -27335.891 
   28800    271.61452     -5867.24    25.908201   -5893.1482    590.48214 
   29000     263.7498   -5868.9428    25.158018   -5894.1008   -2494.7502 
   29200    346.50731   -5856.9936    33.051919   -5890.0455    13093.276 
   29400    262.90979   -5867.2916    25.077892   -5892.3695   -14976.483 
   29600    391.12912    -5857.501    37.308211   -5894.8092    8760.5692 
   29800    396.72788      -5854.3    37.842254   -5892.1423    14884.042 
   30000    301.47689   -5866.2988    28.756651   -5895.0554    18182.513 
   30200    233.29676   -5868.2521    22.253227   -5890.5054    -13913.36 
   30400    282.71945   -5872.3574    26.967456   -5899.3249    11830.038 
   30600    353.57109   -5860.6494    33.725705   -5894.3751    4349.4925 
   30800    292.97873   -5873.2092    27.946046   -5901.1553   -7640.9186 
   31000    288.06161   -5871.3456    27.477022   -5898.8226   -5903.5475 
   31200    291.03309   -5865.0822    27.760459   -5892.8427    31911.487 
   31400    219.82635   -5871.8613    20.968339   -5892.8296   -3520.9676 
   31600    256.42214   -5876.7273    24.459062   -5901.1864    12399.585 
   31800    320.83464   -5865.6906    30.603107   -5896.2937   -23804.015 
   32000    276.80589   -5860.3192    26.403385   -5886.7226   -10922.976 
   32200    383.45961   -5859.5481    36.576649   -5896.1248   -15531.141 
   32400    281.33574    -5869.622    26.835469   -5896.4575   -12644.826 
   32600    326.87293   -5856.2305    31.179075   -5887.4096    10014.878 
   32800    379.23065   -5861.7275    36.173266   -5897.9008    15817.542 
   33000    278.73652   -5866.8812     26.58754   -5893.4687    -3862.468 
   33200    295.76638   -5864.1022    28.211949   -5892.3141    21366.086 
   33400    297.83733   -5867.1738    28.409488   -5895.5833    21419.943 
   33600     304.4244   -5867.5903    29.037802   -5896.6281    8285.4838 
   33800    297.51421   -5861.9974    28.378667    -5890.376   -9657.0169 
   34000    286.39214   -5871.9848    27.317778   -5899.3026    11043.188 
   34200    335.73566   -5866.7475    32.024455    -5898.772   -6871.1294 
   34400    336.38164   -5863.0437    32.086073   -5895.1297    5756.3972 
   34600    277.22347   -5871.2966    26.443217   -5897.7398    6068.3431 
   34800    258.46633   -5876.3252    24.654049   -5900.9792    23244.794 
   35000    345.06585   -5862.8821    32.914424   -5895.7966   -4120.5542 
   35200    250.53303   -5872.8835    23.897324   -5896.7808    13633.633 
   35400     300.6487   -5869.9219    28.677654   -5898.5996     -1157.19 
   35600    345.67731   -5861.7996    32.972749   -5894.7723   -14991.315 
   35800    197.42007   -5869.2161    18.831096   -5888.0471    12342.982 
   36000    328.02214   -5868.5357    31.288694   -5899.8243   -9404.3983 
   36200    417.47614   -5856.6165    39.821346   -5896.4378   -29752.797 
   36400    239.71397   -5871.9463    22.865338   -5894.8117   -21415.583 
   36600    248.67151   -5872.0466    23.719761   -5895.7663    -10474.64 
   36800    315.19492   -5862.6265    30.065158   -5892.6917    -9594.253 
   37000     339.3995   -5856.3016    32.373934   -5888.6755    11678.022 
   37200    258.70072   -5870.4223    24.676407   -5895.0987    1146.8595 
   37400    361.04752   -5868.5625     34.43885   -5903.0014     8543.691 
   37600    304.14586    -5862.754    29.011233   -5891.7652    19970.283 
   37800    244.12126   -5875.2151    23.285732   -5898.5008   -14976.763 
   38000    321.54623   -5866.6992    30.670983   -5897.3701     14434.85 
   38200     273.8173   -5863.0523    26.118315   -5889.1706    8887.5445 
   38400    249.16188   -5877.4963    23.766536   -5901.2628    4754.5055 
   38600    242.21867   -5870.7047    23.104251   -5893.8089   -2727.3306 
   38800    321.77253   -5863.0103    30.692569   -5893.7028    3276.6198 
   39000    264.58547   -5871.2651    25.237729   -5896.5029    17202.499 
   39200    232.87102   -5874.7883    22.212617   -5897.0009   -3819.8259 
   39400    293.62987   -5865.9349    28.008156   -5893.9431   -11819.306 
   39600    382.47319    -5854.168    36.482558   -5890.6506    14909.696 
   39800    276.40472   -5863.9012    26.365119   -5890.2663   -925.99029 
   40000    289.21688     -5866.87    27.587219   -5894.4572   -12927.519 
   40200    361.89321   -5852.9741    34.519517   -5887.4936      15307.3 
   40400    300.62242   -5862.0864    28.675147   -5890.7616   -4736.8841 
   40600    245.98826   -5864.7086    23.463817   -5888.1725   -19647.892 
   40800    385.61182   -5862.0258    36.781938   -5898.8077    8807.0953 
   41000     276.7369   -5873.8447    26.396805   -5900.2415   -6421.9005 
   41200    307.52264   -5865.3065    29.333331   -5894.6398    -3516.142 
   41400     265.6397   -5867.4952    25.338287   -5892.8335    -14588.59 
   41600    268.73485   -5869.9506    25.633521   -5895.5841     3704.849 
   41800    321.73676   -5858.1197    30.689157   -5888.8089    802.82105 
   42000    224.68908   -5870.0583    21.432175   -5891.4905   -52069.242 
   42200    366.82348   -5866.6602    34.989795     -5901.65   -2977.8032 
   42400    290.94343   -5868.9131    27.751907    -5896.665   -12579.867 
   42600    335.04342   -5860.1479    31.958425   -5892.1063    2042.2359 
   42800    298.70853   -5863.6551    28.492589   -5892.1477    6521.7471 
   43000    355.40245   -5870.8947     33.90039   -5904.7951   -5833.1256 
   43200    394.61809   -5857.3865     37.64101   -5895.0275   -8758.5034 
   43400    373.48101   -5844.7901    35.624831    -5880.415   -19477.803 
   43600    311.34453   -5862.4186    29.697885   -5892.1165    9154.0369 
   43800    284.58936   -5872.0985    27.145818   -5899.2444   -6948.9309 
   44000    304.82257   -5857.5459    29.075782   -5886.6217   -22592.575 
   44200    319.04919   -5860.9279    30.432801   -5891.3607    10388.653 
   44400    286.17542   -5865.8403    27.297106   -5893.1374   -18025.568 
   44600    266.49777   -5871.2531    25.420135   -5896.6732   -991.87368 
   44800     269.2315   -5876.4845    25.680894   -5902.1654    6306.1596 
   45000    345.39972   -5862.3864    32.946271   -5895.3327    6590.3466 
   45200    238.93122   -5868.1122    22.790674   -5890.9029    4430.0517 
   45400    258.41978   -5877.9893    24.649609   -5902.6389   -1754.9322 
   45600    257.98545   -5870.9306     24.60818   -5895.5388   -34212.458 
   45800    279.15992   -5863.2832    26.627926   -5889.9111    13938.796 
   46000    373.18499   -5861.9077    35.596594   -5897.5043    6516.2206 
   46200    266.16493   -5873.5742    25.388387   -5898.9626    389.87181 
   46400    341.83881   -5866.3292     32.60661   -5898.9358    7296.0533 
   46600    332.92808   -5858.1509    31.756651   -5889.9076    1929.1917 
   46800    270.66716   -5865.6677    25.817836   -5891.4855     24957.72 
   47000     287.0448   -5862.6821    27.380033   -5890.0621   -7966.8859 
   47200    271.45654   -5876.8802    25.893132   -5902.7734    24304.105 
   47400    234.53646   -5867.1182    22.371476   -5889.4897     20517.43 
   47600    242.50217    -5864.673    23.131293   -5887.8043    9955.0334 
   47800    318.57995   -5863.3364    30.388042   -5893.7245    1394.5964 
   48000    230.43203   -5874.6947    21.979972   -5896.6746    10480.143 
   48200    315.56855   -5862.2383    30.100797   -5892.3391    21373.893 
   48400    304.75657   -5866.3188    29.069487   -5895.3883   -21314.333 
   48600    275.02457   -5871.8791    26.233472   -5898.1126    8945.2381 
   48800    396.37867   -5857.7654    37.808945   -5895.5744   -12868.701 
   49000    251.60341   -5870.6106    23.999423   -5894.6101    3779.3332 
   49200    327.67776   -5866.5325    31.255845   -5897.7883     28113.94 
   49400    272.62529   -5867.3497    26.004614   -5893.3543    3776.3054 
   49600    226.54009   -5877.7885    21.608735   -5899.3973    5810.5583 
   49800    283.80416   -5866.2454    27.070921   -5893.3163    11181.851 
   50000     353.5721   -5863.4353      33.7258   -5897.1611   -38601.197 
   50200    239.24962   -5871.0894    22.821045   -5893.9104   -10308.994 
   50400    264.55464   -5865.5234    25.234788   -5890.7581    17700.562 
   50600    261.75483   -5864.0852    24.967726   -5889.0529   -3010.2268 
   50800    227.63295   -5871.0228    21.712979   -5892.7358    6330.5037 
   51000    290.90066   -5865.6864    27.747827   -5893.4343    558.29215 
   51200    351.67193   -5860.6409    33.544551   -5894.1855    30799.121 
   51400    217.63878   -5873.6151    20.759676   -5894.3747    14771.912 
   51600    319.96988   -5868.4601    30.520622   -5898.9807   -9726.4932 
   51800    315.73917   -5866.8081    30.117071   -5896.9252    12590.864 
   52000    266.69132   -5859.8813    25.438598   -5885.3199    6639.6923 
   52200    343.88647    -5860.563    32.801928   -5893.3649    5113.7247 
   52400    282.72025   -5869.7886    26.967531   -5896.7562   -2351.1932 
   52600    241.58155   -5864.8252    23.043479   -5887.8687     3829.905 
   52800    324.62905   -5860.2361    30.965041   -5891.2011    -5149.933 
   53000     259.7818   -5871.6656    24.779527   -5896.4451    10188.296 
   53200    294.87153   -5859.4759    28.126593   -5887.6025    13226.772 
   53400    293.15101   -5861.9258    27.962479   -5889.8883   -14177.094 
   53600    285.78861   -5870.5814     27.26021   -5897.8417   -1709.1071 
   53800    354.59323   -5863.2429    33.823202   -5897.0661   -7447.7434 
   54000    324.03465   -5861.4106    30.908344   -5892.3189    25274.474 
   54200    271.58238   -5869.6865    25.905135   -5895.5916    1247.7594 
   54400    319.82265   -5864.0161    30.506578   -5894.5226     19912.39 
   54600    260.41077   -5863.5585    24.839522    -5888.398   -33700.856 
   54800    231.44174   -5874.2395    22.076283   -5896.3158    22617.301 
   55000    329.11876   -5862.1161    31.393296   -5893.5094   -8073.3457 
   55200    335.85089    -5865.602    32.035447   -5897.6374    2858.0128 
   55400    228.98706   -5881.2055    21.842141   -5903.0476   -12932.344 
   55600     261.9224   -5873.0912     24.98371    -5898.075   -8358.3437 
   55800    374.49545    -5861.025    35.721593   -5896.7466    5779.0235 
   56000    234.16089   -5870.9796    22.335652   -5893.3152    6440.2424 
   56200    247.56634   -5882.4502    23.614344   -5906.0646    1443.5407 
   56400    319.17656   -5867.7746     30.44495   -5898.2196    16439.091 
   56600    342.63659   -5859.0987    32.682707   -5891.7814    12067.285 
   56800    310.05227   -5869.2684    29.574622   -5898.8431    2814.5029 
   57000    306.86151    -5869.519    29.270268   -5898.7892   -8229.3752 
   57200    317.41227   -5863.5107    30.276662   -5893.7874   -10725.345 
   57400    305.69004   -5858.2803    29.158526   -5887.4389   -3126.4953 
   57600    230.54419   -5871.4902     21.99067   -5893.4809   -13880.821 
   57800    332.76673   -5858.4574    31.741261   -5890.1987     5780.132 
   58000    309.89517   -5860.9081    29.559636   -5890.4677   -2589.9754 
   58200    289.27907   -5867.2379    27.593151    -5894.831    6414.0663 
   58400    405.65789   -5848.4826    38.694052   -5887.1767   -14245.332 
   58600    302.15843   -5860.2735    28.821661   -5889.0951    -18150.85 
   58800    297.35525   -5869.0539    28.363505   -5897.4174   -14116.374 
   59000    286.99576   -5867.4808    27.375355   -5894.8562    17749.646 
   59200    327.60712   -5859.6502    31.249107   -5890.8994   -18315.201 
   59400    249.86836   -5871.5956    23.833923   -5895.4295    2555.6391 
   59600     275.2624   -5874.8212    26.256158   -5901.0773   -13904.461 
   59800    356.80214   -5860.0505    34.033901   -5894.0844    1289.9135 
   60000    271.36759   -5867.4878    25.884648   -5893.3725     2389.865 
   60200    306.90764   -5869.6794    29.274668   -5898.9541    20520.789 
   60400    319.61055   -5859.3791    30.486347   -5889.8654    21753.609 
   60600    289.31422   -5864.4099    27.596503   -5892.0064    20592.176 
   60800    251.30481   -5869.2157    23.970941   -5893.1866    -40730.99 
   61000    244.70206   -5866.9696    23.341132   -5890.3107    25808.694 
   61200      350.951   -5857.8442    33.475785     -5891.32    18133.734 
   61400    280.08702   -5874.8741    26.716358   -5901.5904    1980.2782 
   61600    279.71507   -5866.5286     26.68088   -5893.2095   -10271.989 
   61800    366.10489   -5861.6226    34.921252   -5896.5438   -4847.3635 
   62000    215.58559    -5876.067    20.563831   -5896.6309    35314.344 
   62200    299.55808   -5866.0708    28.573623   -5894.6444    12428.969 
   62400    298.39919   -5865.4954    28.463082   -5893.9585    19767.582 
   62600    309.49702   -5865.9232    29.521658   -5895.4449   -27326.783 
   62800    225.23639   -5867.8161    21.484381   -5889.3005    8819.2507 
   63000    299.69054   -5871.8141    28.586258   -5900.4003    4839.5452 
   63200    401.56985   -5860.4177     38.30411   -5898.7218    11895.572 
   63400    263.16764   -5870.6679    25.102488   -5895.7704   -17473.274 
   63600    284.56577   -5872.0306    27.143568   -5899.1742    21417.191 
   63800    318.89153   -5864.6305    30.417763   -5895.0483    892.73153 
   64000    295.95708   -5870.7596    28.230139   -5898.9897    15521.844 
   64200    222.92277   -5872.8422    21.263694   -5894.1058    17762.122 
   64400     312.3622   -5867.1995    29.794957   -5896.9944    1525.0827 
   64600    285.30588   -5868.2734    27.214165   -5895.4875    26491.197 
   64800      307.643   -5862.4342    29.344811    -5891.779   -36310.218 
   65000     349.1071   -5858.7249    33.299902   -5892.0248   -28826.236 
   65200    231.73371   -5870.4119    22.104134    -5892.516    492.95033 
   65400    328.83725   -5861.8563    31.366445   -5893.2227   -12316.697 
   65600    338.33424   -5865.6565    32.272323   -5897.9289   -22574.301 
   65800    264.41286   -5874.0017    25.221265   -5899.2229    15732.381 
   66000    367.16454   -5864.8886    35.022328   -5899.9109   -10415.218 
   66200    307.93936   -5868.0034    29.373079   -5897.3764     14085.34 
   66400    342.06709   -5852.8843    32.628385   -5885.5127   -41105.778 
   66600    345.77529   -5862.4595    32.982095   -5895.4416    7380.2225 
   66800    265.63912   -5869.3666    25.338232   -5894.7049    12247.282 
   67000    337.34151   -5855.2925    32.177631   -5887.4701   -7433.3041 
   67200     298.9047   -5863.9076    28.511301   -5892.4189   -15596.035 
   67400    268.22584   -5868.2289    25.584969   -5893.8138    19260.339 
   67600    221.96381   -5877.1815    21.172223   -5898.3538    10670.051 
   67800    308.31187   -5867.8949    29.408612   -5897.3035    1918.0966 
   68000    290.39759    -5863.351    27.699842   -5891.0509   -26741.562 
   68200    303.25749   -5877.5215    28.926495    -5906.448    19669.047 
   68400    269.08437   -5874.4606     25.66686   -5900.1275    6491.2157 
   68600    265.86074   -5863.0772    25.359372   -5888.4366   -4693.6283 
   68800    340.57861   -5852.7637    32.486405   -5885.2501   -3286.8083 
   69000    303.23843   -5866.6122    28.924677   -5895.5369   -822.14542 
   69200    268.22379   -5865.9574    25.584773   -5891.5421    26128.897 
   69400    331.39515   -5858.4494    31.610432   -5890.0598   -1922.8635 
   69600    302.42308   -5873.4418    28.846904   -5902.2887    27451.084 
   69800    277.67352    -5868.206    26.486144   -5894.6922    4452.5213 
   70000    298.28779   -5863.3031    28.452456   -5891.7556    -3082.704 
   70200    263.40134    -5870.597    25.124779   -5895.7218   -15619.929 
   70400     256.8595   -5871.4796     24.50078   -5895.9804   -447.75117 
   70600    297.08193   -5862.6559    28.337433   -5890.9933     10566.57 
   70800    211.01193     -5873.62    20.127567   -5893.7475    220.31519 
   71000    243.98131   -5872.7244    23.272382   -5895.9968    -7066.417 
   71200    325.97628   -5868.3173    31.093548   -5899.4109   -10844.028 
   71400    233.68286   -5869.2482    22.290055   -5891.5383    14826.878 
   71600    296.99121   -5859.1433     28.32878    -5887.472   -10954.446 
   71800     297.0545   -5862.8574    28.334817   -5891.1922    8348.2092 
   72000    256.89213   -5868.7721    24.503893    -5893.276    2597.7032 
   72200    321.73457   -5855.0266    30.688948   -5885.7156    5082.3324 
   72400    362.10198   -5857.5138    34.539431   -5892.0533    5180.2555 
   72600    285.30568   -5868.6253    27.214145   -5895.8394   -9904.9818 
   72800    281.88803   -5867.0794    26.888149   -5893.9676    6549.2408 
   73000    331.28068   -5853.7881    31.599513   -5885.3876    -22376.65 
   73200    272.29269   -5866.9236    25.972889   -5892.8965   -8927.1062 
   73400    306.01821   -5866.3593    29.189829   -5895.5492    2361.9153 
   73600    371.46552   -5859.0787    35.432581   -5894.5113   -6443.0735 
   73800    339.07408   -5864.6172    32.342894   -5896.9601    -2091.531 
   74000     304.1254   -5868.5667    29.009281    -5897.576   -12922.998 
   74200    306.63576   -5856.9592    29.248735   -5886.2079   -4306.5221 
   74400    308.43984   -5862.8699    29.420818   -5892.2907   -19355.198 
   74600    307.32102   -5867.7412    29.314098   -5897.0553   -14677.859 
   74800    313.31067   -5867.8036    29.885427    -5897.689    4838.6272 
   75000     355.5313   -5858.1059    33.912681   -5892.0186    30274.461 
   75200    310.35535   -5872.4227    29.603531   -5902.0262   -8459.5858 
   75400    257.49144   -5870.4317    24.561058   -5894.9927    11464.496 
   75600    291.69087   -5866.5674    27.823202   -5894.3906    2703.8803 
   75800    298.60239   -5864.6968    28.482464   -5893.1793   -1189.4477 
   76000      320.827   -5866.4869    30.602379   -5897.0892   -7175.5579 
   76200    398.73879   -5860.1402    38.034067   -5898.1743   -5325.9467 
   76400     320.9058   -5858.4505    30.609895   -5889.0604   -7357.3105 
   76600    279.35963   -5872.4779    26.646976   -5899.1248    895.30502 
   76800    352.36485   -5862.9536    33.610646   -5896.5643   -33155.637 
   77000     339.5813   -5867.7604    32.391275   -5900.1517    6500.4691 
   77200    261.85537    -5872.699    24.977316   -5897.6763    22636.061 
   77400    316.70822   -5858.3473    30.209506   -5888.5568   -22595.071 
   77600    268.08683   -5869.9256     25.57171   -5895.4973    1212.3497 
   77800    317.07181   -5859.2922    30.244187   -5889.5364   -13333.485 
   78000    340.82082   -5861.3545    32.509508    -5893.864    6846.0595 
   78200    260.23632    -5870.452    24.822881   -5895.2749    -6864.274 
   78400    448.93892   -5854.0481    42.822453   -5896.8705    8088.3991 
   78600     293.4265   -5868.3076    27.988757   -5896.2963    15884.584 
   78800    270.92581   -5870.2423    25.842508   -5896.0848   -12332.838 
   79000    308.53494   -5863.3583     29.42989   -5892.7881    10693.964 
   79200    328.99154    -5864.579    31.381162   -5895.9601   -8971.1945 
   79400    279.83747   -5864.2721    26.692555   -5890.9646   -5459.0977 
   79600     380.7516   -5845.8297    36.318342   -5882.1481   -9362.8579 
   79800    347.67713   -5861.5424    33.163504   -5894.7059    16944.643 
   80000    305.15925   -5865.1297    29.107896   -5894.2376    2540.6486 
   80200    355.99002   -5859.9766    33.956436    -5893.933   -12575.694 
   80400    318.56681   -5866.3757    30.386789   -5896.7625    2841.0052 
   80600    291.78713   -5870.0299    27.832384   -5897.8623     3719.495 
   80800    317.67173   -5864.6989    30.301411   -5895.0003   -21943.935 
   81000    282.19076   -5866.0639    26.917025   -5892.9809   -7788.1204 
   81200    281.11444   -5871.3747     26.81436    -5898.189   -2198.8497 
   81400      303.339   -5859.4073     28.93427   -5888.3416    -13960.17 
   81600    271.17653   -5872.8673    25.866423   -5898.7338   -11764.906 
   81800     279.1957   -5869.7986    26.631339   -5896.4299   -15358.501 
   82000    314.23217    -5859.958    29.973325   -5889.9313    16154.507 
   82200    210.48648   -5876.4362    20.077447   -5896.5137   -14414.942 
   82400    233.62855    -5865.264    22.284875   -5887.5489   -15095.287 
   82600    335.84782   -5864.6459    32.035154    -5896.681    22018.561 
   82800    221.09264   -5879.0287    21.089126   -5900.1178    4559.4594 
   83000    257.77573   -5868.6798    24.588175    -5893.268   -2753.7377 
   83200    268.71494   -5862.7272    25.631622   -5888.3589    13204.631 
   83400     301.5699   -5868.2865    28.765523   -5897.0521    22637.929 
   83600    296.31387    -5871.755    28.264172   -5900.0191   -20351.465 
   83800    274.00949   -5865.6958    26.136648   -5891.8324    2511.3546 
   84000    336.96722   -5858.4829    32.141928   -5890.6248    22006.618 
   84200    263.26268   -5871.6349    25.111553   -5896.7464    11560.297 
   84400    223.68146   -5866.1449    21.336062    -5887.481   -1573.7896 
   84600     347.2697   -5860.6216     33.12464   -5893.7463   -5026.3671 
   84800     250.3025   -5871.8467    23.875335    -5895.722    12328.741 
   85000    280.14236   -5869.2953    26.721637   -5896.0169    27335.033 
   85200    366.84916   -5861.8191    34.992245   -5896.8113   -10998.783 
   85400    260.02704   -5875.3345    24.802919   -5900.1374   -20984.069 
   85600    297.86534   -5869.4761     28.41216   -5897.8883    10792.757 
   85800    313.64453   -5864.9954    29.917273   -5894.9126    4855.1056 
   86000    295.09448   -5873.8967    28.147859   -5902.0445   -19964.819 
   86200    285.26409   -5870.2015    27.210178   -5897.4117    4730.0183 
   86400    277.95877   -5863.3604    26.513353   -5889.8738    23163.763 
   86600    222.27622   -5872.3504    21.202022   -5893.5524   -25522.311 
   86800    328.53604    -5864.488    31.337713   -5895.8257    6223.0542 
   87000    345.21258   -5857.7434     32.92842   -5890.6718   -7241.6889 
   87200    269.87536   -5868.0637     25.74231    -5893.806   -29355.635 
   87400    318.98087    -5863.046    30.426284   -5893.4723   -24167.905 
   87600    326.71508   -5869.7706    31.164019   -5900.9346    14694.503 
   87800    253.68639   -5869.3406     24.19811   -5893.5387     10354.65 
   88000    297.83003   -5865.5352    28.408792    -5893.944   -4486.9469 
   88200    349.76916   -5866.5343    33.363054   -5899.8974   -14265.197 
   88400    228.85889   -5874.8736    21.829916   -5896.7036   -2633.6264 
   88600    349.94815   -5862.0071    33.380127   -5895.3872    13101.775 
   88800     266.3884   -5868.4206    25.409703   -5893.8303   -13990.772 
   89000    289.01869   -5867.5163    27.568314   -5895.0846    4553.8939 
   89200    323.83782   -5860.9081    30.889569   -5891.7977   -13435.971 
   89400    288.96024   -5874.0893    27.562739   -5901.6521    11616.958 
   89600    274.83943    -5870.268    26.215812   -5896.4838    6282.7892 
   89800    378.92992   -5861.6761     36.14458   -5897.8207    23718.975 
   90000    234.57482   -5873.9372    22.375135   -5896.3124    88.497563 
   90200    298.30833   -5869.6593    28.454415   -5898.1137    2644.9712 
   90400    267.33609   -5862.5061    25.500099   -5888.0062    38662.293 
   90600    331.82037   -5863.7465    31.650992   -5895.3975   -8313.9064 
   90800    246.56876   -5863.1712    23.519188   -5886.6904    28478.352 
   91000    246.14534   -5872.0363      23.4788   -5895.5151   -6245.0482 
   91200     266.4164   -5860.1528    25.412374   -5885.5652    29623.213 
   91400    279.83662   -5865.2241    26.692473   -5891.9166    -16331.51 
   91600    267.42682   -5872.4297    25.508754   -5897.9385    3406.3093 
   91800    365.57281    -5854.417      34.8705   -5889.2875   -9668.1209 
   92000    255.34866   -5868.9093    24.356667    -5893.266   -14803.212 
   92200    229.41384   -5865.3927     21.88285   -5887.2755     2088.674 
   92400    379.49842   -5856.5839    36.198807   -5892.7827    22299.362 
   92600    296.09461   -5866.1261    28.243257   -5894.3694    21349.444 
   92800    257.52867   -5872.6086    24.564609   -5897.1732    16867.407 
   93000    239.20474   -5877.9345    22.816765   -5900.7513    11681.575 
   93200    348.41707   -5865.9401    33.234083   -5899.1742    6421.8656 
   93400    334.45488   -5864.8559    31.902287   -5896.7582   -29846.887 
   93600    270.16118   -5866.9629    25.769573   -5892.7325    3269.1141 
   93800     247.4362   -5873.5927     23.60193   -5897.1946    13364.385 
   94000    241.34662   -5859.6463    23.021069   -5882.6673   -1047.0938 
   94200    287.65335   -5864.3978     27.43808   -5891.8359   -11718.844 
   94400    277.73441   -5870.9304    26.491953   -5897.4223    -7632.694 
   94600    300.96577   -5866.7922    28.707897   -5895.5001   -22404.386 
   94800    239.23612   -5865.3297    22.819758   -5888.1495   -8203.7267 
   95000    277.56205   -5863.8935    26.475512   -5890.3691   -1195.6123 
   95200    281.02957   -5868.5849    26.806264   -5895.3912   -19839.805 
   95400    282.77165   -5859.8456    26.972434   -5886.8181    10944.983 
   95600    307.08917   -5859.2111    29.291983   -5888.5031    -2791.777 
   95800    243.65049   -5870.8283    23.240827   -5894.0691    6518.2201 
   96000    353.93862    -5859.033    33.760761   -5892.7938   -6167.1944 
   96200    252.95418   -5871.9218    24.128267   -5896.0501    5896.6989 
   96400    324.12243   -5870.1151    30.916717   -5901.0318    23030.501 
   96600    268.42474   -5865.4408    25.603941   -5891.0448    9747.9749 
   96800    261.00227   -5868.6178    24.895942   -5893.5137   -14794.455 
   97000    281.74234   -5869.5837    26.874252    -5896.458    38647.017 
   97200    249.98219   -5860.8233    23.844781   -5884.6681   -3997.0904 
   97400    275.40447   -5859.3247    26.269709   -5885.5944   -11467.832 
   97600    287.77495   -5869.7133    27.449679    -5897.163    4887.4156 
   97800    280.57342   -5861.3507    26.762754   -5888.1135    4319.6779 
   98000    300.17127   -5859.7378    28.632113   -5888.3699   -11560.423 
   98200    325.57742   -5866.2703    31.055503   -5897.3258    8602.6895 
   98400    307.33688   -5865.9879    29.315611   -5895.3035    19999.294 
   98600    279.52256   -5864.3432    26.662517   -5891.0058   -15111.901 
   98800      329.532   -5862.8499    31.432714   -5894.2827    30524.518 
   99000    281.32026   -5877.3652    26.833992   -5904.1992    11774.558 
   99200    310.34963   -5866.9185    29.602985   -5896.5215   -26637.943 
   99400    327.75806   -5863.6024    31.263505   -5894.8659   -589.07077 
   99600    272.27715   -5874.2673    25.971407   -5900.2387   -15027.628 
   99800    349.10451    -5864.879    33.299655   -5898.1787   -16725.412 
  100000    292.25768   -5863.6579    27.877268   -5891.5351    17836.686 
  100200    280.59845   -5867.4232    26.765141   -5894.1883    25489.976 
  100400    282.28836   -5875.5573    26.926335   -5902.4837   -1424.0258 
  100600    325.52566   -5862.2581    31.050565   -5893.3086    23476.287 
  100800    234.15774   -5864.8206    22.335352   -5887.1559    954.37795 
  101000    240.31408   -5879.6154     22.92258   -5902.5379    8836.5813 
  101200    277.74107   -5869.7008    26.492588   -5896.1934   -12384.793 
  101400    285.02627   -5862.1967    27.187494   -5889.3842     33650.83 
  101600    295.03445   -5867.8607    28.142133   -5896.0029    12116.216 
  101800    230.52238   -5872.8807     21.98859   -5894.8693   -14330.396 
  102000    339.15753   -5861.3571    32.350854   -5893.7079   -23343.317 
  102200     330.2463   -5867.1408    31.500847   -5898.6417    13607.887 
  102400    288.59544   -5878.3788    27.527942   -5905.9067    13162.812 
  102600    267.19899   -5867.5507    25.487022   -5893.0377    14077.802 
  102800     269.4101   -5861.6562    25.697931   -5887.3542    2898.5254 
  103000    385.73827   -5858.2963       36.794   -5895.0903   -14669.654 
  103200    271.71663   -5870.9418    25.917941   -5896.8597   -20257.215 
  103400    318.76425   -5860.3583    30.405622   -5890.7639   -25729.648 
  103600    409.31675   -5850.3152    39.043056   -5889.3583    2522.7289 
  103800    288.87367   -5867.2462    27.554481   -5894.8007   -9304.0065 
  104000    308.13475   -5869.3495    29.391717   -5898.7412   -31963.721 
  104200    321.10626   -5860.1367    30.629017   -5890.7657   -2971.0413 
  104400    279.29418   -5865.9163    26.640732   -5892.5571    8784.4099 
  104600    270.38543   -5868.1365    25.790963   -5893.9275    7051.1519 
  104800     406.7799   -5854.4637    38.801076   -5893.2648   -5290.5159 
  105000    286.56947    -5861.411    27.334693   -5888.7457    15115.094 
  105200    294.03203   -5866.1633    28.046516   -5894.2098   -23215.405 
  105400     310.7064     -5870.23    29.637017    -5899.867    13736.348 
  105600    383.45065   -5865.0508    36.575794   -5901.6266   -24731.591 
  105800    272.76066   -5862.2805    26.017527    -5888.298    -11341.65 
  106000    271.77439   -5869.3784    25.923451   -5895.3018    22864.387 
  106200    318.21915   -5862.2755    30.353627   -5892.6291    12.949211 
  106400    329.64415   -5871.0201    31.443411   -5902.4635     10213.21 
  106600    243.58586   -5875.9544    23.234662   -5899.1891    12199.597 
  106800    367.17434   -5864.5372    35.023263   -5899.5605   -10888.253 
  107000    280.37091   -5865.6944    26.743438   -5892.4379   -10209.877 
  107200     241.9698   -5876.7031    23.080512   -5899.7837   -527.92211 
  107400    359.43325   -5863.1178    34.284871   -5897.4027    5278.3836 
  107600     362.0882   -5866.0278    34.538117   -5900.5659   -14517.618 
  107800    273.03235   -5874.7215    26.043442    -5900.765   -28550.872 
  108000    314.87864   -5857.6617    30.034989   -5887.6967    272.04859 
  108200     247.8277   -5864.4555    23.639273   -5888.0947   -29520.137 
  108400    314.05794   -5864.3223    29.956706    -5894.279   -16198.596 
  108600    324.85509   -5858.3017    30.986602   -5889.2883    22724.061 
  108800    272.29568   -5869.7537    25.973174   -5895.7269   -12788.179 
  109000    341.11187   -5858.9113     32.53727   -5891.4486   -6910.5202 
  109200    254.53685   -5869.4919    24.279232   -5893.7711   -1591.2878 
  109400    283.17916    -5860.899    27.011305   -5887.9103   -359.62716 
  109600    277.17199   -5866.2802    26.438306   -5892.7185   -7294.8599 
  109800    282.73088    -5872.459    26.968545   -5899.4275    4081.7841 
  110000    321.80824   -5861.3933    30.695976   -5892.0893    19253.895 
  110200    247.05634    -5867.605    23.565697   -5891.1707    10875.632 
  110400    229.37296   -5872.4856    21.878952   -5894.3645   -12147.119 
  110600    347.07599   -5860.6726    33.106163   -5893.7788   -11423.925 
  110800    268.62551   -5871.4858    25.623092   -5897.1088     14914.04 
  111000    350.21496    -5861.048    33.405577   -5894.4536   -3797.7257 
  111200    333.63907   -5862.5745     31.82447   -5894.3989   -8561.7945 
  111400    309.47351   -5870.7091    29.519416   -5900.2285   -1399.8732 
  111600    355.52092    -5867.722    33.911691   -5901.6337   -14806.736 
  111800     300.0696   -5866.5835    28.622416   -5895.2059    6629.8589 
  112000     330.5728    -5854.432    31.531992    -5885.964   -5277.3585 
  112200    243.48249   -5868.1549    23.224801   -5891.3797   -31705.572 
  112400    319.03271   -5862.9085    30.431229   -5893.3397   -1958.2472 
  112600    413.16203   -5847.1189    39.409841   -5886.5287    11985.307 
  112800      308.738   -5864.1507    29.449258      -5893.6   -14532.573 
  113000    251.92744   -5869.4448    24.030331   -5893.4751    30200.321 
  113200    355.69613   -5858.6356    33.928403    -5892.564    10796.068 
  113400    288.51179   -5870.2333    27.519963   -5897.7533    374.93879 
  113600    300.61961   -5868.8709    28.674879   -5897.5458   -22650.284 
  113800    341.77932   -5860.0822    32.600935   -5892.6832    3612.6158 
  114000    263.67121   -5867.0014    25.150521   -5892.1519    3236.0789 
  114200    414.62683   -5852.3206    39.549562   -5891.8701    866.31503 
  114400    346.96008   -5862.3661    33.095107   -5895.4612    22098.425 
  114600    281.06515   -5870.4685    26.809658   -5897.2781    25264.355 
  114800    297.70226   -5869.0297    28.396605   -5897.4263    5747.2809 
  115000    278.58671   -5859.2315     26.57325   -5885.8048   -13286.678 
  115200    284.09032   -5870.4455    27.098217   -5897.5437    2260.0086 
  115400     224.4581   -5885.0904    21.410143   -5906.5005   -13976.597 
  115600    294.02147    -5874.193    28.045509   -5902.2385    13180.685 
  115800    346.89538    -5860.195    33.088936   -5893.2839    13514.791 
  116000    338.53499   -5865.7693    32.291472   -5898.0607   -393.62875 
  116200    299.71215   -5870.8565     28.58832   -5899.4449   -23601.686 
  116400    291.16915    -5862.852    27.773437   -5890.6254    1067.5204 
  116600    260.40981   -5867.4594    24.839429   -5892.2988    577.90835 
  116800    225.44108   -5880.4425    21.503906   -5901.9464   -9818.4869 
  117000    283.32886   -5867.8166    27.025584   -5894.8422    17891.912 
  117200    266.14563   -5860.7079    25.386546   -5886.0945   -22942.251 
  117400    277.13407   -5870.1047    26.434689   -5896.5394    4691.8523 
  117600     303.3704   -5870.7186    28.937265   -5899.6559    12282.046 
  117800    366.47974   -5855.4628    34.957008   -5890.4198    7067.5947 
  118000    293.63531    -5865.879    28.008675   -5893.8876   -18563.444 
  118200     251.7756     -5873.32    24.015847   -5897.3358   -11691.716 
  118400    284.48075   -5871.7119    27.135458   -5898.8473   -228.27311 
  118600    262.57796   -5858.9027     25.04624    -5883.949     -20886.6 
  118800    268.21988   -5868.8791    25.584401   -5894.4635    27123.682 
  119000    262.58674   -5876.3523    25.047078   -5901.3994   -7665.5258 
  119200    281.84856   -5863.2122    26.884385   -5890.0966   -14237.796 
  119400     297.5716   -5864.1356    28.384141   -5892.5198   -3411.2882 
  119600    269.31651   -5872.0063    25.689003   -5897.6953    28650.105 
  119800    395.52267   -5852.7353    37.727295   -5890.4626    1457.3361 
  120000    418.85698   -5856.8004    39.953059   -5896.7535    6115.1281 
  120200    238.27083   -5868.4742    22.727683   -5891.2019   -24064.957 
  120400    327.60801   -5856.8464    31.249192   -5888.0956    36344.001 
  120600    307.96477   -5856.6049    29.375503   -5885.9804   -3856.2231 
  120800    293.66034   -5869.8208    28.011062   -5897.8319   -2941.9205 
  121000    360.36292   -5858.3987    34.373549   -5892.7722    1392.3129 
  121200    272.05321   -5868.0923    25.950046   -5894.0423    20475.502 
  121400     267.0964   -5870.0766    25.477237   -5895.5538    16145.777 
  121600     302.6441   -5858.3155    28.867986   -5887.1835     4013.078 
  121800    295.61762   -5868.1499    28.197759   -5896.3477    20339.521 
  122000    242.17037   -5870.5471    23.099644   -5893.6467   -12619.458 
  122200    383.57626   -5857.6106    36.587775   -5894.1984   -25495.196 
  122400    343.54213   -5867.2854    32.769083   -5900.0545   -8036.9589 
  122600    323.03416   -5864.9283    30.812911   -5895.7412    10098.556 
  122800    291.50955   -5868.0579    27.805907   -5895.8638    22116.145 
  123000    263.97973   -5864.0823     25.17995   -5889.2622   -16344.256 
  123200    295.06603   -5860.0823    28.145145   -5888.2275   -16524.288 
  123400    304.81025   -5873.3262    29.074607   -5902.4008    6411.2712 
  123600     370.7159   -5862.0368    35.361078   -5897.3979   -14429.388 
  123800    350.36123   -5865.3235    33.419529    -5898.743   -17842.203 
  124000    221.16263   -5873.2266    21.095802   -5894.3224    6097.2444 
  124200    280.45076   -5872.5712    26.751055   -5899.3222    10762.116 
  124400    321.52892   -5862.5603    30.669332   -5893.2297   -10937.867 
  124600    244.56041   -5869.2403     23.32762   -5892.5679   -14789.861 
  124800    292.89334   -5873.1604    27.937902   -5901.0983    4552.1211 
  125000     379.9978   -5860.3178     36.24644   -5896.5642    24337.151 
  125200    275.99319   -5867.6611    26.325865    -5893.987    6761.7231 
  125400    221.45791   -5871.1206    21.123967   -5892.2445   -10381.262 
  125600    347.78172   -5858.6386    33.173479   -5891.8121    18338.001 
  125800    281.62507   -5869.6615    26.863067   -5896.5246   -934.40223 
  126000    317.61438   -5867.3267    30.295941   -5897.6226    5256.5117 
  126200     358.6216   -5851.7265    34.207452    -5885.934    17974.638 
  126400    249.30102   -5866.3663    23.779808   -5890.1461   -19725.167 
  126600    325.90464    -5866.719    31.086714   -5897.8057    7690.0964 
  126800    370.40253    -5854.875    35.331186   -5890.2062   -11458.066 
  127000    325.44804    -5864.714    31.043162   -5895.7572    11380.046 
  127200    250.42932   -5869.3728    23.887432   -5893.2602    11176.809 
  127400    251.47278    -5865.492    23.986963    -5889.479   -1681.5335 
  127600    397.23011   -5863.7613     37.89016   -5901.6514    -135.6606 
  127800    235.35768   -5872.0736     22.44981   -5894.5234   -2097.0355 
  128000    339.39793   -5864.0858    32.373785   -5896.4596   -3492.7966 
  128200    372.12106   -5859.6283    35.495111   -5895.1234    15417.134 
  128400    295.09231   -5867.4041    28.147652   -5895.5517   -1308.3686 
  128600    295.16977   -5864.3804     28.15504   -5892.5354    5761.1673 
  128800     384.1044   -5856.8426    36.638152   -5893.4807    769.11349 
  129000    316.60066   -5865.9059    30.199245   -5896.1052    9559.5162 
  129200    274.13555   -5870.5872    26.148673   -5896.7359    10999.556 
  129400    333.73198   -5856.7518    31.833333   -5888.5851    5313.0549 
  129600    298.73683   -5866.7973    28.495288   -5895.2926   -7051.1701 
  129800    275.63118   -5872.8486    26.291334     -5899.14   -2476.2955 
  130000    272.45321   -5862.9972      25.9882   -5888.9854    17866.857 
  130200    313.12829   -5866.0817    29.868031   -5895.9498   -3555.2093 
  130400    220.47508   -5874.0746    21.030219   -5895.1048      7282.07 
  130600    260.80657   -5863.4341    24.877275   -5888.3114    8796.2852 
  130800    345.46708    -5860.644    32.952696   -5893.5967   -200.03951 
  131000    291.29562   -5863.6022    27.785501   -5891.3877    27005.147 
  131200    284.57552   -5862.2462    27.144499   -5889.3907    20500.385 
  131400    325.44229   -5856.1518    31.042613   -5887.1944    8472.7109 
  131600    309.11818   -5867.5036    29.485523   -5896.9891   -20163.124 
  131800    229.65464   -5876.0574    21.905819   -5897.9632   -12099.663 
  132000    262.70423   -5870.7688    25.058285    -5895.827     29559.65 
  132200    320.44852   -5864.3225    30.566277   -5894.8888   -31360.067 
  132400    293.71763   -5875.5533    28.016527   -5903.5699    7245.9658 
  132600    291.67286   -5873.2495    27.821484    -5901.071    13476.618 
  132800    281.31027   -5859.9514    26.833039   -5886.7845   -22803.564 
  133000     254.7028   -5870.1403    24.295062   -5894.4354   -7146.6586 
  133200    344.56848   -5861.7621    32.866982   -5894.6291   -20317.933 
  133400    392.46359    -5857.814    37.435502   -5895.2495    1997.4164 
  133600    356.56564   -5871.0684    34.011342   -5905.0797   -9092.1307 
  133800    274.54221   -5869.0996    26.187462    -5895.287   -21520.604 
  134000    362.32213   -5858.2691     34.56043   -5892.8295    19988.189 
  134200    318.39185   -5860.6991      30.3701   -5891.0692   -8542.1922 
  134400    269.87026   -5870.7179    25.741824   -5896.4598    13778.382 
  134600    352.81182   -5859.0555    33.653281   -5892.7088    21815.596 
  134800    346.02377   -5859.2431    33.005796   -5892.2489    21782.502 
  135000    213.63317   -5868.0485    20.377597   -5888.4261    11015.202 
  135200    379.58578   -5848.4874     36.20714   -5884.6945    10186.593 
  135400    297.22729   -5860.7607    28.351299    -5889.112    5535.5986 
  135600    290.18644   -5868.4674    27.679701   -5896.1471     21997.45 
  135800    331.68008   -5859.0466     31.63761   -5890.6842    -3171.764 
  136000    299.22643    -5861.993    28.541988   -5890.5349   -10647.865 
  136200     278.8255   -5868.0099    26.596028    -5894.606    12521.301 
  136400    316.24377   -5857.8303    30.165204   -5887.9955    6558.7231 
  136600    274.13488   -5872.9286    26.148608   -5899.0772   -14176.139 
  136800     254.1361   -5867.0115    24.241006   -5891.2525   -13778.929 
  137000    330.16397   -5859.3455    31.492994   -5890.8385   -5508.0753 
  137200    344.16589   -5861.9289    32.828581   -5894.7575    4354.3441 
  137400    240.15067    -5868.114    22.906993    -5891.021    15734.357 
  137600    387.42206   -5853.7655     36.95461   -5890.7202    27833.524 
  137800     362.4655   -5859.2263    34.574106   -5893.8004    1234.6125 
  138000    310.12507   -5862.2491    29.581566   -5891.8307   -17884.946 
  138200    277.85501   -5870.5497    26.503456   -5897.0532    17552.707 
  138400    349.56649   -5862.4526    33.343722   -5895.7963   -16887.277 
  138600    299.92184    -5863.225    28.608321   -5891.8333    4595.4993 
  138800    261.19442   -5869.4388     24.91427   -5894.3531    395.64284 
  139000    323.11294   -5864.1231    30.820425   -5894.9435    14117.476 
  139200    329.10485    -5855.515     31.39197   -5886.9069    6844.2458 
  139400     294.6909   -5861.6382    28.109363   -5889.7476    8995.2246 
  139600    329.09584   -5865.9228     31.39111    -5897.314   -1019.6824 
  139800    287.48294   -5874.9885    27.421826   -5902.4104   -5151.3442 
  140000    323.17845    -5860.178    30.826674   -5891.0047    24326.891 
  140200    285.02313   -5870.4724    27.187194   -5897.6596   -94.217007 
  140400     239.9398   -5872.2513    22.886879   -5895.1382    11832.853 
  140600    319.57271   -5868.1571    30.482737   -5898.6398   -12826.399 
  140800    290.79239   -5859.9373      27.7375   -5887.6748   -5350.7633 
  141000    279.89981   -5868.1533    26.698501   -5894.8518   -228.65401 
  141200    261.46104   -5871.9063    24.939703    -5896.846   -25429.472 
  141400     364.6666   -5859.3158     34.78406   -5894.0999    11611.616 
  141600    269.07332   -5869.5631    25.665806   -5895.2289    13335.966 
  141800    364.00549   -5857.3705    34.720999   -5892.0915    17758.268 
  142000     298.0811   -5860.0532    28.432741   -5888.4859   -16598.615 
  142200    312.25772    -5866.273    29.784991    -5896.058     17435.77 
  142400    424.90494   -5854.9493    40.529949   -5895.4793    14700.393 
  142600    312.97032   -5862.6643    29.852963   -5892.5173   -15797.287 
  142800    320.89071   -5864.1267    30.608456   -5894.7352   -17965.369 
  143000    258.45036    -5870.204    24.652525   -5894.8565    13632.549 
  143200     233.7772   -5877.5431    22.299054   -5899.8422    9217.3949 
  143400    338.48415   -5862.7473    32.286622   -5895.0339    1934.2795 
  143600    301.75365    -5869.474     28.78305    -5898.257   -4315.8428 
  143800    243.48868   -5872.9779    23.225392   -5896.2033    5374.3369 
  144000    293.89093   -5859.1032    28.033057   -5887.1363   -2863.8685 
  144200    270.46807   -5862.7595    25.798846   -5888.5584    5111.4049 
  144400    219.08105   -5870.3632    20.897248   -5891.2604   -8346.8699 
  144600    218.72316   -5880.9285     20.86311   -5901.7916    18814.296 
  144800    313.27234   -5865.9874    29.881771   -5895.8692    19807.829 
  145000    274.66725   -5868.3738    26.199389   -5894.5732   -6419.7629 
  145200    226.67449   -5878.0643    21.621556   -5899.6859   -7960.0408 
  145400    256.42513   -5865.5382    24.459347   -5889.9975   -8978.6345 
  145600    265.74355   -5862.1715    25.348194   -5887.5197    18005.301 
  145800    250.74804   -5862.7104    23.917832   -5886.6282   -37477.018 
  146000    288.87103   -5866.2314     27.55423   -5893.7856   -685.71417 
  146200    283.19129   -5863.3622    27.012462   -5890.3747   -11256.084 
  146400    395.19866   -5857.0187    37.696388   -5894.7151    12132.501 
  146600    311.58381   -5869.4393    29.720709     -5899.16   -6738.2083 
  146800    246.43556   -5869.8952    23.506483   -5893.4017    11659.255 
  147000    366.00014   -5858.9831     34.91126   -5893.8943   -22607.388 
  147200    266.98739    -5871.306    25.466838   -5896.7729    863.05808 
  147400    305.31215   -5867.5277    29.122481   -5896.6502    20583.556 
  147600    300.71888   -5863.7551    28.684347   -5892.4395    21759.832 
  147800    262.88561   -5868.0868    25.075586   -5893.1624     5311.231 
  148000    226.96954   -5875.5022    21.649699   -5897.1519    23025.301 
  148200    323.64825    -5863.435    30.871487   -5894.3065   -281.25844 
  148400    236.22693   -5872.1533    22.532723    -5894.686   -2247.3459 
  148600    284.68363   -5863.8913    27.154811   -5891.0461    10544.918 
  148800     240.0951   -5859.0043    22.901692    -5881.906    3241.4343 
  149000    258.44448   -5868.6829    24.651965   -5893.3348    -1193.166 
  149200    301.76947   -5867.6187    28.784559   -5896.4032   -8223.4654 
  149400    341.60375   -5857.0442    32.584188   -5889.6284   -9846.2594 
  149600    256.86623   -5865.9025    24.501422   -5890.4039    5677.8736 
  149800     266.2283   -5870.2977    25.394431   -5895.6922   -30171.763 
  150000    344.46933   -5858.4848    32.857525   -5891.3423   -24383.543 
  150200    380.72287   -5842.5543    36.315601   -5878.8699    -45261.73 
  150400    355.43867   -5863.4438    33.903845   -5897.3477   -7662.9305 
  150600    262.50577   -5870.2126    25.039355    -5895.252    2319.7029 
  150800    350.41138    -5860.566    33.424313   -5893.9903    15719.329 
  151000    396.98763   -5861.7368    37.867031   -5899.6038   -555.74795 
  151200    289.95539   -5870.7537    27.657662   -5898.4114   -2473.1798 
  151400    290.29794   -5863.9511    27.690337   -5891.6414    -4801.263 
  151600    274.30978   -5867.3749    26.165292   -5893.5402    2488.7022 
  151800    285.66599   -5870.7099    27.248513   -5897.9584    11968.091 
  152000    367.35253    -5861.063    35.040259   -5896.1033   -3734.1605 
  152200    291.54074   -5865.6474    27.808882   -5893.4563   -527.31973 
  152400     382.1773   -5849.7532    36.454334   -5886.2075     -15110.9 
  152600    257.50089   -5864.0423     24.56196   -5888.6043   -3736.7581 
  152800    336.73198   -5867.0283     32.11949   -5899.1478   -1649.8289 
  153000     297.9486   -5870.4318    28.420102   -5898.8519     25582.22 
  153200    289.94595   -5871.0204    27.656762   -5898.6772   -41800.204 
  153400    334.05907   -5860.8816    31.864532   -5892.7461    7360.1425 
  153600    242.36796    -5870.802    23.118491   -5893.9204   -15762.016 
  153800    256.98916   -5865.6547    24.513148   -5890.1678    16994.403 
  154000    302.14801   -5855.4945    28.820666   -5884.3152    15839.614 
  154200     284.0153   -5869.8046    27.091061   -5896.8956   -2943.7373 
  154400    284.44086   -5869.1341    27.131653   -5896.2658    -697.6178 
  154600    353.58882   -5864.9054    33.727396   -5898.6328   -12322.945 
  154800    327.38721   -5868.2497    31.228131   -5899.4779   -31376.839 
  155000    306.96131   -5867.8241    29.279787   -5897.1039   -12515.288 
  155200    321.82658   -5864.3012    30.697725    -5894.999    27222.533 
  155400    260.06204   -5872.1573    24.806257   -5896.9635   -17738.722 
  155600    281.60227   -5865.9365    26.860892   -5892.7973    8285.0797 
  155800    329.78655   -5859.7357    31.456994   -5891.1927    1631.8168 
  156000    257.83671   -5871.7666    24.593993   -5896.3606    12668.105 
  156200    258.93272   -5864.8843    24.698536   -5889.5829   -15567.338 
  156400    377.23334   -5858.5625    35.982749   -5894.5452   -38923.924 
  156600    282.48258   -5872.0887    26.944861   -5899.0336    16549.637 
  156800     279.6367   -5859.8633    26.673404   -5886.5367    21923.687 
  157000    355.40492   -5854.5493    33.900626   -5888.4499    11656.632 
  157200    275.25592   -5867.2128     26.25554   -5893.4684   -6519.1944 
  157400     290.9768   -5869.8444     27.75509   -5897.5994     982.5812 
  157600    384.57968   -5855.0801    36.683488   -5891.7636    9455.2847 
  157800    291.00822   -5868.4891    27.758088   -5896.2472    16060.713 
  158000    298.70324   -5867.6086    28.492084   -5896.1007    12146.703 
  158200    398.89037   -5850.6955    38.048526    -5888.744     2352.308 
  158400    262.51744   -5859.9137    25.040468   -5884.9542   -19002.727 
  158600    293.61955   -5867.6645    28.007172   -5895.6717    10580.025 
  158800    294.49554   -5862.0057    28.090729   -5890.0965    21340.537 
  159000     320.2005   -5855.2023     30.54262   -5885.7449   -9071.0164 
  159200    322.88409   -5871.0147    30.798596   -5901.8133    17240.094 
  159400     294.2032   -5867.3416    28.062843   -5895.4045   -7366.2905 
  159600    328.07403    -5857.638    31.293644   -5888.9317    32632.416 
  159800    206.29477   -5874.0009    19.677617   -5893.6785   -11749.326 
  160000    267.55574   -5862.1867    25.521051   -5887.7078    13081.641 
  160200    348.07466   -5856.9386    33.201422   -5890.1401   -16719.574 
  160400    244.64408   -5871.9004    23.335601    -5895.236    15276.697 
  160600    310.97854   -5867.3579    29.662975   -5897.0209    3514.1249 
  160800    372.38041   -5863.7021    35.519849    -5899.222   -14051.453 
  161000     294.5099   -5870.7442    28.092098   -5898.8363   -1733.7017 
  161200    350.60627   -5861.7295    33.442902   -5895.1724    1979.5593 
  161400    335.34675   -5859.0786    31.987359    -5891.066    -4472.245 
  161600    280.03486   -5867.7662    26.711383   -5894.4776   -5374.4382 
  161800    329.88244   -5863.1061     31.46614   -5894.5723    -16576.85 
  162000     369.7985   -5851.8012    35.273571   -5887.0748   -6515.3575 
  162200    277.03872   -5864.0842    26.425593   -5890.5098     5493.236 
  162400    240.11629   -5872.0567    22.903714   -5894.9604   -3993.5529 
  162600    318.46049   -5864.6691    30.376648   -5895.0457   -14853.792 
  162800    318.81622   -5862.2104    30.410579    -5892.621    15323.914 
  163000    259.89343   -5871.4398    24.790174   -5896.2299    6328.7793 
  163200    330.47721   -5857.4261    31.522873    -5888.949    9668.3581 
  163400    303.88961   -5863.3616    28.986791   -5892.3484   -4076.8677 
  163600    267.74605   -5868.6695    25.539204   -5894.2087    14193.804 
  163800    310.83529   -5865.8706     29.64931   -5895.5199   -9783.1679 
  164000    411.93047    -5854.943    39.292367   -5894.2354   -16447.008 
  164200    304.61168   -5868.7839    29.055666   -5897.8396    13675.124 
  164400     254.7032   -5865.6707      24.2951   -5889.9658    17660.401 
  164600    302.29764   -5860.6752    28.834939   -5889.5101    9677.0054 
  164800    223.10608   -5874.0313    21.281179   -5895.3124    36188.521 
  165000    346.47227   -5862.2249    33.048577   -5895.2735   -16813.752 
  165200    328.35501   -5865.4199    31.320446   -5896.7403   -4848.8884 
  165400    256.41771   -5878.2908     24.45864   -5902.7494   -1885.0166 
  165600     277.9482    -5867.857    26.512345   -5894.3693    5000.0116 
  165800     328.7127   -5863.0488    31.354564   -5894.4034   -3041.8796 
  166000     316.2329   -5868.2021    30.164167   -5898.3663    -7615.136 
  166200     233.8689   -5875.9728    22.307801   -5898.2806    5150.9492 
  166400     320.4701   -5862.3687    30.568336    -5892.937   -7322.6705 
  166600    292.74209   -5864.4775    27.923474    -5892.401   -5671.5316 
  166800    260.75679   -5876.0055    24.872527    -5900.878    9218.0718 
  167000    322.99558   -5865.2477    30.809231    -5896.057   -15398.994 
  167200    332.38659   -5864.2168    31.705001   -5895.9218     13570.42 
  167400    262.48239   -5871.0975    25.037125   -5896.1346   -10905.031 
  167600    251.98862   -5872.6579    24.036167   -5896.6941   -3343.8244 
  167800    302.61992   -5859.3389     28.86568   -5888.2046   -7273.3377 
  168000    288.86724   -5867.6768    27.553868   -5895.2307    1511.8432 
  168200     305.8856   -5869.7724     29.17718   -5898.9496   -10775.405 
  168400    325.32692    -5862.342    31.031608   -5893.3736    8357.2758 
  168600    284.79524   -5870.2772    27.165456   -5897.4427    2745.8391 
  168800    239.74687   -5872.3587    22.868476   -5895.2272   -4156.3589 
  169000    326.00319   -5861.0691    31.096115   -5892.1652    1555.1769 
  169200    287.60377   -5868.4108     27.43335   -5895.8441     4959.232 
  169400    261.37638   -5877.8748    24.931627   -5902.8065    7524.8371 
  169600    249.08983   -5866.2337    23.759663   -5889.9934    21005.108 
  169800    335.69597   -5863.5848     32.02067   -5895.6055   -6819.8535 
  170000    275.34637   -5873.0988    26.264167   -5899.3629   -19229.577 
  170200    267.02413   -5869.2495    25.470342   -5894.7198       7263.8 
  170400    298.08748   -5862.9048    28.433349   -5891.3382    11270.095 
  170600    253.55616   -5867.7606    24.185688   -5891.9463   -3733.7168 
  170800    202.62903   -5877.4654    19.327957   -5896.7934    2145.2554 
  171000    336.11164    -5865.285    32.060318   -5897.3453   -11763.522 
  171200    315.61209   -5862.7345     30.10495   -5892.8395    5763.0991 
  171400    249.52355   -5872.2823    23.801034   -5896.0833   -7919.3934 
  171600    378.47892   -5860.9818     36.10156   -5897.0834   -15762.611 
  171800    286.68571   -5871.0563    27.345781   -5898.4021   -2002.1975 
  172000     277.2602   -5871.8937     26.44672   -5898.3404    3458.8271 
  172200    273.65134   -5865.5688    26.102485   -5891.6713   -17827.463 
  172400    281.01332   -5869.2106    26.804715   -5896.0153     8260.491 
  172600    300.49426   -5858.2134    28.662922   -5886.8763    15215.139 
  172800    311.71962   -5865.4015    29.733663   -5895.1352    1731.1807 
  173000    276.10488   -5867.2246    26.336518   -5893.5611   -19166.075 
  173200    288.63633   -5865.0983    27.531842   -5892.6301    -2610.694 
  173400    305.28569   -5862.7781    29.119957   -5891.8981    6755.0172 
  173600    316.48036   -5871.2618    30.187771   -5901.4496    13537.814 
  173800    346.95941   -5855.6297    33.095043   -5888.7248    2773.8326 
  174000    272.36726   -5867.5705    25.980002   -5893.5505     26840.57 
  174200    322.55123   -5863.3767    30.766846   -5894.1435    13318.588 
  174400    292.36793    -5858.872    27.887784   -5886.7598   -5948.0896 
  174600    323.58343   -5851.6393    30.865303   -5882.5046    19493.025 
  174800    278.68629   -5869.1915    26.582748   -5895.7743    14403.581 
  175000    323.80127   -5866.8012    30.886083   -5897.6873   -9399.9011 
  175200    387.59628   -5860.8321    36.971229   -5897.8034   -12126.417 
  175400     274.2044   -5868.6589    26.155239   -5894.8141     -33281.5 
  175600    291.77352   -5865.6583    27.831086   -5893.4894    13924.553 
  175800    302.24229   -5861.9849    28.829659   -5890.8146   -9510.5654 
  176000    301.42157   -5867.6095    28.751375   -5896.3608    12185.112 
  176200    314.27825   -5856.3104    29.977721   -5886.2881    22152.561 
  176400    300.93993   -5864.5993    28.705432   -5893.3047   -931.06931 
  176600    336.59527   -5867.0656     32.10645   -5899.1721   -235.67179 
  176800    332.30852   -5864.5342    31.697554   -5896.2318    28938.606 
  177000    313.02468   -5864.5311    29.858148   -5894.3893    542.94895 
  177200    289.91528   -5867.4651    27.653836   -5895.1189   -33331.328 
  177400    295.34135   -5871.0373    28.171407   -5899.2087   -16292.717 
  177600    355.01082   -5856.5802    33.863034   -5890.4432    32999.757 
  177800     307.4948   -5867.2882    29.330675   -5896.6188   -3206.2097 
  178000    286.19142   -5866.8353    27.298633    -5894.134   -16914.019 
  178200    351.32945   -5858.9008    33.511883   -5892.4126    24315.789 
  178400    245.59413   -5872.7169    23.426223   -5896.1431    9828.2779 
  178600    266.87711   -5868.0437    25.456319      -5893.5    17884.398 
  178800     283.5164   -5863.9677    27.043473   -5891.0112    306.63208 
  179000    282.73513   -5871.6642    26.968951   -5898.6332   -12643.385 
  179200    237.72213   -5876.1216    22.675344    -5898.797    17630.753 
  179400    330.75082   -5860.6053    31.548971   -5892.1543   -3758.9253 
  179600    250.49033   -5872.1876    23.893251   -5896.0808   -23446.403 
  179800    292.05994   -5867.7253    27.858407   -5895.5837    12046.342 
[...]
  950000    395.63177   -5854.5703    37.737701    -5892.308   -15797.335 
  950200    331.81906   -5865.7166    31.650867   -5897.3675    1626.6891 
  950400    309.30355    -5867.442    29.503204   -5896.9452    11045.816 
  950600    327.20389   -5861.9802    31.210645   -5893.1909   -1993.1905 
  950800    328.01695   -5862.5862    31.288199   -5893.8744   -20690.928 
  951000    242.85596   -5870.2555    23.165039   -5893.4205   -43190.838 
  951200    377.79027   -5853.0267    36.035873   -5889.0626    2222.4995 
  951400    314.01103   -5866.6474    29.952232   -5896.5996    21783.556 
  951600    310.40511   -5866.8723    29.608277   -5896.4806   -5013.6101 
  951800    266.99362   -5865.0249    25.467433   -5890.4923    523.08316 
  952000    259.98228   -5867.8343     24.79865   -5892.6329   -22279.967 
  952200    376.73351   -5860.9182    35.935073   -5896.8533    17467.567 
  952400    275.63546   -5867.4168    26.291742   -5893.7085    10433.385 
  952600    267.95745   -5870.7934    25.559368   -5896.3528   -2689.0984 
  952800    371.51833   -5857.6774    35.437619    -5893.115   -12526.616 
  953000    264.64563   -5869.3519    25.243468   -5894.5954    8008.6714 
  953200    304.95419   -5863.6327    29.088336   -5892.7211    -28725.97 
  953400    382.06559   -5853.9659    36.443678   -5890.4096   -15415.462 
  953600    253.40384   -5866.5869    24.171159    -5890.758   -52380.731 
  953800    366.26593   -5858.6998    34.936613   -5893.6365     11279.71 
  954000    255.18016   -5874.7878    24.340595   -5899.1284   -22034.875 
  954200    297.64367   -5866.7603    28.391016   -5895.1513    11266.789 
  954400     249.7107   -5862.2533    23.818886   -5886.0722    33688.416 
  954600     308.1809   -5865.8661     29.39612   -5895.2622    7541.1593 
  954800    289.13665   -5870.4167    27.579566   -5897.9962   -35569.421 
  955000    384.48174   -5860.0453    36.674145   -5896.7195     7170.975 
  955200     264.9144     -5865.56    25.269104   -5890.8291    23585.139 
  955400    215.28816   -5863.3191     20.53546   -5883.8546   -23249.797 
  955600     314.1005   -5868.4088    29.960766   -5898.3695    5395.6781 
  955800     230.6017    -5871.404    21.996155   -5893.4001    26728.206 
  956000     305.8579   -5862.3673    29.174537   -5891.5419    22496.915 
  956200    302.39808   -5869.4881     28.84452   -5898.3326   -6129.3994 
  956400    293.53507   -5873.8244    27.999113   -5901.8235   -5441.6723 
  956600    315.67007   -5859.8859    30.110481   -5889.9964   -18597.402 
  956800    268.66082   -5870.2253     25.62646   -5895.8518    319.31427 
  957000    221.77907   -5876.8794    21.154601    -5898.034   -5913.2781 
  957200    304.66733   -5860.3569    29.060974   -5889.4179    2276.6705 
  957400    268.72467   -5862.8589     25.63255   -5888.4915   -4753.4733 
  957600    280.61479   -5869.0328    26.766701   -5895.7995   -13196.453 
  957800    293.44943   -5863.0503    27.990945   -5891.0412   -34909.372 
  958000    415.71345   -5856.4269    39.653211   -5896.0801    23950.524 
  958200    282.62091    -5865.988    26.958056   -5892.9461    -9701.013 
  958400    318.17395   -5865.5812    30.349316   -5895.9305    3139.2171 
  958600    361.70989   -5853.1199    34.502031   -5887.6219    19422.833 
  958800    261.27202   -5870.5756    24.921673   -5895.4973   -16775.923 
  959000    293.18165   -5863.3686    27.965402    -5891.334    4992.4134 
  959200    427.52001   -5852.6793    40.779391   -5893.4586    3554.9707 
  959400    309.81556   -5867.9623    29.552043   -5897.5143   -31394.698 
  959600    311.45585   -5870.0076    29.708503   -5899.7161    3948.9747 
  959800     279.8433   -5854.9838    26.693111    -5881.677   -5471.6621 
  960000    383.21469   -5861.8435    36.553286   -5898.3968   -18732.921 
  960200    323.75723   -5868.2974    30.881882   -5899.1793   -11322.823 
  960400    308.31861   -5867.3016    29.409255   -5896.7108   -9681.3901 
  960600     349.6952   -5855.0943    33.355999   -5888.4503   -5985.9326 
  960800    290.74078   -5865.3359    27.732577   -5893.0685    2061.1791 
  961000    242.34424   -5870.8803    23.116228   -5893.9966    6307.2981 
  961200    273.61924   -5861.2661    26.099423   -5887.3655   -29666.749 
  961400    338.81312   -5864.4227    32.318002   -5896.7407    28151.831 
  961600    274.21046   -5868.5845    26.155817   -5894.7404      9103.75 
  961800    308.00977   -5851.3142    29.379796    -5880.694    23108.711 
  962000     306.5648   -5862.2284    29.241966   -5891.4704   -21182.365 
  962200    305.30817   -5868.9909    29.122101    -5898.113    7625.8495 
  962400    224.82328   -5876.4094    21.444976   -5897.8544    13920.172 
  962600    270.08957   -5863.2435    25.762742   -5889.0063    20342.828 
  962800    372.16754   -5859.2177    35.499544   -5894.7172    16709.913 
  963000    270.00062   -5872.8215    25.754258   -5898.5758   -12346.117 
  963200    283.43841    -5864.585    27.036034   -5891.6211    16819.475 
  963400    290.82148   -5860.6312    27.740274   -5888.3715    16813.477 
  963600    345.09004   -5863.0804    32.916731   -5895.9971   -3470.4599 
  963800    277.73133   -5867.4606    26.491659   -5893.9523    10992.943 
  964000    287.35358   -5866.3726    27.409486   -5893.7821    2312.9392 
  964200     290.2296   -5859.7132    27.683818    -5887.397    2953.3136 
  964400    260.31743   -5873.6601    24.830618   -5898.4907   -19738.297 
  964600    289.47748   -5865.3849    27.612077    -5892.997    13725.131 
  964800    284.20136   -5861.9014    27.108809   -5889.0102   -15921.143 
  965000    260.94183   -5872.2522    24.890177   -5897.1423   -12134.405 
  965200    259.50843    -5870.124    24.753451   -5894.8775    15433.835 
  965400    333.42173   -5860.9433    31.803739    -5892.747    35481.438 
  965600    286.23163   -5869.5267    27.302468   -5896.8292   -22451.496 
  965800    171.30076   -5879.6991    16.339681   -5896.0388   -931.21904 
  966000    315.31015   -5866.7713     30.07615   -5896.8475   -1246.7641 
  966200    283.97437   -5867.8892    27.087157   -5894.9764     2743.806 
  966400    265.08161   -5871.8978    25.285054   -5897.1829    8702.3376 
  966600      276.227    -5861.181    26.348166   -5887.5291    942.04391 
  966800    260.47779   -5875.2543    24.845914   -5900.1002    5321.0837 
  967000    261.05017   -5871.5529    24.900511   -5896.4535    8177.0298 
  967200    299.07924   -5865.3548    28.527949   -5893.8828   -4061.5418 
  967400    402.07513   -5849.6359    38.352307   -5887.9882   -36432.559 
  967600    261.24619   -5868.0483    24.919208   -5892.9675   -7773.1832 
  967800    304.08249   -5866.7833    29.005189   -5895.7885   -3180.5648 
  968000    324.25179   -5865.7529    30.929056   -5896.6819    12326.143 
  968200    321.77955    -5856.724    30.693239   -5887.4172    1345.3262 
  968400    313.38647   -5870.6453    29.892658    -5900.538   -19224.826 
  968600    306.52658   -5865.1301     29.23832   -5894.3684    583.56213 
  968800    253.20599   -5860.3451    24.152287   -5884.4974   -12667.335 
  969000    241.29691    -5874.004    23.016328   -5897.0203   -6105.1552 
  969200     319.8666   -5861.6184    30.510771   -5892.1292    23479.583 
  969400    261.79492   -5863.6989     24.97155   -5888.6704   -29135.873 
  969600    384.04823    -5868.044    36.632795   -5904.6768    19463.453 
  969800    288.21898   -5863.6827    27.492033   -5891.1748    19601.865 
  970000    317.81549   -5859.4101    30.315123   -5889.7252    12870.622 
  970200    198.38338   -5871.5563    18.922981   -5890.4793   -17721.355 
  970400    334.61716   -5859.7774    31.917767   -5891.6952    13216.795 
  970600    381.68147   -5857.4437    36.407039   -5893.8507    14015.302 
  970800     331.5278   -5865.7208    31.623085   -5897.3439   -21818.043 
  971000    305.74953   -5867.2426    29.164201   -5896.4068   -5425.4806 
  971200    394.70689    -5855.334     37.64948   -5892.9835    18526.869 
  971400    255.02562   -5868.5112    24.325854   -5892.8371   -17821.051 
  971600    344.98541   -5863.4874    32.906751   -5896.3941    4779.0525 
  971800    360.04055   -5853.6357      34.3428   -5887.9785   -12987.152 
  972000    260.84189   -5867.5849    24.880644   -5892.4656    1138.4669 
  972200     313.4982   -5867.6271    29.903314   -5897.5304   -13931.198 
  972400     329.7359    -5872.652    31.452163   -5904.1042    9190.6283 
  972600    337.31914   -5858.1457    32.175497   -5890.3212    16074.675 
  972800    269.72141   -5865.2152    25.727625   -5890.9429    13770.394 
  973000    319.05995    -5863.924    30.433827   -5894.3578   -3483.7193 
  973200    283.55174   -5872.2817    27.046844   -5899.3285   -3456.4691 
  973400    236.01056   -5877.6453    22.512084   -5900.1574   -17789.689 
  973600    273.93676   -5864.2087     26.12971   -5890.3384    9670.8081 
  973800    350.85205   -5860.4549    33.466346   -5893.9212   -19616.402 
  974000    261.05831   -5870.1329    24.901287   -5895.0342    2401.6955 
  974200    278.20695   -5872.9358    26.537026   -5899.4729   -5807.6125 
  974400    348.24074   -5861.3446    33.217264   -5894.5619    7948.7304 
  974600    264.88436   -5871.7334    25.266239   -5896.9996    7301.8453 
  974800    378.51877   -5857.2771    36.105362   -5893.3824    17888.266 
  975000    302.66211   -5859.7884    28.869704   -5888.6581    -2972.075 
  975200    264.60623   -5866.6334     25.23971   -5891.8731     7617.071 
  975400    282.44484   -5875.3848    26.941261    -5902.326    3510.4639 
  975600    284.50667   -5870.8577    27.137931   -5897.9956    -31528.53 
  975800    258.69242   -5864.6087    24.675615   -5889.2843    -19593.77 
  976000    245.59883   -5872.3721    23.426671   -5895.7988     16949.66 
  976200    289.43161   -5866.9835    27.607701   -5894.5912    13344.515 
  976400      269.525   -5863.2899     25.70889   -5888.9988    7390.7251 
  976600    257.23777   -5869.0845    24.536861   -5893.6213    2592.4715 
  976800    252.60645   -5878.3677    24.095099   -5902.4628    10120.829 
  977000    297.82018   -5864.8937    28.407852   -5893.3015   -18511.674 
  977200    321.51338   -5860.5582     30.66785    -5891.226    4649.3935 
  977400    331.50993   -5861.7461     31.62138   -5893.3675   -6208.6707 
  977600    298.93329   -5870.6258    28.514027   -5899.1398    7630.8794 
  977800    345.74145     -5858.43    32.978867   -5891.4089   -4897.2884 
  978000    339.05436    -5859.306    32.341013    -5891.647    9512.5914 
  978200     290.6346   -5864.6968    27.722449   -5892.4193   -1699.3291 
  978400    284.81785   -5869.2417    27.167613   -5896.4093    16757.081 
  978600    347.68716   -5855.3528     33.16446   -5888.5172   -4461.5051 
  978800    259.21485    -5866.359    24.725447   -5891.0845   -6255.8051 
  979000    273.47522   -5865.3209    26.085686   -5891.4066    5097.4206 
  979200    363.31054   -5855.7671     34.65471   -5890.4218    1838.3235 
  979400     302.5092   -5860.4849    28.855119     -5889.34   -8764.8802 
  979600    239.86264   -5869.5238    22.879519   -5892.4034    6437.8099 
  979800    287.97488   -5854.6877    27.468749   -5882.1565    10387.362 
  980000    304.44888   -5864.3762    29.040137   -5893.4163   -25940.406 
  980200    247.53988   -5867.7268     23.61182   -5891.3386    30410.386 
  980400    331.50257   -5854.7011    31.620678   -5886.3218    4501.1695 
  980600    346.10973   -5859.7573    33.013995   -5892.7713   -15760.485 
  980800     235.6697   -5869.3881    22.479571   -5891.8677    11573.632 
  981000    446.12386   -5858.2186    42.553936   -5900.7726    7170.0991 
  981200    325.14718   -5862.1424    31.014463   -5893.1569   -22214.071 
  981400    319.50522   -5866.5632    30.476299   -5897.0395    1298.0585 
  981600    302.39297   -5867.7943    28.844032   -5896.6383   -10940.173 
  981800    304.29258   -5859.3059    29.025228   -5888.3311    3561.8263 
  982000    392.63803   -5853.8083     37.45214   -5891.2604    11043.162 
  982200    315.79335   -5866.9824     30.12224   -5897.1047    11220.793 
  982400    357.54747   -5862.7378    34.104995   -5896.8428   -5805.4177 
  982600    243.64393   -5866.0515    23.240201   -5889.2917    2394.8981 
  982800     235.3095   -5875.8247    22.445214   -5898.2699    9160.6722 
  983000    311.39333   -5861.9736    29.702539   -5891.6762    18054.854 
  983200    331.86043   -5857.7825    31.654813   -5889.4373    24057.493 
  983400    283.48441   -5873.9652    27.040421   -5901.0056    5196.7322 
  983600    236.27138   -5868.7941    22.536964   -5891.3311   -17979.798 
  983800    246.94438   -5859.4966    23.555017   -5883.0516    8947.6124 
  984000    286.14774   -5864.3811    27.294465   -5891.6755   -5631.2042 
  984200    268.86756   -5868.6252     25.64618   -5894.2714    17659.701 
  984400     303.8157   -5866.7373     28.97974    -5895.717    158.92807 
  984600    291.84877    -5864.127    27.838264   -5891.9653   -13661.001 
  984800     244.0522   -5879.1074    23.279144   -5902.3866   -6933.3349 
  985000    250.79569   -5871.2324    23.922378   -5895.1548   -10585.445 
  985200    337.87422   -5864.1865    32.228444   -5896.4149   -5402.7037 
  985400    321.69709   -5861.4361    30.685373   -5892.1215    7216.7248 
  985600    368.64549    -5860.025    35.163589   -5895.1886    7285.4165 
  985800    279.21592   -5872.1723    26.633268   -5898.8056    28051.182 
  986000    311.84909   -5860.2561    29.746013   -5890.0021    16591.078 
  986200    352.48356   -5854.4224    33.621969   -5888.0444   -51188.233 
  986400    268.06516   -5866.0004    25.569642     -5891.57    38788.469 
  986600     321.0599   -5871.2186    30.624594   -5901.8432   -2282.2562 
  986800    302.19992   -5854.8508    28.825618   -5883.6764    14268.872 
  987000     269.1558   -5866.6698    25.673674   -5892.3435   -18150.413 
  987200    332.12303   -5866.3829    31.679862   -5898.0627    31319.139 
  987400    284.92562   -5865.5173    27.177893   -5892.6952    4723.1289 
  987600    344.45964   -5849.9012      32.8566   -5882.7578    32794.901 
  987800    306.90015   -5863.9199    29.273954   -5893.1938    -9913.204 
  988000    263.23415   -5870.2383    25.108832   -5895.3472   -3103.6024 
  988200    316.93983   -5858.1062    30.231598   -5888.3377   -7007.4921 
  988400    289.48537   -5863.1712    27.612829    -5890.784    8022.2914 
  988600    283.81914   -5863.7506     27.07235    -5890.823    15912.952 
  988800    242.33659   -5873.3649    23.115499   -5896.4804   -39264.699 
  989000    290.23451   -5868.7687    27.684286    -5896.453   -7283.4607 
  989200    300.61412   -5864.1248    28.674355   -5892.7991   -10110.822 
  989400    333.27544   -5863.0796    31.789785   -5894.8694    13645.349 
  989600    364.41973   -5857.2613    34.760512   -5892.0218   -7912.0373 
  989800    290.47375   -5871.7558    27.707106   -5899.4629   -20716.381 
  990000    299.06886   -5865.5879    28.526959   -5894.1149   -10136.298 
  990200    271.81019   -5863.2696    25.926866   -5889.1964   -18851.121 
  990400    281.86413    -5873.746     26.88587   -5900.6319    15117.853 
  990600    340.11906   -5868.5942     32.44257   -5901.0368   -8229.5181 
  990800    366.54547   -5857.2297    34.963277    -5892.193   -3461.1607 
  991000    263.14513   -5870.6964    25.100341   -5895.7967    11022.687 
  991200    228.94281    -5882.999    21.837921   -5904.8369   -11865.425 
  991400    307.06582   -5865.3755    29.289756   -5894.6653   -26006.537 
  991600    428.23729   -5857.0964    40.847809   -5897.9442   -11583.514 
  991800    295.81872   -5869.1172    28.216941   -5897.3341    26654.018 
  992000    250.10053    -5868.556    23.856069   -5892.4121   -1139.0744 
  992200    332.46732   -5859.8838    31.712702   -5891.5965    25371.931 
  992400     336.5618   -5870.3996    32.103258   -5902.5029   -4351.0153 
  992600    297.48361   -5858.9726    28.375748   -5887.3483   -37187.073 
  992800    318.46114   -5863.7687    30.376709   -5894.1454    26566.207 
  993000    281.07047   -5869.8237    26.810166   -5896.6338   -4394.9287 
  993200    334.00934   -5856.5491    31.859789   -5888.4089   -34398.961 
  993400    325.35333   -5864.3566    31.034127   -5895.3908    972.86273 
  993600    234.13724   -5875.6502    22.333396   -5897.9836    24265.554 
  993800    237.16143   -5879.5835    22.621861   -5902.2054   -39238.142 
  994000    338.23575   -5865.0468    32.262929   -5897.3097   -742.69242 
  994200    409.50445   -5857.1965    39.060959   -5896.2575    23810.605 
  994400    247.08678   -5871.1148      23.5686   -5894.6834   -31304.762 
  994600    240.54804   -5868.8703    22.944896   -5891.8152    4802.5415 
  994800     265.8278   -5864.6591    25.356229   -5890.0154    9237.5462 
  995000    384.03519   -5859.6171    36.631551   -5896.2487   -1688.4962 
  995200    240.76513   -5867.9025    22.965604   -5890.8681   -2663.9932 
  995400    295.22276   -5867.5462    28.160095   -5895.7063   -24649.374 
  995600    347.66116   -5854.2358     33.16198   -5887.3978    6943.6702 
  995800    332.64674   -5863.4767    31.729816   -5895.2066   -7642.5501 
  996000    302.17452   -5868.6164    28.823195   -5897.4396    2001.2687 
  996200    317.16282   -5876.0275    30.252868   -5906.2804    3521.6248 
  996400    297.09934   -5861.9634    28.339094   -5890.3025    14796.474 
  996600     337.2982   -5860.4781    32.173499   -5892.6516   -28302.674 
  996800    297.19402   -5868.2483    28.348125   -5896.5964   -18122.123 
  997000    249.64952   -5876.5944     23.81305   -5900.4074    7101.4961 
  997200    290.86926   -5864.0559    27.744832   -5891.8007    31481.016 
  997400    311.48738   -5856.6341     29.71151   -5886.3456   -24518.932 
  997600    265.21982   -5871.3303    25.298237   -5896.6285   -1488.6707 
  997800     314.8557   -5860.9491    30.032801   -5890.9819    -934.8291 
  998000    316.74683   -5865.5967    30.213188   -5895.8098    -14348.05 
  998200    301.27635   -5865.7583    28.737522   -5894.4958   -17406.647 
  998400     375.0025   -5850.2915    35.769959   -5886.0614   -18144.116 
  998600    374.82467   -5860.3814    35.752996   -5896.1344    9926.6419 
  998800    283.81364   -5870.1402    27.071826    -5897.212    666.14777 
  999000    337.35333   -5858.4781    32.178759   -5890.6569   -6688.3957 
  999200    291.95072   -5856.5147    27.847989   -5884.3627    2391.8342 
  999400    306.16301   -5862.6752    29.203641   -5891.8788    15029.123 
  999600    249.57261   -5873.4714    23.805713   -5897.2772   -2488.1793 
  999800    235.95334   -5864.2431    22.506626   -5886.7497    -27326.16 
 1000000     342.7401   -5862.2715    32.692581   -5894.9641    26916.902 
Loop time of 2347.42 on 8 procs for 1000000 steps with 33 atoms

Performance: 9.202 ns/day, 2.608 hours/ns, 426.000 timesteps/s
99.4% CPU use with 8 MPI tasks x no OpenMP threads

MPI task timing breakdown:
Section |  min time  |  avg time  |  max time  |%varavg| %total
---------------------------------------------------------------
Pair    | 1736.7     | 1883.3     | 2046.6     | 272.8 | 80.23
Neigh   | 0.19444    | 0.20101    | 0.2046     |   0.8 |  0.01
Comm    | 32.907     | 196.33     | 343.32     | 844.4 |  8.36
Output  | 0.07776    | 0.085599   | 0.13515    |   6.4 |  0.00
Modify  | 264.99     | 265.52     | 266.03     |   2.4 | 11.31
Other   |            | 2.031      |            |       |  0.09

Nlocal:    4.125 ave 10 max 0 min
Histogram: 4 0 0 0 0 0 0 1 2 1
Nghost:    682.125 ave 728 max 643 min
Histogram: 2 0 2 0 1 0 1 0 0 2
Neighs:    802.75 ave 1966 max 0 min
Histogram: 4 0 0 0 0 0 0 3 0 1

Total # of neighbors = 6422
Ave neighs/atom = 194.606
Neighbor list builds = 233
Dangerous builds = 0

unfix 1
unfix output
undump 1

Please see the log.cite file for references relevant to this simulation

Total wall time: 0:39:09
