ITEM: TIMESTEP
0
ITEM: NUMBER OF ATOMS
33
ITEM: BOX BOUNDS pp pp pp
0.0000000000000000e+00 7.0970000000000004e+00
0.0000000000000000e+00 7.0970000000000004e+00
0.0000000000000000e+00 2.4588000000000001e+01
ITEM: ATOMS id type x y z 
2 1 3.339 1.632 13.319 
5 1 4.651 1.581 18.133 
7 1 3.391 1.602 15.981 
8 1 2.166 1.581 18.134 
18 1 3.408 1.581 17.416 
21 1 3.338 2.875 12.602 
23 1 3.367 1.619 14.753 
24 1 3.338 0.39 12.601 
17 1 7.023 2.875 24.28 
19 1 6.997 1.619 22.129 
20 1 7.023 0.39 24.281 
22 1 6.957 1.581 19.466 
25 1 5.714 1.581 18.748 
27 1 6.974 1.602 20.9 
28 1 1.102 1.581 18.748 
30 1 7.024 1.631 23.563 
10 1 6.954 5.232 5.122 
13 1 7.023 3.938 0.307 
15 1 6.994 5.194 2.459 
16 1 7.023 6.423 0.307 
26 1 7.022 5.181 1.025 
29 1 5.711 5.232 5.839 
31 1 6.97 5.211 3.688 
32 1 1.098 5.232 5.84 
33 2 4.045 5.55 5.293 
1 1 4.647 5.232 6.454 
3 1 3.388 5.211 8.606 
4 1 2.163 5.232 6.454 
6 1 3.338 5.182 11.269 
9 1 3.338 3.939 11.986 
11 1 3.365 5.194 9.834 
12 1 3.338 6.423 11.987 
14 1 3.404 5.232 7.171 
ITEM: TIMESTEP
10
ITEM: NUMBER OF ATOMS
33
ITEM: BOX BOUNDS pp pp pp
0.0000000000000000e+00 7.0970000000000004e+00
0.0000000000000000e+00 7.0970000000000004e+00
0.0000000000000000e+00 2.4588000000000001e+01
ITEM: ATOMS id type x y z 
2 1 3.33735 1.63133 13.3202 
5 1 4.65467 1.58105 18.1341 
7 1 3.39124 1.60186 15.9797 
8 1 2.16297 1.58091 18.1369 
18 1 3.40784 1.58106 17.416 
21 1 3.33874 2.87598 12.6029 
23 1 3.36738 1.6193 14.7549 
24 1 3.33858 0.388418 12.5991 
17 1 7.02318 2.8748 24.2793 
19 1 6.99681 1.61934 22.1311 
20 1 7.02351 0.389388 24.2826 
22 1 6.95705 1.58111 19.4649 
25 1 5.7105 1.58095 18.747 
27 1 6.97357 1.60173 20.8973 
28 1 1.10503 1.58094 18.745 
30 1 7.02392 1.63153 23.5643 
10 1 6.96112 5.22745 5.14746 
13 1 7.02293 3.93471 0.305573 
15 1 6.99464 5.19516 2.45738 
16 1 7.02278 6.42679 0.303229 
26 1 7.02207 5.18073 1.01435 
29 1 5.67443 5.26514 5.70787 
31 1 6.97177 5.21188 3.6687 
32 1 1.09759 5.22868 5.84236 
33 2 4.20607 5.54387 5.20042 
1 1 4.58503 5.23686 6.53739 
3 1 3.38444 5.20601 8.60798 
4 1 2.15717 5.2251 6.51193 
6 1 3.33878 5.18079 11.2664 
9 1 3.33923 3.93523 11.9874 
11 1 3.36145 5.19481 9.84817 
12 1 3.33822 6.429 11.9914 
14 1 3.34297 5.21706 7.2419 
ITEM: TIMESTEP
20
ITEM: NUMBER OF ATOMS
33
ITEM: BOX BOUNDS pp pp pp
0.0000000000000000e+00 7.0970000000000004e+00
0.0000000000000000e+00 7.0970000000000004e+00
0.0000000000000000e+00 2.4588000000000001e+01
ITEM: ATOMS id type x y z 
2 1 3.33704 1.63156 13.3248 
5 1 4.65554 1.58078 18.1338 
7 1 3.39121 1.60186 15.9816 
8 1 2.163 1.58083 18.1377 
18 1 3.40804 1.581 17.4175 
21 1 3.33789 2.87393 12.6054 
23 1 3.36849 1.6198 14.7594 
24 1 3.33883 0.394173 12.6013 
17 1 7.02321 2.8771 24.2802 
19 1 6.99657 1.6195 22.1261 
20 1 7.02324 0.388913 24.2834 
22 1 6.95691 1.58098 19.4643 
25 1 5.70971 1.58108 18.7473 
27 1 6.9731 1.60191 20.8993 
28 1 1.10497 1.58083 18.7441 
30 1 7.02436 1.6318 23.5625 
10 1 6.96137 5.22541 5.12997 
13 1 7.02283 3.93282 0.303689 
15 1 6.99594 5.19666 2.45868 
16 1 7.0231 6.42704 0.301614 
26 1 7.02179 5.18133 1.01909 
29 1 5.61575 5.29312 5.63452 
31 1 6.97776 5.2101 3.67871 
32 1 1.09077 5.22279 5.85511 
33 2 4.29339 5.5333 5.13789 
1 1 4.59127 5.24115 6.58988 
3 1 3.38074 5.20147 8.62965 
4 1 2.10752 5.22021 6.52522 
6 1 3.34144 5.18007 11.2926 
9 1 3.33894 3.92944 11.9908 
11 1 3.35685 5.1939 9.85382 
12 1 3.33811 6.43131 11.9944 
14 1 3.36333 5.21282 7.23054 
ITEM: TIMESTEP
26
ITEM: NUMBER OF ATOMS
33
ITEM: BOX BOUNDS pp pp pp
0.0000000000000000e+00 7.0970000000000004e+00
0.0000000000000000e+00 7.0970000000000004e+00
0.0000000000000000e+00 2.4588000000000001e+01
ITEM: ATOMS id type x y z 
2 1 3.3364 1.63233 13.3272 
5 1 4.65565 1.58046 18.1338 
7 1 3.39139 1.60216 15.9826 
8 1 2.16329 1.5808 18.138 
18 1 3.40817 1.58075 17.4191 
21 1 3.33749 2.87259 12.6065 
23 1 3.36868 1.62016 14.7631 
24 1 3.34075 0.394611 12.6017 
17 1 7.02326 2.87798 24.2801 
19 1 6.99646 1.61955 22.1212 
20 1 7.0229 0.388786 24.2836 
22 1 6.95687 1.58093 19.4651 
25 1 5.71048 1.5813 18.7479 
27 1 6.97295 1.60201 20.9049 
28 1 1.10383 1.58074 18.7444 
30 1 7.02487 1.63192 23.5612 
10 1 6.95644 5.22463 5.12088 
13 1 7.0222 3.93372 0.304445 
15 1 6.99859 5.19538 2.4608 
16 1 7.02313 6.4261 0.301489 
26 1 7.02124 5.18184 1.0204 
29 1 5.6115 5.2995 5.6201 
31 1 6.98138 5.21018 3.67952 
32 1 1.08813 5.22105 5.86451 
33 2 4.29753 5.52923 5.11562 
1 1 4.59947 5.24789 6.5922 
3 1 3.3765 5.20092 8.63593 
4 1 2.10778 5.21862 6.53373 
6 1 3.34079 5.18102 11.2931 
9 1 3.33925 3.92793 11.9931 
11 1 3.3597 5.19203 9.85862 
12 1 3.33591 6.43186 11.9956 
14 1 3.36003 5.21002 7.22455 
ITEM: TIMESTEP
30
ITEM: NUMBER OF ATOMS
33
ITEM: BOX BOUNDS pp pp pp
0.0000000000000000e+00 7.0970000000000004e+00
0.0000000000000000e+00 7.0970000000000004e+00
0.0000000000000000e+00 2.4588000000000001e+01
ITEM: ATOMS id type x y z 
2 1 3.33116 1.63123 13.3294 
5 1 4.65682 1.57909 18.1346 
7 1 3.39271 1.60281 15.9877 
8 1 2.16241 1.58087 18.1395 
18 1 3.40826 1.58043 17.4226 
21 1 3.3512 2.87322 12.613 
23 1 3.36729 1.62044 14.7659 
24 1 3.33852 0.396365 12.6028 
17 1 7.02359 2.87908 24.2799 
19 1 6.99604 1.61984 22.1274 
20 1 7.02119 0.389035 24.2838 
22 1 6.95682 1.58048 19.4658 
25 1 5.71129 1.58258 18.7489 
27 1 6.97269 1.60207 20.9004 
28 1 1.10285 1.58044 18.7444 
30 1 7.02572 1.6324 23.562 
10 1 6.95773 5.22293 5.11482 
13 1 7.02179 3.93415 0.305138 
15 1 7.00416 5.19436 2.45799 
16 1 7.02495 6.42609 0.300607 
26 1 7.01858 5.18114 1.02188 
29 1 5.60019 5.31123 5.59834 
31 1 6.98975 5.2101 3.6798 
32 1 1.07888 5.21853 5.87968 
33 2 4.30111 5.51956 5.08755 
1 1 4.60653 5.2608 6.58177 
3 1 3.37225 5.19775 8.64081 
4 1 2.10545 5.21498 6.54438 
6 1 3.34082 5.18101 11.2962 
9 1 3.33056 3.92594 11.9941 
11 1 3.35908 5.18944 9.86456 
12 1 3.33858 6.43263 11.998 
14 1 3.36404 5.20797 7.22156 
ITEM: TIMESTEP
40
ITEM: NUMBER OF ATOMS
33
ITEM: BOX BOUNDS pp pp pp
0.0000000000000000e+00 7.0970000000000004e+00
0.0000000000000000e+00 7.0970000000000004e+00
0.0000000000000000e+00 2.4588000000000001e+01
ITEM: ATOMS id type x y z 
2 1 3.33542 1.63054 13.3353 
5 1 4.65977 1.5796 18.1326 
7 1 3.39336 1.60267 15.9912 
8 1 2.16294 1.58037 18.1426 
18 1 3.40793 1.5798 17.426 
21 1 3.34008 2.87551 12.6208 
23 1 3.36658 1.62218 14.7707 
24 1 3.33689 0.397233 12.6039 
17 1 7.02361 2.88006 24.2783 
19 1 6.9961 1.62179 22.1253 
20 1 7.02392 0.391422 24.2884 
22 1 6.95762 1.58046 19.4678 
25 1 5.70969 1.58065 18.7543 
27 1 6.97206 1.60223 20.9048 
28 1 1.10112 1.5808 18.7441 
30 1 7.02546 1.6324 23.5625 
10 1 6.96468 5.22283 5.11357 
13 1 7.02079 3.93321 0.30636 
15 1 7.01039 5.19614 2.45767 
16 1 7.02243 6.42328 0.295648 
26 1 7.01788 5.1811 1.02126 
29 1 5.5933 5.32406 5.57347 
31 1 7.0041 5.2072 3.67853 
32 1 1.06962 5.21587 5.90106 
33 2 4.29577 5.50808 5.05866 
1 1 4.60307 5.27373 6.55815 
3 1 3.37013 5.19465 8.64366 
4 1 2.10133 5.21062 6.55331 
6 1 3.33892 5.18076 11.3005 
9 1 3.34234 3.92408 11.9955 
11 1 3.35607 5.18324 9.86717 
12 1 3.33782 6.43332 12.0001 
14 1 3.37184 5.20912 7.22183 
ITEM: TIMESTEP
50
ITEM: NUMBER OF ATOMS
33
ITEM: BOX BOUNDS pp pp pp
0.0000000000000000e+00 7.0970000000000004e+00
0.0000000000000000e+00 7.0970000000000004e+00
0.0000000000000000e+00 2.4588000000000001e+01
ITEM: ATOMS id type x y z 
2 1 3.33766 1.63468 13.3397 
5 1 4.6585 1.5798 18.1384 
7 1 3.39278 1.60218 15.9949 
8 1 2.16211 1.57946 18.145 
18 1 3.41026 1.58068 17.4305 
21 1 3.33726 2.87188 12.618 
23 1 3.3677 1.62075 14.7746 
24 1 3.33615 0.396654 12.6075 
17 1 7.0229 2.88053 24.2783 
19 1 6.99706 1.62002 22.1288 
20 1 7.02329 0.389505 24.285 
22 1 6.95559 1.58156 19.4717 
25 1 5.71322 1.57986 18.7534 
27 1 6.97101 1.60359 20.9086 
28 1 1.10022 1.57878 18.7462 
30 1 7.02742 1.63391 23.5651 
10 1 6.97064 5.22466 5.11544 
13 1 7.01974 3.93404 0.306817 
15 1 7.02256 5.19323 2.45723 
16 1 7.02036 6.42464 0.298731 
26 1 7.01751 5.18151 1.0198 
29 1 5.59033 5.33571 5.54017 
31 1 7.02718 5.20957 3.67751 
32 1 1.05906 5.21269 5.9282 
33 2 4.28148 5.49479 5.02578 
1 1 4.58864 5.28408 6.51674 
3 1 3.37037 5.19355 8.6472 
4 1 2.0998 5.20819 6.56623 
6 1 3.34149 5.17723 11.3036 
9 1 3.33755 3.92928 12.0072 
11 1 3.35724 5.1776 9.86972 
12 1 3.33816 6.43261 12.0053 
14 1 3.37774 5.21177 7.22337 
ITEM: TIMESTEP
60
ITEM: NUMBER OF ATOMS
33
ITEM: BOX BOUNDS pp pp pp
0.0000000000000000e+00 7.0970000000000004e+00
0.0000000000000000e+00 7.0970000000000004e+00
0.0000000000000000e+00 2.4588000000000001e+01
ITEM: ATOMS id type x y z 
2 1 3.33537 1.63035 13.3427 
5 1 4.65906 1.58233 18.1401 
7 1 3.39383 1.60136 15.9982 
8 1 2.16297 1.58071 18.1481 
18 1 3.40819 1.57827 17.4334 
21 1 3.33876 2.87119 12.6202 
23 1 3.36715 1.62082 14.778 
24 1 3.33678 0.396859 12.6123 
17 1 7.02187 2.88128 24.2795 
19 1 6.99628 1.62086 22.13 
20 1 7.023 0.388147 24.2857 
22 1 6.95827 1.5812 19.4727 
25 1 5.71196 1.57753 18.757 
27 1 6.9706 1.60238 20.9098 
28 1 1.09986 1.57938 18.7479 
30 1 7.02809 1.63295 23.5663 
10 1 6.97381 5.23007 5.11357 
13 1 7.02188 3.93506 0.307084 
15 1 7.03528 5.19619 2.45873 
16 1 7.02063 6.4238 0.300139 
26 1 7.0153 5.18238 1.02408 
29 1 5.57576 5.34123 5.50963 
31 1 7.05144 5.20611 3.68108 
32 1 1.04667 5.21366 5.94502 
33 2 4.27609 5.48548 4.98844 
1 1 4.58163 5.28845 6.48826 
3 1 3.37784 5.19204 8.65159 
4 1 2.0903 5.20773 6.57939 
6 1 3.33929 5.1812 11.3088 
9 1 3.33774 3.9295 12.0126 
11 1 3.35882 5.17373 9.8746 
12 1 3.3376 6.43206 12.0084 
14 1 3.38087 5.2147 7.22139 
ITEM: TIMESTEP
70
ITEM: NUMBER OF ATOMS
33
ITEM: BOX BOUNDS pp pp pp
0.0000000000000000e+00 7.0970000000000004e+00
0.0000000000000000e+00 7.0970000000000004e+00
0.0000000000000000e+00 2.4588000000000001e+01
ITEM: ATOMS id type x y z 
2 1 3.33666 1.63407 13.3443 
5 1 4.65892 1.57888 18.1431 
7 1 3.39382 1.60204 16.0002 
8 1 2.1624 1.57896 18.1502 
18 1 3.41066 1.57993 17.4358 
21 1 3.33558 2.87112 12.6233 
23 1 3.36764 1.61988 14.7801 
24 1 3.3365 0.394513 12.6157 
17 1 7.02318 2.88157 24.2815 
19 1 6.9968 1.62077 22.1324 
20 1 7.02332 0.388955 24.2855 
22 1 6.95472 1.5813 19.4765 
25 1 5.71302 1.57976 18.7593 
27 1 6.97106 1.60248 20.9121 
28 1 1.10029 1.57883 18.7507 
30 1 7.02683 1.63412 23.5684 
10 1 6.97527 5.23264 5.11297 
13 1 7.02068 3.9363 0.307917 
15 1 7.04302 5.18498 2.46036 
16 1 7.02051 6.42524 0.301111 
26 1 7.01793 5.18179 1.02356 
29 1 5.57343 5.34409 5.48797 
31 1 7.07384 5.21434 3.6802 
32 1 1.03888 5.21441 5.95984 
33 2 4.26337 5.47842 4.96339 
1 1 4.56676 5.29105 6.46028 
3 1 3.38452 5.19151 8.6545 
4 1 2.08521 5.20988 6.58771 
6 1 3.33834 5.17592 11.3095 
9 1 3.33666 3.93151 12.0172 
11 1 3.36493 5.17221 9.87537 
12 1 3.33713 6.43171 12.0112 
14 1 3.38112 5.21584 7.22289 
ITEM: TIMESTEP
80
ITEM: NUMBER OF ATOMS
33
ITEM: BOX BOUNDS pp pp pp
0.0000000000000000e+00 7.0970000000000004e+00
0.0000000000000000e+00 7.0970000000000004e+00
0.0000000000000000e+00 2.4588000000000001e+01
ITEM: ATOMS id type x y z 
2 1 3.33595 1.63075 13.3456 
5 1 4.65837 1.57923 18.1448 
7 1 3.39421 1.6017 16.0014 
8 1 2.16278 1.57909 18.1511 
18 1 3.40864 1.57911 17.4367 
21 1 3.33606 2.87174 12.6251 
23 1 3.3677 1.62002 14.7812 
24 1 3.33605 0.394249 12.6172 
17 1 7.02291 2.88145 24.2816 
19 1 6.997 1.62137 22.133 
20 1 7.02315 0.388187 24.2872 
22 1 6.95694 1.58051 19.4765 
25 1 5.71299 1.5798 18.7594 
27 1 6.97058 1.60206 20.9129 
28 1 1.10042 1.57939 18.752 
30 1 7.02709 1.63348 23.5695 
10 1 6.97509 5.23706 5.11242 
13 1 7.0205 3.93596 0.30811 
15 1 7.05253 5.19339 2.46106 
16 1 7.02014 6.42429 0.301972 
26 1 7.01814 5.18131 1.02518 
29 1 5.56879 5.34507 5.47773 
31 1 7.08016 5.20657 3.68135 
32 1 1.03424 5.21633 5.96515 
33 2 4.26065 5.47527 4.9502 
1 1 4.56198 5.29102 6.45037 
3 1 3.38981 5.19123 8.65487 
4 1 2.08104 5.20993 6.59196 
6 1 3.33772 5.17857 11.311 
9 1 3.33671 3.93094 12.019 
11 1 3.3667 5.17193 9.87589 
12 1 3.3368 6.43102 12.0125 
14 1 3.38116 5.21698 7.22109 
ITEM: TIMESTEP
90
ITEM: NUMBER OF ATOMS
33
ITEM: BOX BOUNDS pp pp pp
0.0000000000000000e+00 7.0970000000000004e+00
0.0000000000000000e+00 7.0970000000000004e+00
0.0000000000000000e+00 2.4588000000000001e+01
ITEM: ATOMS id type x y z 
2 1 3.33612 1.6298 13.3478 
5 1 4.65792 1.57837 18.1486 
7 1 3.39459 1.60203 16.0036 
8 1 2.16333 1.57874 18.1533 
18 1 3.40796 1.57894 17.4389 
21 1 3.33398 2.87152 12.6284 
23 1 3.36801 1.61891 14.7833 
24 1 3.33536 0.392552 12.6203 
17 1 7.02335 2.88195 24.281 
19 1 6.99728 1.62371 22.1349 
20 1 7.02289 0.388214 24.2905 
22 1 6.95674 1.58107 19.4789 
25 1 5.71377 1.57958 18.761 
27 1 6.96938 1.59984 20.9149 
28 1 1.10121 1.57906 18.7548 
30 1 7.02642 1.63167 23.572 
10 1 6.97317 5.23798 5.11243 
13 1 7.02015 3.93402 0.31163 
15 1 7.06668 5.1978 2.46373 
16 1 7.02012 6.42207 0.302335 
26 1 7.02218 5.1817 1.02635 
29 1 5.55945 5.34755 5.45547 
31 1 7.10252 5.21034 3.68388 
32 1 1.02355 5.21926 5.97819 
33 2 4.25007 5.4668 4.92359 
1 1 4.54788 5.29184 6.42402 
3 1 3.40187 5.19104 8.65567 
4 1 2.07381 5.21297 6.59989 
6 1 3.33678 5.17688 11.3112 
9 1 3.33635 3.93321 12.0245 
11 1 3.37367 5.17235 9.87569 
12 1 3.33609 6.42924 12.0152 
14 1 3.38035 5.21798 7.21895 
ITEM: TIMESTEP
94
ITEM: NUMBER OF ATOMS
33
ITEM: BOX BOUNDS pp pp pp
0.0000000000000000e+00 7.0970000000000004e+00
0.0000000000000000e+00 7.0970000000000004e+00
0.0000000000000000e+00 2.4588000000000001e+01
ITEM: ATOMS id type x y z 
2 1 3.3356 1.63 13.3478 
5 1 4.65764 1.57894 18.1486 
7 1 3.39481 1.6012 16.0036 
8 1 2.16307 1.57888 18.1536 
18 1 3.40858 1.57883 17.439 
21 1 3.33504 2.87128 12.6285 
23 1 3.36771 1.61934 14.7834 
24 1 3.33545 0.392279 12.6203 
17 1 7.02262 2.88197 24.2812 
19 1 6.99646 1.62249 22.1353 
20 1 7.02277 0.388113 24.2906 
22 1 6.95726 1.57987 19.4787 
25 1 5.7135 1.57938 18.761 
27 1 6.96969 1.60193 20.9152 
28 1 1.10094 1.57919 18.7551 
30 1 7.02649 1.63202 23.5718 
10 1 6.97321 5.23837 5.11276 
13 1 7.02171 3.93415 0.311766 
15 1 7.06571 5.19688 2.46348 
16 1 7.02102 6.4221 0.302378 
26 1 7.02194 5.18175 1.02711 
29 1 5.559 5.34748 5.45445 
31 1 7.1042 5.21089 3.68354 
32 1 1.02302 5.21936 5.97862 
33 2 4.24945 5.46639 4.923 
1 1 4.54699 5.2918 6.42315 
3 1 3.40272 5.19098 8.65554 
4 1 2.07377 5.21312 6.59977 
6 1 3.3369 5.1772 11.3113 
9 1 3.33574 3.93332 12.0249 
11 1 3.37351 5.17244 9.87546 
12 1 3.33612 6.42891 12.0152 
14 1 3.38036 5.21814 7.21896 
ITEM: TIMESTEP
100
ITEM: NUMBER OF ATOMS
33
ITEM: BOX BOUNDS pp pp pp
-9.3211826780686719e-04 7.0979321182678072e+00
-1.0325058192672755e-03 7.0980325058192664e+00
-7.3764000000000008e-03 2.4595376399999999e+01
ITEM: ATOMS id type x y z 
2 1 3.33555 1.62944 13.3484 
5 1 4.65794 1.57837 18.1521 
7 1 3.39477 1.60063 16.0058 
8 1 2.16271 1.57831 18.1571 
18 1 3.40854 1.57826 17.4421 
21 1 3.33498 2.87109 12.6287 
23 1 3.36767 1.61878 14.7849 
24 1 3.3354 0.391353 12.6205 
17 1 7.02353 2.88178 24.2884 
19 1 6.99736 1.62192 22.1412 
20 1 7.02368 0.387191 24.2978 
22 1 6.95816 1.57929 19.483 
25 1 5.71406 1.57881 18.7649 
27 1 6.97059 1.60137 20.9204 
28 1 1.1003 1.57862 18.759 
30 1 7.0274 1.63146 23.5785 
10 1 6.97411 5.23886 5.10845 
13 1 7.02263 3.93426 0.304575 
15 1 7.06665 5.19736 2.45759 
16 1 7.02193 6.42294 0.295182 
26 1 7.02284 5.18223 1.02035 
29 1 5.55953 5.34801 5.45034 
31 1 0.00626704 5.21138 3.67837 
32 1 1.02237 5.21985 5.97484 
33 2 4.24964 5.46694 4.91857 
1 1 4.54725 5.29231 6.41962 
3 1 3.40268 5.19146 8.65336 
4 1 2.07337 5.2136 6.59635 
6 1 3.33684 5.17768 11.3107 
9 1 3.33569 3.93342 12.0248 
11 1 3.37346 5.17291 9.874 
12 1 3.33607 6.42975 12.015 
14 1 3.38031 5.21863 7.21592 
ITEM: TIMESTEP
110
ITEM: NUMBER OF ATOMS
33
ITEM: BOX BOUNDS pp pp pp
-2.7155412508859281e-03 7.0997155412508848e+00
-2.9130019147476662e-03 7.0999130019147474e+00
-1.9670400000000011e-02 2.4607670399999996e+01
ITEM: ATOMS id type x y z 
2 1 3.33544 1.62842 13.3495 
5 1 4.65852 1.57733 18.158 
7 1 3.39469 1.59959 16.0094 
8 1 2.16198 1.57727 18.163 
18 1 3.40848 1.57722 17.4473 
21 1 3.33488 2.87078 12.629 
23 1 3.36758 1.61776 14.7874 
24 1 3.33529 0.389645 12.6208 
17 1 7.02528 2.88146 24.3004 
19 1 6.99909 1.6209 22.151 
20 1 7.02543 0.385494 24.3098 
22 1 6.95987 1.57825 19.4902 
25 1 5.71512 1.57776 18.7713 
27 1 6.97231 1.60035 20.929 
28 1 1.09909 1.57757 18.7654 
30 1 7.02914 1.63045 23.5898 
10 1 6.97583 5.23976 5.10127 
13 1 7.02437 3.93444 0.292577 
15 1 7.06845 5.19824 2.44781 
16 1 7.02368 6.42448 0.283179 
26 1 7.02457 5.18309 1.00909 
29 1 5.56053 5.34896 5.4435 
31 1 0.00447431 5.21226 3.6697 
32 1 1.02113 5.22073 5.96855 
33 2 4.25 5.46795 4.9112 
1 1 4.54774 5.29323 6.41374 
3 1 3.40262 5.19233 8.64976 
4 1 2.07259 5.21449 6.59063 
6 1 3.33674 5.17854 11.3097 
9 1 3.33558 3.93358 12.0245 
11 1 3.37337 5.17378 9.87154 
12 1 3.33596 6.43131 12.0148 
14 1 3.38022 5.21951 7.21085 
ITEM: TIMESTEP
120
ITEM: NUMBER OF ATOMS
33
ITEM: BOX BOUNDS pp pp pp
-4.8919190865934631e-03 7.1018919190865910e+00
-5.7266624774984639e-03 7.1027266624774974e+00
-3.1239697838758702e-02 2.4619239697838751e+01
ITEM: ATOMS id type x y z 
2 1 3.3353 1.6269 13.3505 
5 1 4.6593 1.57577 18.1635 
7 1 3.39459 1.59805 16.0127 
8 1 2.16103 1.57571 18.1685 
18 1 3.40839 1.57566 17.4521 
21 1 3.33476 2.8704 12.6292 
23 1 3.36747 1.61623 14.79 
24 1 3.33516 0.38701 12.6211 
17 1 7.02742 2.88104 24.3118 
19 1 7.00118 1.61936 22.16 
20 1 7.02758 0.382886 24.3211 
22 1 6.96196 1.57668 19.497 
25 1 5.71634 1.5762 18.7774 
27 1 6.97442 1.59882 20.9374 
28 1 1.0977 1.57601 18.7715 
30 1 7.03126 1.62893 23.6004 
10 1 6.97795 5.24111 5.09448 
13 1 7.02651 3.93464 0.281235 
15 1 7.0707 5.19955 2.43878 
16 1 7.02581 6.42687 0.271842 
26 1 7.02667 5.18437 0.998513 
29 1 5.56173 5.35038 5.43704 
31 1 0.00226394 5.21357 3.66137 
32 1 1.01986 5.22206 5.96278 
33 2 4.25046 5.46946 4.90428 
1 1 4.54832 5.29462 6.40818 
3 1 3.40253 5.19362 8.64664 
4 1 2.07142 5.21581 6.5851 
6 1 3.33661 5.17983 11.3088 
9 1 3.33545 3.93373 12.0244 
11 1 3.37328 5.17507 9.86896 
12 1 3.33583 6.43372 12.0146 
14 1 3.38008 5.22084 7.20611 
ITEM: TIMESTEP
130
ITEM: NUMBER OF ATOMS
33
ITEM: BOX BOUNDS pp pp pp
-7.0691347484374096e-03 7.1040691347484355e+00
-8.8266042107142274e-03 7.1058266042107130e+00
-3.9952477680771210e-02 2.4627952477680765e+01
ITEM: ATOMS id type x y z 
2 1 3.33516 1.62523 13.3513 
5 1 4.66025 1.57406 18.1678 
7 1 3.39449 1.59634 16.0149 
8 1 2.1599 1.57399 18.1728 
18 1 3.40832 1.57394 17.4557 
21 1 3.33465 2.8702 12.6293 
23 1 3.36737 1.61454 14.7922 
24 1 3.33504 0.383901 12.6211 
17 1 7.02958 2.88075 24.3205 
19 1 7.00326 1.61764 22.1665 
20 1 7.02973 0.379844 24.3298 
22 1 6.96405 1.57495 19.5021 
25 1 5.71739 1.57447 18.7818 
27 1 6.97655 1.59716 20.9439 
28 1 1.09647 1.57428 18.7759 
30 1 7.03336 1.62727 23.6084 
10 1 6.98012 5.24261 5.08931 
13 1 7.02864 3.93469 0.272568 
15 1 7.07306 5.20102 2.43232 
16 1 7.02796 6.42966 0.263196 
26 1 7.02873 5.18576 0.990562 
29 1 5.56287 5.35195 5.43216 
31 1 6.10032e-06 5.215 3.65474 
32 1 1.01905 5.22352 5.95875 
33 2 4.251 5.4711 4.89913 
1 1 4.54881 5.29615 6.40393 
3 1 3.40245 5.19504 8.64473 
4 1 2.06983 5.21728 6.58063 
6 1 3.33649 5.18125 11.3081 
9 1 3.33531 3.93368 12.0244 
11 1 3.37319 5.17651 9.86656 
12 1 3.33569 6.43656 12.0146 
14 1 3.37986 5.2223 7.20258 
ITEM: TIMESTEP
137
ITEM: NUMBER OF ATOMS
33
ITEM: BOX BOUNDS pp pp pp
-7.0691347484374096e-03 7.1040691347484355e+00
-8.8266042107142274e-03 7.1058266042107130e+00
-3.9952477680771210e-02 2.4627952477680765e+01
ITEM: ATOMS id type x y z 
2 1 3.3349 1.62498 13.3516 
5 1 4.66109 1.57428 18.1689 
7 1 3.39432 1.59582 16.0127 
8 1 2.15851 1.5741 18.1738 
18 1 3.40884 1.57424 17.4543 
21 1 3.33519 2.87217 12.6294 
23 1 3.36719 1.61444 14.7935 
24 1 3.33502 0.381636 12.621 
17 1 7.03063 2.88166 24.3227 
19 1 7.00169 1.61635 22.1659 
20 1 7.03058 0.378235 24.3301 
22 1 6.96408 1.5746 19.5039 
25 1 5.71589 1.57438 18.7815 
27 1 6.97787 1.59858 20.9463 
28 1 1.09788 1.57408 18.7762 
30 1 7.03116 1.62815 23.6077 
10 1 6.98246 5.24454 5.08442 
13 1 7.02967 3.9341 0.271609 
15 1 7.07512 5.2029 2.43144 
16 1 7.02925 6.4313 0.263459 
26 1 7.02899 5.18391 0.991981 
29 1 5.56418 5.35119 5.42819 
31 1 0.00162526 5.21414 3.65193 
32 1 1.0166 5.2241 5.95801 
33 2 4.25501 5.46882 4.8983 
1 1 4.53997 5.29616 6.40041 
3 1 3.40464 5.19461 8.64946 
4 1 2.06677 5.218 6.57752 
6 1 3.33658 5.18132 11.3078 
9 1 3.33577 3.93196 12.0261 
11 1 3.37386 5.17751 9.86897 
12 1 3.33568 6.4376 12.0158 
14 1 3.37761 5.22281 7.20762 
ITEM: TIMESTEP
140
ITEM: NUMBER OF ATOMS
33
ITEM: BOX BOUNDS pp pp pp
-7.4558725918179823e-03 7.1044558725918163e+00
-9.3476226742724173e-03 7.1063476226742708e+00
-4.3652663424075436e-02 2.4631652663424074e+01
ITEM: ATOMS id type x y z 
2 1 3.33488 1.6247 13.3519 
5 1 4.66121 1.57399 18.1707 
7 1 3.3943 1.59553 16.0138 
8 1 2.15837 1.57381 18.1756 
18 1 3.40882 1.57395 17.4558 
21 1 3.33516 2.87206 12.6295 
23 1 3.36717 1.61415 14.7942 
24 1 3.33499 0.381179 12.6211 
17 1 7.03101 2.88156 24.3263 
19 1 7.00207 1.61606 22.1689 
20 1 7.03095 0.377769 24.3337 
22 1 6.96445 1.57431 19.506 
25 1 5.71613 1.5741 18.7834 
27 1 6.97824 1.59829 20.9489 
28 1 1.09761 1.57379 18.7781 
30 1 7.03154 1.62787 23.6111 
10 1 6.98283 5.24479 5.08225 
13 1 7.03005 3.93416 0.268003 
15 1 7.0755 5.20314 2.42849 
16 1 7.02963 6.43172 0.259849 
26 1 7.02937 5.18415 0.988589 
29 1 5.5644 5.35145 5.42614 
31 1 0.00124204 5.21439 3.64933 
32 1 1.01635 5.22435 5.95612 
33 2 4.25508 5.46911 4.89608 
1 1 4.54008 5.29641 6.39863 
3 1 3.40463 5.19485 8.64836 
4 1 2.0666 5.21825 6.57579 
6 1 3.33656 5.18156 11.3075 
9 1 3.33574 3.93203 12.026 
11 1 3.37384 5.17775 9.86824 
12 1 3.33566 6.43801 12.0157 
14 1 3.37758 5.22306 7.20609 
ITEM: TIMESTEP
150
ITEM: NUMBER OF ATOMS
33
ITEM: BOX BOUNDS pp pp pp
-8.8390625762326328e-03 7.1058390625762300e+00
-1.1483702398754405e-02 7.1084837023987539e+00
-5.5986615901756187e-02 2.4643986615901770e+01
ITEM: ATOMS id type x y z 
2 1 3.3348 1.62354 13.353 
5 1 4.66165 1.5728 18.1766 
7 1 3.39424 1.59437 16.0174 
8 1 2.15782 1.57262 18.1815 
18 1 3.40876 1.57277 17.461 
21 1 3.33508 2.87165 12.6298 
23 1 3.3671 1.61298 14.7968 
24 1 3.33491 0.379276 12.6214 
17 1 7.03235 2.88118 24.3383 
19 1 7.00343 1.61492 22.1787 
20 1 7.0323 0.375812 24.3458 
22 1 6.96578 1.57314 19.5133 
25 1 5.71697 1.57292 18.7899 
27 1 6.97956 1.59709 20.9576 
28 1 1.09667 1.5726 18.7846 
30 1 7.03289 1.62671 23.6224 
10 1 6.98416 5.24581 5.07501 
13 1 7.03141 3.93436 0.255962 
15 1 7.07687 5.20409 2.41877 
16 1 7.03099 6.43351 0.247794 
26 1 7.03074 5.18517 0.977285 
29 1 5.56514 5.35252 5.41934 
31 1 -0.000125364 5.21542 3.64051 
32 1 1.01563 5.22536 5.94994 
33 2 4.25533 5.47025 4.88866 
1 1 4.54049 5.29747 6.39266 
3 1 3.40458 5.19584 8.64481 
4 1 2.06581 5.21926 6.56995 
6 1 3.33648 5.18254 11.3065 
9 1 3.33566 3.93226 12.0257 
11 1 3.37378 5.17873 9.86576 
12 1 3.33558 6.43975 12.0154 
14 1 3.37746 5.22406 7.20096 
ITEM: TIMESTEP
160
ITEM: NUMBER OF ATOMS
33
ITEM: BOX BOUNDS pp pp pp
-9.5296480268863629e-03 7.1065296480268838e+00
-1.2497276317950499e-02 7.1094972763179500e+00
-5.9563577255345494e-02 2.4647563577255369e+01
ITEM: ATOMS id type x y z 
2 1 3.33476 1.62299 13.3533 
5 1 4.6619 1.57223 18.1783 
7 1 3.3942 1.59382 16.0184 
8 1 2.15751 1.57206 18.1832 
18 1 3.40873 1.5722 17.4625 
21 1 3.33504 2.8715 12.6299 
23 1 3.36707 1.61242 14.7977 
24 1 3.33487 0.378322 12.6215 
17 1 7.03302 2.88105 24.3418 
19 1 7.00412 1.61438 22.1814 
20 1 7.03296 0.374816 24.3493 
22 1 6.96644 1.57259 19.5154 
25 1 5.71735 1.57236 18.7918 
27 1 6.98022 1.5965 20.9603 
28 1 1.09624 1.57204 18.7865 
30 1 7.03356 1.62616 23.6257 
10 1 6.98483 5.2463 5.07287 
13 1 7.0321 3.9344 0.252432 
15 1 7.07757 5.2045 2.41614 
16 1 7.03168 6.43443 0.244261 
26 1 7.03144 5.18567 0.974005 
29 1 5.56547 5.35302 5.41744 
31 1 -0.000803717 5.21593 3.63775 
32 1 1.01548 5.22584 5.94831 
33 2 4.25545 5.47078 4.8865 
1 1 4.54069 5.29797 6.39084 
3 1 3.40455 5.19631 8.64394 
4 1 2.06525 5.21974 6.56813 
6 1 3.33644 5.183 11.3062 
9 1 3.33561 3.93233 12.0257 
11 1 3.37377 5.1792 9.86493 
12 1 3.33554 6.44063 12.0154 
14 1 3.37735 5.22454 7.19945 
ITEM: TIMESTEP
163
ITEM: NUMBER OF ATOMS
33
ITEM: BOX BOUNDS pp pp pp
-9.5312908893846037e-03 7.1065312908893823e+00
-1.2499013293831461e-02 7.1094990132938314e+00
-5.9561289274687734e-02 2.4647561289274712e+01
ITEM: ATOMS id type x y z 
2 1 3.33476 1.62299 13.3533 
5 1 4.6619 1.57223 18.1783 
7 1 3.3942 1.59382 16.0184 
8 1 2.15751 1.57206 18.1832 
18 1 3.40873 1.5722 17.4625 
21 1 3.33504 2.8715 12.6299 
23 1 3.36707 1.61242 14.7977 
24 1 3.33487 0.37832 12.6215 
17 1 7.03302 2.88105 24.3418 
19 1 7.00412 1.61438 22.1814 
20 1 7.03296 0.374814 24.3493 
22 1 6.96645 1.57259 19.5154 
25 1 5.71736 1.57236 18.7918 
27 1 6.98022 1.5965 20.9603 
28 1 1.09624 1.57204 18.7865 
30 1 7.03356 1.62616 23.6256 
10 1 6.98483 5.2463 5.07287 
13 1 7.0321 3.9344 0.252434 
15 1 7.07757 5.2045 2.41614 
16 1 7.03168 6.43443 0.244263 
26 1 7.03144 5.18568 0.974007 
29 1 5.56547 5.35302 5.41744 
31 1 -0.00080532 5.21593 3.63775 
32 1 1.01548 5.22584 5.94831 
33 2 4.25545 5.47078 4.8865 
1 1 4.54069 5.29797 6.39084 
3 1 3.40455 5.19631 8.64394 
4 1 2.06525 5.21974 6.56813 
6 1 3.33644 5.183 11.3062 
9 1 3.33561 3.93233 12.0257 
11 1 3.37377 5.1792 9.86493 
12 1 3.33554 6.44063 12.0154 
14 1 3.37735 5.22454 7.19945 
ITEM: TIMESTEP
165
ITEM: NUMBER OF ATOMS
33
ITEM: BOX BOUNDS pp pp pp
-9.5312908893846037e-03 7.1065312908893823e+00
-1.2499013293831461e-02 7.1094990132938314e+00
-5.9561289274687734e-02 2.4647561289274712e+01
ITEM: ATOMS id type x y z 
2 1 3.33477 1.62298 13.3533 
5 1 4.66197 1.57223 18.1783 
7 1 3.39419 1.59383 16.0182 
8 1 2.15745 1.57205 18.1832 
18 1 3.40872 1.5722 17.4624 
21 1 3.33504 2.87157 12.6299 
23 1 3.36707 1.61241 14.7978 
24 1 3.33487 0.378233 12.6214 
17 1 7.033 2.88113 24.3419 
19 1 7.00414 1.6144 22.1812 
20 1 7.03294 0.374684 24.3494 
22 1 6.96644 1.57261 19.5154 
25 1 5.71729 1.57236 18.7918 
27 1 6.98021 1.59646 20.9605 
28 1 1.09631 1.57204 18.7865 
30 1 7.03355 1.62615 23.6256 
10 1 6.98483 5.24631 5.07279 
13 1 7.03212 3.93429 0.252369 
15 1 7.07758 5.20443 2.41642 
16 1 7.0317 6.43457 0.2442 
26 1 7.03147 5.18573 0.974 
29 1 5.56539 5.353 5.41756 
31 1 -0.000791421 5.21598 3.63743 
32 1 1.01589 5.22585 5.94854 
33 2 4.25543 5.47076 4.8865 
1 1 4.5407 5.29798 6.39068 
3 1 3.40455 5.19631 8.64432 
4 1 2.06493 5.21975 6.56794 
6 1 3.33645 5.18299 11.3062 
9 1 3.33561 3.93225 12.0257 
11 1 3.37379 5.17922 9.8646 
12 1 3.33553 6.44073 12.0154 
14 1 3.37728 5.22455 7.19942 
