ITEM: TIMESTEP
0
ITEM: NUMBER OF ATOMS
48
ITEM: BOX BOUNDS pp pp pp
0.0000000000000000e+00 1.0773000000000000e+01
0.0000000000000000e+00 1.0773000000000000e+01
0.0000000000000000e+00 1.0773000000000000e+01
ITEM: ATOMS id type x y z 
10 1 4.59555 4.59555 4.59555 
11 1 3.08151 3.08151 3.08151 
12 1 3.78542 3.78542 3.78542 
46 1 0.790954 0.790954 0.790954 
47 1 2.30499 2.30499 2.30499 
48 1 1.60108 1.60108 1.60108 
19 1 4.59555 4.59555 6.17745 
20 1 3.08151 3.08151 7.69149 
21 1 3.78542 3.78542 6.98758 
31 1 0.790954 0.790954 9.98205 
32 1 2.30499 2.30499 8.46801 
33 1 1.60108 1.60108 9.17192 
16 1 4.59555 6.17745 4.59555 
17 1 3.08151 7.69149 3.08151 
18 1 3.78542 6.98758 3.78542 
25 1 0.790954 9.98205 0.790954 
26 1 2.30499 8.46801 2.30499 
27 1 1.60108 9.17192 1.60108 
4 1 4.59555 6.17745 6.17745 
5 1 3.08151 7.69149 7.69149 
6 1 3.78542 6.98758 6.98758 
37 1 0.790954 9.98205 9.98205 
38 1 2.30499 8.46801 8.46801 
39 1 1.60108 9.17192 9.17192 
13 1 6.17745 4.59555 4.59555 
14 1 7.69149 3.08151 3.08151 
15 1 6.98758 3.78542 3.78542 
28 1 9.98205 0.790954 0.790954 
29 1 8.46801 2.30499 2.30499 
30 1 9.17192 1.60108 1.60108 
1 1 6.17745 4.59555 6.17745 
2 1 7.69149 3.08151 7.69149 
3 1 6.98758 3.78542 6.98758 
40 1 9.98205 0.790954 9.98205 
41 1 8.46801 2.30499 8.46801 
42 1 9.17192 1.60108 9.17192 
7 1 6.17745 6.17745 4.59555 
8 1 7.69149 7.69149 3.08151 
9 1 6.98758 6.98758 3.78542 
43 1 9.98205 9.98205 0.790954 
44 1 8.46801 8.46801 2.30499 
45 1 9.17192 9.17192 1.60108 
22 1 6.17745 6.17745 6.17745 
23 1 7.69149 7.69149 7.69149 
24 1 6.98758 6.98758 6.98758 
34 1 9.98205 9.98205 9.98205 
35 1 8.46801 8.46801 8.46801 
36 1 9.17192 9.17192 9.17192 
ITEM: TIMESTEP
10
ITEM: NUMBER OF ATOMS
48
ITEM: BOX BOUNDS pp pp pp
0.0000000000000000e+00 1.0773000000000000e+01
0.0000000000000000e+00 1.0773000000000000e+01
0.0000000000000000e+00 1.0773000000000000e+01
ITEM: ATOMS id type x y z 
10 1 4.55066 4.55066 4.55105 
11 1 3.07442 3.07442 3.07427 
12 1 3.775 3.775 3.77515 
46 1 0.83371 0.83371 0.834747 
47 1 2.31071 2.31071 2.31071 
48 1 1.60869 1.60869 1.60886 
19 1 4.55488 4.55488 6.22525 
20 1 3.07555 3.07555 7.69515 
21 1 3.78299 3.78299 6.99507 
31 1 0.832284 0.832284 9.93733 
32 1 2.30848 2.30848 8.46523 
33 1 1.60741 1.60741 9.16335 
16 1 4.55447 6.22531 4.55476 
17 1 3.0753 7.69553 3.07508 
18 1 3.78247 6.99533 3.78291 
25 1 0.832459 9.93716 0.832621 
26 1 2.3064 8.4673 2.30646 
27 1 1.60795 9.16283 1.60781 
4 1 4.55178 6.21885 6.21926 
5 1 3.07642 7.6968 7.69671 
6 1 3.78379 6.98938 6.98955 
37 1 0.828049 9.93624 9.93708 
38 1 2.30439 8.47054 8.47021 
39 1 1.60804 9.16088 9.16152 
13 1 6.22531 4.55447 4.55476 
14 1 7.69553 3.0753 3.07508 
15 1 6.99533 3.78247 3.78291 
28 1 9.93716 0.832459 0.832621 
29 1 8.4673 2.3064 2.30646 
30 1 9.16283 1.60795 1.60781 
1 1 6.21885 4.55178 6.21926 
2 1 7.6968 3.07642 7.69671 
3 1 6.98938 3.78379 6.98955 
40 1 9.93624 0.828049 9.93708 
41 1 8.47054 2.30439 8.47021 
42 1 9.16088 1.60804 9.16152 
7 1 6.2193 6.2193 4.55179 
8 1 7.69766 7.69766 3.07551 
9 1 6.98918 6.98918 3.78411 
43 1 9.93655 9.93655 0.82849 
44 1 8.47189 8.47189 2.30276 
45 1 9.15992 9.15992 1.60953 
22 1 6.21972 6.21972 6.21987 
23 1 7.69111 7.69111 7.6907 
24 1 7.00176 7.00176 7.00233 
34 1 9.94115 9.94115 9.94145 
35 1 8.46791 8.46791 8.46809 
36 1 9.17344 9.17344 9.17325 
ITEM: TIMESTEP
20
ITEM: NUMBER OF ATOMS
48
ITEM: BOX BOUNDS pp pp pp
0.0000000000000000e+00 1.0773000000000000e+01
0.0000000000000000e+00 1.0773000000000000e+01
0.0000000000000000e+00 1.0773000000000000e+01
ITEM: ATOMS id type x y z 
10 1 4.55009 4.55009 4.5493 
11 1 3.07831 3.07831 3.07803 
12 1 3.77599 3.77599 3.77639 
46 1 0.831978 0.831978 0.832127 
47 1 2.31005 2.31005 2.30997 
48 1 1.60763 1.60763 1.60795 
19 1 4.55447 4.55447 6.22135 
20 1 3.07148 3.07148 7.70118 
21 1 3.77728 3.77728 6.99724 
31 1 0.834906 0.834906 9.94061 
32 1 2.30425 2.30425 8.46786 
33 1 1.60888 1.60888 9.16458 
16 1 4.55515 6.22062 4.55516 
17 1 3.07025 7.70237 3.07015 
18 1 3.77919 6.99542 3.77941 
25 1 0.835779 9.93962 0.836033 
26 1 2.3021 8.47005 2.30208 
27 1 1.60896 9.16442 1.60898 
4 1 4.55536 6.21798 6.21722 
5 1 3.07372 7.69953 7.69947 
6 1 3.78384 6.98942 6.98952 
37 1 0.831819 9.93366 9.93391 
38 1 2.30348 8.47082 8.47077 
39 1 1.61008 9.1598 9.15994 
13 1 6.22062 4.55515 4.55516 
14 1 7.70237 3.07025 3.07015 
15 1 6.99542 3.77919 3.77941 
28 1 9.93962 0.835779 0.836033 
29 1 8.47005 2.3021 2.30208 
30 1 9.16442 1.60896 1.60898 
1 1 6.21798 4.55536 6.21722 
2 1 7.69953 3.07372 7.69947 
3 1 6.98942 3.78384 6.98952 
40 1 9.93366 0.831819 9.93391 
41 1 8.47082 2.30348 8.47077 
42 1 9.1598 1.61008 9.15994 
7 1 6.2174 6.2174 4.55562 
8 1 7.70006 7.70006 3.0736 
9 1 6.98932 6.98932 3.78316 
43 1 9.93328 9.93328 0.832201 
44 1 8.47098 8.47098 2.30315 
45 1 9.16017 9.16017 1.61001 
22 1 6.22551 6.22551 6.22554 
23 1 7.69219 7.69219 7.6921 
24 1 7.00108 7.00108 7.00104 
34 1 9.9451 9.9451 9.94545 
35 1 8.46391 8.46391 8.46393 
36 1 9.17424 9.17424 9.17437 
ITEM: TIMESTEP
30
ITEM: NUMBER OF ATOMS
48
ITEM: BOX BOUNDS pp pp pp
0.0000000000000000e+00 1.0773000000000000e+01
0.0000000000000000e+00 1.0773000000000000e+01
0.0000000000000000e+00 1.0773000000000000e+01
ITEM: ATOMS id type x y z 
10 1 4.54869 4.54869 4.54863 
11 1 3.08109 3.08109 3.08111 
12 1 3.77386 3.77386 3.77365 
46 1 0.830093 0.830093 0.829672 
47 1 2.31353 2.31353 2.31356 
48 1 1.60406 1.60406 1.60413 
19 1 4.55572 4.55572 6.22165 
20 1 3.06814 3.06814 7.70484 
21 1 3.77673 3.77673 6.99708 
31 1 0.837292 0.837292 9.94136 
32 1 2.29978 2.29978 8.47158 
33 1 1.60906 1.60906 9.16594 
16 1 4.55548 6.22055 4.55666 
17 1 3.06927 7.70368 3.06907 
18 1 3.77857 6.99557 3.77899 
25 1 0.838231 9.94014 0.838592 
26 1 2.29716 8.47427 2.29708 
27 1 1.60795 9.16689 1.60807 
4 1 4.55712 6.21518 6.21459 
5 1 3.07465 7.69888 7.69888 
6 1 3.78407 6.98866 6.98856 
37 1 0.831158 9.9319 9.93162 
38 1 2.30295 8.47153 8.47157 
39 1 1.60911 9.15996 9.15989 
13 1 6.22055 4.55548 4.55666 
14 1 7.70368 3.06927 3.06907 
15 1 6.99557 3.77857 3.77899 
28 1 9.94014 0.838231 0.838592 
29 1 8.47427 2.29716 2.29708 
30 1 9.16689 1.60795 1.60807 
1 1 6.21518 4.55712 6.21459 
2 1 7.69888 3.07465 7.69888 
3 1 6.98866 3.78407 6.98856 
40 1 9.9319 0.831158 9.93162 
41 1 8.47153 2.30295 8.47157 
42 1 9.15996 1.60911 9.15989 
7 1 6.21522 6.21522 4.55636 
8 1 7.69954 7.69954 3.0738 
9 1 6.98957 6.98957 3.78349 
43 1 9.93144 9.93144 0.831157 
44 1 8.47181 8.47181 2.30268 
45 1 9.15999 9.15999 1.60906 
22 1 6.22753 6.22753 6.22871 
23 1 7.69246 7.69246 7.69229 
24 1 7.00281 7.00281 7.0029 
34 1 9.94903 9.94903 9.94946 
35 1 8.46579 8.46579 8.46583 
36 1 9.17586 9.17586 9.17596 
ITEM: TIMESTEP
40
ITEM: NUMBER OF ATOMS
48
ITEM: BOX BOUNDS pp pp pp
0.0000000000000000e+00 1.0773000000000000e+01
0.0000000000000000e+00 1.0773000000000000e+01
0.0000000000000000e+00 1.0773000000000000e+01
ITEM: ATOMS id type x y z 
10 1 4.5456 4.5456 4.54599 
11 1 3.08526 3.08526 3.08517 
12 1 3.77618 3.77618 3.77621 
46 1 0.828016 0.828016 0.827146 
47 1 2.31045 2.31045 2.31062 
48 1 1.60057 1.60057 1.60029 
19 1 4.55551 4.55551 6.22273 
20 1 3.0676 3.0676 7.7048 
21 1 3.77737 3.77737 6.99762 
31 1 0.840597 0.840597 9.94347 
32 1 2.29651 2.29651 8.47403 
33 1 1.60929 1.60929 9.1676 
16 1 4.55503 6.22139 4.55693 
17 1 3.06845 7.70443 3.06814 
18 1 3.77774 6.99665 3.77849 
25 1 0.840325 9.94358 0.840496 
26 1 2.29656 8.47404 2.29649 
27 1 1.60861 9.16823 1.60861 
4 1 4.55859 6.21347 6.21331 
5 1 3.07557 7.69789 7.69786 
6 1 3.78512 6.98773 6.98765 
37 1 0.82756 9.92952 9.92879 
38 1 2.30382 8.47137 8.4715 
39 1 1.60771 9.15917 9.15892 
13 1 6.22139 4.55503 4.55693 
14 1 7.70443 3.06845 3.06814 
15 1 6.99665 3.77774 3.77849 
28 1 9.94358 0.840325 0.840496 
29 1 8.47404 2.29656 2.29649 
30 1 9.16823 1.60861 1.60861 
1 1 6.21347 4.55859 6.21331 
2 1 7.69789 3.07557 7.69786 
3 1 6.98773 3.78512 6.98765 
40 1 9.92952 0.82756 9.92879 
41 1 8.47137 2.30382 8.4715 
42 1 9.15917 1.60771 9.15892 
7 1 6.21448 6.21448 4.55741 
8 1 7.69871 7.69871 3.07469 
9 1 6.98861 6.98861 3.78423 
43 1 9.92865 9.92865 0.827047 
44 1 8.47168 8.47168 2.30302 
45 1 9.15946 9.15946 1.60833 
22 1 6.22787 6.22787 6.2299 
23 1 7.69472 7.69472 7.69455 
24 1 7.00377 7.00377 7.00393 
34 1 9.95153 9.95153 9.95162 
35 1 8.46842 8.46842 8.4684 
36 1 9.17862 9.17862 9.17881 
ITEM: TIMESTEP
50
ITEM: NUMBER OF ATOMS
48
ITEM: BOX BOUNDS pp pp pp
0.0000000000000000e+00 1.0773000000000000e+01
0.0000000000000000e+00 1.0773000000000000e+01
0.0000000000000000e+00 1.0773000000000000e+01
ITEM: ATOMS id type x y z 
10 1 4.54632 4.54633 4.54607 
11 1 3.08384 3.08384 3.08377 
12 1 3.77619 3.77619 3.77619 
46 1 0.825901 0.825901 0.825438 
47 1 2.31025 2.31025 2.31036 
48 1 1.60021 1.60021 1.60001 
19 1 4.55568 4.55568 6.22393 
20 1 3.06675 3.06675 7.70534 
21 1 3.77653 3.77653 6.9991 
31 1 0.842177 0.842177 9.94545 
32 1 2.2966 2.2966 8.47343 
33 1 1.60973 1.60973 9.16863 
16 1 4.55512 6.22256 4.55717 
17 1 3.06787 7.70469 3.06761 
18 1 3.77717 6.99769 3.77801 
25 1 0.841854 9.94595 0.841764 
26 1 2.29625 8.47385 2.29624 
27 1 1.60964 9.16874 1.60943 
4 1 4.55989 6.21291 6.21226 
5 1 3.07659 7.69677 7.69683 
6 1 3.7864 6.98679 6.98652 
37 1 0.824326 9.92721 9.92689 
38 1 2.30494 8.47103 8.47116 
39 1 1.60662 9.15774 9.15748 
13 1 6.22256 4.55512 4.55717 
14 1 7.70469 3.06787 3.06761 
15 1 6.99769 3.77717 3.77801 
28 1 9.94595 0.841854 0.841763 
29 1 8.47385 2.29625 2.29624 
30 1 9.16874 1.60964 1.60943 
1 1 6.2129 4.55991 6.21228 
2 1 7.69676 3.07661 7.69685 
3 1 6.9868 3.78637 6.98648 
40 1 9.92721 0.824325 9.92689 
41 1 8.47103 2.30494 8.47116 
42 1 9.15774 1.60662 9.15748 
7 1 6.21343 6.21343 4.55875 
8 1 7.69772 7.69772 3.0758 
9 1 6.98747 6.98747 3.78525 
43 1 9.92725 9.92725 0.824698 
44 1 8.47178 8.47178 2.30521 
45 1 9.15712 9.15712 1.60535 
22 1 6.22807 6.22807 6.23003 
23 1 7.69632 7.69632 7.69587 
24 1 7.00546 7.00546 7.00625 
34 1 9.95381 9.95381 9.95358 
35 1 8.47026 8.47026 8.4703 
36 1 9.18049 9.18049 9.18048 
ITEM: TIMESTEP
60
ITEM: NUMBER OF ATOMS
48
ITEM: BOX BOUNDS pp pp pp
0.0000000000000000e+00 1.0773000000000000e+01
0.0000000000000000e+00 1.0773000000000000e+01
0.0000000000000000e+00 1.0773000000000000e+01
ITEM: ATOMS id type x y z 
10 1 4.54698 4.54675 4.54687 
11 1 3.08483 3.08445 3.08436 
12 1 3.77701 3.77774 3.7778 
46 1 0.82283 0.822859 0.821867 
47 1 2.30698 2.30698 2.30617 
48 1 1.59649 1.59649 1.598 
19 1 4.55597 4.55502 6.22562 
20 1 3.06464 3.06355 7.70688 
21 1 3.77234 3.77444 7.00452 
31 1 0.845171 0.845208 9.95368 
32 1 2.2972 2.2972 8.47372 
33 1 1.61082 1.61081 9.16761 
16 1 4.55376 6.22401 4.55693 
17 1 3.06531 7.70631 3.06465 
18 1 3.77362 7.00266 3.77573 
25 1 0.844926 9.95436 0.845551 
26 1 2.2965 8.47438 2.29766 
27 1 1.61114 9.16787 1.60839 
4 1 4.56537 6.21029 6.21124 
5 1 3.08123 7.69366 7.69447 
6 1 3.78801 6.98319 6.98135 
37 1 0.818471 9.92345 9.92236 
38 1 2.30845 8.4696 8.46867 
39 1 1.60378 9.153 9.15484 
13 1 6.22403 4.55374 4.55687 
14 1 7.70637 3.06524 3.06458 
15 1 7.00271 3.77357 3.77568 
28 1 9.95437 0.844934 0.84551 
29 1 8.47438 2.29652 2.29766 
30 1 9.16787 1.6111 1.60839 
1 1 6.21166 4.56512 6.20974 
2 1 7.69517 3.08094 7.69274 
3 1 6.9803 3.78854 6.98473 
40 1 9.92345 0.818462 9.92239 
41 1 8.46961 2.30845 8.46865 
42 1 9.15303 1.60375 9.15487 
7 1 6.21177 6.21188 4.56238 
8 1 7.69463 7.69463 3.07862 
9 1 6.98477 6.98478 3.7893 
43 1 9.9227 9.92273 0.817643 
44 1 8.46958 8.46959 2.30696 
45 1 9.15519 9.15519 1.60455 
22 1 6.22948 6.22951 6.23295 
23 1 7.70075 7.70075 7.7003 
24 1 7.01008 7.01007 7.01116 
34 1 9.95886 9.95891 9.95814 
35 1 8.47403 8.47405 8.47402 
36 1 9.18537 9.18533 9.18524 
ITEM: TIMESTEP
70
ITEM: NUMBER OF ATOMS
48
ITEM: BOX BOUNDS pp pp pp
0.0000000000000000e+00 1.0773000000000000e+01
0.0000000000000000e+00 1.0773000000000000e+01
0.0000000000000000e+00 1.0773000000000000e+01
ITEM: ATOMS id type x y z 
10 1 4.54768 4.54773 4.54774 
11 1 3.08361 3.08359 3.08354 
12 1 3.77757 3.77762 3.77759 
46 1 0.821624 0.821606 0.821244 
47 1 2.30693 2.30693 2.30704 
48 1 1.59724 1.59724 1.597 
19 1 4.55592 4.55594 6.22729 
20 1 3.06372 3.0637 7.7076 
21 1 3.77102 3.77116 7.00643 
31 1 0.844685 0.844686 9.95284 
32 1 2.2978 2.29775 8.47129 
33 1 1.61257 1.61256 9.17007 
16 1 4.55451 6.22546 4.55797 
17 1 3.06479 7.7073 3.06449 
18 1 3.77166 7.00375 3.77342 
25 1 0.844908 9.95327 0.844117 
26 1 2.29728 8.47194 2.29708 
27 1 1.61245 9.17055 1.61198 
4 1 4.5663 6.20826 6.20818 
5 1 3.0814 7.69218 7.69189 
6 1 3.79222 6.98205 6.9821 
37 1 0.818925 9.92221 9.92188 
38 1 2.30788 8.46792 8.46809 
39 1 1.60513 9.15431 9.15424 
13 1 6.2255 4.5545 4.55782 
14 1 7.70727 3.06479 3.06437 
15 1 7.00394 3.77152 3.7735 
28 1 9.95326 0.844905 0.844127 
29 1 8.47192 2.2973 2.29711 
30 1 9.17052 1.61248 1.61201 
1 1 6.20825 4.56644 6.20829 
2 1 7.69221 3.08154 7.69207 
3 1 6.98184 3.79192 6.98209 
40 1 9.92218 0.818932 9.92188 
41 1 8.46803 2.30786 8.46799 
42 1 9.15434 1.60514 9.15419 
7 1 6.20973 6.20982 4.56473 
8 1 7.6934 7.69339 3.08014 
9 1 6.98329 6.98333 3.79064 
43 1 9.92215 9.92212 0.818737 
44 1 8.46885 8.46882 2.30707 
45 1 9.15494 9.15498 1.60447 
22 1 6.22976 6.2297 6.23315 
23 1 7.70187 7.70182 7.70133 
24 1 7.01125 7.01135 7.01271 
34 1 9.95965 9.95959 9.95879 
35 1 8.475 8.47495 8.47507 
36 1 9.18502 9.18511 9.18461 
ITEM: TIMESTEP
80
ITEM: NUMBER OF ATOMS
48
ITEM: BOX BOUNDS pp pp pp
0.0000000000000000e+00 1.0773000000000000e+01
0.0000000000000000e+00 1.0773000000000000e+01
0.0000000000000000e+00 1.0773000000000000e+01
ITEM: ATOMS id type x y z 
10 1 4.55231 4.55227 4.55327 
11 1 3.08413 3.08449 3.08416 
12 1 3.78098 3.78028 3.78085 
46 1 0.818304 0.818904 0.817619 
47 1 2.30544 2.30533 2.30532 
48 1 1.59544 1.59567 1.5955 
19 1 4.55367 4.55387 6.23706 
20 1 3.06147 3.06172 7.70984 
21 1 3.76022 3.75973 7.01826 
31 1 0.843596 0.843484 9.95333 
32 1 2.30407 2.30393 8.46734 
33 1 1.61649 1.61673 9.1668 
16 1 4.55612 6.23457 4.5575 
17 1 3.06348 7.71162 3.06169 
18 1 3.75663 7.01274 3.76246 
25 1 0.843771 9.95328 0.842806 
26 1 2.30307 8.46798 2.30251 
27 1 1.6167 9.16875 1.61612 
4 1 4.5741 6.1952 6.19675 
5 1 3.08955 7.68349 7.68307 
6 1 3.8031 6.97445 6.97506 
37 1 0.82343 9.92375 9.92324 
38 1 2.30963 8.46125 8.46179 
39 1 1.60766 9.15245 9.1514 
13 1 6.23261 4.5543 4.55771 
14 1 7.70933 3.06148 3.06173 
15 1 7.01687 3.76087 3.76264 
28 1 9.95386 0.843721 0.842779 
29 1 8.46838 2.30308 2.30265 
30 1 9.1684 1.61606 1.61538 
1 1 6.19594 4.57545 6.19747 
2 1 7.68406 3.0913 7.68389 
3 1 6.97285 3.79992 6.97301 
40 1 9.92462 0.82157 9.92113 
41 1 8.46222 2.30766 8.45871 
42 1 9.15063 1.61172 9.15719 
7 1 6.19817 6.19801 4.57434 
8 1 7.68504 7.6852 3.08973 
9 1 6.97479 6.9744 3.79892 
43 1 9.92429 9.92451 0.822013 
44 1 8.46294 8.46262 2.30811 
45 1 9.15261 9.15329 1.60753 
22 1 6.23347 6.23334 6.23651 
23 1 7.70722 7.70727 7.70719 
24 1 7.01946 7.01938 7.02085 
34 1 9.96345 9.96332 9.9623 
35 1 8.47884 8.47861 8.4788 
36 1 9.18857 9.18898 9.18771 
ITEM: TIMESTEP
90
ITEM: NUMBER OF ATOMS
48
ITEM: BOX BOUNDS pp pp pp
0.0000000000000000e+00 1.0773000000000000e+01
0.0000000000000000e+00 1.0773000000000000e+01
0.0000000000000000e+00 1.0773000000000000e+01
ITEM: ATOMS id type x y z 
10 1 4.55263 4.55259 4.55384 
11 1 3.08442 3.08435 3.08413 
12 1 3.78091 3.781 3.78132 
46 1 0.81897 0.818996 0.818162 
47 1 2.30546 2.30553 2.30549 
48 1 1.59608 1.596 1.59581 
19 1 4.5505 4.55067 6.23997 
20 1 3.06244 3.06226 7.70762 
21 1 3.7615 3.76174 7.02053 
31 1 0.843913 0.843555 9.95023 
32 1 2.30556 2.30512 8.4671 
33 1 1.61582 1.61668 9.16637 
16 1 4.5511 6.23682 4.55385 
17 1 3.06245 7.7074 3.06338 
18 1 3.762 7.01763 3.76329 
25 1 0.843788 9.95132 0.842573 
26 1 2.30454 8.46857 2.3039 
27 1 1.61603 9.16757 1.61517 
4 1 4.57698 6.19341 6.19512 
5 1 3.09431 7.68235 7.68204 
6 1 3.80053 6.97001 6.97055 
37 1 0.823638 9.92511 9.9241 
38 1 2.31092 8.46019 8.45947 
39 1 1.60795 9.14953 9.15073 
13 1 6.23752 4.55139 4.55382 
14 1 7.70785 3.06276 3.06329 
15 1 7.01734 3.76171 3.76315 
28 1 9.95143 0.843772 0.842435 
29 1 8.46838 2.30436 2.30394 
30 1 9.16726 1.61613 1.61537 
1 1 6.19292 4.57623 6.19495 
2 1 7.682 3.09332 7.68137 
3 1 6.97063 3.80179 6.97112 
40 1 9.92469 0.823716 9.92477 
41 1 8.4596 2.31118 8.46016 
42 1 9.1507 1.60801 9.15004 
7 1 6.1949 6.19505 4.57575 
8 1 7.6826 7.68254 3.09251 
9 1 6.9718 6.97179 3.80106 
43 1 9.92518 9.92499 0.822272 
44 1 8.46061 8.46054 2.30978 
45 1 9.15149 9.15176 1.60786 
22 1 6.23475 6.23453 6.23691 
23 1 7.70903 7.70904 7.70922 
24 1 7.02016 7.02016 7.02136 
34 1 9.96631 9.9665 9.96468 
35 1 8.48114 8.4812 8.48107 
36 1 9.19128 9.19113 9.19037 
ITEM: TIMESTEP
100
ITEM: NUMBER OF ATOMS
48
ITEM: BOX BOUNDS pp pp pp
0.0000000000000000e+00 1.0773000000000000e+01
0.0000000000000000e+00 1.0773000000000000e+01
0.0000000000000000e+00 1.0773000000000000e+01
ITEM: ATOMS id type x y z 
10 1 4.55279 4.5527 4.55396 
11 1 3.08482 3.08481 3.08451 
12 1 3.78128 3.78124 3.78177 
46 1 0.818943 0.818975 0.817773 
47 1 2.30556 2.30557 2.30567 
48 1 1.59627 1.59633 1.59578 
19 1 4.55028 4.55047 6.24068 
20 1 3.06269 3.06266 7.70868 
21 1 3.75994 3.75994 7.02055 
31 1 0.843067 0.842907 9.94998 
32 1 2.30623 2.3062 8.46673 
33 1 1.61637 1.61642 9.166 
16 1 4.55107 6.23746 4.55303 
17 1 3.06269 7.70792 3.06351 
18 1 3.76043 7.01861 3.76198 
25 1 0.842975 9.95096 0.841778 
26 1 2.30578 8.46787 2.30516 
27 1 1.61642 9.16694 1.61555 
4 1 4.57749 6.1918 6.19355 
5 1 3.09473 7.68074 7.68039 
6 1 3.8031 6.9694 6.97009 
37 1 0.824808 9.92492 9.92414 
38 1 2.31088 8.4583 8.45835 
39 1 1.60961 9.15028 9.14996 
13 1 6.23784 4.5512 4.55312 
14 1 7.70804 3.06285 3.06351 
15 1 7.01874 3.7606 3.76185 
28 1 9.95098 0.843032 0.841897 
29 1 8.46766 2.30563 2.30522 
30 1 9.16687 1.61628 1.61549 
1 1 6.19166 4.5774 6.19356 
2 1 7.68071 3.0945 7.68012 
3 1 6.96937 3.80301 6.96996 
40 1 9.9249 0.824986 9.92431 
41 1 8.45827 2.31105 8.4585 
42 1 9.15026 1.6099 9.15006 
7 1 6.19334 6.19337 4.57728 
8 1 7.68112 7.6811 3.09385 
9 1 6.97045 6.97037 3.80244 
43 1 9.92519 9.92519 0.823765 
44 1 8.45924 8.45933 2.31018 
45 1 9.15104 9.15101 1.60876 
22 1 6.23483 6.23464 6.23652 
23 1 7.70966 7.70967 7.71 
24 1 7.02121 7.02118 7.02222 
34 1 9.96777 9.96769 9.96617 
35 1 8.48232 8.4823 8.48216 
36 1 9.19231 9.1923 9.19149 
ITEM: TIMESTEP
110
ITEM: NUMBER OF ATOMS
48
ITEM: BOX BOUNDS pp pp pp
0.0000000000000000e+00 1.0773000000000000e+01
0.0000000000000000e+00 1.0773000000000000e+01
0.0000000000000000e+00 1.0773000000000000e+01
ITEM: ATOMS id type x y z 
10 1 4.55277 4.55269 4.55397 
11 1 3.0848 3.0848 3.08453 
12 1 3.78129 3.78125 3.78171 
46 1 0.818943 0.818983 0.81777 
47 1 2.30557 2.30558 2.30568 
48 1 1.59629 1.59632 1.59579 
19 1 4.55025 4.55042 6.2407 
20 1 3.06269 3.06263 7.70867 
21 1 3.75993 3.75998 7.02061 
31 1 0.843012 0.842923 9.94995 
32 1 2.30623 2.30625 8.46673 
33 1 1.61642 1.61638 9.16597 
16 1 4.55102 6.23754 4.55303 
17 1 3.06268 7.70795 3.06357 
18 1 3.76046 7.01857 3.76188 
25 1 0.842974 9.95096 0.841786 
26 1 2.30583 8.46789 2.30521 
27 1 1.61639 9.16685 1.61551 
4 1 4.57753 6.19175 6.1935 
5 1 3.09477 7.6807 7.68035 
6 1 3.80314 6.96937 6.97003 
37 1 0.824828 9.92492 9.92414 
38 1 2.31087 8.45824 8.4583 
39 1 1.60969 9.15028 9.14994 
13 1 6.23787 4.55116 4.55308 
14 1 7.70803 3.06285 3.06352 
15 1 7.01879 3.7606 3.76185 
28 1 9.95097 0.843027 0.841864 
29 1 8.46767 2.30567 2.30525 
30 1 9.16681 1.61627 1.6155 
1 1 6.19162 4.57746 6.19352 
2 1 7.68069 3.09456 7.68009 
3 1 6.9693 3.803 6.9699 
40 1 9.92492 0.825014 9.92431 
41 1 8.45824 2.31106 8.45845 
42 1 9.15025 1.60991 9.15008 
7 1 6.19329 6.19329 4.57732 
8 1 7.68108 7.68103 3.09389 
9 1 6.97038 6.97036 3.8025 
43 1 9.92521 9.92518 0.823797 
44 1 8.45921 8.45926 2.3102 
45 1 9.15098 9.151 1.60879 
22 1 6.23484 6.23466 6.23652 
23 1 7.70969 7.70972 7.71004 
24 1 7.02125 7.02119 7.02223 
34 1 9.96781 9.96777 9.96623 
35 1 8.48236 8.48236 8.48222 
36 1 9.19236 9.19234 9.19153 
ITEM: TIMESTEP
114
ITEM: NUMBER OF ATOMS
48
ITEM: BOX BOUNDS pp pp pp
0.0000000000000000e+00 1.0773000000000000e+01
0.0000000000000000e+00 1.0773000000000000e+01
0.0000000000000000e+00 1.0773000000000000e+01
ITEM: ATOMS id type x y z 
10 1 4.55277 4.55269 4.55397 
11 1 3.0848 3.0848 3.08453 
12 1 3.78129 3.78125 3.78171 
46 1 0.818943 0.818982 0.817771 
47 1 2.30557 2.30558 2.30568 
48 1 1.59629 1.59632 1.59579 
19 1 4.55025 4.55042 6.2407 
20 1 3.06269 3.06263 7.70867 
21 1 3.75993 3.75998 7.02061 
31 1 0.843011 0.842922 9.94995 
32 1 2.30623 2.30625 8.46673 
33 1 1.61642 1.61639 9.16597 
16 1 4.55102 6.23754 4.55303 
17 1 3.06268 7.70795 3.06357 
18 1 3.76046 7.01858 3.76188 
25 1 0.842971 9.95096 0.841788 
26 1 2.30583 8.46789 2.30521 
27 1 1.6164 9.16685 1.61551 
4 1 4.57754 6.19174 6.1935 
5 1 3.09477 7.68069 7.68035 
6 1 3.80314 6.96937 6.97002 
37 1 0.82483 9.92492 9.92414 
38 1 2.31087 8.45824 8.45829 
39 1 1.6097 9.15028 9.14994 
13 1 6.23788 4.55116 4.55307 
14 1 7.70803 3.06285 3.06352 
15 1 7.01879 3.7606 3.76185 
28 1 9.95097 0.843025 0.841862 
29 1 8.46767 2.30567 2.30525 
30 1 9.16681 1.61627 1.6155 
1 1 6.19162 4.57746 6.19352 
2 1 7.68068 3.09456 7.68008 
3 1 6.9693 3.80301 6.96989 
40 1 9.92492 0.825016 9.92431 
41 1 8.45823 2.31106 8.45845 
42 1 9.15025 1.60991 9.15008 
7 1 6.19329 6.19329 4.57732 
8 1 7.68108 7.68103 3.09389 
9 1 6.97038 6.97035 3.80251 
43 1 9.92521 9.92519 0.823799 
44 1 8.4592 8.45926 2.3102 
45 1 9.15098 9.151 1.60879 
22 1 6.23484 6.23466 6.23652 
23 1 7.70969 7.70972 7.71005 
24 1 7.02125 7.02119 7.02223 
34 1 9.96781 9.96777 9.96623 
35 1 8.48237 8.48236 8.48222 
36 1 9.19237 9.19235 9.19154 
ITEM: TIMESTEP
116
ITEM: NUMBER OF ATOMS
48
ITEM: BOX BOUNDS pp pp pp
0.0000000000000000e+00 1.0773000000000000e+01
0.0000000000000000e+00 1.0773000000000000e+01
0.0000000000000000e+00 1.0773000000000000e+01
ITEM: ATOMS id type x y z 
10 1 4.55277 4.55269 4.55397 
11 1 3.0848 3.0848 3.08453 
12 1 3.78129 3.78125 3.78171 
46 1 0.818943 0.818983 0.817771 
47 1 2.30556 2.30558 2.30568 
48 1 1.59629 1.59632 1.59579 
19 1 4.55025 4.55042 6.2407 
20 1 3.06269 3.06263 7.70867 
21 1 3.75993 3.75998 7.02061 
31 1 0.843011 0.842922 9.94995 
32 1 2.30623 2.30625 8.46673 
33 1 1.61642 1.61639 9.16597 
16 1 4.55102 6.23754 4.55303 
17 1 3.06268 7.70795 3.06357 
18 1 3.76046 7.01858 3.76188 
25 1 0.842971 9.95096 0.841787 
26 1 2.30583 8.46789 2.30521 
27 1 1.6164 9.16685 1.61551 
4 1 4.57754 6.19174 6.1935 
5 1 3.09477 7.68069 7.68035 
6 1 3.80315 6.96937 6.97002 
37 1 0.824831 9.92492 9.92414 
38 1 2.31087 8.45824 8.45829 
39 1 1.60969 9.15028 9.14994 
13 1 6.23788 4.55116 4.55307 
14 1 7.70803 3.06285 3.06352 
15 1 7.01879 3.7606 3.76185 
28 1 9.95097 0.843025 0.841862 
29 1 8.46767 2.30567 2.30525 
30 1 9.16681 1.61627 1.6155 
1 1 6.19162 4.57746 6.19352 
2 1 7.68068 3.09456 7.68008 
3 1 6.9693 3.803 6.96989 
40 1 9.92492 0.825016 9.92431 
41 1 8.45823 2.31106 8.45845 
42 1 9.15025 1.60991 9.15008 
7 1 6.19329 6.19329 4.57732 
8 1 7.68108 7.68103 3.09389 
9 1 6.97038 6.97035 3.80251 
43 1 9.92521 9.92519 0.823799 
44 1 8.4592 8.45926 2.3102 
45 1 9.15098 9.151 1.6088 
22 1 6.23484 6.23466 6.23652 
23 1 7.70969 7.70972 7.71005 
24 1 7.02125 7.02119 7.02223 
34 1 9.96781 9.96777 9.96623 
35 1 8.48237 8.48236 8.48222 
36 1 9.19237 9.19235 9.19154 
ITEM: TIMESTEP
120
ITEM: NUMBER OF ATOMS
48
ITEM: BOX BOUNDS pp pp pp
-2.1546000000000004e-03 1.0775154599999997e+01
-2.1539361633340004e-03 1.0775153936163335e+01
-2.1543593176383169e-03 1.0775154359317639e+01
ITEM: ATOMS id type x y z 
10 1 4.55244 4.55236 4.55364 
11 1 3.08388 3.08388 3.08361 
12 1 3.78065 3.78061 3.78107 
46 1 0.817114 0.817154 0.815941 
47 1 2.30433 2.30435 2.30444 
48 1 1.59477 1.5948 1.59427 
19 1 4.54992 4.55009 6.24104 
20 1 3.06176 3.0617 7.7096 
21 1 3.75928 3.75933 7.02126 
31 1 0.841191 0.841102 9.95177 
32 1 2.305 2.30502 8.46796 
33 1 1.61491 1.61488 9.16748 
16 1 4.55069 6.23788 4.55269 
17 1 3.06175 7.70888 3.06264 
18 1 3.75981 7.01923 3.76123 
25 1 0.841151 9.95279 0.839967 
26 1 2.3046 8.46913 2.30398 
27 1 1.61489 9.16836 1.614 
4 1 4.57722 6.19206 6.19382 
5 1 3.09386 7.68161 7.68126 
6 1 3.80251 6.97 6.97066 
37 1 0.823005 9.92674 9.92595 
38 1 2.30964 8.45946 8.45952 
39 1 1.60818 9.15178 9.15144 
13 1 6.23821 4.55083 4.55274 
14 1 7.70896 3.06192 3.06259 
15 1 7.01944 3.75995 3.7612 
28 1 9.9528 0.841205 0.840041 
29 1 8.4689 2.30444 2.30402 
30 1 9.16832 1.61476 1.61399 
1 1 6.19194 4.57714 6.19384 
2 1 7.6816 3.09365 7.681 
3 1 6.96993 3.80237 6.97053 
40 1 9.92674 0.823191 9.92613 
41 1 8.45946 2.30983 8.45967 
42 1 9.15176 1.6084 9.15158 
7 1 6.19361 6.19361 4.577 
8 1 7.68199 7.68194 3.09298 
9 1 6.97101 6.97099 3.80187 
43 1 9.92703 9.927 0.821973 
44 1 8.46043 8.46049 2.30897 
45 1 9.15249 9.15251 1.60728 
22 1 6.23518 6.235 6.23686 
23 1 7.71062 7.71065 7.71098 
24 1 7.02191 7.02184 7.02288 
34 1 9.96964 9.96961 9.96807 
35 1 8.48361 8.4836 8.48346 
36 1 9.19389 9.19387 9.19306 
ITEM: TIMESTEP
130
ITEM: NUMBER OF ATOMS
48
ITEM: BOX BOUNDS pp pp pp
-7.5411000000000028e-03 1.0780541099999990e+01
-7.5175248932864060e-03 1.0780517524893288e+01
-7.5377465538058073e-03 1.0780537746553804e+01
ITEM: ATOMS id type x y z 
10 1 4.55203 4.55198 4.55325 
11 1 3.08158 3.08162 3.08134 
12 1 3.77918 3.7791 3.77956 
46 1 0.812177 0.812211 0.810982 
47 1 2.30098 2.30098 2.30107 
48 1 1.59117 1.59126 1.59072 
19 1 4.54941 4.54958 6.24152 
20 1 3.05949 3.05945 7.71189 
21 1 3.75798 3.75804 7.02255 
31 1 0.836206 0.836162 9.95663 
32 1 2.30188 2.30194 8.47109 
33 1 1.61093 1.61087 9.17146 
16 1 4.55019 6.23835 4.55217 
17 1 3.05949 7.71113 3.06037 
18 1 3.75851 7.02053 3.75997 
25 1 0.836187 9.95763 0.834987 
26 1 2.3015 8.47224 2.30086 
27 1 1.61086 9.17234 1.61002 
4 1 4.57684 6.19244 6.19418 
5 1 3.09185 7.68363 7.68327 
6 1 3.80073 6.97172 6.97243 
37 1 0.818156 9.93168 9.93089 
38 1 2.30653 8.46255 8.46259 
39 1 1.6042 9.15574 9.15546 
13 1 6.23869 4.55033 4.55222 
14 1 7.71122 3.05968 3.06031 
15 1 7.02075 3.75866 3.75994 
28 1 9.95765 0.836241 0.835076 
29 1 8.47203 2.30134 2.30093 
30 1 9.1723 1.6108 1.60997 
1 1 6.1923 4.57677 6.19422 
2 1 7.68361 3.09165 7.68303 
3 1 6.9717 3.8006 6.97225 
40 1 9.9317 0.818359 9.93107 
41 1 8.46256 2.30673 8.46274 
42 1 9.15574 1.60442 9.1556 
7 1 6.19397 6.19396 4.57661 
8 1 7.68401 7.68396 3.09093 
9 1 6.97277 6.97274 3.80016 
43 1 9.93197 9.93195 0.817123 
44 1 8.46351 8.46357 2.30586 
45 1 9.15651 9.15647 1.6033 
22 1 6.23569 6.23553 6.23736 
23 1 7.71293 7.71297 7.71329 
24 1 7.02317 7.02306 7.02415 
34 1 9.97464 9.97457 9.97306 
35 1 8.48713 8.48708 8.48698 
36 1 9.19738 9.19739 9.19655 
ITEM: TIMESTEP
140
ITEM: NUMBER OF ATOMS
48
ITEM: BOX BOUNDS pp pp pp
-1.2926957420450377e-02 1.0785926957420434e+01
-1.2831884252873679e-02 1.0785831884252874e+01
-1.2912570808236152e-02 1.0785912570808234e+01
ITEM: ATOMS id type x y z 
10 1 4.55286 4.55278 4.55403 
11 1 3.0794 3.07943 3.07912 
12 1 3.77798 3.77798 3.77843 
46 1 0.806156 0.806253 0.804963 
47 1 2.29706 2.29712 2.29716 
48 1 1.58792 1.58803 1.58746 
19 1 4.54976 4.54995 6.2409 
20 1 3.05745 3.05743 7.71391 
21 1 3.7576 3.75768 7.02303 
31 1 0.830027 0.830098 9.96232 
32 1 2.29859 2.29873 8.47446 
33 1 1.60631 1.60622 9.17598 
16 1 4.55056 6.23778 4.55254 
17 1 3.05748 7.71317 3.05839 
18 1 3.7581 7.02089 3.75951 
25 1 0.830045 9.96326 0.828831 
26 1 2.29826 8.47556 2.2976 
27 1 1.60617 9.17683 1.6054 
4 1 4.57755 6.19163 6.19341 
5 1 3.09036 7.68506 7.68477 
6 1 3.79874 6.97374 6.97438 
37 1 0.812409 9.93776 9.93698 
38 1 2.30326 8.46569 8.46573 
39 1 1.59967 9.16027 9.16009 
13 1 6.23813 4.55073 4.55259 
14 1 7.7133 3.0577 3.05833 
15 1 7.02113 3.75826 3.7595 
28 1 9.96335 0.830128 0.828936 
29 1 8.4754 2.2981 2.2977 
30 1 9.17682 1.60624 1.60529 
1 1 6.19154 4.57749 6.1934 
2 1 7.68511 3.09019 7.68449 
3 1 6.97366 3.79863 6.97429 
40 1 9.93784 0.812667 9.93715 
41 1 8.46575 2.3035 8.46588 
42 1 9.16033 1.59993 9.16026 
7 1 6.19316 6.19314 4.57733 
8 1 7.68551 7.68542 3.08942 
9 1 6.97474 6.97469 3.7982 
43 1 9.93809 9.93802 0.81138 
44 1 8.46665 8.46671 2.3026 
45 1 9.16115 9.161 1.59878 
22 1 6.2353 6.23514 6.23695 
23 1 7.71515 7.71517 7.71551 
24 1 7.0235 7.02334 7.02447 
34 1 9.98081 9.98073 9.97923 
35 1 8.49112 8.49107 8.49096 
36 1 9.20079 9.20068 9.19995 
ITEM: TIMESTEP
150
ITEM: NUMBER OF ATOMS
48
ITEM: BOX BOUNDS pp pp pp
-1.8309806532018986e-02 1.0791309806532004e+01
-1.8185661599881935e-02 1.0791185661599881e+01
-1.8297820946564177e-02 1.0791297820946557e+01
ITEM: ATOMS id type x y z 
10 1 4.55347 4.55341 4.55464 
11 1 3.07719 3.07724 3.07693 
12 1 3.77683 3.77684 3.77727 
46 1 0.800329 0.800453 0.799156 
47 1 2.29334 2.29344 2.29347 
48 1 1.58445 1.58455 1.58392 
19 1 4.55 4.55019 6.24049 
20 1 3.05555 3.05555 7.71595 
21 1 3.75692 3.75701 7.02353 
31 1 0.82409 0.824128 9.96788 
32 1 2.29528 2.29536 8.47793 
33 1 1.60167 1.60175 9.1804 
16 1 4.55078 6.23735 4.55274 
17 1 3.05557 7.71514 3.05649 
18 1 3.75746 7.02145 3.75887 
25 1 0.824052 9.96881 0.822891 
26 1 2.29489 8.47901 2.29428 
27 1 1.60165 9.18123 1.60076 
4 1 4.57801 6.19111 6.19285 
5 1 3.08866 7.68676 7.68647 
6 1 3.79696 6.97544 6.97614 
37 1 0.806704 9.94366 9.94297 
38 1 2.29993 8.46886 8.46899 
39 1 1.59529 9.16479 9.16452 
13 1 6.2377 4.55094 4.55279 
14 1 7.71527 3.0558 3.05643 
15 1 7.0217 3.75764 3.75885 
28 1 9.96892 0.824215 0.822932 
29 1 8.47886 2.29481 2.29432 
30 1 9.18123 1.60163 1.60079 
1 1 6.191 4.57796 6.19287 
2 1 7.6868 3.0885 7.68622 
3 1 6.97542 3.79686 6.97599 
40 1 9.94376 0.806983 9.94314 
41 1 8.46893 2.30019 8.46914 
42 1 9.16489 1.59556 9.16469 
7 1 6.19261 6.19258 4.57783 
8 1 7.68725 7.68715 3.08772 
9 1 6.97642 6.97636 3.79642 
43 1 9.94407 9.94392 0.805668 
44 1 8.4699 8.46988 2.29927 
45 1 9.16558 9.16552 1.59439 
22 1 6.23507 6.23488 6.23671 
23 1 7.71729 7.71727 7.71766 
24 1 7.02408 7.02397 7.02505 
34 1 9.98677 9.98667 9.98521 
35 1 8.49499 8.49491 8.49484 
36 1 9.20439 9.20427 9.20353 
ITEM: TIMESTEP
160
ITEM: NUMBER OF ATOMS
48