ITEM: TIMESTEP
0
ITEM: NUMBER OF ATOMS
58
ITEM: BOX BOUNDS pp pp pp
0.0000000000000000e+00 3.2808000000000000e+01
0.0000000000000000e+00 1.7780000000000001e+01
0.0000000000000000e+00 2.4729999999999999e+00
ITEM: ATOMS id type x y z 
13 1 7.043 0.849 2.464 
29 1 7.397 1.432 1.228 
37 1 8.035 2.733 1.228 
57 2 6.073 1.796 2.407 
58 3 5.097 1.796 2.407 
1 1 6.173 17.398 2.464 
5 1 5.371 17.398 1.228 
9 1 3.973 17.398 1.228 
16 1 7.043 16.167 2.464 
32 1 7.397 15.584 1.228 
40 1 8.035 14.283 1.228 
45 1 3.236 17.398 2.464 
49 1 1.81 17.398 2.464 
53 1 1.083 17.398 1.228 
4 1 10.968 8.508 2.464 
8 1 11.771 8.508 1.228 
12 1 13.168 8.508 1.228 
18 1 10.098 7.277 2.464 
21 1 8.308 3.392 2.464 
26 1 8.833 4.734 2.464 
34 1 9.745 6.694 1.228 
42 1 9.106 5.393 1.228 
48 1 13.906 8.508 2.464 
52 1 15.331 8.508 2.464 
56 1 16.058 8.508 1.228 
19 1 10.098 9.739 2.464 
24 1 8.308 13.624 2.464 
27 1 8.833 12.282 2.464 
35 1 9.745 10.322 1.228 
43 1 9.106 11.623 1.228 
3 1 22.577 8.508 2.464 
7 1 21.775 8.508 1.228 
11 1 20.377 8.508 1.228 
20 1 23.447 7.277 2.464 
36 1 23.801 6.694 1.228 
44 1 24.439 5.393 1.228 
47 1 19.64 8.508 2.464 
51 1 18.214 8.508 2.464 
55 1 17.487 8.508 1.228 
17 1 23.447 9.739 2.464 
33 1 23.801 10.322 1.228 
41 1 24.439 11.623 1.228 
15 1 26.502 0.849 2.464 
23 1 25.237 3.392 2.464 
28 1 24.712 4.734 2.464 
31 1 26.149 1.432 1.228 
39 1 25.511 2.733 1.228 
2 1 27.373 17.398 2.464 
6 1 28.175 17.398 1.228 
10 1 29.572 17.398 1.228 
14 1 26.502 16.167 2.464 
22 1 25.237 13.624 2.464 
25 1 24.712 12.282 2.464 
30 1 26.149 15.584 1.228 
38 1 25.511 14.283 1.228 
46 1 30.31 17.398 2.464 
50 1 31.735 17.398 2.464 
54 1 32.462 17.398 1.228 
ITEM: TIMESTEP
10
ITEM: NUMBER OF ATOMS
58
ITEM: BOX BOUNDS pp pp pp
0.0000000000000000e+00 3.2808000000000000e+01
0.0000000000000000e+00 1.7780000000000001e+01
0.0000000000000000e+00 2.4729999999999999e+00
ITEM: ATOMS id type x y z 
13 1 7.23066 0.674974 2.45839 
29 1 7.65459 1.25102 1.22216 
37 1 8.05941 2.6887 1.22718 
57 2 5.77527 1.96105 2.42122 
58 3 4.91337 2.03451 2.41204 
1 1 6.22892 17.4962 2.46169 
5 1 5.38351 17.3926 1.22482 
9 1 4.01366 17.3809 1.22716 
16 1 7.14567 16.2049 2.46406 
32 1 7.45671 15.5891 1.22763 
40 1 8.06188 14.3285 1.2277 
45 1 3.25211 17.3954 2.46371 
49 1 1.80742 17.399 2.4643 
53 1 1.12432 17.3984 1.22772 
4 1 10.9653 8.49192 2.46423 
8 1 11.7825 8.50632 1.22764 
12 1 13.1799 8.50864 1.22771 
18 1 10.0386 7.30772 2.46429 
21 1 8.28884 3.34209 2.464 
26 1 8.79756 4.69398 2.46427 
34 1 9.68472 6.68949 1.22779 
42 1 9.05312 5.38392 1.22772 
48 1 13.9072 8.5081 2.46429 
52 1 15.319 8.508 2.46429 
56 1 16.0336 8.508 1.22771 
19 1 10.037 9.70552 2.46429 
24 1 8.31609 13.6501 2.46426 
27 1 8.82313 12.2586 2.46425 
35 1 9.68657 10.3182 1.22779 
43 1 9.07305 11.58 1.22771 
3 1 22.5745 8.508 2.46422 
7 1 21.7529 8.508 1.22765 
11 1 20.3485 8.508 1.22772 
20 1 23.5123 7.3043 2.46429 
36 1 23.8666 6.68428 1.2278 
44 1 24.4695 5.44051 1.22772 
47 1 19.647 8.508 2.46429 
51 1 18.2448 8.508 2.46429 
55 1 17.4907 8.508 1.22771 
17 1 23.5123 9.7117 2.46429 
33 1 23.8666 10.3317 1.2278 
41 1 24.4695 11.5755 1.22772 
15 1 26.4371 0.821787 2.46429 
23 1 25.2292 3.3647 2.46425 
28 1 24.7201 4.75992 2.46425 
31 1 26.0847 1.44052 1.2278 
39 1 25.4803 2.68642 1.22772 
2 1 27.3713 17.398 2.46422 
6 1 28.199 17.398 1.22765 
10 1 29.6115 17.398 1.22772 
14 1 26.4371 16.1942 2.46429 
22 1 25.2292 13.6513 2.46425 
25 1 24.7201 12.2561 2.46425 
30 1 26.0847 15.5755 1.2278 
38 1 25.4803 14.3296 1.22772 
46 1 30.3154 17.398 2.46429 
50 1 31.7175 17.398 2.46429 
54 1 32.4748 17.398 1.22771 
ITEM: TIMESTEP
20
ITEM: NUMBER OF ATOMS
58
ITEM: BOX BOUNDS pp pp pp
0.0000000000000000e+00 3.2808000000000000e+01
0.0000000000000000e+00 1.7780000000000001e+01
0.0000000000000000e+00 2.4729999999999999e+00
ITEM: ATOMS id type x y z 
13 1 7.25929 0.673549 2.45951 
29 1 7.71994 1.24866 1.22276 
37 1 8.0791 2.67033 1.22711 
57 2 5.79197 1.98744 2.4212 
58 3 4.85661 2.05556 2.41162 
1 1 6.22836 17.4541 2.46123 
5 1 5.40478 17.4251 1.22531 
9 1 4.00886 17.3717 1.22702 
16 1 7.1354 16.1909 2.46394 
32 1 7.49139 15.5699 1.22752 
40 1 8.07608 14.3273 1.22772 
45 1 3.25798 17.3914 2.46349 
49 1 1.80064 17.4001 2.4642 
53 1 1.11209 17.3991 1.22773 
4 1 10.9668 8.50688 2.46418 
8 1 11.7639 8.50474 1.22774 
12 1 13.1942 8.50913 1.22777 
18 1 10.0197 7.29109 2.46427 
21 1 8.29204 3.37597 2.46355 
26 1 8.77862 4.68602 2.46417 
34 1 9.66607 6.70263 1.22778 
42 1 9.03041 5.38365 1.22773 
48 1 13.9233 8.50838 2.46422 
52 1 15.3057 8.50798 2.46422 
56 1 16.0494 8.50798 1.22778 
19 1 10.0217 9.71852 2.46427 
24 1 8.32582 13.649 2.4642 
27 1 8.81701 12.248 2.46423 
35 1 9.65805 10.3242 1.22778 
43 1 9.06237 11.5667 1.22775 
3 1 22.5785 8.508 2.46419 
7 1 21.7784 8.508 1.22774 
11 1 20.3508 8.508 1.22777 
20 1 23.5196 7.29775 2.46428 
36 1 23.8859 6.69508 1.22778 
44 1 24.4846 5.44417 1.22775 
47 1 19.6259 8.508 2.46422 
51 1 18.2536 8.508 2.46422 
55 1 17.4962 8.508 1.22778 
17 1 23.5196 9.71825 2.46428 
33 1 23.8859 10.3209 1.22778 
41 1 24.4846 11.5718 1.22775 
15 1 26.4323 0.827018 2.46428 
23 1 25.2195 3.36373 2.46423 
28 1 24.7297 4.76072 2.46423 
31 1 26.0649 1.43076 1.22778 
39 1 25.466 2.68075 1.22775 
2 1 27.3704 17.398 2.46419 
6 1 28.1839 17.398 1.22774 
10 1 29.5967 17.398 1.22777 
14 1 26.4323 16.189 2.46428 
22 1 25.2195 13.6523 2.46423 
25 1 24.7297 12.2553 2.46423 
30 1 26.0649 15.5852 1.22778 
38 1 25.466 14.3353 1.22775 
46 1 30.3157 17.398 2.46422 
50 1 31.7144 17.398 2.46422 
54 1 32.474 17.398 1.22778 
ITEM: TIMESTEP
30
ITEM: NUMBER OF ATOMS
58
ITEM: BOX BOUNDS pp pp pp
0.0000000000000000e+00 3.2808000000000000e+01
0.0000000000000000e+00 1.7780000000000001e+01
0.0000000000000000e+00 2.4729999999999999e+00
ITEM: ATOMS id type x y z 
13 1 7.29252 0.677696 2.45995 
29 1 7.73922 1.22999 1.22342 
37 1 8.1003 2.67627 1.22682 
57 2 5.76187 2.00985 2.42071 
58 3 4.85875 2.06637 2.41171 
1 1 6.23833 17.4574 2.46169 
5 1 5.40544 17.444 1.22503 
9 1 4.02248 17.3704 1.22688 
16 1 7.1271 16.1746 2.46388 
32 1 7.50181 15.582 1.22744 
40 1 8.09106 14.327 1.22767 
45 1 3.26614 17.385 2.46343 
49 1 1.81783 17.4005 2.4642 
53 1 1.11128 17.3999 1.22766 
4 1 10.9537 8.49994 2.46424 
8 1 11.7546 8.50154 1.2277 
12 1 13.1789 8.50918 1.22773 
18 1 10.022 7.29953 2.46426 
21 1 8.28606 3.36996 2.46353 
26 1 8.76434 4.68607 2.46416 
34 1 9.64996 6.7013 1.22777 
42 1 9.01623 5.38846 1.22765 
48 1 13.9426 8.5087 2.46426 
52 1 15.3096 8.508 2.46427 
56 1 16.0374 8.50794 1.22773 
19 1 10.0191 9.70996 2.46427 
24 1 8.33345 13.648 2.4642 
27 1 8.81142 12.2417 2.46425 
35 1 9.64442 10.3146 1.22776 
43 1 9.0494 11.5601 1.22773 
3 1 22.5864 8.508 2.46424 
7 1 21.7805 8.508 1.22771 
11 1 20.3611 8.508 1.22773 
20 1 23.5232 7.30053 2.46427 
36 1 23.9007 6.70031 1.22777 
44 1 24.4981 5.44808 1.22774 
47 1 19.6159 8.508 2.46426 
51 1 18.2443 8.508 2.46427 
55 1 17.515 8.50799 1.22773 
17 1 23.5232 9.71547 2.46427 
33 1 23.9007 10.3157 1.22777 
41 1 24.4981 11.5679 1.22774 
15 1 26.4285 0.825243 2.46427 
23 1 25.2128 3.36088 2.46425 
28 1 24.7363 4.76378 2.46425 
31 1 26.0503 1.42536 1.22777 
39 1 25.4523 2.67705 1.22774 
2 1 27.3635 17.398 2.46424 
6 1 28.1791 17.398 1.22771 
10 1 29.5897 17.398 1.22773 
14 1 26.4285 16.1908 2.46427 
22 1 25.2128 13.6551 2.46425 
25 1 24.7363 12.2522 2.46425 
30 1 26.0503 15.5906 1.22777 
38 1 25.4523 14.3389 1.22774 
46 1 30.3161 17.398 2.46426 
50 1 31.7142 17.3979 2.46427 
54 1 32.4636 17.3981 1.22773 
ITEM: TIMESTEP
40
ITEM: NUMBER OF ATOMS
58
ITEM: BOX BOUNDS pp pp pp
0.0000000000000000e+00 3.2808000000000000e+01
0.0000000000000000e+00 1.7780000000000001e+01
0.0000000000000000e+00 2.4729999999999999e+00
ITEM: ATOMS id type x y z 
13 1 7.3345 0.672907 2.46062 
29 1 7.78694 1.21333 1.22419 
37 1 8.13139 2.66813 1.22664 
57 2 5.7502 2.03628 2.42043 
58 3 4.83479 2.08672 2.41175 
1 1 6.25154 17.4585 2.46185 
5 1 5.42177 17.4796 1.2251 
9 1 4.03673 17.3695 1.22671 
16 1 7.10738 16.1543 2.46376 
32 1 7.51999 15.5915 1.22731 
40 1 8.12024 14.3334 1.22762 
45 1 3.2826 17.3703 2.46328 
49 1 1.83598 17.3999 2.46412 
53 1 1.1064 17.4024 1.22761 
4 1 10.9463 8.49512 2.46425 
8 1 11.7466 8.49652 1.22772 
12 1 13.1715 8.50979 1.22773 
18 1 10.0115 7.29471 2.46424 
21 1 8.28124 3.36727 2.46333 
26 1 8.73757 4.69317 2.46406 
34 1 9.6266 6.70665 1.22775 
42 1 8.98873 5.39959 1.22754 
48 1 13.9401 8.50956 2.46426 
52 1 15.3077 8.50817 2.46427 
56 1 16.0318 8.50782 1.22773 
19 1 10.0105 9.70091 2.46426 
24 1 8.34838 13.6473 2.46416 
27 1 8.79836 12.235 2.46425 
35 1 9.62059 10.298 1.22775 
43 1 9.02331 11.5495 1.22773 
3 1 22.5965 8.508 2.46425 
7 1 21.7955 8.508 1.22772 
11 1 20.3739 8.508 1.22773 
20 1 23.5356 7.29957 2.46426 
36 1 23.9267 6.70962 1.22776 
44 1 24.5247 5.4561 1.22774 
47 1 19.6013 8.50801 2.46426 
51 1 18.2414 8.50801 2.46427 
55 1 17.5161 8.50796 1.22773 
17 1 23.5356 9.71643 2.46426 
33 1 23.9267 10.3064 1.22776 
41 1 24.5247 11.5599 1.22774 
15 1 26.4187 0.824798 2.46426 
23 1 25.1992 3.35579 2.46426 
28 1 24.75 4.76838 2.46426 
31 1 26.0253 1.41531 1.22776 
39 1 25.4259 2.66825 1.22774 
2 1 27.356 17.398 2.46425 
6 1 28.1601 17.398 1.22772 
10 1 29.5808 17.398 1.22773 
14 1 26.4187 16.1912 2.46426 
22 1 25.1992 13.6602 2.46426 
25 1 24.75 12.2476 2.46426 
30 1 26.0253 15.6007 1.22776 
38 1 25.4259 14.3477 1.22774 
46 1 30.3296 17.3978 2.46425 
50 1 31.7096 17.3977 2.46426 
54 1 32.4565 17.3986 1.22772 
ITEM: TIMESTEP
50
ITEM: NUMBER OF ATOMS
58
ITEM: BOX BOUNDS pp pp pp
0.0000000000000000e+00 3.2808000000000000e+01
0.0000000000000000e+00 1.7780000000000001e+01
0.0000000000000000e+00 2.4729999999999999e+00
ITEM: ATOMS id type x y z 
13 1 7.42157 0.665052 2.46127 
29 1 7.87014 1.18075 1.22529 
37 1 8.18966 2.65137 1.22641 
57 2 5.72835 2.0731 2.42003 
58 3 4.80667 2.12685 2.41503 
1 1 6.2581 17.4477 2.46069 
5 1 5.43081 17.5364 1.22432 
9 1 4.05376 17.3727 1.22636 
16 1 7.06865 16.1164 2.46343 
32 1 7.53176 15.6172 1.22703 
40 1 8.17988 14.3501 1.22752 
45 1 3.2964 17.3396 2.46299 
49 1 1.8547 17.3932 2.46398 
53 1 1.12239 17.4086 1.22748 
4 1 10.9321 8.48838 2.46426 
8 1 11.7382 8.48772 1.22772 
12 1 13.155 8.5114 1.22773 
18 1 9.99852 7.29211 2.4642 
21 1 8.27154 3.34401 2.46313 
26 1 8.67933 4.70649 2.46389 
34 1 9.58648 6.71726 1.2277 
42 1 8.93132 5.43098 1.22734 
48 1 13.9315 8.51214 2.46426 
52 1 15.3124 8.50882 2.46427 
56 1 16.0254 8.50743 1.22773 
19 1 9.9971 9.68472 2.46425 
24 1 8.3808 13.6543 2.46406 
27 1 8.76804 12.2281 2.46424 
35 1 9.57538 10.2722 1.22774 
43 1 8.96979 11.5292 1.22772 
3 1 22.6105 8.508 2.46426 
7 1 21.7993 8.508 1.22773 
11 1 20.3917 8.508 1.22773 
20 1 23.5531 7.30452 2.46425 
36 1 23.9712 6.7321 1.22776 
44 1 24.5796 5.47332 1.22774 
47 1 19.6076 8.50804 2.46426 
51 1 18.2322 8.50802 2.46427 
55 1 17.5196 8.50779 1.22773 
17 1 23.5531 9.71148 2.46425 
33 1 23.9712 10.2839 1.22776 
41 1 24.5796 11.5427 1.22774 
15 1 26.4005 0.820015 2.46425 
23 1 25.1688 3.34677 2.46426 
28 1 24.7797 4.77799 2.46426 
31 1 25.9827 1.39071 1.22775 
39 1 25.3694 2.65341 1.22774 
2 1 27.3478 17.398 2.46426 
6 1 28.1513 17.3981 1.22773 
10 1 29.5695 17.398 1.22773 
14 1 26.4005 16.196 2.46425 
22 1 25.1688 13.6692 2.46426 
25 1 24.7797 12.238 2.46426 
30 1 25.9827 15.6253 1.22775 
38 1 25.3694 14.3626 1.22774 
46 1 30.3375 17.3973 2.46425 
50 1 31.7227 17.3973 2.46424 
54 1 32.4758 17.4011 1.2277 
ITEM: TIMESTEP
60
ITEM: NUMBER OF ATOMS
58
ITEM: BOX BOUNDS pp pp pp
0.0000000000000000e+00 3.2808000000000000e+01
0.0000000000000000e+00 1.7780000000000001e+01
0.0000000000000000e+00 2.4729999999999999e+00
ITEM: ATOMS id type x y z 
13 1 7.42516 0.633058 2.4618 
29 1 7.90444 1.18278 1.22516 
37 1 8.20749 2.60646 1.22643 
57 2 5.72242 2.08325 2.41996 
58 3 4.79872 2.14187 2.41649 
1 1 6.26147 17.4511 2.46061 
5 1 5.45903 17.5524 1.22376 
9 1 4.05805 17.3754 1.22627 
16 1 7.03917 16.1327 2.46325 
32 1 7.53732 15.616 1.22689 
40 1 8.20454 14.3594 1.22749 
45 1 3.30875 17.3283 2.46281 
49 1 1.86445 17.3891 2.46392 
53 1 1.13149 17.4111 1.22743 
4 1 10.9321 8.48738 2.46424 
8 1 11.7287 8.48541 1.22774 
12 1 13.1525 8.51209 1.22774 
18 1 9.9886 7.28338 2.46418 
21 1 8.26986 3.3458 2.46298 
26 1 8.65916 4.73418 2.46379 
34 1 9.57281 6.72216 1.22767 
42 1 8.90616 5.43913 1.22732 
48 1 13.9215 8.51353 2.46424 
52 1 15.3007 8.50921 2.46425 
56 1 16.0374 8.50719 1.22775 
19 1 9.98432 9.69078 2.46424 
24 1 8.39636 13.6544 2.46401 
27 1 8.75401 12.2286 2.46422 
35 1 9.56336 10.255 1.22774 
43 1 8.94829 11.5221 1.22772 
3 1 22.6119 8.508 2.46425 
7 1 21.8155 8.508 1.22775 
11 1 20.3901 8.508 1.22774 
20 1 23.5595 7.30544 2.46425 
36 1 23.987 6.74225 1.22775 
44 1 24.6016 5.4817 1.22775 
47 1 19.6215 8.50806 2.46425 
51 1 18.2412 8.50802 2.46425 
55 1 17.5044 8.50766 1.22775 
17 1 23.5595 9.71056 2.46425 
33 1 23.987 10.2738 1.22775 
41 1 24.6016 11.5343 1.22775 
15 1 26.394 0.819172 2.46425 
23 1 25.1541 3.34774 2.46425 
28 1 24.7942 4.77699 2.46425 
31 1 25.9664 1.38169 1.22775 
39 1 25.3478 2.6438 1.22775 
2 1 27.3419 17.398 2.46425 
6 1 28.149 17.3981 1.22775 
10 1 29.5604 17.398 1.22774 
14 1 26.394 16.1968 2.46425 
22 1 25.1541 13.6683 2.46425 
25 1 24.7942 12.239 2.46425 
30 1 25.9664 15.6343 1.22775 
38 1 25.3478 14.3722 1.22775 
46 1 30.3341 17.3969 2.46424 
50 1 31.741 17.3972 2.46421 
54 1 32.4824 17.4028 1.22771 
ITEM: TIMESTEP
70
ITEM: NUMBER OF ATOMS
58
ITEM: BOX BOUNDS pp pp pp
0.0000000000000000e+00 3.2808000000000000e+01
0.0000000000000000e+00 1.7780000000000001e+01
0.0000000000000000e+00 2.4729999999999999e+00
ITEM: ATOMS id type x y z 
13 1 7.44552 0.625234 2.46167 
29 1 7.92982 1.17234 1.22521 
37 1 8.22857 2.59929 1.22639 
57 2 5.72036 2.08617 2.42 
58 3 4.79675 2.15526 2.41804 
1 1 6.27041 17.4617 2.46047 
5 1 5.46012 17.5727 1.22356 
9 1 4.06646 17.3776 1.22611 
16 1 7.02668 16.1228 2.46308 
32 1 7.52865 15.6234 1.2267 
40 1 8.23083 14.3669 1.22743 
45 1 3.31843 17.3178 2.46267 
49 1 1.87367 17.3825 2.46385 
53 1 1.13222 17.4132 1.22737 
4 1 10.9229 8.48593 2.46423 
8 1 11.7236 8.48481 1.22773 
12 1 13.1475 8.51292 1.22774 
18 1 9.98267 7.28053 2.46415 
21 1 8.27115 3.33545 2.46295 
26 1 8.63073 4.73929 2.46376 
34 1 9.55838 6.7221 1.22764 
42 1 8.87438 5.44003 1.22728 
48 1 13.918 8.51538 2.46424 
52 1 15.302 8.5098 2.46425 
56 1 16.0379 8.50686 1.22775 
19 1 9.9776 9.68752 2.46424 
24 1 8.41627 13.6562 2.46396 
27 1 8.73803 12.2314 2.4642 
35 1 9.54802 10.2481 1.22774 
43 1 8.92187 11.5178 1.22771 
3 1 22.618 8.508 2.46425 
7 1 21.8191 8.50799 1.22775 
11 1 20.3968 8.50801 1.22775 
20 1 23.566 7.30617 2.46425 
36 1 24.0019 6.75025 1.22775 
44 1 24.6274 5.48744 1.22775 
47 1 19.6263 8.50811 2.46425 
51 1 18.2408 8.50801 2.46425 
55 1 17.5045 8.50741 1.22775 
17 1 23.566 9.70983 2.46425 
33 1 24.0019 10.2657 1.22775 
41 1 24.6274 11.5286 1.22775 
15 1 26.3897 0.81647 2.46425 
23 1 25.1381 3.34433 2.46425 
28 1 24.8106 4.77817 2.46425 
31 1 25.955 1.3702 1.22775 
39 1 25.3231 2.6367 1.22775 
2 1 27.3331 17.398 2.46425 
6 1 28.1595 17.3982 1.22775 
10 1 29.5593 17.3978 1.22774 
14 1 26.3898 16.1995 2.46425 
22 1 25.1381 13.6717 2.46425 
25 1 24.8106 12.2378 2.46425 
30 1 25.955 15.6458 1.22775 
38 1 25.3232 14.3793 1.22775 
46 1 30.3104 17.3962 2.46424 
50 1 31.7542 17.3974 2.46419 
54 1 32.4955 17.4058 1.22769 
ITEM: TIMESTEP
80
ITEM: NUMBER OF ATOMS
58
ITEM: BOX BOUNDS pp pp pp
0.0000000000000000e+00 3.2808000000000000e+01
0.0000000000000000e+00 1.7780000000000001e+01
0.0000000000000000e+00 2.4729999999999999e+00
ITEM: ATOMS id type x y z 
13 1 7.50801 0.596353 2.46149 
29 1 8.00048 1.15654 1.22506 
37 1 8.2914 2.58015 1.22628 
57 2 5.71274 2.09571 2.4201 
58 3 4.7921 2.20003 2.42375 
1 1 6.28584 17.4982 2.45974 
5 1 5.47327 17.6321 1.22297 
9 1 4.0968 17.3856 1.2256 
16 1 6.98235 16.1246 2.46242 
32 1 7.50256 15.6236 1.22611 
40 1 8.31155 14.4084 1.22722 
45 1 3.3315 17.2914 2.46212 
49 1 1.86654 17.3602 2.46363 
53 1 1.14164 17.4132 1.22714 
4 1 10.8884 8.44806 2.46421 
8 1 11.7101 8.47291 1.22771 
12 1 13.1094 8.5164 1.22774 
18 1 9.95106 7.24734 2.46406 
21 1 8.29427 3.31941 2.46284 
26 1 8.53776 4.74548 2.46364 
34 1 9.50848 6.70306 1.22756 
42 1 8.77922 5.45037 1.22716 
48 1 13.8777 8.52253 2.46424 
52 1 15.3093 8.51206 2.46425 
56 1 16.0373 8.50554 1.22775 
19 1 9.95386 9.66416 2.46423 
24 1 8.47746 13.6958 2.4638 
27 1 8.67858 12.254 2.46415 
35 1 9.50233 10.2131 1.22773 
43 1 8.81816 11.5054 1.22766 
3 1 22.6445 8.508 2.46425 
7 1 21.8319 8.50797 1.22775 
11 1 20.4267 8.50808 1.22775 
20 1 23.5893 7.30913 2.46425 
36 1 24.0506 6.77757 1.22775 
44 1 24.7224 5.5033 1.22775 
47 1 19.6526 8.50839 2.46425 
51 1 18.2349 8.50792 2.46425 
55 1 17.5076 8.50625 1.22775 
17 1 23.5893 9.70687 2.46425 
33 1 24.0506 10.2384 1.22775 
41 1 24.7224 11.5127 1.22775 
15 1 26.3868 0.801091 2.46425 
23 1 25.0796 3.33897 2.46425 
28 1 24.8717 4.77112 2.46425 
31 1 25.9224 1.32826 1.22775 
39 1 25.2347 2.61223 1.22775 
2 1 27.3558 17.3981 2.46425 
6 1 28.1699 17.3985 1.22775 
10 1 29.5737 17.3965 1.22773 
14 1 26.387 16.2149 2.46425 
22 1 25.0796 13.6771 2.46425 
25 1 24.8717 12.245 2.46425 
30 1 25.9226 15.6878 1.22775 
38 1 25.2347 14.4038 1.22775 
46 1 30.3246 17.394 2.46422 
50 1 31.7621 17.4001 2.46412 
54 1 32.5114 17.4163 1.2276 
ITEM: TIMESTEP
90
ITEM: NUMBER OF ATOMS
58
ITEM: BOX BOUNDS pp pp pp
0.0000000000000000e+00 3.2808000000000000e+01
0.0000000000000000e+00 1.7780000000000001e+01
0.0000000000000000e+00 2.4729999999999999e+00
ITEM: ATOMS id type x y z 
13 1 7.5105 0.59616 2.46146 
29 1 7.98765 1.14798 1.22503 
37 1 8.29181 2.57688 1.22626 
57 2 5.71189 2.09693 2.42009 
58 3 4.7922 2.20366 2.42404 
1 1 6.28358 17.4882 2.45983 
5 1 5.48297 17.6181 1.22322 
9 1 4.0909 17.3879 1.22548 
16 1 7.00121 16.1307 2.46237 
32 1 7.49118 15.6158 1.22602 
40 1 8.29825 14.3966 1.2272 
45 1 3.338 17.2994 2.46213 
49 1 1.89825 17.357 2.46355 
53 1 1.15391 17.4099 1.22712 
4 1 10.8747 8.46792 2.4642 
8 1 11.7005 8.47483 1.22771 
12 1 13.0958 8.51547 1.22774 
18 1 9.94871 7.25436 2.46406 
21 1 8.30091 3.31503 2.46283 
26 1 8.53319 4.74851 2.46362 
34 1 9.51193 6.70657 1.22754 
42 1 8.77155 5.44828 1.22715 
48 1 13.8566 8.52339 2.46424 
52 1 15.2974 8.51252 2.46425 
56 1 16.0367 8.50557 1.22775 
19 1 9.94022 9.67039 2.46423 
24 1 8.48072 13.6827 2.46375 
27 1 8.68125 12.2431 2.46413 
35 1 9.50555 10.2247 1.22773 
43 1 8.83076 11.5217 1.22765 
3 1 22.6479 8.50803 2.46425 
7 1 21.8236 8.50797 1.22775 
11 1 20.4278 8.50811 1.22775 
20 1 23.5931 7.30971 2.46425 
36 1 24.0556 6.78038 1.22775 
44 1 24.7397 5.50021 1.22775 
47 1 19.6694 8.50846 2.46425 
51 1 18.2278 8.50786 2.46425 
55 1 17.4891 8.50595 1.22775 
17 1 23.5931 9.70633 2.46425 
33 1 24.0556 10.2357 1.22775 
41 1 24.7396 11.5159 1.22775 
15 1 26.3854 0.802663 2.46425 
23 1 25.0736 3.33644 2.46425 
28 1 24.8794 4.76571 2.46425 
31 1 25.9186 1.32837 1.22775 
39 1 25.2247 2.60586 1.22775 
2 1 27.3532 17.3981 2.46425 
6 1 28.1722 17.3984 1.22775 
10 1 29.5726 17.3961 1.22773 
14 1 26.3856 16.2133 2.46425 
22 1 25.0736 13.6796 2.46425 
25 1 24.8794 12.2504 2.46425 
30 1 25.9188 15.6876 1.22775 
38 1 25.2248 14.4102 1.22775 
46 1 30.3297 17.3938 2.46422 
50 1 31.7721 17.4015 2.46411 
54 1 32.5166 17.4174 1.22759 
ITEM: TIMESTEP
100
ITEM: NUMBER OF ATOMS
58
ITEM: BOX BOUNDS pp pp pp
0.0000000000000000e+00 3.2808000000000000e+01
0.0000000000000000e+00 1.7780000000000001e+01
0.0000000000000000e+00 2.4729999999999999e+00
ITEM: ATOMS id type x y z 
13 1 7.51217 0.595944 2.46145 
29 1 7.98704 1.14934 1.225 
37 1 8.29408 2.57695 1.22624 
57 2 5.71135 2.098 2.42008 
58 3 4.79212 2.20685 2.42405 
1 1 6.28567 17.4894 2.46002 
5 1 5.48422 17.6159 1.22353 
9 1 4.09251 17.3897 1.22545 
16 1 7.00585 16.1287 2.46232 
32 1 7.48816 15.6111 1.22596 
40 1 8.2947 14.3978 1.22717 
45 1 3.3407 17.3024 2.46207 
49 1 1.89918 17.3552 2.46352 
53 1 1.15593 17.4069 1.22708 
4 1 10.8716 8.46692 2.4642 
8 1 11.6962 8.47522 1.2277 
12 1 13.0937 8.5149 1.22774 
18 1 9.94459 7.25473 2.46405 
21 1 8.30657 3.31553 2.46282 
26 1 8.52902 4.74872 2.4636 
34 1 9.51059 6.70487 1.22753 
42 1 8.76726 5.45055 1.22714 
48 1 13.8513 8.52391 2.46424 
52 1 15.2939 8.5129 2.46425 
56 1 16.0375 8.50579 1.22775 
19 1 9.93364 9.6707 2.46422 
24 1 8.48472 13.6798 2.46372 
27 1 8.67985 12.2455 2.46412 
35 1 9.50468 10.2258 1.22772 
43 1 8.83183 11.5188 1.22764 
3 1 22.648 8.50804 2.46425 
7 1 21.8252 8.50798 1.22775 
11 1 20.4272 8.50815 1.22775 
20 1 23.5969 7.31189 2.46425 
36 1 24.0569 6.78029 1.22775 
44 1 24.7469 5.49894 1.22775 
47 1 19.6707 8.50849 2.46425 
51 1 18.2274 8.50774 2.46425 
55 1 17.484 8.50575 1.22775 
17 1 23.5969 9.70417 2.46425 
33 1 24.0569 10.2358 1.22775 
41 1 24.7469 11.5172 1.22775 
15 1 26.3848 0.801428 2.46425 
23 1 25.0691 3.3333 2.46425 
28 1 24.8845 4.76723 2.46425 
31 1 25.9184 1.32796 1.22775 
39 1 25.2184 2.60449 1.22775 
2 1 27.3543 17.3981 2.46425 
6 1 28.1733 17.3984 1.22774 
10 1 29.574 17.3958 1.22772 
14 1 26.3851 16.2145 2.46425 
22 1 25.0691 13.6828 2.46425 
25 1 24.8845 12.2489 2.46425 
30 1 25.9187 15.688 1.22775 
38 1 25.2186 14.4116 1.22775 
46 1 30.3314 17.3938 2.46422 
50 1 31.7737 17.4029 2.46409 
54 1 32.5186 17.4177 1.22757 
ITEM: TIMESTEP
110
ITEM: NUMBER OF ATOMS
58
ITEM: BOX BOUNDS pp pp pp
0.0000000000000000e+00 3.2808000000000000e+01
0.0000000000000000e+00 1.7780000000000001e+01
0.0000000000000000e+00 2.4729999999999999e+00
ITEM: ATOMS id type x y z 
13 1 7.52374 0.600284 2.46149 
29 1 7.99261 1.1531 1.22501 
37 1 8.31974 2.57998 1.22614 
57 2 5.70829 2.10544 2.41997 
58 3 4.79096 2.22993 2.42414 
1 1 6.29303 17.4904 2.46128 
5 1 5.49219 17.6101 1.22475 
9 1 4.09541 17.4023 1.22538 
16 1 7.00636 16.1305 2.4622 
32 1 7.47152 15.592 1.22577 
40 1 8.2982 14.3923 1.22696 
45 1 3.34263 17.3204 2.462 
49 1 1.90242 17.3445 2.46326 
53 1 1.15411 17.3871 1.22685 
4 1 10.8706 8.46061 2.46417 
8 1 11.6928 8.47579 1.22768 
12 1 13.0926 8.51345 1.22773 
18 1 9.93179 7.25522 2.46398 
21 1 8.33485 3.31513 2.46272 
26 1 8.50363 4.75833 2.4635 
34 1 9.49533 6.70581 1.22746 
42 1 8.73205 5.4621 1.22705 
48 1 13.8521 8.5238 2.46423 
52 1 15.2932 8.51567 2.46424 
56 1 16.0405 8.50826 1.22774 
19 1 9.91821 9.65304 2.4642 
24 1 8.50549 13.6793 2.4635 
27 1 8.6771 12.2377 2.46404 
35 1 9.49422 10.2161 1.22769 
43 1 8.82002 11.5133 1.22756 
3 1 22.6512 8.50804 2.46425 
7 1 21.8294 8.50809 1.22775 
11 1 20.4307 8.50848 1.22775 
20 1 23.6161 7.32153 2.46425 
36 1 24.0583 6.77592 1.22775 
44 1 24.7557 5.49571 1.22775 
47 1 19.6739 8.50841 2.46425 
51 1 18.2292 8.50649 2.46425 
55 1 17.4858 8.50508 1.22775 
17 1 23.6161 9.69456 2.46425 
33 1 24.0583 10.2402 1.22775 
41 1 24.7556 11.5204 1.22775 
15 1 26.3761 0.799634 2.46425 
23 1 25.0485 3.32956 2.46425 
28 1 24.9071 4.76944 2.46425 
31 1 25.9219 1.33411 1.22775 
39 1 25.2064 2.60194 1.22775 
2 1 27.3522 17.3983 2.46424 
6 1 28.1678 17.3973 1.22774 
10 1 29.5716 17.3939 1.22769 
14 1 26.3764 16.2164 2.46425 
22 1 25.0486 13.6866 2.46425 
25 1 24.907 12.2467 2.46425 
30 1 25.9223 15.6819 1.22775 
38 1 25.2066 14.4141 1.22775 
46 1 30.3324 17.3959 2.46418 
50 1 31.771 17.4116 2.46399 
54 1 32.519 17.4177 1.22746 
ITEM: TIMESTEP
120
ITEM: NUMBER OF ATOMS
58
ITEM: BOX BOUNDS pp pp pp
0.0000000000000000e+00 3.2808000000000000e+01
0.0000000000000000e+00 1.7780000000000001e+01
0.0000000000000000e+00 2.4729999999999999e+00
ITEM: ATOMS id type x y z 
13 1 7.51987 0.600088 2.46154 
29 1 7.98995 1.15707 1.22506 
37 1 8.32317 2.57872 1.22613 
57 2 5.70755 2.10715 2.41995 
58 3 4.79087 2.23519 2.42417 
1 1 6.29586 17.4928 2.46139 
5 1 5.49221 17.6062 1.2249 
9 1 4.09687 17.4063 1.22544 
16 1 7.0137 16.1254 2.46222 
32 1 7.46908 15.5899 1.22578 
40 1 8.2935 14.3876 1.22691 
45 1 3.3433 17.3256 2.46201 
49 1 1.90207 17.3429 2.46323 
53 1 1.15625 17.383 1.2268 
4 1 10.8701 8.4598 2.46416 
8 1 11.6902 8.47524 1.22767 
12 1 13.0915 8.51298 1.22773 
18 1 9.92988 7.25445 2.46397 
21 1 8.34085 3.31716 2.46269 
26 1 8.50173 4.75926 2.46349 
34 1 9.49327 6.70749 1.22745 
42 1 8.72843 5.46513 1.22702 
48 1 13.8505 8.52351 2.46423 
52 1 15.2917 8.51614 2.46424 
56 1 16.0385 8.50897 1.22774 
19 1 9.91395 9.65446 2.46419 
24 1 8.50573 13.676 2.46346 
27 1 8.67891 12.2379 2.46401 
35 1 9.49321 10.2144 1.22768 
43 1 8.82505 11.5105 1.22753 
3 1 22.6505 8.50802 2.46425 
7 1 21.8321 8.50813 1.22775 
11 1 20.4297 8.50851 1.22775 
20 1 23.6162 7.32081 2.46425 
36 1 24.0603 6.77679 1.22775 
44 1 24.7593 5.4971 1.22775 
47 1 19.6704 8.50831 2.46425 
51 1 18.2296 8.50624 2.46425 
55 1 17.4826 8.50506 1.22775 
17 1 23.6162 9.69527 2.46425 
33 1 24.0602 10.2393 1.22775 
41 1 24.7592 11.519 1.22775 
15 1 26.3782 0.799102 2.46425 
23 1 25.0471 3.32786 2.46425 
28 1 24.9082 4.76987 2.46425 
31 1 25.9215 1.33331 1.22775 
39 1 25.2019 2.60173 1.22775 
2 1 27.353 17.3983 2.46424 
6 1 28.1709 17.397 1.22774 
10 1 29.5732 17.3939 1.22768 
14 1 26.3783 16.217 2.46425 
22 1 25.0472 13.6882 2.46425 
25 1 24.9081 12.2462 2.46425 
30 1 25.9219 15.6827 1.22775 
38 1 25.2021 14.4143 1.22775 
46 1 30.332 17.3968 2.46417 
50 1 31.7733 17.4128 2.46396 
54 1 32.52 17.4168 1.22743 
ITEM: TIMESTEP
130
ITEM: NUMBER OF ATOMS
58
ITEM: BOX BOUNDS pp pp pp
0.0000000000000000e+00 3.2808000000000000e+01
0.0000000000000000e+00 1.7780000000000001e+01
0.0000000000000000e+00 2.4729999999999999e+00
ITEM: ATOMS id type x y z 
13 1 7.51492 0.609972 2.46178 
29 1 7.98456 1.16595 1.2253 
37 1 8.34488 2.58146 1.22607 
57 2 5.70444 2.11492 2.41982 
58 3 4.79014 2.25966 2.42424 
1 1 6.30081 17.4905 2.4619 
5 1 5.49548 17.5994 1.22543 
9 1 4.09764 17.4225 1.2256 
16 1 7.01916 16.1246 2.46234 
32 1 7.46351 15.5804 1.22588 
40 1 8.28805 14.377 1.22675 
45 1 3.34282 17.3451 2.46216 
49 1 1.90222 17.336 2.46306 
53 1 1.15531 17.3667 1.22662 
4 1 10.872 8.45247 2.46412 
8 1 11.6913 8.471 1.22763 
12 1 13.093 8.51125 1.22771 
18 1 9.92492 7.25151 2.46389 
21 1 8.36345 3.31917 2.46263 
26 1 8.49062 4.76554 2.46339 
34 1 9.47882 6.71217 1.22737 
42 1 8.70369 5.47497 1.22692 
48 1 13.8519 8.5226 2.46421 
52 1 15.2931 8.51832 2.46424 
56 1 16.0403 8.51186 1.22774 
19 1 9.90923 9.64165 2.46414 
24 1 8.50982 13.6691 2.46329 
27 1 8.68647 12.2305 2.4639 
35 1 9.48574 10.2013 1.22763 
43 1 8.82621 11.5022 1.22743 
3 1 22.6526 8.50795 2.46425 
7 1 21.8342 8.50828 1.22775 
11 1 20.4319 8.50853 1.22775 
20 1 23.6192 7.32172 2.46425 
36 1 24.0629 6.77703 1.22775 
44 1 24.7618 5.49707 1.22775 
47 1 19.6719 8.50775 2.46425 
51 1 18.2318 8.50523 2.46425 
55 1 17.484 8.50525 1.22775 
17 1 23.6192 9.69425 2.46425 
33 1 24.0629 10.239 1.22775 
41 1 24.7618 11.5189 1.22775 
15 1 26.3786 0.800834 2.46425 
23 1 25.0434 3.32704 2.46425 
28 1 24.9099 4.76976 2.46425 
31 1 25.923 1.33521 1.22775 
39 1 25.1984 2.60098 1.22775 
2 1 27.3516 17.3981 2.46423 
6 1 28.1694 17.3959 1.22772 
10 1 29.5721 17.3951 1.22763 
14 1 26.3782 16.2154 2.46425 
22 1 25.0434 13.6889 2.46425 
25 1 24.9098 12.2462 2.46425 
30 1 25.9229 15.6808 1.22775 
38 1 25.1983 14.415 1.22775 
46 1 30.3311 17.4013 2.46412 
50 1 31.7725 17.4167 2.46383 
54 1 32.5195 17.4121 1.22729 
ITEM: TIMESTEP
140
ITEM: NUMBER OF ATOMS
58
ITEM: BOX BOUNDS pp pp pp
0.0000000000000000e+00 3.2808000000000000e+01
0.0000000000000000e+00 1.7780000000000001e+01
0.0000000000000000e+00 2.4729999999999999e+00
ITEM: ATOMS id type x y z 
13 1 7.4713 0.661041 2.46311 
29 1 7.93837 1.21304 1.22656 
37 1 8.42817 2.5888 1.22612 
57 2 5.68694 2.15336 2.41909 
58 3 4.78864 2.38522 2.42221 
1 1 6.30919 17.4747 2.46417 
5 1 5.49968 17.5725 1.22759 
9 1 4.0957 17.4972 1.2266 
16 1 7.06246 16.1246 2.46316 
32 1 7.46444 15.5606 1.22659 
40 1 8.24234 14.3281 1.22636 
45 1 3.34155 17.4239 2.46307 
49 1 1.90369 17.3199 2.46274 
53 1 1.15707 17.313 1.22625 
4 1 10.8792 8.40879 2.46389 
8 1 11.694 8.43454 1.22741 
12 1 13.0972 8.4994 1.22761 
18 1 9.90002 7.23624 2.46354 
21 1 8.45827 3.32824 2.46262 
26 1 8.45319 4.77888 2.46298 
34 1 9.41613 6.72218 1.22701 
42 1 8.61168 5.5069 1.2265 
48 1 13.8562 8.52154 2.46412 
52 1 15.2972 8.52974 2.4642 
56 1 16.0435 8.52297 1.22771 
19 1 9.89701 9.59167 2.46383 
24 1 8.49289 13.6298 2.46285 
27 1 8.72064 12.1985 2.46335 
35 1 9.46937 10.1462 1.22731 
43 1 8.85633 11.47 1.22687 
3 1 22.6576 8.5075 2.46425 
7 1 21.8405 8.50826 1.22775 
11 1 20.4371 8.50654 1.22775 
20 1 23.6286 7.32249 2.46425 
36 1 24.0723 6.77927 1.22775 
44 1 24.762 5.49316 1.22775 
47 1 19.6766 8.50414 2.46425 
51 1 18.2362 8.50335 2.46424 
55 1 17.4894 8.50836 1.22774 
17 1 23.629 9.69234 2.46425 
33 1 24.0728 10.2355 1.22775 
41 1 24.763 11.5212 1.22775 
15 1 26.3838 0.798482 2.46422 
23 1 25.0359 3.32236 2.46424 
28 1 24.9055 4.76536 2.46425 
31 1 25.933 1.33754 1.22772 
39 1 25.2019 2.59888 1.22774 
2 1 27.3562 17.3957 2.46414 
6 1 28.1755 17.3949 1.22762 
10 1 29.5757 17.4133 1.22732 
14 1 26.3787 16.218 2.46422 
22 1 25.0345 13.6922 2.46424 
25 1 24.9063 12.2491 2.46425 
30 1 25.9273 15.6788 1.22772 
38 1 25.1987 14.4162 1.22774 
46 1 30.3332 17.4248 2.46378 
50 1 31.7761 17.4126 2.46321 
54 1 32.5214 17.3782 1.22668 
ITEM: TIMESTEP
150
ITEM: NUMBER OF ATOMS
58
ITEM: BOX BOUNDS pp pp pp
0.0000000000000000e+00 3.2808000000000000e+01
0.0000000000000000e+00 1.7780000000000001e+01
0.0000000000000000e+00 2.4729999999999999e+00
ITEM: ATOMS id type x y z 
13 1 7.47197 0.664856 2.46316 
29 1 7.93969 1.21363 1.22661 
37 1 8.42978 2.58874 1.22618 
57 2 5.68496 2.15517 2.41907 
58 3 4.79009 2.38922 2.42229 
1 1 6.31091 17.4745 2.46389 
5 1 5.50066 17.578 1.22738 
9 1 4.09774 17.4957 1.22664 
16 1 7.05787 16.1302 2.4632 
32 1 7.46739 15.5623 1.22666 
40 1 8.24569 14.3269 1.22641 
45 1 3.34201 17.4242 2.46311 
49 1 1.90509 17.3214 2.4628 
53 1 1.157 17.314 1.22631 
4 1 10.8794 8.40747 2.46387 
8 1 11.6965 8.43119 1.22739 
12 1 13.0974 8.49845 1.2276 
18 1 9.89713 7.23107 2.46353 
21 1 8.45743 3.32885 2.46267 
26 1 8.45293 4.77788 2.46299 
34 1 9.41492 6.72153 1.227 
42 1 8.61119 5.50735 1.22652 
48 1 13.8571 8.52174 2.46411 
52 1 15.2972 8.53009 2.4642 
56 1 16.0443 8.52362 1.2277 
19 1 9.90271 9.58597 2.46381 
24 1 8.4895 13.6291 2.46291 
27 1 8.72045 12.1954 2.46334 