ITEM: TIMESTEP
0
ITEM: NUMBER OF ATOMS
50
ITEM: BOX BOUNDS pp pp pp
0.0000000000000000e+00 1.1000000000000000e+01
0.0000000000000000e+00 1.1002000000000001e+01
0.0000000000000000e+00 1.1000000000000000e+01
ITEM: ATOMS id type x y z 
10 1 4.603 4.603 4.603 
11 1 3.085 3.085 3.085 
12 1 3.796 3.796 3.796 
46 1 0.726 0.725 0.725 
47 1 2.26 2.259 2.26 
48 1 1.551 1.55 1.55 
19 1 4.546 4.545 6.226 
20 1 3.013 3.013 7.764 
21 1 3.721 3.721 7.053 
31 1 0.668 0.667 10.103 
32 1 2.187 2.187 8.589 
33 1 1.476 1.475 9.298 
16 1 4.546 6.225 4.546 
17 1 3.013 7.765 3.013 
18 1 3.721 7.053 3.722 
25 1 0.668 10.103 0.668 
26 1 2.188 8.589 2.188 
27 1 1.476 9.298 1.476 
4 1 4.608 6.169 6.169 
5 1 3.086 7.684 7.684 
6 1 3.799 6.974 6.974 
37 1 0.729 10.046 10.046 
38 1 2.259 8.509 8.508 
39 1 1.552 9.219 9.219 
13 1 6.225 4.546 4.546 
14 1 7.764 3.013 3.013 
15 1 7.053 3.721 3.722 
28 1 10.102 0.667 0.668 
29 1 8.589 2.187 2.188 
30 1 9.298 1.475 1.476 
1 1 6.168 4.608 6.169 
2 1 7.684 3.086 7.684 
3 1 6.974 3.799 6.974 
40 1 10.045 0.728 10.046 
41 1 8.508 2.259 8.508 
42 1 9.218 1.551 9.218 
7 1 6.169 6.169 4.608 
8 1 7.684 7.684 3.086 
9 1 6.974 6.974 3.799 
43 1 10.046 10.047 0.729 
44 1 8.508 8.509 2.259 
45 1 9.219 9.219 1.552 
22 1 6.229 6.229 6.229 
23 1 7.764 7.765 7.765 
24 1 7.055 7.056 7.055 
34 1 10.108 10.108 10.107 
35 1 8.59 8.59 8.59 
36 1 9.301 9.301 9.3 
49 2 8.821 10.52 10.029 
50 3 7.845 10.52 10.029 
ITEM: TIMESTEP
10
ITEM: NUMBER OF ATOMS
50
ITEM: BOX BOUNDS pp pp pp
0.0000000000000000e+00 1.1000000000000000e+01
0.0000000000000000e+00 1.1002000000000001e+01
0.0000000000000000e+00 1.1000000000000000e+01
ITEM: ATOMS id type x y z 
10 1 4.59832 4.59883 4.59862 
11 1 3.0821 3.08101 3.08251 
12 1 3.788 3.79025 3.78721 
46 1 0.738957 0.73039 0.743157 
47 1 2.26808 2.26867 2.26695 
48 1 1.56542 1.56132 1.56644 
19 1 4.53618 4.53541 6.23668 
20 1 3.00344 3.00333 7.77337 
21 1 3.71012 3.70956 7.06491 
31 1 0.691902 0.671251 10.0907 
32 1 2.19961 2.19414 8.58095 
33 1 1.48113 1.48951 9.28517 
16 1 4.53563 6.23575 4.5363 
17 1 3.00289 7.77471 3.00352 
18 1 3.70839 7.06629 3.70838 
25 1 0.661526 10.0955 0.668993 
26 1 2.19158 8.58587 2.19151 
27 1 1.48337 9.2901 1.48324 
4 1 4.59883 6.1734 6.17246 
5 1 3.08264 7.68689 7.68748 
6 1 3.79199 6.98105 6.97993 
37 1 0.774287 10.0358 10.0448 
38 1 2.26343 8.4999 8.49799 
39 1 1.57427 9.20765 9.2094 
13 1 6.23648 4.53525 4.53626 
14 1 7.77356 3.00315 3.00394 
15 1 7.06565 3.70888 3.70926 
28 1 10.0927 0.66502 0.684358 
29 1 8.58157 2.1926 2.19846 
30 1 9.28652 1.48942 1.48073 
1 1 6.17534 4.59696 6.17538 
2 1 7.69048 3.07927 7.68974 
3 1 6.98143 3.79051 6.982 
40 1 10.0988 0.829446 10.0415 
41 1 8.48637 2.27171 8.48946 
42 1 9.2162 1.58551 9.2028 
7 1 6.17248 6.17351 4.59902 
8 1 7.68767 7.68733 3.08244 
9 1 6.9798 6.98049 3.79186 
43 1 10.0591 10.039 0.776049 
44 1 8.49921 8.50242 2.26156 
45 1 9.21629 9.21184 1.56956 
22 1 6.24454 6.24341 6.24393 
23 1 7.76482 7.76912 7.7694 
24 1 7.05825 7.06019 7.06073 
34 1 10.1234 10.0668 10.0863 
35 1 8.56666 8.55614 8.55859 
36 1 9.38893 9.1822 9.22641 
49 2 8.67739 10.5339 10.0892 
50 3 7.7623 10.5703 10.0445 
ITEM: TIMESTEP
20
ITEM: NUMBER OF ATOMS
50
ITEM: BOX BOUNDS pp pp pp
0.0000000000000000e+00 1.1000000000000000e+01
0.0000000000000000e+00 1.1002000000000001e+01
0.0000000000000000e+00 1.1000000000000000e+01
ITEM: ATOMS id type x y z 
10 1 4.59509 4.59537 4.5933 
11 1 3.08615 3.08466 3.08638 
12 1 3.78706 3.78926 3.78518 
46 1 0.739059 0.734456 0.752969 
47 1 2.27469 2.27623 2.27258 
48 1 1.56899 1.56376 1.57421 
19 1 4.5355 4.53354 6.23658 
20 1 3.00519 3.00548 7.77339 
21 1 3.71064 3.7089 7.06055 
31 1 0.674601 0.703275 10.0999 
32 1 2.20292 2.19842 8.57296 
33 1 1.48724 1.49061 9.29276 
16 1 4.53468 6.23714 4.53131 
17 1 3.0016 7.77673 3.00141 
18 1 3.70773 7.06697 3.70808 
25 1 0.662517 10.0977 0.704492 
26 1 2.19652 8.58006 2.18887 
27 1 1.4789 9.29472 1.49547 
4 1 4.58837 6.17066 6.16993 
5 1 3.09086 7.67607 7.67934 
6 1 3.7992 6.97529 6.96785 
37 1 0.779501 10.0383 10.0463 
38 1 2.27851 8.48233 8.48163 
39 1 1.5962 9.19409 9.19485 
13 1 6.23582 4.53403 4.53417 
14 1 7.77468 2.99996 3.00253 
15 1 7.06923 3.7093 3.70667 
28 1 10.0925 0.668322 0.662949 
29 1 8.58633 2.18922 2.19216 
30 1 9.28986 1.48044 1.47847 
1 1 6.17559 4.5869 6.16953 
2 1 7.69102 3.07651 7.68857 
3 1 6.97718 3.79002 6.98324 
40 1 10.1037 0.801225 10.0538 
41 1 8.49911 2.25567 8.49966 
42 1 9.23605 1.60219 9.21263 
7 1 6.17317 6.17194 4.58482 
8 1 7.69029 7.68855 3.07883 
9 1 6.97898 6.98376 3.78846 
43 1 10.0599 10.0496 0.746613 
44 1 8.50064 8.50063 2.26103 
45 1 9.21351 9.21421 1.57748 
22 1 6.23054 6.22786 6.22407 
23 1 7.75276 7.76659 7.76128 
24 1 7.05123 7.05496 7.05984 
34 1 10.2254 10.0475 10.0869 
35 1 8.61762 8.56797 8.57966 
36 1 9.45016 9.18204 9.24111 
49 2 8.52523 10.55 10.1116 
50 3 7.63585 10.6177 10.0577 
ITEM: TIMESTEP
30
ITEM: NUMBER OF ATOMS
50
ITEM: BOX BOUNDS pp pp pp
0.0000000000000000e+00 1.1000000000000000e+01
0.0000000000000000e+00 1.1002000000000001e+01
0.0000000000000000e+00 1.1000000000000000e+01
ITEM: ATOMS id type x y z 
10 1 4.59793 4.59473 4.59244 
11 1 3.08381 3.08351 3.08396 
12 1 3.79343 3.79355 3.79091 
46 1 0.741772 0.733985 0.756797 
47 1 2.2742 2.27481 2.27304 
48 1 1.56811 1.56461 1.57306 
19 1 4.53619 4.52964 6.23156 
20 1 3.00482 3.00509 7.7709 
21 1 3.71349 3.71082 7.06248 
31 1 0.683903 0.702119 10.1058 
32 1 2.19825 2.19379 8.57772 
33 1 1.49072 1.49381 9.2916 
16 1 4.53454 6.23589 4.52663 
17 1 3.00179 7.77696 3.00179 
18 1 3.7083 7.06543 3.70678 
25 1 0.666042 10.1027 0.705208 
26 1 2.19406 8.58158 2.18857 
27 1 1.47908 9.29588 1.4945 
4 1 4.60061 6.17044 6.16526 
5 1 3.09342 7.6784 7.67577 
6 1 3.79721 6.96657 6.96943 
37 1 0.785338 10.0372 10.0446 
38 1 2.27819 8.48508 8.48247 
39 1 1.58936 9.20023 9.2055 
13 1 6.23653 4.53539 4.53276 
14 1 7.77618 3.00292 3.0027 
15 1 7.06562 3.70476 3.70702 
28 1 10.0939 0.669929 0.664853 
29 1 8.58833 2.18659 2.19089 
30 1 9.28922 1.48062 1.47664 
1 1 6.17602 4.59376 6.17309 
2 1 7.68526 3.08012 7.69135 
3 1 6.98372 3.78243 6.97532 
40 1 10.0952 0.787796 10.0453 
41 1 8.50424 2.25881 8.50351 
42 1 9.24003 1.59487 9.21269 
7 1 6.17476 6.17309 4.59094 
8 1 7.68783 7.69092 3.08058 
9 1 6.98237 6.97882 3.7839 
43 1 10.0502 10.0429 0.733794 
44 1 8.5041 8.50485 2.26221 
45 1 9.2169 9.21564 1.56727 
22 1 6.23487 6.2268 6.22728 
23 1 7.7609 7.77376 7.77391 
24 1 7.06061 7.06762 7.06282 
34 1 10.208 10.0542 10.0865 
35 1 8.62834 8.55732 8.57356 
36 1 9.44996 9.1747 9.23445 
49 2 8.50685 10.5472 10.1213 
50 3 7.60355 10.6283 10.0626 
ITEM: TIMESTEP
40
ITEM: NUMBER OF ATOMS
50
ITEM: BOX BOUNDS pp pp pp
0.0000000000000000e+00 1.1000000000000000e+01
0.0000000000000000e+00 1.1002000000000001e+01
0.0000000000000000e+00 1.1000000000000000e+01
ITEM: ATOMS id type x y z 
10 1 4.60025 4.59733 4.59136 
11 1 3.08482 3.08604 3.08456 
12 1 3.79543 3.79249 3.7921 
46 1 0.740427 0.733425 0.758283 
47 1 2.27727 2.27774 2.2761 
48 1 1.56854 1.5656 1.57607 
19 1 4.54126 4.53141 6.23138 
20 1 3.00582 3.00622 7.7723 
21 1 3.71187 3.70731 7.05889 
31 1 0.693533 0.69452 10.11 
32 1 2.19681 2.19442 8.57811 
33 1 1.49335 1.49249 9.29492 
16 1 4.53973 6.23416 4.52696 
17 1 3.00177 7.77601 3.00185 
18 1 3.70923 7.06557 3.70533 
25 1 0.669683 10.1045 0.699897 
26 1 2.19201 8.58335 2.19034 
27 1 1.47934 9.29553 1.4925 
4 1 4.60663 6.1664 6.16491 
5 1 3.08843 7.67405 7.67737 
6 1 3.80266 6.97598 6.96674 
37 1 0.784835 10.042 10.0518 
38 1 2.27759 8.48736 8.48618 
39 1 1.59158 9.20206 9.20601 
13 1 6.23702 4.53392 4.53307 
14 1 7.77633 2.99752 3.00066 
15 1 7.07111 3.7082 3.70495 
28 1 10.0934 0.670355 0.664001 
29 1 8.58833 2.186 2.18872 
30 1 9.29107 1.47839 1.47678 
1 1 6.18212 4.59432 6.16844 
2 1 7.68817 3.07249 7.68651 
3 1 6.98174 3.78907 6.98715 
40 1 10.0959 0.774766 10.0388 
41 1 8.50727 2.26793 8.5047 
42 1 9.24033 1.58768 9.2088 
7 1 6.17775 6.17435 4.59396 
8 1 7.68923 7.69154 3.07739 
9 1 6.98397 6.98172 3.78467 
43 1 10.046 10.041 0.722869 
44 1 8.50677 8.50794 2.26632 
45 1 9.21317 9.2115 1.55794 
22 1 6.24241 6.23425 6.2295 
23 1 7.76122 7.77703 7.77294 
24 1 7.06126 7.06499 7.06656 
34 1 10.1822 10.0619 10.079 
35 1 8.64573 8.54511 8.56883 
36 1 9.45887 9.17272 9.23234 
49 2 8.47796 10.5373 10.134 
50 3 7.56582 10.6431 10.0713 
ITEM: TIMESTEP
50
ITEM: NUMBER OF ATOMS
50
ITEM: BOX BOUNDS pp pp pp
0.0000000000000000e+00 1.1000000000000000e+01
0.0000000000000000e+00 1.1002000000000001e+01
0.0000000000000000e+00 1.1000000000000000e+01
ITEM: ATOMS id type x y z 
10 1 4.60769 4.59691 4.59521 
11 1 3.08799 3.08668 3.08812 
12 1 3.79776 3.79828 3.79004 
46 1 0.737698 0.734452 0.759516 
47 1 2.27829 2.27747 2.27498 
48 1 1.56298 1.56395 1.58028 
19 1 4.54933 4.53225 6.23263 
20 1 3.0082 3.00596 7.76954 
21 1 3.71248 3.71132 7.05684 
31 1 0.70459 0.685989 10.1127 
32 1 2.19343 2.19543 8.57611 
33 1 1.50278 1.49172 9.30399 
16 1 4.5437 6.23662 4.52841 
17 1 3.00103 7.77354 3.00324 
18 1 3.71457 7.06561 3.70366 
25 1 0.670709 10.1031 0.692845 
26 1 2.1869 8.58164 2.19248 
27 1 1.48442 9.30143 1.49173 
4 1 4.61105 6.1737 6.1647 
5 1 3.08971 7.68154 7.67522 
6 1 3.79466 6.96572 6.97222 
37 1 0.785201 10.0415 10.055 
38 1 2.27819 8.48988 8.49258 
39 1 1.59041 9.20701 9.20744 
13 1 6.24404 4.5358 4.53498 
14 1 7.77711 2.99565 2.99947 
15 1 7.07302 3.7083 3.70409 
28 1 10.0969 0.669709 0.664566 
29 1 8.5887 2.18319 2.18599 
30 1 9.29277 1.47706 1.47444 
1 1 6.18577 4.5934 6.16992 
2 1 7.68863 3.07251 7.69028 
3 1 6.98433 3.78613 6.98385 
40 1 10.0933 0.765932 10.0287 
41 1 8.51361 2.27639 8.50428 
42 1 9.24049 1.57932 9.20554 
7 1 6.18328 6.17263 4.59042 
8 1 7.6924 7.69245 3.07441 
9 1 6.98625 6.9867 3.7857 
43 1 10.0392 10.0383 0.715688 
44 1 8.50915 8.51036 2.26464 
45 1 9.21146 9.21132 1.5516 
22 1 6.24625 6.23463 6.23073 
23 1 7.76497 7.77657 7.77664 
24 1 7.06332 7.0687 7.06744 
34 1 10.1571 10.0757 10.0725 
35 1 8.6678 8.52448 8.55472 
36 1 9.46438 9.16901 9.22573 
49 2 8.43873 10.5214 10.1498 
50 3 7.52131 10.6637 10.0883 
ITEM: TIMESTEP
60
ITEM: NUMBER OF ATOMS
50
ITEM: BOX BOUNDS pp pp pp
0.0000000000000000e+00 1.1000000000000000e+01
0.0000000000000000e+00 1.1002000000000001e+01
0.0000000000000000e+00 1.1000000000000000e+01
ITEM: ATOMS id type x y z 
10 1 4.61017 4.60008 4.59415 
11 1 3.08912 3.08983 3.08774 
12 1 3.80106 3.79657 3.79263 
46 1 0.73489 0.73515 0.76214 
47 1 2.27793 2.27816 2.27954 
48 1 1.56654 1.56686 1.58006 
19 1 4.54938 4.53439 6.23182 
20 1 3.00547 3.00678 7.76618 
21 1 3.71722 3.71001 7.05995 
31 1 0.708547 0.682047 10.1154 
32 1 2.19683 2.1974 8.58059 
33 1 1.5011 1.48912 9.29905 
16 1 4.54829 6.23734 4.52868 
17 1 3.00247 7.77202 3.00266 
18 1 3.71391 7.06542 3.70513 
25 1 0.673372 10.1028 0.688908 
26 1 2.18827 8.58513 2.19505 
27 1 1.48041 9.29529 1.49038 
4 1 4.61016 6.17188 6.1664 
5 1 3.08577 7.6784 7.67749 
6 1 3.79791 6.97413 6.97148 
37 1 0.781718 10.044 10.0546 
38 1 2.27817 8.49419 8.49454 
39 1 1.58964 9.20752 9.21267 
13 1 6.2484 4.53774 4.53386 
14 1 7.77821 2.99564 2.99779 
15 1 7.0743 3.70558 3.7045 
28 1 10.0964 0.669403 0.660548 
29 1 8.58908 2.18176 2.18448 
30 1 9.29298 1.47527 1.47197 
1 1 6.18853 4.59502 6.1716 
2 1 7.68931 3.07317 7.69293 
3 1 6.98763 3.78389 6.98271 
40 1 10.0921 0.759382 10.0253 
41 1 8.51934 2.27491 8.50625 
42 1 9.24423 1.57881 9.2049 
7 1 6.18539 6.17493 4.59157 
8 1 7.69345 7.69508 3.07496 
9 1 6.98901 6.98513 3.78328 
43 1 10.0376 10.0386 0.711693 
44 1 8.5092 8.51026 2.26226 
45 1 9.21237 9.21392 1.54923 
22 1 6.24514 6.23526 6.22995 
23 1 7.76528 7.77369 7.77628 
24 1 7.06434 7.06671 7.06527 
34 1 10.1439 10.0847 10.07 
35 1 8.6827 8.51153 8.54549 
36 1 9.46476 9.16768 9.22047 
49 2 8.41706 10.514 10.158 
50 3 7.49902 10.6746 10.1014 
ITEM: TIMESTEP
70
ITEM: NUMBER OF ATOMS
50
ITEM: BOX BOUNDS pp pp pp
0.0000000000000000e+00 1.1000000000000000e+01
0.0000000000000000e+00 1.1002000000000001e+01
0.0000000000000000e+00 1.1000000000000000e+01
ITEM: ATOMS id type x y z 
10 1 4.61184 4.60098 4.59373 
11 1 3.09006 3.09087 3.08802 
12 1 3.80205 3.79661 3.79359 
46 1 0.735463 0.735845 0.761984 
47 1 2.27714 2.27822 2.2799 
48 1 1.56706 1.56677 1.58105 
19 1 4.55084 4.53434 6.23232 
20 1 3.00594 3.00714 7.76568 
21 1 3.71723 3.71038 7.05946 
31 1 0.710037 0.681669 10.1161 
32 1 2.19719 2.19818 8.58217 
33 1 1.50188 1.48705 9.29824 
16 1 4.54908 6.23749 4.52886 
17 1 3.00275 7.77153 3.00286 
18 1 3.71448 7.06549 3.70546 
25 1 0.673845 10.1019 0.687941 
26 1 2.18784 8.58534 2.19579 
27 1 1.48017 9.29468 1.48998 
4 1 4.60851 6.1731 6.16689 
5 1 3.08506 7.67909 7.6783 
6 1 3.79731 6.97501 6.97162 
37 1 0.779726 10.0446 10.0549 
38 1 2.27831 8.49494 8.496 
39 1 1.5892 9.20898 9.21405 
13 1 6.24986 4.5378 4.53438 
14 1 7.77847 2.99538 2.99746 
15 1 7.07489 3.70525 3.70442 
28 1 10.0976 0.66992 0.660605 
29 1 8.58921 2.18099 2.18404 
30 1 9.29238 1.47523 1.47051 
1 1 6.18936 4.59412 6.17071 
2 1 7.6905 3.07354 7.69303 
3 1 6.98738 3.78425 6.98348 
40 1 10.0932 0.758911 10.024 
41 1 8.52174 2.27656 8.50527 
42 1 9.24363 1.57681 9.20478 
7 1 6.18651 6.17494 4.58996 
8 1 7.69447 7.69528 3.07455 
9 1 6.98942 6.98625 3.78316 
43 1 10.0377 10.039 0.711258 
44 1 8.50891 8.51054 2.2611 
45 1 9.2128 9.21412 1.54862 
22 1 6.24392 6.23518 6.23006 
23 1 7.76624 7.77221 7.77565 
24 1 7.06571 7.06443 7.06404 
34 1 10.1387 10.0863 10.0687 
35 1 8.6894 8.50517 8.54091 
36 1 9.46429 9.16829 9.21817 
49 2 8.40845 10.5116 10.1613 
50 3 7.49034 10.6787 10.1089 
ITEM: TIMESTEP
80
ITEM: NUMBER OF ATOMS
50
ITEM: BOX BOUNDS pp pp pp
0.0000000000000000e+00 1.1000000000000000e+01
0.0000000000000000e+00 1.1002000000000001e+01
0.0000000000000000e+00 1.1000000000000000e+01
ITEM: ATOMS id type x y z 
10 1 4.61773 4.6025 4.59487 
11 1 3.09254 3.09251 3.09 
12 1 3.80597 3.79891 3.7933 
46 1 0.737311 0.736104 0.761501 
47 1 2.27618 2.27882 2.28417 
48 1 1.56737 1.56821 1.58265 
19 1 4.55447 4.53538 6.23295 
20 1 3.00608 3.00814 7.76389 
21 1 3.71891 3.71115 7.05931 
31 1 0.715819 0.67767 10.1178 
32 1 2.20045 2.19857 8.58337 
33 1 1.50635 1.48761 9.30069 
16 1 4.55231 6.23864 4.52952 
17 1 3.0032 7.77083 3.00326 
18 1 3.7163 7.06565 3.70552 
25 1 0.675278 10.1006 0.68439 
26 1 2.18623 8.5847 2.1982 
27 1 1.47972 9.29334 1.49063 
4 1 4.60391 6.17579 6.16821 
5 1 3.08218 7.68303 7.68177 
6 1 3.79339 6.97857 6.97426 
37 1 0.773177 10.0457 10.0549 
38 1 2.27984 8.4995 8.50267 
39 1 1.58614 9.21171 9.21762 
13 1 6.25595 4.53811 4.53442 
14 1 7.77972 2.99326 2.99553 
15 1 7.07842 3.70428 3.70374 
28 1 10.1025 0.672483 0.658758 
29 1 8.58685 2.17823 2.17977 
30 1 9.29519 1.47456 1.46871 
1 1 6.18999 4.59133 6.1707 
2 1 7.69372 3.07603 7.69573 
3 1 6.99107 3.78413 6.98322 
40 1 10.0911 0.753819 10.0202 
41 1 8.52818 2.27886 8.50259 
42 1 9.24827 1.57644 9.20161 
7 1 6.18972 6.17633 4.5866 
8 1 7.69791 7.69838 3.0735 
9 1 6.993 6.98725 3.78066 
43 1 10.038 10.0407 0.70999 
44 1 8.50861 8.51124 2.25712 
45 1 9.21297 9.21575 1.5448 
22 1 6.2416 6.23427 6.22875 
23 1 7.77512 7.76179 7.77061 
24 1 7.06534 7.05968 7.0616 
34 1 10.1159 10.0923 10.0638 
35 1 8.71736 8.47971 8.5219 
36 1 9.46074 9.16992 9.20794 
49 2 8.37444 10.5032 10.1748 
50 3 7.45546 10.6953 10.1414 
ITEM: TIMESTEP
90
ITEM: NUMBER OF ATOMS
50
ITEM: BOX BOUNDS pp pp pp
0.0000000000000000e+00 1.1000000000000000e+01
0.0000000000000000e+00 1.1002000000000001e+01
0.0000000000000000e+00 1.1000000000000000e+01
ITEM: ATOMS id type x y z 
10 1 4.6178 4.60253 4.5947 
11 1 3.09262 3.09262 3.08985 
12 1 3.80589 3.79875 3.79361 
46 1 0.737399 0.736098 0.761409 
47 1 2.27623 2.27889 2.28423 
48 1 1.56734 1.56819 1.58276 
19 1 4.55437 4.53545 6.23297 
20 1 3.00612 3.0081 7.76397 
21 1 3.71888 3.71124 7.05915 
31 1 0.71583 0.677699 10.1178 
32 1 2.20048 2.19854 8.58342 
33 1 1.50638 1.48755 9.30074 
16 1 4.55237 6.23866 4.5295 
17 1 3.00328 7.7708 3.00323 
18 1 3.7162 7.06568 3.70564 
25 1 0.675246 10.1006 0.684436 
26 1 2.18612 8.58469 2.19822 
27 1 1.47981 9.29336 1.49055 
4 1 4.6039 6.17575 6.16815 
5 1 3.08218 7.68306 7.68177 
6 1 3.7934 6.97857 6.97432 
37 1 0.773072 10.0458 10.0549 
38 1 2.27995 8.49957 8.50276 
39 1 1.58591 9.21172 9.21765 
13 1 6.25598 4.53818 4.53435 
14 1 7.77975 2.99321 2.99548 
15 1 7.07849 3.70423 3.70369 
28 1 10.1026 0.67256 0.658728 
29 1 8.58686 2.17818 2.1796 
30 1 9.29519 1.47457 1.46887 
1 1 6.19004 4.59133 6.17079 
2 1 7.69374 3.07613 7.69571 
3 1 6.99114 3.7841 6.98319 
40 1 10.0911 0.753791 10.0202 
41 1 8.52835 2.27883 8.50261 
42 1 9.24818 1.57643 9.20159 
7 1 6.1897 6.17635 4.58666 
8 1 7.69787 7.69843 3.07352 
9 1 6.99307 6.98712 3.78065 
43 1 10.0379 10.0407 0.710009 
44 1 8.50869 8.51138 2.25708 
45 1 9.21295 9.21569 1.54462 
22 1 6.24141 6.23432 6.22874 
23 1 7.77532 7.76147 7.77049 
24 1 7.06543 7.05961 7.06143 
34 1 10.1156 10.0923 10.0639 
35 1 8.71763 8.47943 8.52159 
36 1 9.46071 9.17001 9.20791 
49 2 8.37424 10.5032 10.175 
50 3 7.45527 10.6955 10.1419 
ITEM: TIMESTEP
97
ITEM: NUMBER OF ATOMS
50
ITEM: BOX BOUNDS pp pp pp
0.0000000000000000e+00 1.1000000000000000e+01
0.0000000000000000e+00 1.1002000000000001e+01
0.0000000000000000e+00 1.1000000000000000e+01
ITEM: ATOMS id type x y z 
10 1 4.6178 4.60253 4.5947 
11 1 3.09262 3.09262 3.08985 
12 1 3.80589 3.79875 3.79361 
46 1 0.737397 0.736097 0.761412 
47 1 2.27622 2.27889 2.28423 
48 1 1.56735 1.5682 1.58275 
19 1 4.55437 4.53545 6.23297 
20 1 3.00612 3.0081 7.76397 
21 1 3.71888 3.71124 7.05915 
31 1 0.715826 0.677703 10.1178 
32 1 2.20047 2.19855 8.58342 
33 1 1.50639 1.48755 9.30074 
16 1 4.55237 6.23866 4.5295 
17 1 3.00328 7.77079 3.00323 
18 1 3.7162 7.06568 3.70564 
25 1 0.675245 10.1006 0.684436 
26 1 2.18612 8.58469 2.19822 
27 1 1.47981 9.29336 1.49055 
4 1 4.6039 6.17575 6.16815 
5 1 3.08218 7.68307 7.68177 
6 1 3.79341 6.97857 6.97433 
37 1 0.773068 10.0458 10.0549 
38 1 2.27995 8.49957 8.50276 
39 1 1.58591 9.21172 9.21765 
13 1 6.25598 4.53818 4.53435 
14 1 7.77975 2.99321 2.99548 
15 1 7.07849 3.70423 3.70369 
28 1 10.1026 0.67256 0.658729 
29 1 8.58686 2.17818 2.1796 
30 1 9.29519 1.47458 1.46887 
1 1 6.19004 4.59133 6.17079 
2 1 7.69374 3.07613 7.6957 
3 1 6.99115 3.7841 6.98319 
40 1 10.0911 0.753793 10.0202 
41 1 8.52835 2.27883 8.50261 
42 1 9.24818 1.57642 9.20159 
7 1 6.1897 6.17635 4.58666 
8 1 7.69787 7.69843 3.07352 
9 1 6.99307 6.98712 3.78065 
43 1 10.0379 10.0407 0.710009 
44 1 8.50869 8.51138 2.25708 
45 1 9.21295 9.21569 1.54462 
22 1 6.24141 6.23432 6.22874 
23 1 7.77533 7.76146 7.77049 
24 1 7.06543 7.0596 7.06143 
34 1 10.1156 10.0923 10.0639 
35 1 8.71764 8.47942 8.52158 
36 1 9.46071 9.17001 9.20791 
49 2 8.37424 10.5032 10.175 
50 3 7.45526 10.6955 10.1419 
ITEM: TIMESTEP
98
ITEM: NUMBER OF ATOMS
50
ITEM: BOX BOUNDS pp pp pp
0.0000000000000000e+00 1.1000000000000000e+01
0.0000000000000000e+00 1.1002000000000001e+01
0.0000000000000000e+00 1.1000000000000000e+01
ITEM: ATOMS id type x y z 
10 1 4.6178 4.60253 4.5947 
11 1 3.09262 3.09262 3.08985 
12 1 3.80589 3.79875 3.79361 
46 1 0.737397 0.736097 0.761412 
47 1 2.27622 2.27889 2.28423 
48 1 1.56735 1.5682 1.58275 
19 1 4.55437 4.53545 6.23297 
20 1 3.00612 3.0081 7.76397 
21 1 3.71888 3.71124 7.05915 
31 1 0.715825 0.677703 10.1178 
32 1 2.20047 2.19855 8.58342 
33 1 1.50639 1.48755 9.30074 
16 1 4.55237 6.23866 4.5295 
17 1 3.00328 7.77079 3.00323 
18 1 3.7162 7.06568 3.70564 
25 1 0.675246 10.1006 0.684436 
26 1 2.18612 8.58469 2.19822 
27 1 1.47981 9.29336 1.49055 
4 1 4.6039 6.17575 6.16815 
5 1 3.08218 7.68307 7.68177 
6 1 3.79341 6.97857 6.97433 
37 1 0.773068 10.0458 10.0549 
38 1 2.27995 8.49957 8.50276 
39 1 1.58591 9.21172 9.21765 
13 1 6.25598 4.53818 4.53435 
14 1 7.77975 2.99321 2.99548 
15 1 7.07849 3.70423 3.70369 
28 1 10.1026 0.672561 0.658729 
29 1 8.58686 2.17818 2.1796 
30 1 9.29519 1.47457 1.46887 
1 1 6.19005 4.59133 6.17079 
2 1 7.69374 3.07613 7.6957 
3 1 6.99115 3.7841 6.98319 
40 1 10.0911 0.753793 10.0202 
41 1 8.52835 2.27883 8.50261 
42 1 9.24818 1.57642 9.20159 
7 1 6.1897 6.17635 4.58666 
8 1 7.69787 7.69843 3.07352 
9 1 6.99307 6.98712 3.78065 
43 1 10.0379 10.0407 0.710009 
44 1 8.50869 8.51138 2.25708 
45 1 9.21295 9.21569 1.54462 
22 1 6.24141 6.23432 6.22874 
23 1 7.77533 7.76146 7.77049 
24 1 7.06543 7.0596 7.06143 
34 1 10.1156 10.0923 10.0639 
35 1 8.71764 8.47942 8.52158 
36 1 9.46071 9.17001 9.20791 
49 2 8.37424 10.5032 10.175 
50 3 7.45526 10.6955 10.1419 
ITEM: TIMESTEP
100
ITEM: NUMBER OF ATOMS
50
ITEM: BOX BOUNDS pp pp pp
-1.0993358579496270e-03 1.1001099335857949e+01
-1.0999446974971610e-03 1.1003099944697498e+01
-1.0847164214880865e-03 1.1001084716421488e+01
ITEM: ATOMS id type x y z 
10 1 4.61762 4.60235 4.59452 
11 1 3.09214 3.09214 3.08938 
12 1 3.80555 3.79841 3.79328 
46 1 0.736444 0.735144 0.760477 
47 1 2.27558 2.27824 2.2836 
48 1 1.56656 1.56741 1.58198 
19 1 4.55418 4.53526 6.23311 
20 1 3.00562 3.00761 7.76442 
21 1 3.71852 3.71088 7.05946 
31 1 0.714868 0.676738 10.1187 
32 1 2.19981 2.19789 8.58403 
33 1 1.5056 1.48674 9.30149 
16 1 4.55218 6.2388 4.52931 
17 1 3.00278 7.77125 3.00273 
18 1 3.71584 7.06599 3.70529 
25 1 0.674281 10.1015 0.683486 
26 1 2.18545 8.58531 2.19756 
27 1 1.479 9.29412 1.48976 
4 1 4.60372 6.17588 6.16828 
5 1 3.08169 7.6835 7.6822 
6 1 3.79306 6.97887 6.97462 
37 1 0.772121 10.0467 10.0558 
38 1 2.2793 8.50017 8.50335 
39 1 1.58513 9.21246 9.21839 
13 1 6.25613 4.53799 4.53416 
14 1 7.78021 2.99271 2.99498 
15 1 7.0788 3.70387 3.70334 
28 1 10.1035 0.671595 0.657774 
29 1 8.58748 2.17751 2.17894 
30 1 9.29595 1.47377 1.46807 
1 1 6.19018 4.59115 6.17092 
2 1 7.69418 3.07565 7.69614 
3 1 6.99144 3.78376 6.98349 
40 1 10.092 0.752843 10.021 
41 1 8.52896 2.27819 8.5032 
42 1 9.24892 1.57564 9.20232 
7 1 6.18984 6.17648 4.58648 
8 1 7.69831 7.69887 3.07304 
9 1 6.99337 6.98742 3.78031 
43 1 10.0389 10.0416 0.709064 
44 1 8.5093 8.51198 2.25644 
45 1 9.21369 9.21643 1.54384 
22 1 6.24155 6.23447 6.22888 
23 1 7.77578 7.76191 7.77094 
24 1 7.06575 7.05992 7.06174 
34 1 10.1165 10.0932 10.0648 
35 1 8.71828 8.48002 8.52218 
36 1 9.4615 9.17074 9.20864 
49 2 8.37481 10.5042 10.1759 
50 3 7.45565 10.6966 10.1429 
ITEM: TIMESTEP
110
ITEM: NUMBER OF ATOMS
50
ITEM: BOX BOUNDS pp pp pp
-5.0276301943528445e-03 1.1005027630194352e+01
-6.6009446974971634e-03 1.1008600944697497e+01
-4.3889201451676046e-03 1.1004388920145168e+01
ITEM: ATOMS id type x y z 
10 1 4.61794 4.60225 4.59492 
11 1 3.0907 3.08991 3.08826 
12 1 3.80405 3.79656 3.79184 
46 1 0.732407 0.729655 0.756778 
47 1 2.27283 2.27456 2.28119 
48 1 1.56329 1.56307 1.57931 
19 1 4.55421 4.53509 6.23283 
20 1 3.00436 3.00561 7.76533 
21 1 3.71763 3.7095 7.05991 
31 1 0.710587 0.671043 10.1224 
32 1 2.19735 2.1943 8.58628 
33 1 1.50282 1.48303 9.30329 
16 1 4.55223 6.23882 4.52951 
17 1 3.00144 7.77307 3.00173 
18 1 3.71504 7.06713 3.70457 
25 1 0.670008 10.107 0.679619 
26 1 2.18281 8.58857 2.19525 
27 1 1.47642 9.29776 1.48777 
4 1 4.604 6.17558 6.16785 
5 1 3.08025 7.6854 7.68337 
6 1 3.7915 6.98075 6.97565 
37 1 0.767876 10.0519 10.0592 
38 1 2.27652 8.50362 8.50567 
39 1 1.58199 9.21669 9.22104 
13 1 6.25596 4.53782 4.53431 
14 1 7.78141 2.99068 2.99395 
15 1 7.07946 3.70245 3.70264 
28 1 10.1078 0.666022 0.653954 
29 1 8.58994 2.17404 2.17662 
30 1 9.29834 1.46984 1.46604 
1 1 6.18979 4.59105 6.17034 
2 1 7.69557 3.07345 7.69712 
3 1 6.99277 3.78189 6.98479 
40 1 10.0959 0.747368 10.0245 
41 1 8.53162 2.27457 8.50543 
42 1 9.25203 1.5712 9.20497 
7 1 6.18941 6.17617 4.58676 
8 1 7.6996 7.70076 3.07175 
9 1 6.99479 6.98928 3.77914 
43 1 10.0428 10.0469 0.705567 
44 1 8.51193 8.51548 2.25403 
45 1 9.21671 9.22053 1.54099 
22 1 6.24122 6.23449 6.22857 
23 1 7.77713 7.76352 7.77175 
24 1 7.0665 7.06099 7.06218 
34 1 10.1205 10.0985 10.0684 
35 1 8.72103 8.48314 8.52412 
36 1 9.46394 9.17417 9.21054 
49 2 8.37676 10.5094 10.1788 
50 3 7.45694 10.7019 10.146 
ITEM: TIMESTEP
120
ITEM: NUMBER OF ATOMS
50
ITEM: BOX BOUNDS pp pp pp
-6.2804984358153203e-03 1.1006280498435812e+01
-1.1066970731984838e-02 1.1013066970731982e+01
-6.7317358705360000e-03 1.1006731735870538e+01
ITEM: ATOMS id type x y z 
10 1 4.61871 4.60253 4.59538 
11 1 3.09039 3.08829 3.0874 
12 1 3.80341 3.79471 3.79096 
46 1 0.730526 0.72492 0.753853 
47 1 2.27122 2.27112 2.27913 
48 1 1.56236 1.55976 1.5774 
19 1 4.55474 4.53518 6.23227 
20 1 3.00464 3.00438 7.76545 
21 1 3.71739 3.70825 7.06049 
31 1 0.708351 0.666178 10.1252 
32 1 2.1963 2.19135 8.58776 
33 1 1.50244 1.48006 9.30481 
16 1 4.55288 6.23858 4.52993 
17 1 3.00172 7.77409 3.00145 
18 1 3.71474 7.06827 3.70403 
25 1 0.66802 10.1118 0.676649 
26 1 2.18178 8.59137 2.19369 
27 1 1.47583 9.30039 1.4862 
4 1 4.60469 6.17521 6.16709 
5 1 3.07993 7.68703 7.68399 
6 1 3.79083 6.98214 6.97678 
37 1 0.765877 10.0565 10.062 
38 1 2.27506 8.50698 8.50786 
39 1 1.58074 9.21982 9.22282 
13 1 6.25527 4.5379 4.53469 
14 1 7.78109 2.98942 2.99368 
15 1 7.07976 3.70118 3.70201 
28 1 10.1099 0.661117 0.651046 
29 1 8.59081 2.17098 2.17498 
30 1 9.29901 1.4671 1.46451 
1 1 6.18898 4.59127 6.16976 
2 1 7.69587 3.07184 7.69789 
3 1 6.99349 3.78009 6.98553 
40 1 10.0976 0.742624 10.0273 
41 1 8.5332 2.27112 8.50747 
42 1 9.25308 1.56786 9.20678 
7 1 6.18866 6.17577 4.58739 
8 1 7.6999 7.70234 3.07106 
9 1 6.99538 6.99067 3.77793 
43 1 10.0447 10.0515 0.702763 
44 1 8.51341 8.51874 2.25174 
45 1 9.21778 9.22378 1.53916 
22 1 6.24041 6.23428 6.22803 
23 1 7.77713 7.76428 7.77176 
24 1 7.06678 7.06201 7.06261 
34 1 10.1221 10.1031 10.0712 
35 1 8.72222 8.48564 8.52544 
36 1 9.46441 9.17691 9.21176 
49 2 8.37742 10.5135 10.181 
50 3 7.45727 10.7062 10.1484 
ITEM: TIMESTEP
130
ITEM: NUMBER OF ATOMS
50
ITEM: BOX BOUNDS pp pp pp
-6.9785814030710359e-03 1.1006978581403066e+01
-1.4924288022189650e-02 1.1016924288022187e+01
-9.0377369306480614e-03 1.1009037736930649e+01
ITEM: ATOMS id type x y z 
10 1 4.61947 4.60268 4.59581 
11 1 3.09032 3.08681 3.08664 
12 1 3.80293 3.79327 3.78993 
46 1 0.729223 0.720734 0.750919 
47 1 2.27006 2.26812 2.27709 
48 1 1.56172 1.55686 1.57564 
19 1 4.55532 4.5354 6.23176 
20 1 3.0051 3.00341 7.76567 
21 1 3.71733 3.70714 7.06096 
31 1 0.706818 0.661906 10.1279 
32 1 2.19573 2.18878 8.58933 
33 1 1.50222 1.47753 9.30611 
16 1 4.55354 6.23829 4.53037 
17 1 3.00214 7.77495 3.00118 
18 1 3.71471 7.06919 3.70339 
25 1 0.666673 10.1159 0.673686 
26 1 2.18112 8.59374 2.19208 
27 1 1.4756 9.30276 1.48483 
4 1 4.60535 6.17481 6.16655 
5 1 3.07987 7.68836 7.68475 
6 1 3.79029 6.98351 6.97767 
37 1 0.76431 10.0605 10.0647 
38 1 2.27392 8.50994 8.51002 
39 1 1.57993 9.22268 9.22459 
13 1 6.25458 4.53811 4.53506 
14 1 7.78064 2.9884 2.99337 
15 1 7.07981 3.70007 3.70137 
28 1 10.1115 0.656973 0.648233 
29 1 8.59139 2.16843 2.17332 
30 1 9.29923 1.46455 1.46312 
1 1 6.18826 4.5914 6.16919 
2 1 7.69603 3.07043 7.69856 
3 1 6.99398 3.77862 6.98645 
40 1 10.0988 0.738422 10.0301 
41 1 8.53446 2.26809 8.50943 
42 1 9.2537 1.56491 9.20859 
7 1 6.1879 6.17532 4.58774 
8 1 7.69993 7.70363 3.07021 
9 1 6.99593 6.99203 3.77703 
43 1 10.0461 10.0555 0.700017 
44 1 8.51454 8.52162 2.24953 
45 1 9.21846 9.22662 1.53734 
22 1 6.23957 6.23403 6.22752 
23 1 7.77705 7.7648 7.7718 
24 1 7.06689 7.06284 7.06302 
34 1 10.123 10.1069 10.0739 
35 1 8.72305 8.48778 8.52671 
36 1 9.46446 9.17929 9.21298 
49 2 8.37785 10.5172 10.1831 
50 3 7.45741 10.71 10.1508 
ITEM: TIMESTEP
140
ITEM: NUMBER OF ATOMS
50
ITEM: BOX BOUNDS pp pp pp
-7.9815974831030732e-03 1.1007981597483100e+01
-1.8519650960348136e-02 1.1020519650960345e+01
-1.1557735046665957e-02 1.1011557735046665e+01
ITEM: ATOMS id type x y z 
10 1 4.62004 4.6028 4.59606 
11 1 3.09009 3.08546 3.08572 
12 1 3.8024 3.79185 3.78891 
46 1 0.727693 0.716804 0.747837 
47 1 2.26874 2.26533 2.275 
48 1 1.56093 1.55414 1.5737 
19 1 4.55583 4.53562 6.23129 
20 1 3.00541 3.00244 7.76604 
21 1 3.7171 3.7062 7.06152 
31 1 0.705142 0.657959 10.1306 
32 1 2.19501 2.18639 8.591 
33 1 1.50179 1.47515 9.30756 
16 1 4.55414 6.23798 4.53068 
17 1 3.00241 7.77574 3.0007 
18 1 3.71449 7.07008 3.7028 
25 1 0.66517 10.1196 0.670659 
26 1 2.18028 8.59593 2.19039 
27 1 1.47518 9.30496 1.48322 
4 1 4.6058 6.17452 6.16613 
5 1 3.07965 7.68968 7.68559 
6 1 3.78964 6.98472 6.9787 
37 1 0.762415 10.0643 10.0675 
38 1 2.27257 8.51271 8.51225 
39 1 1.57901 9.22542 9.22658 
13 1 6.25398 4.53833 4.53536 
14 1 7.78037 2.98743 2.9929 
15 1 7.07998 3.69905 3.70068 
28 1 10.1132 0.653158 0.645367 
29 1 8.5921 2.16604 2.17155 
30 1 9.29971 1.46223 1.46154 
1 1 6.18769 4.59144 6.16877 
2 1 7.69634 3.06911 7.69934 
3 1 6.99457 3.77727 6.98739 
40 1 10.1003 0.734468 10.033 
41 1 8.53582 2.26529 8.5115 
42 1 9.25457 1.5621 9.21045 
7 1 6.18741 6.17498 4.58804 
8 1 7.70021 7.70487 3.06937 
9 1 6.99637 6.99323 3.77581 
43 1 10.0478 10.0594 0.697108 
44 1 8.51579 8.52432 2.24725 
45 1 9.21935 9.22929 1.53535 
22 1 6.23882 6.23376 6.22708 
23 1 7.77725 7.7652 7.77192 
24 1 7.06709 7.06358 7.06349 
34 1 10.1239 10.1104 10.0766 
35 1 8.72405 8.48976 8.52805 
36 1 9.46471 9.18155 9.21436 
49 2 8.37848 10.5206 10.1854 
50 3 7.45767 10.7136 10.1535 
ITEM: TIMESTEP
150
ITEM: NUMBER OF ATOMS
50
ITEM: BOX BOUNDS pp pp pp
-1.0051365740889976e-02 1.1010051365740891e+01
-2.2902846113262095e-02 1.1024902846113257e+01
-1.4895270485513326e-02 1.1014895270485512e+01
ITEM: ATOMS id type x y z 
10 1 4.62039 4.60296 4.59619 
11 1 3.08934 3.08393 3.08441 
12 1 3.80162 3.78983 3.78769 
46 1 0.725124 0.711935 0.743821 
47 1 2.26659 2.26189 2.27238 
48 1 1.55945 1.55091 1.57107 
19 1 4.55625 4.53612 6.23073 
20 1 3.00536 3.00142 7.76667 
21 1 3.71676 3.70487 7.06207 
31 1 0.702514 0.653249 10.1341 
32 1 2.19383 2.18356 8.59337 
33 1 1.50041 1.47215 9.30915 
16 1 4.55476 6.23749 4.53104 
17 1 3.0024 7.77665 2.99999 
18 1 3.71394 7.0712 3.70205 
25 1 0.662793 10.1241 0.666754 
26 1 2.17882 8.59861 2.18817 
27 1 1.47395 9.30753 1.48113 
4 1 4.60613 6.17436 6.16571 
5 1 3.07909 7.69151 7.68673 
6 1 3.78834 6.98592 6.98019 
37 1 0.759273 10.0692 10.0712 
38 1 2.27048 8.51627 8.51521 
39 1 1.57703 9.22867 9.22924 
13 1 6.25337 4.53877 4.53566 