ITEM: TIMESTEP
0
ITEM: NUMBER OF ATOMS
49
ITEM: BOX BOUNDS pp pp pp
0.0000000000000000e+00 1.1000000000000000e+01
0.0000000000000000e+00 1.1002000000000001e+01
0.0000000000000000e+00 1.1000000000000000e+01
ITEM: ATOMS id type x y z 
10 1 4.603 4.603 4.603 
11 1 3.085 3.085 3.085 
12 1 3.796 3.796 3.796 
46 1 0.726 0.725 0.725 
47 1 2.26 2.259 2.26 
48 1 1.551 1.55 1.55 
19 1 4.546 4.545 6.226 
20 1 3.013 3.013 7.764 
21 1 3.721 3.721 7.053 
31 1 0.668 0.667 10.103 
32 1 2.187 2.187 8.589 
33 1 1.476 1.475 9.298 
16 1 4.546 6.225 4.546 
17 1 3.013 7.765 3.013 
18 1 3.721 7.053 3.722 
25 1 0.668 10.103 0.668 
26 1 2.188 8.589 2.188 
27 1 1.476 9.298 1.476 
4 1 4.608 6.169 6.169 
5 1 3.086 7.684 7.684 
6 1 3.799 6.974 6.974 
37 1 0.729 10.046 10.046 
38 1 2.259 8.509 8.508 
39 1 1.552 9.219 9.219 
49 2 0.716 8.745 10.404 
13 1 6.225 4.546 4.546 
14 1 7.764 3.013 3.013 
15 1 7.053 3.721 3.722 
28 1 10.102 0.667 0.668 
29 1 8.589 2.187 2.188 
30 1 9.298 1.475 1.476 
1 1 6.168 4.608 6.169 
2 1 7.684 3.086 7.684 
3 1 6.974 3.799 6.974 
40 1 10.045 0.728 10.046 
41 1 8.508 2.259 8.508 
42 1 9.218 1.551 9.218 
7 1 6.169 6.169 4.608 
8 1 7.684 7.684 3.086 
9 1 6.974 6.974 3.799 
43 1 10.046 10.047 0.729 
44 1 8.508 8.509 2.259 
45 1 9.219 9.219 1.552 
22 1 6.229 6.229 6.229 
23 1 7.764 7.765 7.765 
24 1 7.055 7.056 7.055 
34 1 10.108 10.108 10.107 
35 1 8.59 8.59 8.59 
36 1 9.301 9.301 9.3 
ITEM: TIMESTEP
10
ITEM: NUMBER OF ATOMS
49
ITEM: BOX BOUNDS pp pp pp
0.0000000000000000e+00 1.1000000000000000e+01
0.0000000000000000e+00 1.1002000000000001e+01
0.0000000000000000e+00 1.1000000000000000e+01
ITEM: ATOMS id type x y z 
10 1 4.60444 4.60751 4.60503 
11 1 3.08944 3.08943 3.08911 
12 1 3.79989 3.80012 3.80069 
46 1 0.73656 0.715347 0.740997 
47 1 2.26499 2.26671 2.26477 
48 1 1.56213 1.55558 1.56195 
19 1 4.54566 4.54429 6.22729 
20 1 3.01306 3.01284 7.76433 
21 1 3.7225 3.72196 7.05086 
31 1 0.670055 0.703432 10.0851 
32 1 2.19806 2.19338 8.58093 
33 1 1.47729 1.48668 9.28951 
16 1 4.54574 6.22602 4.54544 
17 1 3.01171 7.7656 3.0118 
18 1 3.72001 7.05344 3.72016 
25 1 0.657664 10.1525 0.748491 
26 1 2.1856 8.59086 2.18165 
27 1 1.47153 9.31511 1.49223 
4 1 4.60236 6.17424 6.17316 
5 1 3.07958 7.69206 7.69015 
6 1 3.79699 6.97532 6.97364 
37 1 0.717086 10.0736 10.0749 
38 1 2.30313 8.49187 8.46076 
39 1 1.58324 9.13547 9.19468 
49 2 0.727657 8.66553 10.3385 
13 1 6.2264 4.5455 4.5458 
14 1 7.76537 3.01208 3.01233 
15 1 7.05268 3.72068 3.72101 
28 1 10.084 0.674029 0.672155 
29 1 8.58855 2.19014 2.19063 
30 1 9.29322 1.47313 1.47551 
1 1 6.1657 4.60911 6.16746 
2 1 7.68293 3.08629 7.68273 
3 1 6.97356 3.80101 6.97405 
40 1 10.0387 0.730031 10.0457 
41 1 8.50793 2.2607 8.50728 
42 1 9.21528 1.5505 9.21685 
7 1 6.16456 6.16797 4.61051 
8 1 7.6821 7.68279 3.08797 
9 1 6.97249 6.97168 3.79956 
43 1 10.0594 10.0411 0.732888 
44 1 8.50447 8.50756 2.26099 
45 1 9.21832 9.21344 1.55713 
22 1 6.22997 6.23003 6.22936 
23 1 7.76394 7.76502 7.76441 
24 1 7.05426 7.05397 7.05429 
34 1 10.0607 10.1179 10.1043 
35 1 8.58673 8.58247 8.58319 
36 1 9.29031 9.29996 9.2978 
ITEM: TIMESTEP
20
ITEM: NUMBER OF ATOMS
49
ITEM: BOX BOUNDS pp pp pp
0.0000000000000000e+00 1.1000000000000000e+01
0.0000000000000000e+00 1.1002000000000001e+01
0.0000000000000000e+00 1.1000000000000000e+01
ITEM: ATOMS id type x y z 
10 1 4.60616 4.61096 4.60467 
11 1 3.09113 3.09211 3.09102 
12 1 3.80221 3.80294 3.80242 
46 1 0.736383 0.722054 0.749294 
47 1 2.27045 2.2703 2.26824 
48 1 1.56043 1.55472 1.5658 
19 1 4.54521 4.54 6.22957 
20 1 3.01651 3.01522 7.76092 
21 1 3.72706 3.72423 7.04767 
31 1 0.666736 0.71564 10.0837 
32 1 2.20597 2.19893 8.57193 
33 1 1.48129 1.49971 9.28424 
16 1 4.54389 6.22963 4.53998 
17 1 3.01221 7.7642 3.01002 
18 1 3.72148 7.05187 3.7195 
25 1 0.653598 10.1593 0.775149 
26 1 2.19299 8.58436 2.18682 
27 1 1.47292 9.32255 1.51688 
4 1 4.60142 6.17493 6.17245 
5 1 3.09678 7.68181 7.67316 
6 1 3.80904 6.96589 6.96026 
37 1 0.705422 10.0692 10.1061 
38 1 2.33416 8.48355 8.42605 
39 1 1.58665 9.10137 9.19086 
49 2 0.722726 8.66284 10.3216 
13 1 6.22936 4.54352 4.54487 
14 1 7.76514 3.01196 3.01287 
15 1 7.05307 3.72202 3.72148 
28 1 10.0784 0.677978 0.673346 
29 1 8.58578 2.19233 2.19245 
30 1 9.28991 1.47433 1.47701 
1 1 6.16783 4.60831 6.16736 
2 1 7.68153 3.08742 7.68116 
3 1 6.97239 3.80316 6.97272 
40 1 10.0323 0.734757 10.0499 
41 1 8.50546 2.26189 8.50319 
42 1 9.21227 1.55501 9.21927 
7 1 6.16386 6.16779 4.60965 
8 1 7.68082 7.68125 3.08895 
9 1 6.96952 6.97157 3.80094 
43 1 10.0513 10.0417 0.742655 
44 1 8.50324 8.5043 2.2627 
45 1 9.21894 9.21476 1.56007 
22 1 6.23438 6.23036 6.23013 
23 1 7.76241 7.76207 7.76165 
24 1 7.05296 7.05039 7.05118 
34 1 10.0374 10.1269 10.1084 
35 1 8.5826 8.57407 8.57612 
36 1 9.27437 9.29981 9.29378 
ITEM: TIMESTEP
30
ITEM: NUMBER OF ATOMS
49
ITEM: BOX BOUNDS pp pp pp
0.0000000000000000e+00 1.1000000000000000e+01
0.0000000000000000e+00 1.1002000000000001e+01
0.0000000000000000e+00 1.1000000000000000e+01
ITEM: ATOMS id type x y z 
10 1 4.60673 4.61054 4.603 
11 1 3.09162 3.09233 3.09188 
12 1 3.8033 3.80511 3.8016 
46 1 0.734025 0.724485 0.754113 
47 1 2.27152 2.271 2.2694 
48 1 1.55997 1.55455 1.56773 
19 1 4.54667 4.53767 6.22829 
20 1 3.0177 3.01538 7.75956 
21 1 3.72895 3.72452 7.04693 
31 1 0.66643 0.720604 10.0835 
32 1 2.2078 2.20076 8.56959 
33 1 1.48138 1.50335 9.283 
16 1 4.54445 6.22921 4.53678 
17 1 3.01215 7.76323 3.00853 
18 1 3.72264 7.05161 3.71766 
25 1 0.651541 10.1644 0.786498 
26 1 2.19487 8.58482 2.18887 
27 1 1.47003 9.32741 1.52783 
4 1 4.60339 6.17218 6.16903 
5 1 3.10876 7.6751 7.66005 
6 1 3.82109 6.95745 6.94931 
37 1 0.703987 10.0649 10.1169 
38 1 2.33775 8.48987 8.42075 
39 1 1.58232 9.0905 9.19419 
49 2 0.719597 8.65818 10.3138 
13 1 6.23047 4.54307 4.54368 
14 1 7.76529 3.01201 3.01225 
15 1 7.05379 3.72174 3.72246 
28 1 10.0764 0.678914 0.674861 
29 1 8.58377 2.19226 2.19399 
30 1 9.28901 1.47719 1.47657 
1 1 6.17015 4.60817 6.16728 
2 1 7.68196 3.088 7.68185 
3 1 6.9725 3.80158 6.97117 
40 1 10.0284 0.736479 10.0531 
41 1 8.50452 2.26257 8.5029 
42 1 9.21072 1.55643 9.21939 
7 1 6.16458 6.16806 4.60741 
8 1 7.68023 7.681 3.08837 
9 1 6.96951 6.9716 3.80184 
43 1 10.0475 10.0443 0.747161 
44 1 8.50284 8.50246 2.26405 
45 1 9.21747 9.21538 1.56258 
22 1 6.23715 6.22915 6.22903 
23 1 7.76239 7.76048 7.7608 
24 1 7.05357 7.04911 7.04944 
34 1 10.0267 10.1313 10.1109 
35 1 8.58224 8.57306 8.57488 
36 1 9.26817 9.30246 9.29518 
ITEM: TIMESTEP
40
ITEM: NUMBER OF ATOMS
49
ITEM: BOX BOUNDS pp pp pp
0.0000000000000000e+00 1.1000000000000000e+01
0.0000000000000000e+00 1.1002000000000001e+01
0.0000000000000000e+00 1.1000000000000000e+01
ITEM: ATOMS id type x y z 
10 1 4.60888 4.60867 4.59588 
11 1 3.09183 3.09218 3.09106 
12 1 3.80461 3.80661 3.79892 
46 1 0.726546 0.730565 0.76689 
47 1 2.27347 2.27161 2.27177 
48 1 1.55682 1.55557 1.57428 
19 1 4.55173 4.52697 6.2243 
20 1 3.02036 3.01636 7.75731 
21 1 3.73345 3.72237 7.04365 
31 1 0.667071 0.720939 10.0824 
32 1 2.20869 2.20594 8.56614 
33 1 1.48359 1.50742 9.2795 
16 1 4.54724 6.22698 4.5233 
17 1 3.01228 7.76268 3.00425 
18 1 3.72519 7.04981 3.71003 
25 1 0.644449 10.1771 0.807868 
26 1 2.19332 8.59125 2.19872 
27 1 1.4653 9.33785 1.545 
4 1 4.61804 6.15669 6.15248 
5 1 3.12495 7.67908 7.64182 
6 1 3.83523 6.95214 6.93529 
37 1 0.699744 10.0488 10.1423 
38 1 2.34643 8.4995 8.40893 
39 1 1.57946 9.07112 9.19035 
49 2 0.702489 8.64712 10.3046 
13 1 6.2347 4.53998 4.54067 
14 1 7.76612 3.01083 3.01185 
15 1 7.05511 3.72204 3.72217 
28 1 10.0718 0.684351 0.678553 
29 1 8.57978 2.19452 2.19659 
30 1 9.28488 1.48077 1.47756 
1 1 6.1774 4.60451 6.16588 
2 1 7.68327 3.08656 7.68309 
3 1 6.97593 3.79976 6.96916 
40 1 10.0193 0.738764 10.06 
41 1 8.50414 2.26369 8.50315 
42 1 9.20627 1.55743 9.2247 
7 1 6.16849 6.16909 4.60263 
8 1 7.68096 7.68171 3.08782 
9 1 6.96875 6.96995 3.79867 
43 1 10.0356 10.0519 0.759041 
44 1 8.50231 8.49891 2.26779 
45 1 9.21318 9.21905 1.56855 
22 1 6.2495 6.2251 6.22505 
23 1 7.76476 7.75879 7.76062 
24 1 7.05943 7.0467 7.04651 
34 1 10.0107 10.1421 10.1184 
35 1 8.58115 8.57353 8.57452 
36 1 9.25329 9.31055 9.30002 
ITEM: TIMESTEP
50
ITEM: NUMBER OF ATOMS
49
ITEM: BOX BOUNDS pp pp pp
0.0000000000000000e+00 1.1000000000000000e+01
0.0000000000000000e+00 1.1002000000000001e+01
0.0000000000000000e+00 1.1000000000000000e+01
ITEM: ATOMS id type x y z 
10 1 4.60972 4.60785 4.58869 
11 1 3.09175 3.09319 3.08841 
12 1 3.80764 3.80364 3.79579 
46 1 0.720902 0.737087 0.775187 
47 1 2.27468 2.2679 2.27618 
48 1 1.54868 1.5632 1.57785 
19 1 4.56047 4.52364 6.21699 
20 1 3.02024 3.01896 7.75789 
21 1 3.73807 3.71235 7.03937 
31 1 0.670534 0.70076 10.0821 
32 1 2.20373 2.20902 8.56772 
33 1 1.48326 1.50036 9.27982 
16 1 4.55372 6.22113 4.51153 
17 1 3.01238 7.76373 3.0004 
18 1 3.72751 7.04719 3.70172 
25 1 0.636987 10.1865 0.816005 
26 1 2.18762 8.60538 2.21083 
27 1 1.45704 9.34617 1.55386 
4 1 4.62922 6.14514 6.14665 
5 1 3.13934 7.69033 7.62794 
6 1 3.84511 6.96002 6.91934 
37 1 0.697111 10.0388 10.16 
38 1 2.35106 8.50555 8.40243 
39 1 1.57874 9.05753 9.18091 
49 2 0.680918 8.63533 10.2982 
13 1 6.24063 4.53617 4.53468 
14 1 7.76647 3.01157 3.01059 
15 1 7.05551 3.72016 3.72504 
28 1 10.0666 0.693439 0.682665 
29 1 8.57541 2.19729 2.19652 
30 1 9.28315 1.48275 1.48118 
1 1 6.18526 4.60303 6.16532 
2 1 7.68606 3.08477 7.68368 
3 1 6.98072 3.79725 6.96786 
40 1 10.0167 0.739662 10.0628 
41 1 8.50316 2.26445 8.50875 
42 1 9.20464 1.55388 9.22829 
7 1 6.16929 6.17028 4.59654 
8 1 7.67849 7.67992 3.08251 
9 1 6.97623 6.96963 3.80486 
43 1 10.0207 10.0597 0.769078 
44 1 8.49976 8.49898 2.27066 
45 1 9.21081 9.22239 1.57588 
22 1 6.25817 6.21899 6.21723 
23 1 7.76928 7.75873 7.75943 
24 1 7.06935 7.04225 7.04605 
34 1 10.0038 10.1492 10.1297 
35 1 8.57572 8.57989 8.5816 
36 1 9.24564 9.32085 9.30335 
ITEM: TIMESTEP
59
ITEM: NUMBER OF ATOMS
49
ITEM: BOX BOUNDS pp pp pp
0.0000000000000000e+00 1.1000000000000000e+01
0.0000000000000000e+00 1.1002000000000001e+01
0.0000000000000000e+00 1.1000000000000000e+01
ITEM: ATOMS id type x y z 
10 1 4.60972 4.60785 4.58869 
11 1 3.09175 3.09319 3.08841 
12 1 3.80764 3.80364 3.79579 
46 1 0.7209 0.737088 0.775186 
47 1 2.27468 2.2679 2.27618 
48 1 1.54868 1.56319 1.57785 
19 1 4.56047 4.52364 6.21699 
20 1 3.02024 3.01895 7.75789 
21 1 3.73807 3.71235 7.03937 
31 1 0.670536 0.700758 10.0821 
32 1 2.20373 2.20902 8.56773 
33 1 1.48326 1.50036 9.27982 
16 1 4.55371 6.22113 4.51153 
17 1 3.01238 7.76372 3.0004 
18 1 3.72751 7.04719 3.70172 
25 1 0.636985 10.1865 0.816003 
26 1 2.18762 8.60538 2.21083 
27 1 1.45704 9.34618 1.55386 
4 1 4.62922 6.14514 6.14665 
5 1 3.13934 7.69033 7.62794 
6 1 3.8451 6.96002 6.91935 
37 1 0.697111 10.0388 10.16 
38 1 2.35107 8.50554 8.40242 
39 1 1.57873 9.05754 9.18092 
49 2 0.680918 8.63534 10.2982 
13 1 6.24063 4.53617 4.53468 
14 1 7.76647 3.01157 3.01059 
15 1 7.05551 3.72016 3.72504 
28 1 10.0666 0.693437 0.682667 
29 1 8.57541 2.19729 2.19652 
30 1 9.28315 1.48275 1.48118 
1 1 6.18526 4.60303 6.16532 
2 1 7.68606 3.08477 7.68368 
3 1 6.98072 3.79725 6.96786 
40 1 10.0167 0.739664 10.0628 
41 1 8.50316 2.26445 8.50875 
42 1 9.20464 1.55388 9.22829 
7 1 6.1693 6.17028 4.59654 
8 1 7.67849 7.67992 3.08251 
9 1 6.97622 6.96963 3.80486 
43 1 10.0207 10.0597 0.769078 
44 1 8.49976 8.49897 2.27066 
45 1 9.21081 9.22239 1.57588 
22 1 6.25817 6.21899 6.21723 
23 1 7.76928 7.75873 7.75943 
24 1 7.06935 7.04225 7.04605 
34 1 10.0038 10.1492 10.1297 
35 1 8.57572 8.57989 8.5816 
36 1 9.24564 9.32085 9.30335 
ITEM: TIMESTEP
60
ITEM: NUMBER OF ATOMS
49
ITEM: BOX BOUNDS pp pp pp
0.0000000000000000e+00 1.1000000000000000e+01
0.0000000000000000e+00 1.1002000000000001e+01
0.0000000000000000e+00 1.1000000000000000e+01
ITEM: ATOMS id type x y z 
10 1 4.60972 4.60785 4.58869 
11 1 3.09175 3.09319 3.08841 
12 1 3.80764 3.80364 3.79579 
46 1 0.7209 0.737088 0.775186 
47 1 2.27468 2.2679 2.27618 
48 1 1.54868 1.56319 1.57785 
19 1 4.56047 4.52364 6.21699 
20 1 3.02024 3.01895 7.75789 
21 1 3.73807 3.71235 7.03937 
31 1 0.670536 0.700758 10.0821 
32 1 2.20373 2.20902 8.56773 
33 1 1.48326 1.50036 9.27982 
16 1 4.55371 6.22113 4.51153 
17 1 3.01238 7.76372 3.0004 
18 1 3.72751 7.04719 3.70172 
25 1 0.636985 10.1865 0.816003 
26 1 2.18762 8.60538 2.21083 
27 1 1.45704 9.34618 1.55386 
4 1 4.62922 6.14514 6.14665 
5 1 3.13934 7.69033 7.62794 
6 1 3.8451 6.96002 6.91935 
37 1 0.697111 10.0388 10.16 
38 1 2.35107 8.50554 8.40242 
39 1 1.57873 9.05754 9.18092 
49 2 0.680918 8.63534 10.2982 
13 1 6.24063 4.53617 4.53468 
14 1 7.76647 3.01157 3.01059 
15 1 7.05551 3.72016 3.72504 
28 1 10.0666 0.693437 0.682667 
29 1 8.57541 2.19729 2.19652 
30 1 9.28315 1.48275 1.48118 
1 1 6.18526 4.60303 6.16532 
2 1 7.68606 3.08477 7.68368 
3 1 6.98072 3.79725 6.96786 
40 1 10.0167 0.739664 10.0628 
41 1 8.50316 2.26445 8.50875 
42 1 9.20464 1.55388 9.22829 
7 1 6.1693 6.17028 4.59654 
8 1 7.67849 7.67992 3.08251 
9 1 6.97622 6.96963 3.80486 
43 1 10.0207 10.0597 0.769078 
44 1 8.49976 8.49897 2.27066 
45 1 9.21081 9.22239 1.57588 
22 1 6.25817 6.21899 6.21723 
23 1 7.76928 7.75873 7.75943 
24 1 7.06935 7.04225 7.04605 
34 1 10.0038 10.1492 10.1297 
35 1 8.57572 8.57989 8.5816 
36 1 9.24564 9.32085 9.30335 
ITEM: TIMESTEP
70
ITEM: NUMBER OF ATOMS
49
ITEM: BOX BOUNDS pp pp pp
-3.9677994256178068e-03 1.1003967799425618e+01
1.0191928534853726e-03 1.1000980807146517e+01
-5.2441084671138007e-03 1.1005244108467117e+01
ITEM: ATOMS id type x y z 
10 1 4.60924 4.60812 4.58806 
11 1 3.09001 3.09356 3.08609 
12 1 3.80641 3.80405 3.79416 
46 1 0.71731 0.737875 0.770491 
47 1 2.27236 2.26858 2.27315 
48 1 1.54571 1.56372 1.574 
19 1 4.55995 4.52391 6.21753 
20 1 3.01847 3.01937 7.76003 
21 1 3.737 3.71296 7.04064 
31 1 0.66701 0.701532 10.0866 
32 1 2.20113 2.20944 8.5709 
33 1 1.48036 1.50105 9.28337 
16 1 4.55312 6.22086 4.51066 
17 1 3.01072 7.76316 2.99816 
18 1 3.72623 7.04695 3.69996 
25 1 0.633245 10.1858 0.811432 
26 1 2.1852 8.60478 2.20769 
27 1 1.45416 9.34556 1.5502 
4 1 4.62874 6.14482 6.14709 
5 1 3.1378 7.68987 7.62974 
6 1 3.84383 6.95979 6.92087 
37 1 0.693582 10.0378 10.1645 
38 1 2.34907 8.50482 8.40491 
39 1 1.57547 9.05702 9.18488 
49 2 0.677524 8.63511 10.3026 
13 1 6.24103 4.53644 4.53393 
14 1 7.76809 3.01202 3.00824 
15 1 7.05654 3.72062 3.7234 
28 1 10.0701 0.694115 0.678044 
29 1 8.57761 2.19792 2.19343 
30 1 9.28584 1.48354 1.47728 
1 1 6.18554 4.60331 6.16579 
2 1 7.68765 3.08518 7.68575 
3 1 6.9818 3.7976 6.96931 
40 1 10.0201 0.740486 10.0672 
41 1 8.50539 2.26495 8.51169 
42 1 9.20723 1.55473 9.23179 
7 1 6.16968 6.17001 4.59585 
8 1 7.68009 7.67949 3.08027 
9 1 6.97725 6.96939 3.80314 
43 1 10.0241 10.059 0.764499 
44 1 8.50188 8.49836 2.26765 
45 1 9.21367 9.22194 1.57191 
22 1 6.25865 6.21871 6.21783 
23 1 7.77091 7.75825 7.76157 
24 1 7.07037 7.04189 7.04738 
34 1 10.0071 10.1484 10.1343 
35 1 8.57793 8.57937 8.58452 
36 1 9.24832 9.32011 9.30705 
ITEM: TIMESTEP
80
ITEM: NUMBER OF ATOMS
49
ITEM: BOX BOUNDS pp pp pp
-5.6569150517927977e-03 1.1005656915051793e+01
3.7492732047043511e-03 1.0998250726795296e+01
-9.8073437623516588e-03 1.1009807343762358e+01
ITEM: ATOMS id type x y z 
10 1 4.60935 4.60888 4.58778 
11 1 3.08935 3.09466 3.08414 
12 1 3.8058 3.80503 3.79265 
46 1 0.715527 0.740046 0.766051 
47 1 2.27127 2.27026 2.27044 
48 1 1.54439 1.56538 1.57065 
19 1 4.56001 4.52458 6.21779 
20 1 3.01787 3.02062 7.76172 
21 1 3.73674 3.71432 7.04165 
31 1 0.665308 0.703825 10.0908 
32 1 2.19965 2.21064 8.57398 
33 1 1.479 1.50286 9.28647 
16 1 4.55309 6.22017 4.51002 
17 1 3.01026 7.76171 2.99639 
18 1 3.72574 7.04623 3.69844 
25 1 0.631224 10.1838 0.807496 
26 1 2.18406 8.60321 2.20493 
27 1 1.45303 9.34387 1.54719 
4 1 4.62881 6.14412 6.14717 
5 1 3.13739 7.68874 7.63104 
6 1 3.84326 6.95903 6.92234 
37 1 0.692045 10.0359 10.1684 
38 1 2.34813 8.50339 8.4073 
39 1 1.57381 9.05503 9.18841 
49 2 0.676323 8.6337 10.306 
13 1 6.24093 4.53715 4.53352 
14 1 7.76867 3.01331 3.00634 
15 1 7.05689 3.72173 3.72196 
28 1 10.072 0.696039 0.673861 
29 1 8.57859 2.19952 2.19078 
30 1 9.28685 1.48572 1.47386 
1 1 6.18533 4.60403 6.16596 
2 1 7.68831 3.08637 7.68745 
3 1 6.98233 3.79847 6.97071 
40 1 10.0221 0.742594 10.0711 
41 1 8.50647 2.26632 8.51436 
42 1 9.20826 1.55689 9.23485 
7 1 6.16961 6.16935 4.59551 
8 1 7.68079 7.67831 3.07844 
9 1 6.97763 6.96879 3.80146 
43 1 10.0258 10.0571 0.76037 
44 1 8.50283 8.49689 2.26501 
45 1 9.21503 9.22048 1.56828 
22 1 6.25871 6.21801 6.21822 
23 1 7.77151 7.75691 7.76333 
24 1 7.07067 7.04101 7.0484 
34 1 10.0085 10.1464 10.1385 
35 1 8.57888 8.57801 8.58708 
36 1 9.24941 9.31814 9.31037 
ITEM: TIMESTEP
90
ITEM: NUMBER OF ATOMS
49
ITEM: BOX BOUNDS pp pp pp
-6.9560704502096872e-03 1.1006956070450210e+01
5.9885016872708056e-03 1.0996011498312731e+01
-1.4552993146551079e-02 1.1014552993146561e+01
ITEM: ATOMS id type x y z 
10 1 4.60958 4.60963 4.58748 
11 1 3.08897 3.09559 3.08218 
12 1 3.80522 3.80584 3.791 
46 1 0.714041 0.741829 0.761335 
47 1 2.27026 2.27157 2.26752 
48 1 1.54351 1.56678 1.56731 
19 1 4.56018 4.52515 6.21804 
20 1 3.01762 3.02178 7.76332 
21 1 3.73643 3.71541 7.04288 
31 1 0.663836 0.705658 10.0951 
32 1 2.19835 2.21142 8.57715 
33 1 1.47785 1.50439 9.28987 
16 1 4.55319 6.21946 4.5094 
17 1 3.01003 7.7604 2.9946 
18 1 3.72543 7.04563 3.69689 
25 1 0.629491 10.1822 0.80346 
26 1 2.1831 8.60194 2.20203 
27 1 1.45224 9.34257 1.54414 
4 1 4.629 6.14348 6.14714 
5 1 3.13715 7.6879 7.63236 
6 1 3.84292 6.95828 6.92383 
37 1 0.690869 10.0345 10.1724 
38 1 2.34718 8.50241 8.41001 
39 1 1.57254 9.05307 9.19197 
49 2 0.675556 8.63243 10.3095 
13 1 6.24073 4.53781 4.53314 
14 1 7.76897 3.01448 3.00449 
15 1 7.0572 3.72264 3.72037 
28 1 10.0735 0.697514 0.669426 
29 1 8.5794 2.20076 2.18798 
30 1 9.2875 1.48765 1.47031 
1 1 6.18506 4.60471 6.16608 
2 1 7.68877 3.08738 7.68916 
3 1 6.9828 3.79917 6.97224 
40 1 10.0239 0.744175 10.0752 
41 1 8.50736 2.26735 8.51717 
42 1 9.20908 1.55869 9.23808 
7 1 6.16941 6.16869 4.59521 
8 1 7.68134 7.67728 3.0766 
9 1 6.9779 6.96836 3.79964 
43 1 10.0272 10.0556 0.756059 
44 1 8.50373 8.49584 2.26211 
45 1 9.21595 9.21921 1.56466 
22 1 6.2587 6.21733 6.21859 
23 1 7.77185 7.75563 7.76506 
24 1 7.07091 7.04035 7.0495 
34 1 10.0094 10.145 10.1429 
35 1 8.57965 8.57702 8.58979 
36 1 9.25018 9.31645 9.31382 
ITEM: TIMESTEP
100
ITEM: NUMBER OF ATOMS
49
ITEM: BOX BOUNDS pp pp pp
-8.2528110887630027e-03 1.1008252811088763e+01
8.3767748343328147e-03 1.0993623225165669e+01
-1.9145374415891772e-02 1.1019145374415904e+01
ITEM: ATOMS id type x y z 
10 1 4.60977 4.61036 4.58714 
11 1 3.08861 3.09662 3.08032 
12 1 3.80462 3.80667 3.78938 
46 1 0.712581 0.743792 0.756805 
47 1 2.26921 2.27292 2.26465 
48 1 1.54269 1.56835 1.56415 
19 1 4.56032 4.52572 6.21829 
20 1 3.01741 3.02303 7.76482 
21 1 3.73602 3.71646 7.04417 
31 1 0.662367 0.707629 10.0992 
32 1 2.19711 2.21236 8.58016 
33 1 1.47673 1.50605 9.29319 
16 1 4.55329 6.21875 4.50878 
17 1 3.00978 7.75906 2.99284 
18 1 3.72511 7.04498 3.69541 
25 1 0.627804 10.1804 0.799566 
26 1 2.18214 8.60058 2.19922 
27 1 1.45146 9.34116 1.54122 
4 1 4.62916 6.14288 6.14712 
5 1 3.13686 7.68704 7.63366 
6 1 3.84263 6.95744 6.92523 
37 1 0.689696 10.033 10.1763 
38 1 2.34622 8.50135 8.41265 
39 1 1.57131 9.051 9.19537 
49 2 0.674778 8.63106 10.3128 
13 1 6.24056 4.53848 4.53277 
14 1 7.76925 3.01574 3.00273 
15 1 7.05755 3.72356 3.71879 
28 1 10.075 0.699177 0.665142 
29 1 8.58023 2.20207 2.18526 
30 1 9.28814 1.48969 1.46688 
1 1 6.18485 4.6054 6.16621 
2 1 7.68921 3.08847 7.69079 
3 1 6.98326 3.7999 6.97374 
40 1 10.0257 0.745891 10.0792 
41 1 8.50823 2.26847 8.5199 
42 1 9.20993 1.56057 9.24122 
7 1 6.16926 6.16806 4.5949 
8 1 7.68189 7.67619 3.07482 
9 1 6.97814 6.96787 3.79788 
43 1 10.0286 10.054 0.751903 
44 1 8.5047 8.49478 2.25925 
45 1 9.21675 9.21773 1.56126 
22 1 6.25871 6.21665 6.21896 
23 1 7.77216 7.75427 7.7667 
24 1 7.0712 7.0397 7.05061 
34 1 10.0103 10.1435 10.1471 
35 1 8.58043 8.57597 8.59242 
36 1 9.25091 9.31463 9.31715 
ITEM: TIMESTEP
110
ITEM: NUMBER OF ATOMS
49
ITEM: BOX BOUNDS pp pp pp
-9.5419122011249531e-03 1.1009541912201126e+01
1.0867914149517679e-02 1.0991132085850481e+01
-2.3664669186988386e-02 1.1023664669187005e+01
ITEM: ATOMS id type x y z 
10 1 4.60994 4.61108 4.58679 
11 1 3.08827 3.0977 3.07851 
12 1 3.80403 3.80754 3.78778 
46 1 0.711138 0.745872 0.752382 
47 1 2.26815 2.27433 2.26181 
48 1 1.5419 1.57 1.56105 
19 1 4.56045 4.5263 6.21854 
20 1 3.0172 3.02433 7.76628 
21 1 3.73558 3.71751 7.04548 
31 1 0.660929 0.709705 10.1033 
32 1 2.19594 2.21341 8.58308 
33 1 1.47563 1.50778 9.29643 
16 1 4.55338 6.21805 4.50816 
17 1 3.0095 7.75771 2.99108 
18 1 3.72479 7.0443 3.69396 
25 1 0.626139 10.1784 0.795744 
26 1 2.18119 8.59917 2.19647 
27 1 1.45068 9.33968 1.53836 
4 1 4.6293 6.14227 6.14713 
5 1 3.13657 7.68616 7.63494 
6 1 3.84236 6.95657 6.9266 
37 1 0.688527 10.0314 10.1801 
38 1 2.34526 8.50021 8.41525 
39 1 1.57013 9.04886 9.19869 
49 2 0.673991 8.62962 10.3161 
13 1 6.24041 4.53914 4.5324 
14 1 7.76953 3.01705 3.00101 
15 1 7.05789 3.72449 3.71722 
28 1 10.0764 0.700957 0.660953 
29 1 8.58105 2.20344 2.18258 
30 1 9.28879 1.4918 1.46349 
1 1 6.18467 4.60608 6.16637 
2 1 7.68965 3.08961 7.69239 
3 1 6.9837 3.80066 6.97521 
40 1 10.0274 0.747712 10.0831 
41 1 8.50909 2.26966 8.52259 
42 1 9.2108 1.56251 9.24431 
7 1 6.16915 6.16742 4.59458 
8 1 7.68245 7.67507 3.07307 
9 1 6.97838 6.96735 3.79616 
43 1 10.0299 10.0523 0.747823 
44 1 8.50567 8.49368 2.25641 
45 1 9.21752 9.21615 1.55795 
22 1 6.25872 6.21597 6.21931 
23 1 7.77246 7.75286 7.76831 
24 1 7.07151 7.03904 7.05172 
34 1 10.0112 10.1418 10.1513 
35 1 8.58122 8.57485 8.59502 
36 1 9.25162 9.31274 9.32043 
ITEM: TIMESTEP
120
ITEM: NUMBER OF ATOMS
49
ITEM: BOX BOUNDS pp pp pp
-1.0817639333626519e-02 1.1010817639333629e+01
1.3451111639541671e-02 1.0988548888360457e+01
-2.8165111757084346e-02 1.1028165111757104e+01
ITEM: ATOMS id type x y z 
10 1 4.61009 4.61178 4.58643 
11 1 3.08793 3.09882 3.0767 
12 1 3.80344 3.80844 3.7862 
46 1 0.709711 0.748053 0.748008 
47 1 2.2671 2.27578 2.25898 
48 1 1.54112 1.57173 1.55796 
19 1 4.56058 4.52689 6.21879 
20 1 3.01699 3.02566 7.76775 
21 1 3.73513 3.71858 7.04679 
31 1 0.659517 0.711876 10.1073 
32 1 2.1948 2.21456 8.58595 
33 1 1.47456 1.50959 9.29964 
16 1 4.55348 6.21737 4.50755 
17 1 3.00923 7.75635 2.98932 
18 1 3.72446 7.04356 3.6925 
25 1 0.624493 10.1764 0.791949 
26 1 2.18026 8.59769 2.19373 
27 1 1.4499 9.33814 1.53552 
4 1 4.62942 6.14166 6.14716 
5 1 3.13628 7.68525 7.6362 
6 1 3.84213 6.95568 6.92795 
37 1 0.687368 10.0298 10.1839 
38 1 2.34432 8.49901 8.41783 
39 1 1.56897 9.04665 9.20197 
49 2 0.673203 8.6281 10.3194 
13 1 6.24028 4.53981 4.53203 
14 1 7.76981 3.0184 2.9993 
15 1 7.05823 3.72545 3.71565 
28 1 10.0778 0.702834 0.656809 
29 1 8.58187 2.20486 2.17991 
30 1 9.28944 1.49398 1.4601 
1 1 6.1845 4.60677 6.16654 
2 1 7.69009 3.0908 7.69398 
3 1 6.98413 3.80145 6.97667 
40 1 10.029 0.749626 10.087 
41 1 8.50994 2.2709 8.52528 
42 1 9.21169 1.56452 9.24738 
7 1 6.16907 6.1668 4.59425 
8 1 7.683 7.67392 3.07133 
9 1 6.97859 6.96679 3.79444 
43 1 10.0313 10.0505 0.743769 
44 1 8.50665 8.49253 2.25358 
45 1 9.21826 9.2145 1.55465 
22 1 6.25874 6.21528 6.21967 
23 1 7.77276 7.75142 7.76991 
24 1 7.07182 7.03836 7.05282 
34 1 10.0121 10.1401 10.1554 
35 1 8.58198 8.57368 8.59759 
36 1 9.25231 9.31077 9.3237 
ITEM: TIMESTEP
130
ITEM: NUMBER OF ATOMS
49
ITEM: BOX BOUNDS pp pp pp
-1.2089889154397331e-02 1.1012089889154401e+01
1.6122137291071564e-02 1.0985877862708927e+01
-3.2639625570189845e-02 1.1032639625570212e+01
ITEM: ATOMS id type x y z 
10 1 4.61023 4.61246 4.58606 
11 1 3.0876 3.09998 3.0749 
12 1 3.80287 3.80938 3.78463 
46 1 0.708289 0.750333 0.743684 
47 1 2.26605 2.27729 2.25618 
48 1 1.54034 1.57351 1.55488 
19 1 4.56071 4.52748 6.21903 
20 1 3.01677 3.02701 7.76921 
21 1 3.73467 3.71968 7.0481 
31 1 0.658127 0.714129 10.1112 
32 1 2.1937 2.2158 8.58878 
33 1 1.47351 1.51149 9.30283 
16 1 4.55358 6.21671 4.50695 
17 1 3.00895 7.75499 2.98757 
18 1 3.72411 7.04277 3.69104 
25 1 0.622867 10.1743 0.788178 
26 1 2.17934 8.59617 2.191 
27 1 1.44911 9.33653 1.53273 
4 1 4.62952 6.14104 6.14722 
5 1 3.136 7.68431 7.63745 
6 1 3.84191 6.95477 6.9293 
37 1 0.686208 10.028 10.1877 
38 1 2.34338 8.49775 8.42039 
39 1 1.56784 9.04437 9.20521 
49 2 0.672407 8.62651 10.3227 
13 1 6.24016 4.54049 4.53165 
14 1 7.77009 3.01978 2.99759 
15 1 7.05857 3.72644 3.71408 
28 1 10.0791 0.704799 0.652714 
29 1 8.58267 2.20633 2.17725 
30 1 9.29012 1.49623 1.45672 
1 1 6.18436 4.60746 6.16673 
2 1 7.69054 3.09204 7.69555 
3 1 6.98454 3.80227 6.97813 
40 1 10.0306 0.751626 10.0909 
41 1 8.51078 2.2722 8.52796 
42 1 9.21258 1.56658 9.25043 
7 1 6.16901 6.16618 4.5939 
8 1 7.68356 7.67273 3.0696 
9 1 6.9788 6.9662 3.79274 
43 1 10.0326 10.0487 0.739742 
44 1 8.50762 8.49133 2.25077 
45 1 9.21899 9.21279 1.55139 
22 1 6.25876 6.21459 6.22002 
23 1 7.77307 7.74994 7.7715 
24 1 7.07215 7.03767 7.05393 
34 1 10.013 10.1383 10.1595 
35 1 8.58274 8.57246 8.60015 
36 1 9.25299 9.30875 9.32695 
ITEM: TIMESTEP
140
ITEM: NUMBER OF ATOMS
49
ITEM: BOX BOUNDS pp pp pp
-1.3376204647602542e-02 1.1013376204647605e+01
1.8895028063216565e-02 1.0983104971936783e+01
-3.7140479275972908e-02 1.1037140479275998e+01
ITEM: ATOMS id type x y z 
10 1 4.61035 4.61315 4.58567 
11 1 3.08727 3.10118 3.07309 
12 1 3.80229 3.81036 3.78306 
46 1 0.706856 0.752727 0.739358 
47 1 2.26498 2.27886 2.25336 
48 1 1.53955 1.57537 1.55179 
19 1 4.56084 4.52808 6.21928 
20 1 3.01654 3.0284 7.77069 
21 1 3.7342 3.7208 7.04942 
31 1 0.656745 0.716476 10.1152 
32 1 2.19262 2.21712 8.5916 
33 1 1.47245 1.51347 9.30601 
16 1 4.55368 6.21604 4.50634 
17 1 3.00865 7.75359 2.98579 
18 1 3.72376 7.04195 3.68956 
25 1 0.6213 10.1722 0.784433 
26 1 2.1785 8.59471 2.18832 
27 1 1.44814 9.33463 1.52985 
4 1 4.62961 6.14041 6.14729 
5 1 3.1357 7.68334 7.63869 
6 1 3.84172 6.95384 6.93065 
37 1 0.68503 10.0261 10.1915 
38 1 2.34245 8.4964 8.42295 
39 1 1.56672 9.04202 9.20845 
49 2 0.671594 8.62483 10.326 
13 1 6.24005 4.54117 4.53127 
14 1 7.77039 3.02121 2.99588 
15 1 7.0589 3.72746 3.71251 
28 1 10.0805 0.70687 0.648584 
29 1 8.58344 2.20787 2.17452 
30 1 9.29088 1.49855 1.45341 
1 1 6.18422 4.60816 6.16694 
2 1 7.69099 3.09332 7.69713 
3 1 6.98494 3.80311 6.97958 
40 1 10.0322 0.753722 10.0948 
41 1 8.51162 2.27355 8.53066 
42 1 9.2135 1.56872 9.25349 
7 1 6.16898 6.16555 4.59354 
8 1 7.68412 7.67151 3.06787 
9 1 6.97899 6.96557 3.79102 
43 1 10.0339 10.0468 0.735696 
44 1 8.50859 8.49007 2.24795 
45 1 9.21972 9.21102 1.54811 
22 1 6.25879 6.21389 6.22038 
23 1 7.77339 7.74843 7.7731 
24 1 7.07248 7.03695 7.05504 
34 1 10.0138 10.1364 10.1636 
35 1 8.5835 8.57117 8.60272 
36 1 9.25367 9.30665 9.33024 
ITEM: TIMESTEP
150
ITEM: NUMBER OF ATOMS
49
ITEM: BOX BOUNDS pp pp pp
-1.4676939491866986e-02 1.1014676939491871e+01
2.1769351050879630e-02 1.0980230648949119e+01
-4.1679833477087799e-02 1.1041679833477115e+01
ITEM: ATOMS id type x y z 
10 1 4.61045 4.61383 4.58526 
11 1 3.08694 3.10243 3.07127 
12 1 3.8017 3.81138 3.78149 
46 1 0.705411 0.755245 0.735017 
47 1 2.26391 2.28049 2.25052 
48 1 1.53876 1.5773 1.54867 
19 1 4.56097 4.52869 6.21952 
20 1 3.01629 3.02982 7.77219 
21 1 3.73372 3.72197 7.05077 
31 1 0.655362 0.718917 10.1192 
32 1 2.19154 2.21852 8.59441 
33 1 1.47142 1.51552 9.30922 
16 1 4.55378 6.21536 4.50572 
17 1 3.00835 7.75216 2.98399 
18 1 3.7234 7.0411 3.68808 
25 1 0.619702 10.1701 0.780699 
26 1 2.17766 8.59322 2.18566 
27 1 1.44716 9.33259 1.52688 
4 1 4.62966 6.13976 6.14737 
5 1 3.1354 7.68233 7.63992 
6 1 3.84156 6.95289 6.93202 
37 1 0.683832 10.0242 10.1953 
38 1 2.34151 8.49499 8.42552 
39 1 1.5656 9.03957 9.21169 
49 2 0.670764 8.62308 10.3293 
13 1 6.23996 4.54187 4.53089 
14 1 7.7707 3.02268 2.99415 
15 1 7.05922 3.72851 3.71092 
28 1 10.0818 0.709112 0.644381 
29 1 8.58423 2.20955 2.17169 
30 1 9.29165 1.50076 1.45021 
1 1 6.18411 4.60886 6.16717 
2 1 7.69146 3.09464 7.69873 
3 1 6.98533 3.80398 6.98105 
40 1 10.0338 0.755918 10.0988 
41 1 8.51246 2.27497 8.53338 
42 1 9.21443 1.57094 9.25657 
7 1 6.16896 6.16493 4.59317 
8 1 7.6847 7.67024 3.06613 
9 1 6.97918 6.96492 3.7893 
43 1 10.0353 10.0447 0.731616 
44 1 8.50958 8.48874 2.24512 
45 1 9.22046 9.20919 1.5448 
22 1 6.25883 6.21318 6.22073 
23 1 7.77372 7.74688 7.77473 
24 1 7.07282 7.0362 7.05615 
34 1 10.0146 10.1343 10.1677 
35 1 8.58426 8.56983 8.60531 
36 1 9.25433 9.30448 9.33356 
ITEM: TIMESTEP
160
ITEM: NUMBER OF ATOMS
49
ITEM: BOX BOUNDS pp pp pp
-1.6005707986323611e-02 1.1016005707986325e+01
2.4739367313175258e-02 1.0977260632686823e+01
-4.6260504486986320e-02 1.1046260504487016e+01
ITEM: ATOMS id type x y z 
10 1 4.61051 4.61458 4.5848 
11 1 3.08656 3.10381 3.06938 
12 1 3.80119 3.81227 3.78 
46 1 0.70394 0.757879 0.730653 
47 1 2.26282 2.28219 2.24767 
48 1 1.53796 1.5793 1.54551 
19 1 4.5611 4.52931 6.21977 
20 1 3.01603 3.03127 7.77371 
21 1 3.73322 3.72317 7.05214 
31 1 0.653983 0.721439 10.1233 
32 1 2.19047 2.22 8.59724 
33 1 1.47035 1.51766 9.31242 
16 1 4.55386 6.21468 4.50509 
17 1 3.00803 7.7507 2.98216 
18 1 3.72305 7.04023 3.68657 
25 1 0.618073 10.1678 0.776933 
26 1 2.17681 8.59167 2.18298 
27 1 1.44615 9.33049 1.5239 
4 1 4.62969 6.13909 6.14748 
5 1 3.13509 7.68129 7.64115 
6 1 3.84143 6.95194 6.93339 
37 1 0.682605 10.0222 10.1992 
38 1 2.34056 8.4935 8.42811 
39 1 1.56447 9.03705 9.21495 
49 2 0.669906 8.62125 10.3327 
13 1 6.23988 4.54257 4.5305 
14 1 7.77103 3.0242 2.9924 
15 1 7.05954 3.72959 3.70931 
28 1 10.0831 0.711442 0.640178 
29 1 8.58503 2.2113 2.16884 
30 1 9.29243 1.50304 1.44697 
1 1 6.18399 4.60959 6.16745 
2 1 7.69192 3.09604 7.70037 
3 1 6.98574 3.80485 6.98245 
40 1 10.0354 0.758211 10.1027 
41 1 8.51331 2.27645 8.53613 
42 1 9.21539 1.57323 9.25967 
7 1 6.16898 6.1643 4.59277 
8 1 7.68528 7.66893 3.06438 
9 1 6.97936 6.96423 3.78755 
43 1 10.0366 10.0427 0.727503 