
     Program PWSCF v.7.1 starts on  6May2025 at 21: 5:51 

     This program is part of the open-source Quantum ESPRESSO suite
     for quantum simulation of materials; please cite
         "P. Giannozzi et al., J. Phys.:Condens. Matter 21 395502 (2009);
         "P. Giannozzi et al., J. Phys.:Condens. Matter 29 465901 (2017);
         "P. Giannozzi et al., J. Chem. Phys. 152 154105 (2020);
          URL http://www.quantum-espresso.org", 
     in publications or presentations arising from this work. More details at
     http://www.quantum-espresso.org/quote

     Parallel version (MPI), running on    16 processors

     MPI processes distributed on     1 nodes
     251250 MiB available memory on the printing compute node when the environment starts

     Reading input from input.pwi
Warning: card &CELL ignored
Warning: card / ignored
Warning: card &FCP ignored
Warning: card / ignored
Warning: card &RISM ignored
Warning: card / ignored

     Current dimensions of program PWSCF are:
     Max number of different atomic species (ntypx) = 10
     Max number of k-points (npk) =  40000
     Max angular momentum in pseudopotentials (lmaxx) =  4
     file C.pbe-n-kjpaw_psl.1.0.0.UPF: wavefunction(s)  2S 2P renormalized
     file O.pbe-n-kjpaw_psl.0.1.UPF: wavefunction(s)  2P renormalized

     IMPORTANT: XC functional enforced from input :
     Exchange-correlation= PBE
                           (   1   4   3   4   0   0   0)
     Any further DFT definition will be discarded
     Please, verify this is what you really want


     gamma-point specific algorithms are used

     R & G space division:  proc/nbgrp/npool/nimage =      16
     Subspace diagonalization in iterative solution of the eigenvalue problem:
     a serial algorithm will be used


     Parallelization info
     --------------------
     sticks:   dense  smooth     PW     G-vecs:    dense   smooth      PW
     Min         356     177     43                70548    24945    3112
     Max         358     180     46                70590    24972    3130
     Sum        5721    2869    717              1129231   399349   49901

     Using Slab Decomposition



     bravais-lattice index     =            0
     lattice parameter (alat)  =      13.4114  a.u.
     unit-cell volume          =    8357.3659 (a.u.)^3
     number of atoms/cell      =           33
     number of atomic types    =            2
     number of electrons       =       134.00 (up:  67.00, down:  67.00)
     number of Kohn-Sham states=           80
     kinetic-energy cutoff     =      50.0000  Ry
     charge density cutoff     =     400.0000  Ry
     scf convergence threshold =      1.0E-06
     mixing beta               =       0.3000
     number of iterations used =            8  plain     mixing
     energy convergence thresh.=      1.0E-04
     force convergence thresh. =      1.0E-03
     Exchange-correlation= PBE
                           (   1   4   3   4   0   0   0)
     nstep                     =         1000


     celldm(1)=  13.411386  celldm(2)=   0.000000  celldm(3)=   0.000000
     celldm(4)=   0.000000  celldm(5)=   0.000000  celldm(6)=   0.000000

     crystal axes: (cart. coord. in units of alat)
               a(1) = (   1.000000   0.000000   0.000000 )  
               a(2) = (   0.000000   1.000000   0.000000 )  
               a(3) = (   0.000000   0.000000   3.464562 )  

     reciprocal axes: (cart. coord. in units 2 pi/alat)
               b(1) = (  1.000000  0.000000  0.000000 )  
               b(2) = (  0.000000  1.000000  0.000000 )  
               b(3) = (  0.000000  0.000000  0.288637 )  


     PseudoPot. # 1 for C  read from file:
     /home/ana.bisette/espresso/pseudo/C.pbe-n-kjpaw_psl.1.0.0.UPF
     MD5 check sum: 5d2aebdfa2cae82b50a7e79e9516da0f
     Pseudo is Projector augmented-wave + core cor, Zval =  4.0
     Generated using "atomic" code by A. Dal Corso  v.5.1
     Shape of augmentation charge: PSQ
     Using radial grid of 1073 points,  4 beta functions with: 
                l(1) =   0
                l(2) =   0
                l(3) =   1
                l(4) =   1
     Q(r) pseudized with 0 coefficients 


     PseudoPot. # 2 for O  read from file:
     /home/ana.bisette/espresso/pseudo/O.pbe-n-kjpaw_psl.0.1.UPF
     MD5 check sum: 0234752ac141de4415c5fc33072bef88
     Pseudo is Projector augmented-wave + core cor, Zval =  6.0
     Generated using "atomic" code by A. Dal Corso  v.5.0.99 svn rev. 10869
     Shape of augmentation charge: BESSEL
     Using radial grid of 1095 points,  4 beta functions with: 
                l(1) =   0
                l(2) =   0
                l(3) =   1
                l(4) =   1
     Q(r) pseudized with 0 coefficients 


     atomic species   valence    mass     pseudopotential
        C              4.00    12.01100     C ( 1.00)
        O              6.00    15.99900     O ( 1.00)

     Starting magnetic structure 
     atomic species   magnetization
        C            0.000
        O            0.000

     No symmetry found



   Cartesian axes

     site n.     atom                  positions (alat units)
         1           C   tau(   1) = (   0.6547837   0.7372129   0.9093983  )
         2           C   tau(   2) = (   0.4704805   0.2299563   1.8767085  )
         3           C   tau(   3) = (   0.4773848   0.7342539   1.2126251  )
         4           C   tau(   4) = (   0.3047767   0.7372129   0.9093983  )
         5           C   tau(   5) = (   0.6553473   0.2227702   2.5550232  )
         6           C   tau(   6) = (   0.4703396   0.7301677   1.5878540  )
         7           C   tau(   7) = (   0.4778075   0.2257292   2.2517965  )
         8           C   tau(   8) = (   0.3051994   0.2227702   2.5551642  )
         9           C   tau(   9) = (   0.4703396   0.5550232   1.6888826  )
        10           C   tau(  10) = (   0.9798506   0.7372129   0.7217134  )
        11           C   tau(  11) = (   0.4741440   0.7318585   1.3856559  )
        12           C   tau(  12) = (   0.4703396   0.9050303   1.6890235  )
        13           C   tau(  13) = (  -0.0104269   0.5548823   0.0432577  )
        14           C   tau(  14) = (   0.4796393   0.7372129   1.0104269  )
        15           C   tau(  15) = (  -0.0145132   0.7318585   0.3464844  )
        16           C   tau(  16) = (  -0.0104269   0.9050303   0.0432577  )
        17           C   tau(  17) = (  -0.0104269   0.4051007   3.4211639  )
        18           C   tau(  18) = (   0.4802029   0.2227702   2.4539946  )
        19           C   tau(  19) = (  -0.0140905   0.2281246   3.1180781  )
        20           C   tau(  20) = (  -0.0104269   0.0549528   3.4213048  )
        21           C   tau(  21) = (   0.4703396   0.4051007   1.7756799  )
        22           C   tau(  22) = (  -0.0197266   0.2227702   2.7428491  )
        23           C   tau(  23) = (   0.4744258   0.2281246   2.0787657  )
        24           C   tau(  24) = (   0.4703396   0.0549528   1.7755390  )
        25           C   tau(  25) = (   0.8051289   0.2227702   2.6416796  )
        26           C   tau(  26) = (  -0.0105678   0.7300268   0.1444272  )
        27           C   tau(  27) = (  -0.0173313   0.2257292   2.9449063  )
        28           C   tau(  28) = (   0.1552769   0.2227702   2.6416796  )
        29           C   tau(  29) = (   0.8047062   0.7372129   0.8227420  )
        30           C   tau(  30) = (  -0.0102860   0.2298154   3.3201353  )
        31           C   tau(  31) = (  -0.0178949   0.7342539   0.5196562  )
        32           C   tau(  32) = (   0.1547133   0.7372129   0.8228829  )
        33           O   tau(  33) = (   0.5699591   0.7820206   0.7458081  )

     number of k points=     1  Gaussian smearing, width (Ry)=  0.0001
                       cart. coord. in units 2pi/alat
        k(    1) = (   0.0000000   0.0000000   0.0000000), wk =   1.0000000

     Dense  grid:   564616 G-vectors     FFT dimensions: (  90,  90, 300)

     Smooth grid:   199675 G-vectors     FFT dimensions: (  64,  64, 216)

     Estimated max dynamical RAM per process >     130.06 MB

     Estimated total dynamical RAM >       2.03 GB

     Check: negative core charge=   -0.000003
     Generating pointlists ...
     new r_m :   0.0714 (alat units)  0.9573 (a.u.) for type    1
     new r_m :   0.0782 (alat units)  1.0491 (a.u.) for type    2

     Initial potential from superposition of free atoms

     starting charge     133.9987, renormalised to     134.0000

     negative rho (up, down):  5.558E-08 5.558E-08
     Starting wfcs are  132 randomized atomic wfcs
     Checking if some PAW data can be deallocated... 

     total cpu time spent up to now is       11.2 secs

     Self-consistent Calculation

     iteration #  1     ecut=    50.00 Ry     beta= 0.30
     Davidson diagonalization with overlap
     ethr =  1.00E-02,  avg # of iterations =  2.0

     negative rho (up, down):  3.060E-07 3.134E-07

     total cpu time spent up to now is       20.0 secs

     total energy              =    -629.85997498 Ry
     estimated scf accuracy    <       3.79584057 Ry

     total magnetization       =     0.00 Bohr mag/cell
     absolute magnetization    =     0.04 Bohr mag/cell

     iteration #  2     ecut=    50.00 Ry     beta= 0.30
     Davidson diagonalization with overlap
     ethr =  2.83E-03,  avg # of iterations =  1.0

     negative rho (up, down):  7.031E-06 7.107E-06

     total cpu time spent up to now is       27.3 secs

     total energy              =    -629.29138431 Ry
     estimated scf accuracy    <       1.25259876 Ry

     total magnetization       =    -0.00 Bohr mag/cell
     absolute magnetization    =     0.03 Bohr mag/cell

     iteration #  3     ecut=    50.00 Ry     beta= 0.30
     Davidson diagonalization with overlap
     ethr =  9.35E-04,  avg # of iterations =  2.0

     negative rho (up, down):  1.106E-05 1.114E-05

     total cpu time spent up to now is       35.7 secs

     total energy              =    -629.49653374 Ry
     estimated scf accuracy    <       0.11470930 Ry

     total magnetization       =    -0.00 Bohr mag/cell
     absolute magnetization    =     0.02 Bohr mag/cell

     iteration #  4     ecut=    50.00 Ry     beta= 0.30
     Davidson diagonalization with overlap
     c_bands:  2 eigenvalues not converged
     c_bands:  1 eigenvalues not converged
     ethr =  8.56E-05,  avg # of iterations = 20.0

     negative rho (up, down):  1.478E-05 1.484E-05

     total cpu time spent up to now is       46.1 secs

     total energy              =    -629.50032736 Ry
     estimated scf accuracy    <       0.02875163 Ry

     total magnetization       =    -0.00 Bohr mag/cell
     absolute magnetization    =     0.02 Bohr mag/cell

     iteration #  5     ecut=    50.00 Ry     beta= 0.30
     Davidson diagonalization with overlap
     ethr =  2.15E-05,  avg # of iterations =  3.5

     negative rho (up, down):  2.267E-05 2.268E-05

     total cpu time spent up to now is       54.8 secs

     total energy              =    -629.50461338 Ry
     estimated scf accuracy    <       0.00747165 Ry

     total magnetization       =    -0.00 Bohr mag/cell
     absolute magnetization    =     0.01 Bohr mag/cell

     iteration #  6     ecut=    50.00 Ry     beta= 0.30
     Davidson diagonalization with overlap
     ethr =  5.58E-06,  avg # of iterations =  5.0

     negative rho (up, down):  3.783E-05 3.783E-05

     total cpu time spent up to now is       62.3 secs

     total energy              =    -629.50467410 Ry
     estimated scf accuracy    <       0.00180177 Ry

     total magnetization       =    -0.00 Bohr mag/cell
     absolute magnetization    =     0.01 Bohr mag/cell

     iteration #  7     ecut=    50.00 Ry     beta= 0.30
     Davidson diagonalization with overlap
     c_bands:  2 eigenvalues not converged
     c_bands:  2 eigenvalues not converged
     ethr =  1.34E-06,  avg # of iterations = 20.0

     negative rho (up, down):  4.819E-05 4.817E-05

     total cpu time spent up to now is       73.5 secs

     total energy              =    -629.50469364 Ry
     estimated scf accuracy    <       0.00117961 Ry

     total magnetization       =    -0.00 Bohr mag/cell
     absolute magnetization    =     0.01 Bohr mag/cell

     iteration #  8     ecut=    50.00 Ry     beta= 0.30
     Davidson diagonalization with overlap
     ethr =  8.80E-07,  avg # of iterations = 18.0

     negative rho (up, down):  5.024E-05 5.022E-05

     total cpu time spent up to now is       83.7 secs

     total energy              =    -629.50483331 Ry
     estimated scf accuracy    <       0.00005202 Ry

     total magnetization       =    -0.00 Bohr mag/cell
     absolute magnetization    =     0.01 Bohr mag/cell

     iteration #  9     ecut=    50.00 Ry     beta= 0.30
     Davidson diagonalization with overlap
     ethr =  3.88E-08,  avg # of iterations =  3.5

     negative rho (up, down):  5.150E-05 5.148E-05

     total cpu time spent up to now is       92.2 secs

     total energy              =    -629.50485007 Ry
     estimated scf accuracy    <       0.00000910 Ry

     total magnetization       =    -0.00 Bohr mag/cell
     absolute magnetization    =     0.00 Bohr mag/cell

     iteration # 10     ecut=    50.00 Ry     beta= 0.30
     Davidson diagonalization with overlap
     ethr =  6.79E-09,  avg # of iterations =  2.0

     negative rho (up, down):  5.268E-05 5.268E-05

     total cpu time spent up to now is       99.6 secs

     total energy              =    -629.50484979 Ry
     estimated scf accuracy    <       0.00000280 Ry

     total magnetization       =    -0.00 Bohr mag/cell
     absolute magnetization    =     0.00 Bohr mag/cell

     iteration # 11     ecut=    50.00 Ry     beta= 0.30
     Davidson diagonalization with overlap
     ethr =  2.09E-09,  avg # of iterations =  3.0

     negative rho (up, down):  5.289E-05 5.289E-05

     Magnetic moment per site  (integrated on atomic sphere of radius R)
     atom   1 (R=0.071)  charge=  1.2263  magn=  0.0000
     atom   2 (R=0.071)  charge=  1.1317  magn=  0.0000
     atom   3 (R=0.071)  charge=  1.1878  magn= -0.0000
     atom   4 (R=0.071)  charge=  1.1752  magn= -0.0000
     atom   5 (R=0.071)  charge=  1.1839  magn= -0.0001
     atom   6 (R=0.071)  charge=  1.1309  magn= -0.0000
     atom   7 (R=0.071)  charge=  1.1847  magn=  0.0000
     atom   8 (R=0.071)  charge=  1.1819  magn= -0.0000
     atom   9 (R=0.071)  charge=  1.1822  magn=  0.0001
     atom  10 (R=0.071)  charge=  1.1294  magn= -0.0000
     atom  11 (R=0.071)  charge=  1.1874  magn=  0.0000
     atom  12 (R=0.071)  charge=  1.1821  magn=  0.0001
     atom  13 (R=0.071)  charge=  1.1833  magn=  0.0000
     atom  14 (R=0.071)  charge=  1.1439  magn= -0.0000
     atom  15 (R=0.071)  charge=  1.1819  magn=  0.0000
     atom  16 (R=0.071)  charge=  1.1816  magn= -0.0000
     atom  17 (R=0.071)  charge=  1.1816  magn= -0.0000
     atom  18 (R=0.071)  charge=  1.1316  magn=  0.0000
     atom  19 (R=0.071)  charge=  1.1833  magn= -0.0000
     atom  20 (R=0.071)  charge=  1.1839  magn=  0.0000
     atom  21 (R=0.071)  charge=  1.1809  magn= -0.0001
     atom  22 (R=0.071)  charge=  1.1322  magn= -0.0000
     atom  23 (R=0.071)  charge=  1.1829  magn= -0.0000
     atom  24 (R=0.071)  charge=  1.1832  magn= -0.0001
     atom  25 (R=0.071)  charge=  1.1817  magn=  0.0001
     atom  26 (R=0.071)  charge=  1.1318  magn=  0.0000
     atom  27 (R=0.071)  charge=  1.1823  magn=  0.0000
     atom  28 (R=0.071)  charge=  1.1839  magn=  0.0000
     atom  29 (R=0.071)  charge=  1.1750  magn= -0.0000
     atom  30 (R=0.071)  charge=  1.1310  magn= -0.0000
     atom  31 (R=0.071)  charge=  1.1852  magn= -0.0000
     atom  32 (R=0.071)  charge=  1.1825  magn= -0.0000
     atom  33 (R=0.078)  charge=  3.4844  magn=  0.0000

     total cpu time spent up to now is      107.8 secs

     End of self-consistent calculation

 ------ SPIN UP ------------


          k = 0.0000 0.0000 0.0000 ( 24951 PWs)   bands (ev):

   -24.9826 -19.2938 -19.1702 -19.0839 -18.9952 -18.6065 -18.4879 -18.3261
   -18.1139 -17.0271 -17.0224 -16.9406 -16.8616 -16.8464 -16.5270 -16.2481
   -15.7248 -15.5212 -14.9449 -14.6627 -14.3386 -12.8930 -12.3894 -12.3649
   -12.2865 -12.1947 -12.1296 -11.9156 -11.6030 -11.0723 -11.0328 -10.7056
   -10.5735 -10.5476 -10.4614 -10.3787 -10.3583  -9.1669  -8.6524  -7.8945
    -7.8126  -7.7224  -7.0893  -6.6908  -6.6031  -6.5515  -6.5015  -5.6885
    -5.6150  -5.5304  -5.4408  -5.4253  -5.3842  -5.3661  -5.2888  -5.2846
    -5.2000  -5.1822  -5.0449  -4.9364  -4.7008  -4.5981  -4.3219  -3.9862
    -3.8530  -3.7719  -3.1252  -1.2958  -1.1197  -0.9832  -0.8880  -0.4042
     0.6672   0.7893   0.9112   1.1857   1.3420   1.4309   1.5222   1.5606

 ------ SPIN DOWN ----------


          k = 0.0000 0.0000 0.0000 ( 24951 PWs)   bands (ev):

   -24.9826 -19.2938 -19.1702 -19.0839 -18.9952 -18.6065 -18.4879 -18.3260
   -18.1139 -17.0271 -17.0224 -16.9406 -16.8616 -16.8464 -16.5271 -16.2481
   -15.7247 -15.5212 -14.9449 -14.6627 -14.3386 -12.8931 -12.3894 -12.3649
   -12.2865 -12.1947 -12.1296 -11.9156 -11.6030 -11.0723 -11.0328 -10.7056
   -10.5735 -10.5476 -10.4613 -10.3787 -10.3583  -9.1669  -8.6523  -7.8944
    -7.8126  -7.7224  -7.0894  -6.6908  -6.6031  -6.5515  -6.5015  -5.6886
    -5.6150  -5.5304  -5.4407  -5.4253  -5.3841  -5.3662  -5.2889  -5.2846
    -5.2000  -5.1823  -5.0449  -4.9364  -4.7008  -4.5981  -4.3219  -3.9862
    -3.8530  -3.7720  -3.1252  -1.2957  -1.1196  -0.9832  -0.8880  -0.4043
     0.6672   0.7893   0.9113   1.1856   1.3420   1.4309   1.5222   1.5606

     the spin up/dw Fermi energies are    -1.7471   -1.7471 ev

!    total energy              =    -629.50485045 Ry
     total all-electron energy =     -2586.802873 Ry
     estimated scf accuracy    <       0.00000043 Ry
     smearing contrib. (-TS)   =      -0.00000000 Ry
     internal energy E=F+TS    =    -629.50485045 Ry

     The total energy is F=E-TS. E is the sum of the following terms:
     one-electron contribution =    -785.33203355 Ry
     hartree contribution      =     418.99821329 Ry
     xc contribution           =    -152.42103478 Ry
     ewald contribution        =      96.18327007 Ry
     one-center paw contrib.   =    -206.93326548 Ry

     total magnetization       =    -0.00 Bohr mag/cell
     absolute magnetization    =     0.00 Bohr mag/cell

     convergence has been achieved in  11 iterations

     negative rho (up, down):  5.289E-05 5.289E-05

     Forces acting on atoms (cartesian axes, Ry/au):

     atom    1 type  1   force =    -0.39110846    0.01971386    0.17614920
     atom    2 type  1   force =     0.00272544   -0.00097825   -0.07188954
     atom    3 type  1   force =    -0.01483475   -0.00805113    0.00323754
     atom    4 type  1   force =     0.13449774    0.01094621    0.04786558
     atom    5 type  1   force =    -0.08705339   -0.00031594   -0.05278765
     atom    6 type  1   force =     0.00398661    0.00054008    0.06686577
     atom    7 type  1   force =     0.00130582   -0.00120216   -0.00544447
     atom    8 type  1   force =     0.08590906   -0.00033924   -0.04964105
     atom    9 type  1   force =    -0.00040522    0.08309137   -0.04929163
     atom   10 type  1   force =     0.01019340   -0.00043735    0.04949335
     atom   11 type  1   force =    -0.00108072   -0.00022830    0.00815613
     atom   12 type  1   force =    -0.00042711   -0.08495234   -0.04855086
     atom   13 type  1   force =     0.00011532    0.08647968    0.05374761
     atom   14 type  1   force =    -0.01373689   -0.04282642    0.17068210
     atom   15 type  1   force =     0.00135734   -0.00106193    0.01051921
     atom   16 type  1   force =     0.00036055   -0.08527767    0.05129467
     atom   17 type  1   force =     0.00071268   -0.08737283   -0.05249090
     atom   18 type  1   force =    -0.00143575    0.00239507    0.06886073
     atom   19 type  1   force =     0.00137874    0.00086465   -0.00977816
     atom   20 type  1   force =     0.00050550    0.08500451   -0.04954845
     atom   21 type  1   force =     0.00011688   -0.08286755    0.05097667
     atom   22 type  1   force =     0.00119889    0.00235640   -0.07219763
     atom   23 type  1   force =    -0.00145048    0.00108847    0.00717954
     atom   24 type  1   force =    -0.00057510    0.08578200    0.05078811
     atom   25 type  1   force =     0.08705598   -0.00029195    0.05394781
     atom   26 type  1   force =    -0.00243805    0.00049152   -0.07227723
     atom   27 type  1   force =    -0.00137073   -0.00113301    0.01031611
     atom   28 type  1   force =    -0.08560710   -0.00033466    0.05030091
     atom   29 type  1   force =     0.30073203    0.00820346   -0.18581972
     atom   30 type  1   force =    -0.00340097    0.00054929    0.06977040
     atom   31 type  1   force =    -0.00535795    0.00694870   -0.00898603
     atom   32 type  1   force =    -0.11938854   -0.00416801   -0.05193945
     atom   33 type  2   force =     0.09751923    0.00738346   -0.21950868

     Total force =     0.766962     Total SCF correction =     0.001238

     BFGS Geometry Optimization
     Energy error            =      0.0E+00 Ry
     Gradient error          =      3.9E-01 Ry/Bohr

     number of scf cycles    =   1
     number of bfgs steps    =   0

     energy             new  =    -629.5048504472 Ry

     new trust radius        =       0.4293984225 bohr
     new conv_thr            =       0.0000010000 Ry


ATOMIC_POSITIONS (angstrom)
C             4.4400343157        5.2424321273        6.5472141427
C             3.3404422393        1.6314823318       13.2809576954
C             3.3801497895        5.2067395279        8.6077132340
C             2.2341731397        5.2377924850        6.4793293717
C             4.6049333292        1.5808328117       18.1050659785
C             3.3401096231        5.1822857977       11.3043838439
C             3.3916910121        1.6013638447       15.9781189102
C             2.2114611159        1.5808204824       18.1077310876
C             3.3377855651        3.9829700574       11.9599159941
C             6.9593941138        5.2317685652        5.1481907508
C             3.3644281082        5.1938791892        9.8383160374
C             3.3377739854        6.3780451593       11.9613079927
C            -0.0739389737        3.9837630738        0.3354420117
C             3.3967307530        5.2093372327        7.2613210758
C            -0.1022817289        5.1934380529        2.4645665260
C            -0.0738092043        6.3778730029        0.3341439715
C            -0.0736228637        2.8287642898       24.2522230139
C             3.4072402334        1.5822674161       17.4524395272
C            -0.0992704029        1.6194575528       22.1238256231
C            -0.0737324991        0.4349824508       24.2547800881
C             3.3380618492        2.8311483828       12.6289756901
C            -0.1393655745        1.5822469551       19.4277946573
C             3.3662324401        1.6195759952       14.7567992494
C             3.3376956684        0.4353938811       12.6278759124
C             5.7600680394        1.5808455061       18.7765479520
C            -0.0762901596        5.1812601012        0.9867525384
C            -0.1237253615        1.6014004350       20.9054590506
C             1.0566986743        1.5808229034       18.7746180935
C             5.8701405378        5.2363410829        5.7406684414
C            -0.0747997176        1.6312906704       23.5999209062
C            -0.1298353055        5.2146770940        3.6832447975
C             1.0348223072        5.2297943821        5.8125148255
O             4.0966049517        5.5539071595        5.1768410096



     Writing config-only to output data dir ./pwscf.save/
     NEW-OLD atomic charge density approx. for the potential

     Check: negative core charge=   -0.000003

     negative rho (up, down):  5.837E-05 5.837E-05
     Generating pointlists ...

     total cpu time spent up to now is      122.7 secs

     Self-consistent Calculation

     iteration #  1     ecut=    50.00 Ry     beta= 0.30
     Davidson diagonalization with overlap
     c_bands:  1 eigenvalues not converged
     c_bands:  1 eigenvalues not converged
     ethr =  1.00E-06,  avg # of iterations = 20.0

     negative rho (up, down):  5.046E-05 5.045E-05

     total cpu time spent up to now is      144.5 secs

     total energy              =    -629.26634733 Ry
     estimated scf accuracy    <       0.38498420 Ry

     total magnetization       =    -0.00 Bohr mag/cell
     absolute magnetization    =     0.00 Bohr mag/cell

     iteration #  2     ecut=    50.00 Ry     beta= 0.30
     Davidson diagonalization with overlap
     ethr =  2.87E-04,  avg # of iterations =  2.0

     negative rho (up, down):  4.756E-05 4.756E-05

     total cpu time spent up to now is      152.1 secs

     total energy              =    -629.27965722 Ry
     estimated scf accuracy    <       0.06634757 Ry

     total magnetization       =    -0.00 Bohr mag/cell
     absolute magnetization    =     0.00 Bohr mag/cell

     iteration #  3     ecut=    50.00 Ry     beta= 0.30
     Davidson diagonalization with overlap
     ethr =  4.95E-05,  avg # of iterations =  2.0

     negative rho (up, down):  4.710E-05 4.710E-05

     total cpu time spent up to now is      160.1 secs

     total energy              =    -629.28262410 Ry
     estimated scf accuracy    <       0.01920231 Ry

     total magnetization       =    -0.00 Bohr mag/cell
     absolute magnetization    =     0.00 Bohr mag/cell

     iteration #  4     ecut=    50.00 Ry     beta= 0.30
     Davidson diagonalization with overlap
     ethr =  1.43E-05,  avg # of iterations =  7.0

     negative rho (up, down):  5.015E-05 5.015E-05

     total cpu time spent up to now is      167.9 secs

     total energy              =    -629.28262252 Ry
     estimated scf accuracy    <       0.00608342 Ry

     total magnetization       =    -0.00 Bohr mag/cell
     absolute magnetization    =     0.00 Bohr mag/cell

     iteration #  5     ecut=    50.00 Ry     beta= 0.30
     Davidson diagonalization with overlap
     ethr =  4.54E-06,  avg # of iterations =  7.0

     negative rho (up, down):  5.114E-05 5.114E-05

     total cpu time spent up to now is      175.9 secs

     total energy              =    -629.28306137 Ry
     estimated scf accuracy    <       0.00090454 Ry

     total magnetization       =     0.00 Bohr mag/cell
     absolute magnetization    =     0.00 Bohr mag/cell

     iteration #  6     ecut=    50.00 Ry     beta= 0.30
     Davidson diagonalization with overlap
     ethr =  6.75E-07,  avg # of iterations =  5.0

     negative rho (up, down):  4.953E-05 4.953E-05

     total cpu time spent up to now is      184.0 secs

     total energy              =    -629.28316512 Ry
     estimated scf accuracy    <       0.00013521 Ry

     total magnetization       =    -0.00 Bohr mag/cell
     absolute magnetization    =     0.00 Bohr mag/cell

     iteration #  7     ecut=    50.00 Ry     beta= 0.30
     Davidson diagonalization with overlap
     ethr =  1.01E-07,  avg # of iterations =  4.0

     negative rho (up, down):  4.927E-05 4.927E-05

     total cpu time spent up to now is      192.1 secs

     total energy              =    -629.28317239 Ry
     estimated scf accuracy    <       0.00004638 Ry

     total magnetization       =     0.00 Bohr mag/cell
     absolute magnetization    =     0.00 Bohr mag/cell

     iteration #  8     ecut=    50.00 Ry     beta= 0.30
     Davidson diagonalization with overlap
     ethr =  3.46E-08,  avg # of iterations =  2.0

     negative rho (up, down):  4.870E-05 4.870E-05

     total cpu time spent up to now is      200.0 secs

     total energy              =    -629.28317720 Ry
     estimated scf accuracy    <       0.00000573 Ry

     total magnetization       =     0.00 Bohr mag/cell
     absolute magnetization    =     0.00 Bohr mag/cell

     iteration #  9     ecut=    50.00 Ry     beta= 0.30
     Davidson diagonalization with overlap
     ethr =  4.27E-09,  avg # of iterations =  3.0

     negative rho (up, down):  4.790E-05 4.790E-05

     Magnetic moment per site  (integrated on atomic sphere of radius R)
     atom   1 (R=0.071)  charge=  1.1314  magn= -0.0000
     atom   2 (R=0.071)  charge=  1.1671  magn=  0.0000
     atom   3 (R=0.071)  charge=  1.2167  magn= -0.0000
     atom   4 (R=0.071)  charge=  1.1111  magn= -0.0000
     atom   5 (R=0.071)  charge=  1.1470  magn= -0.0000
     atom   6 (R=0.071)  charge=  1.1685  magn= -0.0000
     atom   7 (R=0.071)  charge=  1.1791  magn=  0.0000
     atom   8 (R=0.071)  charge=  1.1503  magn= -0.0000
     atom   9 (R=0.071)  charge=  1.1470  magn=  0.0000
     atom  10 (R=0.071)  charge=  1.2372  magn= -0.0000
     atom  11 (R=0.071)  charge=  1.1769  magn=  0.0000
     atom  12 (R=0.071)  charge=  1.1493  magn=  0.0000
     atom  13 (R=0.071)  charge=  1.1471  magn=  0.0000
     atom  14 (R=0.071)  charge=  1.2594  magn=  0.0000
     atom  15 (R=0.071)  charge=  1.1783  magn=  0.0000
     atom  16 (R=0.071)  charge=  1.1500  magn= -0.0000
     atom  17 (R=0.071)  charge=  1.1483  magn= -0.0000
     atom  18 (R=0.071)  charge=  1.1691  magn=  0.0000
     atom  19 (R=0.071)  charge=  1.1797  magn= -0.0000
     atom  20 (R=0.071)  charge=  1.1482  magn=  0.0000
     atom  21 (R=0.071)  charge=  1.1493  magn= -0.0000
     atom  22 (R=0.071)  charge=  1.1688  magn= -0.0000
     atom  23 (R=0.071)  charge=  1.1776  magn= -0.0000
     atom  24 (R=0.071)  charge=  1.1485  magn= -0.0000
     atom  25 (R=0.071)  charge=  1.1490  magn=  0.0000
     atom  26 (R=0.071)  charge=  1.1685  magn= -0.0000
     atom  27 (R=0.071)  charge=  1.1792  magn=  0.0000
     atom  28 (R=0.071)  charge=  1.1487  magn=  0.0000
     atom  29 (R=0.071)  charge=  1.1197  magn= -0.0000
     atom  30 (R=0.071)  charge=  1.1681  magn=  0.0000
     atom  31 (R=0.071)  charge=  1.1863  magn= -0.0000
     atom  32 (R=0.071)  charge=  1.1406  magn=  0.0000
     atom  33 (R=0.078)  charge=  3.4214  magn=  0.0000

     total cpu time spent up to now is      207.7 secs

     End of self-consistent calculation

 ------ SPIN UP ------------


          k = 0.0000 0.0000 0.0000 ( 24951 PWs)   bands (ev):

   -23.2698 -20.1225 -19.5275 -19.4751 -19.4042 -19.3330 -18.9188 -18.7921
   -18.6844 -16.6766 -16.5599 -16.5422 -16.5290 -16.5183 -16.4777 -16.2657
   -16.0014 -14.5517 -14.3322 -14.0710 -13.8312 -13.4320 -13.1115 -13.1027
   -13.0991 -12.8939 -12.2647 -12.0881 -11.6957 -11.1476 -10.9928 -10.9043
   -10.8123 -10.8116 -10.8050 -10.6324 -10.4332  -8.8423  -7.9914  -7.9838
    -7.9711  -7.7344  -7.2724  -6.8009  -6.7964  -6.7845  -6.0743  -5.9447
    -5.2739  -5.2537  -5.2268  -5.1543  -5.0904  -5.0769  -5.0483  -4.9471
    -4.9296  -4.9170  -4.9149  -4.8404  -4.4792  -4.4474  -4.2706  -4.2358
    -3.9518  -3.9407  -3.2981  -0.8297  -0.6191  -0.5129  -0.3604  -0.1246
    -0.0614   0.0149   0.0533   0.1265   0.4827   1.1120   1.1442   1.3518

 ------ SPIN DOWN ----------


          k = 0.0000 0.0000 0.0000 ( 24951 PWs)   bands (ev):

   -23.2698 -20.1225 -19.5275 -19.4751 -19.4042 -19.3330 -18.9188 -18.7921
   -18.6844 -16.6766 -16.5599 -16.5422 -16.5290 -16.5183 -16.4777 -16.2657
   -16.0014 -14.5517 -14.3322 -14.0710 -13.8312 -13.4320 -13.1115 -13.1027
   -13.0991 -12.8939 -12.2647 -12.0881 -11.6957 -11.1476 -10.9928 -10.9043
   -10.8123 -10.8116 -10.8050 -10.6324 -10.4332  -8.8423  -7.9914  -7.9838
    -7.9712  -7.7344  -7.2724  -6.8009  -6.7964  -6.7845  -6.0743  -5.9447
    -5.2739  -5.2537  -5.2268  -5.1543  -5.0904  -5.0769  -5.0483  -4.9471
    -4.9296  -4.9170  -4.9149  -4.8404  -4.4792  -4.4474  -4.2706  -4.2358
    -3.9518  -3.9407  -3.2981  -0.8297  -0.6191  -0.5129  -0.3604  -0.1246
    -0.0614   0.0149   0.0533   0.1265   0.4827   1.1120   1.1442   1.3518

     the spin up/dw Fermi energies are    -1.7157   -1.7157 ev

!    total energy              =    -629.28317829 Ry
     total all-electron energy =     -2586.581201 Ry
     estimated scf accuracy    <       0.00000097 Ry
     smearing contrib. (-TS)   =      -0.00000000 Ry
     internal energy E=F+TS    =    -629.28317829 Ry

     The total energy is F=E-TS. E is the sum of the following terms:
     one-electron contribution =    -781.44441099 Ry
     hartree contribution      =     416.78798359 Ry
     xc contribution           =    -152.05628776 Ry
     ewald contribution        =      94.35477974 Ry
     one-center paw contrib.   =    -206.92524287 Ry

     total magnetization       =    -0.00 Bohr mag/cell
     absolute magnetization    =     0.00 Bohr mag/cell

     convergence has been achieved in   9 iterations

     negative rho (up, down):  4.790E-05 4.790E-05

     Forces acting on atoms (cartesian axes, Ry/au):

     atom    1 type  1   force =     0.35984575    0.05434026   -0.42371921
     atom    2 type  1   force =     0.00260470    0.00192731    0.05401383
     atom    3 type  1   force =    -0.01341090   -0.01335424    0.19222419
     atom    4 type  1   force =    -0.30090567    0.00668635   -0.16698673
     atom    5 type  1   force =     0.24222497   -0.00011541    0.13771606
     atom    6 type  1   force =     0.00300691   -0.00082626   -0.04481152
     atom    7 type  1   force =     0.00090715   -0.00115172    0.02160223
     atom    8 type  1   force =    -0.23952331   -0.00013557    0.13726582
     atom    9 type  1   force =    -0.00013350   -0.23340257    0.13357889
     atom   10 type  1   force =     0.19217969    0.00084590   -0.22765255
     atom   11 type  1   force =    -0.00272152   -0.00074796   -0.00574960
     atom   12 type  1   force =    -0.00007888    0.23753919    0.13694288
     atom   13 type  1   force =     0.00016292   -0.24264021   -0.13796666
     atom   14 type  1   force =    -0.17402226   -0.01900380    0.10813420
     atom   15 type  1   force =     0.00131189   -0.00079333   -0.02915625
     atom   16 type  1   force =     0.00020482    0.23948698   -0.13699884
     atom   17 type  1   force =     0.00023357    0.24197595    0.13794130
     atom   18 type  1   force =    -0.00038971    0.00208029   -0.05226452
     atom   19 type  1   force =     0.00162478    0.00095767    0.03375123
     atom   20 type  1   force =     0.00015438   -0.23841785    0.13666607
     atom   21 type  1   force =     0.00007878    0.23420195   -0.13365149
     atom   22 type  1   force =     0.00067272    0.00213860    0.05675708
     atom   23 type  1   force =    -0.00155938    0.00100174   -0.02331062
     atom   24 type  1   force =    -0.00038838   -0.23860808   -0.13679748
     atom   25 type  1   force =    -0.24294541   -0.00011702   -0.13835336
     atom   26 type  1   force =    -0.00260126    0.00006060    0.05589948
     atom   27 type  1   force =    -0.00135186   -0.00134938   -0.03502739
     atom   28 type  1   force =     0.24032121   -0.00014727   -0.13803407
     atom   29 type  1   force =    -0.54174293    0.01726761    0.28207142
     atom   30 type  1   force =    -0.00282703   -0.00102097   -0.05380424
     atom   31 type  1   force =     0.00339510    0.00702923   -0.00498559
     atom   32 type  1   force =     0.36498697   -0.00145247    0.21219360
     atom   33 type  2   force =     0.11068567   -0.05425551    0.05251184

     Total force =     1.449666     Total SCF correction =     0.000938
     Energy error            =      2.2E-01 Ry
     Gradient error          =      5.4E-01 Ry/Bohr

     number of scf cycles    =   2
     number of bfgs steps    =   1

     energy             old  =    -629.5048504472 Ry
     energy             new  =    -629.2831782897 Ry

     CASE: energy            _new > energy            _old

     new trust radius        =       0.1559355528 bohr
     new conv_thr            =       0.0000010000 Ry


ATOMIC_POSITIONS (angstrom)
C             4.5718406452        5.2357884153        6.4878506108
C             3.3395237476        1.6318120094       13.3051849800
C             3.3851492049        5.2094528143        8.6066221590
C             2.1888464454        5.2341035344        6.4631983328
C             4.6342709405        1.5809392858       18.1228557916
C             3.3387661073        5.1821037871       11.2818496030
C             3.3912509403        1.6017689809       15.9799537355
C             2.1825091530        1.5809348084       18.1244604741
C             3.3379221282        3.9549676767       11.9765276227
C             6.9559588663        5.2319159547        5.1315111416
C             3.3647923182        5.1939561277        9.8355673641
C             3.3379179230        6.4066747003       11.9776699765
C            -0.0739778384        3.9546188086        0.3173286845
C             3.4013601812        5.2237700416        7.2037999968
C            -0.1027391607        5.1937959296        2.4610214776
C            -0.0739307128        6.4066121819        0.3168573026
C            -0.0738630434        2.8582095540       24.2699128188
C             3.4077240916        1.5814602607       17.4292329732
C            -0.0997350476        1.6191661598       22.1271209309
C            -0.0739028573        0.4063353263       24.2714782686
C             3.3380224605        2.8590753347       12.6117961914
C            -0.1397696091        1.5814528303       19.4521257729
C             3.3667212615        1.6192091720       14.7543796931
C             3.3378894823        0.4064847367       12.6107599573
C             5.7307295566        1.5809438957       18.7583671566
C            -0.0754685200        5.1810944554        1.0111104775
C            -0.1232634142        1.6017822686       20.9019824481
C             1.0855488747        1.5809356876       18.7576663306
C             5.7687917068        5.2335764593        5.8032910054
C            -0.0736535654        1.6311055566       23.5764077854
C            -0.1280296380        5.2123353325        3.6862731536
C             1.0750570921        5.2311990323        5.8300187899
O             4.0637402800        5.5514188806        5.2508169936



     Writing config-only to output data dir ./pwscf.save/
     NEW-OLD atomic charge density approx. for the potential

     Check: negative core charge=   -0.000003

     negative rho (up, down):  4.763E-05 4.763E-05
     Generating pointlists ...

     total cpu time spent up to now is      222.8 secs

     Self-consistent Calculation

     iteration #  1     ecut=    50.00 Ry     beta= 0.30
     Davidson diagonalization with overlap
     c_bands:  1 eigenvalues not converged
     c_bands:  1 eigenvalues not converged
     ethr =  1.00E-06,  avg # of iterations = 20.0

     negative rho (up, down):  4.902E-05 4.902E-05

     total cpu time spent up to now is      241.7 secs

     total energy              =    -629.57839211 Ry
     estimated scf accuracy    <       0.16972485 Ry

     total magnetization       =     0.00 Bohr mag/cell
     absolute magnetization    =     0.00 Bohr mag/cell

     iteration #  2     ecut=    50.00 Ry     beta= 0.30
     Davidson diagonalization with overlap
     ethr =  1.27E-04,  avg # of iterations =  2.0

     negative rho (up, down):  5.022E-05 5.021E-05

     total cpu time spent up to now is      249.3 secs

     total energy              =    -629.59088874 Ry
     estimated scf accuracy    <       0.02672991 Ry

     total magnetization       =     0.00 Bohr mag/cell
     absolute magnetization    =     0.00 Bohr mag/cell

     iteration #  3     ecut=    50.00 Ry     beta= 0.30
     Davidson diagonalization with overlap
     ethr =  1.99E-05,  avg # of iterations =  2.0

     negative rho (up, down):  5.080E-05 5.079E-05

     total cpu time spent up to now is      256.9 secs

     total energy              =    -629.59246666 Ry
     estimated scf accuracy    <       0.00851812 Ry

     total magnetization       =    -0.00 Bohr mag/cell
     absolute magnetization    =     0.00 Bohr mag/cell

     iteration #  4     ecut=    50.00 Ry     beta= 0.30
     Davidson diagonalization with overlap
     ethr =  6.36E-06,  avg # of iterations = 13.0

     negative rho (up, down):  5.332E-05 5.331E-05

     total cpu time spent up to now is      266.0 secs

     total energy              =    -629.59277045 Ry
     estimated scf accuracy    <       0.00240609 Ry

     total magnetization       =     0.00 Bohr mag/cell
     absolute magnetization    =     0.00 Bohr mag/cell

     iteration #  5     ecut=    50.00 Ry     beta= 0.30
     Davidson diagonalization with overlap
     ethr =  1.80E-06,  avg # of iterations =  8.0

     negative rho (up, down):  5.348E-05 5.347E-05

     total cpu time spent up to now is      274.3 secs

     total energy              =    -629.59298753 Ry
     estimated scf accuracy    <       0.00024436 Ry

     total magnetization       =    -0.00 Bohr mag/cell
     absolute magnetization    =     0.00 Bohr mag/cell

     iteration #  6     ecut=    50.00 Ry     beta= 0.30
     Davidson diagonalization with overlap
     ethr =  1.82E-07,  avg # of iterations =  2.0

     negative rho (up, down):  5.223E-05 5.223E-05

     total cpu time spent up to now is      282.4 secs

     total energy              =    -629.59301969 Ry
     estimated scf accuracy    <       0.00004632 Ry

     total magnetization       =    -0.00 Bohr mag/cell
     absolute magnetization    =     0.00 Bohr mag/cell

     iteration #  7     ecut=    50.00 Ry     beta= 0.30
     Davidson diagonalization with overlap
     ethr =  3.46E-08,  avg # of iterations =  2.0

     negative rho (up, down):  5.150E-05 5.150E-05

     total cpu time spent up to now is      290.2 secs

     total energy              =    -629.59302469 Ry
     estimated scf accuracy    <       0.00000933 Ry

     total magnetization       =     0.00 Bohr mag/cell
     absolute magnetization    =     0.00 Bohr mag/cell

     iteration #  8     ecut=    50.00 Ry     beta= 0.30
     Davidson diagonalization with overlap
     ethr =  6.96E-09,  avg # of iterations =  4.0

     negative rho (up, down):  5.086E-05 5.086E-05

     total cpu time spent up to now is      298.3 secs

     total energy              =    -629.59302618 Ry
     estimated scf accuracy    <       0.00000106 Ry

     total magnetization       =    -0.00 Bohr mag/cell
     absolute magnetization    =     0.00 Bohr mag/cell

     iteration #  9     ecut=    50.00 Ry     beta= 0.30
     Davidson diagonalization with overlap
     ethr =  7.88E-10,  avg # of iterations =  4.0

     negative rho (up, down):  5.011E-05 5.011E-05

     Magnetic moment per site  (integrated on atomic sphere of radius R)
     atom   1 (R=0.071)  charge=  1.1640  magn=  0.0000
     atom   2 (R=0.071)  charge=  1.1427  magn=  0.0000
     atom   3 (R=0.071)  charge=  1.1972  magn= -0.0000
     atom   4 (R=0.071)  charge=  1.1477  magn=  0.0000
     atom   5 (R=0.071)  charge=  1.1669  magn= -0.0000
     atom   6 (R=0.071)  charge=  1.1430  magn= -0.0000
     atom   7 (R=0.071)  charge=  1.1825  magn=  0.0000
     atom   8 (R=0.071)  charge=  1.1671  magn= -0.0000
     atom   9 (R=0.071)  charge=  1.1669  magn=  0.0000
     atom  10 (R=0.071)  charge=  1.1598  magn=  0.0000
     atom  11 (R=0.071)  charge=  1.1836  magn=  0.0000
     atom  12 (R=0.071)  charge=  1.1671  magn=  0.0000
     atom  13 (R=0.071)  charge=  1.1672  magn=  0.0000
     atom  14 (R=0.071)  charge=  1.1816  magn= -0.0000
     atom  15 (R=0.071)  charge=  1.1803  magn=  0.0000
     atom  16 (R=0.071)  charge=  1.1674  magn= -0.0000
     atom  17 (R=0.071)  charge=  1.1666  magn= -0.0000
     atom  18 (R=0.071)  charge=  1.1433  magn=  0.0000
     atom  19 (R=0.071)  charge=  1.1818  magn= -0.0000
     atom  20 (R=0.071)  charge=  1.1681  magn=  0.0000
     atom  21 (R=0.071)  charge=  1.1665  magn= -0.0000
     atom  22 (R=0.071)  charge=  1.1434  magn= -0.0000
     atom  23 (R=0.071)  charge=  1.1808  magn= -0.0000
     atom  24 (R=0.071)  charge=  1.1679  magn= -0.0000
     atom  25 (R=0.071)  charge=  1.1664  magn=  0.0000
     atom  26 (R=0.071)  charge=  1.1433  magn=  0.0000
     atom  27 (R=0.071)  charge=  1.1809  magn=  0.0000
     atom  28 (R=0.071)  charge=  1.1677  magn=  0.0000
     atom  29 (R=0.071)  charge=  1.1238  magn= -0.0000
     atom  30 (R=0.071)  charge=  1.1427  magn=  0.0000
     atom  31 (R=0.071)  charge=  1.1857  magn= -0.0000
     atom  32 (R=0.071)  charge=  1.1613  magn= -0.0000
     atom  33 (R=0.078)  charge=  3.4611  magn=  0.0000

     total cpu time spent up to now is      305.8 secs

     End of self-consistent calculation

 ------ SPIN UP ------------


          k = 0.0000 0.0000 0.0000 ( 24951 PWs)   bands (ev):

   -24.4207 -19.4928 -19.2994 -19.2137 -19.1200 -18.7608 -18.6391 -18.4650
   -18.2890 -16.8531 -16.8395 -16.7777 -16.7080 -16.7050 -16.4964 -16.2080
   -15.8148 -15.0526 -14.7106 -14.5241 -14.2313 -13.2657 -12.6486 -12.5838
   -12.5029 -12.4314 -12.2799 -12.0348 -11.6720 -11.1078 -11.0656 -10.7702
   -10.6666 -10.6081 -10.5966 -10.5208 -10.4044  -8.9493  -8.1143  -7.9188
    -7.8603  -7.7884  -7.2250  -6.7217  -6.6527  -6.5761  -6.4417  -5.8238
    -5.4821  -5.4213  -5.3823  -5.3583  -5.2948  -5.2074  -5.1852  -5.1496
    -5.1384  -5.0826  -5.0409  -4.8881  -4.6022  -4.4646  -4.3551  -4.0781
    -3.9236  -3.8767  -3.2104  -1.0535  -0.8883  -0.7971  -0.7216  -0.3368
     0.3698   0.4907   0.6097   0.7591   1.0384   1.3435   1.3871   1.5581

 ------ SPIN DOWN ----------


          k = 0.0000 0.0000 0.0000 ( 24951 PWs)   bands (ev):

   -24.4207 -19.4928 -19.2994 -19.2137 -19.1200 -18.7608 -18.6391 -18.4650
   -18.2890 -16.8531 -16.8395 -16.7777 -16.7080 -16.7050 -16.4964 -16.2080
   -15.8148 -15.0526 -14.7106 -14.5241 -14.2313 -13.2657 -12.6486 -12.5838
   -12.5029 -12.4314 -12.2799 -12.0348 -11.6720 -11.1078 -11.0656 -10.7702
   -10.6666 -10.6081 -10.5966 -10.5208 -10.4044  -8.9493  -8.1143  -7.9188
    -7.8602  -7.7884  -7.2250  -6.7217  -6.6527  -6.5761  -6.4417  -5.8238
    -5.4821  -5.4213  -5.3823  -5.3583  -5.2948  -5.2074  -5.1852  -5.1496
    -5.1384  -5.0826  -5.0409  -4.8881  -4.6022  -4.4646  -4.3551  -4.0781
    -3.9236  -3.8767  -3.2104  -1.0535  -0.8883  -0.7971  -0.7216  -0.3368
     0.3698   0.4907   0.6097   0.7591   1.0384   1.3435   1.3871   1.5581

     the spin up/dw Fermi energies are    -1.6791   -1.6791 ev

!    total energy              =    -629.59302645 Ry
     total all-electron energy =     -2586.891049 Ry
     estimated scf accuracy    <       0.00000028 Ry
     smearing contrib. (-TS)   =      -0.00000000 Ry
     internal energy E=F+TS    =    -629.59302645 Ry

     The total energy is F=E-TS. E is the sum of the following terms:
     one-electron contribution =    -782.97387073 Ry
     hartree contribution      =     417.67472295 Ry
     xc contribution           =    -152.18596488 Ry
     ewald contribution        =      94.80749868 Ry
     one-center paw contrib.   =    -206.91541246 Ry

     total magnetization       =    -0.00 Bohr mag/cell
     absolute magnetization    =     0.00 Bohr mag/cell

     convergence has been achieved in   9 iterations

     negative rho (up, down):  5.011E-05 5.011E-05

     Forces acting on atoms (cartesian axes, Ry/au):

     atom    1 type  1   force =    -0.01726577    0.03562882   -0.11326630
     atom    2 type  1   force =     0.00269876   -0.00021063   -0.02896522
     atom    3 type  1   force =    -0.01322249   -0.01063232    0.06446004
     atom    4 type  1   force =    -0.05104704    0.01005107   -0.04525633
     atom    5 type  1   force =     0.04551786   -0.00024428    0.02527216
     atom    6 type  1   force =     0.00357097    0.00021353    0.02916886
     atom    7 type  1   force =     0.00115840   -0.00121070    0.00400047
     atom    8 type  1   force =    -0.04446584   -0.00026962    0.02653083
     atom    9 type  1   force =    -0.00031194   -0.04349977    0.02529205
     atom   10 type  1   force =     0.03524705    0.00008044   -0.02281969
     atom   11 type  1   force =    -0.00186594   -0.00046374    0.00183272
     atom   12 type  1   force =    -0.00021008    0.04441335    0.02727805
     atom   13 type  1   force =     0.00011888   -0.04584880   -0.02458490
     atom   14 type  1   force =    -0.04444441   -0.03138053    0.12824836
     atom   15 type  1   force =     0.00149687   -0.00094703   -0.00246682
     atom   16 type  1   force =     0.00029772    0.04470684   -0.02524336
     atom   17 type  1   force =     0.00053746    0.04515214    0.02542980
     atom   18 type  1   force =    -0.00106142    0.00225282    0.02773296
     atom   19 type  1   force =     0.00148815    0.00086494    0.00553233
     atom   20 type  1   force =     0.00037302   -0.04452608    0.02639989
     atom   21 type  1   force =     0.00016560    0.04395428   -0.02396987
     atom   22 type  1   force =     0.00098648    0.00225404   -0.02818956
     atom   23 type  1   force =    -0.00148425    0.00101780   -0.00358690
     atom   24 type  1   force =    -0.00048651   -0.04396893   -0.02546528
     atom   25 type  1   force =    -0.04583931   -0.00023209   -0.02466530
     atom   26 type  1   force =    -0.00248317    0.00024332   -0.02865177
     atom   27 type  1   force =    -0.00132748   -0.00124336   -0.00569843
     atom   28 type  1   force =     0.04476718   -0.00026937   -0.02633248
     atom   29 type  1   force =    -0.09867062    0.01110324    0.04489470
     atom   30 type  1   force =    -0.00317557    0.00019141    0.02762145
     atom   31 type  1   force =    -0.00225051    0.00718953   -0.00972683
     atom   32 type  1   force =     0.07816784   -0.00342548    0.05817939
     atom   33 type  2   force =     0.11302009   -0.02094485   -0.10898503

     Total force =     0.358105     Total SCF correction =     0.000496
     Energy error            =      8.8E-02 Ry
     Gradient error          =      1.3E-01 Ry/Bohr

     number of scf cycles    =   3
     number of bfgs steps    =   1

     energy             old  =    -629.5048504472 Ry
     energy             new  =    -629.5930264460 Ry

     CASE: energy            _new < energy            _old

     new trust radius        =       0.1949396536 bohr
     new conv_thr            =       0.0000010000 Ry


ATOMIC_POSITIONS (angstrom)
C             4.5159613840        5.2552223851        6.4551497153
C             3.3411458458        1.6315921885       13.2825833717
C             3.3770213836        5.2033893368        8.6378334640
C             2.1808195016        5.2402416610        6.4473907095
C             4.6454317400        1.5807840276       18.1285100209
C             3.3409587633        5.1822716364       11.3039368288
C             3.3919637583        1.6010437836       15.9812033142
C             2.1717119613        1.5807645994       18.1310996086
C             3.3377236501        3.9442892337       11.9826170670
C             6.9740510256        5.2319011578        5.1266282464
C             3.3637686526        5.1937066245        9.8374367164
C             3.3377654780        6.4175632964       11.9847990930
C            -0.0739069616        3.9432299359        0.3121199134
C             3.3784394596        5.2035527039        7.2858967760
C            -0.1018582535        5.1932138654        2.4611230536
C            -0.0737444761        6.4176014778        0.3110350445
C            -0.0735193096        2.8691566134       24.2756785470
C             3.4070418192        1.5828289325       17.4508766490
C            -0.0988557046        1.6196849588       22.1285751562
C            -0.0736629687        0.3953991869       24.2780660751
C             3.3381158641        2.8699983209       12.6065440421
C            -0.1391520026        1.5828173780       19.4298574748
C             3.3658350466        1.6198283065       14.7535391097
C             3.3375868621        0.3959096343       12.6047699210
C             5.7194153939        1.5807973876       18.7531443261
C            -0.0769525541        5.1812706314        0.9886115146
C            -0.1240649703        1.6010498791       20.9005143226
C             1.0965269005        1.5807661547       18.7512023734
C             5.7582390293        5.2398836277        5.8021272180
C            -0.0755858747        1.6312639501       23.5981089187
C            -0.1297579945        5.2166186399        3.6805287310
C             1.0978897866        5.2290538455        5.8515086024
O             4.1296477642        5.5423046387        5.1719840746



     Writing config-only to output data dir ./pwscf.save/
     NEW-OLD atomic charge density approx. for the potential

     Check: negative core charge=   -0.000003

     negative rho (up, down):  5.190E-05 5.190E-05
     Generating pointlists ...
     new r_m :   0.0697 (alat units)  0.9352 (a.u.) for type    1

     total cpu time spent up to now is      320.9 secs

     Self-consistent Calculation

     iteration #  1     ecut=    50.00 Ry     beta= 0.30
     Davidson diagonalization with overlap
     ethr =  1.00E-06,  avg # of iterations = 18.0

     negative rho (up, down):  5.350E-05 5.350E-05

     total cpu time spent up to now is      337.8 secs

     total energy              =    -629.64171552 Ry
     estimated scf accuracy    <       0.03075004 Ry

     total magnetization       =     0.00 Bohr mag/cell
     absolute magnetization    =     0.00 Bohr mag/cell

     iteration #  2     ecut=    50.00 Ry     beta= 0.30
     Davidson diagonalization with overlap
     ethr =  2.29E-05,  avg # of iterations =  2.0

     negative rho (up, down):  5.445E-05 5.445E-05

     total cpu time spent up to now is      345.3 secs

     total energy              =    -629.64366572 Ry
     estimated scf accuracy    <       0.00475808 Ry

     total magnetization       =    -0.00 Bohr mag/cell
     absolute magnetization    =     0.00 Bohr mag/cell

     iteration #  3     ecut=    50.00 Ry     beta= 0.30
     Davidson diagonalization with overlap
     ethr =  3.55E-06,  avg # of iterations =  7.0

     negative rho (up, down):  5.541E-05 5.541E-05

     total cpu time spent up to now is      353.6 secs

     total energy              =    -629.64330281 Ry
     estimated scf accuracy    <       0.00147254 Ry

     total magnetization       =    -0.00 Bohr mag/cell
     absolute magnetization    =     0.00 Bohr mag/cell

     iteration #  4     ecut=    50.00 Ry     beta= 0.30
     Davidson diagonalization with overlap
     ethr =  1.10E-06,  avg # of iterations =  2.0

     negative rho (up, down):  5.691E-05 5.691E-05

     total cpu time spent up to now is      361.0 secs

     total energy              =    -629.64310576 Ry
     estimated scf accuracy    <       0.00039238 Ry

     total magnetization       =     0.00 Bohr mag/cell
     absolute magnetization    =     0.00 Bohr mag/cell

     iteration #  5     ecut=    50.00 Ry     beta= 0.30
     Davidson diagonalization with overlap
     ethr =  2.93E-07,  avg # of iterations =  6.0

     negative rho (up, down):  5.691E-05 5.691E-05

     total cpu time spent up to now is      369.2 secs

     total energy              =    -629.64310905 Ry
     estimated scf accuracy    <       0.00004924 Ry

     total magnetization       =    -0.00 Bohr mag/cell
     absolute magnetization    =     0.00 Bohr mag/cell

     iteration #  6     ecut=    50.00 Ry     beta= 0.30
     Davidson diagonalization with overlap
     ethr =  3.67E-08,  avg # of iterations =  2.0

     negative rho (up, down):  5.639E-05 5.639E-05

     total cpu time spent up to now is      376.8 secs

     total energy              =    -629.64311087 Ry
     estimated scf accuracy    <       0.00000929 Ry

     total magnetization       =     0.00 Bohr mag/cell
     absolute magnetization    =     0.00 Bohr mag/cell

     iteration #  7     ecut=    50.00 Ry     beta= 0.30
     Davidson diagonalization with overlap
     ethr =  6.93E-09,  avg # of iterations =  4.0

     negative rho (up, down):  5.600E-05 5.600E-05

     total cpu time spent up to now is      385.0 secs

     total energy              =    -629.64311176 Ry
     estimated scf accuracy    <       0.00000253 Ry

     total magnetization       =     0.00 Bohr mag/cell
     absolute magnetization    =     0.00 Bohr mag/cell

     iteration #  8     ecut=    50.00 Ry     beta= 0.30
     Davidson diagonalization with overlap
     ethr =  1.89E-09,  avg # of iterations =  2.0

     negative rho (up, down):  5.547E-05 5.547E-05

     Magnetic moment per site  (integrated on atomic sphere of radius R)
     atom   1 (R=0.070)  charge=  1.0720  magn=  0.0000
     atom   2 (R=0.070)  charge=  1.0685  magn=  0.0000
     atom   3 (R=0.070)  charge=  1.1608  magn= -0.0000
     atom   4 (R=0.070)  charge=  1.0949  magn=  0.0000
     atom   5 (R=0.070)  charge=  1.1107  magn= -0.0000
     atom   6 (R=0.070)  charge=  1.0691  magn= -0.0000
     atom   7 (R=0.070)  charge=  1.1047  magn=  0.0000
     atom   8 (R=0.070)  charge=  1.1112  magn= -0.0000
     atom   9 (R=0.070)  charge=  1.1104  magn=  0.0000
     atom  10 (R=0.070)  charge=  1.0764  magn=  0.0000
     atom  11 (R=0.070)  charge=  1.1269  magn=  0.0000
     atom  12 (R=0.070)  charge=  1.1108  magn=  0.0000
     atom  13 (R=0.070)  charge=  1.1110  magn=  0.0000
     atom  14 (R=0.070)  charge=  1.1050  magn= -0.0000
     atom  15 (R=0.070)  charge=  1.1076  magn=  0.0000
     atom  16 (R=0.070)  charge=  1.1112  magn=  0.0000
     atom  17 (R=0.070)  charge=  1.1101  magn= -0.0000
     atom  18 (R=0.070)  charge=  1.0684  magn=  0.0000
     atom  19 (R=0.070)  charge=  1.1048  magn= -0.0000
     atom  20 (R=0.070)  charge=  1.1123  magn= -0.0000
     atom  21 (R=0.070)  charge=  1.1103  magn= -0.0000
     atom  22 (R=0.070)  charge=  1.0684  magn= -0.0000
     atom  23 (R=0.070)  charge=  1.1045  magn= -0.0000
     atom  24 (R=0.070)  charge=  1.1123  magn= -0.0000
     atom  25 (R=0.070)  charge=  1.1099  magn=  0.0000
     atom  26 (R=0.070)  charge=  1.0684  magn= -0.0000
     atom  27 (R=0.070)  charge=  1.1043  magn=  0.0000
     atom  28 (R=0.070)  charge=  1.1124  magn=  0.0000
     atom  29 (R=0.070)  charge=  1.0412  magn= -0.0000
     atom  30 (R=0.070)  charge=  1.0684  magn=  0.0000
     atom  31 (R=0.070)  charge=  1.1171  magn= -0.0000
     atom  32 (R=0.070)  charge=  1.1143  magn= -0.0000
     atom  33 (R=0.078)  charge=  3.4574  magn= -0.0000

     total cpu time spent up to now is      392.0 secs

     End of self-consistent calculation

 ------ SPIN UP ------------


          k = 0.0000 0.0000 0.0000 ( 24951 PWs)   bands (ev):

   -24.4396 -19.2921 -19.2323 -19.1666 -19.0837 -18.7712 -18.5212 -18.3673
   -18.2048 -16.9714 -16.9575 -16.9328 -16.9126 -16.6354 -16.4836 -16.1562
   -15.8992 -15.0347 -14.6892 -14.5436 -14.2783 -12.9067 -12.5949 -12.5769
   -12.5444 -12.4403 -12.1546 -11.9447 -11.5718 -10.9693 -10.8089 -10.6883
   -10.6693 -10.6378 -10.5749 -10.4933 -10.2931  -8.7917  -8.0173  -7.8939
    -7.8835  -7.8622  -7.0676  -6.6195  -6.5873  -6.5756  -6.5422  -6.2449
    -5.5301  -5.4767  -5.4513  -5.4185  -5.3907  -5.3081  -5.2973  -5.2766
    -5.2237  -5.1763  -5.1003  -5.0017  -4.7387  -4.6123  -4.2756  -4.0699
    -3.9576  -3.9412  -3.2400  -0.9401  -0.8797  -0.8166  -0.7407  -0.0883
     0.4893   0.6073   0.7131   0.8954   1.2918   1.3333   1.5172   1.5609

 ------ SPIN DOWN ----------


          k = 0.0000 0.0000 0.0000 ( 24951 PWs)   bands (ev):

   -24.4396 -19.2921 -19.2323 -19.1666 -19.0837 -18.7712 -18.5212 -18.3673
   -18.2048 -16.9714 -16.9575 -16.9328 -16.9126 -16.6354 -16.4836 -16.1562
   -15.8992 -15.0347 -14.6892 -14.5436 -14.2783 -12.9067 -12.5949 -12.5769
   -12.5444 -12.4403 -12.1546 -11.9447 -11.5718 -10.9693 -10.8089 -10.6883
   -10.6693 -10.6378 -10.5749 -10.4933 -10.2931  -8.7917  -8.0173  -7.8939
    -7.8835  -7.8622  -7.0676  -6.6195  -6.5873  -6.5756  -6.5422  -6.2449
    -5.5301  -5.4767  -5.4513  -5.4185  -5.3907  -5.3081  -5.2973  -5.2766
    -5.2237  -5.1763  -5.1003  -5.0017  -4.7387  -4.6123  -4.2756  -4.0699
    -3.9576  -3.9412  -3.2400  -0.9401  -0.8797  -0.8166  -0.7407  -0.0883
     0.4893   0.6073   0.7131   0.8954   1.2918   1.3333   1.5172   1.5609

     the spin up/dw Fermi energies are    -1.6790   -1.6790 ev

!    total energy              =    -629.64311206 Ry
     total all-electron energy =     -2586.941135 Ry
     estimated scf accuracy    <       0.00000052 Ry
     smearing contrib. (-TS)   =      -0.00000000 Ry
     internal energy E=F+TS    =    -629.64311206 Ry

     The total energy is F=E-TS. E is the sum of the following terms:
     one-electron contribution =    -781.30583828 Ry
     hartree contribution      =     416.91675646 Ry
     xc contribution           =    -152.30822100 Ry
     ewald contribution        =      93.98033314 Ry
     one-center paw contrib.   =    -206.92614238 Ry

     total magnetization       =     0.00 Bohr mag/cell
     absolute magnetization    =     0.00 Bohr mag/cell

     convergence has been achieved in   8 iterations

     negative rho (up, down):  5.547E-05 5.547E-05

     Forces acting on atoms (cartesian axes, Ry/au):

     atom    1 type  1   force =    -0.00476530    0.02277441   -0.07586697
     atom    2 type  1   force =     0.00197996    0.00037936   -0.00099875
     atom    3 type  1   force =    -0.00789560   -0.01041120    0.01792219
     atom    4 type  1   force =     0.05541384    0.00198090    0.05827579
     atom    5 type  1   force =    -0.02976429    0.00006938   -0.01081543
     atom    6 type  1   force =     0.00252453    0.00060108    0.00541189
     atom    7 type  1   force =     0.00062281   -0.00080994    0.01668271
     atom    8 type  1   force =     0.03153625    0.00004250   -0.01069000
     atom    9 type  1   force =     0.00021937    0.03037465   -0.01021370
     atom   10 type  1   force =     0.00347070    0.00106208    0.01281998
     atom   11 type  1   force =    -0.00355587   -0.00191706    0.13840938
     atom   12 type  1   force =     0.00027436   -0.03190282   -0.00997900
     atom   13 type  1   force =    -0.00014247    0.02923000    0.01068114
     atom   14 type  1   force =    -0.01598665   -0.00430525   -0.10198842
     atom   15 type  1   force =     0.00148417   -0.00074313   -0.04607980
     atom   16 type  1   force =    -0.00006184   -0.03104268    0.01076510
     atom   17 type  1   force =     0.00006076   -0.02933576   -0.01037144
     atom   18 type  1   force =     0.00022864    0.00156525    0.00304752
     atom   19 type  1   force =     0.00093740    0.00055454    0.01526556
     atom   20 type  1   force =    -0.00002878    0.03174425   -0.01075697
     atom   21 type  1   force =     0.00038726   -0.02966596    0.01060717
     atom   22 type  1   force =     0.00002997    0.00158890   -0.00148687
     atom   23 type  1   force =    -0.00104720    0.00067599   -0.01748432
     atom   24 type  1   force =    -0.00002468    0.03121777    0.01047307
     atom   25 type  1   force =     0.02932608    0.00006449    0.01056962
     atom   26 type  1   force =    -0.00216397   -0.00035599   -0.00038450
     atom   27 type  1   force =    -0.00071365   -0.00081888   -0.01606789
     atom   28 type  1   force =    -0.03129625    0.00003805    0.01024811
     atom   29 type  1   force =    -0.08353863    0.01450938    0.01980505
     atom   30 type  1   force =    -0.00217384   -0.00046605    0.00308068
     atom   31 type  1   force =     0.00318536    0.00611575    0.01785994
     atom   32 type  1   force =    -0.03863402   -0.00295803   -0.01975945
     atom   33 type  2   force =     0.09011157   -0.02985597   -0.02898139

     Total force =     0.280695     Total SCF correction =     0.000853
     Energy error            =      5.0E-02 Ry
     Gradient error          =      1.4E-01 Ry/Bohr

     number of scf cycles    =   4
     number of bfgs steps    =   2

     energy             old  =    -629.5930264460 Ry
     energy             new  =    -629.6431120640 Ry

     CASE: energy            _new < energy            _old

     new trust radius        =       0.2294093647 bohr
     new conv_thr            =       0.0000010000 Ry


ATOMIC_POSITIONS (angstrom)
C             4.4758227890        5.2814293373        6.3892473080
C             3.3433613772        1.6316329665       13.2658173019
C             3.3669779602        5.1935308367        8.6706383700
C             2.2017424369        5.2457767175        6.4649186589
C             4.6395465477        1.5807060772       18.1278281116
C             3.3438717579        5.1827021212       11.3226477632
C             3.3928086199        1.6000918812       15.9908123416
C             2.1787990085        1.5806617564       18.1311903733
C             3.3376913816        3.9509002267       11.9825335865
C             6.9894031289        5.2324426115        5.1289654161
C             3.3611740184        5.1925323208        9.9101082433
C             3.3377966287        6.4103452013       11.9856141878
C            -0.0739281596        3.9486739227        0.3130582349
C             3.3530249650        5.1865450678        7.2934076109
C            -0.1004428303        5.1924030072        2.4373215606
C            -0.0736397356        6.4109067677        0.3115814051
C            -0.0732363792        2.8633344329       24.2753063717
C             3.4066605205        1.5846428829       17.4680099173
C            -0.0977235848        1.6203530600       22.1376590840
C            -0.0735023050        0.4024989720       24.2780824181
C             3.3383847766        2.8639349894       12.6074438523
C            -0.1386835178        1.5846408543       19.4130954353
C             3.3646419678        1.6206322765       14.7438058301
C             3.3373520126        0.4030019396       12.6050447816
C             5.7249586718        1.5807232526       18.7540121843
C            -0.0791618994        5.1812145938        0.9722442676
C            -0.1250230072        1.6000871166       20.8909999653
C             1.0896968012        1.5806614771       18.7510085592
C             5.7036734256        5.2520373424        5.8136314606
C            -0.0781280466        1.6311370485       23.6152920883
C            -0.1293602338        5.2229293827        3.6854968948
C             1.0966372585        5.2259553939        5.8581815425
O             4.2248036450        5.5199341651        5.0999948732



     Writing config-only to output data dir ./pwscf.save/
     NEW-OLD atomic charge density approx. for the potential

     Check: negative core charge=   -0.000003

     negative rho (up, down):  5.558E-05 5.558E-05
     Generating pointlists ...

     total cpu time spent up to now is      407.1 secs

     Self-consistent Calculation

     iteration #  1     ecut=    50.00 Ry     beta= 0.30
     Davidson diagonalization with overlap
     ethr =  1.00E-06,  avg # of iterations = 11.0

     negative rho (up, down):  5.446E-05 5.446E-05

     total cpu time spent up to now is      423.7 secs

     total energy              =    -629.66679805 Ry
     estimated scf accuracy    <       0.04625825 Ry

     total magnetization       =     0.00 Bohr mag/cell
     absolute magnetization    =     0.00 Bohr mag/cell

     iteration #  2     ecut=    50.00 Ry     beta= 0.30
     Davidson diagonalization with overlap
     ethr =  3.45E-05,  avg # of iterations =  3.0

     negative rho (up, down):  5.408E-05 5.408E-05

     total cpu time spent up to now is      431.5 secs

     total energy              =    -629.67152893 Ry
     estimated scf accuracy    <       0.01040637 Ry

     total magnetization       =     0.00 Bohr mag/cell
     absolute magnetization    =     0.00 Bohr mag/cell

     iteration #  3     ecut=    50.00 Ry     beta= 0.30
     Davidson diagonalization with overlap
     ethr =  7.77E-06,  avg # of iterations =  2.0

     negative rho (up, down):  5.412E-05 5.412E-05

     total cpu time spent up to now is      438.9 secs

     total energy              =    -629.67027733 Ry
     estimated scf accuracy    <       0.00264546 Ry

     total magnetization       =     0.00 Bohr mag/cell
     absolute magnetization    =     0.00 Bohr mag/cell

     iteration #  4     ecut=    50.00 Ry     beta= 0.30
     Davidson diagonalization with overlap
     ethr =  1.97E-06,  avg # of iterations =  7.0

     negative rho (up, down):  5.438E-05 5.438E-05

     total cpu time spent up to now is      447.5 secs

     total energy              =    -629.67014107 Ry
     estimated scf accuracy    <       0.00077834 Ry

     total magnetization       =    -0.00 Bohr mag/cell
     absolute magnetization    =     0.00 Bohr mag/cell

     iteration #  5     ecut=    50.00 Ry     beta= 0.30
     Davidson diagonalization with overlap
     ethr =  5.81E-07,  avg # of iterations =  2.0

     negative rho (up, down):  5.521E-05 5.521E-05

     total cpu time spent up to now is      454.8 secs

     total energy              =    -629.67005532 Ry
     estimated scf accuracy    <       0.00015061 Ry

     total magnetization       =     0.00 Bohr mag/cell
     absolute magnetization    =     0.00 Bohr mag/cell

     iteration #  6     ecut=    50.00 Ry     beta= 0.30
     Davidson diagonalization with overlap
     ethr =  1.12E-07,  avg # of iterations =  3.0

     negative rho (up, down):  5.485E-05 5.485E-05

     total cpu time spent up to now is      462.9 secs

     total energy              =    -629.67006660 Ry
     estimated scf accuracy    <       0.00003333 Ry

     total magnetization       =     0.00 Bohr mag/cell
     absolute magnetization    =     0.00 Bohr mag/cell

     iteration #  7     ecut=    50.00 Ry     beta= 0.30
     Davidson diagonalization with overlap
     ethr =  2.49E-08,  avg # of iterations =  2.0

     negative rho (up, down):  5.460E-05 5.460E-05

     total cpu time spent up to now is      470.3 secs

     total energy              =    -629.67006863 Ry
     estimated scf accuracy    <       0.00000481 Ry

     total magnetization       =     0.00 Bohr mag/cell
     absolute magnetization    =     0.00 Bohr mag/cell

     iteration #  8     ecut=    50.00 Ry     beta= 0.30
     Davidson diagonalization with overlap
     ethr =  3.59E-09,  avg # of iterations =  4.0

     negative rho (up, down):  5.442E-05 5.442E-05

     total cpu time spent up to now is      477.4 secs

     total energy              =    -629.67006897 Ry
     estimated scf accuracy    <       0.00000136 Ry

     total magnetization       =     0.00 Bohr mag/cell
     absolute magnetization    =     0.00 Bohr mag/cell

     iteration #  9     ecut=    50.00 Ry     beta= 0.30
     Davidson diagonalization with overlap
     ethr =  1.02E-09,  avg # of iterations =  3.0

     negative rho (up, down):  5.413E-05 5.413E-05

     Magnetic moment per site  (integrated on atomic sphere of radius R)
     atom   1 (R=0.070)  charge=  1.0863  magn= -0.0000
     atom   2 (R=0.070)  charge=  1.0752  magn=  0.0000
     atom   3 (R=0.070)  charge=  1.1230  magn= -0.0000
     atom   4 (R=0.070)  charge=  1.0948  magn= -0.0000
     atom   5 (R=0.070)  charge=  1.1086  magn= -0.0000
     atom   6 (R=0.070)  charge=  1.0933  magn= -0.0000
     atom   7 (R=0.070)  charge=  1.0912  magn=  0.0000
     atom   8 (R=0.070)  charge=  1.1090  magn= -0.0000
     atom   9 (R=0.070)  charge=  1.1086  magn=  0.0000
     atom  10 (R=0.070)  charge=  1.0619  magn=  0.0000
     atom  11 (R=0.070)  charge=  1.1156  magn=  0.0000
     atom  12 (R=0.070)  charge=  1.1095  magn=  0.0000
     atom  13 (R=0.070)  charge=  1.1090  magn=  0.0000
     atom  14 (R=0.070)  charge=  1.0966  magn=  0.0000
     atom  15 (R=0.070)  charge=  1.0929  magn=  0.0000
     atom  16 (R=0.070)  charge=  1.1089  magn=  0.0000
     atom  17 (R=0.070)  charge=  1.1085  magn= -0.0000
     atom  18 (R=0.070)  charge=  1.0753  magn=  0.0000
     atom  19 (R=0.070)  charge=  1.0913  magn= -0.0000
     atom  20 (R=0.070)  charge=  1.1095  magn= -0.0000
     atom  21 (R=0.070)  charge=  1.1084  magn= -0.0000
     atom  22 (R=0.070)  charge=  1.0750  magn= -0.0000
     atom  23 (R=0.070)  charge=  1.0909  magn= -0.0000
     atom  24 (R=0.070)  charge=  1.1095  magn= -0.0000
     atom  25 (R=0.070)  charge=  1.1078  magn=  0.0000
     atom  26 (R=0.070)  charge=  1.0783  magn= -0.0000
     atom  27 (R=0.070)  charge=  1.0912  magn=  0.0000
     atom  28 (R=0.070)  charge=  1.1098  magn=  0.0000
     atom  29 (R=0.070)  charge=  1.0444  magn= -0.0000
     atom  30 (R=0.070)  charge=  1.0749  magn=  0.0000
     atom  31 (R=0.070)  charge=  1.0988  magn= -0.0000
     atom  32 (R=0.070)  charge=  1.1033  magn=  0.0000
     atom  33 (R=0.078)  charge=  3.4817  magn= -0.0000

     total cpu time spent up to now is      484.5 secs

     End of self-consistent calculation

 ------ SPIN UP ------------


          k = 0.0000 0.0000 0.0000 ( 24951 PWs)   bands (ev):

   -25.3567 -19.3860 -19.3181 -19.2387 -18.9206 -18.7963 -18.5741 -18.5130
   -18.3400 -16.9361 -16.9337 -16.9283 -16.7430 -16.4795 -16.3674 -16.0312
   -15.8157 -15.0058 -14.6599 -14.5257 -14.2154 -12.8857 -12.7753 -12.7445
   -12.7417 -12.5020 -12.1221 -11.9428 -11.5593 -11.0670 -10.8038 -10.7796
   -10.7749 -10.7707 -10.5163 -10.4906 -10.2772  -9.0184  -8.2767  -7.9854
    -7.9295  -7.9292  -6.9801  -6.7793  -6.6615  -6.6185  -6.5759  -6.5208
    -5.4804  -5.4098  -5.3793  -5.3538  -5.3312  -5.2740  -5.2724  -5.2621
    -5.1604  -5.0572  -5.0045  -4.9929  -4.6638  -4.5319  -4.1193  -4.0307
    -3.9165  -3.8818  -3.2247  -0.9052  -0.8567  -0.7867  -0.7119   0.3680
     0.4909   0.5729   0.6537   0.9328   1.1567   1.3333   1.3934   1.5710

 ------ SPIN DOWN ----------


          k = 0.0000 0.0000 0.0000 ( 24951 PWs)   bands (ev):

   -25.3567 -19.3860 -19.3181 -19.2387 -18.9206 -18.7963 -18.5741 -18.5130
   -18.3400 -16.9361 -16.9337 -16.9283 -16.7430 -16.4795 -16.3674 -16.0312
   -15.8157 -15.0058 -14.6599 -14.5257 -14.2154 -12.8857 -12.7753 -12.7445
   -12.7417 -12.5020 -12.1221 -11.9428 -11.5593 -11.0670 -10.8038 -10.7796
   -10.7749 -10.7707 -10.5163 -10.4906 -10.2772  -9.0184  -8.2767  -7.9854
    -7.9295  -7.9292  -6.9801  -6.7793  -6.6615  -6.6185  -6.5759  -6.5208
    -5.4804  -5.4098  -5.3793  -5.3538  -5.3312  -5.2740  -5.2724  -5.2621
    -5.1604  -5.0572  -5.0045  -4.9929  -4.6638  -4.5319  -4.1193  -4.0307
    -3.9165  -3.8818  -3.2247  -0.9052  -0.8567  -0.7867  -0.7119   0.3680
     0.4909   0.5729   0.6537   0.9328   1.1567   1.3333   1.3934   1.5710

     the spin up/dw Fermi energies are    -1.7848   -1.7848 ev

!    total energy              =    -629.67006929 Ry
     total all-electron energy =     -2586.968092 Ry
     estimated scf accuracy    <       0.00000016 Ry
     smearing contrib. (-TS)   =      -0.00000000 Ry
     internal energy E=F+TS    =    -629.67006929 Ry

     The total energy is F=E-TS. E is the sum of the following terms:
     one-electron contribution =    -781.22097002 Ry
     hartree contribution      =     416.71429740 Ry
     xc contribution           =    -152.22875802 Ry
     ewald contribution        =      93.97661353 Ry
     one-center paw contrib.   =    -206.91125218 Ry

     total magnetization       =     0.00 Bohr mag/cell
     absolute magnetization    =     0.00 Bohr mag/cell

     convergence has been achieved in   9 iterations

     negative rho (up, down):  5.413E-05 5.413E-05

     Forces acting on atoms (cartesian axes, Ry/au):

     atom    1 type  1   force =    -0.03612352   -0.00571821    0.06054033
     atom    2 type  1   force =     0.00082145    0.00110754    0.02584863
     atom    3 type  1   force =     0.00021102   -0.00867954    0.10568891
     atom    4 type  1   force =    -0.05851190   -0.00629065    0.01051453
     atom    5 type  1   force =     0.01466103    0.00037982    0.01666799
     atom    6 type  1   force =     0.00031027   -0.00102735    0.04055445
     atom    7 type  1   force =    -0.00124358    0.00078665   -0.04513534
     atom    8 type  1   force =    -0.01771102    0.00035021    0.01852829
     atom    9 type  1   force =     0.00070169   -0.02335170    0.02678296
     atom   10 type  1   force =    -0.05660325    0.00303938    0.04650345
     atom   11 type  1   force =    -0.00145534   -0.00179015   -0.08249541
     atom   12 type  1   force =     0.00066681    0.02493775    0.02800758
     atom   13 type  1   force =    -0.00039137   -0.01556105   -0.01816293
     atom   14 type  1   force =     0.03091938    0.01491540   -0.10313043
     atom   15 type  1   force =    -0.00135592    0.00231564    0.06053929
     atom   16 type  1   force =    -0.00043449    0.01919442   -0.02059205
     atom   17 type  1   force =    -0.00049211    0.01481302    0.01680615
     atom   18 type  1   force =     0.00186560    0.00055572   -0.02293424
     atom   19 type  1   force =    -0.00109129   -0.00074646   -0.04371566
     atom   20 type  1   force =    -0.00047833   -0.01822785    0.01911101
     atom   21 type  1   force =     0.00059710    0.01887775   -0.01911880
     atom   22 type  1   force =    -0.00178378    0.00057590    0.02397871
     atom   23 type  1   force =     0.00104906   -0.00069369    0.04434758
     atom   24 type  1   force =     0.00044775   -0.01987481   -0.02004467
     atom   25 type  1   force =    -0.01443116    0.00037712   -0.01678146
     atom   26 type  1   force =    -0.00107043   -0.00117594    0.01375660
     atom   27 type  1   force =     0.00113165    0.00072170    0.04373564
     atom   28 type  1   force =     0.01731291    0.00034742   -0.01879556
     atom   29 type  1   force =     0.05255875    0.01092760   -0.05281530
     atom   30 type  1   force =    -0.00076496    0.00075406   -0.02353904
     atom   31 type  1   force =     0.00679754    0.00150960   -0.07181765
     atom   32 type  1   force =     0.02670804   -0.00019306    0.01150204
     atom   33 type  2   force =     0.03718240   -0.01315622   -0.05433559

     Total force =     0.291169     Total SCF correction =     0.000629
     Energy error            =      2.7E-02 Ry
     Gradient error          =      1.1E-01 Ry/Bohr

     number of scf cycles    =   5
     number of bfgs steps    =   3

     energy             old  =    -629.6431120640 Ry
     energy             new  =    -629.6700692924 Ry

     CASE: energy            _new < energy            _old

     new trust radius        =       0.1767125631 bohr
     new conv_thr            =       0.0000010000 Ry


ATOMIC_POSITIONS (angstrom)
C             4.4422760440        5.2937732214        6.3749669328
C             3.3449560342        1.6321619438       13.2689123089
C             3.3615283434        5.1841354264        8.7321332499
C             2.1932000114        5.2459102575        6.4841984348
C             4.6396065956        1.5808378973       18.1333059335
C             3.3456361085        5.1825404128       11.3487857189
C             3.3927487382        1.5998888152       15.9783192143
C             2.1782268667        1.5807665625       18.1378130816
C             3.3379968914        3.9476141358       11.9925882976
C             6.9731715940        5.2340910826        5.1509467339
C             3.3589504723        5.1910154137        9.9253857364
C             3.3381233015        6.4138383699       11.9966225417
C            -0.0741188220        3.9479714586        0.3070551859
C             3.3523905004        5.1845117816        7.2413697782
C            -0.1001851359        5.1929129134        2.4462447348
C            -0.0737812794        6.4123381861        0.3043943712
C            -0.0733060075        2.8635382639       24.2810367564
C             3.4072952936        1.5858927118       17.4665513808
C            -0.0975502450        1.6204125246       22.1253583962
C            -0.0736327611        0.4017423176       24.2849067795
C             3.3388043115        2.8656833181       12.6010186568
C            -0.1392129246        1.5859063804       19.4153521885
[...]
C            -0.0930875904        0.4247835789       24.2836627848
C             3.4217228903        2.8654580258       12.6385590370
C            -0.1491821546        1.6266797429       19.4396953531
C             3.4138599622        1.6337493489       14.7833132067
C             3.4218666243        0.4110114059       12.6390686833
C             5.7193450041        1.6249701162       18.7621721564
C            -0.0880909829        5.1995301263        0.9716407549
C            -0.1362443804        1.6340147327       20.9060929941
C             1.0742316801        1.6248706241       18.7537667132
C             5.5853051972        5.2028877100        5.6348772752
C            -0.0989181545        1.6507896050       23.6033732633
C            -0.1125305929        5.1986122472        3.6688197928
C             0.9794714112        5.2058843080        5.9133360451
O             4.3392112765        5.2030711979        4.9075549608
End final coordinates



     Writing config-only to output data dir ./pwscf.save/

     lsda relaxation :  a final configuration with zero
                        absolute magnetization has been found

     the program is checking if it is really the minimum energy structure
     by performing a new scf iteration without any "electronic" history

     Initial potential from superposition of free atoms

     starting charge     133.9987, renormalised to     134.0000

     negative rho (up, down):  1.564E-07 1.564E-07

     total cpu time spent up to now is     3551.7 secs

     Self-consistent Calculation

     iteration #  1     ecut=    50.00 Ry     beta= 0.30
     Davidson diagonalization with overlap
     c_bands:  1 eigenvalues not converged
     c_bands:  1 eigenvalues not converged
     ethr =  1.00E-06,  avg # of iterations = 20.0

     negative rho (up, down):  5.986E-07 5.986E-07

     total cpu time spent up to now is     3570.2 secs

     total energy              =    -629.98472123 Ry
     estimated scf accuracy    <       4.01535171 Ry

     total magnetization       =    -0.00 Bohr mag/cell
     absolute magnetization    =     0.03 Bohr mag/cell

     iteration #  2     ecut=    50.00 Ry     beta= 0.30
     Davidson diagonalization with overlap
     ethr =  3.00E-03,  avg # of iterations =  1.0

     negative rho (up, down):  8.582E-06 8.580E-06

     total cpu time spent up to now is     3577.3 secs

     total energy              =    -629.55910523 Ry
     estimated scf accuracy    <       1.08909561 Ry

     total magnetization       =     0.00 Bohr mag/cell
     absolute magnetization    =     0.02 Bohr mag/cell

     iteration #  3     ecut=    50.00 Ry     beta= 0.30
     Davidson diagonalization with overlap
     ethr =  8.13E-04,  avg # of iterations =  2.0

     negative rho (up, down):  1.223E-05 1.223E-05

     total cpu time spent up to now is     3584.7 secs

     total energy              =    -629.72316760 Ry
     estimated scf accuracy    <       0.06176333 Ry

     total magnetization       =    -0.00 Bohr mag/cell
     absolute magnetization    =     0.01 Bohr mag/cell

     iteration #  4     ecut=    50.00 Ry     beta= 0.30
     Davidson diagonalization with overlap
     c_bands:  1 eigenvalues not converged
     c_bands:  1 eigenvalues not converged
     ethr =  4.61E-05,  avg # of iterations = 20.0

     negative rho (up, down):  2.053E-05 2.052E-05

     total cpu time spent up to now is     3594.1 secs

     total energy              =    -629.72410879 Ry
     estimated scf accuracy    <       0.01776334 Ry

     total magnetization       =     0.00 Bohr mag/cell
     absolute magnetization    =     0.01 Bohr mag/cell

     iteration #  5     ecut=    50.00 Ry     beta= 0.30
     Davidson diagonalization with overlap
     ethr =  1.33E-05,  avg # of iterations =  4.0

     negative rho (up, down):  2.742E-05 2.742E-05

     total cpu time spent up to now is     3601.6 secs

     total energy              =    -629.72505473 Ry
     estimated scf accuracy    <       0.00368263 Ry

     total magnetization       =     0.00 Bohr mag/cell
     absolute magnetization    =     0.01 Bohr mag/cell

     iteration #  6     ecut=    50.00 Ry     beta= 0.30
     Davidson diagonalization with overlap
     ethr =  2.75E-06,  avg # of iterations =  5.0

     negative rho (up, down):  5.255E-05 5.254E-05

     total cpu time spent up to now is     3609.3 secs

     total energy              =    -629.72426582 Ry
     estimated scf accuracy    <       0.00108642 Ry

     total magnetization       =     0.00 Bohr mag/cell
     absolute magnetization    =     0.01 Bohr mag/cell

     iteration #  7     ecut=    50.00 Ry     beta= 0.30
     Davidson diagonalization with overlap
     ethr =  8.11E-07,  avg # of iterations =  2.0

     negative rho (up, down):  5.586E-05 5.585E-05

     total cpu time spent up to now is     3617.1 secs

     total energy              =    -629.72426176 Ry
     estimated scf accuracy    <       0.00005319 Ry

     total magnetization       =     0.00 Bohr mag/cell
     absolute magnetization    =     0.00 Bohr mag/cell

     iteration #  8     ecut=    50.00 Ry     beta= 0.30
     Davidson diagonalization with overlap
     ethr =  3.97E-08,  avg # of iterations =  4.5

     negative rho (up, down):  5.724E-05 5.723E-05

     total cpu time spent up to now is     3625.4 secs

     total energy              =    -629.72423400 Ry
     estimated scf accuracy    <       0.00000937 Ry

     total magnetization       =    -0.00 Bohr mag/cell
     absolute magnetization    =     0.00 Bohr mag/cell

     iteration #  9     ecut=    50.00 Ry     beta= 0.30
     Davidson diagonalization with overlap
     ethr =  6.99E-09,  avg # of iterations =  4.0

     negative rho (up, down):  5.818E-05 5.818E-05

     total cpu time spent up to now is     3633.8 secs

     total energy              =    -629.72421351 Ry
     estimated scf accuracy    <       0.00000288 Ry

     total magnetization       =    -0.00 Bohr mag/cell
     absolute magnetization    =     0.00 Bohr mag/cell

     iteration # 10     ecut=    50.00 Ry     beta= 0.30
     Davidson diagonalization with overlap
     ethr =  2.15E-09,  avg # of iterations =  2.0

     negative rho (up, down):  5.807E-05 5.807E-05

     total cpu time spent up to now is     3641.7 secs

     total energy              =    -629.72421014 Ry
     estimated scf accuracy    <       0.00000028 Ry

     total magnetization       =     0.00 Bohr mag/cell
     absolute magnetization    =     0.00 Bohr mag/cell

     iteration # 11     ecut=    50.00 Ry     beta= 0.30
     Davidson diagonalization with overlap
     ethr =  2.07E-10,  avg # of iterations =  4.0

     negative rho (up, down):  5.813E-05 5.812E-05

     total cpu time spent up to now is     3650.1 secs

     total energy              =    -629.72420707 Ry
     estimated scf accuracy    <       0.00000008 Ry

     total magnetization       =    -0.00 Bohr mag/cell
     absolute magnetization    =     0.00 Bohr mag/cell

     iteration # 12     ecut=    50.00 Ry     beta= 0.30
     Davidson diagonalization with overlap
     ethr =  5.61E-11,  avg # of iterations =  3.0

     negative rho (up, down):  5.817E-05 5.817E-05

     total cpu time spent up to now is     3657.4 secs

     total energy              =    -629.72420525 Ry
     estimated scf accuracy    <       0.00000002 Ry

     total magnetization       =    -0.00 Bohr mag/cell
     absolute magnetization    =     0.00 Bohr mag/cell

     iteration # 13     ecut=    50.00 Ry     beta= 0.30
     Davidson diagonalization with overlap
     ethr =  1.45E-11,  avg # of iterations =  3.0

     negative rho (up, down):  5.810E-05 5.810E-05

     Magnetic moment per site  (integrated on atomic sphere of radius R)
     atom   1 (R=0.070)  charge=  1.0752  magn= -0.0000
     atom   2 (R=0.070)  charge=  1.0750  magn= -0.0000
     atom   3 (R=0.070)  charge=  1.1075  magn= -0.0000
     atom   4 (R=0.070)  charge=  1.1055  magn= -0.0000
     atom   5 (R=0.070)  charge=  1.1095  magn= -0.0000
     atom   6 (R=0.070)  charge=  1.0754  magn=  0.0000
     atom   7 (R=0.070)  charge=  1.1041  magn= -0.0000
     atom   8 (R=0.070)  charge=  1.1094  magn= -0.0000
     atom   9 (R=0.070)  charge=  1.1102  magn= -0.0000
     atom  10 (R=0.070)  charge=  1.0775  magn= -0.0000
     atom  11 (R=0.070)  charge=  1.1048  magn=  0.0000
     atom  12 (R=0.070)  charge=  1.1102  magn= -0.0000
     atom  13 (R=0.070)  charge=  1.1102  magn=  0.0000
     atom  14 (R=0.070)  charge=  1.0796  magn=  0.0000
     atom  15 (R=0.070)  charge=  1.1042  magn= -0.0000
     atom  16 (R=0.070)  charge=  1.1099  magn= -0.0000
     atom  17 (R=0.070)  charge=  1.1102  magn= -0.0000
     atom  18 (R=0.070)  charge=  1.0749  magn=  0.0000
     atom  19 (R=0.070)  charge=  1.1033  magn= -0.0000
     atom  20 (R=0.070)  charge=  1.1103  magn=  0.0000
     atom  21 (R=0.070)  charge=  1.1097  magn=  0.0000
     atom  22 (R=0.070)  charge=  1.0744  magn= -0.0000
     atom  23 (R=0.070)  charge=  1.1048  magn=  0.0000
     atom  24 (R=0.070)  charge=  1.1108  magn=  0.0000
     atom  25 (R=0.070)  charge=  1.1096  magn=  0.0000
     atom  26 (R=0.070)  charge=  1.0749  magn= -0.0000
     atom  27 (R=0.070)  charge=  1.1037  magn= -0.0000
     atom  28 (R=0.070)  charge=  1.1094  magn=  0.0000
     atom  29 (R=0.070)  charge=  1.0711  magn=  0.0000
     atom  30 (R=0.070)  charge=  1.0748  magn=  0.0000
     atom  31 (R=0.070)  charge=  1.1051  magn=  0.0000
     atom  32 (R=0.070)  charge=  1.1079  magn=  0.0000
     atom  33 (R=0.078)  charge=  3.4836  magn=  0.0000

     total cpu time spent up to now is     3664.7 secs

     End of self-consistent calculation

 ------ SPIN UP ------------


          k = 0.0000 0.0000 0.0000 ( 24951 PWs)   bands (ev):

   -25.9747 -19.3387 -19.2526 -19.1665 -18.9165 -18.7755 -18.5657 -18.4393
   -18.2708 -16.9812 -16.9217 -16.8601 -16.7620 -16.4910 -16.4083 -16.0005
   -15.9311 -14.9646 -14.6295 -14.4496 -14.1398 -13.2297 -12.6767 -12.6174
   -12.5594 -12.3588 -12.0628 -11.8711 -11.5184 -11.0320 -10.9517 -10.7212
   -10.6616 -10.6393 -10.6043 -10.5050 -10.3216  -9.2991  -8.2802  -7.9667
    -7.9079  -7.8462  -7.3617  -6.8183  -6.7123  -6.6525  -6.5962  -6.5331
    -5.5126  -5.4256  -5.4062  -5.3700  -5.3359  -5.3178  -5.2570  -5.1932
    -5.1618  -5.1020  -5.0612  -4.9777  -4.6682  -4.5417  -4.1585  -4.0909
    -3.9149  -3.8929  -3.3859  -0.8761  -0.7992  -0.7251  -0.5013   0.4490
     0.5828   0.6997   0.7244   1.1046   1.3262   1.4682   1.5588   1.6119

 ------ SPIN DOWN ----------


          k = 0.0000 0.0000 0.0000 ( 24951 PWs)   bands (ev):

   -25.9746 -19.3387 -19.2526 -19.1665 -18.9165 -18.7755 -18.5657 -18.4393
   -18.2708 -16.9812 -16.9217 -16.8601 -16.7620 -16.4910 -16.4082 -16.0005
   -15.9311 -14.9646 -14.6295 -14.4496 -14.1398 -13.2297 -12.6767 -12.6174
   -12.5594 -12.3588 -12.0628 -11.8711 -11.5184 -11.0320 -10.9517 -10.7212
   -10.6616 -10.6393 -10.6044 -10.5050 -10.3216  -9.2990  -8.2801  -7.9667
    -7.9079  -7.8462  -7.3616  -6.8183  -6.7123  -6.6525  -6.5962  -6.5331
    -5.5126  -5.4256  -5.4062  -5.3700  -5.3359  -5.3177  -5.2570  -5.1932
    -5.1618  -5.1020  -5.0612  -4.9777  -4.6682  -4.5417  -4.1585  -4.0909
    -3.9149  -3.8929  -3.3859  -0.8761  -0.7992  -0.7251  -0.5013   0.4490
     0.5829   0.6997   0.7244   1.1046   1.3262   1.4682   1.5589   1.6120

     the spin up/dw Fermi energies are    -1.8261   -1.8261 ev

!    total energy              =    -629.72420434 Ry
     total all-electron energy =     -2587.022227 Ry
     estimated scf accuracy    <          5.1E-09 Ry
     smearing contrib. (-TS)   =      -0.00000000 Ry
     internal energy E=F+TS    =    -629.72420434 Ry

     The total energy is F=E-TS. E is the sum of the following terms:
     one-electron contribution =    -780.81826148 Ry
     hartree contribution      =     416.50526306 Ry
     xc contribution           =    -152.32018286 Ry
     ewald contribution        =      93.81823728 Ry
     one-center paw contrib.   =    -206.90926034 Ry

     total magnetization       =    -0.00 Bohr mag/cell
     absolute magnetization    =     0.00 Bohr mag/cell

     convergence has been achieved in  13 iterations

     negative rho (up, down):  5.810E-05 5.810E-05

     Forces acting on atoms (cartesian axes, Ry/au):

     atom    1 type  1   force =     0.00003586   -0.00012777   -0.00001934
     atom    2 type  1   force =    -0.00030442    0.00016167    0.00049251
     atom    3 type  1   force =     0.00011840   -0.00024690   -0.00028134
     atom    4 type  1   force =     0.00035741   -0.00028769   -0.00020957
     atom    5 type  1   force =     0.00017967   -0.00007049    0.00020580
     atom    6 type  1   force =     0.00016119    0.00006800    0.00010617
     atom    7 type  1   force =     0.00028946    0.00035071    0.00041952
     atom    8 type  1   force =     0.00024386   -0.00006663   -0.00011182
     atom    9 type  1   force =     0.00018947   -0.00031907    0.00030529
     atom   10 type  1   force =    -0.00012079    0.00010284   -0.00034128
     atom   11 type  1   force =    -0.00018661   -0.00048017    0.00044529
     atom   12 type  1   force =     0.00018894    0.00081416   -0.00023786
     atom   13 type  1   force =    -0.00018630   -0.00028563    0.00041752
     atom   14 type  1   force =    -0.00000994   -0.00063856   -0.00006727
     atom   15 type  1   force =     0.00039678    0.00001452    0.00006805
     atom   16 type  1   force =    -0.00022161   -0.00016877    0.00030778
     atom   17 type  1   force =    -0.00009159   -0.00029472    0.00023263
     atom   18 type  1   force =     0.00028745    0.00006582   -0.00008978
     atom   19 type  1   force =    -0.00039248    0.00001364   -0.00081284
     atom   20 type  1   force =    -0.00008520    0.00006301    0.00008087
     atom   21 type  1   force =    -0.00013800   -0.00001634    0.00009239
     atom   22 type  1   force =     0.00026601    0.00026870   -0.00041862
     atom   23 type  1   force =    -0.00022656    0.00026127    0.00017961
     atom   24 type  1   force =    -0.00015678   -0.00023008   -0.00007561
     atom   25 type  1   force =    -0.00054649    0.00017310    0.00080091
     atom   26 type  1   force =     0.00001995    0.00003041    0.00010043
     atom   27 type  1   force =     0.00015349    0.00011225   -0.00037560
     atom   28 type  1   force =     0.00099013    0.00018079    0.00053340
     atom   29 type  1   force =     0.00012945    0.00028781   -0.00024061
     atom   30 type  1   force =    -0.00020989    0.00001054   -0.00029452
     atom   31 type  1   force =    -0.00075894    0.00019193   -0.00029946
     atom   32 type  1   force =    -0.00027500    0.00002323   -0.00072117
     atom   33 type  2   force =    -0.00009690    0.00003842   -0.00019146

     Total force =     0.003122     Total SCF correction =     0.000066
     Energy error            =      1.7E-05 Ry
     Gradient error          =      9.9E-04 Ry/Bohr

     bfgs converged in  46 scf cycles and  44 bfgs steps
     (criteria: energy <  1.0E-04 Ry, force <  1.0E-03 Ry/Bohr)

     End of BFGS Geometry Optimization

     Final energy             =    -629.7242043422 Ry

     File ./pwscf.bfgs deleted, as requested
Begin final coordinates

ATOMIC_POSITIONS (angstrom)
C             4.4025374677        5.2072930844        6.3412106035
C             3.4203481853        1.6379780789       13.3174869682
C             3.4086181495        5.2055446259        8.6638800905
C             2.0524171721        5.2097756612        6.5372194960
C             4.6255043336        1.6252215530       18.1617139712
C             3.4219035862        5.1872081782       11.3606071961
C             3.4045732014        1.6271999902       16.0144255156
C             2.1693963415        1.6251482742       18.1560499191
C             3.4215208703        3.9582443709       12.0364616770
C             6.8915296039        5.2019653251        5.1310548116
C             3.4165303300        5.1964584892        9.8948521742
C             3.4215939208        6.4120818916       12.0431641696
C            -0.0891605615        3.9740789158        0.2897996297
C             3.3178113935        5.2102497823        7.2128493532
C            -0.0975545237        5.1979315378        2.4382985665
C            -0.0889190084        6.4272270047        0.2939501793
C            -0.0932619815        2.8803191844       24.2777611962
C             3.3989473040        1.6251608772       17.4810553789
C            -0.1152959748        1.6436004050       22.1372260829
C            -0.0930875904        0.4247835789       24.2836627848
C             3.4217228903        2.8654580258       12.6385590370
C            -0.1491821546        1.6266797429       19.4396953531
C             3.4138599622        1.6337493489       14.7833132067
C             3.4218666243        0.4110114059       12.6390686833
C             5.7193450041        1.6249701162       18.7621721564
C            -0.0880909829        5.1995301263        0.9716407549
C            -0.1362443804        1.6340147327       20.9060929941
C             1.0742316801        1.6248706241       18.7537667132
C             5.5853051972        5.2028877100        5.6348772752
C            -0.0989181545        1.6507896050       23.6033732633
C            -0.1125305929        5.1986122472        3.6688197928
C             0.9794714112        5.2058843080        5.9133360451
O             4.3392112765        5.2030711979        4.9075549608
End final coordinates



     Writing all to output data dir ./pwscf.save/

     init_run     :      9.76s CPU     10.60s WALL (       1 calls)
     electrons    :   2916.20s CPU   2961.99s WALL (      47 calls)
     update_pot   :    306.55s CPU    307.90s WALL (      45 calls)
     forces       :    279.90s CPU    288.22s WALL (      47 calls)

     Called by init_run:
     wfcinit      :      1.93s CPU      1.98s WALL (       1 calls)
     potinit      :      7.85s CPU      8.16s WALL (       2 calls)
     hinit0       :      3.29s CPU      3.72s WALL (       1 calls)

     Called by electrons:
     c_bands      :   1428.18s CPU   1445.72s WALL (     375 calls)
     sum_band     :    529.53s CPU    538.03s WALL (     375 calls)
     v_of_rho     :    440.09s CPU    447.12s WALL (     400 calls)
     newd         :    157.99s CPU    160.54s WALL (     400 calls)
     PAW_pot      :    384.19s CPU    385.46s WALL (     445 calls)
     mix_rho      :     64.93s CPU     66.46s WALL (     375 calls)

     Called by c_bands:
     init_us_2    :     16.38s CPU     16.69s WALL (    1686 calls)
     init_us_2:cp :     16.33s CPU     16.66s WALL (    1686 calls)
     regterg      :   1395.58s CPU   1412.36s WALL (     750 calls)

     Called by *egterg:
     rdiaghg      :     51.09s CPU     51.31s WALL (    3173 calls)
     h_psi        :   1103.56s CPU   1117.64s WALL (    3311 calls)
     s_psi        :     54.33s CPU     54.61s WALL (    3311 calls)
     g_psi        :      2.73s CPU      2.77s WALL (    2559 calls)

     Called by h_psi:
     h_psi:calbec :     56.32s CPU     56.65s WALL (    3311 calls)
     vloc_psi     :    978.63s CPU    991.80s WALL (    3311 calls)
     add_vuspsi   :     59.87s CPU     60.35s WALL (    3311 calls)

     General routines
     calbec       :     84.41s CPU     84.90s WALL (    4527 calls)
     fft          :    326.74s CPU    335.46s WALL (    8863 calls)
     ffts         :     17.10s CPU     17.81s WALL (    1550 calls)
     fftw         :    942.55s CPU    953.50s WALL (  184886 calls)
     interpolate  :     45.05s CPU     46.01s WALL (     800 calls)

     Parallel routines

     PWSCF        :      1h 0m CPU      1h 1m WALL


   This run was terminated on:  22: 7: 3   6May2025            

=------------------------------------------------------------------------------=
   JOB DONE.
=------------------------------------------------------------------------------=
