ITEM: TIMESTEP
0
ITEM: NUMBER OF ATOMS
162
ITEM: BOX BOUNDS xy xz yz pp pp pp
-6.7755000000000001e+00 1.3552000000000000e+01 -6.7755000000000001e+00
0.0000000000000000e+00 1.1735510246683001e+01 0.0000000000000000e+00
0.0000000000000000e+00 2.2149999999999999e+01 0.0000000000000000e+00
ITEM: ATOMS id type x y z 
8 1 -2.486 5.297 9.849 
87 1 3.001 4.231 10.696 
90 1 2.733 5.481 9.824 
109 1 -2.486 5.297 0.765 
158 1 2.733 5.481 0.79 
11 1 4.24 4.139 20.131 
14 1 3.031 4.094 19.728 
18 1 1.299 5.827 18.554 
33 1 2.266 4.151 20.924 
43 1 4.343 3.96 21.647 
47 1 3.32 5.732 17.88 
52 1 4.24 4.139 12.633 
76 1 2.552 4.924 14.209 
85 1 4.343 3.96 11.117 
89 1 3.32 5.732 14.883 
91 1 1.036 5.037 11.84 
102 1 3.031 4.094 13.035 
105 1 1.299 5.827 14.209 
114 1 2.266 4.151 11.84 
150 1 2.552 4.924 18.554 
156 1 3.001 4.231 22.068 
159 1 1.036 5.037 20.924 
5 1 -5.049 10.63 8.653 
9 1 -3.317 8.897 7.479 
19 1 -1.707 7.414 10.572 
21 1 -2.66 8.795 10.993 
23 1 -3.31 7.532 6.805 
25 1 -4.284 10.573 9.849 
32 1 1.503 6.367 0.79 
36 1 -1.869 7.426 9.056 
38 1 -2.209 6.086 8.653 
54 1 0.3 8.576 10.696 
57 1 1.291 8.001 9.824 
60 1 -1.707 7.414 0.042 
65 1 -3.31 7.532 3.808 
78 1 -1.869 7.426 1.558 
80 1 -2.566 8.842 1.961 
84 1 -4.57 9.799 3.135 
99 1 -3.054 9.687 0.765 
100 1 -2.96 6.142 3.135 
107 1 -5.049 10.63 1.961 
110 1 -3.317 8.897 3.135 
111 1 0.642 5.929 10.696 
113 1 1.503 6.367 9.824 
119 1 -4.284 10.573 0.765 
127 1 -2.209 6.086 1.961 
131 1 -2.318 6.148 10.993 
138 1 1.291 8.001 0.79 
142 1 -2.566 8.842 8.653 
145 1 -4.57 9.799 7.479 
151 1 -5.019 10.493 10.993 
154 1 -3.054 9.687 9.849 
155 1 -2.96 6.142 7.479 
161 2 -2.124 9.055 6.863 
162 3 -1.148 9.055 6.863 
12 1 2.53 7.1 17.202 
17 1 0.468 9.427 20.924 
24 1 -3.52 8.357 11.865 
27 1 -0.31 7.31 21.647 
29 1 0.642 5.929 22.068 
31 1 1.292 7.192 17.88 
44 1 -0.148 7.298 20.131 
46 1 0.191 8.638 19.728 
51 1 -0.31 7.31 11.117 
53 1 2.53 7.1 15.561 
56 1 1.292 7.192 14.883 
63 1 -2.318 6.148 21.771 
66 1 -3.309 6.723 20.899 
70 1 -0.148 7.298 12.633 
72 1 0.548 5.882 13.035 
92 1 0.942 8.582 14.209 
95 1 -5.019 10.493 21.771 
98 1 -4.751 9.243 20.899 
104 1 0.468 9.427 11.84 
116 1 -2.66 8.795 21.771 
118 1 -3.52 8.357 20.899 
122 1 0.191 8.638 13.035 
133 1 -3.309 6.723 11.865 
136 1 0.3 8.576 22.068 
147 1 0.548 5.882 19.728 
153 1 -4.751 9.243 11.865 
160 1 0.942 8.582 18.554 
1 1 7.976 4.694 10.572 
4 1 9.274 4.77 10.993 
20 1 8.034 4.861 9.056 
42 1 9.55 5.41 7.479 
67 1 10.043 4.578 0.765 
77 1 7.976 4.694 0.042 
94 1 8.035 4.861 1.558 
96 1 9.278 4.635 1.961 
121 1 4.688 5.417 10.696 
130 1 9.55 5.41 3.135 
134 1 10.043 4.578 9.849 
152 1 9.278 4.635 8.653 
45 1 4.688 5.417 22.068 
55 1 4.788 5.329 13.035 
106 1 9.274 4.77 21.771 
137 1 4.788 5.329 19.728 
2 1 7.294 10.585 9.056 
3 1 9.004 7.624 6.127 
6 1 8.556 6.347 6.805 
16 1 2.314 8.72 0.79 
22 1 7.166 6.156 8.653 
26 1 7.226 8.565 7.479 
35 1 7.191 10.764 10.572 
37 1 6.846 9.307 10.993 
39 1 8.214 8.992 6.805 
41 1 6.677 7.002 9.849 
48 1 3.775 6.213 0.79 
61 1 7.294 10.585 1.558 
62 1 9.004 7.624 4.487 
64 1 6.747 9.395 1.961 
68 1 7.437 6.931 3.135 
71 1 4.29 8.493 10.696 
74 1 3.567 7.818 9.824 
81 1 8.556 6.347 3.808 
83 1 6.47 8.606 0.765 
93 1 7.191 10.764 0.042 
97 1 8.214 8.992 3.808 
101 1 2.261 9.954 10.696 
103 1 2.314 8.72 9.824 
117 1 7.166 6.156 1.961 
120 1 7.226 8.565 3.135 
123 1 3.775 6.213 9.824 
129 1 6.677 7.002 0.765 
132 1 6.747 9.395 8.653 
135 1 7.437 6.931 7.479 
141 1 7.244 6.231 10.993 
144 1 6.47 8.606 9.849 
148 1 3.567 7.818 0.79 
7 1 9.22 6.004 11.865 
10 1 3.558 10.029 21.647 
13 1 2.261 9.954 22.068 
15 1 2.978 8.376 17.88 
28 1 3.5 9.862 20.131 
30 1 4.369 8.568 19.728 
34 1 4.308 6.159 18.554 
40 1 7.76 8.511 11.865 
49 1 4.857 7.722 20.924 
50 1 1.984 9.314 18.554 
58 1 1.491 10.146 11.84 
59 1 4.097 7.793 14.209 
69 1 3.558 10.029 11.117 
73 1 2.978 8.376 14.883 
75 1 5.064 6.118 11.84 
79 1 7.244 6.231 21.771 
82 1 7.967 6.906 20.899 
86 1 3.5 9.862 12.633 
88 1 2.256 10.089 13.035 
108 1 9.22 6.004 20.899 
112 1 4.369 8.568 13.035 
115 1 4.308 6.159 14.209 
124 1 4.857 7.722 11.84 
125 1 1.984 9.314 14.209 
126 1 6.846 9.307 21.771 
128 1 7.76 8.511 20.899 
139 1 1.491 10.146 20.924 
140 1 4.097 7.793 18.554 
143 1 7.967 6.906 11.865 
146 1 4.29 8.493 22.068 
149 1 5.064 6.118 20.924 
157 1 2.256 10.089 19.728 
ITEM: TIMESTEP
10
ITEM: NUMBER OF ATOMS
162
ITEM: BOX BOUNDS xy xz yz pp pp pp
-6.7755000000000001e+00 1.3552000000000000e+01 -6.7755000000000001e+00
0.0000000000000000e+00 1.1735510246683001e+01 0.0000000000000000e+00
0.0000000000000000e+00 2.2149999999999999e+01 0.0000000000000000e+00
ITEM: ATOMS id type x y z 
8 1 -2.40279 5.3632 9.85072 
87 1 2.99797 4.25672 10.6529 
90 1 2.64936 5.46061 9.78466 
109 1 -2.40237 5.33217 0.765088 
158 1 2.64963 5.46066 0.828636 
11 1 4.2882 4.18032 20.1622 
14 1 2.93793 4.11776 19.6984 
18 1 1.3342 5.86486 18.5874 
33 1 2.15543 4.20587 20.9102 
43 1 4.31502 4.13298 21.5804 
47 1 3.25421 5.79785 17.8341 
52 1 4.28552 4.18554 12.6006 
76 1 2.43388 4.92423 14.1893 
85 1 4.31593 4.1339 11.1853 
89 1 3.25752 5.79909 14.93 
91 1 0.99849 5.06314 11.8562 
102 1 2.94027 4.11905 13.0656 
105 1 1.33054 5.86399 14.1732 
114 1 2.15732 4.20488 11.8543 
150 1 2.43403 4.91921 18.5736 
156 1 2.9971 4.25595 22.1112 
159 1 0.99788 5.06471 20.9075 
5 1 -4.93906 10.597 8.59882 
9 1 -3.18134 8.89954 7.42669 
19 1 -1.74865 7.45856 10.5585 
21 1 -2.60171 8.77284 10.9082 
23 1 -3.31665 7.50638 6.83799 
25 1 -4.17839 10.5097 9.83109 
32 1 1.58436 6.34708 0.763271 
36 1 -1.89214 7.48937 9.08266 
38 1 -2.15697 6.19861 8.6459 
54 1 0.293296 8.51806 10.6403 
57 1 1.34973 7.98418 9.79414 
60 1 -1.74618 7.48363 0.0689483 
65 1 -3.31585 7.53828 3.78459 
78 1 -1.89718 7.52221 1.54405 
80 1 -2.53362 8.77943 1.8355 
84 1 -4.46696 9.82819 3.10636 
99 1 -3.01785 9.66778 0.785591 
100 1 -2.92518 6.25818 3.18729 
107 1 -4.95807 10.6033 1.98739 
110 1 -3.36876 8.87341 3.12261 
111 1 0.599155 5.96266 10.8227 
113 1 1.58464 6.3473 9.85097 
119 1 -4.16911 10.5186 0.788104 
127 1 -2.14851 6.2024 1.98908 
131 1 -2.31379 6.19213 11.0218 
138 1 1.3578 7.9787 0.826428 
142 1 -2.54557 8.76928 8.81296 
145 1 -4.54327 9.79905 7.48657 
151 1 -5.00535 10.4433 11.0394 
154 1 -3.04047 9.67015 9.84667 
155 1 -2.92696 6.24237 7.4326 
161 2 -2.16098 9.08046 6.87508 
162 3 -1.13306 9.06439 6.82957 
12 1 2.56714 7.08057 17.148 
17 1 0.384247 9.39625 20.9253 
24 1 -3.54016 8.36799 11.8425 
27 1 -0.272995 7.23083 21.6236 
29 1 0.599255 5.96321 21.9436 
31 1 1.29873 7.16894 17.9188 
44 1 -0.121409 7.18999 20.1443 
46 1 0.129705 8.52792 19.6941 
51 1 -0.272343 7.23841 11.1271 
53 1 2.5678 7.07926 15.6128 
56 1 1.2982 7.1666 14.8434 
63 1 -2.30855 6.20007 21.7189 
66 1 -3.37226 6.74044 20.8663 
70 1 -0.128646 7.18508 12.6232 
72 1 0.537609 5.93149 12.9194 
92 1 0.919116 8.46578 14.2708 
95 1 -5.0208 10.4637 21.7259 
98 1 -4.67 9.261 20.857 
104 1 0.382085 9.40201 11.8265 
116 1 -2.60879 8.7614 21.8808 
118 1 -3.60478 8.37664 20.9166 
122 1 0.12813 8.53246 13.0792 
133 1 -3.37083 6.76772 11.8939 
136 1 0.286211 8.53013 22.124 
147 1 0.533119 5.93967 19.8426 
153 1 -4.67034 9.2024 11.892 
160 1 0.912446 8.46286 18.4961 
1 1 7.88062 4.90912 10.5391 
4 1 9.1889 4.79415 11.0403 
20 1 7.88853 4.95093 9.07278 
42 1 9.46088 5.43217 7.42978 
67 1 9.97783 4.52668 0.756306 
77 1 7.88941 4.903 0.0593394 
94 1 7.87861 4.93056 1.56038 
96 1 9.22153 4.63993 2.00968 
121 1 4.68439 5.41544 10.735 
130 1 9.46653 5.42463 3.18674 
134 1 9.98653 4.53655 9.85476 
152 1 9.20209 4.64631 8.60286 
45 1 4.68664 5.41384 22.0338 
55 1 4.81077 5.46718 13.0451 
106 1 9.18462 4.78388 21.7304 
137 1 4.81152 5.46696 19.7136 
2 1 7.22847 10.559 9.0844 
3 1 8.97463 7.65969 6.08134 
6 1 8.5107 6.37981 6.83234 
16 1 2.34576 8.69389 0.83856 
22 1 7.16844 6.19684 8.72135 
26 1 7.17571 8.44534 7.54128 
35 1 7.22186 10.5997 10.5267 
37 1 6.86144 9.2844 10.996 
39 1 8.23284 8.92274 6.77759 
41 1 6.73955 7.01935 9.82609 
48 1 3.7285 6.35801 0.833413 
61 1 7.25011 10.5407 1.53126 
62 1 8.96786 7.63964 4.54894 
64 1 6.72055 9.25504 1.97387 
68 1 7.40938 6.96025 3.053 
71 1 4.28224 8.53712 10.7744 
74 1 3.62136 7.79622 9.8467 
81 1 8.51674 6.39264 3.78331 
83 1 6.54116 8.4745 0.786502 
93 1 7.20889 10.5979 0.112218 
97 1 8.29646 8.92665 3.85308 
101 1 2.34932 9.93865 10.651 
103 1 2.34173 8.69648 9.77859 
117 1 7.16567 6.2046 1.89984 
120 1 7.17991 8.41939 3.05872 
123 1 3.72981 6.35711 9.7814 
129 1 6.73041 7.03175 0.790441 
132 1 6.71554 9.24794 8.65013 
135 1 7.42191 6.95911 7.55788 
141 1 7.26099 6.2025 10.9115 
144 1 6.54476 8.4513 9.8156 
148 1 3.62037 7.79541 0.768477 
7 1 9.18569 6.04573 11.9022 
10 1 3.6542 9.82227 21.6101 
13 1 2.34862 9.94134 22.115 
15 1 3.01189 8.33175 17.9067 
28 1 3.64078 9.77958 20.1413 
30 1 4.36204 8.54122 19.7944 
34 1 4.35086 6.29503 18.6256 
40 1 7.72965 8.37869 11.8684 
49 1 4.80554 7.69789 20.9015 
50 1 2.0677 9.29274 18.4988 
58 1 1.55957 10.2004 11.832 
59 1 4.11876 7.76559 14.1298 
69 1 3.64829 9.82122 11.1343 
73 1 3.01367 8.33589 14.8513 
75 1 4.99321 6.25138 11.8647 
79 1 7.24946 6.17966 21.8535 
82 1 7.91421 6.92548 20.9166 
86 1 3.65288 9.79175 12.6359 
88 1 2.31504 10.0805 13.0902 
108 1 9.19306 6.02838 20.8512 
112 1 4.36948 8.51947 12.9752 
115 1 4.35004 6.29904 14.1375 
124 1 4.80303 7.69531 11.8635 
125 1 2.07017 9.28953 14.2589 
126 1 6.85543 9.3165 21.8178 
128 1 7.80721 8.35981 20.8475 
139 1 1.5523 10.1999 20.9297 
140 1 4.1216 7.76544 18.6294 
143 1 7.90672 6.96653 11.8277 
146 1 4.28075 8.54041 21.9893 
149 1 4.99585 6.25097 20.8985 
157 1 2.33628 10.0818 19.6831 
ITEM: TIMESTEP
20
ITEM: NUMBER OF ATOMS
162
ITEM: BOX BOUNDS xy xz yz pp pp pp
-6.7755000000000001e+00 1.3552000000000000e+01 -6.7755000000000001e+00
0.0000000000000000e+00 1.1735510246683001e+01 0.0000000000000000e+00
0.0000000000000000e+00 2.2149999999999999e+01 0.0000000000000000e+00
ITEM: ATOMS id type x y z 
8 1 -2.41895 5.37762 9.84904 
87 1 2.96967 4.26478 10.6397 
90 1 2.65327 5.45951 9.78823 
109 1 -2.42406 5.37823 0.773278 
158 1 2.65419 5.45801 0.823497 
11 1 4.28737 4.20034 20.1294 
14 1 2.91033 4.13852 19.6872 
18 1 1.3148 5.85291 18.5988 
33 1 2.1276 4.21861 20.9119 
43 1 4.30749 4.1705 21.5782 
47 1 3.25684 5.79512 17.8273 
52 1 4.29197 4.19848 12.639 
76 1 2.44316 4.93861 14.1803 
85 1 4.31213 4.16917 11.1799 
89 1 3.25421 5.79903 14.9327 
91 1 0.99017 5.05894 11.8488 
102 1 2.9073 4.13658 13.0785 
105 1 1.31552 5.85466 14.1648 
114 1 2.12758 4.21454 11.854 
150 1 2.44192 4.93644 18.5865 
156 1 2.97063 4.26807 22.1194 
159 1 0.993406 5.06024 20.9172 
5 1 -4.93657 10.5705 8.59408 
9 1 -3.16931 8.92057 7.42996 
19 1 -1.74291 7.46735 10.5683 
21 1 -2.59183 8.78118 10.9146 
23 1 -3.30268 7.51638 6.83505 
25 1 -4.15788 10.4975 9.83164 
32 1 1.60695 6.36926 0.747406 
36 1 -1.87663 7.5215 9.07917 
38 1 -2.15795 6.20289 8.64067 
54 1 0.30763 8.51415 10.657 
57 1 1.36343 7.96865 9.80438 
60 1 -1.74985 7.48809 0.0651804 
65 1 -3.30564 7.55458 3.77368 
78 1 -1.8761 7.51927 1.54198 
80 1 -2.55195 8.78877 1.84064 
84 1 -4.4523 9.7905 3.10494 
99 1 -3.00723 9.6685 0.77343 
100 1 -2.9388 6.27185 3.17465 
107 1 -4.92806 10.5936 2.00397 
110 1 -3.33119 8.86792 3.08948 
111 1 0.610457 5.96557 10.8155 
113 1 1.60836 6.37007 9.86552 
119 1 -4.14375 10.5081 0.774387 
127 1 -2.16221 6.20844 1.97575 
131 1 -2.32809 6.19947 11.0233 
138 1 1.36831 7.96579 0.813449 
142 1 -2.55373 8.77301 8.81386 
145 1 -4.50644 9.7778 7.49452 
151 1 -4.98023 10.415 11.0387 
154 1 -3.02143 9.65515 9.84053 
155 1 -2.93388 6.25638 7.43779 
161 2 -2.15591 9.09404 6.88442 
162 3 -1.14064 9.06958 6.81679 
12 1 2.56569 7.078 17.1486 
17 1 0.400309 9.35561 20.9138 
24 1 -3.54289 8.34609 11.8375 
27 1 -0.269228 7.23038 21.6229 
29 1 0.611381 5.96384 21.9457 
31 1 1.28292 7.17417 17.9164 
44 1 -0.141952 7.20012 20.1486 
46 1 0.1423 8.51185 19.705 
51 1 -0.266632 7.23378 11.1394 
53 1 2.56894 7.07731 15.614 
56 1 1.2827 7.17473 14.8449 
63 1 -2.32503 6.20107 21.7414 
66 1 -3.384 6.75884 20.8765 
70 1 -0.140801 7.19673 12.6151 
72 1 0.526219 5.93443 12.9067 
92 1 0.919536 8.44998 14.2498 
95 1 -4.99095 10.4562 21.7195 
98 1 -4.67103 9.25952 20.8637 
104 1 0.398351 9.35319 11.8459 
116 1 -2.62612 8.75707 21.8888 
118 1 -3.62035 8.35725 20.9374 
122 1 0.142708 8.5115 13.0595 
133 1 -3.38597 6.7916 11.887 
136 1 0.304323 8.5186 22.1094 
147 1 0.527936 5.93156 19.8576 
153 1 -4.6617 9.19519 11.8827 
160 1 0.917747 8.44942 18.5136 
1 1 7.85025 4.90909 10.5409 
4 1 9.17101 4.82194 11.0246 
20 1 7.86381 4.94167 9.07244 
42 1 9.45259 5.43901 7.43571 
67 1 9.97952 4.55836 0.771169 
77 1 7.85097 4.90595 0.076543 
94 1 7.86372 4.93935 1.55178 
96 1 9.1977 4.6673 2.00288 
121 1 4.66634 5.47238 10.6974 
130 1 9.46421 5.44877 3.17478 
134 1 9.97541 4.56076 9.84714 
152 1 9.18845 4.66577 8.61469 
45 1 4.66594 5.47105 22.0662 
55 1 4.81445 5.49449 13.0645 
106 1 9.17147 4.79987 21.7473 
137 1 4.8133 5.48943 19.6999 
2 1 7.2482 10.5245 9.07448 
3 1 8.97046 7.65874 6.0876 
6 1 8.50882 6.3808 6.81225 
16 1 2.3524 8.68651 0.846827 
22 1 7.14096 6.18964 8.71385 
26 1 7.17853 8.43003 7.53912 
35 1 7.24081 10.5608 10.5184 
37 1 6.84509 9.24409 11.0129 
39 1 8.25054 8.92565 6.77299 
41 1 6.72304 7.00513 9.8337 
48 1 3.69628 6.35011 0.815131 
61 1 7.24044 10.5233 1.56082 
62 1 8.97178 7.63815 4.54122 
64 1 6.71922 9.23047 1.99448 
68 1 7.39547 6.96436 3.05407 
71 1 4.29964 8.51799 10.7733 
74 1 3.5984 7.78561 9.83102 
81 1 8.51635 6.38873 3.79869 
83 1 6.53951 8.4375 0.781932 
93 1 7.21966 10.5598 0.108537 
97 1 8.27189 8.92465 3.86117 
101 1 2.36574 9.9234 10.6743 
103 1 2.3502 8.68655 9.76829 
117 1 7.13988 6.19983 1.89261 
120 1 7.20205 8.4214 3.06769 
123 1 3.69658 6.35139 9.7992 
129 1 6.73281 7.00223 0.777108 
132 1 6.71399 9.23945 8.63495 
135 1 7.39299 6.96183 7.55706 
141 1 7.24395 6.20836 10.9225 
144 1 6.53847 8.43416 9.81964 
148 1 3.59827 7.7858 0.784268 
7 1 9.17582 6.06275 11.9033 
10 1 3.68524 9.82224 21.6098 
13 1 2.36482 9.9231 22.0898 
15 1 3.02326 8.33723 17.8898 
28 1 3.66597 9.77949 20.1422 
30 1 4.39181 8.53186 19.7908 
34 1 4.33735 6.30311 18.6199 
40 1 7.73651 8.38959 11.8704 
49 1 4.80622 7.72062 20.9109 
50 1 2.06875 9.27947 18.5153 
58 1 1.56447 10.1718 11.8414 
59 1 4.13655 7.76127 14.1277 
69 1 3.68261 9.81953 11.1544 
73 1 3.02195 8.33723 14.8699 
75 1 4.996 6.28855 11.8594 
79 1 7.23461 6.20517 21.8475 
82 1 7.93588 6.93344 20.905 
86 1 3.66976 9.77968 12.6208 
88 1 2.34106 10.059 13.0762 
108 1 9.18202 6.0369 20.842 
112 1 4.39308 8.52739 12.9669 
115 1 4.33609 6.30136 14.144 
124 1 4.80155 7.7213 11.8526 
125 1 2.06887 9.27391 14.2515 
126 1 6.87 9.25732 21.7779 
128 1 7.83396 8.36807 20.8689 
139 1 1.56379 10.1712 20.9172 
140 1 4.13875 7.76065 18.6362 
143 1 7.92374 6.96321 11.8525 
146 1 4.29807 8.52137 21.995 
149 1 4.99608 6.28333 20.9054 
157 1 2.34189 10.0564 19.6905 
ITEM: TIMESTEP
30
ITEM: NUMBER OF ATOMS
162
ITEM: BOX BOUNDS xy xz yz pp pp pp
-6.7755000000000001e+00 1.3552000000000000e+01 -6.7755000000000001e+00
0.0000000000000000e+00 1.1735510246683001e+01 0.0000000000000000e+00
0.0000000000000000e+00 2.2149999999999999e+01 0.0000000000000000e+00
ITEM: ATOMS id type x y z 
8 1 -2.43095 5.40356 9.84038 
87 1 2.97432 4.2784 10.6402 
90 1 2.62585 5.45139 9.78835 
109 1 -2.43262 5.40895 0.772425 
158 1 2.62319 5.45383 0.827591 
11 1 4.27957 4.22905 20.1209 
14 1 2.89555 4.14465 19.7085 
18 1 1.30965 5.86928 18.6019 
33 1 2.11726 4.20345 20.9031 
43 1 4.28358 4.22804 21.5592 
47 1 3.23584 5.81582 17.8173 
52 1 4.27468 4.23568 12.6411 
76 1 2.42081 4.94301 14.1749 
85 1 4.2809 4.22971 11.2072 
89 1 3.24268 5.81219 14.9456 
91 1 0.965666 5.03738 11.8457 
102 1 2.89821 4.15283 13.0607 
105 1 1.30733 5.86175 14.1603 
114 1 2.115 4.20602 11.8611 
150 1 2.41591 4.94196 18.5817 
156 1 2.97064 4.27404 22.1246 
159 1 0.961551 5.03802 20.9149 
5 1 -4.90933 10.5409 8.60357 
9 1 -3.14199 8.93583 7.41732 
19 1 -1.73822 7.48382 10.5711 
21 1 -2.5582 8.78948 10.9182 
23 1 -3.30137 7.52682 6.82769 
25 1 -4.13209 10.4914 9.81899 
32 1 1.60248 6.40542 0.745893 
36 1 -1.84667 7.53176 9.07583 
38 1 -2.15443 6.22636 8.64174 
54 1 0.324847 8.51356 10.6693 
57 1 1.37629 7.94218 9.80821 
60 1 -1.7447 7.49473 0.0616247 
65 1 -3.30281 7.56902 3.77818 
78 1 -1.84488 7.53572 1.55263 
80 1 -2.53315 8.79248 1.82468 
84 1 -4.44363 9.77876 3.10337 
99 1 -2.98 9.67554 0.769186 
100 1 -2.93867 6.28707 3.17075 
107 1 -4.91452 10.5688 1.9872 
110 1 -3.3213 8.8603 3.08886 
111 1 0.608855 5.95085 10.8102 
113 1 1.6013 6.40345 9.86666 
119 1 -4.12931 10.5163 0.791652 
127 1 -2.15086 6.23232 1.97549 
131 1 -2.33814 6.21415 11.0243 
138 1 1.3796 7.94153 0.805224 
142 1 -2.54611 8.77248 8.81459 
145 1 -4.46261 9.75712 7.48885 
151 1 -4.97195 10.3761 11.0369 
154 1 -2.98951 9.65998 9.84864 
155 1 -2.94377 6.27988 7.44491 
161 2 -2.14584 9.11602 6.89228 
162 3 -1.14747 9.07904 6.7947 
12 1 2.56986 7.07244 17.1481 
17 1 0.414491 9.31627 20.9184 
24 1 -3.52007 8.32212 11.84 
27 1 -0.276767 7.22896 21.6299 
29 1 0.604988 5.95945 21.951 
31 1 1.28336 7.15168 17.9131 
44 1 -0.174047 7.18657 20.133 
46 1 0.130341 8.49095 19.7148 
51 1 -0.27675 7.23052 11.1347 
53 1 2.56804 7.07336 15.6137 
56 1 1.28577 7.15341 14.8555 
63 1 -2.34245 6.21604 21.7429 
66 1 -3.39756 6.78187 20.8841 
70 1 -0.172256 7.19065 12.6292 
72 1 0.511781 5.9317 12.8999 
92 1 0.917552 8.44239 14.2469 
95 1 -4.98486 10.449 21.7122 
98 1 -4.64544 9.2767 20.8676 
104 1 0.415916 9.31679 11.8397 
116 1 -2.62709 8.77028 21.8833 
118 1 -3.62909 8.31744 20.9432 
122 1 0.126181 8.48759 13.0482 
133 1 -3.39364 6.81081 11.884 
136 1 0.325496 8.51143 22.0976 
147 1 0.513672 5.9359 19.8667 
153 1 -4.65423 9.18181 11.8959 
160 1 0.917152 8.44138 18.519 
1 1 7.79632 4.90357 10.5438 
4 1 9.13926 4.86239 11.0132 
20 1 7.82578 4.94444 9.0684 
42 1 9.43321 5.45901 7.44112 
67 1 9.95733 4.58146 0.775326 
77 1 7.80601 4.89972 0.0767728 
94 1 7.83126 4.94544 1.55207 
96 1 9.15295 4.69646 2.00511 
121 1 4.64287 5.515 10.6754 
130 1 9.4397 5.46259 3.17133 
134 1 9.95438 4.58946 9.84409 
152 1 9.14966 4.69273 8.61588 
45 1 4.64425 5.51514 22.0923 
55 1 4.81403 5.53509 13.0646 
106 1 9.1331 4.83661 21.7614 
137 1 4.81752 5.53608 19.6953 
2 1 7.26098 10.487 9.05205 
3 1 8.97509 7.66411 6.10242 
6 1 8.49432 6.38815 6.80832 
16 1 2.36098 8.69032 0.851342 
22 1 7.1002 6.17285 8.70159 
26 1 7.18632 8.41393 7.52217 
35 1 7.24262 10.5237 10.5087 
37 1 6.84629 9.21171 11.0252 
39 1 8.25848 8.91096 6.76758 
41 1 6.69822 6.99441 9.83447 
48 1 3.70778 6.34832 0.820738 
61 1 7.25918 10.4895 1.57108 
62 1 8.96564 7.65697 4.54228 
64 1 6.72337 9.19055 1.99076 
68 1 7.38837 6.96004 3.06763 
71 1 4.3155 8.51284 10.7437 
74 1 3.589 7.80118 9.80318 
81 1 8.50791 6.39716 3.80744 
83 1 6.53826 8.40477 0.801681 
93 1 7.24981 10.4915 0.125603 
97 1 8.2989 8.90848 3.87272 
101 1 2.40088 9.88768 10.6823 
103 1 2.36474 8.69214 9.76313 
117 1 7.10275 6.18411 1.90618 
120 1 7.20043 8.40879 3.07219 
123 1 3.71029 6.34652 9.79384 
129 1 6.70708 6.98947 0.775584 
132 1 6.7016 9.19826 8.63503 
135 1 7.37745 6.9443 7.54266 
141 1 7.21606 6.21485 10.9386 
144 1 6.52949 8.40259 9.8087 
148 1 3.59075 7.80042 0.810998 
7 1 9.15902 6.07334 11.9047 
10 1 3.73522 9.83339 21.6158 
13 1 2.39906 9.88656 22.0788 
15 1 3.01854 8.32539 17.8819 
28 1 3.6983 9.77977 20.1355 
30 1 4.43372 8.54903 19.7828 
34 1 4.33237 6.31118 18.6115 
40 1 7.74368 8.3833 11.894 
49 1 4.83278 7.73198 20.9167 
50 1 2.09646 9.26491 18.5158 
58 1 1.57228 10.143 11.8485 
59 1 4.15312 7.76271 14.1441 
69 1 3.73183 9.82654 11.1499 
73 1 3.01856 8.32583 14.8845 
75 1 4.9959 6.3179 11.8752 
79 1 7.21898 6.21142 21.8211 
82 1 7.94451 6.91884 20.8781 
86 1 3.70363 9.77915 12.6255 
88 1 2.38379 10.0309 13.0793 
108 1 9.17214 6.03383 20.8378 
112 1 4.43424 8.54709 12.9773 
115 1 4.33143 6.30928 14.1495 
124 1 4.82929 7.72903 11.8481 
125 1 2.09564 9.26567 14.2486 
126 1 6.88862 9.20812 21.7508 
128 1 7.83526 8.37654 20.8718 
139 1 1.575 10.1429 20.9135 
140 1 4.14979 7.7646 18.6162 
143 1 7.91503 6.95294 11.8855 
146 1 4.31696 8.51176 22.0222 
149 1 4.99744 6.31833 20.8894 
157 1 2.38516 10.0283 19.6871 
ITEM: TIMESTEP
40
ITEM: NUMBER OF ATOMS
162
ITEM: BOX BOUNDS xy xz yz pp pp pp
-6.7755000000000001e+00 1.3552000000000000e+01 -6.7755000000000001e+00
0.0000000000000000e+00 1.1735510246683001e+01 0.0000000000000000e+00
0.0000000000000000e+00 2.2149999999999999e+01 0.0000000000000000e+00
ITEM: ATOMS id type x y z 
8 1 -2.44041 5.4149 9.83962 
87 1 2.95946 4.28499 10.6391 
90 1 2.62523 5.45152 9.77743 
109 1 -2.44427 5.41927 0.77786 
158 1 2.62619 5.45097 0.835935 
11 1 4.27349 4.25349 20.1075 
14 1 2.88356 4.15856 19.7041 
18 1 1.29657 5.86384 18.6058 
33 1 2.09968 4.21498 20.9069 
43 1 4.28238 4.24776 21.5492 
47 1 3.2386 5.80036 17.8237 
52 1 4.27496 4.25227 12.6565 
76 1 2.4175 4.94405 14.1767 
85 1 4.28322 4.24774 11.2135 
89 1 3.23877 5.79931 14.94 
91 1 0.954898 5.03909 11.8405 
102 1 2.88393 4.1575 13.0605 
105 1 1.29869 5.86389 14.1585 
114 1 2.10008 4.21301 11.8561 
150 1 2.41996 4.94334 18.5871 
156 1 2.95854 4.28552 22.1236 
159 1 0.95595 5.04114 20.9243 
5 1 -4.90068 10.522 8.59958 
9 1 -3.13223 8.93994 7.41042 
19 1 -1.73135 7.48745 10.57 
21 1 -2.54346 8.79314 10.9216 
23 1 -3.30123 7.52301 6.83201 
25 1 -4.12516 10.487 9.82446 
32 1 1.59615 6.39417 0.750014 
36 1 -1.83122 7.53817 9.07581 
38 1 -2.15017 6.23387 8.63937 
54 1 0.32776 8.49976 10.6664 
57 1 1.38031 7.95277 9.80725 
60 1 -1.74402 7.50595 0.0644553 
65 1 -3.30168 7.55716 3.77899 
78 1 -1.82958 7.54757 1.54732 
80 1 -2.52092 8.79786 1.83267 
84 1 -4.43463 9.77664 3.1032 
99 1 -2.97209 9.68324 0.76592 
100 1 -2.93994 6.29007 3.16745 
107 1 -4.9016 10.5641 1.98731 
110 1 -3.31482 8.86234 3.08551 
111 1 0.596561 5.95123 10.8082 
113 1 1.59729 6.39423 9.86332 
119 1 -4.11938 10.5098 0.782941 
127 1 -2.14815 6.23919 1.97794 
131 1 -2.34198 6.22193 11.0243 
138 1 1.38067 7.95344 0.80607 
142 1 -2.53487 8.77238 8.82002 
145 1 -4.45365 9.75165 7.48893 
151 1 -4.96788 10.3633 11.029 
154 1 -2.97135 9.66798 9.85365 
155 1 -2.94577 6.28668 7.44814 
161 2 -2.13678 9.12914 6.89195 
162 3 -1.14537 9.08536 6.78098 
12 1 2.56701 7.06345 17.1493 
17 1 0.425976 9.30448 20.9125 
24 1 -3.51046 8.32839 11.8419 
27 1 -0.273539 7.2187 21.6243 
29 1 0.592857 5.95456 21.9559 
31 1 1.28227 7.17215 17.9147 
44 1 -0.189834 7.17747 20.1438 
46 1 0.128614 8.48455 19.7128 
51 1 -0.270535 7.21544 11.1399 
53 1 2.56757 7.06412 15.6156 
56 1 1.28078 7.1717 14.8481 
63 1 -2.3449 6.22698 21.7439 
66 1 -3.39909 6.77163 20.8825 
70 1 -0.186516 7.176 12.6234 
72 1 0.501757 5.92358 12.9085 
92 1 0.919752 8.43538 14.2419 
95 1 -4.97761 10.4383 21.716 
98 1 -4.64353 9.27213 20.8552 
104 1 0.425974 9.3054 11.8512 
116 1 -2.61089 8.7679 21.8826 
118 1 -3.61476 8.32877 20.9381 
122 1 0.128687 8.48426 13.0517 
133 1 -3.39312 6.81016 11.8841 
136 1 0.32714 8.49694 22.0951 
147 1 0.501579 5.92363 19.8544 
153 1 -4.64621 9.17063 11.9011 
160 1 0.919759 8.43536 18.5219 
1 1 7.76973 4.89676 10.5444 
4 1 9.11864 4.87777 11.0078 
20 1 7.80496 4.94738 9.07372 
42 1 9.42789 5.4654 7.44368 
67 1 9.94672 4.60077 0.779672 
77 1 7.7768 4.89041 0.0767836 
94 1 7.80968 4.95188 1.54741 
96 1 9.13612 4.70332 2.00097 
121 1 4.63937 5.52638 10.6798 
130 1 9.44002 5.47336 3.1721 
134 1 9.9411 4.60796 9.84087 
152 1 9.13193 4.7013 8.62011 
45 1 4.63899 5.52731 22.0838 
55 1 4.81708 5.54495 13.0682 
106 1 9.11853 4.84436 21.7711 
137 1 4.81628 5.54384 19.6975 
2 1 7.27094 10.4588 9.05065 
3 1 8.97224 7.67194 6.10142 
6 1 8.49378 6.3903 6.80709 
16 1 2.37256 8.69307 0.85751 
22 1 7.07682 6.16603 8.69073 
26 1 7.18043 8.4026 7.5206 
35 1 7.251 10.4967 10.4993 
37 1 6.84963 9.19722 11.0247 
39 1 8.26221 8.92063 6.77175 
41 1 6.68714 6.97673 9.83438 
48 1 3.68812 6.35289 0.839799 
61 1 7.26152 10.4719 1.58005 
62 1 8.96799 7.65947 4.54609 
64 1 6.71888 9.17885 1.99257 
68 1 7.37851 6.95295 3.07139 
71 1 4.32587 8.51403 10.7362 
74 1 3.59925 7.80997 9.79153 
81 1 8.50615 6.40153 3.81423 
83 1 6.53608 8.39684 0.793775 
93 1 7.2515 10.4776 0.138766 
97 1 8.298 8.91758 3.87062 
101 1 2.41647 9.88065 10.6951 
103 1 2.37196 8.69247 9.75534 
117 1 7.08247 6.17271 1.9179 
120 1 7.20484 8.40036 3.08671 
123 1 3.68827 6.35334 9.7735 
129 1 6.69399 6.9753 0.773753 
132 1 6.70515 9.1879 8.62818 
135 1 7.36604 6.93922 7.53781 
141 1 7.20084 6.21576 10.9459 
144 1 6.52228 8.39579 9.81278 
148 1 3.60009 7.81002 0.821916 
7 1 9.14607 6.0804 11.9062 
10 1 3.75945 9.83594 21.6137 
13 1 2.41668 9.87903 22.0675 
15 1 3.02841 8.32598 17.8817 
28 1 3.72433 9.77277 20.1434 
30 1 4.45313 8.55201 19.7713 
34 1 4.32956 6.32201 18.6011 
40 1 7.7419 8.3796 11.9022 
49 1 4.8417 7.74925 20.9164 
50 1 2.09252 9.25435 18.5176 
58 1 1.58727 10.1238 11.8524 
59 1 4.15649 7.7715 14.1461 
69 1 3.75814 9.83417 11.1511 
73 1 3.02841 8.32721 14.8818 
75 1 4.99973 6.32618 11.8672 
79 1 7.20723 6.20939 21.8121 
82 1 7.93453 6.91317 20.8656 
86 1 3.72524 9.77243 12.6199 
88 1 2.39913 10.0231 13.0746 
108 1 9.16221 6.03058 20.8306 
112 1 4.45312 8.55231 12.9926 
115 1 4.3302 6.32342 14.1614 
124 1 4.83949 7.74897 11.8474 
125 1 2.09235 9.25412 14.2467 
126 1 6.895 9.19648 21.7556 
128 1 7.84528 8.37053 20.8508 
139 1 1.58749 10.123 20.9109 
140 1 4.15584 7.77278 18.6173 
143 1 7.90549 6.94851 11.8995 
146 1 4.32803 8.51455 22.0271 
149 1 4.99838 6.32653 20.8953 
157 1 2.39886 10.0216 19.6898 
ITEM: TIMESTEP
50
ITEM: NUMBER OF ATOMS
162
ITEM: BOX BOUNDS xy xz yz pp pp pp
-6.7755000000000001e+00 1.3552000000000000e+01 -6.7755000000000001e+00
0.0000000000000000e+00 1.1735510246683001e+01 0.0000000000000000e+00
0.0000000000000000e+00 2.2149999999999999e+01 0.0000000000000000e+00
ITEM: ATOMS id type x y z 
8 1 -2.45713 5.43493 9.83603 
87 1 2.95134 4.30421 10.642 
90 1 2.6164 5.46735 9.7626 
109 1 -2.45938 5.44137 0.78045 
158 1 2.61622 5.46805 0.851066 
11 1 4.26339 4.28131 20.0952 
14 1 2.8723 4.16683 19.7068 
18 1 1.29116 5.87046 18.6071 
33 1 2.09046 4.21588 20.916 
43 1 4.26919 4.2767 21.5379 
47 1 3.23187 5.79668 17.831 
52 1 4.26459 4.28058 12.6687 
76 1 2.40024 4.94189 14.1764 
85 1 4.26892 4.2763 11.225 
89 1 3.23275 5.79639 14.9337 
91 1 0.932362 5.02719 11.8402 
102 1 2.87268 4.16648 13.0578 
105 1 1.29046 5.87021 14.1566 
114 1 2.09191 4.21328 11.847 
150 1 2.4 4.94227 18.5874 
156 1 2.95084 4.30448 22.1217 
159 1 0.932571 5.03038 20.9245 
5 1 -4.8813 10.5006 8.6034 
9 1 -3.1123 8.9368 7.40974 
19 1 -1.7251 7.49747 10.5645 
21 1 -2.52242 8.80144 10.9265 
23 1 -3.30434 7.52752 6.83771 
25 1 -4.10892 10.4751 9.82914 
32 1 1.58085 6.39073 0.754852 
36 1 -1.8083 7.54807 9.07133 
38 1 -2.14296 6.24364 8.63832 
54 1 0.341307 8.48665 10.6677 
57 1 1.3903 7.95163 9.80396 
60 1 -1.74032 7.5151 0.0704126 
65 1 -3.30203 7.55639 3.78114 
78 1 -1.80905 7.56103 1.55284 
80 1 -2.50267 8.8094 1.83383 
84 1 -4.41807 9.77974 3.10311 
99 1 -2.94993 9.69323 0.76611 
100 1 -2.93926 6.28816 3.16433 
107 1 -4.88946 10.5547 1.98441 
110 1 -3.30715 8.8553 3.08186 
111 1 0.584055 5.94147 10.8077 
113 1 1.58108 6.38926 9.85929 
119 1 -4.10959 10.5076 0.772482 
127 1 -2.13797 6.25398 1.97744 
131 1 -2.34989 6.23287 11.0261 
138 1 1.39122 7.95104 0.809242 
142 1 -2.51465 8.7782 8.82481 
145 1 -4.4373 9.7449 7.48318 
151 1 -4.96165 10.341 11.0265 
154 1 -2.93929 9.67905 9.85939 
155 1 -2.94902 6.29022 7.45457 
161 2 -2.12152 9.15085 6.88959 
162 3 -1.13499 9.09846 6.75501 
12 1 2.56825 7.05495 17.1505 
17 1 0.44162 9.28278 20.9091 
24 1 -3.49202 8.33068 11.8456 
27 1 -0.277983 7.20884 21.619 
29 1 0.578786 5.94546 21.9553 
31 1 1.28382 7.17113 17.9159 
44 1 -0.210241 7.16352 20.1373 
46 1 0.118038 8.47175 19.7137 
51 1 -0.271003 7.20659 11.1455 
53 1 2.56928 7.05437 15.6132 
56 1 1.28362 7.17143 14.8483 
63 1 -2.35808 6.23986 21.7451 
66 1 -3.4085 6.77197 20.8801 
70 1 -0.205653 7.16198 12.6296 
72 1 0.482755 5.91283 12.9068 
92 1 0.918521 8.44011 14.2383 
95 1 -4.96943 10.4187 21.7195 
98 1 -4.63382 9.25405 20.8386 
104 1 0.441319 9.28293 11.8535 
116 1 -2.59686 8.77723 21.8827 
118 1 -3.59834 8.33453 20.934 
122 1 0.118469 8.47209 13.0507 
133 1 -3.39667 6.81227 11.8858 
136 1 0.339273 8.48442 22.095 
147 1 0.482109 5.91364 19.8579 
153 1 -4.63658 9.1509 11.9097 
160 1 0.918147 8.43934 18.5261 
1 1 7.73193 4.89577 10.5491 
4 1 9.08113 4.89782 11.0016 
20 1 7.76815 4.94937 9.07817 
42 1 9.41856 5.47567 7.45054 
67 1 9.92295 4.6287 0.786146 
77 1 7.73979 4.88456 0.0727738 
94 1 7.77429 4.95426 1.54324 
96 1 9.10669 4.72059 2.00125 
121 1 4.62814 5.54915 10.6853 
130 1 9.43087 5.48428 3.16768 
134 1 9.91296 4.63997 9.83878 
152 1 9.10159 4.71737 8.6238 
45 1 4.62736 5.54946 22.0776 
55 1 4.81653 5.56963 13.0723 
106 1 9.08512 4.85609 21.7805 
137 1 4.81564 5.56964 19.6915 
2 1 7.28336 10.428 9.04144 
3 1 8.96813 7.68409 6.10417 
6 1 8.48952 6.39741 6.80577 
16 1 2.3875 8.69073 0.862793 
22 1 7.03773 6.15378 8.67659 
26 1 7.17373 8.38736 7.50859 
35 1 7.26344 10.4636 10.4868 
37 1 6.85501 9.1739 11.0257 
39 1 8.26154 8.92054 6.7759 
41 1 6.66616 6.95709 9.83232 
48 1 3.67443 6.36618 0.865311 
61 1 7.27039 10.4424 1.59501 
62 1 8.96923 7.66638 4.54802 
64 1 6.7196 9.15358 1.9976 
68 1 7.3661 6.94161 3.08068 
71 1 4.34397 8.52167 10.7292 
74 1 3.61399 7.81522 9.77519 
81 1 8.50012 6.4095 3.81983 
83 1 6.53544 8.38137 0.787068 
93 1 7.26461 10.4487 0.150943 
97 1 8.30488 8.92121 3.86348 
101 1 2.44907 9.86882 10.7033 
103 1 2.38682 8.69029 9.74976 
117 1 7.045 6.16367 1.93171 
120 1 7.20566 8.38961 3.09973 
123 1 3.67511 6.36612 9.74791 
129 1 6.67671 6.95324 0.77298 
132 1 6.70196 9.15934 8.6255 
135 1 7.3497 6.92603 7.52751 
141 1 7.17674 6.208 10.9549 
144 1 6.51221 8.37595 9.81372 
148 1 3.61532 7.81547 0.837611 
7 1 9.12819 6.09339 11.9066 
10 1 3.79529 9.83976 21.6173 
13 1 2.44921 9.86792 22.0594 
15 1 3.0326 8.31963 17.8779 
28 1 3.7604 9.77063 20.1463 
30 1 4.49057 8.56117 19.7579 
34 1 4.33064 6.33472 18.5905 
40 1 7.74523 8.36892 11.9178 
49 1 4.8591 7.77068 20.9168 
50 1 2.10152 9.24506 18.5238 
58 1 1.61131 10.0965 11.8595 
59 1 4.16766 7.78295 14.155 