ITEM: TIMESTEP
0
ITEM: NUMBER OF ATOMS
59
ITEM: BOX BOUNDS pp pp pp
0.0000000000000000e+00 3.2808000000000000e+01
0.0000000000000000e+00 1.7780000000000001e+01
0.0000000000000000e+00 2.4729999999999999e+00
ITEM: ATOMS id type x y z 
13 1 7.043 0.849 2.464 
29 1 7.397 1.432 1.228 
37 1 8.035 2.733 1.228 
57 2 1.81 0.968 2.464 
58 2 2.953 1.93 2.386 
59 3 2.317 2.651 2.173 
1 1 6.173 17.398 2.464 
5 1 5.371 17.398 1.228 
9 1 3.973 17.398 1.228 
16 1 7.043 16.167 2.464 
32 1 7.397 15.584 1.228 
40 1 8.035 14.283 1.228 
45 1 3.236 17.398 2.464 
49 1 1.81 17.398 2.464 
53 1 1.083 17.398 1.228 
4 1 10.968 8.508 2.464 
8 1 11.771 8.508 1.228 
12 1 13.168 8.508 1.228 
18 1 10.098 7.277 2.464 
21 1 8.308 3.392 2.464 
26 1 8.833 4.734 2.464 
34 1 9.745 6.694 1.228 
42 1 9.106 5.393 1.228 
48 1 13.906 8.508 2.464 
52 1 15.331 8.508 2.464 
56 1 16.058 8.508 1.228 
19 1 10.098 9.739 2.464 
24 1 8.308 13.624 2.464 
27 1 8.833 12.282 2.464 
35 1 9.745 10.322 1.228 
43 1 9.106 11.623 1.228 
3 1 22.577 8.508 2.464 
7 1 21.775 8.508 1.228 
11 1 20.377 8.508 1.228 
20 1 23.447 7.277 2.464 
36 1 23.801 6.694 1.228 
44 1 24.439 5.393 1.228 
47 1 19.64 8.508 2.464 
51 1 18.214 8.508 2.464 
55 1 17.487 8.508 1.228 
17 1 23.447 9.739 2.464 
33 1 23.801 10.322 1.228 
41 1 24.439 11.623 1.228 
15 1 26.502 0.849 2.464 
23 1 25.237 3.392 2.464 
28 1 24.712 4.734 2.464 
31 1 26.149 1.432 1.228 
39 1 25.511 2.733 1.228 
2 1 27.373 17.398 2.464 
6 1 28.175 17.398 1.228 
10 1 29.572 17.398 1.228 
14 1 26.502 16.167 2.464 
22 1 25.237 13.624 2.464 
25 1 24.712 12.282 2.464 
30 1 26.149 15.584 1.228 
38 1 25.511 14.283 1.228 
46 1 30.31 17.398 2.464 
50 1 31.735 17.398 2.464 
54 1 32.462 17.398 1.228 
ITEM: TIMESTEP
10
ITEM: NUMBER OF ATOMS
59
ITEM: BOX BOUNDS pp pp pp
0.0000000000000000e+00 3.2808000000000000e+01
0.0000000000000000e+00 1.7780000000000001e+01
0.0000000000000000e+00 2.4729999999999999e+00
ITEM: ATOMS id type x y z 
13 1 7.05364 0.850847 2.46408 
29 1 7.40126 1.4322 1.22791 
37 1 8.03878 2.73731 1.2279 
57 2 1.80252 0.9573 2.46264 
58 2 2.96171 1.95774 2.38436 
59 3 2.31797 2.64231 2.17506 
1 1 6.17953 17.3981 2.46417 
5 1 5.38888 17.3981 1.22783 
9 1 3.97383 17.3854 1.22793 
16 1 7.05375 16.1652 2.46408 
32 1 7.40131 15.584 1.22791 
40 1 8.03877 14.2787 1.2279 
45 1 3.27234 17.3589 2.46422 
49 1 1.80838 17.5198 2.46464 
53 1 1.05072 17.3258 1.22815 
4 1 10.9749 8.50804 2.46419 
8 1 11.7778 8.50801 1.22782 
12 1 13.1742 8.508 1.22788 
18 1 10.0981 7.28023 2.46409 
21 1 8.30965 3.3953 2.4641 
26 1 8.8339 4.73676 2.4641 
34 1 9.74366 6.69615 1.2279 
42 1 9.10827 5.40062 1.2279 
48 1 13.9088 8.508 2.46412 
52 1 15.3354 8.508 2.46411 
56 1 16.0596 8.508 1.22789 
19 1 10.0981 9.7358 2.46409 
24 1 8.30962 13.6208 2.4641 
27 1 8.83389 12.2793 2.4641 
35 1 9.74365 10.3199 1.2279 
43 1 9.10825 11.6155 1.2279 
3 1 22.5724 8.508 2.46419 
7 1 21.7722 8.508 1.22782 
11 1 20.3749 8.508 1.22788 
20 1 23.4465 7.2788 2.46409 
36 1 23.7998 6.69748 1.2279 
44 1 24.4359 5.40025 1.2279 
47 1 19.6394 8.508 2.46413 
51 1 18.2137 8.508 2.46411 
55 1 17.4886 8.508 1.22789 
17 1 23.4465 9.7372 2.46409 
33 1 23.7998 10.3185 1.2279 
41 1 24.4359 11.6158 1.2279 
15 1 26.4925 0.851931 2.46409 
23 1 25.2341 3.39989 2.4641 
28 1 24.7105 4.73722 2.4641 
31 1 26.1429 1.43673 1.2279 
39 1 25.5076 2.73712 1.2279 
2 1 27.3654 17.398 2.4642 
6 1 28.1624 17.398 1.22782 
10 1 29.5648 17.398 1.22788 
14 1 26.4925 16.1641 2.46409 
22 1 25.2341 13.6161 2.4641 
25 1 24.7105 12.2788 2.4641 
30 1 26.1429 15.5793 1.2279 
38 1 25.5076 14.2789 1.2279 
46 1 30.3065 17.3988 2.46413 
50 1 31.7229 17.3991 2.46411 
54 1 32.4674 17.3891 1.22788 
ITEM: TIMESTEP
20
ITEM: NUMBER OF ATOMS
59
ITEM: BOX BOUNDS pp pp pp
0.0000000000000000e+00 3.2808000000000000e+01
0.0000000000000000e+00 1.7780000000000001e+01
0.0000000000000000e+00 2.4729999999999999e+00
ITEM: ATOMS id type x y z 
13 1 7.05036 0.847811 2.46424 
29 1 7.40182 1.43188 1.22776 
37 1 8.03703 2.7353 1.22776 
57 2 1.79832 0.937349 2.46287 
58 2 2.9678 1.97196 2.38418 
59 3 2.31828 2.64486 2.17451 
1 1 6.17597 17.3984 2.46425 
5 1 5.38148 17.396 1.22775 
9 1 3.96979 17.3732 1.22786 
16 1 7.05058 16.1683 2.46424 
32 1 7.4019 15.5843 1.22776 
40 1 8.03702 14.2808 1.22776 
45 1 3.27612 17.356 2.46442 
49 1 1.80439 17.5539 2.4649 
53 1 1.05195 17.3229 1.22818 
4 1 10.9705 8.50807 2.46426 
8 1 11.7729 8.50803 1.22774 
12 1 13.1695 8.508 1.22776 
18 1 10.0973 7.27919 2.46424 
21 1 8.30914 3.39446 2.46424 
26 1 8.83343 4.7353 2.46424 
34 1 9.74279 6.69599 1.22776 
42 1 9.10663 5.39651 1.22776 
48 1 13.9067 8.508 2.46425 
52 1 15.3329 8.508 2.46425 
56 1 16.0585 8.508 1.22775 
19 1 10.0973 9.73691 2.46424 
24 1 8.30909 13.6217 2.46424 
27 1 8.8334 12.2808 2.46424 
35 1 9.74275 10.3201 1.22776 
43 1 9.1066 11.6196 1.22776 
3 1 22.5752 8.508 2.46425 
7 1 21.7735 8.508 1.22774 
11 1 20.3765 8.508 1.22776 
20 1 23.4482 7.27893 2.46424 
36 1 23.8021 6.69618 1.22776 
44 1 24.4383 5.39598 1.22776 
47 1 19.6395 8.508 2.46425 
51 1 18.2141 8.508 2.46425 
55 1 17.4882 8.508 1.22775 
17 1 23.4482 9.73707 2.46424 
33 1 23.8021 10.3198 1.22776 
41 1 24.4383 11.62 1.22776 
15 1 26.4954 0.849048 2.46424 
23 1 25.2361 3.39518 2.46424 
28 1 24.7113 4.73538 2.46424 
31 1 26.1439 1.43328 1.22776 
39 1 25.509 2.73482 1.22776 
2 1 27.3662 17.398 2.46426 
6 1 28.1679 17.398 1.22775 
10 1 29.5656 17.3984 1.22776 
14 1 26.4954 16.167 2.46424 
22 1 25.2361 13.6208 2.46424 
25 1 24.7113 12.2806 2.46424 
30 1 26.1439 15.5827 1.22776 
38 1 25.509 14.2812 1.22776 
46 1 30.3081 17.3999 2.46425 
50 1 31.7254 17.3972 2.46427 
54 1 32.4697 17.3779 1.22781 
ITEM: TIMESTEP
30
ITEM: NUMBER OF ATOMS
59
ITEM: BOX BOUNDS pp pp pp
0.0000000000000000e+00 3.2808000000000000e+01
0.0000000000000000e+00 1.7780000000000001e+01
0.0000000000000000e+00 2.4729999999999999e+00
ITEM: ATOMS id type x y z 
13 1 7.04793 0.847345 2.46425 
29 1 7.4011 1.43123 1.22775 
37 1 8.03536 2.73363 1.22775 
57 2 1.7942 0.940942 2.46318 
58 2 2.9768 1.98727 2.38453 
59 3 2.31698 2.64964 2.17324 
1 1 6.17401 17.3986 2.46426 
5 1 5.37657 17.3928 1.22777 
9 1 3.96826 17.362 1.22792 
16 1 7.0488 16.169 2.46425 
32 1 7.40148 15.585 1.22775 
40 1 8.03546 14.2823 1.22775 
45 1 3.27281 17.352 2.46451 
49 1 1.80272 17.5653 2.46504 
53 1 1.05537 17.3206 1.22832 
4 1 10.9691 8.50802 2.46425 
8 1 11.7711 8.50804 1.22775 
12 1 13.1682 8.508 1.22775 
18 1 10.0971 7.27829 2.46425 
21 1 8.30813 3.39316 2.46425 
26 1 8.83344 4.73462 2.46425 
34 1 9.7427 6.69559 1.22775 
42 1 9.10605 5.39365 1.22775 
48 1 13.9057 8.508 2.46425 
52 1 15.3314 8.508 2.46425 
56 1 16.0578 8.508 1.22775 
19 1 10.0971 9.73778 2.46425 
24 1 8.30814 13.6229 2.46425 
27 1 8.83343 12.2814 2.46425 
35 1 9.7427 10.3204 1.22775 
43 1 9.10605 11.6224 1.22775 
3 1 22.5763 8.508 2.46425 
7 1 21.7741 8.508 1.22775 
11 1 20.3769 8.508 1.22775 
20 1 23.4486 7.27853 2.46425 
36 1 23.8028 6.6957 1.22775 
44 1 24.4388 5.39425 1.22775 
47 1 19.6398 8.508 2.46425 
51 1 18.2139 8.508 2.46425 
55 1 17.4875 8.508 1.22775 
17 1 23.4486 9.73747 2.46425 
33 1 23.8028 10.3203 1.22775 
41 1 24.4388 11.6217 1.22775 
15 1 26.4972 0.848262 2.46425 
23 1 25.237 3.39361 2.46425 
28 1 24.7115 4.7346 2.46425 
31 1 26.1444 1.43173 1.22775 
39 1 25.5098 2.73421 1.22775 
2 1 27.3688 17.398 2.46425 
6 1 28.171 17.398 1.22775 
10 1 29.5676 17.3992 1.22776 
14 1 26.4972 16.1677 2.46425 
22 1 25.237 13.6224 2.46425 
25 1 24.7115 12.2814 2.46425 
30 1 26.1444 15.5843 1.22775 
38 1 25.5098 14.2818 1.22775 
46 1 30.3097 17.4007 2.46426 
50 1 31.728 17.3923 2.46433 
54 1 32.4713 17.3669 1.22787 
ITEM: TIMESTEP
40
ITEM: NUMBER OF ATOMS
59
ITEM: BOX BOUNDS pp pp pp
0.0000000000000000e+00 3.2808000000000000e+01
0.0000000000000000e+00 1.7780000000000001e+01
0.0000000000000000e+00 2.4729999999999999e+00
ITEM: ATOMS id type x y z 
13 1 7.04285 0.847063 2.46426 
29 1 7.39792 1.4296 1.22775 
37 1 8.03301 2.73247 1.22775 
57 2 1.78689 0.951383 2.464 
58 2 2.99346 2.01636 2.38512 
59 3 2.3156 2.66077 2.17053 
1 1 6.16894 17.3986 2.46429 
5 1 5.37172 17.3869 1.22782 
9 1 3.96327 17.345 1.22806 
16 1 7.04586 16.1699 2.46426 
32 1 7.39953 15.5866 1.22775 
40 1 8.03357 14.2831 1.22775 
45 1 3.26833 17.3445 2.46466 
49 1 1.80191 17.5762 2.46535 
53 1 1.0588 17.3187 1.22861 
4 1 10.9676 8.50775 2.46425 
8 1 11.7693 8.50795 1.22775 
12 1 13.1672 8.50801 1.22775 
18 1 10.0971 7.2766 2.46425 
21 1 8.30629 3.39138 2.46425 
26 1 8.83337 4.73251 2.46425 
34 1 9.74304 6.69355 1.22775 
42 1 9.10692 5.39146 1.22775 
48 1 13.9049 8.508 2.46425 
52 1 15.3305 8.508 2.46425 
56 1 16.0574 8.508 1.22775 
19 1 10.0972 9.73909 2.46425 
24 1 8.30653 13.6242 2.46425 
27 1 8.8335 12.283 2.46425 
35 1 9.74318 10.3221 1.22775 
43 1 9.107 11.6241 1.22775 
3 1 22.5765 8.50799 2.46425 
7 1 21.7748 8.50799 1.22775 
11 1 20.3769 8.508 1.22775 
20 1 23.4482 7.27769 2.46425 
36 1 23.8025 6.69493 1.22775 
44 1 24.4382 5.39274 1.22775 
47 1 19.6393 8.508 2.46425 
51 1 18.2138 8.508 2.46425 
55 1 17.4868 8.508 1.22775 
17 1 23.4482 9.7383 2.46425 
33 1 23.8025 10.3211 1.22775 
41 1 24.4382 11.6232 1.22775 
15 1 26.5001 0.847863 2.46425 
23 1 25.2382 3.39259 2.46425 
28 1 24.7115 4.73363 2.46425 
31 1 26.1458 1.43065 1.22775 
39 1 25.5112 2.73348 1.22775 
2 1 27.3725 17.3979 2.46425 
6 1 28.1745 17.3984 1.22775 
10 1 29.5713 17.401 1.22778 
14 1 26.5001 16.1681 2.46425 
22 1 25.2382 13.6234 2.46425 
25 1 24.7115 12.2824 2.46425 
30 1 26.1458 15.5853 1.22775 
38 1 25.5112 14.2825 1.22775 
46 1 30.3138 17.4013 2.46429 
50 1 31.7315 17.3807 2.46445 
54 1 32.4749 17.3489 1.22801 
ITEM: TIMESTEP
50
ITEM: NUMBER OF ATOMS
59
ITEM: BOX BOUNDS pp pp pp
0.0000000000000000e+00 3.2808000000000000e+01
0.0000000000000000e+00 1.7780000000000001e+01
0.0000000000000000e+00 2.4729999999999999e+00
ITEM: ATOMS id type x y z 
13 1 7.02171 0.850444 2.46432 
29 1 7.37863 1.43154 1.2278 
37 1 8.02246 2.73068 1.22776 
57 2 1.76538 0.975789 2.46785 
58 2 3.05107 2.12892 2.38572 
59 3 2.32003 2.71012 2.15985 
1 1 6.15713 17.3958 2.46449 
5 1 5.3611 17.3686 1.22808 
9 1 3.95205 17.3074 1.22862 
16 1 7.0387 16.1693 2.46432 
32 1 7.39098 15.5849 1.2278 
40 1 8.02692 14.2817 1.22776 
45 1 3.25873 17.3201 2.46527 
49 1 1.80125 17.5948 2.46667 
53 1 1.06382 17.3199 1.22993 
4 1 10.9655 8.5053 2.46425 
8 1 11.7672 8.50645 1.22775 
12 1 13.1656 8.50796 1.22775 
18 1 10.1006 7.27012 2.46425 
21 1 8.29974 3.38808 2.46425 
26 1 8.83574 4.72565 2.46425 
34 1 9.75016 6.68491 1.22775 
42 1 9.11354 5.38379 1.22775 
48 1 13.9033 8.50807 2.46425 
52 1 15.3288 8.50802 2.46425 
56 1 16.0559 8.508 1.22775 
19 1 10.1016 9.74159 2.46425 
24 1 8.302 13.6239 2.46425 
27 1 8.8369 12.2858 2.46425 
35 1 9.75141 10.3268 1.22775 
43 1 9.11455 11.6277 1.22775 
3 1 22.5755 8.50811 2.46425 
7 1 21.7737 8.50802 1.22775 
11 1 20.3754 8.508 1.22775 
20 1 23.4424 7.27434 2.46425 
36 1 23.7948 6.69035 1.22775 
44 1 24.4321 5.38918 1.22775 
47 1 19.6374 8.508 2.46425 
51 1 18.2124 8.508 2.46425 
55 1 17.485 8.508 1.22775 
17 1 23.4425 9.74179 2.46425 
33 1 23.7948 10.3258 1.22775 
41 1 24.4322 11.627 1.22775 
15 1 26.5103 0.850545 2.46425 
23 1 25.2421 3.39265 2.46425 
28 1 24.7087 4.73111 2.46425 
31 1 26.1564 1.4336 1.22775 
39 1 25.5177 2.73463 1.22775 
2 1 27.3793 17.3979 2.46428 
6 1 28.1813 17.4016 1.2278 
10 1 29.5785 17.4076 1.22796 
14 1 26.5111 16.1652 2.46425 
22 1 25.2421 13.6235 2.46425 
25 1 24.7088 12.2851 2.46425 
30 1 26.1568 15.5825 1.22775 
38 1 25.5178 14.2816 1.22775 
46 1 30.3214 17.3927 2.46451 
50 1 31.7368 17.3282 2.46503 
54 1 32.4812 17.2996 1.22868 
ITEM: TIMESTEP
60
ITEM: NUMBER OF ATOMS
59
ITEM: BOX BOUNDS pp pp pp
0.0000000000000000e+00 3.2808000000000000e+01
0.0000000000000000e+00 1.7780000000000001e+01
0.0000000000000000e+00 2.4729999999999999e+00
ITEM: ATOMS id type x y z 
13 1 7.02034 0.850544 2.46433 
29 1 7.37654 1.43216 1.22782 
37 1 8.02092 2.73078 1.22776 
57 2 1.76719 0.975991 2.46748 
58 2 3.05524 2.1366 2.38565 
59 3 2.32006 2.71091 2.15955 
1 1 6.15736 17.3951 2.46452 
5 1 5.36007 17.3687 1.22811 
9 1 3.95199 17.3081 1.22868 
16 1 7.03876 16.1689 2.46433 
32 1 7.39096 15.5845 1.22782 
40 1 8.02636 14.2813 1.22776 
45 1 3.25783 17.3215 2.46533 
49 1 1.80009 17.5973 2.46674 
53 1 1.06403 17.3186 1.23 
4 1 10.9649 8.50488 2.46425 
8 1 11.7672 8.50597 1.22775 
12 1 13.1655 8.50788 1.22775 
18 1 10.1008 7.26954 2.46425 
21 1 8.29913 3.38758 2.46426 
26 1 8.8362 4.72497 2.46425 
34 1 9.75045 6.6842 1.22775 
42 1 9.11372 5.38229 1.22775 
48 1 13.9031 8.5081 2.46425 
52 1 15.3286 8.50804 2.46425 
56 1 16.0557 8.508 1.22775 
19 1 10.1018 9.74137 2.46425 
24 1 8.30184 13.6238 2.46426 
27 1 8.8375 12.2858 2.46425 
35 1 9.75184 10.3267 1.22775 
43 1 9.11489 11.6285 1.22775 
3 1 22.5755 8.5082 2.46425 
7 1 21.7734 8.50808 1.22775 
11 1 20.3753 8.508 1.22775 
20 1 23.4421 7.27431 2.46425 
36 1 23.7941 6.69018 1.22775 
44 1 24.4317 5.3887 1.22775 
47 1 19.6376 8.508 2.46425 
51 1 18.2123 8.508 2.46425 
55 1 17.4851 8.508 1.22775 
17 1 23.4422 9.74198 2.46425 
33 1 23.7942 10.3261 1.22775 
41 1 24.4317 11.6276 1.22775 
15 1 26.5105 0.850596 2.46426 
23 1 25.2423 3.39274 2.46425 
28 1 24.7082 4.73106 2.46425 
31 1 26.1571 1.43398 1.22775 
39 1 25.5184 2.73505 1.22775 
2 1 27.3794 17.398 2.46429 
6 1 28.1816 17.402 1.22782 
10 1 29.5787 17.4061 1.228 
14 1 26.5117 16.1651 2.46426 
22 1 25.2425 13.6236 2.46425 
25 1 24.7083 12.2853 2.46425 
30 1 26.1578 15.5822 1.22775 
38 1 25.5187 14.2813 1.22775 
46 1 30.321 17.3901 2.46456 
50 1 31.7372 17.3264 2.46512 
54 1 32.4811 17.2977 1.22877 
ITEM: TIMESTEP
70
ITEM: NUMBER OF ATOMS
59
ITEM: BOX BOUNDS pp pp pp
0.0000000000000000e+00 3.2808000000000000e+01
0.0000000000000000e+00 1.7780000000000001e+01
0.0000000000000000e+00 2.4729999999999999e+00
ITEM: ATOMS id type x y z 
13 1 6.98427 0.852209 2.46477 
29 1 7.329 1.44055 1.22821 
37 1 7.98587 2.73229 1.22793 
57 2 1.79734 0.999443 2.46067 
58 2 3.16236 2.32789 2.38468 
59 3 2.32171 2.74022 2.15017 
1 1 6.14475 17.3796 2.46525 
5 1 5.34678 17.3579 1.22895 
9 1 3.93825 17.3291 1.23018 
16 1 7.03522 16.1619 2.46477 
32 1 7.38709 15.5773 1.22822 
40 1 8.01742 14.2723 1.22793 
45 1 3.24363 17.3489 2.46686 
49 1 1.78457 17.6234 2.46777 
53 1 1.06497 17.3096 1.23119 
4 1 10.9606 8.49488 2.46425 
8 1 11.764 8.49553 1.22775 
12 1 13.1616 8.50526 1.22775 
18 1 10.1034 7.25542 2.46425 
21 1 8.28197 3.38106 2.4644 
26 1 8.84598 4.70765 2.46429 
34 1 9.75873 6.66708 1.22775 
42 1 9.1274 5.3633 1.22778 
48 1 13.8996 8.50828 2.46425 
52 1 15.3251 8.50885 2.46425 
56 1 16.0521 8.50834 1.22775 
19 1 10.1057 9.73656 2.46425 
24 1 8.29837 13.617 2.4644 
27 1 8.85092 12.2856 2.46429 
35 1 9.76234 10.3255 1.22775 
43 1 9.13174 11.6298 1.22778 
3 1 22.572 8.51092 2.46425 
7 1 21.7695 8.51015 1.22775 
11 1 20.3718 8.50819 1.22775 
20 1 23.4337 7.27375 2.46425 
36 1 23.7803 6.68675 1.22775 
44 1 24.4158 5.38462 1.22775 
47 1 19.6346 8.50789 2.46425 
51 1 18.2088 8.50791 2.46425 
55 1 17.4817 8.50797 1.22775 
17 1 23.4345 9.74717 2.46425 
33 1 23.7816 10.334 1.22775 
41 1 24.4169 11.6362 1.22775 
15 1 26.5167 0.854142 2.46439 
23 1 25.2499 3.39779 2.46427 
28 1 24.6968 4.72883 2.46425 
31 1 26.1705 1.44195 1.22786 
39 1 25.5343 2.7437 1.22777 
2 1 27.3843 17.4022 2.46469 
6 1 28.1878 17.4064 1.22833 
10 1 29.584 17.3649 1.22918 
14 1 26.5286 16.1609 2.46439 
22 1 25.2523 13.6226 2.46427 
25 1 24.6981 12.2919 2.46425 
30 1 26.1812 15.5746 1.22786 
38 1 25.5386 14.2758 1.22777 
46 1 30.3249 17.3307 2.46586 
50 1 31.743 17.2721 2.4671 
54 1 32.4862 17.2502 1.23075 
ITEM: TIMESTEP
80
ITEM: NUMBER OF ATOMS
59
ITEM: BOX BOUNDS pp pp pp
0.0000000000000000e+00 3.2808000000000000e+01
0.0000000000000000e+00 1.7780000000000001e+01
0.0000000000000000e+00 2.4729999999999999e+00
ITEM: ATOMS id type x y z 
13 1 6.98238 0.852524 2.46483 
29 1 7.32794 1.44041 1.22827 
37 1 7.9839 2.73214 1.22797 
57 2 1.79258 1.00292 2.46115 
58 2 3.16946 2.34743 2.38368 
59 3 2.3262 2.74378 2.14972 
1 1 6.1455 17.3788 2.46535 
5 1 5.34675 17.3538 1.22905 
9 1 3.93887 17.3292 1.23022 
16 1 7.03538 16.1611 2.46484 
32 1 7.38676 15.576 1.22827 
40 1 8.01826 14.2721 1.22797 
45 1 3.24357 17.3482 2.46687 
49 1 1.78569 17.6268 2.46759 
53 1 1.06455 17.3142 1.23097 
4 1 10.9612 8.49418 2.46425 
8 1 11.7642 8.49507 1.22775 
12 1 13.1621 8.50482 1.22775 
18 1 10.1031 7.25515 2.46426 
21 1 8.27942 3.3818 2.46444 
26 1 8.84583 4.70653 2.46431 
34 1 9.75925 6.66625 1.22776 
42 1 9.12826 5.36138 1.22779 
48 1 13.8996 8.50799 2.46425 
52 1 15.325 8.50899 2.46425 
56 1 16.0519 8.50851 1.22775 
19 1 10.1055 9.73543 2.46426 
24 1 8.29878 13.616 2.46444 
27 1 8.85151 12.2854 2.46431 
35 1 9.76267 10.3248 1.22776 
43 1 9.13248 11.63 1.2278 
3 1 22.5716 8.51116 2.46425 
7 1 21.769 8.51059 1.22775 
11 1 20.3711 8.50832 1.22775 
20 1 23.433 7.2739 2.46425 
36 1 23.7798 6.68681 1.22775 
44 1 24.4147 5.38412 1.22775 
47 1 19.6337 8.50787 2.46425 
51 1 18.2082 8.50785 2.46425 
55 1 17.4813 8.50798 1.22775 
17 1 23.4338 9.74762 2.46425 
33 1 23.781 10.3345 1.22775 
41 1 24.416 11.6372 1.22775 
15 1 26.5175 0.855121 2.46444 
23 1 25.2505 3.39901 2.46428 
28 1 24.6964 4.72877 2.46426 
31 1 26.1702 1.44246 1.2279 
39 1 25.5343 2.74409 1.22779 
2 1 27.3845 17.4027 2.46477 
6 1 28.1878 17.4047 1.22842 
10 1 29.5838 17.3604 1.22932 
14 1 26.5294 16.1606 2.46443 
22 1 25.2534 13.6217 2.46428 
25 1 24.6978 12.2925 2.46426 
30 1 26.182 15.5741 1.2279 
38 1 25.5395 14.2755 1.22779 
46 1 30.3242 17.3266 2.46598 
50 1 31.7423 17.2635 2.46709 
54 1 32.4853 17.2456 1.23071 
ITEM: TIMESTEP
90
ITEM: NUMBER OF ATOMS
59
ITEM: BOX BOUNDS pp pp pp
0.0000000000000000e+00 3.2808000000000000e+01
0.0000000000000000e+00 1.7780000000000001e+01
0.0000000000000000e+00 2.4729999999999999e+00
ITEM: ATOMS id type x y z 
13 1 6.98386 0.849575 2.46504 
29 1 7.33232 1.43653 1.22848 
37 1 7.98194 2.73006 1.22813 
57 2 1.7693 1.01559 2.46397 
58 2 3.18697 2.38169 2.38258 
59 3 2.33389 2.7537 2.14757 
1 1 6.14696 17.3774 2.4655 
5 1 5.34774 17.3469 1.22914 
9 1 3.94019 17.3204 1.22981 
16 1 7.03701 16.1602 2.46504 
32 1 7.38893 15.5745 1.22848 
40 1 8.02265 14.2738 1.22813 
45 1 3.24345 17.3479 2.46639 
49 1 1.78914 17.6389 2.46702 
53 1 1.06408 17.3312 1.2302 
4 1 10.9614 8.49259 2.46426 
8 1 11.764 8.49436 1.22776 
12 1 13.1628 8.50348 1.22775 
18 1 10.1017 7.25481 2.46429 
21 1 8.27369 3.38232 2.46459 
26 1 8.84187 4.70677 2.4644 
34 1 9.75777 6.66581 1.2278 
42 1 9.12598 5.35868 1.22788 
48 1 13.9006 8.50663 2.46425 
52 1 15.3249 8.50923 2.46425 
56 1 16.0524 8.50922 1.22775 
19 1 10.1032 9.73215 2.46429 
24 1 8.30297 13.6161 2.46459 
27 1 8.85121 12.2837 2.4644 
35 1 9.75974 10.3212 1.2278 
43 1 9.12999 11.6293 1.22788 
3 1 22.5711 8.51138 2.46425 
7 1 21.7696 8.51131 1.22775 
11 1 20.3701 8.50892 1.22775 
20 1 23.4336 7.27461 2.46425 
36 1 23.7807 6.68782 1.22776 
44 1 24.4156 5.385 1.22778 
47 1 19.6332 8.50797 2.46425 
51 1 18.2082 8.50766 2.46425 
55 1 17.4812 8.50813 1.22775 
17 1 23.4341 9.74768 2.46425 
33 1 23.7814 10.3344 1.22776 
41 1 24.4167 11.6371 1.22778 
15 1 26.5184 0.85612 2.46465 
23 1 25.2498 3.39976 2.46436 
28 1 24.6979 4.72929 2.46428 
31 1 26.168 1.4423 1.2281 
39 1 25.5319 2.74211 1.22789 
2 1 27.3842 17.4032 2.46505 
6 1 28.1881 17.4006 1.22869 
10 1 29.5841 17.3517 1.2294 
14 1 26.5263 16.1628 2.46465 
22 1 25.2546 13.6207 2.46436 
25 1 24.6994 12.2925 2.46428 
30 1 26.1789 15.5754 1.2281 
38 1 25.5397 14.2769 1.22789 
46 1 30.3228 17.3147 2.46598 
50 1 31.7431 17.2442 2.46638 
54 1 32.4856 17.2381 1.22993 
ITEM: TIMESTEP
100
ITEM: NUMBER OF ATOMS
59
ITEM: BOX BOUNDS pp pp pp
0.0000000000000000e+00 3.2808000000000000e+01
0.0000000000000000e+00 1.7780000000000001e+01
0.0000000000000000e+00 2.4729999999999999e+00
ITEM: ATOMS id type x y z 
13 1 6.98429 0.844188 2.46533 
29 1 7.33347 1.43029 1.22878 
37 1 7.97769 2.72853 1.2284 
57 2 1.74448 1.0354 2.46655 
58 2 3.21745 2.43909 2.38075 
59 3 2.34508 2.76544 2.14473 
1 1 6.1426 17.3734 2.46557 
5 1 5.34559 17.3401 1.22911 
9 1 3.93569 17.3159 1.22922 
16 1 7.0376 16.1582 2.46533 
32 1 7.39218 15.5743 1.22878 
40 1 8.03011 14.2729 1.2284 
45 1 3.24266 17.355 2.46577 
49 1 1.78944 17.6562 2.46652 
53 1 1.06345 17.3516 1.22973 
4 1 10.9599 8.48945 2.4643 
8 1 11.7624 8.49204 1.22779 
12 1 13.1608 8.50118 1.22776 
18 1 10.101 7.25078 2.46436 
21 1 8.26637 3.38136 2.46485 
26 1 8.8354 4.70582 2.46457 
34 1 9.75586 6.66249 1.22788 
42 1 9.12202 5.35781 1.22804 
48 1 13.8985 8.50478 2.46426 
52 1 15.3237 8.50942 2.46425 
56 1 16.0519 8.51003 1.22775 
19 1 10.1005 9.72841 2.46436 
24 1 8.30932 13.6161 2.46485 
27 1 8.85164 12.2808 2.46457 
35 1 9.75575 10.3168 1.22788 
43 1 9.12822 11.6243 1.22804 
3 1 22.5719 8.51164 2.46426 
7 1 21.7699 8.51175 1.22775 
11 1 20.3713 8.50964 1.22775 
20 1 23.4339 7.27453 2.46427 
36 1 23.7818 6.68809 1.22777 
44 1 24.4176 5.38537 1.22784 
47 1 19.6339 8.50836 2.46425 
51 1 18.2083 8.50765 2.46425 
55 1 17.4805 8.50844 1.22775 
17 1 23.4339 9.74868 2.46427 
33 1 23.7817 10.3352 1.22777 
41 1 24.4183 11.6376 1.22784 
15 1 26.5211 0.856915 2.46499 
23 1 25.2484 3.39841 2.46454 
28 1 24.6992 4.73015 2.46435 
31 1 26.1682 1.44173 1.22843 
39 1 25.5292 2.74161 1.22808 
2 1 27.3866 17.4035 2.46539 
6 1 28.1896 17.3966 1.22897 
10 1 29.5857 17.3348 1.22928 
14 1 26.5236 16.1659 2.46499 
22 1 25.2568 13.6213 2.46454 
25 1 24.7015 12.2921 2.46435 
30 1 26.1755 15.5788 1.22843 
38 1 25.5398 14.277 1.22808 
46 1 30.3262 17.2908 2.46577 
50 1 31.7429 17.2205 2.46553 
54 1 32.4884 17.2278 1.22906 
ITEM: TIMESTEP
110
ITEM: NUMBER OF ATOMS
59
ITEM: BOX BOUNDS pp pp pp
0.0000000000000000e+00 3.2808000000000000e+01
0.0000000000000000e+00 1.7780000000000001e+01
0.0000000000000000e+00 2.4729999999999999e+00
ITEM: ATOMS id type x y z 
13 1 6.98112 0.844315 2.46527 
29 1 7.32806 1.43067 1.22873 
37 1 7.97559 2.72858 1.22842 
57 2 1.75435 1.03619 2.46497 
58 2 3.22342 2.44911 2.38025 
59 3 2.34649 2.76358 2.145 
1 1 6.14229 17.3716 2.46546 
5 1 5.34427 17.3421 1.22902 
9 1 3.93564 17.3269 1.22936 
16 1 7.03588 16.1561 2.46527 
32 1 7.39108 15.5736 1.22874 
40 1 8.03011 14.2716 1.22843 
45 1 3.24133 17.3629 2.46596 
49 1 1.7867 17.6585 2.46686 
53 1 1.06396 17.3461 1.23018 
4 1 10.9596 8.48815 2.46433 
8 1 11.7623 8.49072 1.22782 
12 1 13.1607 8.50079 1.22777 
18 1 10.1024 7.24804 2.4644 
21 1 8.26591 3.37907 2.46488 
26 1 8.83417 4.70388 2.46461 
34 1 9.75668 6.65948 1.22791 
42 1 9.12073 5.35752 1.22808 
48 1 13.8988 8.50481 2.46427 
52 1 15.324 8.50919 2.46425 
56 1 16.0508 8.50969 1.22775 
19 1 10.1014 9.72832 2.4644 
24 1 8.30895 13.6163 2.46488 
27 1 8.85228 12.2811 2.46462 
35 1 9.75702 10.3174 1.22792 
43 1 9.12954 11.6236 1.22808 
3 1 22.5712 8.51164 2.46427 
7 1 21.769 8.51136 1.22776 
11 1 20.3707 8.50946 1.22775 
20 1 23.4326 7.27392 2.46429 
36 1 23.7807 6.68713 1.22779 
44 1 24.4169 5.38553 1.22788 
47 1 19.6325 8.50859 2.46425 
51 1 18.2074 8.50805 2.46425 
55 1 17.4806 8.50858 1.22775 
17 1 23.4325 9.74937 2.46429 
33 1 23.7806 10.3362 1.22779 
41 1 24.4179 11.6373 1.22788 
15 1 26.523 0.857571 2.46498 
23 1 25.2487 3.39729 2.46459 
28 1 24.6985 4.72943 2.4644 
31 1 26.1718 1.44213 1.22844 
39 1 25.5307 2.74275 1.22813 
2 1 27.3871 17.4034 2.46525 
6 1 28.1899 17.3967 1.22882 
10 1 29.5851 17.3288 1.22908 
14 1 26.5256 16.1648 2.46498 
22 1 25.2572 13.6224 2.46459 
25 1 24.7016 12.2924 2.4644 
30 1 26.1776 15.579 1.22844 
38 1 25.54 14.2764 1.22813 
46 1 30.3258 17.2856 2.46562 
50 1 31.7428 17.2233 2.46584 
54 1 32.4873 17.2281 1.22942 
ITEM: TIMESTEP
120
ITEM: NUMBER OF ATOMS
59
ITEM: BOX BOUNDS pp pp pp
0.0000000000000000e+00 3.2808000000000000e+01
0.0000000000000000e+00 1.7780000000000001e+01
0.0000000000000000e+00 2.4729999999999999e+00
ITEM: ATOMS id type x y z 
13 1 6.97959 0.844333 2.46524 
29 1 7.32598 1.43115 1.2287 
37 1 7.97416 2.72812 1.22843 
57 2 1.7576 1.03691 2.46441 
58 2 3.22818 2.45723 2.37984 
59 3 2.34839 2.76403 2.14489 
1 1 6.14195 17.3706 2.46546 
5 1 5.34396 17.3423 1.22903 
9 1 3.93503 17.3324 1.22947 
16 1 7.03539 16.155 2.46524 
32 1 7.39043 15.5723 1.22871 
40 1 8.02996 14.2711 1.22843 
45 1 3.24103 17.3677 2.46607 
49 1 1.78564 17.6595 2.46692 
53 1 1.06359 17.346 1.23027 
4 1 10.9593 8.48728 2.46436 
8 1 11.7622 8.48992 1.22784 
12 1 13.1606 8.50049 1.22778 
18 1 10.1028 7.24694 2.46443 
21 1 8.26504 3.37887 2.46489 
26 1 8.8336 4.70351 2.46464 
34 1 9.75739 6.65858 1.22794 
42 1 9.12035 5.35667 1.22811 
48 1 13.8985 8.50465 2.46428 
52 1 15.3237 8.50904 2.46426 
56 1 16.0507 8.50956 1.22776 
19 1 10.1018 9.72772 2.46443 
24 1 8.30926 13.6155 2.46489 
27 1 8.85307 12.2805 2.46465 
35 1 9.75807 10.3168 1.22795 
43 1 9.13045 11.6234 1.22812 
3 1 22.5711 8.51161 2.46428 
7 1 21.7686 8.5113 1.22777 
11 1 20.3703 8.50944 1.22776 
20 1 23.4321 7.27374 2.46431 
36 1 23.7798 6.68692 1.22781 
44 1 24.4161 5.38532 1.22791 
47 1 19.6325 8.50868 2.46425 
51 1 18.2072 8.50827 2.46425 
55 1 17.4803 8.50871 1.22775 
17 1 23.4318 9.74963 2.46431 
33 1 23.7796 10.3364 1.22781 
41 1 24.4175 11.6372 1.22791 
15 1 26.524 0.858235 2.46497 
23 1 25.249 3.39777 2.46462 
28 1 24.6979 4.7294 2.46443 
31 1 26.1732 1.44312 1.22843 
39 1 25.5316 2.74316 1.22816 
2 1 27.387 17.4033 2.4652 
6 1 28.19 17.3957 1.22876 
10 1 29.585 17.3252 1.22906 
14 1 26.5259 16.1643 2.46497 
22 1 25.2571 13.622 2.46463 
25 1 24.7013 12.2922 2.46443 
30 1 26.1784 15.5782 1.22843 
38 1 25.5403 14.2761 1.22816 
46 1 30.3256 17.2825 2.46562 
50 1 31.743 17.2225 2.46598 
54 1 32.4871 17.2277 1.22957 
ITEM: TIMESTEP
130
ITEM: NUMBER OF ATOMS
59
ITEM: BOX BOUNDS pp pp pp
0.0000000000000000e+00 3.2808000000000000e+01
0.0000000000000000e+00 1.7780000000000001e+01
0.0000000000000000e+00 2.4729999999999999e+00
ITEM: ATOMS id type x y z 
13 1 6.96749 0.840278 2.46511 
29 1 7.30924 1.43105 1.22857 
37 1 7.9599 2.72601 1.22847 
57 2 1.77539 1.05237 2.46051 
58 2 3.27685 2.54307 2.37504 
59 3 2.37163 2.77195 2.14348 
1 1 6.13931 17.3607 2.46556 
5 1 5.34043 17.3418 1.22926 
9 1 3.93242 17.3753 1.23026 
16 1 7.03019 16.1462 2.46511 
32 1 7.3855 15.5625 1.22857 
40 1 8.02916 14.2645 1.22847 
45 1 3.23787 17.4092 2.46691 
49 1 1.77745 17.6765 2.46741 
53 1 1.0615 17.3521 1.2305 
4 1 10.9578 8.47927 2.46461 
8 1 11.7609 8.48191 1.22808 
12 1 13.1591 8.497 1.22793 
18 1 10.1038 7.23754 2.46473 
21 1 8.25423 3.37578 2.46496 
26 1 8.82754 4.69776 2.4649 
34 1 9.75934 6.6489 1.22825 
42 1 9.11709 5.34969 1.22839 
48 1 13.8966 8.50261 2.46441 
52 1 15.3218 8.5077 2.46432 
56 1 16.0489 8.50878 1.22781 
19 1 10.1033 9.72095 2.46473 
24 1 8.31195 13.6093 2.46496 
27 1 8.86066 12.2771 2.4649 
35 1 9.76324 10.3124 1.22825 
43 1 9.13898 11.6201 1.22839 
3 1 22.5686 8.51106 2.46442 
7 1 21.7666 8.51057 1.22789 
11 1 20.3681 8.50958 1.22781 
20 1 23.4281 7.27262 2.46452 
36 1 23.7735 6.68455 1.22804 
44 1 24.4089 5.38271 1.22822 
47 1 19.6307 8.50955 2.4643 
51 1 18.2053 8.51006 2.46428 
55 1 17.4784 8.50999 1.22778 
17 1 23.4267 9.75049 2.46452 
33 1 23.7733 10.3378 1.22804 
41 1 24.4136 11.6372 1.22822 
15 1 26.533 0.862318 2.46482 
23 1 25.253 3.40095 2.46485 
28 1 24.6932 4.72759 2.46474 
31 1 26.1853 1.44965 1.22832 
39 1 25.5408 2.74718 1.22836 
2 1 27.3872 17.4023 2.46492 
6 1 28.1901 17.3872 1.22852 
10 1 29.5843 17.2926 1.22922 
14 1 26.5272 16.1623 2.46482 
22 1 25.2574 13.6192 2.46485 
25 1 24.6991 12.2918 2.46474 
30 1 26.1826 15.574 1.22832 
38 1 25.5431 14.2735 1.22836 
46 1 30.3241 17.2502 2.46587 
50 1 31.7428 17.2085 2.46693 
54 1 32.4866 17.2212 1.23048 
ITEM: TIMESTEP
140
ITEM: NUMBER OF ATOMS
59
ITEM: BOX BOUNDS pp pp pp
0.0000000000000000e+00 3.2808000000000000e+01
0.0000000000000000e+00 1.7780000000000001e+01
0.0000000000000000e+00 2.4729999999999999e+00
ITEM: ATOMS id type x y z 
13 1 6.96268 0.83115 2.46541 
29 1 7.30156 1.42355 1.22886 
37 1 7.94308 2.72295 1.22859 
57 2 1.7568 1.0868 2.4601 
58 2 3.33536 2.65345 2.3676 
59 3 2.41062 2.78925 2.1414 
1 1 6.13311 17.351 2.46592 
5 1 5.33484 17.3352 1.22961 
9 1 3.92584 17.3964 1.23035 
16 1 7.02563 16.1377 2.46541 
32 1 7.3828 15.5546 1.22886 
40 1 8.02958 14.2581 1.22859 
45 1 3.23364 17.4421 2.46697 
49 1 1.7728 17.7102 2.46705 
53 1 1.05867 17.3818 1.23012 
4 1 10.9556 8.47027 2.46493 
8 1 11.7584 8.47274 1.22838 
12 1 13.1567 8.49133 1.22816 
18 1 10.0997 7.22982 2.46504 
21 1 8.2377 3.37279 2.46507 
26 1 8.82029 4.69185 2.46507 
34 1 9.75447 6.64158 1.22855 
42 1 9.11233 5.34192 1.22857 
48 1 13.895 8.49879 2.46463 
52 1 15.3198 8.50684 2.46446 
56 1 16.0471 8.50899 1.22794 
19 1 10.1017 9.71241 2.46504 
24 1 8.31509 13.6041 2.46507 
27 1 8.869 12.2731 2.46507 
35 1 9.76292 10.3047 1.22855 
43 1 9.14599 11.616 1.22857 
3 1 22.5679 8.50964 2.46467 
7 1 21.7657 8.5094 1.22813 
11 1 20.3666 8.51024 1.22796 
20 1 23.4263 7.27038 2.46482 
36 1 23.771 6.68152 1.22834 
44 1 24.4038 5.37867 1.22845 
47 1 19.6292 8.5108 2.46444 
51 1 18.2034 8.51152 2.46438 
55 1 17.4766 8.51129 1.22788 
17 1 23.4253 9.74954 2.46482 
33 1 23.7716 10.3374 1.22834 
41 1 24.4098 11.6378 1.22845 
15 1 26.5425 0.863575 2.4649 
23 1 25.26 3.4014 2.46491 
28 1 24.6901 4.72483 2.46495 
31 1 26.1955 1.4521 1.22838 
39 1 25.5512 2.74943 1.2284 
2 1 27.3905 17.3995 2.46528 
6 1 28.1934 17.3775 1.22894 
10 1 29.5865 17.2617 1.22973 
14 1 26.5237 16.1639 2.4649 
22 1 25.2601 13.6176 2.46491 
25 1 24.6964 12.2913 2.46495 
30 1 26.1786 15.575 1.22838 
38 1 25.5452 14.2718 1.2284 
46 1 30.3276 17.2121 2.46633 
50 1 31.7449 17.1774 2.46677 
54 1 32.4889 17.2084 1.23026 
ITEM: TIMESTEP
150
ITEM: NUMBER OF ATOMS
59
ITEM: BOX BOUNDS pp pp pp
0.0000000000000000e+00 3.2808000000000000e+01
0.0000000000000000e+00 1.7780000000000001e+01
0.0000000000000000e+00 2.4729999999999999e+00
ITEM: ATOMS id type x y z 
13 1 6.96115 0.827736 2.46563 
29 1 7.29957 1.41911 1.22908 
37 1 7.93717 2.72145 1.22874 
57 2 1.74263 1.105 2.46068 
58 2 3.36069 2.70173 2.3639 
59 3 2.43034 2.79723 2.14071 
1 1 6.13002 17.3474 2.46604 
5 1 5.33148 17.3329 1.22964 
9 1 3.92369 17.3995 1.23016 
16 1 7.0226 16.1329 2.46563 
32 1 7.38049 15.5515 1.22907 
40 1 8.03003 14.2555 1.22874 
45 1 3.23139 17.4533 2.46668 
49 1 1.77173 17.7279 2.46664 