LAMMPS (3 Mar 2020)
Reading data file ...
  orthogonal box = (0 0 0) to (11 11.002 11)
  2 by 2 by 2 MPI processor grid
  reading atoms ...
  49 atoms
  read_data CPU = 0.018654 secs
WARNING: Using 'neigh_modify every 1 delay 0 check yes' setting during minimization (../min.cpp:190)
WARNING: Total cutoff < 2*bond cutoff. May need to use an increased neighbor list skin. (../pair_reaxc.cpp:413)
Neighbor list info ...
  update every 1 steps, delay 0 steps, check yes
  max neighbors/atom: 2000, page size: 100000
  master list distance cutoff = 9.5
  ghost atom cutoff = 9.5
  binsize = 4.75, bins = 3 3 3
  2 neighbor lists, perpetual/occasional/extra = 2 0 0
  (1) pair reax/c, perpetual
      attributes: half, newton off, ghost
      pair build: half/bin/newtoff/ghost
      stencil: half/ghost/bin/3d/newtoff
      bin: standard
  (2) fix qeq/reax, perpetual, copy from (1)
      attributes: half, newton off, ghost
      pair build: copy
      stencil: none
      bin: none
Setting up cg style minimization ...
  Unit style    : real
  Current step  : 0
Per MPI rank memory allocation (min/avg/max) = 18.75 | 18.81 | 18.91 Mbytes
Step Temp E_pair E_mol TotEng Press 
       0            0   -8542.9886            0   -8542.9886    44410.782 
     177            0   -8760.6267            0   -8760.6267    28933.076 
Loop time of 3.12584 on 8 procs for 177 steps with 49 atoms

99.4% CPU use with 8 MPI tasks x no OpenMP threads

Minimization stats:
  Stopping criterion = energy tolerance
  Energy initial, next-to-last, final = 
        -8542.98863518     -8760.62664481     -8760.62669546
  Force two-norm initial, final = 2115.64 38.4696
  Force max component initial, final = 1503.61 10.1444
  Final line search alpha, max atom move = 0.000154023 0.00156246
  Iterations, force evaluations = 177 1215

MPI task timing breakdown:
Section |  min time  |  avg time  |  max time  |%varavg| %total
---------------------------------------------------------------
Pair    | 2.4232     | 2.4456     | 2.4932     |   1.3 | 78.24
Neigh   | 0          | 0          | 0          |   0.0 |  0.00
Comm    | 0.023089   | 0.070769   | 0.09289    |   7.6 |  2.26
Output  | 0.00032926 | 0.00045849 | 0.00070395 |   0.0 |  0.01
Modify  | 0.60193    | 0.60231    | 0.60255    |   0.0 | 19.27
Other   |            | 0.006662   |            |       |  0.21

Nlocal:    6.125 ave 7 max 6 min
Histogram: 7 0 0 0 0 0 0 0 0 1
Nghost:    598.125 ave 604 max 595 min
Histogram: 3 0 0 1 2 1 0 0 0 1
Neighs:    771.25 ave 872 max 755 min
Histogram: 7 0 0 0 0 0 0 0 0 1

Total # of neighbors = 6170
Ave neighs/atom = 125.918
Neighbor list builds = 0
Dangerous builds = 0
WARNING: Using 'neigh_modify every 1 delay 0 check yes' setting during minimization (../min.cpp:190)
WARNING: Total cutoff < 2*bond cutoff. May need to use an increased neighbor list skin. (../pair_reaxc.cpp:413)
Setting up cg style minimization ...
  Unit style    : real
  Current step  : 177
Per MPI rank memory allocation (min/avg/max) = 18.75 | 18.81 | 18.91 Mbytes
Step Temp E_pair E_mol TotEng Press 
     177            0   -8760.6267            0   -8760.6267    28933.076 
     178            0   -8760.6267            0   -8760.6267    28932.755 
Loop time of 0.0252615 on 8 procs for 1 steps with 49 atoms

99.4% CPU use with 8 MPI tasks x no OpenMP threads

Minimization stats:
  Stopping criterion = energy tolerance
  Energy initial, next-to-last, final = 
        -8760.62669547     -8760.62669547     -8760.62672147
  Force two-norm initial, final = 38.4696 38.4563
  Force max component initial, final = 10.1444 10.1442
  Final line search alpha, max atom move = 0.000154026 0.00156248
  Iterations, force evaluations = 1 9

MPI task timing breakdown:
Section |  min time  |  avg time  |  max time  |%varavg| %total
---------------------------------------------------------------
Pair    | 0.020026   | 0.020239   | 0.020451   |   0.1 | 80.12
Neigh   | 0          | 0          | 0          |   0.0 |  0.00
Comm    | 0.0001989  | 0.00041066 | 0.00062176 |   0.0 |  1.63
Output  | 0          | 0          | 0          |   0.0 |  0.00
Modify  | 0.0045008  | 0.0045053  | 0.0045079  |   0.0 | 17.83
Other   |            | 0.0001061  |            |       |  0.42

Nlocal:    6.125 ave 7 max 6 min
Histogram: 7 0 0 0 0 0 0 0 0 1
Nghost:    601.875 ave 611 max 593 min
Histogram: 1 1 0 1 1 1 1 1 0 1
Neighs:    789.75 ave 900 max 769 min
Histogram: 7 0 0 0 0 0 0 0 0 1

Total # of neighbors = 6318
Ave neighs/atom = 128.939
Neighbor list builds = 0
Dangerous builds = 0
WARNING: Using 'neigh_modify every 1 delay 0 check yes' setting during minimization (../min.cpp:190)
WARNING: Total cutoff < 2*bond cutoff. May need to use an increased neighbor list skin. (../pair_reaxc.cpp:413)
Setting up cg style minimization ...
  Unit style    : real
  Current step  : 178
WARNING: Energy due to 3 extra global DOFs will be included in minimizer energies
Per MPI rank memory allocation (min/avg/max) = 18.75 | 18.81 | 18.91 Mbytes
Step Temp E_pair E_mol TotEng Press Volume 
     178            0   -8760.6267            0   -8760.6267    28932.755     1331.242 
    1264            0   -8781.6148            0   -8781.6148   -2241.6412    1355.6854 
Loop time of 3.73698 on 8 procs for 1086 steps with 49 atoms

99.5% CPU use with 8 MPI tasks x no OpenMP threads

Minimization stats:
  Stopping criterion = linesearch alpha is zero
  Energy initial, next-to-last, final = 
        -8760.62672147     -8781.61476735     -8781.61476734
  Force two-norm initial, final = 975.345 86.6511
  Force max component initial, final = 586.846 46.5421
  Final line search alpha, max atom move = 1.02453e-12 4.76837e-11
  Iterations, force evaluations = 1086 1608

MPI task timing breakdown:
Section |  min time  |  avg time  |  max time  |%varavg| %total
---------------------------------------------------------------
Pair    | 3.1573     | 3.1967     | 3.2278     |   1.2 | 85.54
Neigh   | 0          | 0          | 0          |   0.0 |  0.00
Comm    | 0.027612   | 0.058564   | 0.097979   |   9.2 |  1.57
Output  | 0.0016897  | 0.0021077  | 0.0029881  |   0.8 |  0.06
Modify  | 0.45165    | 0.45185    | 0.45214    |   0.0 | 12.09
Other   |            | 0.02772    |            |       |  0.74

Nlocal:    6.125 ave 7 max 6 min
Histogram: 7 0 0 0 0 0 0 0 0 1
Nghost:    601.875 ave 611 max 593 min
Histogram: 1 1 0 1 1 1 1 1 0 1
Neighs:    789.75 ave 900 max 769 min
Histogram: 7 0 0 0 0 0 0 0 0 1

Total # of neighbors = 6318
Ave neighs/atom = 128.939
Neighbor list builds = 0
Dangerous builds = 0
WARNING: Using 'neigh_modify every 1 delay 0 check yes' setting during minimization (../min.cpp:190)
WARNING: Total cutoff < 2*bond cutoff. May need to use an increased neighbor list skin. (../pair_reaxc.cpp:413)
Setting up cg style minimization ...
  Unit style    : real
  Current step  : 1264
Per MPI rank memory allocation (min/avg/max) = 18.75 | 18.81 | 18.91 Mbytes
Step Temp E_pair E_mol TotEng Press 
    1264            0   -8781.6148            0   -8781.6148   -2241.6412 
    1374            0   -8801.3761            0   -8801.3761    16586.961 
Loop time of 2.03178 on 8 procs for 110 steps with 49 atoms

99.5% CPU use with 8 MPI tasks x no OpenMP threads

Minimization stats:
  Stopping criterion = energy tolerance
  Energy initial, next-to-last, final = 
        -8781.61476735     -8801.37600014     -8801.37606274
  Force two-norm initial, final = 40.9904 49.4861
  Force max component initial, final = 13.2452 23.8413
  Final line search alpha, max atom move = 1.93272e-06 4.60784e-05
  Iterations, force evaluations = 110 801

MPI task timing breakdown:
Section |  min time  |  avg time  |  max time  |%varavg| %total
---------------------------------------------------------------
Pair    | 1.5667     | 1.5813     | 1.6054     |   1.0 | 77.83
Neigh   | 0          | 0          | 0          |   0.0 |  0.00
Comm    | 0.014275   | 0.03837    | 0.052796   |   6.1 |  1.89
Output  | 0.00019632 | 0.00024755 | 0.0003673  |   0.0 |  0.01
Modify  | 0.40718    | 0.40747    | 0.40767    |   0.0 | 20.05
Other   |            | 0.004364   |            |       |  0.21

Nlocal:    6.125 ave 7 max 6 min
Histogram: 7 0 0 0 0 0 0 0 0 1
Nghost:    581.875 ave 589 max 576 min
Histogram: 2 0 0 2 0 1 2 0 0 1
Neighs:    772.5 ave 869 max 749 min
Histogram: 5 2 0 0 0 0 0 0 0 1

Total # of neighbors = 6180
Ave neighs/atom = 126.122
Neighbor list builds = 0
Dangerous builds = 0
WARNING: Using 'neigh_modify every 1 delay 0 check yes' setting during minimization (../min.cpp:190)
WARNING: Total cutoff < 2*bond cutoff. May need to use an increased neighbor list skin. (../pair_reaxc.cpp:413)
Setting up cg style minimization ...
  Unit style    : real
  Current step  : 1374
WARNING: Energy due to 3 extra global DOFs will be included in minimizer energies
Per MPI rank memory allocation (min/avg/max) = 18.75 | 18.81 | 18.91 Mbytes
Step Temp E_pair E_mol TotEng Press Volume 
    1374            0   -8801.3761            0   -8801.3761    16586.961    1355.6854 
    1560            0   -8803.2804            0   -8803.2804    559.14339    1363.1112 
Loop time of 0.737223 on 8 procs for 186 steps with 49 atoms

98.7% CPU use with 8 MPI tasks x no OpenMP threads

Minimization stats:
  Stopping criterion = linesearch alpha is zero
  Energy initial, next-to-last, final = 
        -8801.37606274     -8803.28037596     -8803.28037596
  Force two-norm initial, final = 570.368 35.5734
  Force max component initial, final = 336.187 21.544
  Final line search alpha, max atom move = 8.85327e-12 1.90735e-10
  Iterations, force evaluations = 186 310

MPI task timing breakdown:
Section |  min time  |  avg time  |  max time  |%varavg| %total
---------------------------------------------------------------
Pair    | 0.60529    | 0.61288    | 0.62047    |   0.6 | 83.13
Neigh   | 0          | 0          | 0          |   0.0 |  0.00
Comm    | 0.016037   | 0.023607   | 0.031194   |   3.1 |  3.20
Output  | 0.00028944 | 0.00036172 | 0.00052107 |   0.0 |  0.05
Modify  | 0.085952   | 0.085987   | 0.086038   |   0.0 | 11.66
Other   |            | 0.01439    |            |       |  1.95

Nlocal:    6.125 ave 7 max 6 min
Histogram: 7 0 0 0 0 0 0 0 0 1
Nghost:    581.875 ave 593 max 575 min
Histogram: 2 1 2 0 0 1 0 0 1 1
Neighs:    772.25 ave 864 max 752 min
Histogram: 5 2 0 0 0 0 0 0 0 1

Total # of neighbors = 6178
Ave neighs/atom = 126.082
Neighbor list builds = 0
Dangerous builds = 0
WARNING: Using 'neigh_modify every 1 delay 0 check yes' setting during minimization (../min.cpp:190)
WARNING: Total cutoff < 2*bond cutoff. May need to use an increased neighbor list skin. (../pair_reaxc.cpp:413)
Setting up cg style minimization ...
  Unit style    : real
  Current step  : 1560
Per MPI rank memory allocation (min/avg/max) = 18.75 | 18.81 | 18.91 Mbytes
Step Temp E_pair E_mol TotEng Press 
    1560            0   -8803.2804            0   -8803.2804    559.14339 
    1561            0   -8803.2804            0   -8803.2804    559.14339 
Loop time of 0.129808 on 8 procs for 1 steps with 49 atoms

99.5% CPU use with 8 MPI tasks x no OpenMP threads

Minimization stats:
  Stopping criterion = linesearch alpha is zero
  Energy initial, next-to-last, final = 
        -8803.28037596     -8803.28037596     -8803.28037596
  Force two-norm initial, final = 27.0407 27.0407
  Force max component initial, final = 8.30809 8.30809
  Final line search alpha, max atom move = 1.12098e-11 9.31323e-11
  Iterations, force evaluations = 1 54

MPI task timing breakdown:
Section |  min time  |  avg time  |  max time  |%varavg| %total
---------------------------------------------------------------
Pair    | 0.10631    | 0.10863    | 0.11125    |   0.4 | 83.68
Neigh   | 0          | 0          | 0          |   0.0 |  0.00
Comm    | 0.00088829 | 0.0035096  | 0.0058097  |   2.4 |  2.70
Output  | 0          | 0          | 0          |   0.0 |  0.00
Modify  | 0.017373   | 0.017386   | 0.0174     |   0.0 | 13.39
Other   |            | 0.0002858  |            |       |  0.22

Nlocal:    6.125 ave 7 max 6 min
Histogram: 7 0 0 0 0 0 0 0 0 1
Nghost:    570.625 ave 583 max 560 min
Histogram: 2 0 0 1 1 2 1 0 0 1
Neighs:    765.25 ave 856 max 744 min
Histogram: 5 2 0 0 0 0 0 0 0 1

Total # of neighbors = 6122
Ave neighs/atom = 124.939
Neighbor list builds = 0
Dangerous builds = 0
WARNING: Total cutoff < 2*bond cutoff. May need to use an increased neighbor list skin. (../pair_reaxc.cpp:413)
Setting up Verlet run ...
  Unit style    : real
  Current step  : 0
  Time step     : 0.25
Per MPI rank memory allocation (min/avg/max) = 17.63 | 17.68 | 17.78 Mbytes
Step Temp TotEng KinEng PotEng Press 
       0          300   -8760.3567    42.923665   -8803.2804    1998.5992 
     200    269.84036   -8741.9736    38.608458   -8780.5821    -38739.76 
     400    336.07285   -8724.6541    48.084927    -8772.739    21699.473 
     600    280.30059   -8733.1179    40.105096    -8773.223   -20854.092 
     800    250.92672   -8740.6381    35.902314   -8776.5404   -7572.3395 
    1000    349.62065   -8721.3915    50.023331   -8771.4148    21771.252 
    1200    289.75302    -8734.958    41.457539   -8776.4156    36309.099 
    1400    285.13091    -8734.267    40.796212   -8775.0632   -43756.727 
    1600    291.14686   -8732.6849    41.656967   -8774.3419   -13749.946 
    1800    301.21123   -8729.0675    43.096965   -8772.1645   -6065.1881 
    2000    359.27881    -8713.434    51.405211   -8764.8393     2999.771 
    2200    315.76145   -8736.9062    45.178796    -8782.085   -5374.2146 
    2400    311.03797   -8731.6393    44.502965   -8776.1423   -12665.896 
    2600    338.14626   -8720.5774    48.381589    -8768.959    16187.823 
    2800    257.26835   -8731.9397    36.809668   -8768.7493   -16272.764 
    3000    336.45041   -8731.6461    48.138949   -8779.7851    20450.756 
    3200    286.06086   -8729.8024    40.929268   -8770.7317    36386.921 
    3400     322.6989   -8725.5276    46.171398    -8771.699    18936.366 
    3600    265.62786    -8740.873    38.005738   -8778.8787   -23967.109 
    3800    368.41153   -8729.7664     52.71191   -8782.4783   -15686.223 
    4000    381.76695   -8722.7153    54.622788   -8777.3381    17771.748 
    4200    274.05239   -8737.1853    39.211109   -8776.3964   -14171.348 
    4400    282.08325   -8733.4594    40.360156   -8773.8196   -25534.873 
    4600    340.70002   -8728.2555    48.746978   -8777.0025   -1104.5677 
    4800    352.48705   -8724.5107    50.433453   -8774.9441    374.16657 
    5000    285.25198   -8740.3303    40.813535   -8781.1439   -3964.0074 
    5200    310.04887   -8732.6151    44.361446   -8776.9765    5964.4255 
    5400    299.02959   -8726.6465    42.784819   -8769.4314    3144.3902 
    5600    262.64001    -8732.545    37.578239   -8770.1233    35928.643 
    5800     279.1633   -8748.6935    39.942373   -8788.6359   -11577.592 
    6000    254.60656   -8743.6963    36.428823   -8780.1251     2735.391 
    6200    320.16933   -8731.8448     45.80947   -8777.6543    791.28597 
    6400    332.65413   -8724.9053    47.595781   -8772.5011    30078.535 
    6600    245.46683   -8741.1249     35.12112   -8776.2461   -1699.0358 
    6800    304.45496   -8729.0207    43.561075   -8772.5818   -13274.801 
    7000    313.91329   -8725.5231    44.914362   -8770.4374    4704.6162 
    7200    328.08753   -8735.9174    46.942397   -8782.8598    19886.858 
    7400    364.74551   -8723.9138     52.18738   -8776.1012    24967.638 
    7600    312.34163   -8722.8009    44.689492   -8767.4904   -22985.912 
    7800    309.06375   -8734.9661    44.220496   -8779.1866   -312.79783 
    8000    282.46228   -8729.6642    40.414387   -8770.0786     12464.98 
    8200    264.60725   -8724.4314     37.85971   -8762.2911   -13914.365 
    8400    294.00233   -8737.1614    42.065525   -8779.2269     16259.97 
    8600    258.53897   -8733.4586    36.991467   -8770.4501   -45077.639 
    8800    358.92363   -8722.5771    51.354392   -8773.9315   -19292.868 
    9000    301.93295   -8731.5592     43.20023   -8774.7594   -5794.5741 
    9200     282.7684   -8738.8831    40.458186   -8779.3413   -10828.369 
    9400    283.89538   -8726.2601    40.619433   -8766.8796   -6230.0024 
    9600    334.63837   -8719.4871    47.879684   -8767.3668   -15225.767 
    9800    277.82811   -8733.7903    39.751335   -8773.5416    15396.085 
   10000    255.87292   -8737.4635    36.610012   -8774.0735   -5018.1488 
   10200    357.34068   -8719.7759    51.127905   -8770.9038   -21039.581 
   10400     272.7378   -8735.3067     39.02302   -8774.3298    25137.252 
   10600    283.68166   -8735.7647    40.588854   -8776.3536   -4740.4679 
   10800     366.9189   -8722.8352    52.498346   -8775.3336   -2587.7737 
   11000    304.45805   -8727.2022    43.561518   -8770.7637   -4701.7916 
   11200    290.22446   -8736.2411    41.524991   -8777.7661   -14950.737 
   11400    272.85439   -8725.5417    39.039701   -8764.5814   -823.00309 
   11600    375.72818   -8715.8263    53.758768   -8769.5851    30611.376 
   11800    327.59238   -8733.5141    46.871552   -8780.3856   -4827.1578 
   12000     327.7162   -8735.7458    46.889268    -8782.635    5495.0545 
   12200    326.97267   -8724.2619    46.782885   -8771.0448   -42781.416 
   12400    250.91131   -8733.3029     35.90011    -8769.203   -9024.0412 
   12600     263.1286   -8740.1609    37.648146    -8777.809    30270.348 
   12800    361.93419   -8722.2192    51.785139   -8774.0044    4779.8129 
   13000    302.59028   -8730.7056     43.29428   -8773.9999   -29520.493 
   13200    279.33055   -8742.6739    39.966303   -8782.6402   -20812.952 
   13400    303.62732   -8730.9584    43.442658    -8774.401    15598.571 
   13600    307.30193   -8727.9861    43.968417   -8771.9545     7472.173 
   13800    257.87444   -8734.2108    36.896386   -8771.1072   -30901.793 
   14000     221.5151   -8748.0882    31.694133   -8779.7824    21424.548 
   14200    340.43556    -8738.977    48.709139   -8787.6861   -1141.7059 
   14400    269.24892   -8728.7472    38.523835    -8767.271   -29689.587 
   14600    306.55452   -8730.2049    43.861479   -8774.0664   -24986.184 
   14800    334.18641   -8731.3353    47.815017   -8779.1503    10113.287 
   15000    286.99456    -8742.071    41.062861   -8783.1339    -8416.428 
   15200    302.55563   -8743.5887    43.289321    -8786.878   -11748.151 
   15400    342.34362   -8726.1495    48.982142   -8775.1317    22080.141 
   15600    318.71861   -8736.2759    45.601903   -8781.8778    10237.759 
   15800    316.46771   -8738.4461    45.279846    -8783.726   -26929.007 
   16000    265.11097   -8726.2802    37.931782   -8764.2119   -7410.6979 
   16200    291.86787   -8727.7135    41.760129   -8769.4736   -6354.5224 
   16400     295.9774   -8735.5247    42.348115   -8777.8728    11487.796 
   16600    222.01804   -8748.1131    31.766092   -8779.8792    17172.853 
   16800    265.92147   -8731.5602    38.047747    -8769.608   -27613.986 
   17000     336.4232   -8727.9329    48.135056   -8776.0679     4398.949 
   17200    317.51125   -8714.4932    45.429155   -8759.9224    12127.633 
   17400    323.73195   -8733.7469    46.319206   -8780.0661    -12524.07 
   17600    292.93343   -8736.7879    41.912587   -8778.7005   -2440.3652 
   17800    284.47614   -8723.7538    40.702529   -8764.4563    13282.564 
   18000    280.13175   -8746.4475    40.080937   -8786.5284   -47653.652 
   18200    298.30544   -8736.9785    42.681208   -8779.6597   -12055.908 
   18400    333.14907   -8726.5311    47.666597   -8774.1977    6012.0695 
   18600    347.39533   -8734.8382    49.704935   -8784.5431    4047.1556 
   18800     231.5911   -8748.1167    33.135795   -8781.2524   -5512.7248 
   19000    278.64202   -8733.1043    39.867789   -8772.9721   -15327.451 
   19200    342.80553   -8728.2359    49.048232   -8777.2841    26959.424 
   19400    218.21098   -8745.1624    31.221383   -8776.3837   -662.69729 
   19600    315.97361    -8730.675    45.209152   -8775.8841    2660.7113 
   19800    290.09078   -8733.0057    41.505865   -8774.5116   -2309.9128 
   20000    365.08095   -8723.7277    52.235375   -8775.9631    8777.2033 
   20200    314.31431   -8729.2981     44.97174   -8774.2699   -26472.355 
   20400    307.15322   -8737.7177    43.947139   -8781.6649    14762.519 
   20600    353.52825   -8721.1696    50.582428    -8771.752   -3301.4322 
   20800    318.94475   -8728.4327    45.634258    -8774.067    1880.6832 
   21000    269.38978   -8736.7664    38.543989   -8775.3104    10185.072 
   21200    312.67436   -8730.2406    44.737098   -8774.9777   -14742.047 
   21400     325.0963   -8725.6738    46.514416   -8772.1882    10801.633 
   21600    267.82996   -8742.5444    38.320812   -8780.8652    8518.1787 
   21800    323.86483   -8732.3594    46.338218   -8778.6976    -17312.06 
   22000    350.36446   -8727.9674    50.129755   -8778.0972   -18165.586 
   22200    277.72987   -8738.7423    39.737279   -8778.4796   -16190.559 
   22400    309.86972   -8733.4572    44.335813    -8777.793   -31015.637 
   22600    344.13448   -8724.8131    49.238377   -8774.0515   -9175.1587 
   22800     271.1276   -8742.2503    38.792634   -8781.0429   -24789.142 
   23000     309.9318   -8734.2369    44.344695   -8778.5815   -34672.549 
   23200    301.78171   -8729.8823    43.178589   -8773.0609    5752.5869 
   23400    269.74423   -8726.2035    38.594703   -8764.7982   -7506.4446 
   23600    274.03388   -8738.9398    39.208461   -8778.1482    -11863.55 
   23800    317.34773   -8730.7908    45.405758   -8776.1966   -11706.494 
   24000    334.34282   -8730.6614    47.837398   -8778.4988    6725.0227 
   24200    266.64331   -8736.7135    38.151027   -8774.8645   -31948.655 
   24400    245.74627   -8732.5728    35.161102   -8767.7339    16603.163 
   24600    292.41147   -8731.4216    41.837906   -8773.2595    5743.5463 
   24800    306.82435   -8731.5496    43.900085   -8775.4497     24477.56 
   25000    324.28622   -8728.4461    46.398509   -8774.8446   -13212.977 
   25200     298.3489   -8731.6932    42.687427   -8774.3806    23296.947 
   25400    248.35555   -8742.4595    35.534435   -8777.9939    2994.4253 
   25600    338.17439   -8724.1899    48.385613   -8772.5755   -22074.156 
   25800    344.00132   -8731.0533    49.219324   -8780.2726   -6305.7132 
   26000    320.41712   -8736.2357    45.844923   -8782.0806   -10130.263 
   26200    370.77567   -8714.9492    53.050168   -8767.9994    13083.171 
   26400      279.451   -8725.7931    39.983536   -8765.7766    3333.9838 
   26600    270.28232   -8737.9729    38.671693   -8776.6446   -20056.427 
   26800    276.24685   -8733.3643    39.525091   -8772.8893    22564.469 
   27000    318.83007   -8723.4056    45.617851   -8769.0235    17161.278 
   27200    344.95557   -8720.0312    49.355858   -8769.3871   -11893.469 
   27400    317.88863   -8734.8414    45.483149   -8780.3245    24349.485 
   27600    271.28853   -8738.3568     38.81566   -8777.1724    41477.311 
   27800    345.03184   -8722.5164     49.36677   -8771.8832     16316.46 
   28000     291.1976   -8735.3146    41.664227   -8776.9788    156.68903 
   28200    212.38486   -8752.1582    30.387788    -8782.546    3606.5461 
   28400    249.39626   -8742.4782    35.683338   -8778.1616   -21807.306 
   28600    318.36042   -8729.8807    45.550652   -8775.4314   -20929.223 
   28800    309.98357   -8734.1041    44.352103   -8778.4563    222.22005 
   29000     287.8807   -8740.9904    41.189648   -8782.1801    1065.9555 
   29200    301.26862   -8730.3458    43.105178    -8773.451   -15595.803 
   29400    381.69447   -8725.3735    54.612419   -8779.9859   -7749.5604 
   29600    259.24863   -8740.5833    37.093004   -8777.6763   -51919.688 
   29800    300.70585   -8728.1982    43.024656   -8771.2229   -45552.689 
   30000    328.56522   -8717.9869    47.010745   -8764.9976    96.797986 
   30200    234.97174    -8737.564    33.619494   -8771.1835    8250.2403 
   30400    272.54389   -8736.7299    38.995275   -8775.7252    1113.2007 
   30600    333.37579   -8721.8616    47.699036   -8769.5606   -6611.9788 
   30800    242.85441   -8734.2164    34.747338   -8768.9638   -5704.0016 
   31000    331.19925     -8727.27    47.387619   -8774.6576    15420.996 
   31200    269.57233   -8742.3408    38.570108   -8780.9109   -18832.706 
   31400    352.78185   -8727.0276    50.475633   -8777.5032   -12357.443 
   31600    329.49383   -8729.3362    47.143608   -8776.4798     11483.15 
   31800    302.78551   -8735.5722    43.322213   -8778.8944   -4366.6656 
   32000     271.8554   -8727.4491    38.896766   -8766.3459    3080.2235 
   32200    364.70049   -8719.6427    52.180938   -8771.8237     3407.584 
   32400    295.77404   -8735.9304     42.31902   -8778.2494    2898.6214 
   32600    296.53997   -8729.9171    42.428607   -8772.3457   -17865.149 
   32800    325.93255   -8714.3407    46.634065   -8760.9747    1365.3046 
   33000    308.09016   -8737.6827    44.081195   -8781.7639    9.0326212 
   33200    307.28136   -8737.6423    43.965473   -8781.6078   -28756.638 
   33400    258.51671   -8724.6961    36.988283   -8761.6844    9684.6782 
   33600    260.89981   -8740.7196    37.329254   -8778.0489    3609.2291 
   33800    277.96056   -8733.9908    39.770286   -8773.7611    34847.008 
   34000    293.54119   -8730.3569    41.999546   -8772.3565    -17564.56 
   34200    225.86508   -8747.7459    32.316523   -8780.0624    -29029.67 
   34400    265.42216   -8741.8787    37.976306    -8779.855    19286.498 
   34600    302.57323   -8733.4199    43.291839   -8776.7117   -1428.8134 
   34800    365.85114   -8716.8804    52.345573   -8769.2259    13593.644 
   35000    255.54779   -8729.1985    36.563492    -8765.762   -28051.842 
   35200     277.1196   -8732.5759    39.649962   -8772.2258   -31571.631 
   35400    326.10794   -8727.4349    46.659159   -8774.0941    794.20063 
   35600    273.80189   -8729.0893    39.175269   -8768.2646   -17620.281 
   35800    274.25519    -8741.268    39.240125   -8780.5081   -11323.683 
   36000    319.99944   -8727.6112    45.785162   -8773.3964    19982.197 
   36200    411.88047   -8706.8859    58.931397   -8765.8173     27370.65 
   36400    333.48199   -8729.6711    47.714231   -8777.3853    704.21815 
   36600    222.18676    -8738.507    31.790233   -8770.2972    36457.364 
   36800    314.81975   -8722.6285    45.044058   -8767.6726    56413.565 
   37000    307.22682   -8730.5473    43.957669    -8774.505   -21268.585 
   37200    303.11137   -8732.5287    43.368835   -8775.8975    11171.368 
   37400    286.92035   -8745.7243    41.052243   -8786.7765    37336.639 
   37600    251.32327   -8741.8773    35.959053   -8777.8363    16914.807 
   37800    278.46336   -8734.1866    39.842226   -8774.0288    21821.681 
   38000    318.43572   -8721.1231    45.561427   -8766.6845   -18295.538 
   38200    332.06834   -8724.7378    47.511967   -8772.2498    15637.836 
   38400    238.17808   -8737.0412    34.078254   -8771.1195   -1460.2767 
   38600    299.55478   -8723.2905    42.859963   -8766.1504    -42755.28 
   38800    306.53015   -8731.2517    43.857992   -8775.1096    29679.403 
   39000     273.2282   -8739.0158    39.093185    -8778.109     26016.05 
   39200    315.60521   -8725.8165    45.156441    -8770.973    10889.956 
   39400    294.69111   -8734.5269    42.164074   -8776.6909    23552.553 
   39600    273.67388   -8740.3022    39.156954   -8779.4591   -15591.999 
   39800    358.30874   -8725.8435    51.266413   -8777.1099    11669.171 
   40000    245.73539   -8739.5586    35.159545   -8774.7182    12908.274 
   40200    308.06111   -8740.3513     44.07704   -8784.4283   -12140.787 
   40400    298.27621   -8726.9513    42.677026   -8769.6283   -33592.557 
   40600    306.79908   -8731.5276     43.89647   -8775.4241   -31061.311 
   40800    274.50529   -8731.0896    39.275911   -8770.3655   -22716.706 
   41000    357.43974   -8708.8731    51.142078   -8760.0152    29946.011 
   41200    301.66888   -8728.5069    43.162446   -8771.6693    12595.099 
   41400    321.06838   -8736.3099    45.938106    -8782.248   -6729.8851 
   41600    256.47844   -8743.2737    36.696648   -8779.9704   -15622.712 
   41800     362.5163    -8726.733    51.868427   -8778.6014    7664.6855 
   42000    285.59156   -8737.0186    40.862121   -8777.8807   -12103.443 
   42200    249.30108   -8753.1626    35.669719   -8788.8324    14021.344 
   42400    241.04303   -8736.8479    34.488167    -8771.336   -20872.547 
   42600    365.46987   -8723.7298    52.291021   -8776.0208   -20101.226 
   42800    280.03869   -8737.9211    40.067622   -8777.9887   -7567.0085 
   43000    305.31106    -8738.541    43.683565   -8782.2246    509.39259 
   43200    300.83648   -8732.0569    43.043347   -8775.1003    78180.437 
   43400    306.21877   -8731.1379    43.813439   -8774.9513    39754.082 
   43600    235.77552    -8747.801    33.734498   -8781.5355    -2793.869 
   43800     317.7153   -8736.2809    45.458351   -8781.7392    12488.226 
   44000    284.05814   -8730.0164    40.642721   -8770.6591   -4660.8529 
   44200    389.13201   -8712.9589    55.676573   -8768.6354   -13101.657 
   44400    289.36767   -8727.2221    41.402402   -8768.6245   -12373.646 
   44600    301.75924   -8736.7921    43.175374   -8779.9674   -17997.237 
   44800     277.0503   -8736.9449    39.640047   -8776.5849    39525.071 
   45000    255.03621    -8734.054    36.490296   -8770.5443    4932.1525 
   45200    310.15921   -8720.9532    44.377233   -8765.3305   -25629.219 
   45400    260.17753   -8739.2577     37.22591   -8776.4837   -31836.783 
   45600    299.61762   -8733.5342    42.868954   -8776.4031    -2544.623 
   45800    342.16372   -8720.0844    48.956402   -8769.0408    4477.7096 
   46000    332.40682   -8728.8704    47.560397   -8776.4308    -23641.54 
   46200    283.23611   -8738.2045    40.525107   -8778.7296    7009.6675 
   46400     284.8234   -8725.2842    40.752214   -8766.0364   -17552.816 
   46600    334.63296    -8727.183     47.87891   -8775.0619   -15451.557 
   46800    345.24616   -8738.3244    49.397435   -8787.7219   -8039.3058 
   47000    338.05536   -8724.0446    48.368583   -8772.4132   -23133.213 
   47200    368.35706   -8725.6677    52.704117   -8778.3718    8831.1461 
   47400      309.706   -8732.4347    44.312388   -8776.7471    7529.9689 
   47600    356.25306   -8721.9604     50.97229   -8772.9327   -35070.406 
   47800    287.45185   -8734.4945    41.128289   -8775.6228    12042.124 
   48000    292.83091     -8738.16     41.89792   -8780.0579     532.1443 
   48200    349.02081   -8721.6279    49.937508   -8771.5654   -5228.0694 
   48400    305.33531   -8733.7264    43.687034   -8777.4134   -17198.802 
   48600    289.78825   -8733.6166    41.462579   -8775.0792     36898.41 
   48800    283.78942   -8718.6094    40.604273   -8759.2137   -27207.004 
   49000    279.13997   -8740.2004    39.939035   -8780.1394    18569.074 
   49200    337.34891   -8731.4369    48.267504   -8779.7044   -9351.9814 
   49400    280.33127   -8732.2393    40.109485   -8772.3488    13149.521 
   49600    317.05059   -8733.9012    45.363244   -8779.2644   -7505.2925 
   49800     244.7785   -8744.1707    35.022634   -8779.1933    22391.679 
   50000     321.5767   -8726.4147    46.010835   -8772.4256   -362.63906 
   50200    257.22661   -8731.4661    36.803696   -8768.2698    23983.664 
   50400    290.07496   -8738.3496    41.503601   -8779.8532   -8701.6613 
   50600    302.26028   -8733.6058    43.247064   -8776.8528   -12839.278 
   50800    249.32366   -8737.2515     35.67295   -8772.9245   -19953.883 
   51000    378.01507   -8716.0438    54.085974   -8770.1297   -19367.856 
   51200    332.17562   -8731.5785    47.527316   -8779.1058    27624.462 
   51400     306.1882   -8731.6237    43.809065   -8775.4328    -17490.49 
   51600    266.65339   -8729.4857    38.152468   -8767.6382    532.77534 
   51800    271.57094   -8744.5852    38.856067   -8783.4412   -29194.629 
   52000    297.19426   -8736.5374    42.522223   -8779.0596    8750.4576 
   52200    284.62332   -8733.4519    40.723587   -8774.1754    14794.675 
   52400    360.19782   -8716.8361    51.536702   -8768.3728   -1811.0431 
   52600    299.76656   -8729.3695    42.890265   -8772.2597    11480.837 
   52800    248.06473   -8735.8677    35.492824   -8771.3605   -9632.8761 
   53000    294.10694   -8735.6218    42.080493   -8777.7023   -13216.103 
   53200    273.67793   -8725.6826    39.157533   -8764.8402   -17264.167 
   53400    285.63597   -8731.9301    40.868475   -8772.7986    2915.8724 
   53600    303.59159   -8738.4954    43.437546    -8781.933   -3160.7355 
   53800    288.83107   -8728.7115    41.325627   -8770.0371   -5038.9699 
   54000    352.03363   -8730.5451    50.368578   -8780.9137    -7910.428 
   54200    291.43456   -8732.6329    41.698131    -8774.331   -12254.923 
   54400    383.97487   -8720.2682    54.938696   -8775.2069    21974.363 
   54600    289.29847   -8735.0043    41.392502   -8776.3968    -23796.64 
   54800    322.69809   -8731.5503    46.171282   -8777.7215    1364.3627 
   55000    409.51612   -8715.6857    58.593109   -8774.2788   -23174.231 
   55200    331.07649   -8733.7678    47.370055   -8781.1378    16322.639 
   55400    234.39502   -8735.8722    33.536978   -8769.4092    682.02568 
   55600    394.22973   -8722.4117    56.405949   -8778.8176   -21086.058 
   55800    268.31785   -8736.8793    38.390617   -8775.2699   -1374.2085 
   56000    269.56649    -8734.548    38.569272   -8773.1172   -8823.7295 
   56200    255.05293    -8728.899    36.492688   -8765.3917   -12369.484 
   56400    232.16225   -8744.4354    33.217515   -8777.6529    31289.871 
   56600    320.10785   -8734.7694    45.800674   -8780.5701    3114.6084 
   56800    299.22152    -8729.971    42.812281   -8772.7833   -30243.455 
   57000    238.08354   -8746.2383    34.064727    -8780.303    12805.989 
   57200    229.07793   -8743.2188    32.776214    -8775.995    8798.6936 
   57400    273.69467   -8733.4247    39.159928   -8772.5846   -30277.388 
   57600    341.37189   -8723.1333    48.843109   -8771.9764   -14642.757 
   57800    227.06014   -8740.6171    32.487511   -8773.1046     10709.31 
   58000    262.38375   -8734.8976    37.541574   -8772.4392    6593.2164 
   58200    321.01715   -8723.4101    45.930776   -8769.3408    17509.989 
   58400    311.69319   -8729.7959    44.596714   -8774.3926     -23608.5 
   58600    316.39629    -8732.983    45.269627   -8778.2526    12612.603 
   58800    266.26973    -8746.561    38.097575   -8784.6586   -11757.129 
   59000    302.93023    -8733.722    43.342919   -8777.0649   -2034.0763 
   59200    335.01803   -8727.5157    47.934006   -8775.4497   -21976.112 
   59400     303.9293   -8743.5707    43.485865   -8787.0566    10309.422 
   59600    280.38469    -8733.307    40.117128   -8773.4241    27508.914 
   59800      310.364   -8727.4323    44.406534   -8771.8389   -17066.819 
   60000    282.19856   -8740.1136    40.376654   -8780.4903   -15809.801 
   60200    293.74953   -8724.9272    42.029354   -8766.9566    29987.991 
   60400    334.48394   -8722.6757    47.857588   -8770.5333    25963.912 
   60600    328.49802     -8738.17    47.001129   -8785.1711   -37951.172 
   60800    314.28031    -8733.272    44.966876   -8778.2388   -7045.2447 
   61000    398.94919   -8716.2072    57.081204   -8773.2884   -17860.001 
   61200    379.33152   -8727.2185    54.274331   -8781.4928    5987.6446 
   61400    284.74992   -8737.9588      40.7417   -8778.7005    10969.257 
   61600     298.2971   -8734.6035    42.680015   -8777.2835    851.92483 
   61800    327.62876   -8719.7261    46.876757   -8766.6028    21933.646 
   62000    290.66269   -8732.3933    41.587693   -8773.9809   -33067.881 
   62200    309.61999   -8732.0492    44.300082   -8776.3493    2662.9748 
   62400    253.27705   -8735.7701    36.238597   -8772.0086   -1993.6892 
   62600    271.86422   -8736.9713    38.898028   -8775.8693    10590.916 
   62800     376.9607   -8720.4695    53.935116   -8774.4046   -28992.925 
   63000    285.23492   -8733.2454    40.811093   -8774.0564   -3184.9326 
   63200    324.27113   -8733.2935    46.396351   -8779.6899    24853.356 
   63400     252.7134   -8739.1899    36.157952   -8775.3478    5566.1256 
   63600    310.91305   -8726.9788    44.485092   -8771.4639   -21413.077 
   63800    298.56965   -8729.3457    42.719012   -8772.0647     28088.99 
   64000    250.91112   -8742.6551    35.900083   -8778.5552    21247.139 
   64200    302.59634   -8730.1084    43.295147   -8773.4036   -17696.682 
   64400    312.05133   -8728.3925    44.647956   -8773.0404   -7811.8356 
   64600    235.08785   -8746.4854    33.636107   -8780.1216   -34620.114 
   64800    271.00108   -8739.5153    38.774531   -8778.2899    -29829.69 
   65000    293.04042   -8731.3594    41.927896   -8773.2872    6402.9314 
   65200    396.09927   -8713.5052     56.67344   -8770.1787    5463.5033 
   65400    296.51524   -8730.7107    42.425069   -8773.1357   -1650.4984 
   65600    309.26037   -8736.9614    44.248628     -8781.21    2955.7542 
   65800    358.89997   -8724.2487    51.351007   -8775.5997    24919.107 
   66000    348.15245   -8729.3961    49.813263   -8779.2094   -5246.1771 
   66200    267.71457   -8741.5308    38.304302   -8779.8351    10339.553 
   66400      295.265   -8728.5956    42.246186   -8770.8418   -8319.7366 
   66600    215.88122   -8730.8924    30.888044   -8761.7805   -484.10916 
   66800    237.43911   -8746.1315    33.972523    -8780.104   -27944.784 
   67000    298.95291   -8730.2379    42.773848   -8773.0117   -36718.551 
   67200    303.11975   -8732.7765    43.370034   -8776.1465    6973.4645 
   67400     321.9912   -8731.5263    46.070141   -8777.5964     8617.472 
   67600    263.04979   -8740.4759     37.63687   -8778.1128   -4611.2496 
   67800    230.25204   -8734.7048    32.944205    -8767.649    18809.962 
   68000    301.78172   -8724.1179    43.178591   -8767.2965    52579.861 
   68200    316.62998   -8734.8275    45.303064   -8780.1306    50350.645 
   68400    319.78213   -8735.1828     45.75407   -8780.9369   -23453.793 
   68600    282.03245   -8730.9737    40.352888   -8771.3266    16895.192 
   68800    329.98431   -8714.8688    47.213786   -8762.0826   -2205.2522 
   69000    364.39222   -8732.3563    52.136831   -8784.4931   -25309.129 
   69200    229.44723   -8739.4113    32.829053   -8772.2404    57801.448 
   69400    299.15041   -8726.1461    42.802107   -8768.9482   -38053.906 
   69600    326.19133   -8725.8753     46.67109   -8772.5464   -11043.476 
   69800    314.31358   -8738.9362    44.971635   -8783.9078    52161.665 
   70000     334.3493   -8726.1395    47.838324   -8773.9778    3193.0639 
   70200    296.07686   -8721.1662    42.362346   -8763.5286    10126.124 
   70400    242.98137   -8734.0625    34.765503    -8768.828    2865.0629 
   70600    257.42303   -8735.9357      36.8318   -8772.7675   -45339.572 
   70800     361.6381   -8717.8901    51.742775   -8769.6329    -3148.374 
   71000    289.50084   -8733.3141    41.421456   -8774.7356    11975.887 
   71200    299.28188   -8734.5589    42.820917   -8777.3798    43389.752 
   71400    364.81929   -8724.8905    52.197937   -8777.0885    82189.173 
   71600    294.71875   -8737.8224    42.168029   -8779.9905    10757.895 
   71800    256.74816   -8735.1339     36.73524   -8771.8691    43841.825 
   72000    283.02308   -8721.7257    40.494627   -8762.2203    46705.597 
   72200    282.59743    -8740.225    40.433725   -8780.6587   -15496.856 
   72400     349.7006   -8726.4904    50.034771   -8776.5251   -690.22666 
   72600    293.28982   -8727.7764    41.963579     -8769.74   -10840.718 
   72800    239.07792    -8743.124    34.207001    -8777.331   -7117.7973 
   73000    328.20209   -8729.3896    46.958788   -8776.3484   -25211.244 
   73200    317.04385   -8732.8177     45.36228   -8778.1799   -6230.6794 
   73400    231.10724   -8742.1979    33.066565   -8775.2645   -21035.433 
   73600    329.89547   -8730.8148    47.201074   -8778.0159   -1389.6384 
   73800    313.24287   -8728.0767     44.81844   -8772.8951    16565.911 
   74000    298.12784    -8734.278    42.655798   -8776.9338    6407.3926 
   74200    328.64578   -8725.6955    47.022271   -8772.7178   -43496.309 
   74400     353.8588   -8723.1437    50.629722   -8773.7734    13547.942 
   74600    339.42486   -8733.6286     48.56453   -8782.1931    47452.372 
   74800    270.14641   -8731.9362    38.652246   -8770.5885    49042.559 
   75000    307.35124   -8719.4217    43.975472   -8763.3972   -24732.859 
   75200    297.53171   -8736.0563    42.570504   -8778.6268   -7096.1584 
   75400     292.1952   -8733.0382    41.806962   -8774.8452    33882.554 
   75600    275.80452   -8730.1868    39.461802   -8769.6486    14503.652 
   75800    274.42125    -8732.024    39.263886   -8771.2879    14097.429 
   76000    262.38204   -8741.2695    37.541329   -8778.8109   -11143.715 
   76200    314.45928   -8727.6572    44.992483   -8772.6497   -13607.123 
   76400    303.09688   -8730.0832    43.366763   -8773.4499    -44122.29 
   76600    273.54363   -8751.1802    39.138317   -8790.3185    16721.478 
   76800    263.95186   -8739.4373    37.765937   -8777.2033    -26302.93 
   77000    372.30508   -8726.3105    53.268995   -8779.5795    23093.532 
   77200    242.78508   -8737.3067    34.737417   -8772.0441   -25328.763 
   77400    307.37825   -8739.8779    43.979337   -8783.8573   -7949.8563 
   77600    314.65895   -8733.0515    45.021051   -8778.0725   -10510.745 
   77800    348.23627   -8715.5497    49.825256    -8765.375    28055.837 
   78000    327.14534   -8726.4238     46.80759   -8773.2314    10070.595 
   78200    286.05947   -8735.7762    40.929069   -8776.7052    32939.359 
   78400    280.90686     -8724.96    40.191839   -8765.1518    19584.208 
   78600     317.2838   -8724.1267    45.396611   -8769.5234    -15067.88 
   78800    291.88369   -8739.5469    41.762392   -8781.3093    17470.005 
   79000    276.68992   -8731.1452    39.588484   -8770.7336   -22047.074 
   79200    290.25482   -8725.0691    41.529336   -8766.5985    9296.4954 
   79400    297.01436   -8734.1582    42.496482   -8776.6547   -37017.204 
   79600    269.20975   -8729.4353    38.518231   -8767.9536   -5173.6919 
   79800    296.58263   -8731.1514    42.434711   -8773.5861    4874.9263 
   80000    283.42652   -8738.2377     40.55235     -8778.79   -8411.7472 
   80200    372.20682   -8724.7165    53.254936   -8777.9714   -40393.544 
   80400    263.13705   -8732.5066    37.649355    -8770.156   -2719.9101 
   80600    312.71999   -8734.0977    44.743626   -8778.8413    -5166.661 
   80800    304.56726   -8732.3632    43.577144   -8775.9404    1857.5031 
   81000    362.80048   -8714.8322    51.909087   -8766.7412    34677.293 
   81200    296.02348   -8730.0211    42.354708   -8772.3758   -13576.277 
   81400    309.23125   -8740.5582    44.244462   -8784.8027    7383.9824 
   81600    269.88198     -8736.64    38.614412   -8775.2544    2259.6024 
   81800    259.85779   -8727.8676    37.180162   -8765.0478   -12863.748 
   82000    243.74885   -8740.6926    34.875312   -8775.5679   -18168.279 
   82200    336.01154   -8722.6948    48.076156   -8770.7709    25817.436 
   82400    307.31775        -8730    43.970681   -8773.9707    37203.927 
   82600     284.8793   -8736.2169    40.760212   -8776.9771   -13618.748 
   82800    387.84305   -8714.4995    55.492151   -8769.9916    49675.788 
   83000    305.28652    -8730.009    43.680055    -8773.689    7726.1524 
   83200    271.70247   -8740.9369    38.874885   -8779.8118    15452.193 
   83400    326.28471   -8735.8997    46.684451   -8782.5842   -4718.7282 
   83600    271.35989   -8729.8806     38.82587   -8768.7064   -36427.944 
   83800    287.85655   -8736.4487    41.186193   -8777.6349    8500.2357 
   84000    314.67566   -8721.3401    45.023441   -8766.3635   -24124.517 
   84200    292.84798   -8738.4047    41.900362    -8780.305   -13863.926 
   84400    245.52542   -8744.5312    35.129502   -8779.6607   -13055.442 
   84600    284.14648   -8732.2106    40.655361    -8772.866    31648.018 
   84800    310.36343   -8736.3251    44.406453   -8780.7316   -3674.7486 
   85000    271.93756    -8738.677    38.908522   -8777.5856    -27365.02 
   85200    261.53087   -8727.0974    37.419545    -8764.517    19946.621 
   85400    333.97005   -8734.9785    47.784061   -8782.7626   -18565.437 
   85600    253.93042   -8747.8939    36.332081   -8784.2259    35222.162 
   85800    251.87719   -8732.7235    36.038307   -8768.7618   -27196.353 
   86000    352.02965   -8726.6444    50.368009   -8777.0124     20052.42 
   86200    251.82743   -8742.5081    36.031187   -8778.5393     10490.68 
   86400    298.52622   -8732.0079    42.712797   -8774.7207    8819.6916 
   86600    234.46274   -8734.2142    33.546667   -8767.7609   -25499.289 
   86800    363.60454   -8724.1109    52.024131    -8776.135   -38860.009 
   87000    270.08617   -8738.7954    38.643627    -8777.439    9483.6471 
   87200    320.27047   -8733.6817    45.823941   -8779.5057    25572.496 
   87400    262.41378   -8731.2835     37.54587   -8768.8293     6255.454 
   87600    356.22225   -8724.9999    50.967882   -8775.9677   -29171.597 
   87800    236.71683   -8738.3294    33.869179   -8772.1985   -420.99862 
   88000    303.48649   -8733.4149    43.422508   -8776.8374    32478.505 
   88200    316.09751   -8715.7016    45.226878   -8760.9284    51353.089 
   88400     318.7264   -8730.5657    45.603017   -8776.1688   -50501.754 
   88600    284.97988   -8736.7998    40.774603   -8777.5744   -28279.547 
   88800     309.6424   -8725.0501    44.303289   -8769.3534    20925.758 
   89000    301.79785   -8731.3197      43.1809   -8774.5006   -20046.942 
   89200    321.57926   -8736.8582    46.011201   -8782.8694    872.94428 
   89400    240.68583   -8749.6908     34.43706   -8784.1278    57261.467 
   89600    315.45748   -8726.3101    45.135303   -8771.4454    11651.257 
   89800    339.40922   -8725.0539    48.562292   -8773.6162   -46117.193 
   90000    236.11185   -8739.4664    33.782619    -8773.249    11291.344 
   90200    266.85563   -8732.6438    38.181405   -8770.8252    5904.2962 
   90400    329.07788   -8730.6128    47.084096   -8777.6968   -7866.7321 
   90600     258.5202   -8741.2042    36.988781    -8778.193   -7840.1347 
   90800     328.1833   -8722.6519      46.9561    -8769.608     9322.209 
   91000    311.79385   -8727.2239    44.611116    -8771.835    7852.6254 
   91200    265.01179   -8734.1744     37.91759    -8772.092   -10259.184 
   91400    326.40348   -8733.0041    46.701445   -8779.7056    21524.163 
   91600    314.91073    -8732.662    45.057075   -8777.7191    23835.834 
   91800    244.07271   -8746.0475    34.921651   -8780.9691    28066.844 
   92000    331.63168   -8734.5281     47.44949   -8781.9776    21982.132 
   92200    326.14547   -8728.6656     46.66453   -8775.3301     15353.88 
   92400    364.42655   -8713.3332    52.141743   -8765.4749   -10251.383 
   92600    303.03914   -8736.0978    43.358502   -8779.4563    -4979.878 
   92800    273.11181   -8736.3893    39.076532   -8775.4659    24744.578 
   93000    356.43027   -8722.1622    50.997645   -8773.1599   -1225.3748 
   93200    320.47475   -8724.6841    45.853169   -8770.5373    -33661.82 
   93400    248.77556   -8733.2563     35.59453   -8768.8508    1542.1262 
   93600    352.51023   -8722.6565     50.43677   -8773.0933   -31630.287 
   93800    270.14794   -8739.1839    38.652465   -8777.8364   -19254.353 
   94000     304.6855   -8731.2347    43.594061   -8774.8288    22458.643 
   94200    292.65738   -8747.6114     41.87309   -8789.4845    14083.101 
   94400    264.22333   -8741.7141    37.804779   -8779.5189   -10892.486 
   94600    247.11076   -8733.5646    35.356331   -8768.9209   -23240.553 
   94800    340.81602   -8718.4213    48.763575   -8767.1849   -31135.766 
   95000    258.29571    -8735.586    36.956661   -8772.5426    35667.421 
   95200    298.08448   -8733.4241    42.649594   -8776.0737     1108.451 
   95400    327.36327   -8724.8982    46.838771    -8771.737   -72.205777 
   95600    329.22428   -8729.9735    47.105042   -8777.0786    5628.8624 
   95800    301.49592   -8734.2679    43.137699   -8777.4056   -16615.365 
   96000    351.18548   -8726.4522    50.247225   -8776.6994   -47690.775 
   96200    311.88747   -8719.6861    44.624511   -8764.3106    34759.771 
   96400    304.20769   -8737.6593    43.525696    -8781.185    33350.203 
   96600    312.54177   -8735.2899    44.718128    -8780.008    34826.797 
   96800     280.6091   -8732.0305    40.149236   -8772.1797    9416.3596 
   97000    294.43203     -8729.78    42.127006    -8771.907   -23579.686 
   97200    313.69444   -8721.7191     44.88305   -8766.6021    30040.438 
   97400    290.68806   -8737.8217    41.591323    -8779.413    8884.4647 
   97600    328.05983   -8731.6203    46.938434   -8778.5587    16114.227 
   97800    368.31544   -8723.4587    52.698161   -8776.1568   -39167.952 
   98000    259.67051    -8742.021    37.153366   -8779.1744    11961.848 
   98200    312.69162   -8731.9265    44.739567   -8776.6661    41837.303 
   98400    355.56218   -8727.9399     50.87344   -8778.8134    131.35416 
   98600    275.40363   -8735.9348    39.404444   -8775.3393     5388.836 
   98800    389.27262   -8716.2561    55.696692   -8771.9528    14982.366 
   99000    290.89284     -8728.28    41.620622   -8769.9006   -47823.285 
   99200    275.17273   -8734.8677    39.371407   -8774.2391    17736.993 
   99400     291.2049   -8730.9168    41.665272   -8772.5821    41420.927 
   99600     311.3021   -8730.0321    44.540757   -8774.5729    18893.977 
   99800    282.47283   -8741.5006    40.415897   -8781.9165   -9448.0699 
  100000    361.71801   -8733.6348    51.754208    -8785.389   -2362.5579 
  100200    324.27635   -8726.3913    46.397098   -8772.7884   -19740.264 
  100400    312.72494   -8730.8109    44.744335   -8775.5552   -51723.293 
  100600    277.90577   -8732.8893    39.762446   -8772.6517    15510.262 
  100800    305.25379   -8727.6859    43.675371   -8771.3612    33128.144 
  101000     287.2831   -8744.2213    41.104144   -8785.3255   -11804.044 
  101200    350.57607   -8728.3752    50.160032   -8778.5352    9136.6123 
  101400    334.17333   -8727.5122    47.813146   -8775.3254    45774.119 
  101600    294.99258   -8732.1527    42.207208   -8774.3599    28023.037 
  101800    230.70768   -8750.5106    33.009397     -8783.52   -35331.866 
  102000    235.70795   -8741.8458     33.72483   -8775.5706    8375.2875 
  102200    329.51183   -8730.0439    47.146184   -8777.1901   -138.53269 
  102400    310.99641   -8741.0541    44.497019   -8785.5511   -3135.0014 
  102600    243.19213   -8742.6309    34.795657   -8777.4265   -4396.2096 
  102800    293.64177   -8730.5221    42.013936    -8772.536   -51893.151 
  103000    329.12338   -8728.0075    47.090605   -8775.0981   -14672.601 
  103200     215.8726   -8743.9256     30.88681   -8774.8124   -18998.755 
  103400    318.41811   -8731.3733    45.558907   -8776.9322   -21234.845 
  103600     281.5404   -8735.7522    40.282486   -8776.0347   -23975.115 
  103800    284.51273   -8732.3193    40.707764    -8773.027   -6517.9502 
  104000    328.93438   -8718.9983    47.063563   -8766.0619    9646.4345 
  104200    287.58315   -8736.5485    41.147076   -8777.6956    50223.911 
  104400     258.0679   -8730.2263    36.924067   -8767.1503    12463.411 
  104600    311.51734   -8723.2769    44.571553   -8767.8485   -35255.304 
  104800    254.86222   -8740.8347    36.465402   -8777.3001     8103.027 
  105000    300.62687   -8727.2729    43.013357   -8770.2863   -8670.0844 
  105200     286.4987   -8734.7013    40.991913   -8775.6932    -11378.02 
  105400    271.27192   -8745.3662    38.813284   -8784.1795    3679.5271 
  105600    295.52062   -8732.8037     42.28276   -8775.0865    24235.645 
  105800    315.50176   -8732.5014    45.141639    -8777.643    30464.099 
  106000    279.20643   -8738.0152    39.948544   -8777.9638   -33086.573 
  106200    385.22567    -8715.637    55.117659   -8770.7547    38132.381 
  106400    333.70308   -8727.3243    47.745864   -8775.0701    3567.3993 
  106600    273.57696    -8736.312    39.143086    -8775.455     -13567.1 
  106800    285.53932   -8725.5385    40.854647   -8766.3931    10821.728 
  107000    323.67202   -8732.2642    46.310631   -8778.5748    7386.9198 
  107200    249.61415   -8739.5552    35.714513   -8775.2697    14549.412 
  107400    303.69302   -8728.0436    43.452058   -8771.4956   -1924.5175 
  107600    399.15492    -8710.399    57.110639   -8767.5097   -19323.081 
  107800    283.07521   -8731.6974    40.502085   -8772.1994   -1877.6579 
  108000    267.67233   -8737.3313    38.298258   -8775.6296   -5219.7626 
  108200    350.76441   -8719.6253     50.18698   -8769.8122     22586.22 
  108400     282.1257     -8737.05     40.36623   -8777.4162    22650.295 
  108600    317.24847   -8729.7524    45.391557    -8775.144   -37615.915 
  108800    276.45231   -8726.3257    39.554488   -8765.8801   -32479.241 
  109000    299.95465   -8740.3077    42.917176   -8783.2248    9367.3548 
  109200    311.50175   -8732.9027    44.569323    -8777.472    33637.978 
  109400    342.57822   -8724.6855    49.015709   -8773.7012    9739.3684 
  109600    260.82639   -8735.5107    37.318748   -8772.8295    -35856.95 
  109800    286.61066   -8732.7019    41.007933   -8773.7098     27082.34 
  110000    381.04099   -8717.5622    54.518919   -8772.0811    20734.213 
  110200    282.59249   -8734.9891    40.433017   -8775.4222    22899.203 
  110400     302.6563   -8735.6645    43.303726   -8778.9683    6147.2317 
  110600    363.80832   -8722.9104    52.053287   -8774.9637   -11916.024 
  110800    304.11993   -8729.7912     43.51314   -8773.3044      10638.8 
  111000     281.1626   -8739.1814    40.228431   -8779.4099    15443.649 
  111200    305.88584   -8725.0103    43.765805   -8768.7761   -9145.2768 
  111400    305.15429   -8730.8665    43.661135   -8774.5277   -20721.179 
  111600    307.22021   -8735.2194    43.956725   -8779.1761     38830.03 
  111800     355.6602    -8719.104    50.887464   -8769.9915    10923.639 
  112000    392.97946   -8719.6484    56.227062   -8775.8755   -5564.3997 
  112200    264.30259   -8731.8699    37.816119    -8769.686    15760.766 
  112400    300.05089   -8730.2166    42.930946   -8773.1475   -8702.5056 
  112600    346.40501   -8723.9921    49.563241   -8773.5553    43591.867 
  112800    278.59937   -8740.0092    39.861686   -8779.8709   -32085.983 
  113000    330.95161   -8739.0684    47.352186   -8786.4206    1048.8888 
  113200    334.03247   -8718.8288    47.792993   -8766.6218    6614.5155 
  113400    303.66072   -8735.3739    43.447436   -8778.8214    8731.6077 
  113600    296.24111    -8730.975    42.385846   -8773.3609     10697.04 
  113800    326.68463   -8714.3584    46.741671      -8761.1    8877.7551 
  114000    307.80619   -8730.6941    44.040565   -8774.7347    8588.4784 
  114200    279.49518   -8734.4418    39.989858   -8774.4316   -41803.882 
  114400    271.34329   -8743.7011    38.823494   -8782.5246   -6411.1222 
  114600    264.54611   -8734.5356    37.850962   -8772.3865   -15109.662 
  114800    339.58976    -8726.025    48.588123   -8774.6132    -11335.17 
  115000    251.67548   -8739.9466    36.009446   -8775.9561   -18005.682 
  115200      260.142   -8734.5545    37.220827   -8771.7753   -17500.041 
  115400    257.79848   -8723.1771    36.885518   -8760.0626     14599.58 
  115600    298.37705     -8736.99    42.691454   -8779.6814   -35350.465 
  115800    299.09581   -8732.5053    42.794294   -8775.2996    16909.639 
  116000    307.45574    -8723.881    43.990424   -8767.8715     21288.51 
  116200    290.21948   -8731.8992    41.524278   -8773.4235    35660.233 
  116400    353.39769   -8734.6152    50.563747    -8785.179   -3027.5614 
  116600    215.00636     -8746.29     30.76287   -8777.0529    12397.078 
  116800    279.02398   -8741.7429     39.92244   -8781.6653    2180.9191 
  117000    306.43973   -8731.4315    43.845054   -8775.2766   -1958.8454 
  117200    271.11453   -8728.6464    38.790764   -8767.4372    17151.065 
  117400    251.92233   -8741.4095    36.044766   -8777.4542    19703.072 
  117600    365.98173    -8722.964    52.364256   -8775.3282    -38630.86 
  117800    338.35143   -8727.3166    48.410944   -8775.7275   -9957.2018 
  118000    296.94558   -8738.9859    42.486642   -8781.4726     8145.781 
  118200    317.21932   -8734.6018    45.387386   -8779.9892   -9534.2263 
  118400    335.50819   -8716.6199    48.004136    -8764.624    17876.908 
  118600    300.16668   -8735.7184    42.947513   -8778.6659    20465.948 
  118800    267.39333   -8738.4234    38.258339   -8776.6818    8461.7191 
  119000    323.97865    -8721.073    46.354504   -8767.4275    15260.071 
  119200     278.8799   -8730.7409    39.901825   -8770.6428   -15088.842 
  119400    278.76616   -8734.8203    39.885551   -8774.7059    14589.001 
  119600    304.90142   -8729.0223    43.624954   -8772.6472   -23485.596 
  119800    256.73864   -8735.6184    36.733878   -8772.3522     4820.356 
  120000     288.9982   -8738.5567    41.349539   -8779.9062   -581.65514 
  120200    381.52607   -8727.2569    54.588323   -8781.8452   -24110.771 
  120400    249.14283   -8745.6073    35.647077   -8781.2544   -13536.693 
  120600    328.55512   -8736.9169      47.0093   -8783.9262    -2844.343 
  120800    282.36222    -8725.677     40.40007   -8766.0771    41261.846 
  121000    225.61261   -8735.5134    32.280401   -8767.7938   -6030.0724 
  121200    303.69407   -8726.7717    43.452207   -8770.2239   -22750.559 
  121400    307.37622    -8724.086    43.979047   -8768.0651   -10820.731 
  121600    303.55639   -8730.8007    43.432509   -8774.2332    1058.0653 
  121800    268.44989   -8739.7471    38.409511   -8778.1566    6803.4894 
  122000    318.87955   -8734.1435     45.62493   -8779.7684    145.89776 
  122200     345.7854   -8735.4187    49.474588   -8784.8933   -11698.302 
  122400    248.34802   -8743.7915    35.533357   -8779.3248   -29208.003 
  122600    338.63127   -8728.8763    48.450983   -8777.3273    11888.075 
  122800    327.28563   -8727.2444    46.827662    -8774.072   -31546.575 
  123000    237.37693   -8740.0668    33.963627   -8774.0304    -9064.983 
  123200    273.47396   -8732.1474    39.128349   -8771.2757   -18985.255 
  123400    321.55212   -8726.9831    46.007318   -8772.9904    35438.837 
  123600    287.74541   -8739.1577    41.170292    -8780.328    54583.748 
  123800    325.36089   -8737.6171    46.552272   -8784.1693   -24564.436 
  124000    309.36478    -8724.109    44.263567   -8768.3726    3572.6375 
  124200    286.50081   -8734.4348    40.992216    -8775.427   -14507.758 
  124400     308.9552   -8733.5683    44.204964   -8777.7732   -1265.2828 
  124600    308.12053   -8714.7771    44.085541   -8758.8626     54736.51 
  124800    295.84853   -8730.2427    42.329677   -8772.5724   -11600.735 
  125000    272.75959   -8733.8953    39.026138   -8772.9215   -11328.774 
  125200    308.51202   -8729.4386    44.141555   -8773.5802   -15153.627 
  125400    270.42502   -8733.6423     38.69211   -8772.3344   -13921.223 
  125600    282.72843   -8739.3697    40.452467   -8779.8221    34339.318 
  125800    317.25221   -8723.3974    45.392091   -8768.7895   -7256.1142 
  126000    314.75048   -8734.5589    45.034146    -8779.593    -18367.94 
  126200    293.01473   -8731.2442     41.92422   -8773.1684   -23330.975 
  126400    267.89482   -8736.5047    38.330092   -8774.8348   -6286.4575 
  126600    243.30582    -8736.923    34.811924   -8771.7349    46638.902 
  126800    294.71414   -8726.8221     42.16737   -8768.9895    -10878.57 
  127000    259.22624   -8737.8442    37.089801    -8774.934    29122.894 
  127200    297.85878   -8737.8197    42.617302    -8780.437    19605.798 
  127400    292.03761    -8734.142    41.784416   -8775.9264   -3686.9478 
  127600    296.49623   -8735.1827     42.42235   -8777.6051    -1299.433 
  127800    217.46224   -8744.8098    31.114254    -8775.924    4972.6236 
  128000    310.54956   -8728.4477    44.433083   -8772.8808   -6043.3676 
  128200    315.01928   -8730.6408    45.072607   -8775.7134    23222.102 
  128400    242.91317   -8745.0176    34.755745   -8779.7733   -12335.413 
  128600    300.14831   -8735.4769    42.944885   -8778.4218    2776.8264 
  128800    330.22147   -8726.1908    47.247718   -8773.4385    39699.185 
  129000    307.69482   -8741.6068    44.024631   -8785.6315    10386.156 
  129200    280.79152   -8739.8217    40.175338    -8779.997   -27192.338 
  129400    285.45328   -8731.5542    40.842336   -8772.3965   -7702.1404 
  129600    317.22274   -8731.0496    45.387875   -8776.4375    5790.4061 
  129800    257.51763   -8743.5596    36.845335   -8780.4049   -9507.5029 
  130000    273.75827   -8735.9483    39.169028   -8775.1173    42435.935 
  130200    329.13644   -8725.5352    47.092474   -8772.6277    -18247.34 
  130400    316.62424   -8733.6718    45.302242    -8778.974   -27289.073 
  130600    294.63832   -8745.7641    42.156522   -8787.9206   -16378.187 
  130800    295.22643   -8738.9393    42.240667     -8781.18    10304.983 
  131000    278.77632    -8728.641    39.887004    -8768.528   -41097.319 
  131200     244.9637   -8742.7699    35.049132    -8777.819    6453.9791 
  131400    298.62979   -8735.0339    42.727616   -8777.7615      31447.3 
  131600    300.20138   -8732.0637    42.952478   -8775.0162    -4199.949 
  131800    284.92179   -8737.3121    40.766291   -8778.0784   -7706.6746 
  132000    287.70503   -8719.6989    41.164515   -8760.8634   -39030.541 
  132200    305.99546   -8732.4783    43.781488   -8776.2598    23559.789 
  132400    289.09859   -8731.2091    41.363904    -8772.573     10853.48 
  132600    246.08398    -8739.544    35.209421   -8774.7535   -2155.8558 
  132800    251.23906   -8742.2536    35.947004   -8778.2006    140.02658 
  133000    274.68462   -8731.4023    39.301568   -8770.7039    1536.2326 
  133200     310.4338   -8735.8225     44.41652    -8780.239   -4704.3943 
  133400    298.93222    -8749.039    42.770887   -8791.8099    1255.1545 
  133600    280.32805   -8735.7789    40.109025   -8775.8879    23549.831 
  133800    320.64247   -8722.3907    45.877166   -8768.2679   -15827.041 
  134000     312.1759   -8731.0582    44.665779   -8775.7239    10479.629 
  134200    275.15101   -8739.2352      39.3683   -8778.6035    22102.935 
  134400    303.97207   -8727.2955    43.491983   -8770.7875   -5183.8112 
  134600    259.64252   -8745.4052    37.149362   -8782.5545   -23247.287 
  134800    284.03282    -8741.914    40.639099   -8782.5531   -8946.5624 
  135000    319.39661   -8730.2865    45.698909   -8775.9854   -9906.1879 
  135200    260.47837   -8733.5407    37.268954   -8770.8096    35736.509 
  135400    227.23863   -8751.1936    32.513049   -8783.7066   -39615.681 
  135600    293.12959   -8732.6731    41.940654   -8774.6138    10140.569 
  135800    290.15083   -8726.4468    41.514457   -8767.9613   -30258.036 
  136000    299.42872   -8740.9017    42.841926   -8783.7436    11499.368 
  136200    318.37299   -8731.2957    45.552451   -8776.8482    17236.749 
  136400     283.9963   -8727.8264    40.633873   -8768.4603    26506.067 
  136600    279.97731   -8739.5827    40.058841   -8779.6415   -18385.796 
  136800    182.72068   -8747.9379    26.143471   -8774.0813    12945.669 
  137000    331.11778   -8731.4938    47.375962   -8778.8698    10948.403 
  137200    324.20528    -8725.515     46.38693   -8771.9019   -5533.7889 
  137400    370.51351   -8716.2847    53.012659   -8769.2974   -29521.107 
  137600    258.14666   -8735.3656    36.935336   -8772.3009   -14566.428 
  137800    292.39624   -8732.2245    41.835727   -8774.0603   -17663.782 
  138000    353.15436   -8720.3835    50.528931   -8770.9124    19280.108 
  138200    307.94542   -8733.9187    44.060487   -8777.9791   -45900.033 
  138400    308.61059   -8737.0353    44.155658    -8781.191    36877.131 
  138600    327.98698   -8725.0869    46.928011   -8772.0149   -1065.9837 
  138800    291.32343   -8735.8961    41.682231   -8777.5784   -16487.352 
  139000    270.65194   -8738.8019    38.724578   -8777.5265   -32998.858 
  139200    287.55233   -8729.0386    41.142665   -8770.1813    29434.051 
  139400    315.53926   -8729.2021    45.147005   -8774.3491   -39917.287 
  139600    355.53605   -8728.9014    50.869701   -8779.7711    57418.758 
  139800    232.27561   -8742.0755    33.233735   -8775.3093   -18097.665 
  140000    300.02776   -8725.7191    42.927637   -8768.6467   -33828.276 
  140200    331.43163   -8729.6243    47.420867   -8777.0451   -10561.357 
  140400    276.88635   -8736.9734    39.616589   -8776.5899    -15558.87 
  140600    285.24801    -8730.001    40.812967    -8770.814    5307.2465 
  140800    424.64854     -8711.93    60.758238   -8772.6883   -9134.1407 
  141000    331.19667   -8734.2655    47.387249   -8781.6528   -1317.5091 
  141200    322.51529   -8730.5889    46.145127   -8776.7341    17185.128 
  141400    312.19072   -8721.8927      44.6679   -8766.5606    26767.708 
  141600    312.59534   -8737.0597    44.725791   -8781.7855   -7646.0917 
  141800    251.88596   -8737.1652    36.039561   -8773.2048    24609.853 
  142000    276.92203   -8725.4859    39.621694   -8765.1076    587.94422 
  142200    268.58923   -8746.5383    38.429447   -8784.9678   -22766.596 
  142400    308.92496   -8732.9387    44.200638   -8777.1394    -18003.11 
  142600    309.54909   -8730.1552    44.289938   -8774.4452   -14513.939 
  142800    297.24542   -8742.7197    42.529542   -8785.2493    30552.352 
  143000     289.2863   -8722.8294     41.39076   -8764.2202   -54645.837 
  143200      301.703   -8730.8223    43.167329   -8773.9897    21148.572 
  143400    252.26786   -8737.3077    36.094203   -8773.4019    28874.884 
  143600    304.16673   -8741.3451    43.519836    -8784.865    6473.6341 
  143800    341.18788   -8727.2206     48.81678   -8776.0374   -7788.9989 
  144000    264.45236   -8735.0802    37.837548   -8772.9177    10498.338 
  144200    329.12167   -8734.5008     47.09036   -8781.5912   -30482.722 
  144400    330.87439   -8727.3334    47.341138   -8774.6746   -8077.3589 
  144600    324.39016   -8721.3469    46.413381   -8767.7603   -25544.656 
  144800    250.90131   -8734.2083    35.898679    -8770.107    21866.057 
  145000    306.34626   -8733.3122     43.83168   -8777.1439    28302.271 
  145200    313.15182   -8727.8913    44.805412   -8772.6967    36784.024 
  145400    325.26725   -8716.6988    46.538874   -8763.2377    10040.271 
  145600    322.63791   -8735.7208    46.162671   -8781.8835    -13424.72 
  145800     336.1291   -8736.4823    48.092976   -8784.5753    23173.586 
  146000    327.91685   -8721.6404    46.917976   -8768.5584   -4311.5013 
  146200    285.69322   -8738.6939    40.876666   -8779.5706    61240.879 
  146400    278.16134   -8737.0729    39.799014   -8776.8719   -16953.381 
  146600    283.51613   -8723.2613    40.565172   -8763.8265     11969.89 
  146800    329.69686   -8715.8197    47.172658   -8762.9924   -32562.197 
  147000    345.98023   -8732.8807    49.502465   -8782.3832   -37554.486 
  147200     270.9183   -8738.6398    38.762688   -8777.4025    -10568.95 
  147400    407.48152   -8721.0319    58.302001   -8779.3339      43187.3 
  147600    233.23905   -8737.1322    33.371583   -8770.5038    8084.5679 
  147800    286.72651   -8736.5068    41.024508   -8777.5313    6613.8179 
  148000    292.06638   -8728.0554    41.788531   -8769.8439    6412.6948 
  148200    318.17718   -8719.9483    45.524436   -8765.4727    22850.346 
  148400    244.53607   -8737.3284    34.987947   -8772.3164    11277.032 
  148600    326.99974   -8733.3856    46.786757   -8780.1724   -2596.2404 
  148800    307.25378   -8715.2027    43.961528   -8759.1643    26196.086 
  149000     304.7013   -8728.7388    43.596321   -8772.3351    1930.4612 
  149200    341.38256   -8737.7552    48.844635   -8786.5998   -10228.008 
  149400    242.49548    -8744.777    34.695983    -8779.473   -16369.791 
  149600    336.82113   -8727.9979    48.191991   -8776.1899    10862.453 
  149800    261.31132   -8732.0247    37.388131   -8769.4128   -20021.335 
  150000    309.64806   -8746.1652    44.304098   -8790.4693    14122.426 
  150200    298.83756   -8728.4119    42.757344   -8771.1693    9342.2506 
  150400    284.24636   -8723.6501    40.669651   -8764.3197    2652.8962 
  150600       247.89   -8741.8955    35.467824   -8777.3633   -9061.6032 
  150800    265.95795   -8737.0318    38.052967   -8775.0848    156.98352 
  151000    328.84703   -8727.5563    47.051065   -8774.6074    33769.071 
  151200    283.90657   -8746.6183    40.621034   -8787.2393    36382.893 
  151400    297.27823   -8735.1634    42.534237   -8777.6976    20837.144 
  151600    315.48872   -8729.0268    45.139773   -8774.1666    16579.124 
  151800     264.9822   -8745.1781    37.913357   -8783.0915    2774.5696 
  152000    294.53483   -8739.1827    42.141714   -8781.3245   -25549.287 
  152200    282.29922   -8729.8152    40.391056   -8770.2063   -8171.1618 
  152400    405.28934   -8717.3893    57.988345   -8775.3776   -13457.615 
  152600     297.8771   -8730.8366    42.619922   -8773.4565   -89.855044 
  152800    283.56006   -8738.5118    40.571457   -8779.0833     4948.713 
  153000    340.09826   -8725.2903    48.660879   -8773.9512    3838.0986 
  153200    245.83748   -8740.3885    35.174152   -8775.5627   -11026.486 
  153400    300.03896   -8736.5524     42.92924   -8779.4816    33381.195 
  153600    298.42895   -8726.8761     42.69888    -8769.575     11014.85 
  153800    241.58375   -8731.9492    34.565533   -8766.5148     2878.748 
  154000     320.9482   -8728.9967    45.920909   -8774.9176   -3761.9761 
  154200    356.29011    -8728.079    50.977591   -8779.0566    -12674.49 
  154400     239.9897   -8739.9641    34.337458   -8774.3016    21778.177 
  154600    315.73296    -8728.101    45.174718   -8773.2757     14130.62 
  154800    327.07349    -8732.743    46.797309   -8779.5403   -7869.4267 
  155000    251.09456   -8738.3648    35.926329   -8774.2911   -3100.4936 
  155200    319.65917   -8723.3395    45.736476    -8769.076    6884.3633 
  155400    314.39025   -8730.4746    44.982606   -8775.4572   -4876.9743 
  155600    273.20983   -8738.4516    39.090558   -8777.5422   -16595.631 
  155800    347.51027   -8725.3563    49.721381   -8775.0777    61947.246 
  156000     286.6476   -8728.3947    41.013218   -8769.4079    -19048.11 
  156200    256.62544   -8746.9869    36.717682   -8783.7046   -40930.012 
  156400    290.58685   -8731.8026    41.576841   -8773.3795   -884.92782 
  156600    339.62344   -8727.5696    48.592943   -8776.1625   -20431.296 
  156800    256.20012   -8744.3599    36.656827   -8781.0168    -27996.41 
  157000    321.42085   -8729.9167    45.988535   -8775.9052   -31299.472 
  157200    276.57142   -8730.5858    39.571529   -8770.1574    10968.532 
  157400    247.07886   -8744.6607    35.351767   -8780.0125   -15818.093 
  157600    286.25415    -8735.451    40.956924    -8776.408    15524.039 
  157800    369.35903   -8725.2314    52.847477   -8778.0789   -17830.117 
  158000    267.50716   -8744.5638    38.274625   -8782.8384    28460.348 
  158200     299.2085   -8737.1903    42.810417   -8780.0007   -30731.077 
  158400    289.97697   -8731.3785     41.48958    -8772.868   -1763.9295 
  158600    279.49031   -8731.8831    39.989161   -8771.8723    3429.8174 
  158800    288.85385    -8740.696    41.328886   -8782.0249    13021.737 
  159000    341.36232   -8725.3564    48.841739   -8774.1981   -18030.177 
  159200    256.14423   -8727.1702     36.64883   -8763.8191   -11706.485 
  159400    333.14672   -8729.9423    47.666261   -8777.6085    29207.603 
  159600    288.57095   -8731.7902    41.288409   -8773.0786    29050.103 
  159800    317.49052   -8736.9864    45.426189   -8782.4126   -10346.036 
  160000    264.19823   -8739.7343    37.801188   -8777.5355   -14304.564 
  160200    300.52548   -8726.1777     42.99885   -8769.1765   -31294.538 
  160400    270.60744   -8740.7012     38.71821   -8779.4195    55768.762 
  160600    287.29314   -8735.1266    41.105581   -8776.2322    19147.389 
  160800    337.56784    -8724.412    48.298829   -8772.7109    6553.9327 
  161000    247.25771   -8739.6245    35.377356   -8775.0019   -23859.256 
  161200    266.57242   -8729.0745    38.140883   -8767.2154   -1127.5089 
  161400    294.26289   -8728.2205    42.102806   -8770.3233   -2490.4725 
  161600    258.95574   -8748.1702    37.051097   -8785.2213   -5124.5435 
  161800     335.5095   -8737.3636    48.004325   -8785.3679    2285.8166 
  162000    280.46844   -8726.8901    40.129111   -8767.0192    7695.4513 
  162200    401.63388    -8715.667    57.465327   -8773.1323     8890.808 
  162400    278.56947   -8736.2681    39.857408   -8776.1255    4165.8319 
  162600    312.45855   -8727.8567    44.706221   -8772.5629    37420.948 
  162800    288.77652   -8721.0383    41.317822   -8762.3561   -8653.1696 
  163000    327.81931   -8730.8906    46.904021   -8777.7946    10985.646 
  163200    281.21743   -8737.3712    40.236276   -8777.6075     6330.825 
  163400     359.3123   -8721.1345    51.410002   -8772.5445    4033.3647 
  163600     288.0088   -8734.1622    41.207977   -8775.3702   -16219.044 
  163800     306.1061   -8733.1948    43.797319   -8776.9921   -13159.785 
  164000    290.66186   -8739.7514    41.587574   -8781.3389    47211.937 
  164200    318.76133    -8738.328    45.608015    -8783.936   -13148.672 
  164400    351.44334   -8724.6942     50.28412   -8774.9783   -2020.6501 
  164600    255.18359    -8733.214    36.511383   -8769.7254   -4149.5241 
  164800    231.46384   -8743.1544    33.117588    -8776.272   -27175.392 
  165000    321.17591   -8733.8914     45.95349   -8779.8449    2128.4882 
  165200     293.9661   -8730.5307    42.060341    -8772.591   -2391.7627 
  165400    261.54824   -8746.9087    37.422029   -8784.3307   -17350.335 
  165600    272.70573   -8740.9746    39.018432    -8779.993   -30774.924 
  165800    325.91239   -8731.9745     46.63118   -8778.6056   -518.94893 
  166000    263.57536   -8726.4878    37.712068   -8764.1998    297.36402 
  166200    345.28147   -8729.4313    49.402487   -8778.8338    36948.417 
  166400    257.01651   -8739.1961    36.773635   -8775.9697   -27341.752 
  166600    280.81619   -8719.8053    40.178866   -8759.9841   -26810.401 
  166800     286.8104   -8730.3991    41.036512   -8771.4356   -29614.772 
  167000    289.02097   -8733.9674    41.352798   -8775.3201    35249.498 
  167200      290.335   -8734.3122    41.540808   -8775.8531     20751.72 
  167400    265.07968   -8741.5877    37.927304    -8779.515    8022.5079 
  167600    295.95029   -8728.0036    42.344237   -8770.3478   -25183.081 
  167800    269.01537    -8737.682    38.490419   -8776.1724   -186.95365 
  168000    224.03148   -8750.9493    32.054174   -8783.0035    6421.6834 
  168200    253.55344   -8734.7966    36.278142   -8771.0748   -9404.3402 
  168400    274.72042   -8724.7222    39.306691   -8764.0289    38850.383 
  168600    252.96881   -8740.2489    36.194495   -8776.4434   -37865.649 
  168800    297.48963   -8736.5399    42.564483   -8779.1044    22170.734 
  169000     344.7723   -8724.9168    49.329635   -8774.2464   -9885.2542 
  169200    230.78563    -8748.115     33.02055   -8781.1356    26949.379 
  169400    291.34664   -8736.8004    41.685551    -8778.486    22383.203 
  169600    351.36219   -8725.3941    50.272509   -8775.6666   -11066.013 
  169800    265.49884   -8740.8991    37.987278   -8778.8864   -41688.732 
  170000    249.41836   -8736.8319      35.6865   -8772.5184    17946.439 
  170200    334.96385   -8729.7048    47.926253   -8777.6311   -1881.4757 
  170400    325.02358   -8733.6472    46.504011   -8780.1512   -48298.529 
  170600     286.8475   -8738.8717     41.04182   -8779.9135    30866.176 
  170800    318.25113   -8726.4728    45.535016   -8772.0078    41701.312 
  171000    304.67447    -8732.494    43.592483   -8776.0865    14085.186 
  171200    244.90846   -8752.3416    35.041229   -8787.3828    -4603.653 
  171400    248.15397   -8748.8839    35.505592   -8784.3895   -5825.6555 
  171600    359.41881    -8729.395    51.425242   -8780.8202   -10346.747 
  171800    368.96472   -8725.3456     52.79106   -8778.1367   -35128.692 
  172000    268.68025    -8739.203    38.442469   -8777.6454   -3620.2914 
  172200    331.05087   -8731.3347    47.366388   -8778.7011      6251.21 
  172400    325.31363   -8727.5038    46.545511   -8774.0494   -20158.603 
  172600    332.57604    -8714.442    47.584608   -8762.0266    -14923.84 
  172800    300.83334   -8735.4173    43.042898   -8778.4602   -1135.0168 
  173000    329.12579   -8735.6083     47.09095   -8782.6993   -9006.0785 
  173200      342.275    -8718.946    48.972324   -8767.9183    3534.7154 
  173400    311.42769   -8737.2165    44.558726   -8781.7752    12347.688 
  173600    269.63284   -8734.9344    38.578766   -8773.5132   -26892.002 
  173800    356.81118   -8723.6499    51.052144    -8774.702    10569.117 
  174000    304.05642   -8733.1652    43.504053   -8776.6693    37850.055 
  174200    310.30437   -8732.2109    44.398003   -8776.6089    3862.6237 
  174400    352.75598   -8732.6972    50.471931   -8783.1691    10345.434 
  174600    290.63768   -8736.9832    41.584114   -8778.5673   -11489.801 
  174800    283.66691     -8724.39    40.586744   -8764.9767   -2353.3503 
  175000    326.07172   -8733.3531    46.653977   -8780.0071    5076.0405 
  175200    279.71028   -8741.1519    40.020634   -8781.1726    11603.975 
  175400    358.36733   -8726.5754    51.274797   -8777.8502    28559.438 
  175600     257.1402   -8733.6289    36.791332   -8770.4202    8654.1764 
  175800     246.0829   -8749.7769    35.209267   -8784.9861     -25671.4 
  176000    299.88949   -8741.1592    42.907853   -8784.0671    13426.072 
  176200    303.03305    -8730.992     43.35763   -8774.3496    7094.6953 
  176400    349.86145   -8725.7079    50.057786   -8775.7657   -24496.248 
  176600    327.36457   -8739.8301    46.838957    -8786.669    25777.319 
  176800    282.90988   -8728.1099    40.478429   -8768.5883    8503.9102 
  177000    380.05796    -8710.106    54.378268   -8764.4842    21358.781 
  177200    300.73742   -8732.7654    43.029174   -8775.7946     9943.606 
  177400     300.7934   -8737.4965    43.037184   -8780.5337    52243.266 
  177600    349.61826   -8720.8304     50.02299   -8770.8533   -23579.736 
  177800    279.60009   -8728.2824    40.004869   -8768.2872   -47193.797 
  178000    330.65131   -8730.6296     47.30922   -8777.9389   -1478.2274 
  178200     274.2167   -8732.3974    39.234618    -8771.632    32805.545 
  178400    311.74677   -8730.1323     44.60438   -8774.7367   -5811.9472 
  178600    232.67111   -8736.7828    33.290323   -8770.0732   -35500.163 
  178800    282.46078   -8739.4562    40.414173   -8779.8704    52277.793 
  179000    341.04639   -8722.5635    48.796536     -8771.36    29386.978 
  179200    294.37574   -8734.6757    42.118952   -8776.7946      4358.31 
  179400     230.9763   -8740.1342    33.047831   -8773.1821   -14545.044 
[...]
  950000    270.82263   -8728.6048    38.748999   -8767.3538   -15956.691 
  950200    286.88256   -8738.2321    41.046836    -8779.279    16087.821 
  950400    292.55449   -8742.0756     41.85837    -8783.934   -1078.9764 
  950600    322.48642   -8731.5111    46.140996   -8777.6521   -33581.753 
  950800    334.85567   -8727.5185    47.910775   -8775.4293   -18809.373 
  951000    278.27761   -8738.2113    39.815649   -8778.0269    3720.9843 
  951200    290.25624   -8735.6016    41.529538   -8777.1311   -17381.405 
  951400     323.0329   -8721.6934    46.219186   -8767.9126   -6129.2323 
  951600    292.28534   -8733.9134     41.81986   -8775.7333    15076.949 
  951800    305.12607   -8735.0322    43.657097   -8778.6893   -11540.679 
  952000    357.68677   -8722.2308    51.177423   -8773.4083   -13470.026 
  952200    316.05368   -8724.2586    45.220607   -8769.4792    26445.277 
  952400    328.03743    -8733.327    46.935228   -8780.2622    3722.6949 
  952600    264.56529   -8730.7591    37.853706   -8768.6128    17729.315 
  952800     339.8481   -8720.3282    48.625086   -8768.9533   -5195.2687 
  953000    252.79005    -8735.875    36.168918   -8772.0439    13247.217 
  953200    323.35785   -8730.0744     46.26568   -8776.3401   -8249.0311 
  953400    350.87941   -8721.6493    50.203434   -8771.8527   -938.14348 
  953600    327.25585   -8732.6419    46.823401   -8779.4653    28609.456 
  953800    270.96547   -8733.8549    38.769437   -8772.6243   -29302.557 
  954000    373.32182   -8722.0235    53.414469   -8775.4379   -12762.176 
  954200    296.75089   -8737.5957    42.458786   -8780.0545    30354.971 
  954400    290.22729   -8734.8904    41.525396   -8776.4158     41162.12 
  954600    381.44056   -8721.4752    54.576089   -8776.0513     19214.22 
  954800    335.04504   -8729.4157    47.937871   -8777.3536   -10878.684 
  955000    273.74465   -8740.6157    39.167079   -8779.7827   -7549.8375 
  955200      379.065   -8721.6561    54.236196   -8775.8923   -4980.2934 
  955400    300.24622   -8732.6781    42.958894    -8775.637    18184.532 
  955600    262.20231   -8743.5949    37.515614   -8781.1105    2127.3625 
  955800    278.41461   -8746.6732    39.835251   -8786.5085    10010.767 
  956000    247.17841   -8729.3599     35.36601   -8764.7259    28336.839 
  956200    371.14451   -8734.7697    53.102942   -8787.8726    29459.612 
  956400    292.30302   -8739.2369    41.822389   -8781.0593   -7579.7946 
  956600    309.75505   -8732.1444    44.319406   -8776.4638   -4616.9678 
  956800    350.05247   -8731.3846    50.085117   -8781.4697    12586.104 
  957000    256.82034   -8740.6583    36.745567   -8777.4039   -9583.6209 
  957200    305.99778   -8728.1868     43.78182   -8771.9686   -1678.4955 
  957400     343.6413   -8724.9889    49.167813   -8774.1567    -9304.464 
  957600    265.73583   -8740.6885    38.021185   -8778.7096   -29126.732 
  957800    309.70129   -8730.9914    44.311715   -8775.3031    19001.006 
  958000    338.35524    -8721.879     48.41149   -8770.2905    13044.224 
  958200    262.30107    -8739.676    37.529745   -8777.2057   -3182.5324 
  958400    331.25964   -8726.5785    47.396259   -8773.9747    28813.561 
  958600     280.3646    -8730.132    40.114253   -8770.2463   -11806.966 
  958800    290.88074   -8740.7308    41.618891   -8782.3497    17547.861 
  959000    330.87702   -8727.1365    47.341514    -8774.478   -9240.3576 
  959200    276.67859   -8729.5711    39.586863    -8769.158    -2078.048 
  959400    297.44011   -8741.8572    42.557398   -8784.4146     37198.85 
  959600     282.7151   -8726.1581    40.450561   -8766.6087      46341.1 
  959800     322.1901   -8727.4622    46.098599   -8773.5608     2068.156 
  960000    274.16109   -8740.0463    39.226663    -8779.273   -34311.139 
  960200    277.22436   -8732.5016    39.664951   -8772.1666    -3807.958 
  960400    278.79774   -8733.1004    39.890068   -8772.9905    -29034.32 
  960600    260.99219   -8746.3043    37.342471   -8783.6468   -15703.628 
  960800    274.01851   -8734.0776    39.206262   -8773.2838    7534.4702 
  961000    313.69774   -8731.0728    44.883522   -8775.9563    29255.002 
  961200    338.92631   -8724.5544    48.493197   -8773.0476    22713.288 
  961400    299.48535   -8737.6483     42.85003   -8780.4983   -10680.061 
  961600    290.39292   -8736.3576    41.549094   -8777.9067   -27141.549 
  961800    313.52956   -8718.5903    44.859459   -8763.4497    15202.531 
  962000    309.86301   -8734.1992    44.334853   -8778.5341    29333.214 
  962200    298.12551   -8737.7329    42.655464   -8780.3884    15323.737 
  962400    329.74504   -8718.3623    47.179552   -8765.5419   -14899.942 
  962600    329.35729   -8728.7181    47.124073   -8775.8422   -11938.402 
  962800    303.37275   -8741.7593    43.406234   -8785.1655   -37644.789 
  963000    340.05309   -8728.6033    48.654417   -8777.2578   -15682.569 
  963200    318.42946   -8724.8315    45.560532    -8770.392   -6350.6715 
  963400    228.06756   -8741.5307    32.631652   -8774.1624   -21678.201 
  963600      308.517   -8730.4141    44.142268   -8774.5564    6476.0352 
  963800    308.09386   -8727.2409    44.081726   -8771.3226    26040.846 
  964000     341.4897   -8730.8528    48.859964   -8779.7127    17092.076 
  964200    310.02524   -8736.9591    44.358065   -8781.3171    23505.387 
  964400    264.67379   -8720.3934    37.869229   -8758.2627   -5335.7025 
  964600    340.01516   -8738.3155     48.64899   -8786.9644    34891.061 
  964800    314.98786   -8732.5911    45.068111   -8777.6592   -10381.091 
  965000    312.00657   -8730.4215    44.641552   -8775.0631    573.92291 
  965200     208.1017   -8746.9789    29.774959   -8776.7538    4500.3331 
  965400    350.55707   -8727.2636    50.157314   -8777.4209    24827.794 
  965600    300.46492   -8730.9597    42.990184   -8773.9499    5108.9323 
  965800      293.743   -8740.7834    42.028421   -8782.8118    12365.562 
  966000     272.9198   -8745.0094     39.04906   -8784.0584   -12407.061 
  966200    302.11805   -8729.8107    43.226712   -8773.0374   -26254.829 
  966400    294.59417   -8730.5069    42.150205   -8772.6571   -12909.075 
  966600    236.46078   -8745.9488    33.832543   -8779.7814   -31376.294 
  966800     325.6572    -8731.505    46.594669   -8778.0997   -27642.883 
  967000    316.12332   -8732.6002    45.230572   -8777.8308   -11941.705 
  967200    251.67973   -8740.6718    36.010054   -8776.6818     16998.14 
  967400    260.69285   -8737.1504    37.299641     -8774.45    18485.197 
  967600    332.00071   -8728.5829    47.502291   -8776.0852   -13172.865 
  967800    214.73124   -8742.6982    30.723505   -8773.4217   -6557.6935 
  968000    274.59492   -8740.3363    39.288734    -8779.625     387.6813 
  968200    301.17754   -8732.5191    43.092146   -8775.6112    23249.253 
  968400    343.66249     -8723.26    49.170845   -8772.4308   -9834.3584 
  968600    277.49753   -8727.5696    39.704036   -8767.2737    49126.768 
  968800    295.56888   -8740.1527    42.289666   -8782.4424   -10245.964 
  969000    395.32309   -8723.9551    56.562386   -8780.5174    4038.8423 
  969200    279.68918   -8729.1516    40.017615   -8769.1692     7004.651 
  969400    284.77477   -8737.9857    40.745256    -8778.731   -6802.6535 
  969600    310.47919   -8721.6355    44.423015   -8766.0585    14325.058 
  969800    286.87152   -8728.6274    41.045257   -8769.6726    26907.723 
  970000    230.04496   -8735.7149    32.914575   -8768.6295   -13839.717 
  970200     359.0771   -8716.4245    51.376351   -8767.8009    19201.073 
  970400    338.57794   -8729.3137    48.443353    -8777.757    -655.8179 
  970600     267.5532   -8737.3799    38.281212   -8775.6611     11431.75 
  970800     370.3406   -8721.3566    52.987919   -8774.3445   -16691.747 
  971000    289.24333   -8732.2643    41.384612   -8773.6489    11697.629 
  971200    250.53541   -8736.8541    35.846326   -8772.7004   -17957.457 
  971400    365.73051   -8724.4996    52.328313   -8776.8279   -15447.594 
  971600    258.87932   -8742.0032    37.040163   -8779.0434   -7799.3769 
  971800    313.40169   -8738.5648    44.841163    -8783.406    13122.362 
  972000    305.72774   -8734.6656    43.743183   -8778.4088    22119.359 
  972200    294.54269   -8719.6159    42.142839   -8761.7587    -9019.672 
  972400    282.12581   -8736.1583    40.366246   -8776.5246   -4646.1126 
  972600    293.29107   -8734.4641    41.963759   -8776.4278    -16750.45 
  972800    304.41705   -8727.2218    43.555651   -8770.7774   -7196.7485 
  973000    296.14789      -8737.8     42.37251   -8780.1725     16067.15 
  973200    286.85014   -8733.2803    41.042197   -8774.3225   -2637.6121 
  973400    316.02629   -8720.0921    45.216688   -8765.3088    9377.5744 
  973600    293.48115   -8735.4517    41.990956   -8777.4427    21211.825 
  973800    295.58913   -8728.8013    42.292562   -8771.0938    44127.877 
  974000    333.22003   -8722.9859     47.67675   -8770.6626   -12992.328 
  974200    334.37413     -8733.32    47.841877   -8781.1618    35304.871 
  974400    269.72846   -8737.7719    38.592447   -8776.3643    19241.931 
  974600    309.43364   -8724.9639    44.273419   -8769.2373    32445.631 
  974800    274.03981   -8731.8345    39.209309   -8771.0438    34963.915 
  975000    308.99673   -8731.1318    44.210906   -8775.3427    1220.3567 
  975200    237.36297   -8746.6629    33.961628   -8780.6245    29921.496 
  975400    335.08533   -8737.9671    47.943635   -8785.9107    5999.1721 
  975600    267.10792    -8732.689    38.217503   -8770.9065     20989.59 
  975800    259.32924   -8735.4542    37.104537   -8772.5588    30623.354 
  976000     324.1076    -8736.127    46.372953      -8782.5     33243.75 
  976200    407.26689   -8722.2316    58.271291   -8780.5029   -6239.7545 
  976400    275.95112   -8737.7616    39.482778   -8777.2443    1457.0818 
  976600    279.46488   -8738.1723    39.985523   -8778.1578    18410.486 
  976800     308.7617   -8719.1704    44.177279   -8763.3477   -9803.7804 
  977000    258.61252   -8729.8515     37.00199   -8766.8535   -18019.444 
  977200    289.47959   -8747.9526    41.418417    -8789.371     12433.56 
  977400    290.55408   -8734.8111    41.572152   -8776.3832    2081.5854 
  977600    295.11998   -8726.8998    42.225437   -8769.1252    549.38978 
  977800    271.42747    -8744.977    38.835539   -8783.8125    7386.7697 
  978000    306.98606   -8735.8232    43.923222   -8779.7464    17904.461 
  978200    309.16895   -8727.5356    44.235548   -8771.7711    17977.759 
  978400    264.70256   -8743.3473    37.873347   -8781.2207   -21059.752 
  978600    304.38169   -8735.3736    43.550592   -8778.9242   -12872.784 
  978800    321.39214    -8730.895    45.984428   -8776.8794    -19065.31 
  979000    308.86264   -8738.6866    44.191721   -8782.8783    755.24011 
  979200    253.71628   -8738.6333    36.301442   -8774.9347    2739.9253 
  979400    356.01981   -8723.5748    50.938916   -8774.5138   -14553.218 
  979600    317.11723    -8734.028    45.372778   -8779.4008   -21001.365 
  979800    242.15387   -8752.5265    34.647105   -8787.1736   -20509.012 
  980000    251.23882   -8739.1477    35.946969   -8775.0947   -27853.077 
  980200    318.61796   -8728.3349    45.587502   -8773.9224     26554.59 
  980400    335.76791   -8740.0152    48.041297   -8788.0565    8710.3019 
  980600    274.26082   -8740.0905    39.240932   -8779.3314    8113.0609 
  980800    278.29592   -8731.0561     39.81827   -8770.8744   -14221.878 
  981000    347.38774   -8729.9143     49.70385   -8779.6181    19565.727 
  981200     295.6262    -8741.607    42.297867   -8783.9049   -14167.519 
  981400    321.43749   -8726.2242    45.990916   -8772.2152    6913.3532 
  981600    298.62595    -8732.818    42.727067   -8775.5451    14111.098 
  981800    313.09445   -8731.9232    44.797205   -8776.7204    21146.018 
  982000    303.64988   -8735.0001    43.445886    -8778.446    20187.167 
  982200    350.12945   -8730.6843    50.096131   -8780.7804    6296.8093 
  982400    259.31283   -8732.2032     37.10219   -8769.3054   -27971.995 
  982600    262.59765   -8738.1827    37.572179   -8775.7548    9124.8104 
  982800    396.91344   -8719.9218    56.789931   -8776.7117    5399.3239 
  983000    320.22072   -8732.1288    45.816823   -8777.9456    2209.6014 
  983200     324.2542   -8736.0729    46.393929   -8782.4668    9098.3738 
  983400    275.90624    -8735.395    39.476357   -8774.8714    20322.973 
  983600     362.2682   -8717.8281    51.832929    -8769.661    593.16651 
  983800    293.21497   -8730.9904     41.95287   -8772.9432   -37294.093 
  984000    296.79429   -8735.1585    42.464995   -8777.6235   -152.46607 
  984200    287.11661   -8721.2368    41.080324   -8762.3171    25954.264 
  984400    298.78863   -8727.2395    42.750343   -8769.9898   -28231.959 
  984600    294.22125    -8734.382    42.096848   -8776.4789    9630.5216 
  984800     301.3769   -8733.2662     43.12067   -8776.3869    5687.7312 
  985000    297.49197   -8735.5526    42.564819   -8778.1174     561.5346 
  985200     332.7933   -8728.5213    47.615693    -8776.137   -10866.003 
  985400    292.91155   -8721.5635    41.909457    -8763.473   -47097.401 
  985600    268.82365   -8735.5273    38.462988   -8773.9903    -17622.87 
  985800    316.09773   -8731.4368     45.22691   -8776.6637    15692.532 
  986000    371.55661   -8716.6788    53.161904   -8769.8407   -16509.782 
  986200    335.74353   -8736.0173    48.037809   -8784.0551    4434.3274 
  986400     310.0709   -8732.6169    44.364598   -8776.9815   -32004.355 
  986600    344.81738   -8714.9542    49.336086   -8764.2903   -30490.164 
  986800    270.19413   -8732.4142    38.659075   -8771.0733   -9118.3765 
  987000    330.79252   -8732.8075    47.329424    -8780.137     11803.56 
  987200    270.85192   -8745.3864     38.75319   -8784.1396   -19713.975 
  987400     354.4597   -8731.9918    50.715697   -8782.7075    20316.098 
  987600    278.91861   -8734.7409    39.907364   -8774.6482    16193.283 
  987800    290.91561   -8726.0989    41.623881   -8767.7228   -6461.0384 
  988000    300.48587   -8729.9198    42.993182    -8772.913    3859.8349 
  988200    282.43331   -8733.4144    40.410243   -8773.8246    430.27257 
  988400    364.67463    -8723.508    52.177239   -8775.6852    30947.115 
  988600     263.8478   -8743.3918    37.751048   -8781.1429   -4607.2502 
  988800    286.75031   -8728.7194    41.027914   -8769.7473   -1539.8496 
  989000    295.38088   -8730.3947    42.262766   -8772.6575   -20584.171 
  989200    251.43476   -8741.4949    35.975004   -8777.4699   -36219.564 
  989400    299.74242   -8723.9034     42.88681   -8766.7902    20759.619 
  989600    320.08832   -8719.0276     45.79788   -8764.8255    20668.025 
  989800    261.79392   -8735.8035    37.457182   -8773.2607    12841.438 
  990000    275.53159   -8740.2762    39.422751   -8779.6989   -30642.799 
  990200    343.25789   -8724.8852    49.112955   -8773.9982   -29384.599 
  990400    306.41952   -8729.8438    43.842162    -8773.686    6664.5466 
  990600    314.19925   -8738.2147    44.955278     -8783.17   -2586.2856 
  990800    329.29687   -8730.9371    47.115429   -8778.0525    9279.9181 
  991000    342.62483   -8732.4293    49.022378   -8781.4517    5193.0704 
  991200    397.78336   -8713.9182    56.914399   -8770.8326    14344.702 
  991400     327.2015   -8725.5753    46.815624   -8772.3909    33998.041 
  991600    338.49557   -8736.1867    48.431567   -8784.6183   -18362.211 
  991800    349.32268   -8725.0113    49.980699    -8774.992   -3500.8271 
  992000    350.61746   -8726.6176    50.165954   -8776.7835   -5313.5788 
  992200    312.43197   -8736.0154    44.702418   -8780.7178   -6617.9396 
  992400    282.64031   -8726.5554     40.43986   -8766.9953   -1775.0096 
  992600    285.65515   -8720.1143    40.871219   -8760.9855    8278.9467 
  992800    302.32635   -8737.9993    43.256517   -8781.2559    15255.869 
  993000    269.47065   -8737.1799    38.555559   -8775.7355    18065.235 
  993200    308.92468   -8726.9807    44.200597   -8771.1813    16793.212 
  993400     320.9237   -8732.3936    45.917404    -8778.311   -4928.1692 
  993600    271.09855   -8744.4982    38.788478   -8783.2867     16973.82 
  993800    351.35271   -8725.3774    50.271154   -8775.6485   -9257.1868 
  994000    330.24399   -8732.4494    47.250942   -8779.7004    9954.9465 
  994200    300.32695   -8739.1818    42.970444   -8782.1522   -644.06201 
  994400    313.27901   -8721.2768     44.82361   -8766.1004    24796.458 
  994600    267.18811   -8734.4919    38.228976   -8772.7209   -21694.111 
  994800    292.40766   -8737.2998    41.837361   -8779.1372    49461.904 
  995000    382.11079   -8728.5946    54.671984   -8783.2665   -6412.2639 
  995200    312.98039   -8729.1894    44.780884   -8773.9703       969.53 
  995400    227.08898   -8743.9299    32.491637   -8776.4216    16167.948 
  995600    322.73541   -8731.3149    46.176622   -8777.4915     25075.59 
  995800     337.6072   -8728.4048    48.304461   -8776.7092    7.0548579 
  996000    280.40555   -8740.1208    40.120113    -8780.241   -14137.659 
  996200    295.28437   -8720.2905    42.248958   -8762.5395   -18310.539 
  996400    291.66169   -8732.8651    41.730629   -8774.5957   -15344.388 
  996600    310.61695   -8735.3147    44.442726   -8779.7574   -2993.0491 
  996800    344.82673   -8731.2097    49.337424   -8780.5471     13386.22 
  997000    312.58158   -8730.9735    44.723824   -8775.6973    11802.668 
  997200    290.44653     -8734.57    41.556765   -8776.1268   -28376.105 
  997400    394.00428    -8716.846    56.373691   -8773.2197    10342.853 
  997600    305.48829   -8731.9516    43.708923   -8775.6606    20366.589 
  997800    303.67076   -8735.8286    43.448873   -8779.2775   -20848.793 
  998000    352.37755   -8720.4184    50.417786   -8770.8362    4166.4757 
  998200    303.65379   -8740.5697    43.446445   -8784.0161    15717.342 
  998400    311.47693   -8733.3462    44.565771   -8777.9119    4261.2046 
  998600    331.32095   -8719.9137    47.405031   -8767.3188   -8236.7999 
  998800    331.24006   -8728.5433    47.393458   -8775.9367   -39444.293 
  999000    278.85042   -8742.9013    39.897606   -8782.7989   -25711.059 
  999200    359.92667   -8727.5899    51.497905   -8779.0878   -11096.669 
  999400    325.66975   -8728.4113    46.596463   -8775.0077    1977.0275 
  999600    262.22507   -8744.5471    37.518869    -8782.066   -29419.014 
  999800    256.54122     -8741.33    36.705631   -8778.0356    6205.2529 
 1000000    344.45278   -8727.8787    49.283918   -8777.1627    31433.101 
Loop time of 2278.58 on 8 procs for 1000000 steps with 49 atoms

Performance: 9.480 ns/day, 2.532 hours/ns, 438.871 timesteps/s
99.4% CPU use with 8 MPI tasks x no OpenMP threads

MPI task timing breakdown:
Section |  min time  |  avg time  |  max time  |%varavg| %total
---------------------------------------------------------------
Pair    | 1897.5     | 1939.8     | 1989       |  63.8 | 85.13
Neigh   | 0          | 0          | 0          |   0.0 |  0.00
Comm    | 15.62      | 64.84      | 107.19     | 349.1 |  2.85
Output  | 0.071498   | 0.078406   | 0.12163    |   5.8 |  0.00
Modify  | 272.18     | 272.25     | 272.33     |   0.3 | 11.95
Other   |            | 1.648      |            |       |  0.07

Nlocal:    6.125 ave 7 max 6 min
Histogram: 7 0 0 0 0 0 0 0 0 1
Nghost:    570.625 ave 583 max 560 min
Histogram: 2 0 0 1 1 2 1 0 0 1
Neighs:    765.25 ave 856 max 744 min
Histogram: 5 2 0 0 0 0 0 0 0 1

Total # of neighbors = 6122
Ave neighs/atom = 124.939
Neighbor list builds = 0
Dangerous builds = 0

Please see the log.cite file for references relevant to this simulation

Total wall time: 0:38:08
