ITEM: TIMESTEP
0
ITEM: NUMBER OF ATOMS
201
ITEM: BOX BOUNDS pp pp pp
0.0000000000000000e+00 1.6114000000000001e+01
0.0000000000000000e+00 1.6113000000000000e+01
0.0000000000000000e+00 1.6111999999999998e+01
ITEM: ATOMS id type x y z 
5 1 5.384 5.384 5.384 
65 1 5.66 6.662 2.461 
66 1 5.336 7.323 3.711 
68 1 4.865 6.606 4.866 
79 1 5.364 7.322 1.219 
89 1 6.662 2.461 5.66 
90 1 7.323 3.711 5.336 
92 1 6.606 4.866 4.866 
101 1 7.322 1.219 5.364 
109 1 2.461 5.66 6.662 
110 1 3.71 5.336 7.323 
112 1 4.865 4.866 6.606 
121 1 1.218 5.364 7.322 
129 1 6.662 5.66 2.461 
130 1 7.323 5.336 3.711 
137 1 7.322 5.364 1.219 
141 1 2.461 6.662 5.66 
142 1 3.71 7.323 5.336 
149 1 1.218 7.322 5.364 
153 1 5.66 2.461 6.662 
154 1 5.336 3.711 7.323 
161 1 5.364 1.219 7.322 
7 1 6.662 5.66 13.616 
8 1 7.323 5.336 12.366 
10 1 6.606 4.866 11.211 
21 1 7.322 5.364 14.858 
32 1 1.218 7.322 10.713 
40 1 2.461 6.662 10.417 
41 1 3.71 7.323 10.741 
43 1 4.865 6.606 11.211 
47 1 5.364 1.219 8.755 
55 1 5.66 2.461 9.415 
56 1 5.336 3.711 8.754 
58 1 4.865 4.866 9.471 
64 1 5.629 6.643 16.094 
75 1 5.384 5.384 10.693 
118 1 6.643 5.629 16.094 
168 1 5.66 6.662 13.616 
169 1 5.336 7.323 12.366 
176 1 5.364 7.322 14.858 
182 1 7.322 1.219 10.713 
186 1 6.662 2.461 10.417 
187 1 7.323 3.711 10.741 
191 1 1.218 5.364 8.755 
195 1 2.461 5.66 9.415 
196 1 3.71 5.336 8.754 
9 1 7.322 10.713 1.219 
19 1 6.662 10.417 2.461 
20 1 7.323 10.741 3.711 
22 1 6.606 11.211 4.866 
27 1 1.218 8.755 5.364 
35 1 2.461 9.415 5.66 
36 1 3.71 8.754 5.336 
38 1 4.865 9.471 4.866 
44 1 6.643 16.095 5.63 
50 1 5.66 13.616 6.662 
51 1 5.336 12.366 7.323 
53 1 4.865 11.211 6.606 
62 1 5.364 14.858 7.322 
76 1 5.629 16.095 6.643 
81 1 5.384 10.693 5.384 
167 1 5.364 8.755 1.219 
171 1 5.66 9.415 2.461 
172 1 5.336 8.754 3.711 
180 1 6.662 13.616 5.66 
181 1 7.323 12.366 5.336 
188 1 7.322 14.858 5.364 
194 1 1.218 10.713 7.322 
198 1 2.461 10.417 6.662 
199 1 3.71 10.741 7.323 
17 1 5.384 10.693 10.693 
39 1 6.643 16.095 10.448 
49 1 5.629 9.434 16.095 
73 1 5.364 8.755 14.858 
82 1 5.629 16.095 9.434 
83 1 5.66 9.415 13.616 
84 1 5.336 8.754 12.366 
86 1 4.865 9.471 11.211 
91 1 7.322 14.858 10.713 
99 1 6.662 13.616 10.417 
100 1 7.323 12.366 10.741 
102 1 6.606 11.211 11.211 
113 1 6.643 10.448 16.094 
114 1 2.461 10.417 9.415 
115 1 3.71 10.741 8.754 
117 1 4.865 11.211 9.471 
126 1 1.218 10.713 8.755 
131 1 7.322 10.713 14.858 
135 1 6.662 10.417 13.616 
136 1 7.323 10.741 12.366 
144 1 2.461 9.415 10.417 
145 1 3.71 8.754 10.741 
152 1 1.218 8.755 10.713 
158 1 5.364 14.858 8.755 
162 1 5.66 13.616 9.415 
163 1 5.336 12.366 8.754 
3 1 8.755 5.364 1.219 
13 1 9.415 5.66 2.461 
14 1 8.754 5.336 3.711 
16 1 9.471 4.866 4.866 
24 1 16.095 5.629 6.643 
30 1 13.616 6.662 5.66 
31 1 12.367 7.323 5.336 
33 1 11.212 6.606 4.866 
42 1 14.859 7.322 5.364 
52 1 10.713 1.219 7.322 
60 1 10.417 2.461 6.662 
61 1 10.741 3.711 7.323 
63 1 11.212 4.866 6.606 
87 1 10.693 5.384 5.384 
98 1 16.095 6.643 5.63 
170 1 10.713 7.322 1.219 
174 1 10.417 6.662 2.461 
175 1 10.741 7.323 3.711 
179 1 8.755 1.219 5.364 
183 1 9.415 2.461 5.66 
184 1 8.754 3.711 5.336 
192 1 13.616 5.66 6.662 
193 1 12.367 5.336 7.323 
200 1 14.859 5.364 7.322 
6 1 16.096 5.629 9.434 
23 1 10.693 5.384 10.693 
59 1 10.448 6.643 16.095 
67 1 10.713 7.322 14.858 
77 1 10.417 6.662 13.616 
78 1 10.741 7.323 12.366 
80 1 11.212 6.606 11.211 
93 1 16.096 6.643 10.448 
94 1 9.415 2.461 10.417 
95 1 8.754 3.711 10.741 
97 1 9.471 4.866 11.211 
106 1 8.755 1.219 10.713 
116 1 14.859 5.364 8.755 
123 1 9.434 5.629 16.094 
124 1 13.616 5.66 9.415 
125 1 12.367 5.336 8.754 
127 1 11.212 4.866 9.471 
134 1 8.755 5.364 14.858 
138 1 9.415 5.66 13.616 
139 1 8.754 5.336 12.366 
143 1 14.859 7.322 10.713 
147 1 13.616 6.662 10.417 
148 1 12.367 7.323 10.741 
156 1 10.417 2.461 9.415 
157 1 10.741 3.711 8.754 
164 1 10.713 1.219 8.755 
11 1 10.693 10.693 5.384 
18 1 16.096 10.448 6.643 
29 1 9.434 16.095 5.63 
70 1 10.448 16.095 6.643 
71 1 10.417 9.415 2.461 
72 1 10.741 8.754 3.711 
74 1 11.212 9.471 4.866 
85 1 10.713 8.755 1.219 
96 1 8.755 14.858 5.364 
103 1 16.095 9.434 5.63 
104 1 9.415 13.616 5.66 
105 1 8.754 12.366 5.336 
107 1 9.471 11.211 4.866 
111 1 14.859 10.713 7.322 
119 1 13.616 10.417 6.662 
120 1 12.367 10.741 7.323 
122 1 11.212 11.211 6.606 
132 1 9.415 10.417 2.461 
133 1 8.754 10.741 3.711 
140 1 8.755 10.713 1.219 
146 1 14.859 8.755 5.364 
150 1 13.616 9.415 5.66 
151 1 12.367 8.754 5.336 
155 1 10.713 14.858 7.322 
159 1 10.417 13.616 6.662 
160 1 10.741 12.366 7.323 
1 1 9.415 10.417 13.616 
2 1 8.754 10.741 12.366 
4 1 9.471 11.211 11.211 
12 1 16.096 10.448 9.434 
15 1 8.755 10.713 14.858 
25 1 13.616 9.415 10.417 
26 1 12.367 8.754 10.741 
28 1 11.212 9.471 11.211 
34 1 9.434 16.095 10.448 
37 1 14.859 8.755 10.713 
45 1 10.417 13.616 9.415 
46 1 10.741 12.366 8.754 
48 1 11.212 11.211 9.471 
54 1 10.448 9.434 16.094 
57 1 10.713 14.858 8.755 
69 1 10.693 10.693 10.693 
88 1 10.448 16.095 9.434 
108 1 16.096 9.434 10.448 
128 1 9.434 10.448 16.094 
165 1 10.417 9.415 13.616 
166 1 10.741 8.754 12.366 
173 1 10.713 8.755 14.858 
177 1 9.415 13.616 10.417 
178 1 8.754 12.366 10.741 
185 1 8.755 14.858 10.713 
189 1 13.616 10.417 9.415 
190 1 12.367 10.741 8.754 
197 1 14.859 10.713 8.755 
201 2 9.987 12.408 11.565 
ITEM: TIMESTEP
10
ITEM: NUMBER OF ATOMS
201
ITEM: BOX BOUNDS pp pp pp
0.0000000000000000e+00 1.6114000000000001e+01
0.0000000000000000e+00 1.6113000000000000e+01
0.0000000000000000e+00 1.6111999999999998e+01
ITEM: ATOMS id type x y z 
5 1 5.38379 5.38399 5.38399 
65 1 5.65965 6.66172 2.4614 
66 1 5.3362 7.32281 3.7112 
68 1 4.86532 6.60614 4.86596 
79 1 5.3633 7.3216 1.21952 
89 1 6.66182 2.46129 5.65978 
90 1 7.32301 3.71099 5.33629 
92 1 6.60629 4.86598 4.86606 
101 1 7.32189 1.2192 5.36358 
109 1 2.46058 5.6597 6.6618 
110 1 3.71031 5.33619 7.3228 
112 1 4.86533 4.8659 6.60618 
121 1 1.21838 5.36351 7.32189 
129 1 6.66189 5.6596 2.46138 
130 1 7.32301 5.33626 3.71115 
137 1 7.32203 5.36337 1.21932 
141 1 2.46052 6.66184 5.65968 
142 1 3.71029 7.32284 5.33621 
149 1 1.2183 7.32194 5.36368 
153 1 5.65982 2.46146 6.66174 
154 1 5.33624 3.71099 7.32297 
161 1 5.3634 1.21931 7.32187 
7 1 6.66175 5.65921 13.616 
8 1 7.32262 5.33652 12.3659 
10 1 6.60612 4.86624 11.211 
21 1 7.32183 5.36302 14.8579 
32 1 1.21869 7.32188 10.714 
40 1 2.46014 6.66107 10.4175 
41 1 3.71017 7.32234 10.7404 
43 1 4.86542 6.6058 11.2108 
47 1 5.36337 1.21859 8.75515 
55 1 5.65923 2.46143 9.41483 
56 1 5.33626 3.7111 8.75355 
58 1 4.86527 4.86558 9.47022 
64 1 5.62854 6.64205 16.0948 
75 1 5.38368 5.38348 10.6929 
118 1 6.64257 5.62839 16.0947 
168 1 5.65946 6.66111 13.6161 
169 1 5.33661 7.32241 12.3659 
176 1 5.36284 7.32126 14.8581 
182 1 7.32202 1.22015 10.7135 
186 1 6.66182 2.46013 10.4176 
187 1 7.32281 3.71134 10.7405 
191 1 1.21842 5.36327 8.75457 
195 1 2.46049 5.65909 9.41483 
196 1 3.71035 5.33625 8.75357 
9 1 7.32195 10.7143 1.21993 
19 1 6.66114 10.4175 2.46172 
20 1 7.3229 10.7406 3.71147 
22 1 6.60636 11.211 4.86612 
27 1 1.21818 8.75468 5.36348 
35 1 2.46042 9.41481 5.65913 
36 1 3.71025 8.75365 5.33627 
38 1 4.86515 9.47036 4.86581 
44 1 6.64287 16.0952 5.62925 
50 1 5.65955 13.6164 6.66121 
51 1 5.3366 12.3659 7.32161 
53 1 4.86533 11.2108 6.60582 
62 1 5.36307 14.8586 7.3202 
76 1 5.62871 16.0953 6.64237 
81 1 5.38359 10.6928 5.3835 
167 1 5.36281 8.75448 1.21981 
171 1 5.65917 9.41497 2.46172 
172 1 5.33628 8.75366 3.71117 
180 1 6.66188 13.6161 5.65928 
181 1 7.32294 12.366 5.3365 
188 1 7.32196 14.8583 5.36342 
194 1 1.21856 10.7139 7.32188 
198 1 2.46005 10.4175 6.66116 
199 1 3.71022 10.7404 7.32238 
17 1 5.37441 10.6897 10.6899 
39 1 6.6408 16.0947 10.4497 
49 1 5.62778 9.43448 16.0953 
73 1 5.36179 8.75383 14.8594 
82 1 5.62789 16.0966 9.43382 
83 1 5.65615 9.41406 13.6165 
84 1 5.33686 8.75201 12.3667 
86 1 4.86477 9.47034 11.2106 
91 1 7.32357 14.8657 10.7119 
99 1 6.653 13.6148 10.423 
100 1 7.27285 12.366 10.7327 
102 1 6.60149 11.2175 11.2085 
113 1 6.64128 10.4489 16.0958 
114 1 2.46009 10.418 9.41538 
115 1 3.709 10.74 8.75266 
117 1 4.86433 11.2099 9.47077 
126 1 1.21811 10.7142 8.75454 
131 1 7.32126 10.7153 14.8601 
135 1 6.65539 10.4194 13.6199 
136 1 7.32423 10.7316 12.3737 
144 1 2.4601 9.41555 10.4179 
145 1 3.70865 8.75234 10.7399 
152 1 1.21827 8.75453 10.7143 
158 1 5.36193 14.8591 8.75481 
162 1 5.65197 13.6171 9.40917 
163 1 5.3368 12.3683 8.75285 
3 1 8.75469 5.36324 1.21945 
13 1 9.41501 5.65945 2.46141 
14 1 8.75387 5.33627 3.71119 
16 1 9.47069 4.86598 4.86606 
24 1 16.0955 5.62867 6.64263 
30 1 13.6165 6.66176 5.65958 
31 1 12.3667 7.32273 5.33628 
33 1 11.2116 6.60602 4.86602 
42 1 14.8587 7.32186 5.36351 
52 1 10.7139 1.22017 7.32164 
60 1 10.4175 2.46135 6.66153 
61 1 10.7408 3.71143 7.32263 
63 1 11.2115 4.86581 6.6061 
87 1 10.6931 5.38391 5.38384 
98 1 16.0954 6.64277 5.62933 
170 1 10.714 7.32171 1.22 
174 1 10.4174 6.66153 2.46158 
175 1 10.7407 7.32277 3.71125 
179 1 8.75474 1.21918 5.36335 
183 1 9.41465 2.46136 5.65925 
184 1 8.75389 3.71096 5.33631 
192 1 13.6164 5.6596 6.66177 
193 1 12.3667 5.33628 7.32261 
200 1 14.8586 5.36336 7.32179 
6 1 16.096 5.62814 9.43406 
23 1 10.6935 5.38314 10.6927 
59 1 10.4487 6.64158 16.0953 
67 1 10.7147 7.31997 14.8593 
77 1 10.4177 6.65974 13.6178 
78 1 10.7388 7.32097 12.3668 
80 1 11.2106 6.60562 11.2102 
93 1 16.0961 6.64185 10.4485 
94 1 9.41605 2.46235 10.4178 
95 1 8.75366 3.71132 10.7404 
97 1 9.4703 4.86595 11.211 
106 1 8.75419 1.22102 10.7133 
116 1 14.8592 5.36303 8.75458 
123 1 9.43413 5.62791 16.0949 
124 1 13.6169 5.65805 9.41427 
125 1 12.3667 5.33641 8.75345 
127 1 11.2119 4.86597 9.47037 
134 1 8.75455 5.3627 14.8583 
138 1 9.41448 5.65802 13.6161 
139 1 8.75355 5.33662 12.366 
143 1 14.8603 7.32152 10.7144 
147 1 13.619 6.6596 10.4175 
148 1 12.3677 7.31949 10.7389 
156 1 10.4177 2.46172 9.41553 
157 1 10.7405 3.71107 8.75347 
164 1 10.7148 1.21925 8.75468 
11 1 10.693 10.6925 5.38237 
18 1 16.0959 10.4486 6.64219 
29 1 9.43289 16.0954 5.62786 
70 1 10.4488 16.0972 6.64052 
71 1 10.4178 9.4153 2.46175 
72 1 10.7406 8.75345 3.71101 
74 1 11.2118 9.47034 4.86573 
85 1 10.7144 8.75482 1.21936 
96 1 8.75471 14.8584 5.36321 
103 1 16.0956 9.4339 5.62887 
104 1 9.41465 13.616 5.65876 
105 1 8.75373 12.3663 5.33664 
107 1 9.47047 11.2111 4.8661 
111 1 14.8599 10.7142 7.32147 
119 1 13.618 10.4175 6.66048 
120 1 12.3679 10.7392 7.32095 
122 1 11.2113 11.2098 6.60546 
132 1 9.41566 10.4177 2.46168 
133 1 8.75372 10.7404 3.71125 
140 1 8.75434 10.7145 1.22093 
146 1 14.8589 8.75464 5.36323 
150 1 13.6167 9.41441 5.65844 
151 1 12.367 8.75346 5.33646 
155 1 10.7158 14.8601 7.31807 
159 1 10.4173 13.6163 6.66027 
160 1 10.7397 12.3652 7.32122 
1 1 9.41726 10.4204 13.6219 
2 1 8.73703 10.7021 12.3824 
4 1 9.47065 11.1778 11.2033 
12 1 16.0962 10.4487 9.43491 
15 1 8.7536 10.7156 14.8633 
25 1 13.6195 9.41626 10.4185 
26 1 12.3767 8.74594 10.7377 
28 1 11.2143 9.46179 11.2105 
34 1 9.43386 16.099 10.446 
37 1 14.8607 8.75394 10.7148 
45 1 10.4195 13.6194 9.40555 
46 1 10.7442 12.3711 8.74946 
48 1 11.2128 11.2096 9.46795 
54 1 10.4496 9.43467 16.0961 
57 1 10.7129 14.861 8.75067 
69 1 10.6938 10.6596 10.6693 
88 1 10.4488 16.098 9.43394 
108 1 16.0963 9.43523 10.4487 
128 1 9.4363 10.4495 16.0966 
165 1 10.4236 9.41324 13.6192 
166 1 10.7381 8.7472 12.3754 
173 1 10.7166 8.75368 14.8599 
177 1 9.45445 13.6196 10.4528 
178 1 8.75579 12.3689 10.6977 
185 1 8.74941 14.8635 10.7246 
189 1 13.6186 10.419 9.41541 
190 1 12.3718 10.7395 8.7495 
197 1 14.8599 10.7147 8.75415 
201 2 10.0223 12.5193 11.5943 
ITEM: TIMESTEP
20
ITEM: NUMBER OF ATOMS
201
ITEM: BOX BOUNDS pp pp pp
0.0000000000000000e+00 1.6114000000000001e+01
0.0000000000000000e+00 1.6113000000000000e+01
0.0000000000000000e+00 1.6111999999999998e+01
ITEM: ATOMS id type x y z 
5 1 5.38382 5.38385 5.38421 
65 1 5.65949 6.66147 2.46137 
66 1 5.33637 7.32257 3.71131 
68 1 4.86556 6.60606 4.86614 
79 1 5.36296 7.32179 1.21957 
89 1 6.66135 2.46109 5.66004 
90 1 7.32302 3.71111 5.33646 
92 1 6.60639 4.86606 4.86614 
101 1 7.32153 1.21945 5.36335 
109 1 2.46059 5.65954 6.66159 
110 1 3.71066 5.33626 7.3226 
112 1 4.86546 4.86607 6.6062 
121 1 1.21847 5.36312 7.32161 
129 1 6.66183 5.65937 2.46153 
130 1 7.32302 5.3364 3.71138 
137 1 7.32183 5.36301 1.21945 
141 1 2.46047 6.66164 5.65955 
142 1 3.71033 7.32268 5.33643 
149 1 1.21843 7.32176 5.36335 
153 1 5.65986 2.46116 6.6618 
154 1 5.33646 3.7107 7.32322 
161 1 5.36347 1.21933 7.32254 
7 1 6.66146 5.65902 13.6161 
8 1 7.32238 5.33673 12.3657 
10 1 6.606 4.86619 11.2107 
21 1 7.32128 5.36257 14.858 
32 1 1.21899 7.32167 10.7146 
40 1 2.4602 6.66046 10.4178 
41 1 3.71031 7.32201 10.7401 
43 1 4.8657 6.60607 11.2109 
47 1 5.36393 1.21804 8.75559 
55 1 5.65973 2.46094 9.41499 
56 1 5.33646 3.71082 8.75355 
58 1 4.86567 4.8651 9.46969 
64 1 5.62832 6.64185 16.0949 
75 1 5.38397 5.3832 10.6929 
118 1 6.6423 5.62819 16.0949 
168 1 5.65921 6.66104 13.6162 
169 1 5.337 7.32301 12.3661 
176 1 5.36244 7.32141 14.8584 
182 1 7.32167 1.21953 10.7127 
186 1 6.66219 2.45922 10.4174 
187 1 7.32264 3.71039 10.74 
191 1 1.21851 5.36263 8.75448 
195 1 2.46055 5.65851 9.41465 
196 1 3.71038 5.3364 8.75337 
9 1 7.32153 10.7146 1.22011 
19 1 6.66084 10.4176 2.46191 
20 1 7.32267 10.7402 3.71135 
22 1 6.60655 11.2112 4.86637 
27 1 1.21825 8.75459 5.36296 
35 1 2.46032 9.41491 5.65884 
36 1 3.71022 8.75355 5.33651 
38 1 4.86522 9.4701 4.86598 
44 1 6.64259 16.0952 5.6291 
50 1 5.65937 13.6165 6.66118 
51 1 5.33681 12.3664 7.32163 
53 1 4.86544 11.2111 6.60623 
62 1 5.36279 14.8591 7.31937 
76 1 5.6287 16.0956 6.64221 
81 1 5.38336 10.6928 5.38359 
167 1 5.36249 8.75433 1.21978 
171 1 5.65901 9.41514 2.46132 
172 1 5.3365 8.75343 3.71126 
180 1 6.66159 13.6166 5.65933 
181 1 7.32297 12.3663 5.33684 
188 1 7.32179 14.8584 5.36325 
194 1 1.21897 10.7144 7.3216 
198 1 2.46004 10.4177 6.66072 
199 1 3.71037 10.7403 7.3221 
17 1 5.37362 10.69 10.6901 
39 1 6.64355 16.0914 10.4498 
49 1 5.62759 9.43438 16.0953 
73 1 5.36127 8.75365 14.8593 
82 1 5.62894 16.0971 9.43419 
83 1 5.65546 9.4141 13.6169 
84 1 5.33658 8.75193 12.3669 
86 1 4.86467 9.46932 11.211 
91 1 7.33736 14.8633 10.7058 
99 1 6.64589 13.6178 10.4285 
100 1 7.27248 12.3673 10.7319 
102 1 6.59683 11.2208 11.2123 
113 1 6.64089 10.449 16.0959 
114 1 2.46039 10.418 9.41547 
115 1 3.70907 10.74 8.75237 
117 1 4.86387 11.2103 9.46973 
126 1 1.21858 10.7149 8.75455 
131 1 7.32058 10.7151 14.8603 
135 1 6.65343 10.4213 13.6191 
136 1 7.32552 10.7298 12.3716 
144 1 2.46038 9.4159 10.4178 
145 1 3.70866 8.75177 10.7399 
152 1 1.21899 8.75446 10.7151 
158 1 5.36094 14.8604 8.7541 
162 1 5.64884 13.6177 9.40812 
163 1 5.33547 12.3677 8.75227 
3 1 8.75471 5.36272 1.21963 
13 1 9.41501 5.65921 2.46156 
14 1 8.75369 5.33646 3.71132 
16 1 9.47049 4.866 4.86618 
24 1 16.0957 5.6285 6.64232 
30 1 13.6166 6.66154 5.65942 
31 1 12.3666 7.32262 5.33651 
33 1 11.2115 6.60592 4.86634 
42 1 14.8587 7.32146 5.36316 
52 1 10.7141 1.22044 7.32173 
60 1 10.4178 2.46123 6.66141 
61 1 10.7406 3.71142 7.32258 
63 1 11.2111 4.86582 6.60608 
87 1 10.693 5.384 5.38366 
98 1 16.0955 6.6425 5.62893 
170 1 10.7143 7.32148 1.22042 
174 1 10.4175 6.66115 2.46139 
175 1 10.7405 7.32267 3.71143 
179 1 8.75439 1.21947 5.36271 
183 1 9.41457 2.46155 5.65903 
184 1 8.75381 3.7109 5.33653 
192 1 13.6165 5.65945 6.66149 
193 1 12.3667 5.33656 7.32246 
200 1 14.8588 5.36288 7.32117 
6 1 16.0962 5.6275 9.4339 
23 1 10.6932 5.38231 10.6923 
59 1 10.4492 6.64088 16.0958 
67 1 10.7156 7.31915 14.8602 
77 1 10.4183 6.65808 13.6191 
78 1 10.7376 7.31905 12.368 
80 1 11.2096 6.60501 11.2105 
93 1 16.0966 6.64114 10.449 
94 1 9.41599 2.46265 10.4178 
95 1 8.75332 3.71102 10.7399 
97 1 9.46958 4.86564 11.2107 
106 1 8.754 1.21935 10.7113 
116 1 14.8598 5.36188 8.75411 
123 1 9.43399 5.62735 16.0953 
124 1 13.6175 5.65614 9.41354 
125 1 12.3666 5.33652 8.75303 
127 1 11.2118 4.86612 9.47012 
134 1 8.75439 5.36177 14.8588 
138 1 9.41391 5.6566 13.6164 
139 1 8.75322 5.3369 12.3662 
143 1 14.8613 7.32093 10.7152 
147 1 13.6209 6.65697 10.4182 
148 1 12.3686 7.31482 10.738 
156 1 10.4177 2.46161 9.41578 
157 1 10.7402 3.71063 8.7533 
164 1 10.7152 1.21961 8.75493 
11 1 10.6927 10.6923 5.38176 
18 1 16.096 10.449 6.64166 
29 1 9.43273 16.0957 5.62686 
70 1 10.4498 16.0977 6.63925 
71 1 10.4181 9.41535 2.46206 
72 1 10.7403 8.7533 3.71089 
74 1 11.2116 9.47009 4.8658 
85 1 10.7151 8.75471 1.21979 
96 1 8.75447 14.8584 5.36278 
103 1 16.0959 9.43381 5.62818 
104 1 9.41471 13.6162 5.65873 
105 1 8.75356 12.3668 5.3371 
107 1 9.47045 11.211 4.86641 
111 1 14.8603 10.7148 7.32103 
119 1 13.6187 10.4181 6.65912 
120 1 12.3682 10.739 7.31807 
122 1 11.2106 11.2104 6.6056 
132 1 9.41592 10.418 2.46196 
133 1 8.75338 10.7401 3.71158 
140 1 8.75423 10.7151 1.22161 
146 1 14.8592 8.75436 5.36246 
150 1 13.617 9.41397 5.65728 
151 1 12.367 8.75311 5.33664 
155 1 10.7167 14.8613 7.31495 
159 1 10.4182 13.6163 6.66066 
160 1 10.7402 12.3655 7.32098 
1 1 9.41333 10.4172 13.6216 
2 1 8.73557 10.6842 12.3784 
4 1 9.47197 11.207 11.2285 
12 1 16.0968 10.4493 9.43523 
15 1 8.75282 10.7154 14.8646 
25 1 13.6224 9.41784 10.4178 
26 1 12.3785 8.7427 10.7384 
28 1 11.2157 9.45089 11.2093 
34 1 9.42604 16.0895 10.4449 
37 1 14.8619 8.7538 10.7161 
45 1 10.4152 13.6225 9.40588 
46 1 10.7477 12.3731 8.75031 
48 1 11.2135 11.2084 9.46209 
54 1 10.4499 9.43511 16.0971 
57 1 10.7084 14.8626 8.74784 
69 1 10.6899 10.6401 10.6528 
88 1 10.445 16.0988 9.43446 
108 1 16.0973 9.43599 10.4492 
128 1 9.43653 10.4503 16.0977 
165 1 10.425 9.41478 13.6221 
166 1 10.7397 8.74639 12.3772 
173 1 10.7187 8.7535 14.8611 
177 1 9.47121 13.6214 10.4853 
178 1 8.74816 12.3681 10.6696 
185 1 8.75497 14.8577 10.7268 
189 1 13.6205 10.419 9.41633 
190 1 12.3717 10.7408 8.74832 
197 1 14.8602 10.7159 8.75407 
201 2 10.0132 12.5712 11.5942 
ITEM: TIMESTEP
30
ITEM: NUMBER OF ATOMS
201
ITEM: BOX BOUNDS pp pp pp
0.0000000000000000e+00 1.6114000000000001e+01
0.0000000000000000e+00 1.6113000000000000e+01
0.0000000000000000e+00 1.6111999999999998e+01
ITEM: ATOMS id type x y z 
5 1 5.38409 5.38373 5.38488 
65 1 5.65967 6.66134 2.46159 
66 1 5.33639 7.32244 3.71143 
68 1 4.86587 6.60594 4.86633 
79 1 5.36288 7.32198 1.21956 
89 1 6.6608 2.46088 5.66093 
90 1 7.32332 3.71131 5.3365 
92 1 6.6065 4.86603 4.86635 
101 1 7.32164 1.21978 5.36342 
109 1 2.46075 5.65955 6.66154 
110 1 3.7114 5.33608 7.32235 
112 1 4.86554 4.86639 6.60614 
121 1 1.21857 5.36292 7.32139 
129 1 6.66189 5.65945 2.46158 
130 1 7.32315 5.33633 3.71179 
137 1 7.32178 5.36301 1.21961 
141 1 2.4606 6.66156 5.65962 
142 1 3.71054 7.32265 5.33648 
149 1 1.21851 7.32185 5.36315 
153 1 5.66047 2.46079 6.66217 
154 1 5.33657 3.71034 7.32363 
161 1 5.36407 1.21958 7.32317 
7 1 6.66155 5.65929 13.6162 
8 1 7.32252 5.33658 12.3655 
10 1 6.60575 4.86601 11.2105 
21 1 7.32105 5.36257 14.8578 
32 1 1.21909 7.32169 10.7145 
40 1 2.46054 6.66024 10.4179 
41 1 3.71075 7.32203 10.7403 
43 1 4.86608 6.60625 11.2112 
47 1 5.36554 1.21692 8.75668 
55 1 5.66055 2.46113 9.41511 
56 1 5.33642 3.71065 8.75378 
58 1 4.86637 4.86445 9.46934 
64 1 5.62847 6.642 16.0947 
75 1 5.38494 5.38333 10.6931 
118 1 6.64214 5.62838 16.0951 
168 1 5.65955 6.66128 13.616 
169 1 5.33699 7.32396 12.3662 
176 1 5.36255 7.32218 14.8586 
182 1 7.32191 1.21726 10.7115 
186 1 6.66274 2.45851 10.4168 
187 1 7.32261 3.70934 10.74 
191 1 1.21888 5.36224 8.75443 
195 1 2.4608 5.65824 9.41433 
196 1 3.71045 5.33628 8.75329 
9 1 7.32158 10.7143 1.21969 
19 1 6.66103 10.4175 2.46211 
20 1 7.32271 10.7401 3.71138 
22 1 6.60681 11.2115 4.86675 
27 1 1.21827 8.75459 5.3628 
35 1 2.46024 9.41493 5.65888 
36 1 3.71039 8.75352 5.33652 
38 1 4.86542 9.46996 4.86615 
44 1 6.64267 16.0953 5.62915 
50 1 5.65935 13.6165 6.66175 
51 1 5.33644 12.3667 7.3224 
53 1 4.86567 11.2116 6.60664 
62 1 5.3629 14.8596 7.31916 
76 1 5.62901 16.0954 6.64226 
81 1 5.38367 10.6928 5.38395 
167 1 5.36257 8.75415 1.21982 
171 1 5.65919 9.41516 2.46106 
172 1 5.33649 8.75316 3.71151 
180 1 6.6618 13.6168 5.65965 
181 1 7.32331 12.3664 5.33686 
188 1 7.32226 14.8584 5.36355 
194 1 1.21902 10.7142 7.32148 
198 1 2.46001 10.4178 6.66075 
199 1 3.71052 10.7405 7.32236 
17 1 5.37541 10.6914 10.6914 
39 1 6.64908 16.0873 10.4458 
49 1 5.62801 9.43435 16.095 
73 1 5.36198 8.75396 14.8581 
82 1 5.63227 16.0962 9.43543 
83 1 5.65714 9.41555 13.6167 
84 1 5.33585 8.75286 12.367 
86 1 4.86527 9.46975 11.2111 
91 1 7.34391 14.8568 10.698 
99 1 6.63889 13.6182 10.4331 
100 1 7.27959 12.3699 10.7317 
102 1 6.59291 11.2255 11.2186 
113 1 6.6414 10.4484 16.0954 
114 1 2.46109 10.4175 9.41483 
115 1 3.71022 10.7407 8.75274 
117 1 4.8639 11.2106 9.46975 
126 1 1.2185 10.7149 8.75451 
131 1 7.32013 10.714 14.8587 
135 1 6.65523 10.4218 13.6156 
136 1 7.32867 10.7279 12.3669 
144 1 2.46114 9.4154 10.4174 
145 1 3.70949 8.75162 10.7405 
152 1 1.2195 8.75441 10.715 
158 1 5.36086 14.8613 8.75334 
162 1 5.64699 13.6182 9.40987 
163 1 5.33318 12.3668 8.75243 
3 1 8.75463 5.36262 1.21979 
13 1 9.41494 5.65951 2.46182 
14 1 8.75365 5.33642 3.71158 
16 1 9.47046 4.86597 4.8665 
24 1 16.0959 5.62855 6.64192 
30 1 13.6164 6.6616 5.65966 
31 1 12.3662 7.32292 5.33641 
33 1 11.2112 6.60556 4.86676 
42 1 14.8586 7.32146 5.36308 
52 1 10.7135 1.22058 7.32143 
60 1 10.4176 2.46132 6.66203 
61 1 10.7406 3.71125 7.32284 
63 1 11.2107 4.86581 6.60596 
87 1 10.6929 5.38457 5.38402 
98 1 16.0955 6.64236 5.6287 
170 1 10.714 7.3216 1.22065 
174 1 10.4173 6.66129 2.46147 
175 1 10.7406 7.32294 3.71161 
179 1 8.75386 1.21975 5.36254 
183 1 9.41432 2.46167 5.65942 
184 1 8.75365 3.71089 5.33654 
192 1 13.6161 5.65971 6.66139 
193 1 12.3665 5.33646 7.3226 
200 1 14.8587 5.36254 7.32073 
6 1 16.0962 5.62738 9.4337 
23 1 10.6925 5.3829 10.692 
59 1 10.449 6.64101 16.0956 
67 1 10.7152 7.31941 14.8606 
77 1 10.4183 6.65824 13.6191 
78 1 10.7383 7.31959 12.3692 
80 1 11.2091 6.60462 11.2119 
93 1 16.0971 6.64125 10.4492 
94 1 9.41459 2.46111 10.417 
95 1 8.75325 3.71052 10.7401 
97 1 9.46906 4.86547 11.2105 
106 1 8.75336 1.21724 10.7074 
116 1 14.8603 5.36094 8.75363 
123 1 9.43375 5.62748 16.0953 
124 1 13.6179 5.65476 9.41303 
125 1 12.3663 5.33604 8.75288 
127 1 11.2115 4.86648 9.47042 
134 1 8.75426 5.36142 14.859 
138 1 9.4134 5.65625 13.6164 
139 1 8.75334 5.33661 12.3666 
143 1 14.8616 7.32101 10.715 
147 1 13.6216 6.65518 10.4189 
148 1 12.37 7.3124 10.7394 
156 1 10.4171 2.462 9.41547 
157 1 10.7401 3.71008 8.75344 
164 1 10.7139 1.21914 8.75572 
11 1 10.6923 10.6923 5.38292 
18 1 16.0958 10.4489 6.64199 
29 1 9.43247 16.0961 5.62623 
70 1 10.4506 16.0977 6.63821 
71 1 10.4179 9.41485 2.4626 
72 1 10.7405 8.75326 3.71109 
74 1 11.2112 9.47048 4.86621 
85 1 10.7147 8.75496 1.21961 
96 1 8.75442 14.858 5.36326 
103 1 16.0959 9.43371 5.62816 
104 1 9.41429 13.6161 5.6597 
105 1 8.75367 12.3673 5.33732 
107 1 9.47097 11.2108 4.86705 
111 1 14.8602 10.7144 7.32128 
119 1 13.6182 10.4183 6.65901 
120 1 12.3686 10.7406 7.31823 
122 1 11.21 11.212 6.60667 
132 1 9.41526 10.4178 2.4621 
133 1 8.75347 10.74 3.71198 
140 1 8.75449 10.7146 1.22167 
146 1 14.8592 8.75421 5.36224 
150 1 13.6169 9.41367 5.65707 
151 1 12.3671 8.75312 5.33641 
155 1 10.7161 14.8618 7.31176 
159 1 10.4192 13.6148 6.6619 
160 1 10.7427 12.3662 7.32411 
1 1 9.40582 10.4077 13.6172 
2 1 8.73991 10.6793 12.3679 
4 1 9.4849 11.2361 11.2447 
12 1 16.0965 10.4491 9.43478 
15 1 8.75179 10.7117 14.8628 
25 1 13.6215 9.41589 10.416 
26 1 12.3781 8.74137 10.7411 
28 1 11.2096 9.44845 11.2009 
34 1 9.42356 16.0856 10.4436 
37 1 14.8619 8.75407 10.7153 
45 1 10.4164 13.6217 9.40256 
46 1 10.7514 12.3746 8.75573 
48 1 11.2082 11.2012 9.464 
54 1 10.4489 9.43479 16.0973 
57 1 10.6992 14.8599 8.74716 
69 1 10.6683 10.6316 10.6443 
88 1 10.4391 16.0992 9.43226 
108 1 16.0975 9.43603 10.4488 
128 1 9.43513 10.4498 16.0968 
165 1 10.4252 9.41368 13.6213 
166 1 10.7454 8.74797 12.3757 
173 1 10.7191 8.75397 14.8609 
177 1 9.48509 13.6109 10.5059 
178 1 8.74706 12.3488 10.6423 
185 1 8.76151 14.8522 10.7372 
189 1 13.6189 10.4176 9.41506 
190 1 12.3699 10.7438 8.74932 
197 1 14.8594 10.7154 8.75429 
201 2 10.0045 12.6349 11.608 
ITEM: TIMESTEP
40
ITEM: NUMBER OF ATOMS
201
ITEM: BOX BOUNDS pp pp pp
0.0000000000000000e+00 1.6114000000000001e+01
0.0000000000000000e+00 1.6113000000000000e+01
0.0000000000000000e+00 1.6111999999999998e+01
ITEM: ATOMS id type x y z 
5 1 5.38411 5.38429 5.38461 
65 1 5.65956 6.66187 2.46169 
66 1 5.33643 7.32274 3.71126 
68 1 4.86576 6.60634 4.86641 
79 1 5.36315 7.32178 1.2194 
89 1 6.66116 2.46148 5.66051 
90 1 7.32304 3.7107 5.33693 
92 1 6.60638 4.86641 4.86636 
101 1 7.32142 1.21944 5.36302 
109 1 2.4609 5.65966 6.66184 
110 1 3.71063 5.33634 7.32288 
112 1 4.86566 4.86609 6.60674 
121 1 1.21844 5.36318 7.3216 
129 1 6.66196 5.65949 2.46148 
130 1 7.32301 5.33654 3.71153 
137 1 7.32177 5.36321 1.21942 
141 1 2.46064 6.66203 5.6597 
142 1 3.71029 7.323 5.33657 
149 1 1.21852 7.32201 5.3634 
153 1 5.65991 2.46083 6.66299 
154 1 5.33644 3.71084 7.32384 
161 1 5.36444 1.2189 7.32425 
7 1 6.66187 5.65963 13.6157 
8 1 7.32266 5.33624 12.3656 
10 1 6.60661 4.86538 11.2108 
21 1 7.32131 5.36292 14.8578 
32 1 1.21906 7.32183 10.7138 
40 1 2.46097 6.66051 10.4174 
41 1 3.71073 7.32145 10.7406 
43 1 4.8664 6.60623 11.2112 
47 1 5.36651 1.21746 8.75656 
55 1 5.66079 2.46069 9.41538 
56 1 5.33651 3.71093 8.75395 
58 1 4.8663 4.86555 9.47028 
64 1 5.62867 6.64275 16.0946 
75 1 5.38463 5.38394 10.6925 
118 1 6.64229 5.62869 16.0948 
168 1 5.65989 6.66216 13.6159 
169 1 5.33683 7.32332 12.3664 
176 1 5.3632 7.32248 14.8581 
182 1 7.32167 1.21513 10.711 
186 1 6.66285 2.45903 10.417 
187 1 7.32263 3.70929 10.7406 
191 1 1.21911 5.36258 8.75422 
195 1 2.46062 5.6589 9.41462 
196 1 3.71082 5.33612 8.75344 
9 1 7.32155 10.7134 1.21939 
19 1 6.66166 10.4172 2.46202 
20 1 7.32278 10.7403 3.7116 
22 1 6.60665 11.2109 4.86647 
27 1 1.21847 8.75464 5.36324 
35 1 2.4603 9.41468 5.65925 
36 1 3.71044 8.75368 5.33641 
38 1 4.86567 9.47027 4.86643 
44 1 6.64276 16.0952 5.62895 
50 1 5.65951 13.6164 6.66158 
51 1 5.33593 12.3666 7.32226 
53 1 4.86568 11.2112 6.60618 
62 1 5.3626 14.8591 7.31996 
76 1 5.62901 16.0959 6.64215 
81 1 5.38408 10.6924 5.38414 
167 1 5.36306 8.75442 1.21997 
171 1 5.65955 9.41478 2.46138 
172 1 5.33642 8.75347 3.71144 
180 1 6.66204 13.616 5.65982 
181 1 7.32321 12.3665 5.33682 
188 1 7.32252 14.8584 5.3636 
194 1 1.21826 10.7135 7.32165 
198 1 2.46037 10.4175 6.66111 
199 1 3.71013 10.7407 7.32171 
17 1 5.37618 10.6936 10.6936 
39 1 6.65396 16.0857 10.4418 
49 1 5.62835 9.434 16.0948 
73 1 5.36328 8.75471 14.858 
82 1 5.63414 16.0944 9.43595 
83 1 5.65901 9.41706 13.6164 
84 1 5.33576 8.75351 12.3669 
86 1 4.86483 9.46906 11.2112 
91 1 7.34582 14.8504 10.6958 
99 1 6.63877 13.6175 10.433 
100 1 7.28619 12.37 10.7308 
102 1 6.59039 11.2281 11.2213 
113 1 6.64176 10.4478 16.0955 
114 1 2.46003 10.4167 9.41451 
115 1 3.70956 10.74 8.75245 
117 1 4.86389 11.2107 9.46996 
126 1 1.21825 10.7139 8.75452 
131 1 7.31897 10.7136 14.8566 
135 1 6.65799 10.4204 13.6141 
136 1 7.33041 10.7272 12.3628 
144 1 2.46066 9.41474 10.4168 
145 1 3.70993 8.75188 10.7405 
152 1 1.21924 8.75458 10.7139 
158 1 5.36098 14.86 8.75332 
162 1 5.64781 13.618 9.41458 
163 1 5.33259 12.368 8.75312 
3 1 8.75435 5.36272 1.21976 
13 1 9.41509 5.65984 2.4615 
14 1 8.75358 5.33678 3.71132 
16 1 9.47029 4.86595 4.86674 
24 1 16.0961 5.62873 6.642 
30 1 13.6164 6.66186 5.65996 
31 1 12.3665 7.32336 5.33651 
33 1 11.2115 6.60664 4.86649 
42 1 14.8587 7.32186 5.36333 
52 1 10.7134 1.21992 7.3216 
60 1 10.4175 2.4616 6.66221 
61 1 10.7406 3.71128 7.32335 
63 1 11.2111 4.86597 6.60675 
87 1 10.6929 5.38437 5.38448 
98 1 16.0956 6.64264 5.62877 
170 1 10.7137 7.32211 1.2201 
174 1 10.4172 6.66157 2.46173 
175 1 10.7406 7.32323 3.7116 
179 1 8.75396 1.21999 5.36215 
183 1 9.41462 2.46113 5.65971 
184 1 8.75363 3.71124 5.33676 
192 1 13.6164 5.65993 6.66167 
193 1 12.3666 5.33647 7.32314 
200 1 14.8587 5.36269 7.32091 
6 1 16.0961 5.62815 9.43371 
23 1 10.6917 5.38423 10.6927 
59 1 10.4482 6.64104 16.0961 
67 1 10.7147 7.3199 14.8597 
77 1 10.4169 6.65834 13.6194 
78 1 10.7405 7.3199 12.3686 
80 1 11.2102 6.60378 11.2121 
93 1 16.0974 6.64157 10.4481 
94 1 9.41352 2.46002 10.4162 
95 1 8.75317 3.71032 10.7406 
97 1 9.46885 4.86528 11.2106 
106 1 8.75305 1.2171 10.706 
116 1 14.8604 5.36103 8.75338 
123 1 9.43386 5.62805 16.095 
124 1 13.6183 5.65547 9.41397 
125 1 12.3663 5.33557 8.75362 
127 1 11.2115 4.86652 9.47009 
134 1 8.75388 5.36168 14.8587 
138 1 9.41431 5.65758 13.6167 
139 1 8.75317 5.33594 12.3659 
143 1 14.8607 7.32104 10.7138 
147 1 13.622 6.65487 10.4184 
148 1 12.3704 7.31384 10.7418 
156 1 10.4166 2.46152 9.41561 
157 1 10.7406 3.71128 8.75436 
164 1 10.7121 1.2188 8.75554 
11 1 10.6926 10.6928 5.38524 
18 1 16.096 10.4479 6.64254 
29 1 9.43278 16.0959 5.62565 
70 1 10.451 16.0987 6.63644 
71 1 10.417 9.41501 2.46217 
72 1 10.7408 8.7539 3.71204 
74 1 11.2113 9.47045 4.86662 
85 1 10.7138 8.75499 1.22008 
96 1 8.75461 14.8578 5.36369 
103 1 16.0956 9.43384 5.62899 
104 1 9.4148 13.6161 5.66076 
105 1 8.75375 12.3658 5.33695 
107 1 9.47047 11.211 4.86721 
111 1 14.8588 10.7133 7.32176 
119 1 13.6184 10.4175 6.65958 
120 1 12.3685 10.7423 7.32117 
122 1 11.2106 11.2116 6.60689 
132 1 9.41482 10.4171 2.46203 
133 1 8.75353 10.7401 3.71221 
140 1 8.75431 10.7139 1.22095 
146 1 14.8591 8.75425 5.36278 
150 1 13.6172 9.41481 5.6586 
151 1 12.3666 8.75386 5.3361 
155 1 10.7157 14.8606 7.30969 
159 1 10.4194 13.6141 6.66037 
160 1 10.745 12.366 7.32546 
1 1 9.4035 10.401 13.6145 
2 1 8.7432 10.6821 12.3668 
4 1 9.49053 11.2537 11.2528 
12 1 16.0953 10.4483 9.43363 
15 1 8.75074 10.7077 14.8618 
25 1 13.6184 9.4122 10.4152 
26 1 12.3759 8.74246 10.7409 
28 1 11.2031 9.44794 11.1951 
34 1 9.42408 16.0828 10.4475 
37 1 14.8611 8.75421 10.713 
45 1 10.4212 13.6205 9.40239 
46 1 10.7519 12.3755 8.75801 