ITEM: TIMESTEP
0
ITEM: NUMBER OF ATOMS
163
ITEM: BOX BOUNDS xy xz yz pp pp pp
-6.7755000000000001e+00 1.3552000000000000e+01 -6.7755000000000001e+00
0.0000000000000000e+00 1.1735510246683001e+01 0.0000000000000000e+00
0.0000000000000000e+00 2.2149999999999999e+01 0.0000000000000000e+00
ITEM: ATOMS id type x y z 
8 1 -2.486 5.297 9.849 
87 1 3.001 4.231 10.696 
90 1 2.733 5.481 9.824 
109 1 -2.486 5.297 0.765 
158 1 2.733 5.481 0.79 
11 1 4.24 4.139 20.131 
14 1 3.031 4.094 19.728 
18 1 1.299 5.827 18.554 
33 1 2.266 4.151 20.924 
43 1 4.343 3.96 21.647 
47 1 3.32 5.732 17.88 
52 1 4.24 4.139 12.633 
76 1 2.552 4.924 14.209 
85 1 4.343 3.96 11.117 
89 1 3.32 5.732 14.883 
91 1 1.036 5.037 11.84 
102 1 3.031 4.094 13.035 
105 1 1.299 5.827 14.209 
114 1 2.266 4.151 11.84 
150 1 2.552 4.924 18.554 
156 1 3.001 4.231 22.068 
159 1 1.036 5.037 20.924 
5 1 -5.049 10.63 8.653 
9 1 -3.317 8.897 7.479 
19 1 -1.707 7.414 10.572 
21 1 -2.66 8.795 10.993 
23 1 -3.31 7.532 6.805 
25 1 -4.284 10.573 9.849 
32 1 1.503 6.367 0.79 
36 1 -1.869 7.426 9.056 
38 1 -2.209 6.086 8.653 
54 1 0.3 8.576 10.696 
57 1 1.291 8.001 9.824 
60 1 -1.707 7.414 0.042 
65 1 -3.31 7.532 3.808 
78 1 -1.869 7.426 1.558 
80 1 -2.566 8.842 1.961 
84 1 -4.57 9.799 3.135 
99 1 -3.054 9.687 0.765 
100 1 -2.96 6.142 3.135 
107 1 -5.049 10.63 1.961 
110 1 -3.317 8.897 3.135 
111 1 0.642 5.929 10.696 
113 1 1.503 6.367 9.824 
119 1 -4.284 10.573 0.765 
127 1 -2.209 6.086 1.961 
131 1 -2.318 6.148 10.993 
138 1 1.291 8.001 0.79 
142 1 -2.566 8.842 8.653 
145 1 -4.57 9.799 7.479 
151 1 -5.019 10.493 10.993 
154 1 -3.054 9.687 9.849 
155 1 -2.96 6.142 7.479 
162 2 -5.338 10.492 5.455 
163 3 -6.008 10.651 4.779 
12 1 2.53 7.1 17.202 
17 1 0.468 9.427 20.924 
24 1 -3.52 8.357 11.865 
27 1 -0.31 7.31 21.647 
29 1 0.642 5.929 22.068 
31 1 1.292 7.192 17.88 
44 1 -0.148 7.298 20.131 
46 1 0.191 8.638 19.728 
51 1 -0.31 7.31 11.117 
53 1 2.53 7.1 15.561 
56 1 1.292 7.192 14.883 
63 1 -2.318 6.148 21.771 
66 1 -3.309 6.723 20.899 
70 1 -0.148 7.298 12.633 
72 1 0.548 5.882 13.035 
92 1 0.942 8.582 14.209 
95 1 -5.019 10.493 21.771 
98 1 -4.751 9.243 20.899 
104 1 0.468 9.427 11.84 
116 1 -2.66 8.795 21.771 
118 1 -3.52 8.357 20.899 
122 1 0.191 8.638 13.035 
133 1 -3.309 6.723 11.865 
136 1 0.3 8.576 22.068 
147 1 0.548 5.882 19.728 
153 1 -4.751 9.243 11.865 
160 1 0.942 8.582 18.554 
1 1 7.976 4.694 10.572 
4 1 9.274 4.77 10.993 
20 1 8.034 4.861 9.056 
42 1 9.55 5.41 7.479 
67 1 10.043 4.578 0.765 
77 1 7.976 4.694 0.042 
94 1 8.035 4.861 1.558 
96 1 9.278 4.635 1.961 
121 1 4.688 5.417 10.696 
130 1 9.55 5.41 3.135 
134 1 10.043 4.578 9.849 
152 1 9.278 4.635 8.653 
45 1 4.688 5.417 22.068 
55 1 4.788 5.329 13.035 
106 1 9.274 4.77 21.771 
137 1 4.788 5.329 19.728 
2 1 7.294 10.585 9.056 
3 1 9.004 7.624 6.127 
6 1 8.556 6.347 6.805 
16 1 2.314 8.72 0.79 
22 1 7.166 6.156 8.653 
26 1 7.226 8.565 7.479 
35 1 7.191 10.764 10.572 
37 1 6.846 9.307 10.993 
39 1 8.214 8.992 6.805 
41 1 6.677 7.002 9.849 
48 1 3.775 6.213 0.79 
61 1 7.294 10.585 1.558 
62 1 9.004 7.624 4.487 
64 1 6.747 9.395 1.961 
68 1 7.437 6.931 3.135 
71 1 4.29 8.493 10.696 
74 1 3.567 7.818 9.824 
81 1 8.556 6.347 3.808 
83 1 6.47 8.606 0.765 
93 1 7.191 10.764 0.042 
97 1 8.214 8.992 3.808 
101 1 2.261 9.954 10.696 
103 1 2.314 8.72 9.824 
117 1 7.166 6.156 1.961 
120 1 7.226 8.565 3.135 
123 1 3.775 6.213 9.824 
129 1 6.677 7.002 0.765 
132 1 6.747 9.395 8.653 
135 1 7.437 6.931 7.479 
141 1 7.244 6.231 10.993 
144 1 6.47 8.606 9.849 
148 1 3.567 7.818 0.79 
161 2 8.214 8.992 5.455 
7 1 9.22 6.004 11.865 
10 1 3.558 10.029 21.647 
13 1 2.261 9.954 22.068 
15 1 2.978 8.376 17.88 
28 1 3.5 9.862 20.131 
30 1 4.369 8.568 19.728 
34 1 4.308 6.159 18.554 
40 1 7.76 8.511 11.865 
49 1 4.857 7.722 20.924 
50 1 1.984 9.314 18.554 
58 1 1.491 10.146 11.84 
59 1 4.097 7.793 14.209 
69 1 3.558 10.029 11.117 
73 1 2.978 8.376 14.883 
75 1 5.064 6.118 11.84 
79 1 7.244 6.231 21.771 
82 1 7.967 6.906 20.899 
86 1 3.5 9.862 12.633 
88 1 2.256 10.089 13.035 
108 1 9.22 6.004 20.899 
112 1 4.369 8.568 13.035 
115 1 4.308 6.159 14.209 
124 1 4.857 7.722 11.84 
125 1 1.984 9.314 14.209 
126 1 6.846 9.307 21.771 
128 1 7.76 8.511 20.899 
139 1 1.491 10.146 20.924 
140 1 4.097 7.793 18.554 
143 1 7.967 6.906 11.865 
146 1 4.29 8.493 22.068 
149 1 5.064 6.118 20.924 
157 1 2.256 10.089 19.728 
ITEM: TIMESTEP
10
ITEM: NUMBER OF ATOMS
163
ITEM: BOX BOUNDS xy xz yz pp pp pp
-6.7755000000000001e+00 1.3552000000000000e+01 -6.7755000000000001e+00
0.0000000000000000e+00 1.1735510246683001e+01 0.0000000000000000e+00
0.0000000000000000e+00 2.2149999999999999e+01 0.0000000000000000e+00
ITEM: ATOMS id type x y z 
8 1 -2.40374 5.35822 9.87066 
87 1 2.97787 4.25286 10.6481 
90 1 2.66115 5.46839 9.79072 
109 1 -2.40819 5.35628 0.757477 
158 1 2.66164 5.46834 0.822933 
11 1 4.29394 4.16906 20.157 
14 1 2.91533 4.12767 19.6884 
18 1 1.32611 5.85869 18.5877 
33 1 2.15456 4.21352 20.9044 
43 1 4.31804 4.12999 21.5952 
47 1 3.267 5.79644 17.8371 
52 1 4.29434 4.16906 12.608 
76 1 2.44129 4.92855 14.1835 
85 1 4.31717 4.13067 11.1677 
89 1 3.26563 5.79681 14.9274 
91 1 1.00373 5.06807 11.8532 
102 1 2.915 4.12778 13.0753 
105 1 1.32571 5.85682 14.1745 
114 1 2.15511 4.21316 11.8596 
150 1 2.44123 4.92816 18.5792 
156 1 2.97779 4.25309 22.1161 
159 1 1.00351 5.06832 20.9105 
5 1 -4.92957 10.607 8.61171 
9 1 -3.39323 8.87565 7.51348 
19 1 -1.75384 7.47048 10.5557 
21 1 -2.61395 8.7646 10.8575 
23 1 -3.30068 7.53841 6.8545 
25 1 -4.17176 10.5168 9.83904 
32 1 1.57692 6.33957 0.770335 
36 1 -1.89874 7.50773 9.06898 
38 1 -2.14488 6.18787 8.63879 
54 1 0.292538 8.53962 10.6701 
57 1 1.35161 7.98655 9.7907 
60 1 -1.75523 7.4875 0.0613611 
65 1 -3.29458 7.56007 3.73835 
78 1 -1.89272 7.50004 1.54691 
80 1 -2.53995 8.79503 1.8619 
84 1 -4.45232 9.77719 3.12151 
99 1 -3.02398 9.66815 0.766497 
100 1 -2.92009 6.25122 3.17899 
107 1 -4.93072 10.5941 1.99192 
110 1 -3.30226 8.863 3.07401 
111 1 0.597268 5.95812 10.8197 
113 1 1.57633 6.33996 9.84341 
119 1 -4.17219 10.5121 0.796275 
127 1 -2.15375 6.19021 1.97189 
131 1 -2.31535 6.19015 11.0147 
138 1 1.35139 7.98628 0.823494 
142 1 -2.53255 8.79088 8.76671 
145 1 -4.40751 9.81907 7.54943 
151 1 -4.99644 10.4748 11.0525 
154 1 -3.02499 9.67653 9.8483 
155 1 -2.91791 6.24088 7.43517 
162 2 -5.3397 10.5606 5.42821 
163 3 -6.02436 10.6702 4.78972 
12 1 2.56724 7.06945 17.1455 
17 1 0.389041 9.36425 20.9231 
24 1 -3.59727 8.38028 11.8454 
27 1 -0.261572 7.24047 21.6275 
29 1 0.596467 5.95965 21.9433 
31 1 1.29967 7.17279 17.923 
44 1 -0.11547 7.21041 20.1389 
46 1 0.143471 8.53182 19.7151 
51 1 -0.262719 7.2392 11.1361 
53 1 2.56819 7.06861 15.6179 
56 1 1.29732 7.17309 14.8404 
63 1 -2.30945 6.18474 21.747 
66 1 -3.36846 6.73443 20.8632 
70 1 -0.115507 7.2097 12.6272 
72 1 0.530784 5.9328 12.9263 
92 1 0.909608 8.46255 14.2521 
95 1 -4.99326 10.4771 21.7183 
98 1 -4.68234 9.25221 20.8619 
104 1 0.390602 9.36547 11.8399 
116 1 -2.61435 8.76374 21.8987 
118 1 -3.58323 8.38851 20.9125 
122 1 0.142973 8.53053 13.05 
133 1 -3.3644 6.74233 11.8947 
136 1 0.291046 8.53701 22.0933 
147 1 0.530583 5.93311 19.8377 
153 1 -4.67484 9.24042 11.902 
160 1 0.912461 8.46382 18.5108 
1 1 7.87949 4.91078 10.5407 
4 1 9.18521 4.77742 11.0473 
20 1 7.88883 4.94515 9.06107 
42 1 9.48258 5.41213 7.43439 
67 1 9.99706 4.53659 0.765533 
77 1 7.88017 4.91065 0.0774003 
94 1 7.89293 4.94239 1.54715 
96 1 9.2077 4.63883 2.00729 
121 1 4.69217 5.41949 10.7285 
130 1 9.47538 5.42462 3.17833 
134 1 9.99363 4.53163 9.84997 
152 1 9.20743 4.63587 8.60931 
45 1 4.69217 5.41917 22.0354 
55 1 4.81221 5.48467 13.0609 
106 1 9.18648 4.77626 21.7186 
137 1 4.81261 5.48256 19.7001 
2 1 7.24251 10.5525 9.08769 
3 1 9.01233 7.56255 6.07695 
6 1 8.5382 6.37533 6.83554 
16 1 2.34259 8.68643 0.839625 
22 1 7.16736 6.18972 8.73421 
26 1 7.13238 8.39126 7.60394 
35 1 7.21275 10.5969 10.5057 
37 1 6.83912 9.30681 10.9599 
39 1 8.24701 8.9892 6.66197 
41 1 6.73993 7.01655 9.82908 
48 1 3.7351 6.35705 0.828561 
61 1 7.24877 10.5426 1.53195 
62 1 8.97374 7.6363 4.50882 
64 1 6.71026 9.25313 1.96369 
68 1 7.39508 6.93148 3.04344 
71 1 4.28318 8.53319 10.7874 
74 1 3.62513 7.78698 9.85197 
81 1 8.52506 6.37119 3.76377 
83 1 6.53936 8.46154 0.797407 
93 1 7.21552 10.5917 0.100478 
97 1 8.2453 8.90665 3.7662 
101 1 2.34667 9.94722 10.6456 
103 1 2.34216 8.68736 9.77504 
117 1 7.16446 6.19303 1.88156 
120 1 7.171 8.44186 3.08078 
123 1 3.73655 6.35676 9.78557 
129 1 6.74427 7.0205 0.783495 
132 1 6.71213 9.23186 8.62917 
135 1 7.38949 6.98985 7.57458 
141 1 7.25211 6.18357 10.9046 
144 1 6.53579 8.45816 9.83072 
148 1 3.62441 7.78763 0.762421 
161 2 8.13747 9.10622 5.58294 
7 1 9.19654 6.03809 11.9145 
10 1 3.65506 9.81256 21.6119 
13 1 2.34748 9.94862 22.1196 
15 1 3.00766 8.3393 17.9053 
28 1 3.64052 9.77886 20.1391 
30 1 4.36696 8.52802 19.8024 
34 1 4.35115 6.29575 18.6316 
40 1 7.80325 8.36651 11.9066 
49 1 4.78986 7.70726 20.9015 
50 1 2.06307 9.29122 18.512 
58 1 1.54126 10.1852 11.8434 
59 1 4.12706 7.75584 14.1249 
69 1 3.65437 9.81387 11.1517 
73 1 3.00875 8.3422 14.8577 
75 1 4.99531 6.26971 11.8666 
79 1 7.25007 6.1896 21.8628 
82 1 7.90954 6.93543 20.9275 
86 1 3.64036 9.77871 12.6239 
88 1 2.32714 10.0788 13.0848 
108 1 9.18996 6.03784 20.8485 
112 1 4.3679 8.52669 12.9606 
115 1 4.35258 6.2956 14.1313 
124 1 4.78838 7.70691 11.8618 
125 1 2.06515 9.29266 14.2504 
126 1 6.83367 9.30625 21.8038 
128 1 7.79115 8.36392 20.8574 
139 1 1.54084 10.1867 20.9189 
140 1 4.1267 7.7559 18.6372 
143 1 7.908 6.93652 11.8414 
146 1 4.28347 8.53494 21.9784 
149 1 4.99527 6.26882 20.898 
157 1 2.32565 10.0785 19.6797 
ITEM: TIMESTEP
20
ITEM: NUMBER OF ATOMS
163
ITEM: BOX BOUNDS xy xz yz pp pp pp
-6.7755000000000001e+00 1.3552000000000000e+01 -6.7755000000000001e+00
0.0000000000000000e+00 1.1735510246683001e+01 0.0000000000000000e+00
0.0000000000000000e+00 2.2149999999999999e+01 0.0000000000000000e+00
ITEM: ATOMS id type x y z 
8 1 -2.42217 5.3836 9.84136 
87 1 2.96689 4.26664 10.6413 
90 1 2.64881 5.44736 9.78768 
109 1 -2.42514 5.38005 0.76076 
158 1 2.64841 5.44796 0.82593 
11 1 4.28268 4.21243 20.1144 
14 1 2.90876 4.14436 19.6912 
18 1 1.31091 5.85726 18.5995 
33 1 2.12296 4.2166 20.908 
43 1 4.30316 4.18542 21.575 
47 1 3.25503 5.80391 17.8237 
52 1 4.28283 4.21255 12.6493 
76 1 2.43706 4.94312 14.1745 
85 1 4.30319 4.18543 11.189 
89 1 3.25459 5.80371 14.9396 
91 1 0.984252 5.05209 11.8492 
102 1 2.90851 4.14398 13.0725 
105 1 1.31055 5.8572 14.1643 
114 1 2.1228 4.21665 11.8555 
150 1 2.4366 4.94319 18.589 
156 1 2.96735 4.26668 22.1225 
159 1 0.984424 5.05127 20.9144 
5 1 -4.91979 10.6097 8.63293 
9 1 -3.40365 8.86236 7.54117 
19 1 -1.75133 7.48718 10.5506 
21 1 -2.62619 8.75102 10.8753 
23 1 -3.28349 7.53168 6.85005 
25 1 -4.1283 10.5066 9.85615 
32 1 1.61771 6.38005 0.745886 
36 1 -1.87305 7.53279 9.0708 
38 1 -2.15115 6.21052 8.64593 
54 1 0.315088 8.51516 10.6636 
57 1 1.36896 7.96372 9.80711 
60 1 -1.7444 7.48735 0.0666918 
65 1 -3.29369 7.56802 3.71512 
78 1 -1.85182 7.51321 1.52503 
80 1 -2.51443 8.80456 1.83426 
84 1 -4.4308 9.75345 3.11099 
99 1 -3.00557 9.685 0.756318 
100 1 -2.92441 6.26936 3.17292 
107 1 -4.92264 10.5694 1.99476 
110 1 -3.28332 8.8504 3.05867 
111 1 0.612037 5.97067 10.8127 
113 1 1.61822 6.37954 9.86815 
119 1 -4.14201 10.5082 0.782038 
127 1 -2.14135 6.20167 1.97385 
131 1 -2.33096 6.21642 11.0278 
138 1 1.3681 7.96349 0.806342 
142 1 -2.55678 8.79557 8.77967 
145 1 -4.40905 9.83759 7.55589 
151 1 -4.98384 10.457 11.054 
154 1 -2.99838 9.66785 9.83151 
155 1 -2.91677 6.25602 7.45361 
162 2 -5.33153 10.6012 5.42015 
163 3 -6.04118 10.6793 4.78654 
12 1 2.5646 7.08051 17.1518 
17 1 0.406753 9.33641 20.9161 
24 1 -3.63149 8.33885 11.8198 
27 1 -0.265765 7.23437 21.6256 
29 1 0.612386 5.96888 21.9509 
31 1 1.28338 7.16306 17.9166 
44 1 -0.152764 7.19748 20.1461 
46 1 0.142229 8.51061 19.7111 
51 1 -0.268987 7.23463 11.1369 
53 1 2.56431 7.08156 15.6112 
56 1 1.28327 7.16268 14.8468 
63 1 -2.33475 6.20581 21.7319 
66 1 -3.38762 6.76078 20.88 
70 1 -0.152617 7.19633 12.615 
72 1 0.525172 5.93166 12.905 
92 1 0.924011 8.4425 14.2488 
95 1 -4.98475 10.4592 21.7123 
98 1 -4.6673 9.27151 20.8591 
104 1 0.406581 9.33617 11.8498 
116 1 -2.63706 8.76431 21.8907 
118 1 -3.63609 8.34843 20.9415 
122 1 0.142078 8.51087 13.0517 
133 1 -3.38636 6.7634 11.883 
136 1 0.316802 8.51613 22.1005 
147 1 0.52535 5.93234 19.8585 
153 1 -4.66886 9.27198 11.9026 
160 1 0.923527 8.4419 18.5151 
1 1 7.84026 4.90725 10.5294 
4 1 9.16369 4.80812 11.0147 
20 1 7.84801 4.94239 9.06774 
42 1 9.47377 5.4273 7.44693 
67 1 9.97478 4.56077 0.762966 
77 1 7.84358 4.90641 0.0849075 
94 1 7.85437 4.93048 1.54225 
96 1 9.18644 4.66332 1.99155 
121 1 4.65832 5.49086 10.6931 
130 1 9.47064 5.43381 3.17338 
134 1 9.97478 4.56136 9.84895 
152 1 9.1873 4.6638 8.62048 
45 1 4.6583 5.49113 22.0704 
55 1 4.81288 5.49888 13.0645 
106 1 9.16234 4.80808 21.7518 
137 1 4.81288 5.4993 19.6996 
2 1 7.24806 10.5016 9.04096 
3 1 9.02664 7.52644 6.08992 
6 1 8.51784 6.36337 6.82614 
16 1 2.35384 8.68405 0.849028 
22 1 7.13435 6.18636 8.72653 
26 1 7.17856 8.39618 7.57491 
35 1 7.23013 10.5396 10.4915 
37 1 6.87248 9.23521 10.9993 
39 1 8.28725 8.9718 6.70188 
41 1 6.71708 6.99604 9.84089 
48 1 3.68892 6.34775 0.813722 
61 1 7.25898 10.5161 1.58045 
62 1 8.95969 7.65343 4.53836 
64 1 6.70782 9.23964 1.97766 
68 1 7.37625 6.92686 3.05031 
71 1 4.30474 8.52294 10.7669 
74 1 3.58721 7.7937 9.81808 
81 1 8.52436 6.38124 3.75043 
83 1 6.53127 8.43856 0.77937 
93 1 7.23528 10.5376 0.109625 
97 1 8.2628 8.87474 3.75762 
101 1 2.373 9.91216 10.6789 
103 1 2.35502 8.68703 9.76686 
117 1 7.12946 6.18335 1.89082 
120 1 7.16416 8.41824 3.07597 
123 1 3.68782 6.34747 9.79972 
129 1 6.71951 7.00344 0.773599 
132 1 6.71155 9.21548 8.62498 
135 1 7.37473 6.98114 7.5791 
141 1 7.22926 6.19619 10.9258 
144 1 6.53159 8.43187 9.84572 
148 1 3.58759 7.79382 0.795833 
161 2 8.1001 9.16351 5.61181 
7 1 9.17986 6.04002 11.9248 
10 1 3.69424 9.81746 21.6049 
13 1 2.37114 9.91593 22.0873 
15 1 3.021 8.33061 17.8855 
28 1 3.67912 9.78386 20.1438 
30 1 4.40164 8.53511 19.7915 
34 1 4.33172 6.30386 18.6196 
40 1 7.84805 8.37319 11.8899 
49 1 4.81117 7.72312 20.9153 
50 1 2.07783 9.27049 18.5129 
58 1 1.56332 10.1599 11.8444 
59 1 4.14349 7.76082 14.1331 
69 1 3.69105 9.8182 11.1569 
73 1 3.02102 8.3305 14.8782 
75 1 4.99611 6.29075 11.8587 
79 1 7.22726 6.20137 21.845 
82 1 7.94562 6.93232 20.8923 
86 1 3.6798 9.78451 12.6192 
88 1 2.35082 10.0493 13.0739 
108 1 9.18044 6.04016 20.8386 
112 1 4.40261 8.53558 12.9715 
115 1 4.33187 6.30345 14.1445 
124 1 4.81137 7.7231 11.8483 
125 1 2.0761 9.27011 14.2509 
126 1 6.87478 9.23859 21.7635 
128 1 7.84736 8.37262 20.8716 
139 1 1.56059 10.1599 20.9176 
140 1 4.14331 7.76047 18.631 
143 1 7.94715 6.93054 11.8768 
146 1 4.30676 8.52179 21.9969 
149 1 4.9953 6.2908 20.9034 
157 1 2.35069 10.0484 19.6891 
ITEM: TIMESTEP
30
ITEM: NUMBER OF ATOMS
163
ITEM: BOX BOUNDS xy xz yz pp pp pp
-6.7755000000000001e+00 1.3552000000000000e+01 -6.7755000000000001e+00
0.0000000000000000e+00 1.1735510246683001e+01 0.0000000000000000e+00
0.0000000000000000e+00 2.2149999999999999e+01 0.0000000000000000e+00
ITEM: ATOMS id type x y z 
8 1 -2.42994 5.39933 9.85444 
87 1 2.96534 4.2746 10.6408 
90 1 2.63283 5.45285 9.78346 
109 1 -2.4313 5.39713 0.761095 
158 1 2.63296 5.45297 0.830236 
11 1 4.27952 4.23007 20.1209 
14 1 2.89283 4.15002 19.6994 
18 1 1.30572 5.86134 18.6022 
33 1 2.1138 4.21209 20.9043 
43 1 4.29093 4.21986 21.5596 
47 1 3.24378 5.80261 17.8236 
52 1 4.27944 4.23006 12.643 
76 1 2.42532 4.94141 14.1772 
85 1 4.2907 4.21995 11.2038 
89 1 3.24387 5.80285 14.9397 
91 1 0.966188 5.04702 11.8435 
102 1 2.89286 4.14988 13.0642 
105 1 1.3057 5.86119 14.1613 
114 1 2.11379 4.21198 11.8592 
150 1 2.4257 4.94117 18.5863 
156 1 2.96495 4.27438 22.1231 
159 1 0.966205 5.04692 20.9199 
5 1 -4.90106 10.6024 8.63406 
9 1 -3.39058 8.85773 7.55844 
19 1 -1.74119 7.49565 10.5485 
21 1 -2.61965 8.76738 10.869 
23 1 -3.29548 7.53263 6.86295 
25 1 -4.12465 10.5199 9.85423 
32 1 1.60427 6.38831 0.750862 
36 1 -1.85171 7.53935 9.0659 
38 1 -2.13123 6.22329 8.64728 
54 1 0.320195 8.51018 10.667 
57 1 1.37611 7.95314 9.80606 
60 1 -1.74287 7.4934 0.0559832 
65 1 -3.29301 7.5631 3.71276 
78 1 -1.83039 7.51874 1.53391 
80 1 -2.48646 8.81115 1.82978 
84 1 -4.42444 9.7453 3.10206 
99 1 -2.98595 9.68897 0.751329 
100 1 -2.92084 6.27563 3.16331 
107 1 -4.9011 10.5542 1.99136 
110 1 -3.26375 8.85228 3.04534 
111 1 0.603381 5.95705 10.8117 
113 1 1.6043 6.38848 9.86283 
119 1 -4.13171 10.5117 0.786929 
127 1 -2.13278 6.21831 1.96923 
131 1 -2.33819 6.21189 11.026 
138 1 1.37496 7.95374 0.807175 
142 1 -2.54867 8.79131 8.77406 
145 1 -4.38999 9.83041 7.56308 
151 1 -4.98543 10.4502 11.056 
154 1 -2.98127 9.68491 9.85036 
155 1 -2.91296 6.24927 7.45307 
162 2 -5.32961 10.6244 5.41598 
163 3 -6.0486 10.6846 4.78823 
12 1 2.56778 7.06856 17.1494 
17 1 0.416796 9.31997 20.9179 
24 1 -3.6203 8.33266 11.8245 
27 1 -0.269283 7.22934 21.6263 
29 1 0.603174 5.95715 21.9519 
31 1 1.28416 7.16801 17.9156 
44 1 -0.171556 7.1868 20.1407 
46 1 0.132968 8.49562 19.7125 
51 1 -0.270427 7.22755 11.1368 
53 1 2.5679 7.06854 15.6141 
56 1 1.28422 7.16801 14.8476 
63 1 -2.33693 6.21317 21.7367 
66 1 -3.39498 6.77174 20.878 
70 1 -0.171563 7.18637 12.623 
72 1 0.513306 5.92902 12.9081 
92 1 0.91902 8.43917 14.2447 
95 1 -4.98277 10.4525 21.7101 
98 1 -4.65408 9.27208 20.8561 
104 1 0.416567 9.32151 11.847 
116 1 -2.62609 8.77249 21.8847 
118 1 -3.62108 8.33675 20.9366 
122 1 0.132344 8.49419 13.0523 
133 1 -3.39463 6.77406 11.8853 
136 1 0.321119 8.5086 22.0945 
147 1 0.513639 5.92898 19.8553 
153 1 -4.64974 9.26488 11.9082 
160 1 0.919696 8.43933 18.5188 
1 1 7.81218 4.90598 10.5359 
4 1 9.13767 4.82654 11.0091 
20 1 7.82593 4.9445 9.06308 
42 1 9.47055 5.42519 7.45183 
67 1 9.96328 4.57569 0.766359 
77 1 7.81312 4.90634 0.0773505 
94 1 7.83047 4.93287 1.54922 
96 1 9.16029 4.67506 1.99063 
121 1 4.64922 5.50694 10.6865 
130 1 9.46281 5.441 3.16674 
134 1 9.96414 4.57589 9.84953 
152 1 9.15762 4.67129 8.62518 
45 1 4.64974 5.50714 22.0771 
55 1 4.81688 5.5302 13.0652 
106 1 9.13733 4.82673 21.7547 
137 1 4.81688 5.52953 19.6981 
2 1 7.2568 10.4864 9.05261 
3 1 9.0191 7.54038 6.0881 
6 1 8.52083 6.36082 6.8368 
16 1 2.36094 8.69312 0.852951 
22 1 7.1072 6.17879 8.72016 
26 1 7.18022 8.38243 7.57704 
35 1 7.24464 10.5009 10.4762 
37 1 6.88059 9.21873 11.0076 
39 1 8.28234 8.98451 6.68432 
41 1 6.69848 6.98618 9.84598 
48 1 3.69689 6.34874 0.827956 
61 1 7.26391 10.4985 1.56994 
62 1 8.96254 7.65874 4.52635 
64 1 6.69639 9.21 1.97385 
68 1 7.36225 6.91327 3.05018 
71 1 4.31305 8.51497 10.7476 
74 1 3.59815 7.80293 9.80692 
81 1 8.52014 6.3862 3.74348 
83 1 6.53082 8.41958 0.78946 
93 1 7.25075 10.5026 0.128539 
97 1 8.26061 8.87058 3.75705 
101 1 2.39326 9.89557 10.6861 
103 1 2.36117 8.6925 9.76056 
117 1 7.10282 6.16958 1.89316 
120 1 7.15892 8.40695 3.0772 
123 1 3.69722 6.34857 9.78578 
129 1 6.70303 6.99202 0.772807 
132 1 6.70786 9.18603 8.62408 
135 1 7.37477 6.9715 7.57279 
141 1 7.22285 6.20028 10.9453 
144 1 6.5293 8.40992 9.83521 
148 1 3.59819 7.80324 0.80703 
161 2 8.07683 9.1991 5.63409 
7 1 9.17207 6.03195 11.9301 
10 1 3.72589 9.82681 21.612 
13 1 2.39292 9.8946 22.0775 
15 1 3.02287 8.32891 17.8861 
28 1 3.70159 9.77645 20.1376 
30 1 4.42818 8.54465 19.782 
34 1 4.33298 6.31415 18.6122 
40 1 7.83862 8.37231 11.9046 
49 1 4.82678 7.73411 20.9136 
50 1 2.08718 9.26426 18.5147 
58 1 1.57397 10.1421 11.8481 
59 1 4.14924 7.76632 14.1388 
69 1 3.72569 9.82585 11.1521 
73 1 3.02249 8.32922 14.8768 
75 1 4.99612 6.312 11.8697 
79 1 7.22142 6.20779 21.8278 
82 1 7.93523 6.91949 20.8827 
86 1 3.70252 9.77702 12.6261 
88 1 2.37889 10.0354 13.0745 
108 1 9.17159 6.03209 20.834 
112 1 4.42854 8.54455 12.9816 
115 1 4.333 6.31444 14.1513 
124 1 4.82659 7.73408 11.8497 
125 1 2.08748 9.26473 14.2484 
126 1 6.88392 9.22089 21.7546 
128 1 7.83646 8.37437 20.8598 
139 1 1.57354 10.1416 20.916 
140 1 4.14915 7.76617 18.6244 
143 1 7.93584 6.9181 11.8863 
146 1 4.31474 8.51458 22.0169 
149 1 4.99608 6.31225 20.8938 
157 1 2.37831 10.0355 19.6896 
ITEM: TIMESTEP
40
ITEM: NUMBER OF ATOMS
163
ITEM: BOX BOUNDS xy xz yz pp pp pp
-6.7755000000000001e+00 1.3552000000000000e+01 -6.7755000000000001e+00
0.0000000000000000e+00 1.1735510246683001e+01 0.0000000000000000e+00
0.0000000000000000e+00 2.2149999999999999e+01 0.0000000000000000e+00
ITEM: ATOMS id type x y z 
8 1 -2.43714 5.40861 9.85081 
87 1 2.95986 4.28281 10.6405 
90 1 2.62848 5.45368 9.77818 
109 1 -2.43761 5.40672 0.763691 
158 1 2.62845 5.45379 0.835348 
11 1 4.27536 4.24622 20.1093 
14 1 2.88807 4.15574 19.7014 
18 1 1.30066 5.86307 18.6036 
33 1 2.10546 4.21352 20.9081 
43 1 4.28472 4.23721 21.5543 
47 1 3.24107 5.80083 17.8249 
52 1 4.27532 4.2464 12.6545 
76 1 2.41866 4.94205 14.1763 
85 1 4.28479 4.23705 11.2095 
89 1 3.24084 5.80102 14.9385 
91 1 0.957739 5.04115 11.843 
102 1 2.8879 4.15569 13.0622 
105 1 1.3005 5.86304 14.1597 
114 1 2.10517 4.21366 11.8557 
150 1 2.41875 4.942 18.5871 
156 1 2.96003 4.28305 22.1232 
159 1 0.957717 5.04075 20.9207 
5 1 -4.89598 10.6006 8.6408 
9 1 -3.391 8.85325 7.56083 
19 1 -1.74189 7.5018 10.5466 
21 1 -2.61177 8.76805 10.8764 
23 1 -3.29343 7.52758 6.86504 
25 1 -4.11382 10.5195 9.859 
32 1 1.59801 6.39085 0.751692 
36 1 -1.84119 7.548 9.0678 
38 1 -2.12712 6.22632 8.64834 
54 1 0.325429 8.50129 10.6667 
57 1 1.38012 7.95249 9.8063 
60 1 -1.74215 7.49974 0.0564331 
65 1 -3.29428 7.56473 3.70536 
78 1 -1.81492 7.5257 1.53092 
80 1 -2.46857 8.81725 1.82592 
84 1 -4.41868 9.73405 3.09842 
99 1 -2.97373 9.6931 0.748698 
100 1 -2.91983 6.27696 3.15803 
107 1 -4.89719 10.5454 1.98829 
110 1 -3.25293 8.85007 3.04029 
111 1 0.59621 5.9563 10.81 
113 1 1.59805 6.39075 9.86196 
119 1 -4.1219 10.51 0.782696 
127 1 -2.12801 6.22431 1.9676 
131 1 -2.34167 6.22338 11.0278 
138 1 1.38017 7.95232 0.807619 
142 1 -2.53821 8.79606 8.7783 
145 1 -4.38678 9.83255 7.56257 
151 1 -4.98054 10.441 11.0581 
154 1 -2.97269 9.68812 9.85029 
155 1 -2.9115 6.24881 7.45802 
162 2 -5.32868 10.6412 5.41231 
163 3 -6.05335 10.6899 4.78809 
12 1 2.56738 7.06499 17.1498 
17 1 0.422939 9.3101 20.9135 
24 1 -3.614 8.33074 11.8255 
27 1 -0.270468 7.22128 21.6231 
29 1 0.596659 5.95566 21.9535 
31 1 1.28419 7.16844 17.915 
44 1 -0.183199 7.17939 20.1398 
46 1 0.129117 8.48892 19.7121 
51 1 -0.271721 7.22176 11.1389 
53 1 2.56729 7.06517 15.6134 
56 1 1.28412 7.1684 14.8483 
63 1 -2.34349 6.21932 21.7331 
66 1 -3.3991 6.7726 20.8782 
70 1 -0.183474 7.17909 12.622 
72 1 0.504368 5.92469 12.9071 
92 1 0.919809 8.43886 14.2424 
95 1 -4.97698 10.4437 21.7098 
98 1 -4.64857 9.27169 20.8509 
104 1 0.42287 9.30988 11.8508 
116 1 -2.61814 8.77479 21.8819 
118 1 -3.61689 8.33411 20.9342 
122 1 0.128989 8.48845 13.0514 
133 1 -3.39829 6.77302 11.8854 
136 1 0.32616 8.50159 22.097 
147 1 0.504472 5.92489 19.8564 
153 1 -4.64632 9.26646 11.9147 
160 1 0.920031 8.43888 18.5211 
1 1 7.78949 4.8909 10.5377 
4 1 9.12877 4.8371 11.0025 
20 1 7.81191 4.94832 9.06446 
42 1 9.46802 5.42885 7.45715 
67 1 9.95294 4.5879 0.76521 
77 1 7.79077 4.89129 0.0760927 
94 1 7.81647 4.9332 1.54707 
96 1 9.14515 4.6816 1.98871 
121 1 4.64243 5.52019 10.6848 
130 1 9.45862 5.44739 3.16241 
134 1 9.95468 4.58852 9.85115 
152 1 9.14306 4.67732 8.62707 
45 1 4.64256 5.52041 22.0786 
55 1 4.81577 5.53846 13.0671 
106 1 9.12821 4.83739 21.7616 
137 1 4.81585 5.53834 19.6965 
2 1 7.26327 10.469 9.03988 
3 1 9.01617 7.54132 6.0958 
6 1 8.51738 6.36005 6.83278 
16 1 2.36927 8.69207 0.857108 
22 1 7.08947 6.17 8.71509 
26 1 7.18732 8.37683 7.57147 
35 1 7.24814 10.4852 10.4729 
37 1 6.8883 9.20425 11.0095 
39 1 8.28997 8.98338 6.69213 
41 1 6.68738 6.97577 9.84785 
48 1 3.69067 6.3539 0.838247 
61 1 7.2698 10.4817 1.58312 
62 1 8.96169 7.66388 4.53182 
64 1 6.69393 9.20271 1.97544 
68 1 7.3545 6.90882 3.05355 
71 1 4.32355 8.51422 10.7422 
74 1 3.59964 7.80562 9.79606 
81 1 8.51925 6.39125 3.73841 
83 1 6.5276 8.40987 0.784398 
93 1 7.25694 10.487 0.132291 
97 1 8.25882 8.8704 3.75524 
101 1 2.4091 9.8847 10.6933 
103 1 2.36901 8.69219 9.75685 
117 1 7.08357 6.15899 1.89832 
120 1 7.15543 8.39732 3.0791 
123 1 3.69058 6.35351 9.77528 
129 1 6.69145 6.9825 0.770837 
132 1 6.71055 9.1775 8.62304 
135 1 7.37106 6.96635 7.57049 
141 1 7.20915 6.20479 10.9532 
144 1 6.52678 8.40115 9.83897 
148 1 3.59982 7.80594 0.817334 
161 2 8.06114 9.22204 5.63907 
7 1 9.16514 6.0304 11.9345 
10 1 3.74783 9.83581 21.6133 
13 1 2.40957 9.88458 22.0703 
15 1 3.02654 8.32553 17.8824 
28 1 3.71634 9.77323 20.1439 
30 1 4.44689 8.55019 19.7735 
34 1 4.33198 6.32028 18.6052 
40 1 7.84555 8.36684 11.916 
49 1 4.83534 7.74572 20.9153 
50 1 2.09108 9.2582 18.5176 
58 1 1.58369 10.1298 11.8517 
59 1 4.15379 7.77013 14.1441 
69 1 3.74775 9.83647 11.1505 
73 1 3.02663 8.32565 14.8808 
75 1 4.99772 6.32148 11.8666 
79 1 7.20883 6.2128 21.8206 
82 1 7.93389 6.91795 20.8707 
86 1 3.71662 9.77387 12.6203 
88 1 2.39257 10.0274 13.0751 
108 1 9.16418 6.03161 20.8297 
112 1 4.44755 8.55018 12.9902 
115 1 4.33205 6.32065 14.1582 
124 1 4.8352 7.74551 11.8483 
125 1 2.09075 9.25826 14.2456 
126 1 6.89077 9.20871 21.7524 
128 1 7.8425 8.3694 20.8489 
139 1 1.58357 10.1299 20.9123 
140 1 4.15383 7.77013 18.6194 
143 1 7.93413 6.91529 11.8986 
146 1 4.32459 8.51462 22.0221 
149 1 4.99778 6.32129 20.8969 
157 1 2.39219 10.0274 19.6886 
ITEM: TIMESTEP
50
ITEM: NUMBER OF ATOMS
163
ITEM: BOX BOUNDS xy xz yz pp pp pp
-6.7755000000000001e+00 1.3552000000000000e+01 -6.7755000000000001e+00
0.0000000000000000e+00 1.1735510246683001e+01 0.0000000000000000e+00
0.0000000000000000e+00 2.2149999999999999e+01 0.0000000000000000e+00
ITEM: ATOMS id type x y z 
8 1 -2.47 5.45245 9.85475 
87 1 2.94269 4.32042 10.6403 
90 1 2.60574 5.47373 9.75191 
109 1 -2.47142 5.45215 0.764947 
158 1 2.60611 5.47394 0.86181 
11 1 4.25425 4.30908 20.0912 
14 1 2.85625 4.17619 19.7131 
18 1 1.27962 5.87351 18.6115 
33 1 2.07776 4.21398 20.918 
43 1 4.24888 4.31774 21.5197 
47 1 3.22208 5.79516 17.8336 
52 1 4.25387 4.30879 12.6725 
76 1 2.3828 4.94312 14.1775 
85 1 4.24839 4.31749 11.2438 
89 1 3.22195 5.79509 14.9295 
91 1 0.907059 5.02019 11.8341 
102 1 2.85626 4.17633 13.0505 
105 1 1.27961 5.87399 14.1514 
114 1 2.07732 4.21436 11.8457 
150 1 2.38368 4.94279 18.586 
156 1 2.94295 4.32072 22.1233 
159 1 0.907365 5.0191 20.9293 
5 1 -4.85696 10.5818 8.65371 
9 1 -3.3764 8.83366 7.59056 
19 1 -1.73452 7.52883 10.5404 
21 1 -2.57941 8.79111 10.8819 
23 1 -3.30377 7.5178 6.8851 
25 1 -4.08274 10.5273 9.87669 
32 1 1.57154 6.39944 0.760335 
36 1 -1.79191 7.56785 9.0629 
38 1 -2.09949 6.25457 8.65478 
54 1 0.353525 8.47154 10.6697 
57 1 1.40215 7.94429 9.80194 
60 1 -1.73631 7.52087 0.0525879 
65 1 -3.30689 7.57078 3.68839 
78 1 -1.74703 7.5525 1.52856 
80 1 -2.3865 8.84614 1.81131 
84 1 -4.38915 9.68746 3.07687 
99 1 -2.91184 9.71145 0.734989 
100 1 -2.91444 6.28262 3.13562 
107 1 -4.8597 10.5012 1.97681 
110 1 -3.20623 8.84553 3.01006 
111 1 0.565819 5.93456 10.8098 
113 1 1.57173 6.39969 9.85297 
119 1 -4.08316 10.502 0.772368 
127 1 -2.10173 6.26079 1.9542 
131 1 -2.36633 6.2542 11.0298 
138 1 1.40252 7.94473 0.811418 
142 1 -2.50018 8.81618 8.78749 
145 1 -4.34804 9.82958 7.57623 
151 1 -4.96557 10.4046 11.0623 
154 1 -2.9243 9.71232 9.86966 
155 1 -2.90652 6.24143 7.47617 
162 2 -5.32661 10.7193 5.39469 
163 3 -6.07832 10.7265 4.78564 
12 1 2.57087 7.04518 17.1504 
17 1 0.458407 9.26062 20.9068 
24 1 -3.59014 8.32183 11.8376 
27 1 -0.27577 7.19694 21.6114 
29 1 0.567015 5.93422 21.9533 
31 1 1.28222 7.17507 17.917 
44 1 -0.233398 7.15056 20.1289 
46 1 0.108926 8.45554 19.7119 
51 1 -0.279001 7.19661 11.148 
53 1 2.57089 7.04479 15.6137 
56 1 1.28239 7.17502 14.8459 
63 1 -2.36838 6.24713 21.7299 
66 1 -3.42227 6.78066 20.8717 
70 1 -0.233859 7.1509 12.6325 
72 1 0.46152 5.90446 12.9056 
92 1 0.917223 8.4366 14.2327 
95 1 -4.95487 10.4064 21.7132 
98 1 -4.62745 9.25274 20.8243 
104 1 0.458509 9.26119 11.8564 
116 1 -2.58101 8.79334 21.8708 
118 1 -3.59129 8.32573 20.9218 
122 1 0.108683 8.45382 13.0513 
133 1 -3.41914 6.78244 11.8916 
136 1 0.353241 8.47049 22.0938 
147 1 0.46208 5.90313 19.8572 
153 1 -4.62358 9.246 11.9454 
160 1 0.918131 8.43677 18.5301 
1 1 7.68911 4.86335 10.5539 
4 1 9.04498 4.87488 10.9825 
20 1 7.74553 4.95588 9.10147 
42 1 9.4499 5.44773 7.4753 
67 1 9.91169 4.64784 0.783967 
77 1 7.69338 4.86535 0.0563812 
94 1 7.74223 4.9317 1.51568 
96 1 9.08572 4.71115 1.97999 
121 1 4.61207 5.58052 10.6789 
130 1 9.43442 5.47402 3.13976 
134 1 9.91361 4.6473 9.83737 
152 1 9.08309 4.70108 8.63828 
45 1 4.61225 5.58086 22.0852 
55 1 4.8181 5.6016 13.0732 
106 1 9.04297 4.87719 21.7807 
137 1 4.81807 5.60166 19.69 
2 1 7.29415 10.4073 9.02968 
3 1 9.00495 7.56336 6.09859 
6 1 8.5103 6.35653 6.82809 
16 1 2.40395 8.68895 0.866633 
22 1 7.00198 6.14176 8.68994 
26 1 7.20274 8.34237 7.56103 
35 1 7.28426 10.4031 10.4458 
37 1 6.91789 9.14138 11.018 
39 1 8.30972 8.99093 6.68591 
41 1 6.64166 6.93024 9.86084 
48 1 3.66593 6.36873 0.881351 
61 1 7.29108 10.4147 1.59582 
62 1 8.95789 7.68779 4.52802 
64 1 6.67711 9.14263 1.97519 
68 1 7.31875 6.88356 3.06144 
71 1 4.35859 8.53092 10.7172 
74 1 3.62523 7.82852 9.75949 
81 1 8.51253 6.42711 3.73346 
83 1 6.51756 8.36469 0.77676 
93 1 7.2957 10.4092 0.166293 
97 1 8.25841 8.84659 3.76416 
101 1 2.48382 9.84978 10.7154 
103 1 2.40378 8.68866 9.74606 
117 1 6.98909 6.12363 1.92159 
120 1 7.13625 8.36069 3.09051 
123 1 3.66559 6.36848 9.73185 
129 1 6.64721 6.93362 0.761386 
132 1 6.71658 9.1148 8.62023 
135 1 7.35672 6.93365 7.55944 
141 1 7.17051 6.19086 10.9823 
144 1 6.52142 8.35348 9.84311 
148 1 3.62548 7.82863 0.854291 
161 2 7.99443 9.31904 5.67559 
7 1 9.13268 6.03461 11.9542 
10 1 3.8425 9.84338 21.6232 
13 1 2.4835 9.84908 22.0502 
15 1 3.03821 8.31537 17.8716 
28 1 3.79676 9.76344 20.1517 
30 1 4.5276 8.57548 19.7437 