ITEM: TIMESTEP
0
ITEM: NUMBER OF ATOMS
98
ITEM: BOX BOUNDS pp pp pp
0.0000000000000000e+00 1.6524999999999999e+01
0.0000000000000000e+00 1.6526000000000000e+01
0.0000000000000000e+00 1.6526000000000000e+01
ITEM: ATOMS id type x y z 
1 1 1.813 1.813 1.813 
10 1 5.821 5.821 5.821 
17 1 3.388 3.388 3.388 
26 1 4.246 4.246 4.246 
33 1 0.284 2 2 
41 1 2 0.284 2 
49 1 2 2 0.283 
58 1 7.351 5.634 5.634 
66 1 5.634 7.351 5.634 
74 1 5.634 5.634 7.351 
81 1 2.689 2.689 2.689 
90 1 4.945 4.945 4.945 
4 1 1.813 1.813 14.084 
11 1 5.821 5.821 10.076 
20 1 3.388 3.388 12.509 
27 1 4.246 4.246 11.651 
36 1 0.284 2 13.897 
46 1 2 0.284 13.897 
56 1 2 2 15.614 
59 1 7.351 5.634 10.263 
69 1 5.634 7.351 10.263 
79 1 5.634 5.634 8.546 
84 1 2.689 2.689 13.208 
91 1 4.945 4.945 10.952 
97 2 2.832 3.021 15.937 
98 3 2.832 3.997 15.937 
6 1 1.813 14.084 1.813 
13 1 5.821 10.076 5.821 
22 1 3.388 12.509 3.388 
29 1 4.246 11.651 4.246 
38 1 0.284 13.897 2 
48 1 2 15.614 2 
52 1 2 13.897 0.283 
61 1 7.351 10.263 5.634 
71 1 5.634 8.546 5.634 
75 1 5.634 10.263 7.351 
86 1 2.689 13.208 2.689 
93 1 4.945 10.952 4.945 
7 1 1.813 14.084 14.084 
16 1 5.821 10.076 10.076 
23 1 3.388 12.509 12.509 
32 1 4.246 11.651 11.651 
39 1 0.284 13.897 13.897 
43 1 2 15.614 13.897 
53 1 2 13.897 15.614 
64 1 7.351 10.263 10.263 
68 1 5.634 8.547 10.263 
78 1 5.634 10.263 8.546 
87 1 2.689 13.208 13.208 
96 1 4.945 10.952 10.952 
8 1 14.084 1.813 1.813 
15 1 10.076 5.821 5.821 
24 1 12.509 3.388 3.388 
31 1 11.651 4.246 4.246 
40 1 15.613 2 2 
44 1 13.897 0.284 2 
54 1 13.897 2 0.283 
63 1 8.547 5.634 5.634 
67 1 10.263 7.351 5.634 
77 1 10.263 5.634 7.351 
88 1 13.208 2.689 2.689 
95 1 10.952 4.945 4.945 
5 1 14.084 1.813 14.084 
14 1 10.076 5.821 10.076 
21 1 12.509 3.388 12.509 
30 1 11.651 4.246 11.651 
37 1 15.613 2 13.897 
47 1 13.897 0.284 13.897 
51 1 13.897 2 15.614 
62 1 8.546 5.634 10.263 
72 1 10.263 7.351 10.263 
76 1 10.263 5.634 8.546 
85 1 13.208 2.689 13.208 
94 1 10.952 4.945 10.952 
3 1 14.084 14.084 1.813 
12 1 10.076 10.076 5.821 
19 1 12.509 12.509 3.388 
28 1 11.651 11.651 4.246 
35 1 15.613 13.897 2 
45 1 13.897 15.614 2 
55 1 13.897 13.897 0.283 
60 1 8.547 10.263 5.634 
70 1 10.263 8.547 5.634 
80 1 10.263 10.263 7.351 
83 1 13.208 13.208 2.689 
92 1 10.952 10.952 4.945 
2 1 14.084 14.084 14.084 
9 1 10.076 10.076 10.076 
18 1 12.509 12.509 12.509 
25 1 11.651 11.651 11.651 
34 1 15.613 13.897 13.897 
42 1 13.897 15.614 13.897 
50 1 13.897 13.897 15.614 
57 1 8.546 10.263 10.263 
65 1 10.263 8.546 10.263 
73 1 10.263 10.263 8.547 
82 1 13.208 13.208 13.208 
89 1 10.952 10.952 10.952 
ITEM: TIMESTEP
10
ITEM: NUMBER OF ATOMS
98
ITEM: BOX BOUNDS pp pp pp
0.0000000000000000e+00 1.6524999999999999e+01
0.0000000000000000e+00 1.6526000000000000e+01
0.0000000000000000e+00 1.6526000000000000e+01
ITEM: ATOMS id type x y z 
1 1 1.79481 1.79495 1.80066 
10 1 5.82634 5.82619 5.8264 
17 1 3.39773 3.39798 3.39947 
26 1 4.25724 4.25717 4.25763 
33 1 0.258053 2.00734 2.00746 
41 1 2.00726 0.257245 2.00808 
49 1 1.93118 1.91157 0.343029 
58 1 7.35471 5.63414 5.63417 
66 1 5.63418 7.35446 5.63417 
74 1 5.63433 5.63427 7.35569 
81 1 2.70385 2.70397 2.69255 
90 1 4.95479 4.95473 4.95551 
4 1 1.78312 1.78133 13.9906 
11 1 5.82014 5.82011 10.0787 
20 1 3.38659 3.38653 12.5171 
27 1 4.24276 4.24288 11.6555 
36 1 0.290545 1.99271 13.8823 
46 1 1.9922 0.289638 13.8821 
56 1 2.15248 2.1327 15.6716 
59 1 7.34985 5.63515 10.262 
69 1 5.6351 7.35017 10.262 
79 1 5.63459 5.63465 8.55083 
84 1 2.67292 2.67209 13.1885 
91 1 4.94153 4.94182 10.9562 
97 2 2.80176 3.03684 15.8571 
98 3 2.86627 4.02797 15.9433 
6 1 1.81126 14.0654 1.81152 
13 1 5.82141 10.0775 5.82141 
22 1 3.39114 12.5071 3.39112 
29 1 4.24681 11.6494 4.24693 
38 1 0.280198 13.8942 2.00007 
48 1 2.00447 15.5905 2.00753 
52 1 2.00009 13.8941 0.280076 
61 1 7.35168 10.2623 5.63478 
71 1 5.63437 8.54934 5.63432 
75 1 5.63486 10.2623 7.35141 
86 1 2.69092 13.2038 2.6909 
93 1 4.94666 10.9509 4.94637 
7 1 1.81396 14.0866 14.082 
16 1 5.82133 10.0757 10.0761 
23 1 3.38881 12.5078 12.508 
32 1 4.24665 11.6504 11.6505 
39 1 0.282637 13.8977 13.8972 
43 1 2.00163 15.6141 13.906 
53 1 2.00041 13.8978 15.6111 
64 1 7.35073 10.262 10.262 
68 1 5.63504 8.54586 10.2619 
78 1 5.6349 10.2621 8.54695 
87 1 2.69051 13.2077 13.2068 
96 1 4.94547 10.9513 10.9514 
8 1 14.0654 1.81098 1.81153 
15 1 10.0779 5.82168 5.82157 
24 1 12.5071 3.39115 3.3911 
31 1 11.6498 4.24713 4.24706 
40 1 15.5902 2.00455 2.00739 
44 1 13.8942 0.279834 2 
54 1 13.894 2.00006 0.279972 
63 1 8.54946 5.6344 5.63436 
67 1 10.2624 7.35187 5.63481 
77 1 10.2624 5.63487 7.35151 
88 1 13.2037 2.69076 2.69089 
95 1 10.9502 4.94611 4.94611 
5 1 14.086 1.8136 14.0822 
14 1 10.0754 5.82097 10.076 
21 1 12.5077 3.38894 12.5083 
30 1 11.6502 4.24639 11.6503 
37 1 15.6143 2.00193 13.906 
47 1 13.8977 0.282416 13.8973 
51 1 13.8977 2.00037 15.6111 
62 1 8.54575 5.63504 10.2619 
72 1 10.262 7.35063 10.262 
76 1 10.262 5.63487 8.54708 
85 1 13.2078 2.69031 13.2063 
94 1 10.9514 4.94603 10.9516 
3 1 14.0815 14.0822 1.81273 
12 1 10.076 10.0761 5.82126 
19 1 12.5083 12.5083 3.38908 
28 1 11.6507 11.6508 4.24623 
35 1 15.6102 13.8976 2.00023 
45 1 13.8975 15.6109 2.00014 
55 1 13.8974 13.8975 0.282319 
60 1 8.54702 10.2621 5.63499 
70 1 10.2621 8.54707 5.63498 
80 1 10.2621 10.2621 7.35115 
83 1 13.2069 13.2071 2.68918 
92 1 10.9519 10.9517 4.9454 
2 1 14.0831 14.0834 14.0839 
9 1 10.0757 10.0759 10.0761 
18 1 12.5089 12.5085 12.5088 
25 1 11.6508 11.6509 11.6509 
34 1 15.6121 13.8975 13.8977 
42 1 13.8975 15.6129 13.8978 
50 1 13.8977 13.8978 15.6129 
57 1 8.54635 10.262 10.2621 
65 1 10.262 8.54637 10.2621 
73 1 10.262 10.262 8.54657 
82 1 13.2073 13.2081 13.2075 
89 1 10.952 10.9518 10.9519 
ITEM: TIMESTEP
20
ITEM: NUMBER OF ATOMS
98
ITEM: BOX BOUNDS pp pp pp
0.0000000000000000e+00 1.6524999999999999e+01
0.0000000000000000e+00 1.6526000000000000e+01
0.0000000000000000e+00 1.6526000000000000e+01
ITEM: ATOMS id type x y z 
1 1 1.78089 1.77491 1.79394 
10 1 5.82729 5.82685 5.83301 
17 1 3.38529 3.38608 3.37196 
26 1 4.24719 4.24724 4.24643 
33 1 0.254047 1.99553 2.02009 
41 1 1.99428 0.252005 2.02515 
49 1 1.98255 1.92228 0.350964 
58 1 7.35196 5.63741 5.63845 
66 1 5.63738 7.35194 5.63836 
74 1 5.63921 5.63918 7.36044 
81 1 2.68285 2.68291 2.68781 
90 1 4.94384 4.94367 4.94621 
4 1 1.79604 1.78986 14.0382 
11 1 5.81431 5.81378 10.0884 
20 1 3.37128 3.37106 12.4998 
27 1 4.23904 4.23873 11.6693 
36 1 0.296272 1.99004 13.8877 
46 1 1.98901 0.29262 13.8853 
56 1 2.20923 2.13411 15.6874 
59 1 7.34538 5.63505 10.2638 
69 1 5.63496 7.34505 10.2637 
79 1 5.63248 5.63253 8.55655 
84 1 2.65533 2.65256 13.1689 
91 1 4.93743 4.93909 10.9702 
97 2 2.75764 3.1329 15.7598 
98 3 2.94787 4.08451 15.9519 
6 1 1.81104 14.0607 1.81003 
13 1 5.82333 10.0787 5.82459 
22 1 3.39159 12.5043 3.39256 
29 1 4.24983 11.6498 4.24988 
38 1 0.27903 13.8862 2.00028 
48 1 2.01019 15.5826 2.01532 
52 1 1.99989 13.886 0.277913 
61 1 7.35269 10.2642 5.63474 
71 1 5.63275 8.54788 5.6324 
75 1 5.63512 10.264 7.35431 
86 1 2.68914 13.1923 2.68613 
93 1 4.94883 10.9517 4.94991 
7 1 1.81506 14.0912 14.0814 
16 1 5.82157 10.0725 10.0784 
23 1 3.38836 12.5093 12.5085 
32 1 4.24679 11.6497 11.6507 
39 1 0.285375 13.9 13.8974 
43 1 1.99218 15.616 13.8966 
53 1 2.00123 13.8965 15.6099 
64 1 7.35134 10.2611 10.2622 
68 1 5.63648 8.54141 10.2609 
78 1 5.63463 10.2617 8.54976 
87 1 2.69097 13.2101 13.2061 
96 1 4.94474 10.9506 10.9517 
8 1 14.0601 1.81048 1.80981 
15 1 10.0786 5.82362 5.82415 
24 1 12.5044 3.3913 3.393 
31 1 11.6497 4.24989 4.24947 
40 1 15.5835 2.01101 2.01341 
44 1 13.8862 0.278541 2.00008 
54 1 13.8857 1.99952 0.277763 
63 1 8.54829 5.63288 5.63262 
67 1 10.2642 7.35272 5.63489 
77 1 10.2641 5.63503 7.35431 
88 1 13.1927 2.68924 2.6861 
95 1 10.9513 4.94885 4.94963 
5 1 14.0923 1.81456 14.081 
14 1 10.0722 5.82161 10.0787 
21 1 12.5097 3.38805 12.5088 
30 1 11.6503 4.24698 11.6508 
37 1 15.6191 1.99359 13.8978 
47 1 13.9007 0.285966 13.8979 
51 1 13.8967 2.00125 15.6094 
62 1 8.54132 5.63656 10.2607 
72 1 10.2609 7.35104 10.262 
76 1 10.2618 5.63453 8.54971 
85 1 13.2097 2.68865 13.2052 
94 1 10.9503 4.94548 10.9533 
3 1 14.0795 14.0804 1.81168 
12 1 10.0781 10.0781 5.82265 
19 1 12.5069 12.507 3.38866 
28 1 11.6506 11.65 4.24608 
35 1 15.6091 13.8936 2.00073 
45 1 13.8936 15.6093 2.00049 
55 1 13.896 13.8962 0.281126 
60 1 8.54823 10.2632 5.63396 
70 1 10.2632 8.54805 5.63402 
80 1 10.2622 10.2622 7.35249 
83 1 13.2051 13.2067 2.68898 
92 1 10.9531 10.9528 4.94902 
2 1 14.0831 14.0846 14.0817 
9 1 10.0764 10.0759 10.0771 
18 1 12.508 12.5087 12.5084 
25 1 11.6511 11.6508 11.6509 
34 1 15.6146 13.8978 13.8973 
42 1 13.8977 15.616 13.8976 
50 1 13.8972 13.8976 15.6114 
57 1 8.54633 10.262 10.2617 
65 1 10.2617 8.54643 10.2616 
73 1 10.2618 10.2619 8.54774 
82 1 13.2071 13.2078 13.2074 
89 1 10.9523 10.9513 10.9522 
ITEM: TIMESTEP
30
ITEM: NUMBER OF ATOMS
98
ITEM: BOX BOUNDS pp pp pp
0.0000000000000000e+00 1.6524999999999999e+01
0.0000000000000000e+00 1.6526000000000000e+01
0.0000000000000000e+00 1.6526000000000000e+01
ITEM: ATOMS id type x y z 
1 1 1.78343 1.77817 1.79083 
10 1 5.82042 5.82036 5.82836 
17 1 3.38456 3.38548 3.3801 
26 1 4.24783 4.2479 4.24456 
33 1 0.252097 1.99585 2.01011 
41 1 1.99635 0.247882 2.01804 
49 1 1.99607 1.93318 0.352788 
58 1 7.34879 5.63728 5.63939 
66 1 5.63734 7.34876 5.6393 
74 1 5.63912 5.63908 7.3594 
81 1 2.68784 2.68733 2.68336 
90 1 4.94411 4.94426 4.94595 
4 1 1.79526 1.7871 14.0333 
11 1 5.81335 5.81337 10.0869 
20 1 3.36607 3.36466 12.4945 
27 1 4.23634 4.23672 11.6681 
36 1 0.298915 1.9872 13.8941 
46 1 1.98647 0.29413 13.8897 
56 1 2.22849 2.14694 15.6914 
59 1 7.3438 5.63435 10.2644 
69 1 5.63449 7.34351 10.2643 
79 1 5.63449 5.63443 8.55528 
84 1 2.65628 2.65271 13.1765 
91 1 4.9345 4.93638 10.9693 
97 2 2.73519 3.15314 15.7581 
98 3 2.97091 4.09388 15.9456 
6 1 1.81057 14.0545 1.80951 
13 1 5.82327 10.0741 5.82445 
22 1 3.39194 12.5002 3.39119 
29 1 4.25103 11.6501 4.25174 
38 1 0.278442 13.8848 1.99952 
48 1 2.00427 15.5775 2.02147 
52 1 2.00005 13.8857 0.277254 
61 1 7.35223 10.2632 5.63538 
71 1 5.63604 8.54421 5.63625 
75 1 5.63568 10.2628 7.35429 
86 1 2.68997 13.1931 2.68901 
93 1 4.94917 10.9492 4.94992 
7 1 1.81491 14.0915 14.0798 
16 1 5.82101 10.0706 10.0784 
23 1 3.39006 12.5097 12.5084 
32 1 4.24655 11.6499 11.6504 
39 1 0.284093 13.9006 13.8973 
43 1 1.99288 15.6174 13.8986 
53 1 2.00102 13.8959 15.6086 
64 1 7.35029 10.2603 10.2622 
68 1 5.63711 8.5401 10.2612 
78 1 5.63504 10.2614 8.54967 
87 1 2.68928 13.2098 13.2038 
96 1 4.94521 10.9492 10.9533 
8 1 14.0568 1.81069 1.80927 
15 1 10.0744 5.82325 5.82465 
24 1 12.5009 3.39139 3.39097 
31 1 11.6502 4.25078 4.25113 
40 1 15.5805 2.00537 2.01686 
44 1 13.8853 0.279226 1.99917 
54 1 13.8859 1.99955 0.276886 
63 1 8.54465 5.63612 5.63632 
67 1 10.2632 7.35226 5.63543 
77 1 10.2628 5.63568 7.35444 
88 1 13.1936 2.68932 2.68851 
95 1 10.9493 4.94891 4.9496 
5 1 14.0943 1.81521 14.0797 
14 1 10.071 5.8207 10.0785 
21 1 12.5097 3.38761 12.5081 
30 1 11.6501 4.24661 11.6516 
37 1 15.6217 1.99433 13.9013 
47 1 13.9017 0.284987 13.8976 
51 1 13.8965 2.00043 15.608 
62 1 8.53997 5.63714 10.2613 
72 1 10.2601 7.34988 10.2622 
76 1 10.2614 5.63505 8.54991 
85 1 13.2118 2.69036 13.205 
94 1 10.95 4.94478 10.9536 
3 1 14.0799 14.0808 1.81094 
12 1 10.0767 10.0768 5.82235 
19 1 12.5068 12.5078 3.388 
28 1 11.6511 11.6511 4.24742 
35 1 15.6084 13.8922 1.99997 
45 1 13.8919 15.61 1.99976 
55 1 13.8961 13.8965 0.280604 
60 1 8.54783 10.2638 5.63474 
70 1 10.2638 8.54774 5.63484 
80 1 10.2624 10.2625 7.35274 
83 1 13.2063 13.2059 2.68816 
92 1 10.9525 10.9518 4.947 
2 1 14.0839 14.0856 14.0823 
9 1 10.0756 10.0756 10.0776 
18 1 12.5082 12.5096 12.5096 
25 1 11.6511 11.6508 11.652 
34 1 15.6134 13.899 13.8976 
42 1 13.8987 15.6151 13.8979 
50 1 13.8973 13.8979 15.6113 
57 1 8.54552 10.2617 10.2621 
65 1 10.2617 8.54543 10.262 
73 1 10.262 10.262 8.54825 
82 1 13.2093 13.2082 13.2066 
89 1 10.9528 10.9526 10.9518 
ITEM: TIMESTEP
40
ITEM: NUMBER OF ATOMS
98
ITEM: BOX BOUNDS pp pp pp
0.0000000000000000e+00 1.6524999999999999e+01
0.0000000000000000e+00 1.6526000000000000e+01
0.0000000000000000e+00 1.6526000000000000e+01
ITEM: ATOMS id type x y z 
1 1 1.78715 1.77591 1.78525 
10 1 5.81792 5.81773 5.8294 
17 1 3.3813 3.38351 3.37645 
26 1 4.24401 4.24584 4.24217 
33 1 0.252633 1.98894 2.00194 
41 1 1.99041 0.245651 2.01358 
49 1 2.01748 1.94842 0.352182 
58 1 7.34527 5.63603 5.64014 
66 1 5.63587 7.34502 5.64012 
74 1 5.63719 5.63709 7.36037 
81 1 2.68597 2.68079 2.68321 
90 1 4.94149 4.94067 4.94349 
4 1 1.80036 1.78855 14.0454 
11 1 5.81144 5.81093 10.0891 
20 1 3.36281 3.3606 12.4922 
27 1 4.2306 4.2311 11.662 
36 1 0.301954 1.98622 13.9032 
46 1 1.98667 0.293845 13.8961 
56 1 2.2464 2.16117 15.6898 
59 1 7.34213 5.63353 10.2656 
69 1 5.63366 7.34169 10.2655 
79 1 5.63522 5.63511 8.55669 
84 1 2.65542 2.6498 13.1766 
91 1 4.93103 4.93336 10.9663 
97 2 2.71138 3.19364 15.7553 
98 3 3.00815 4.11789 15.933 
6 1 1.81017 14.0525 1.80997 
13 1 5.82445 10.0715 5.82576 
22 1 3.39468 12.4987 3.39118 
29 1 4.2533 11.6463 4.25047 
38 1 0.278744 13.8808 1.99833 
48 1 2.00139 15.5771 2.01896 
52 1 1.99967 13.8841 0.277609 
61 1 7.35306 10.2619 5.63621 
71 1 5.6381 8.54086 5.63907 
75 1 5.63675 10.2603 7.35462 
86 1 2.68599 13.1862 2.69026 
93 1 4.94866 10.9499 4.95596 
7 1 1.81512 14.0899 14.0799 
16 1 5.82102 10.0687 10.0788 
23 1 3.38925 12.5093 12.5057 
32 1 4.24716 11.6487 11.6501 
39 1 0.284098 13.9011 13.8961 
43 1 1.99175 15.6177 13.9017 
53 1 2.00058 13.8953 15.6087 
64 1 7.35004 10.2586 10.2624 
68 1 5.63701 8.53813 10.2619 
78 1 5.63542 10.2599 8.55016 
87 1 2.69264 13.2112 13.2041 
96 1 4.94625 10.9474 10.9537 
8 1 14.0561 1.81097 1.80907 
15 1 10.072 5.82319 5.82645 
24 1 12.4998 3.39361 3.39066 
31 1 11.6466 4.24984 4.25235 
40 1 15.5828 2.00254 2.01053 
44 1 13.8825 0.279634 1.9976 
54 1 13.8852 1.99896 0.277155 
63 1 8.5413 5.63778 5.63942 
67 1 10.2615 7.35169 5.63693 
77 1 10.2605 5.63632 7.35564 
88 1 13.1867 2.68409 2.69019 
95 1 10.9516 4.95493 4.94937 
5 1 14.0954 1.81594 14.0798 
14 1 10.0693 5.82069 10.0795 
21 1 12.5104 3.38837 12.5075 
30 1 11.6489 4.24623 11.6518 
37 1 15.6254 1.99374 13.9073 
47 1 13.9034 0.285978 13.8967 
51 1 13.897 2.00003 15.608 
62 1 8.53841 5.63682 10.2621 
72 1 10.2585 7.34955 10.2624 
76 1 10.2598 5.63559 8.55128 
85 1 13.2142 2.69183 13.2039 
94 1 10.9491 4.9445 10.9531 
3 1 14.0796 14.0812 1.81108 
12 1 10.0776 10.0769 5.82306 
19 1 12.508 12.5057 3.38775 
28 1 11.6514 11.6502 4.24737 
35 1 15.6086 13.8902 1.99868 
45 1 13.8905 15.6104 1.99808 
55 1 13.8959 13.8965 0.280568 
60 1 8.54858 10.2635 5.63577 
70 1 10.2635 8.54709 5.63579 
80 1 10.2623 10.2621 7.35293 
83 1 13.2035 13.2096 2.68969 
92 1 10.951 10.9523 4.94649 
2 1 14.0831 14.0858 14.0824 
9 1 10.0753 10.0752 10.0778 
18 1 12.5092 12.5087 12.5083 
25 1 11.6507 11.6515 11.6509 
34 1 15.6133 13.8997 13.8972 
42 1 13.9 15.616 13.8977 
50 1 13.8973 13.8981 15.611 
57 1 8.54558 10.2606 10.2621 
65 1 10.2604 8.54534 10.2619 
73 1 10.2618 10.2618 8.5485 
82 1 13.2069 13.2095 13.2069 
89 1 10.9522 10.9501 10.9536 
ITEM: TIMESTEP
50
ITEM: NUMBER OF ATOMS
98
ITEM: BOX BOUNDS pp pp pp
0.0000000000000000e+00 1.6524999999999999e+01
0.0000000000000000e+00 1.6526000000000000e+01
0.0000000000000000e+00 1.6526000000000000e+01
ITEM: ATOMS id type x y z 
1 1 1.78836 1.77504 1.78119 
10 1 5.81601 5.81551 5.82927 
17 1 3.38086 3.38121 3.37704 
26 1 4.24348 4.24493 4.24129 
33 1 0.252805 1.98686 1.99618 
41 1 1.99009 0.243448 2.00993 
49 1 2.02195 1.95447 0.351907 
58 1 7.34448 5.63549 5.64122 
66 1 5.63574 7.34364 5.64099 
74 1 5.63671 5.63648 7.36042 
81 1 2.68499 2.68122 2.68166 
90 1 4.93897 4.93987 4.94433 
4 1 1.80222 1.78872 14.0499 
11 1 5.81056 5.8101 10.0889 
20 1 3.36056 3.35788 12.4897 
27 1 4.22784 4.22861 11.6595 
36 1 0.30415 1.98566 13.9091 
46 1 1.98687 0.294247 13.9007 
56 1 2.25446 2.17548 15.6899 
59 1 7.34139 5.63269 10.2664 
69 1 5.6329 7.34084 10.2664 
79 1 5.63449 5.63434 8.55654 
84 1 2.65511 2.64797 13.178 
91 1 4.92893 4.93086 10.9646 
97 2 2.70765 3.21138 15.7542 
98 3 3.02288 4.13139 15.925 
6 1 1.80936 14.0499 1.81032 
13 1 5.82446 10.07 5.8265 
22 1 3.39285 12.4956 3.39214 
29 1 4.25248 11.6467 4.25336 
38 1 0.27762 13.8789 1.99803 
48 1 1.99865 15.5745 2.01766 
52 1 1.99917 13.8829 0.277544 
61 1 7.35273 10.2612 5.63705 
71 1 5.63815 8.53952 5.64016 
75 1 5.63686 10.2594 7.35562 
86 1 2.68921 13.1863 2.68863 
93 1 4.95119 10.9465 4.95258 
7 1 1.81427 14.0902 14.0794 
16 1 5.82109 10.068 10.0793 
23 1 3.38993 12.5106 12.5055 
32 1 4.24769 11.65 11.6497 
39 1 0.284133 13.9015 13.8962 
43 1 1.9917 15.6174 13.9041 
53 1 2.00045 13.8948 15.6086 
64 1 7.3503 10.258 10.2627 
68 1 5.63679 8.53696 10.2625 
78 1 5.63561 10.2588 8.5511 
87 1 2.69173 13.2106 13.2043 
96 1 4.9445 10.9444 10.955 
8 1 14.0556 1.81074 1.80926 
15 1 10.0708 5.82391 5.8264 
24 1 12.4964 3.39025 3.39193 
31 1 11.648 4.25311 4.25104 
40 1 15.5825 1.99938 2.00708 
44 1 13.8815 0.280041 1.99712 
54 1 13.8847 1.99855 0.277121 
63 1 8.54069 5.63807 5.6404 
67 1 10.2611 7.35231 5.63754 
77 1 10.2596 5.63672 7.35574 
88 1 13.1893 2.68804 2.68869 
95 1 10.9472 4.95101 4.95088 
5 1 14.0971 1.81632 14.0799 
14 1 10.0681 5.81976 10.0802 
21 1 12.5118 3.38849 12.5075 
30 1 11.6494 4.2451 11.6513 
37 1 15.6269 1.99353 13.9108 
47 1 13.9047 0.28682 13.8967 
51 1 13.8973 1.99994 15.6078 
62 1 8.53733 5.63641 10.2628 
72 1 10.2578 7.34895 10.2627 
76 1 10.2587 5.63538 8.55144 
85 1 13.2147 2.69136 13.2042 
94 1 10.9487 4.94531 10.9553 
3 1 14.0791 14.0814 1.81079 
12 1 10.0779 10.077 5.82341 
19 1 12.5066 12.508 3.38845 
28 1 11.651 11.6506 4.2468 
35 1 15.6072 13.8893 1.99808 
45 1 13.8894 15.6105 1.99752 
55 1 13.8958 13.8969 0.280249 
60 1 8.54826 10.2633 5.63577 
70 1 10.2631 8.54788 5.63626 
80 1 10.2624 10.2623 7.35331 
83 1 13.2056 13.2066 2.6881 
92 1 10.9525 10.9513 4.94678 
2 1 14.0841 14.0866 14.0816 
9 1 10.0755 10.0751 10.0778 
18 1 12.5096 12.5102 12.5076 
25 1 11.6514 11.6508 11.6514 
34 1 15.6133 13.9005 13.897 
42 1 13.9005 15.6169 13.8974 
50 1 13.8973 13.8985 15.6106 
57 1 8.54566 10.26 10.2625 
65 1 10.2601 8.54454 10.2623 
73 1 10.2618 10.2616 8.5488 
82 1 13.2068 13.2081 13.2091 
89 1 10.9517 10.9517 10.9534 
ITEM: TIMESTEP
60
ITEM: NUMBER OF ATOMS
98
ITEM: BOX BOUNDS pp pp pp
0.0000000000000000e+00 1.6524999999999999e+01
0.0000000000000000e+00 1.6526000000000000e+01
0.0000000000000000e+00 1.6526000000000000e+01
ITEM: ATOMS id type x y z 
1 1 1.80143 1.76697 1.74921 
10 1 5.80387 5.80368 5.83081 
17 1 3.36786 3.36807 3.37539 
26 1 4.22975 4.23254 4.23985 
33 1 0.257468 1.96157 1.9497 
41 1 1.97967 0.230534 1.9761 
49 1 2.06046 2.02236 0.334625 
58 1 7.33379 5.63034 5.64802 
66 1 5.6316 7.33081 5.64846 
74 1 5.62835 5.62697 7.36087 
81 1 2.6836 2.66728 2.66789 
90 1 4.92556 4.92811 4.94262 
4 1 1.82389 1.79783 14.102 
11 1 5.80271 5.79726 10.0917 
20 1 3.34303 3.33491 12.4718 
27 1 4.20314 4.20417 11.6338 
36 1 0.321288 1.98265 13.9593 
46 1 1.9926 0.297791 13.9462 
56 1 2.29746 2.29597 15.6958 
59 1 7.33338 5.62543 10.2723 
69 1 5.62631 7.32697 10.2723 
79 1 5.62835 5.62738 8.55955 
84 1 2.65355 2.63271 13.184 
91 1 4.91235 4.912 10.9501 
97 2 2.71009 3.36071 15.7421 
98 3 3.13647 4.25623 15.8505 
6 1 1.80632 14.0325 1.80969 
13 1 5.82775 10.057 5.83261 
22 1 3.3942 12.4859 3.39765 
29 1 4.25554 11.6303 4.2552 
38 1 0.273025 13.8618 1.99645 
48 1 1.98531 15.5616 1.9972 
52 1 1.99553 13.8703 0.276455 
61 1 7.35399 10.2529 5.64221 
71 1 5.63985 8.52749 5.64939 
75 1 5.63955 10.2487 7.36222 
86 1 2.69192 13.1702 2.68953 
93 1 4.95253 10.9319 4.9542 
7 1 1.81421 14.0916 14.0808 
16 1 5.82088 10.0583 10.0846 
23 1 3.39014 12.5099 12.506 
32 1 4.24349 11.6382 11.6548 
39 1 0.283436 13.904 13.8938 
43 1 1.99182 15.6229 13.9302 
53 1 1.99735 13.8874 15.609 
64 1 7.347 10.2479 10.2665 
68 1 5.63206 8.52489 10.2714 
78 1 5.63743 10.246 8.55796 
87 1 2.6944 13.217 13.1999 
96 1 4.95153 10.9599 10.9457 
8 1 14.0541 1.81161 1.80765 
15 1 10.0616 5.82315 5.8333 
24 1 12.4936 3.39521 3.38867 
31 1 11.6317 4.24533 4.25678 
40 1 15.5887 1.98016 1.972 
44 1 13.8722 0.280878 1.99475 
54 1 13.881 1.99703 0.276522 
63 1 8.53007 5.63772 5.64917 
67 1 10.2544 7.35156 5.64241 
77 1 10.2474 5.63873 7.36145 
88 1 13.1827 2.69675 2.6855 
95 1 10.94 4.94875 4.95145 
5 1 14.1103 1.81908 14.0825 
14 1 10.0596 5.81572 10.0854 
21 1 12.5215 3.3911 12.5074 
30 1 11.6523 4.24725 11.655 
37 1 15.6455 1.99222 13.9443 
47 1 13.916 0.292882 13.8958 
51 1 13.898 1.9991 15.6094 
62 1 8.53156 5.63237 10.2696 
72 1 10.2507 7.34491 10.2662 
76 1 10.248 5.63755 8.55712 
85 1 13.2238 2.69129 13.203 
94 1 10.9424 4.93359 10.9546 
3 1 14.0762 14.0832 1.80983 
12 1 10.0799 10.0769 5.82637 
19 1 12.5071 12.5057 3.38604 
28 1 11.6506 11.6508 4.24796 
35 1 15.6044 13.8794 1.99384 
45 1 13.8809 15.6138 1.993 
55 1 13.8936 13.8981 0.278454 
60 1 8.54904 10.2609 5.64013 
70 1 10.2611 8.5459 5.64061 
80 1 10.2633 10.2626 7.35559 
83 1 13.2022 13.2073 2.68696 
92 1 10.9515 10.9536 4.94711 
2 1 14.0848 14.0923 14.0779 
9 1 10.0747 10.0732 10.0802 
18 1 12.5062 12.5068 12.5142 
25 1 11.6511 11.6509 11.653 
34 1 15.6125 13.904 13.8958 
42 1 13.9069 15.6227 13.8964 
50 1 13.8956 13.9008 15.6089 
57 1 8.54434 10.2554 10.2642 
65 1 10.2554 8.54283 10.2643 
73 1 10.2621 10.2601 8.55252 
82 1 13.2119 13.2201 13.1944 
89 1 10.9524 10.9488 10.9545 
ITEM: TIMESTEP
70
ITEM: NUMBER OF ATOMS
98
ITEM: BOX BOUNDS pp pp pp
0.0000000000000000e+00 1.6524999999999999e+01
0.0000000000000000e+00 1.6526000000000000e+01
0.0000000000000000e+00 1.6526000000000000e+01
ITEM: ATOMS id type x y z 
1 1 1.80546 1.76396 1.73443 
10 1 5.7992 5.79617 5.8316 
17 1 3.36397 3.36063 3.37347 
26 1 4.22189 4.22771 4.24082 
33 1 0.261382 1.95239 1.92947 
41 1 1.97845 0.225482 1.95556 
49 1 2.06798 2.05554 0.332961 
58 1 7.32902 5.62676 5.65096 
66 1 5.62872 7.32498 5.65073 
74 1 5.6237 5.62167 7.36314 
81 1 2.68266 2.66043 2.66377 
90 1 4.91962 4.91968 4.94445 
4 1 1.83399 1.80648 14.125 
11 1 5.79787 5.79404 10.0915 
20 1 3.33571 3.32324 12.4632 
27 1 4.19387 4.19214 11.6205 
36 1 0.330231 1.98318 13.9834 
46 1 1.99722 0.303692 13.9731 
56 1 2.31021 2.36077 15.6926 
59 1 7.32959 5.62124 10.2747 
69 1 5.62297 7.32517 10.2754 
79 1 5.62495 5.62242 8.55922 
84 1 2.65399 2.62801 13.1869 
91 1 4.90396 4.90354 10.945 
97 2 2.73679 3.42239 15.7279 
98 3 3.17487 4.31279 15.8125 
6 1 1.80325 14.0252 1.8093 
13 1 5.82756 10.0516 5.83536 
22 1 3.39544 12.4784 3.39551 
29 1 4.25475 11.6251 4.25612 
38 1 0.272076 13.8553 1.99479 
48 1 1.9812 15.5554 1.98355 
52 1 1.99342 13.8619 0.276913 
61 1 7.35397 10.2492 5.64544 
71 1 5.63926 8.52137 5.65326 
75 1 5.64069 10.2409 7.36406 
86 1 2.68794 13.1645 2.69155 
93 1 4.95406 10.9264 4.95601 
7 1 1.81506 14.0946 14.0813 
16 1 5.8199 10.0525 10.0887 
23 1 3.39019 12.5122 12.5054 
32 1 4.24859 11.6499 11.6489 
39 1 0.285559 13.9064 13.8939 
43 1 1.99391 15.6279 13.9479 
53 1 1.99558 13.883 15.6073 
64 1 7.34829 10.2445 10.2676 
68 1 5.63076 8.52102 10.2735 
78 1 5.63867 10.2406 8.55983 
87 1 2.69296 13.215 13.2018 
96 1 4.94345 10.942 10.955 
8 1 14.0538 1.81132 1.80641 
15 1 10.0557 5.82167 5.83426 
24 1 12.4894 3.39623 3.38752 
31 1 11.6304 4.24708 4.25355 
40 1 15.5893 1.97164 1.95659 
44 1 13.8699 0.283607 1.99286 
54 1 13.8784 1.99763 0.277337 
63 1 8.52619 5.63683 5.65276 
67 1 10.2512 7.34942 5.64531 
77 1 10.2418 5.63995 7.36284 
88 1 13.183 2.69309 2.68623 
95 1 10.9326 4.94489 4.95658 
5 1 14.1171 1.82271 14.0838 
14 1 10.0558 5.81464 10.0904 
21 1 12.5252 3.38983 12.5073 
30 1 11.6519 4.24223 11.6535 
37 1 15.6537 1.99154 13.9607 
47 1 13.9214 0.296027 13.8959 
51 1 13.8982 1.99955 15.6076 
62 1 8.52524 5.6288 10.2727 
72 1 10.2466 7.34267 10.2676 
76 1 10.2417 5.63672 8.55942 
85 1 13.2317 2.69671 13.2034 
94 1 10.9445 4.93729 10.9597 
3 1 14.075 14.0841 1.80647 
12 1 10.081 10.0763 5.82796 
19 1 12.506 12.5072 3.38581 
28 1 11.6504 11.6511 4.24611 
35 1 15.6007 13.8763 1.99225 
45 1 13.8789 15.6129 1.99167 
55 1 13.8929 13.9003 0.276043 
60 1 8.55005 10.2581 5.64198 
70 1 10.2592 8.54582 5.64286 
80 1 10.2639 10.2617 7.35732 
83 1 13.2027 13.2072 2.68378 
92 1 10.9531 10.9532 4.94957 
2 1 14.0852 14.0934 14.0774 
9 1 10.0743 10.0699 10.0825 
18 1 12.5101 12.5136 12.5059 
25 1 11.65 11.6491 11.6547 
34 1 15.6143 13.9063 13.8938 
42 1 13.9108 15.6256 13.8946 
50 1 13.8961 13.9037 15.6059 
57 1 8.54392 10.2509 10.2661 
65 1 10.2526 8.5386 10.2654 
73 1 10.2618 10.2597 8.55321 
82 1 13.2066 13.2158 13.203 
89 1 10.9526 10.9478 10.9574 
ITEM: TIMESTEP
80
ITEM: NUMBER OF ATOMS
98
ITEM: BOX BOUNDS pp pp pp
0.0000000000000000e+00 1.6524999999999999e+01
0.0000000000000000e+00 1.6526000000000000e+01
0.0000000000000000e+00 1.6526000000000000e+01
ITEM: ATOMS id type x y z 
1 1 1.80447 1.76516 1.73336 
10 1 5.79862 5.79497 5.83167 
17 1 3.36434 3.35903 3.3741 
26 1 4.2215 4.22563 4.24279 
33 1 0.258968 1.9536 1.92989 
41 1 1.98044 0.224394 1.95032 
49 1 2.06405 2.06127 0.331617 
58 1 7.32946 5.62565 5.65064 
66 1 5.62796 7.32455 5.65064 
74 1 5.62289 5.62004 7.36243 
81 1 2.68281 2.65979 2.66365 
90 1 4.91844 4.9195 4.94504 
4 1 1.83478 1.8098 14.1275 
11 1 5.79706 5.79417 10.0913 
20 1 3.33691 3.3223 12.4618 
27 1 4.19431 4.19183 11.6201 
36 1 0.330026 1.98522 13.9851 
46 1 1.99929 0.305345 13.9798 
56 1 2.30537 2.36786 15.694 
59 1 7.32812 5.62043 10.2746 
69 1 5.62246 7.32485 10.2752 
79 1 5.62379 5.62134 8.55986 
84 1 2.6545 2.62919 13.1873 
91 1 4.90431 4.90237 10.9425 
97 2 2.75383 3.41917 15.7193 
98 3 3.17018 4.31885 15.806 
6 1 1.80333 14.0253 1.80802 
13 1 5.82734 10.0509 5.83498 
22 1 3.39532 12.4776 3.39373 
29 1 4.25556 11.6253 4.25549 
38 1 0.271505 13.8564 1.99465 
48 1 1.98349 15.5581 1.97854 
52 1 1.99278 13.8598 0.276785 
61 1 7.35519 10.248 5.64586 
71 1 5.63835 8.52079 5.65281 
75 1 5.64115 10.2392 7.36424 
86 1 2.68448 13.1615 2.69228 
93 1 4.95189 10.9273 4.95773 
7 1 1.81512 14.0965 14.082 
16 1 5.81891 10.0513 10.0896 
23 1 3.39038 12.5156 12.5042 
32 1 4.24723 11.6494 11.649 
39 1 0.286315 13.9084 13.8941 
43 1 1.996 15.631 13.9544 
53 1 1.99532 13.8814 15.6074 
64 1 7.34752 10.2434 10.2682 
68 1 5.63052 8.52157 10.2733 
78 1 5.63842 10.2389 8.56034 
87 1 2.69281 13.2157 13.2028 
96 1 4.94331 10.9401 10.9585 
8 1 14.0534 1.81154 1.80645 
15 1 10.0561 5.82157 5.83397 
24 1 12.4894 3.39386 3.38855 
31 1 11.6313 4.24847 4.25351 
40 1 15.5919 1.97215 1.95688 
44 1 13.8712 0.28152 1.99305 
54 1 13.8777 1.99853 0.277179 
63 1 8.52547 5.63517 5.65262 
67 1 10.25 7.34884 5.64618 
77 1 10.2407 5.63894 7.36423 
88 1 13.1821 2.69288 2.68768 
95 1 10.933 4.94556 4.95395 
5 1 14.1183 1.82322 14.0834 
14 1 10.0554 5.81275 10.0897 
21 1 12.5261 3.38988 12.5066 
30 1 11.6526 4.2418 11.6529 
37 1 15.6545 1.99231 13.9623 
47 1 13.9224 0.295272 13.8957 
51 1 13.8977 2.00105 15.6076 
62 1 8.52528 5.62746 10.2731 
72 1 10.2457 7.34165 10.2681 
76 1 10.2404 5.63651 8.56038 
85 1 13.2336 2.69771 13.2033 
94 1 10.9447 4.93879 10.9617 
3 1 14.0746 14.083 1.80552 
12 1 10.0805 10.0753 5.8281 
19 1 12.506 12.5061 3.38455 
28 1 11.6509 11.6499 4.24775 
35 1 15.6016 13.8766 1.99205 
45 1 13.8801 15.6125 1.9914 
55 1 13.8929 13.9012 0.274731 
60 1 8.55065 10.2566 5.64323 
70 1 10.2585 8.54444 5.64375 
80 1 10.2638 10.2612 7.35831 
83 1 13.1998 13.2101 2.6863 
92 1 10.9521 10.9526 4.94763 
2 1 14.0858 14.0942 14.0768 
9 1 10.074 10.0691 10.0823 
18 1 12.5087 12.5135 12.5063 
25 1 11.6506 11.6492 11.6541 
34 1 15.6155 13.9071 13.8937 
42 1 13.9118 15.6256 13.8943 
50 1 13.8965 13.9048 15.6051 
57 1 8.54414 10.2495 10.2664 
65 1 10.2521 8.53833 10.2658 
73 1 10.2614 10.2585 8.55438 
82 1 13.2082 13.215 13.2036 
89 1 10.9515 10.9484 10.9562 
ITEM: TIMESTEP
90
ITEM: NUMBER OF ATOMS
98
ITEM: BOX BOUNDS pp pp pp
0.0000000000000000e+00 1.6524999999999999e+01
0.0000000000000000e+00 1.6526000000000000e+01
0.0000000000000000e+00 1.6526000000000000e+01
ITEM: ATOMS id type x y z 
1 1 1.80398 1.76586 1.73282 
10 1 5.79877 5.79463 5.83166 
17 1 3.36421 3.35827 3.37452 
26 1 4.22116 4.22461 4.24354 
33 1 0.259562 1.95411 1.93008 
41 1 1.9812 0.22531 1.9477 
49 1 2.06317 2.06352 0.332241 
58 1 7.32899 5.62502 5.65066 
66 1 5.62762 7.32436 5.65052 
74 1 5.62238 5.61946 7.36233 
81 1 2.68306 2.65937 2.66361 
90 1 4.91827 4.91904 4.94545 
4 1 1.83495 1.81118 14.1287 
11 1 5.79703 5.79407 10.0911 
20 1 3.33716 3.32224 12.4614 
27 1 4.19451 4.19119 11.6196 
36 1 0.330789 1.9862 13.986 
46 1 2.00027 0.307093 13.9831 
56 1 2.3047 2.37117 15.6934 
59 1 7.32824 5.61994 10.2745 
69 1 5.62209 7.32479 10.2751 
79 1 5.62328 5.62069 8.55908 
84 1 2.65468 2.62925 13.1876 
91 1 4.90455 4.90182 10.9417 
97 2 2.75975 3.41934 15.7155 
98 3 3.16963 4.32183 15.802 
6 1 1.80218 14.0248 1.80841 
13 1 5.82722 10.0509 5.8354 
22 1 3.39289 12.4754 3.39413 
29 1 4.25506 11.6255 4.25616 
38 1 0.271321 13.8568 1.99446 
48 1 1.98435 15.5573 1.97605 
52 1 1.99254 13.8586 0.277102 
61 1 7.35438 10.2473 5.6464 
71 1 5.63797 8.52062 5.65278 
75 1 5.64117 10.2383 7.36479 
86 1 2.68704 13.1633 2.69102 
93 1 4.95268 10.9267 4.95682 
7 1 1.8156 14.0974 14.0823 
16 1 5.81825 10.0511 10.0898 
23 1 3.39002 12.516 12.5042 
32 1 4.24653 11.6487 11.65 
39 1 0.28679 13.9093 13.8942 
43 1 1.99695 15.6316 13.9574 
53 1 1.99533 13.8805 15.6075 
64 1 7.34757 10.2428 10.2685 
68 1 5.63015 8.52111 10.2736 
78 1 5.63855 10.2381 8.56077 
87 1 2.69341 13.2173 13.2026 
96 1 4.94367 10.941 10.9585 
8 1 14.0531 1.81066 1.80659 
15 1 10.0555 5.82075 5.83417 
24 1 12.4892 3.39326 3.38936 
31 1 11.6315 4.24894 4.25276 
40 1 15.5903 1.97249 1.95716 
44 1 13.8719 0.282092 1.99284 
54 1 13.8774 1.99894 0.277372 
63 1 8.52545 5.63458 5.65247 
67 1 10.2497 7.3484 5.64648 
77 1 10.2401 5.6387 7.36418 
88 1 13.1826 2.69247 2.68713 
95 1 10.9332 4.94544 4.9547 
5 1 14.1183 1.82325 14.0838 
14 1 10.0549 5.81268 10.0904 
21 1 12.5269 3.39009 12.5066 
30 1 11.6528 4.24247 11.6537 