ITEM: TIMESTEP
0
ITEM: NUMBER OF ATOMS
42
ITEM: BOX BOUNDS pp pp pp
0.0000000000000000e+00 9.8979999999999997e+00
0.0000000000000000e+00 9.8979999999999997e+00
0.0000000000000000e+00 9.8979999999999997e+00
ITEM: ATOMS id type x y z 
1 1 1.091 1.091 1.091 
2 1 0.2 0.2 0.2 
3 1 1.982 1.982 0.2 
4 1 0.2 1.982 1.982 
5 1 1.982 0.2 1.982 
41 2 2.125 1.619 1.802 
42 3 3.101 1.619 1.802 
11 1 3.566 3.566 8.515 
12 1 2.675 2.675 9.406 
13 1 4.456 4.456 9.405 
14 1 4.457 2.675 7.624 
15 1 2.675 4.457 7.624 
16 1 3.566 8.515 3.566 
17 1 2.675 9.406 2.675 
18 1 4.457 7.624 2.675 
19 1 4.456 9.405 4.456 
20 1 2.675 7.624 4.457 
31 1 1.091 6.04 6.04 
32 1 0.2 5.149 5.149 
33 1 1.982 6.931 5.149 
34 1 0.2 6.931 6.931 
35 1 1.982 5.149 6.931 
26 1 8.515 3.566 3.566 
27 1 9.406 2.675 2.675 
28 1 7.624 4.457 2.675 
29 1 7.624 2.675 4.457 
30 1 9.405 4.456 4.456 
36 1 6.04 1.091 6.04 
37 1 6.931 0.2 6.931 
38 1 5.149 0.2 5.149 
39 1 5.149 1.982 6.931 
40 1 6.931 1.982 5.149 
21 1 6.04 6.04 1.091 
22 1 5.149 6.931 1.982 
23 1 6.931 5.149 1.982 
24 1 5.149 5.149 0.2 
25 1 6.931 6.931 0.2 
6 1 8.515 8.515 8.515 
7 1 9.405 9.405 9.405 
8 1 7.624 7.624 9.406 
9 1 7.624 9.406 7.624 
10 1 9.406 7.624 7.624 
ITEM: TIMESTEP
10
ITEM: NUMBER OF ATOMS
42
ITEM: BOX BOUNDS pp pp pp
0.0000000000000000e+00 9.8979999999999997e+00
0.0000000000000000e+00 9.8979999999999997e+00
0.0000000000000000e+00 9.8979999999999997e+00
ITEM: ATOMS id type x y z 
1 1 0.89745 1.09482 1.02509 
2 1 0.168078 0.177399 0.17603 
3 1 2.00578 1.99271 0.174543 
4 1 0.160583 1.9895 1.98531 
5 1 1.95658 0.0440135 2.00317 
41 2 2.27044 1.8054 1.93251 
42 3 3.11161 1.67094 1.75394 
11 1 3.574 3.58334 8.50311 
12 1 2.73313 2.74291 9.32023 
13 1 4.46197 4.46204 9.40928 
14 1 4.46122 2.67353 7.61803 
15 1 2.67083 4.4628 7.61651 
16 1 3.62615 8.46 3.63037 
17 1 2.68839 9.31661 2.71485 
18 1 4.4664 7.61318 2.66777 
19 1 4.46667 9.41365 4.46636 
20 1 2.66814 7.61328 4.46614 
31 1 1.08375 6.03779 6.04161 
32 1 0.199734 5.14878 5.14948 
33 1 1.97699 6.92591 5.15381 
34 1 0.199637 6.93236 6.93264 
35 1 1.98273 5.14896 6.93201 
26 1 8.50667 3.57573 3.57543 
27 1 9.39003 2.68967 2.69244 
28 1 7.61972 4.46002 2.67248 
29 1 7.61957 2.67238 4.45982 
30 1 9.40783 4.45979 4.45944 
36 1 6.04787 1.09037 6.03885 
37 1 6.93329 0.199731 6.93294 
38 1 5.15778 0.207856 5.1555 
39 1 5.15161 1.98157 6.9306 
40 1 6.93156 1.98164 5.15019 
21 1 6.04721 6.03727 1.08907 
22 1 5.15298 6.92866 1.97915 
23 1 6.93133 5.14981 1.98127 
24 1 5.15013 5.14892 0.199866 
25 1 6.93329 6.93275 0.199377 
6 1 8.51186 8.51157 8.51175 
7 1 9.37529 9.37058 9.3735 
8 1 7.61744 7.6178 9.40943 
9 1 7.6175 9.4094 7.61765 
10 1 9.40877 7.61855 7.61842 
ITEM: TIMESTEP
20
ITEM: NUMBER OF ATOMS
42
ITEM: BOX BOUNDS pp pp pp
0.0000000000000000e+00 9.8979999999999997e+00
0.0000000000000000e+00 9.8979999999999997e+00
0.0000000000000000e+00 9.8979999999999997e+00
ITEM: ATOMS id type x y z 
1 1 0.942875 1.07863 1.05685 
2 1 0.164298 0.207363 0.190284 
3 1 2.01788 1.98897 0.183577 
4 1 0.164382 1.9619 1.94558 
5 1 1.94952 0.0771545 1.9903 
41 2 2.2778 1.87364 2.00585 
42 3 3.10748 1.65154 1.71236 
11 1 3.57739 3.58521 8.49692 
12 1 2.67059 2.69461 9.35423 
13 1 4.4636 4.46459 9.40781 
14 1 4.46212 2.67734 7.61761 
15 1 2.67301 4.46686 7.61459 
16 1 3.59989 8.4811 3.60342 
17 1 2.64829 9.30409 2.69131 
18 1 4.47087 7.61002 2.6762 
19 1 4.47179 9.40911 4.47142 
20 1 2.67542 7.60758 4.47308 
31 1 1.08589 6.03703 6.04116 
32 1 0.19376 5.14439 5.14507 
33 1 1.97134 6.92328 5.15621 
34 1 0.193406 6.93594 6.93675 
35 1 1.97619 5.15314 6.92522 
26 1 8.51562 3.5659 3.56586 
27 1 9.4094 2.66807 2.67332 
28 1 7.62268 4.45837 2.67793 
29 1 7.62324 2.67855 4.45781 
30 1 9.40294 4.45767 4.45789 
36 1 6.04466 1.09598 6.04042 
37 1 6.93254 0.200605 6.93025 
38 1 5.15871 0.210748 5.1556 
39 1 5.1572 1.97739 6.92519 
40 1 6.93646 1.98708 5.14499 
21 1 6.04264 6.03586 1.09071 
22 1 5.15652 6.92512 1.97391 
23 1 6.93606 5.14479 1.98612 
24 1 5.15596 5.1525 0.20413 
25 1 6.93235 6.92984 0.199797 
6 1 8.51325 8.51036 8.51275 
7 1 9.39215 9.3835 9.38767 
8 1 7.62016 7.61936 9.40512 
9 1 7.62088 9.40447 7.62036 
10 1 9.41078 7.61435 7.61438 
ITEM: TIMESTEP
30
ITEM: NUMBER OF ATOMS
42
ITEM: BOX BOUNDS pp pp pp
0.0000000000000000e+00 9.8979999999999997e+00
0.0000000000000000e+00 9.8979999999999997e+00
0.0000000000000000e+00 9.8979999999999997e+00
ITEM: ATOMS id type x y z 
1 1 0.972411 1.05786 1.07815 
2 1 0.15632 0.217486 0.201445 
3 1 2.0317 1.98337 0.192209 
4 1 0.158755 1.94496 1.93346 
5 1 1.94789 0.0752175 1.98294 
41 2 2.30444 1.95004 2.07861 
42 3 3.09859 1.64815 1.68891 
11 1 3.57186 3.57916 8.49738 
12 1 2.64452 2.6958 9.32902 
13 1 4.46423 4.46449 9.40388 
14 1 4.46403 2.6805 7.61515 
15 1 2.67731 4.46784 7.6133 
16 1 3.5732 8.49281 3.57828 
17 1 2.61936 9.27359 2.69656 
18 1 4.47149 7.61028 2.6835 
19 1 4.47098 9.40451 4.46939 
20 1 2.68406 7.60682 4.47365 
31 1 1.07888 6.03424 6.03741 
32 1 0.190698 5.14345 5.14541 
33 1 1.97651 6.92695 5.15347 
34 1 0.195477 6.92941 6.93128 
35 1 1.97992 5.1501 6.92784 
26 1 8.53109 3.5498 3.54982 
27 1 9.41253 2.66053 2.65959 
28 1 7.62676 4.45579 2.6798 
29 1 7.62728 2.68063 4.45464 
30 1 9.40065 4.45441 4.45445 
36 1 6.04966 1.09829 6.0384 
37 1 6.9348 0.198461 6.93188 
38 1 5.15529 0.206496 5.15268 
39 1 5.15117 1.98678 6.93245 
40 1 6.93843 1.99236 5.14384 
21 1 6.04814 6.03493 1.09284 
22 1 5.15372 6.92813 1.97954 
23 1 6.93701 5.14232 1.99045 
24 1 5.15139 5.14799 0.199134 
25 1 6.933 6.92867 0.197443 
6 1 8.51789 8.51646 8.51827 
7 1 9.39367 9.39299 9.38946 
8 1 7.62046 7.61923 9.40512 
9 1 7.6209 9.40376 7.6198 
10 1 9.4055 7.61895 7.61916 
ITEM: TIMESTEP
37
ITEM: NUMBER OF ATOMS
42
ITEM: BOX BOUNDS pp pp pp
0.0000000000000000e+00 9.8979999999999997e+00
0.0000000000000000e+00 9.8979999999999997e+00
0.0000000000000000e+00 9.8979999999999997e+00
ITEM: ATOMS id type x y z 
1 1 0.972475 1.05792 1.07834 
2 1 0.156231 0.217142 0.201406 
3 1 2.03207 1.98349 0.192189 
4 1 0.158768 1.94489 1.93371 
5 1 1.94767 0.0752579 1.98284 
41 2 2.30461 1.95027 2.07898 
42 3 3.09859 1.64839 1.68897 
11 1 3.57166 3.57915 8.49756 
12 1 2.64444 2.69601 9.32847 
13 1 4.46423 4.46452 9.40388 
14 1 4.46394 2.68057 7.61519 
15 1 2.67729 4.46785 7.61327 
16 1 3.57338 8.49276 3.5786 
17 1 2.61917 9.27337 2.69652 
18 1 4.47143 7.61034 2.68348 
19 1 4.47095 9.4046 4.46938 
20 1 2.68414 7.60693 4.47354 
31 1 1.0789 6.03427 6.03745 
32 1 0.190761 5.14359 5.1455 
33 1 1.97631 6.92665 5.15374 
34 1 0.195148 6.92966 6.93152 
35 1 1.97984 5.15022 6.92771 
26 1 8.53113 3.54978 3.54976 
27 1 9.41241 2.66053 2.65944 
28 1 7.62678 4.45572 2.67977 
29 1 7.62733 2.68061 4.45454 
30 1 9.40057 4.45421 4.45428 
36 1 6.04963 1.09829 6.03843 
37 1 6.93483 0.198454 6.93185 
38 1 5.15529 0.206414 5.15264 
39 1 5.15146 1.98657 6.93221 
40 1 6.93843 1.99234 5.14393 
21 1 6.0481 6.03494 1.09285 
22 1 5.15395 6.92792 1.97943 
23 1 6.93706 5.14236 1.99048 
24 1 5.15147 5.14801 0.199175 
25 1 6.93304 6.92865 0.197432 
6 1 8.51804 8.51642 8.51819 
7 1 9.39354 9.39316 9.38945 
8 1 7.62039 7.61917 9.40522 
9 1 7.62081 9.40387 7.61975 
10 1 9.40576 7.61872 7.61895 
ITEM: TIMESTEP
38
ITEM: NUMBER OF ATOMS
42
ITEM: BOX BOUNDS pp pp pp
0.0000000000000000e+00 9.8979999999999997e+00
0.0000000000000000e+00 9.8979999999999997e+00
0.0000000000000000e+00 9.8979999999999997e+00
ITEM: ATOMS id type x y z 
1 1 0.972475 1.05792 1.07834 
2 1 0.156231 0.217142 0.201406 
3 1 2.03207 1.98349 0.192189 
4 1 0.158768 1.94489 1.93371 
5 1 1.94767 0.0752579 1.98284 
41 2 2.30461 1.95027 2.07898 
42 3 3.09859 1.64839 1.68897 
11 1 3.57166 3.57915 8.49756 
12 1 2.64444 2.69601 9.32847 
13 1 4.46423 4.46452 9.40388 
14 1 4.46394 2.68057 7.61519 
15 1 2.67729 4.46785 7.61327 
16 1 3.57338 8.49276 3.5786 
17 1 2.61917 9.27337 2.69652 
18 1 4.47143 7.61034 2.68348 
19 1 4.47095 9.4046 4.46938 
20 1 2.68414 7.60693 4.47354 
31 1 1.0789 6.03427 6.03745 
32 1 0.190761 5.14359 5.1455 
33 1 1.97631 6.92665 5.15374 
34 1 0.195148 6.92966 6.93152 
35 1 1.97984 5.15022 6.92771 
26 1 8.53113 3.54978 3.54976 
27 1 9.41241 2.66053 2.65944 
28 1 7.62678 4.45572 2.67977 
29 1 7.62733 2.68061 4.45454 
30 1 9.40057 4.45421 4.45428 
36 1 6.04963 1.09829 6.03843 
37 1 6.93483 0.198454 6.93185 
38 1 5.15529 0.206414 5.15264 
39 1 5.15146 1.98657 6.93221 
40 1 6.93843 1.99234 5.14393 
21 1 6.0481 6.03494 1.09285 
22 1 5.15395 6.92792 1.97943 
23 1 6.93706 5.14236 1.99048 
24 1 5.15147 5.14801 0.199175 
25 1 6.93304 6.92865 0.197432 
6 1 8.51804 8.51642 8.51819 
7 1 9.39354 9.39316 9.38945 
8 1 7.62039 7.61917 9.40522 
9 1 7.62081 9.40387 7.61975 
10 1 9.40576 7.61872 7.61895 
ITEM: TIMESTEP
40
ITEM: NUMBER OF ATOMS
42
ITEM: BOX BOUNDS pp pp pp
-7.3170335996727213e-04 9.8987317033599673e+00
-9.7269229425606726e-04 9.8989726922942562e+00
-9.8980000000000010e-04 9.8989897999999990e+00
ITEM: ATOMS id type x y z 
1 1 0.971887 1.05715 1.07757 
2 1 0.155512 0.216195 0.200447 
3 1 2.03165 1.98291 0.191238 
4 1 0.158059 1.9443 1.93312 
5 1 1.94723 0.0742993 1.98225 
41 2 2.30422 1.94968 2.07842 
42 3 3.09831 1.64775 1.68832 
11 1 3.57145 3.57888 8.49827 
12 1 2.6441 2.69557 9.32933 
13 1 4.46416 4.46443 9.40477 
14 1 4.46387 2.68012 7.61572 
15 1 2.67696 4.46776 7.6138 
16 1 3.57318 8.49346 3.57833 
17 1 2.61882 9.27422 2.69607 
18 1 4.47136 7.61086 2.68303 
19 1 4.47088 9.40548 4.46929 
20 1 2.68381 7.60745 4.47345 
31 1 1.07833 6.03448 6.03767 
32 1 0.190049 5.14362 5.14553 
33 1 1.97587 6.92703 5.15378 
34 1 0.194445 6.93005 6.93191 
35 1 1.9794 5.15026 6.9281 
26 1 8.53166 3.54951 3.54948 
27 1 9.41307 2.66008 2.65897 
28 1 7.62717 4.45562 2.67931 
29 1 7.62773 2.68017 4.45445 
30 1 9.40124 4.45412 4.45419 
36 1 6.04979 1.09754 6.03865 
37 1 6.93513 0.197516 6.93225 
38 1 5.15532 0.205481 5.15268 
39 1 5.15149 1.98598 6.9326 
40 1 6.93872 1.99176 5.14397 
21 1 6.04826 6.03516 1.09208 
22 1 5.15399 6.92831 1.97883 
23 1 6.93735 5.1424 1.98989 
24 1 5.1515 5.14805 0.198227 
25 1 6.93334 6.92905 0.196474 
6 1 8.51856 8.51712 8.5189 
7 1 9.3942 9.39405 9.39035 
8 1 7.62078 7.61968 9.40611 
9 1 7.6212 9.40475 7.62028 
10 1 9.40642 7.61925 7.61948 
ITEM: TIMESTEP
50
ITEM: NUMBER OF ATOMS
42
ITEM: BOX BOUNDS pp pp pp
-3.1097589388110383e-03 9.9011097589388104e+00
-5.8094824936204287e-03 9.9038094824936209e+00
-5.9388000000000028e-03 9.9039387999999953e+00
ITEM: ATOMS id type x y z 
1 1 0.969957 1.05334 1.07372 
2 1 0.153016 0.211292 0.195506 
3 1 2.03046 1.98017 0.186347 
4 1 0.155706 1.94141 1.93023 
5 1 1.94577 0.0695135 1.9793 
41 2 2.303 1.94681 2.07564 
42 3 3.09741 1.64459 1.68506 
11 1 3.57074 3.5775 8.50183 
12 1 2.64287 2.6933 9.3337 
13 1 4.46396 4.46399 9.40925 
14 1 4.46372 2.67783 7.6183 
15 1 2.6758 4.46735 7.6164 
16 1 3.57261 8.49689 3.57703 
17 1 2.61761 9.27844 2.69375 
18 1 4.4712 7.61338 2.68067 
19 1 4.47068 9.4099 4.46885 
20 1 2.6827 7.61004 4.47298 
31 1 1.07648 6.03555 6.03875 
32 1 0.18764 5.14371 5.14561 
33 1 1.97443 6.92892 5.15402 
34 1 0.192113 6.93201 6.93392 
35 1 1.97804 5.1504 6.93014 
26 1 8.5334 3.54816 3.54809 
27 1 9.41524 2.65776 2.65656 
28 1 7.62844 4.45515 2.67701 
29 1 7.62898 2.6779 4.45397 
30 1 9.40346 4.4537 4.45377 
36 1 6.05031 1.09378 6.03974 
37 1 6.93618 0.19278 6.93431 
38 1 5.15537 0.200775 5.15282 
39 1 5.15151 1.98318 6.93467 
40 1 6.93974 1.98893 5.14413 
21 1 6.04878 6.03623 1.08823 
22 1 5.15403 6.9303 1.97596 
23 1 6.93836 5.14256 1.98697 
24 1 5.15157 5.14821 0.19344 
25 1 6.93443 6.93111 0.191592 
6 1 8.52028 8.52062 8.52249 
7 1 9.39648 9.39864 9.39498 
8 1 7.62195 7.62219 9.41068 
9 1 7.6224 9.40918 7.62287 
10 1 9.40858 7.62185 7.62215 
ITEM: TIMESTEP
60
ITEM: NUMBER OF ATOMS
42
ITEM: BOX BOUNDS pp pp pp
-4.1891471185335241e-04 9.8984189147118542e+00
-1.0532076541405672e-02 9.9085320765414089e+00
-1.0887800000000003e-02 9.9088877999999916e+00
ITEM: ATOMS id type x y z 
1 1 0.972011 1.04961 1.06996 
2 1 0.155035 0.205924 0.190174 
3 1 2.0328 1.97793 0.181094 
4 1 0.158143 1.93868 1.92764 
5 1 1.94758 0.0646007 1.97662 
41 2 2.30457 1.94413 2.07306 
42 3 3.09837 1.64163 1.68181 
11 1 3.57135 3.57608 8.50539 
12 1 2.64367 2.69086 9.33816 
13 1 4.46437 4.46369 9.41383 
14 1 4.46426 2.6754 7.62065 
15 1 2.67682 4.46711 7.61882 
16 1 3.57357 8.50017 3.57586 
17 1 2.6184 9.28275 2.69109 
18 1 4.47167 7.61567 2.67809 
19 1 4.47102 9.41435 4.4685 
20 1 2.68377 7.61242 4.47266 
31 1 1.07861 6.03659 6.03984 
32 1 0.189846 5.14358 5.14543 
33 1 1.97618 6.93085 5.15415 
34 1 0.194498 6.93403 6.93603 
35 1 1.97995 5.15034 6.93236 
26 1 8.5315 3.54687 3.54673 
27 1 9.41299 2.65526 2.65382 
28 1 7.62686 4.45475 2.6746 
29 1 7.62737 2.67556 4.45359 
30 1 9.4013 4.45341 4.4535 
36 1 6.04969 1.09011 6.04085 
37 1 6.93541 0.187957 6.93655 
38 1 5.15507 0.196004 5.15281 
39 1 5.15111 1.98072 6.93698 
40 1 6.93889 1.98634 5.14415 
21 1 6.04814 6.03728 1.08438 
22 1 5.15371 6.93241 1.9733 
23 1 6.9375 5.1426 1.98422 
24 1 5.1513 5.14819 0.188498 
25 1 6.93375 6.93335 0.186467 
6 1 8.5184 8.52408 8.52612 
7 1 9.39451 9.40363 9.40001 
8 1 7.62019 7.62444 9.41543 
9 1 7.62069 9.41368 7.62532 
10 1 9.40624 7.62434 7.62477 
ITEM: TIMESTEP
70
ITEM: NUMBER OF ATOMS
42
ITEM: BOX BOUNDS pp pp pp
3.1487346609334350e-03 9.8948512653390690e+00
-1.4788821215195083e-02 9.9127888212151980e+00
-1.5379763799775986e-02 9.9133797637997638e+00
ITEM: ATOMS id type x y z 
1 1 0.974711 1.04628 1.0666 
2 1 0.158104 0.201206 0.185504 
3 1 2.03561 1.97591 0.176361 
4 1 0.161512 1.93613 1.92526 
5 1 1.94988 0.0601945 1.97418 
41 2 2.30662 1.94174 2.07076 
42 3 3.09968 1.63901 1.67886 
11 1 3.57217 3.57477 8.50867 
12 1 2.64495 2.68871 9.3421 
13 1 4.46486 4.46343 9.41799 
14 1 4.46483 2.67324 7.62282 
15 1 2.67828 4.46688 7.62104 
16 1 3.57475 8.5031 3.57487 
17 1 2.61962 9.28663 2.68865 
18 1 4.47218 7.61774 2.67575 
19 1 4.47144 9.41838 4.46819 
20 1 2.68519 7.61452 4.47241 
31 1 1.08142 6.03754 6.04083 
32 1 0.192953 5.14348 5.14529 
33 1 1.97853 6.93265 5.15421 
34 1 0.197758 6.93583 6.93792 
35 1 1.98232 5.15031 6.93433 
26 1 8.52895 3.54571 3.54548 
27 1 9.40991 2.653 2.6513 
28 1 7.62481 4.45439 2.67239 
29 1 7.6253 2.67343 4.45325 
30 1 9.3983 4.45311 4.45321 
36 1 6.04887 1.08681 6.04185 
37 1 6.9342 0.183679 6.9385 
38 1 5.15474 0.191674 5.15277 
39 1 5.15075 1.97846 6.93903 
40 1 6.9377 1.98403 5.14416 
21 1 6.04731 6.03822 1.08089 
22 1 5.15339 6.9343 1.97089 
23 1 6.9363 5.14261 1.98175 
24 1 5.15101 5.14817 0.184006 
25 1 6.93259 6.93528 0.181906 
6 1 8.51592 8.52723 8.52943 
7 1 9.39155 9.40801 9.40442 
8 1 7.61806 7.62655 9.41968 
9 1 7.61858 9.4177 7.62759 
10 1 9.40309 7.6266 7.62718 
ITEM: TIMESTEP
80
ITEM: NUMBER OF ATOMS
42
ITEM: BOX BOUNDS pp pp pp
6.2168362338629046e-03 9.8917831637661404e+00
-1.7834318794090864e-02 9.9158343187940954e+00
-1.8601539699719324e-02 9.9166015396997054e+00
ITEM: ATOMS id type x y z 
1 1 0.977007 1.04389 1.06423 
2 1 0.160884 0.197904 0.182255 
3 1 2.03794 1.97445 0.172998 
4 1 0.164474 1.93424 1.92351 
5 1 1.95178 0.0571068 1.97237 
41 2 2.30836 1.94004 2.06914 
42 3 3.10083 1.63716 1.67675 
11 1 3.57287 3.57382 8.51104 
12 1 2.64613 2.68721 9.34487 
13 1 4.46525 4.46323 9.42096 
14 1 4.46526 2.67173 7.6244 
15 1 2.67958 4.46669 7.62265 
16 1 3.57576 8.50518 3.5742 
17 1 2.62074 9.28937 2.68693 
18 1 4.47258 7.61924 2.67408 
19 1 4.47178 9.42126 4.46795 
20 1 2.68644 7.61602 4.47224 
31 1 1.08384 6.03823 6.04154 
32 1 0.195692 5.14345 5.14521 
33 1 1.98052 6.93392 5.15426 
34 1 0.200593 6.9371 6.93926 
35 1 1.9843 5.15033 6.93572 
26 1 8.52674 3.54488 3.54458 
27 1 9.40723 2.65139 2.64949 
28 1 7.62306 4.45413 2.6708 
29 1 7.62354 2.67191 4.45299 
30 1 9.39565 4.45286 4.45297 
36 1 6.04817 1.08444 6.04257 
37 1 6.9331 0.180652 6.93987 
38 1 5.15448 0.188573 5.15275 
39 1 5.15051 1.97681 6.94046 
40 1 6.93664 1.98237 5.14417 
21 1 6.0466 6.03889 1.07839 
22 1 5.15317 6.93562 1.96915 
23 1 6.93524 5.14262 1.97998 
24 1 5.15079 5.14817 0.180793 
25 1 6.93152 6.93661 0.178679 
6 1 8.5138 8.5295 8.53182 
7 1 9.38888 9.41108 9.4075 
8 1 7.61629 7.62809 9.42269 
9 1 7.61681 9.42055 7.62925 
10 1 9.40037 7.62823 7.62891 
ITEM: TIMESTEP
90
ITEM: NUMBER OF ATOMS
42
ITEM: BOX BOUNDS pp pp pp
8.1554209863689484e-03 9.8898445790136318e+00
-1.9383659082813504e-02 9.9173836590828177e+00
-2.0253808948691745e-02 9.9182538089486769e+00
ITEM: ATOMS id type x y z 
1 1 0.978452 1.04268 1.06302 
2 1 0.162684 0.196232 0.180616 
3 1 2.03937 1.97371 0.171278 
4 1 0.166368 1.93325 1.92261 
5 1 1.95296 0.0555432 1.97145 
41 2 2.30945 1.93919 2.06832 
42 3 3.10157 1.63623 1.67566 
11 1 3.57332 3.57332 8.51226 
12 1 2.6469 2.68646 9.34626 
13 1 4.46549 4.46313 9.42249 
14 1 4.46551 2.67097 7.62521 
15 1 2.68043 4.46658 7.62348 
16 1 3.57639 8.50624 3.57387 
17 1 2.62148 9.29076 2.68604 
18 1 4.47282 7.62 2.67323 
19 1 4.47198 9.42272 4.46783 
20 1 2.68725 7.61678 4.47214 
31 1 1.08537 6.03858 6.04191 
32 1 0.197448 5.14343 5.14517 
33 1 1.98176 6.93457 5.15429 
34 1 0.202396 6.93774 6.93995 
35 1 1.98553 5.15034 6.93642 
26 1 8.52534 3.54446 3.54412 
27 1 9.40552 2.65057 2.64855 
28 1 7.62197 4.45399 2.66999 
29 1 7.62245 2.67114 4.45285 
30 1 9.39397 4.45272 4.45284 
36 1 6.04773 1.08324 6.04294 
37 1 6.93238 0.179119 6.94056 
38 1 5.15434 0.186998 5.15273 
39 1 5.15038 1.97597 6.94118 
40 1 6.93595 1.98153 5.14418 
21 1 6.04616 6.03923 1.07711 
22 1 5.15305 6.93628 1.96825 
23 1 6.93456 5.14262 1.97908 
24 1 5.15066 5.14816 0.179146 
25 1 6.93081 6.93728 0.177032 
6 1 8.51246 8.53067 8.53305 
7 1 9.38716 9.41263 9.40907 
8 1 7.61519 7.62888 9.42423 
9 1 7.61571 9.422 7.6301 
10 1 9.39865 7.62906 7.62981 
ITEM: TIMESTEP
94
ITEM: NUMBER OF ATOMS
42
ITEM: BOX BOUNDS pp pp pp
8.1660536035564491e-03 9.8898339463964451e+00
-1.9388846569646966e-02 9.9173888465696542e+00
-2.0259383185456156e-02 9.9182593831854415e+00
ITEM: ATOMS id type x y z 
1 1 0.97846 1.04268 1.06302 
2 1 0.162694 0.196227 0.180611 
3 1 2.03938 1.97371 0.171272 
4 1 0.166378 1.93325 1.92261 
5 1 1.95297 0.0555379 1.97144 
41 2 2.30946 1.93919 2.06832 
42 3 3.10157 1.63623 1.67566 
11 1 3.57332 3.57331 8.51227 
12 1 2.64691 2.68646 9.34626 
13 1 4.46549 4.46313 9.42249 
14 1 4.46551 2.67097 7.62522 
15 1 2.68043 4.46658 7.62349 
16 1 3.57639 8.50624 3.57387 
17 1 2.62148 9.29076 2.68603 
18 1 4.47282 7.62001 2.67323 
19 1 4.47198 9.42272 4.46783 
20 1 2.68725 7.61678 4.47214 
31 1 1.08537 6.03858 6.04191 
32 1 0.197458 5.14343 5.14517 
33 1 1.98177 6.93457 5.15429 
34 1 0.202406 6.93775 6.93995 
35 1 1.98554 5.15034 6.93642 
26 1 8.52534 3.54446 3.54412 
27 1 9.40551 2.65057 2.64855 
28 1 7.62196 4.45399 2.66999 
29 1 7.62244 2.67114 4.45285 
30 1 9.39396 4.45272 4.45284 
36 1 6.04773 1.08323 6.04294 
37 1 6.93237 0.179114 6.94056 
38 1 5.15434 0.186992 5.15273 
39 1 5.15038 1.97596 6.94118 
40 1 6.93595 1.98153 5.14418 
21 1 6.04615 6.03923 1.0771 
22 1 5.15305 6.93628 1.96824 
23 1 6.93456 5.14262 1.97908 
24 1 5.15066 5.14816 0.179141 
25 1 6.93081 6.93728 0.177027 
6 1 8.51246 8.53067 8.53305 
7 1 9.38715 9.41264 9.40908 
8 1 7.61518 7.62888 9.42424 
9 1 7.6157 9.42201 7.6301 
10 1 9.39864 7.62907 7.62981 
ITEM: TIMESTEP
100
ITEM: NUMBER OF ATOMS
42
ITEM: BOX BOUNDS pp pp pp
8.1660536035564491e-03 9.8898339463964451e+00
-1.9388846569646966e-02 9.9173888465696542e+00
-2.0259383185456156e-02 9.9182593831854415e+00
ITEM: ATOMS id type x y z 
1 1 0.975805 1.04255 1.06514 
2 1 0.16329 0.194288 0.182124 
3 1 2.04435 1.97606 0.170657 
4 1 0.168324 1.93024 1.92357 
5 1 1.95163 0.0560726 1.97147 
41 2 2.31093 1.94143 2.07192 
42 3 3.10198 1.63907 1.67584 
11 1 3.57077 3.57155 8.51364 
12 1 2.64587 2.6879 9.34173 
13 1 4.4656 4.46339 9.42246 
14 1 4.46564 2.67084 7.62476 
15 1 2.68022 4.46669 7.62317 
16 1 3.57815 8.50521 3.5768 
17 1 2.61827 9.29021 2.68403 
18 1 4.47258 7.6199 2.67253 
19 1 4.47095 9.42285 4.46727 
20 1 2.68653 7.61629 4.47266 
31 1 1.08554 6.03896 6.04196 
32 1 0.196226 5.14274 5.14413 
33 1 1.98207 6.93358 5.15489 
34 1 0.201506 6.93769 6.93987 
35 1 1.98561 5.15072 6.93584 
26 1 8.52558 3.54463 3.54399 
27 1 9.40463 2.64993 2.64616 
28 1 7.62196 4.45332 2.66963 
29 1 7.62241 2.67067 4.4524 
30 1 9.39418 4.45197 4.45231 
36 1 6.04748 1.08326 6.04307 
37 1 6.93272 0.179163 6.94013 
38 1 5.15459 0.186606 5.15253 
39 1 5.15116 1.97604 6.94068 
40 1 6.93686 1.98227 5.14412 
21 1 6.04577 6.03927 1.07722 
22 1 5.15414 6.93529 1.9684 
23 1 6.93566 5.14249 1.97989 
24 1 5.15096 5.14799 0.1791 
25 1 6.93133 6.9372 0.176895 
6 1 8.5138 8.53167 8.53371 
7 1 9.38547 9.41428 9.40872 
8 1 7.61484 7.62873 9.42464 
9 1 7.61514 9.42262 7.62996 
10 1 9.39885 7.62937 7.63028 
ITEM: TIMESTEP
110
ITEM: NUMBER OF ATOMS
42
ITEM: BOX BOUNDS pp pp pp
8.1660536035564491e-03 9.8898339463964451e+00
-1.9388846569646966e-02 9.9173888465696542e+00
-2.0259383185456156e-02 9.9182593831854415e+00
ITEM: ATOMS id type x y z 
1 1 0.97388 1.04197 1.06646 
2 1 0.163969 0.190678 0.184876 
3 1 2.05291 1.97876 0.172262 
4 1 0.170813 1.92586 1.92665 
5 1 1.94955 0.0559424 1.97207 
41 2 2.31395 1.94589 2.07883 
42 3 3.10152 1.6452 1.67458 
11 1 3.56683 3.56908 8.51484 
12 1 2.6438 2.69009 9.33434 
13 1 4.46553 4.46369 9.42306 
14 1 4.46616 2.66968 7.62394 
15 1 2.67918 4.4673 7.62229 
16 1 3.57923 8.50294 3.57942 
17 1 2.61434 9.28779 2.68278 
18 1 4.47222 7.61924 2.67122 
19 1 4.46959 9.42361 4.46701 
20 1 2.68601 7.61578 4.47329 
31 1 1.08527 6.03934 6.04198 
32 1 0.195044 5.14198 5.1435 
33 1 1.98321 6.93239 5.15542 
34 1 0.199798 6.93778 6.93977 
35 1 1.98501 5.15205 6.93398 
26 1 8.52583 3.54427 3.54315 
27 1 9.40249 2.64935 2.64243 
28 1 7.62256 4.45202 2.66943 
29 1 7.62304 2.67031 4.45151 
30 1 9.39429 4.45047 4.45077 
36 1 6.04719 1.08333 6.04307 
37 1 6.93311 0.1794 6.9397 
38 1 5.1545 0.185512 5.1516 
39 1 5.1531 1.97579 6.93896 
40 1 6.93752 1.98278 5.14408 
21 1 6.04552 6.03899 1.07746 
22 1 5.15472 6.93499 1.97005 
23 1 6.93666 5.14251 1.98048 
24 1 5.15244 5.1487 0.179774 
25 1 6.93197 6.93719 0.176897 
6 1 8.51519 8.53321 8.53442 
7 1 9.38245 9.41715 9.408 
8 1 7.61481 7.6287 9.42501 
9 1 7.61472 9.42335 7.62982 
10 1 9.39941 7.62993 7.63114 
ITEM: TIMESTEP
111
ITEM: NUMBER OF ATOMS
42
ITEM: BOX BOUNDS pp pp pp
8.1660536035564491e-03 9.8898339463964451e+00
-1.9388846569646966e-02 9.9173888465696542e+00
-2.0259383185456156e-02 9.9182593831854415e+00
ITEM: ATOMS id type x y z 
1 1 0.97388 1.04197 1.06646 
2 1 0.163969 0.190678 0.184876 
3 1 2.05291 1.97876 0.172262 
4 1 0.170813 1.92586 1.92665 
5 1 1.94955 0.0559424 1.97207 
41 2 2.31395 1.94589 2.07883 
42 3 3.10152 1.6452 1.67458 
11 1 3.56683 3.56908 8.51484 
12 1 2.6438 2.69009 9.33434 
13 1 4.46553 4.46369 9.42306 
14 1 4.46616 2.66968 7.62394 
15 1 2.67918 4.4673 7.62229 
16 1 3.57923 8.50294 3.57942 
17 1 2.61434 9.28779 2.68278 
18 1 4.47222 7.61924 2.67122 
19 1 4.46959 9.42361 4.46701 
20 1 2.68601 7.61578 4.47329 
31 1 1.08527 6.03934 6.04198 
32 1 0.195044 5.14198 5.1435 
33 1 1.98321 6.93239 5.15542 
34 1 0.199798 6.93778 6.93977 
35 1 1.98501 5.15205 6.93398 
26 1 8.52583 3.54427 3.54315 
27 1 9.40249 2.64935 2.64243 
28 1 7.62256 4.45202 2.66943 
29 1 7.62304 2.67031 4.45151 
30 1 9.39429 4.45047 4.45077 
36 1 6.04719 1.08333 6.04307 
37 1 6.93311 0.1794 6.9397 
38 1 5.1545 0.185512 5.1516 
39 1 5.1531 1.97579 6.93896 
40 1 6.93752 1.98278 5.14408 
21 1 6.04552 6.03899 1.07746 
22 1 5.15472 6.93499 1.97005 
23 1 6.93666 5.14251 1.98048 
24 1 5.15244 5.1487 0.179774 
25 1 6.93197 6.93719 0.176897 
6 1 8.51519 8.53321 8.53442 
7 1 9.38245 9.41715 9.408 
8 1 7.61481 7.6287 9.42501 
9 1 7.61472 9.42335 7.62982 
10 1 9.39941 7.62993 7.63114 
ITEM: TIMESTEP
120
ITEM: NUMBER OF ATOMS
42
ITEM: BOX BOUNDS pp pp pp
1.1066745904663102e-02 9.8869332540953359e+00
-2.3582896160434113e-02 9.9215828961604480e+00
-2.3372651166653984e-02 9.9213726511666369e+00
ITEM: ATOMS id type x y z 
1 1 0.976174 1.03864 1.06399 
2 1 0.166661 0.186406 0.181839 
3 1 2.05514 1.97658 0.169113 
4 1 0.173657 1.92323 1.92491 
5 1 1.95138 0.0516347 1.9704 
41 2 2.3156 1.9435 2.07728 
42 3 3.10255 1.64265 1.67241 
11 1 3.56761 3.56782 8.51707 
12 1 2.64485 2.68796 9.33719 
13 1 4.46591 4.46339 9.42601 
14 1 4.46659 2.66757 7.62545 
15 1 2.68046 4.46694 7.6239 
16 1 3.58 8.50588 3.57849 
17 1 2.61552 9.29148 2.68126 
18 1 4.47257 7.62139 2.66969 
19 1 4.46986 9.42743 4.46671 
20 1 2.68734 7.61803 4.473 
31 1 1.08751 6.04025 6.04265 
32 1 0.197784 5.14211 5.14358 
33 1 1.985 6.93404 5.15555 
34 1 0.2026 6.93943 6.94096 
35 1 1.98673 5.15223 6.93521 
26 1 8.52373 3.54306 3.54222 
27 1 9.39987 2.64731 2.6408 
28 1 7.621 4.4516 2.66796 
29 1 7.62147 2.66835 4.45121 
30 1 9.39171 4.45002 4.45043 
36 1 6.04655 1.08006 6.04373 
37 1 6.93191 0.175422 6.94092 
38 1 5.15434 0.181437 5.15167 
39 1 5.15284 1.97349 6.94035 
40 1 6.93639 1.98031 5.14417 
21 1 6.04489 6.0399 1.07505 
22 1 5.15448 6.93681 1.96837 
23 1 6.93553 5.14263 1.97866 
24 1 5.15222 5.14875 0.176655 
25 1 6.93078 6.93883 0.173954 
6 1 8.51313 8.53632 8.53672 
7 1 9.37992 9.42119 9.41096 
8 1 7.61329 7.631 9.42778 
9 1 7.6132 9.4271 7.63152 
10 1 9.39676 7.63225 7.6329 
ITEM: TIMESTEP
130
ITEM: NUMBER OF ATOMS
42
ITEM: BOX BOUNDS pp pp pp
1.4295493706073080e-02 9.8837045062939222e+00
-2.6046930010735294e-02 9.9240469300107499e+00
-2.5171059577618747e-02 9.9231710595776015e+00
ITEM: ATOMS id type x y z 
1 1 0.978708 1.03667 1.06256 
2 1 0.169699 0.183845 0.180084 
3 1 2.05736 1.97525 0.167398 
4 1 0.176819 1.92166 1.92394 
5 1 1.95337 0.0491051 1.96945 
41 2 2.31739 1.94213 2.07646 
42 3 3.10374 1.64122 1.67113 
11 1 3.56848 3.5671 8.51835 
12 1 2.6462 2.68676 9.33874 
13 1 4.46625 4.46319 9.4277 
14 1 4.46696 2.66636 7.62635 
15 1 2.68191 4.46674 7.62482 
16 1 3.58085 8.50758 3.57795 
17 1 2.6169 9.29364 2.68038 
18 1 4.47291 7.62265 2.66882 
19 1 4.47016 9.42967 4.46653 
20 1 2.68882 7.61934 4.47283 
31 1 1.09001 6.04079 6.04303 
32 1 0.20084 5.14217 5.14362 
33 1 1.98699 6.93501 5.15563 
34 1 0.205655 6.94045 6.94169 
35 1 1.98865 5.15233 6.93591 
26 1 8.52138 3.54233 3.54167 
27 1 9.39697 2.64606 2.63979 
28 1 7.61924 4.45136 2.6671 
29 1 7.61972 2.66719 4.45104 
30 1 9.38884 4.44975 4.45023 
36 1 6.04584 1.07813 6.0441 
37 1 6.93059 0.173086 6.94162 
38 1 5.15418 0.179033 5.1517 
39 1 5.15268 1.97209 6.94109 
40 1 6.93513 1.97889 5.14419 
21 1 6.04419 6.04043 1.07366 
22 1 5.15428 6.93787 1.96742 
23 1 6.93428 5.14268 1.97762 
24 1 5.15206 5.1488 0.174874 
25 1 6.92952 6.93985 0.172206 
6 1 8.51084 8.53815 8.53806 
7 1 9.37708 9.42362 9.4127 
8 1 7.61154 7.63232 9.42942 
9 1 7.61148 9.42932 7.6325 
10 1 9.39387 7.63358 7.63389 
ITEM: TIMESTEP
140
ITEM: NUMBER OF ATOMS
42
ITEM: BOX BOUNDS pp pp pp
1.6148306435971746e-02 9.8818516935640197e+00
-2.7406620252243583e-02 9.9254066202522573e+00
-2.6219531553135039e-02 9.9242195315531188e+00
ITEM: ATOMS id type x y z 
1 1 0.980155 1.03558 1.06174 
2 1 0.171467 0.182452 0.179088 
3 1 2.05863 1.9745 0.166414 
4 1 0.178641 1.92078 1.92337 
5 1 1.95448 0.0477311 1.96888 
41 2 2.31842 1.94138 2.07598 
42 3 3.10442 1.64044 1.67038 
11 1 3.56897 3.5667 8.51909 
12 1 2.64697 2.6861 9.33963 
13 1 4.46644 4.46307 9.42867 
14 1 4.46716 2.6657 7.62689 
15 1 2.68274 4.46664 7.62535 
16 1 3.58135 8.50852 3.57764 
17 1 2.61771 9.29481 2.67988 
18 1 4.47309 7.62335 2.66832 
19 1 4.47033 9.43091 4.46643 
20 1 2.68967 7.62007 4.47273 
31 1 1.09145 6.04109 6.04326 
32 1 0.202593 5.14221 5.14363 
33 1 1.98813 6.93554 5.15567 
34 1 0.20739 6.94104 6.94213 
35 1 1.98975 5.1524 6.93631 
26 1 8.52003 3.54193 3.54135 
27 1 9.3953 2.64537 2.6392 
28 1 7.61824 4.45123 2.6666 
29 1 7.61872 2.66654 4.45094 
30 1 9.38719 4.4496 4.45012 
36 1 6.04543 1.07707 6.04432 
37 1 6.92984 0.171795 6.94203 
38 1 5.15409 0.177708 5.15172 
39 1 5.15261 1.97129 6.94151 
40 1 6.93441 1.9781 5.14421 
21 1 6.04379 6.04072 1.07285 
22 1 5.15419 6.93844 1.96685 
23 1 6.93355 5.14271 1.97702 
24 1 5.15198 5.14885 0.173854 
25 1 6.92882 6.94043 0.171169 
6 1 8.50953 8.53915 8.53885 
7 1 9.37542 9.42494 9.4137 
8 1 7.61052 7.63303 9.43039 
9 1 7.61048 9.43054 7.63307 
10 1 9.39222 7.63431 7.63445 
ITEM: TIMESTEP
150
ITEM: NUMBER OF ATOMS
42
ITEM: BOX BOUNDS pp pp pp
1.7738637362468099e-02 9.8802613626375209e+00
-2.8470085434533304e-02 9.9264700854345467e+00
-2.7042026225105226e-02 9.9250420262250874e+00
ITEM: ATOMS id type x y z 
1 1 0.981394 1.03473 1.0611 
2 1 0.172993 0.181366 0.178319 
3 1 2.05972 1.97392 0.165648 
4 1 0.180208 1.92008 1.92292 
5 1 1.95544 0.04666 1.96842 
41 2 2.3193 1.9408 2.07561 
42 3 3.10501 1.63983 1.66979 
11 1 3.56938 3.56638 8.51968 
12 1 2.64764 2.68559 9.34032 
13 1 4.4666 4.46298 9.42944 
14 1 4.46733 2.66518 7.62731 
15 1 2.68345 4.46655 7.62577 
16 1 3.58177 8.50925 3.5774 
17 1 2.6184 9.29573 2.67948 
18 1 4.47325 7.62391 2.66793 
19 1 4.47047 9.43188 4.46634 
20 1 2.6904 7.62064 4.47266 
31 1 1.09268 6.04132 6.04343 
32 1 0.2041 5.14223 5.14365 
33 1 1.98911 6.93595 5.15571 
34 1 0.208884 6.94149 6.94248 
35 1 1.9907 5.15245 6.93663 
26 1 8.51887 3.54162 3.5411 
27 1 9.39387 2.64483 2.63873 
28 1 7.61737 4.45112 2.66621 
29 1 7.61785 2.66604 4.45086 
30 1 9.38577 4.44948 4.45002 
36 1 6.04508 1.07624 6.04449 
37 1 6.9292 0.170785 6.94236 
38 1 5.15401 0.176672 5.15174 
39 1 5.15255 1.97068 6.94183 
40 1 6.93379 1.97748 5.14422 
21 1 6.04344 6.04095 1.07222 
22 1 5.15411 6.93888 1.96639 
23 1 6.93293 5.14273 1.97655 
24 1 5.15192 5.14888 0.173054 
25 1 6.92821 6.94088 0.170358 
6 1 8.50839 8.53993 8.53946 
7 1 9.374 9.42598 9.41447 
8 1 7.60965 7.6336 9.43115 
9 1 7.60963 9.4315 7.63351 
10 1 9.3908 7.63488 7.6349 
ITEM: TIMESTEP
153
ITEM: NUMBER OF ATOMS
42
ITEM: BOX BOUNDS pp pp pp
1.8240441752538278e-02 9.8797595582474500e+00
-2.8872505787749494e-02 9.9268725057877631e+00
-2.7364693890124334e-02 9.9253646938901063e+00
ITEM: ATOMS id type x y z 
1 1 0.981784 1.03441 1.06085 
2 1 0.173476 0.180959 0.178018 
3 1 2.06007 1.9737 0.165348 
4 1 0.180704 1.91982 1.92274 
5 1 1.95574 0.0462567 1.96824 
41 2 2.31958 1.94058 2.07546 
42 3 3.10519 1.6396 1.66956 
11 1 3.56951 3.56626 8.51991 
12 1 2.64785 2.68539 9.3406 