ITEM: TIMESTEP
0
ITEM: NUMBER OF ATOMS
129
ITEM: BOX BOUNDS xy xz yz pp pp pp
0.0000000000000000e+00 2.3654499999999999e+01 7.8845000000000001e+00
0.0000000000000000e+00 1.3658086643083999e+01 0.0000000000000000e+00
0.0000000000000000e+00 2.5747000000000000e+01 0.0000000000000000e+00
ITEM: ATOMS id type x y z 
18 1 10.522 6.683 2.644 
28 1 5.247 4.273 12.803 
31 1 9.65 6.514 0.446 
62 1 9.171 5.15 12.405 
91 1 9.65 6.514 11.889 
92 1 10.81 6.18 11.007 
106 1 10.522 6.683 9.691 
127 1 10.81 6.18 1.328 
4 1 4.402 5.735 13.319 
5 1 3.307 5.568 14.201 
43 1 4.549 6.796 15.517 
52 1 9.172 5.15 25.677 
66 1 4.402 5.735 24.762 
67 1 5.003 6.76 23.881 
88 1 5.247 4.273 25.278 
107 1 3.307 5.568 23.881 
116 1 4.549 6.796 22.565 
117 1 5.003 6.76 14.201 
11 1 11.272 7.494 3.321 
12 1 10.477 8.871 4.018 
14 1 9.018 11.397 0.446 
15 1 10.114 11.565 1.328 
16 1 8.412 9.024 0.654 
19 1 10.477 8.871 5.569 
29 1 10.927 10.156 3.321 
32 1 8.77 7.648 1.328 
35 1 12.036 9.594 2.644 
45 1 9.231 8.963 3.321 
47 1 12.762 8.702 0.446 
49 1 11.224 11 0.654 
51 1 8.872 10.337 2.644 
53 1 11.272 7.494 9.014 
54 1 10.477 8.871 8.317 
56 1 9.018 11.397 11.889 
57 1 8.418 10.372 11.007 
58 1 11.224 11 11.681 
60 1 12.255 7.901 9.691 
61 1 10.477 8.871 6.766 
73 1 9.231 8.963 9.014 
75 1 12.762 8.702 11.889 
76 1 12.202 10.061 11.007 
79 1 9.224 7.617 9.691 
80 1 8.174 12.859 12.405 
89 1 10.927 10.156 9.014 
93 1 8.412 9.024 11.681 
95 1 9.951 11.095 9.691 
105 1 10.114 11.565 11.007 
109 1 8.77 7.648 11.007 
110 1 12.036 9.594 9.691 
114 1 8.872 10.337 9.691 
119 1 8.418 10.372 1.328 
120 1 12.255 7.901 2.644 
123 1 12.202 10.061 1.328 
124 1 9.224 7.617 2.644 
128 1 9.951 11.095 2.644 
129 2 8.124 7.617 9.691 
6 1 5.009 8.108 13.527 
13 1 9.663 10.28 25.128 
17 1 9.204 8.965 25.162 
30 1 10.016 7.556 25.128 
34 1 11.289 7.464 25.162 
36 1 8.174 12.859 25.677 
46 1 11.752 8.777 25.128 
50 1 10.937 10.184 25.162 
55 1 9.663 10.28 12.954 
59 1 10.937 10.184 12.919 
74 1 11.752 8.777 12.954 
78 1 11.289 7.464 12.919 
90 1 10.016 7.556 12.954 
94 1 9.204 8.965 12.919 
101 1 5.009 8.108 24.555 
33 1 11.795 6.589 0.654 
77 1 11.795 6.589 11.681 
41 1 17.967 6.132 13.527 
68 1 17.967 6.132 24.554 
103 1 19.24 6.037 22.565 
126 1 19.24 6.037 15.517 
3 1 19.528 6.852 12.254 
7 1 19.987 8.167 12.289 
10 1 15.106 8.528 12.804 
22 1 19.175 9.576 12.254 
26 1 17.902 9.668 12.289 
38 1 17.439 8.356 12.254 
42 1 18.254 6.949 12.289 
44 1 20.019 11.982 12.804 
48 1 12.546 7.4 1.328 
65 1 19.528 6.852 0.081 
69 1 18.254 6.949 0.046 
82 1 17.439 8.356 0.081 
86 1 17.902 9.668 0.046 
96 1 14.084 8.604 12.405 
98 1 19.175 9.576 0.081 
102 1 19.987 8.167 0.046 
113 1 12.546 7.4 11.007 
1 1 17.919 9.638 16.194 
2 1 18.714 8.261 16.892 
8 1 18.669 10.449 15.517 
9 1 18.714 8.261 18.442 
20 1 14.084 8.604 25.677 
21 1 18.264 6.977 16.194 
23 1 19.541 10.618 13.32 
24 1 20.421 9.484 14.201 
25 1 17.396 10.544 13.527 
27 1 17.155 7.538 15.517 
37 1 19.96 8.169 16.194 
39 1 16.429 8.43 13.319 
40 1 16.644 9.732 14.201 
63 1 17.919 9.638 21.888 
64 1 18.714 8.261 21.19 
70 1 16.936 9.231 22.565 
71 1 18.714 8.261 19.64 
72 1 20.019 11.982 25.278 
81 1 19.96 8.169 21.888 
83 1 16.429 8.43 24.762 
84 1 16.989 7.071 23.881 
85 1 17.396 10.544 24.555 
87 1 19.967 9.515 22.565 
97 1 18.263 6.977 21.888 
99 1 19.541 10.618 24.762 
100 1 18.38 10.953 23.881 
104 1 15.106 8.528 25.278 
108 1 18.669 10.449 22.565 
111 1 20.421 9.484 23.881 
112 1 17.155 7.538 22.565 
115 1 16.644 9.732 23.881 
118 1 16.936 9.231 15.517 
121 1 16.989 7.071 14.201 
122 1 19.967 9.515 15.517 
125 1 18.38 10.953 14.201 
ITEM: TIMESTEP
10
ITEM: NUMBER OF ATOMS
129
ITEM: BOX BOUNDS xy xz yz pp pp pp
0.0000000000000000e+00 2.3654499999999999e+01 7.8845000000000001e+00
0.0000000000000000e+00 1.3658086643083999e+01 0.0000000000000000e+00
0.0000000000000000e+00 2.5747000000000000e+01 0.0000000000000000e+00
ITEM: ATOMS id type x y z 
18 1 10.3824 6.74337 2.64772 
28 1 5.17173 4.42601 12.8499 
31 1 9.44701 6.47932 0.416033 
62 1 9.16121 5.23276 12.3876 
91 1 9.48727 6.46002 11.9668 
92 1 10.8401 6.15983 10.9788 
106 1 10.4249 6.7188 9.69576 
127 1 10.831 6.16985 1.35473 
4 1 4.44055 5.78499 13.2577 
5 1 3.2277 5.57348 14.2134 
43 1 4.58632 6.92506 15.5027 
52 1 9.16114 5.24846 25.7064 
66 1 4.45301 5.76827 24.814 
67 1 5.06515 6.89271 23.9101 
88 1 5.17308 4.42379 25.231 
107 1 3.21993 5.57912 23.871 
116 1 4.58756 6.9223 22.577 
117 1 5.07155 6.89133 14.1644 
11 1 11.3286 7.55294 3.33359 
12 1 10.4915 8.83664 4.10473 
14 1 8.98305 11.3382 0.37977 
15 1 10.1916 11.5609 1.33801 
16 1 8.46871 8.95265 0.708614 
19 1 10.473 8.86661 5.55098 
29 1 10.9455 10.1383 3.32432 
32 1 8.75839 7.71695 1.27869 
35 1 12.011 9.56919 2.57959 
45 1 9.24281 8.97138 3.25693 
47 1 12.7698 8.74339 0.55564 
49 1 11.2835 10.9627 0.670971 
51 1 8.83274 10.2056 2.62581 
53 1 11.3285 7.53762 8.99606 
54 1 10.5447 8.86938 8.22162 
56 1 8.99431 11.3654 11.9282 
57 1 8.34395 10.266 11.055 
58 1 11.3024 10.9229 11.6892 
60 1 12.2646 8.00728 9.63694 
61 1 10.4821 8.87384 6.77546 
73 1 9.22259 9.09637 9.00916 
75 1 12.7518 8.77087 11.7888 
76 1 12.2171 10.0628 11.0135 
79 1 9.19404 7.5582 9.67449 
80 1 8.2549 12.698 12.3555 
89 1 10.9664 10.1444 8.9835 
93 1 8.46886 8.98216 11.6552 
95 1 10.0481 11.1035 9.65915 
105 1 10.2035 11.5472 11.041 
109 1 8.64551 7.69387 11.0916 
110 1 12.0454 9.59099 9.74709 
114 1 8.8049 10.225 9.71465 
119 1 8.35415 10.2404 1.28944 
120 1 12.2525 8.03043 2.69106 
123 1 12.1875 10.0574 1.262 
124 1 9.24519 7.65206 2.56871 
128 1 10.0292 11.067 2.64486 
129 2 8.05103 7.52064 9.6836 
6 1 4.95166 8.18971 13.5855 
13 1 9.55259 10.3191 25.1559 
17 1 9.19758 8.96504 25.1958 
30 1 9.96305 7.68757 25.1059 
34 1 11.2977 7.46265 25.1248 
36 1 8.24912 12.7066 25.7237 
46 1 11.6682 8.80047 25.0551 
50 1 11.0471 10.1147 25.2501 
55 1 9.59706 10.3104 12.9748 
59 1 10.9928 10.1194 12.8842 
74 1 11.6676 8.83293 13.0054 
78 1 11.31 7.48886 12.9568 
90 1 9.96598 7.67885 13.0016 
94 1 9.20262 8.93819 12.8853 
101 1 4.97615 8.18512 24.4686 
33 1 11.7535 6.56748 0.666827 
77 1 11.753 6.56773 11.6876 
41 1 17.9073 6.1697 13.5467 
68 1 17.896 6.19107 24.5378 
103 1 19.1654 6.06423 22.5634 
126 1 19.1623 6.06574 15.5149 
3 1 19.6434 6.80207 12.2674 
7 1 19.9911 8.16996 12.3235 
10 1 15.1396 8.48643 12.8343 
22 1 19.2218 9.44346 12.2338 
26 1 17.8947 9.67078 12.2551 
38 1 17.5243 8.33896 12.1808 
42 1 18.1446 7.02355 12.3761 
44 1 20.0303 11.8842 12.8335 
48 1 12.5993 7.51577 1.38116 
65 1 19.652 6.75298 0.0968951 
69 1 18.2482 7.08416 -0.017723 
82 1 17.542 8.33769 0.158929 
86 1 17.887 9.68427 0.0901974 
96 1 14.0367 8.64887 12.3713 
98 1 19.2018 9.45943 0.0910244 
102 1 19.8951 8.1319 0.0508804 
113 1 12.6015 7.51669 10.9606 
1 1 17.8628 9.58168 16.2062 
2 1 18.7013 8.29456 16.9792 
8 1 18.8078 10.3852 15.5175 
9 1 18.7171 8.26306 18.4282 
20 1 14.0426 8.64413 25.7116 
21 1 18.2468 6.99267 16.1986 
23 1 19.7465 10.6537 13.2939 
24 1 20.4247 9.40981 14.1486 
25 1 17.4383 10.5642 13.5389 
27 1 17.1794 7.56336 15.4531 
37 1 19.9474 8.16094 16.1302 
39 1 16.4203 8.38855 13.4296 
40 1 16.5906 9.61478 14.2534 
63 1 17.8625 9.58034 21.8755 
64 1 18.7004 8.29583 21.1029 
70 1 16.9375 9.10755 22.5179 
71 1 18.717 8.26332 19.6527 
72 1 20.0309 11.8886 25.2501 
81 1 19.9481 8.16496 21.9559 
83 1 16.4193 8.37889 24.6422 
84 1 16.991 7.07568 23.9144 
85 1 17.4335 10.5689 24.5381 
87 1 19.9382 9.48058 22.6401 
97 1 18.2513 6.99249 21.8777 
99 1 19.7455 10.6485 24.7937 
100 1 18.3597 10.9639 23.8518 
104 1 15.1459 8.48704 25.2426 
108 1 18.8139 10.3848 22.5626 
111 1 20.4258 9.41121 23.9286 
112 1 17.1715 7.5581 22.6361 
115 1 16.5906 9.6138 23.8271 
118 1 16.9389 9.10211 15.564 
121 1 17.0009 7.07645 14.1352 
122 1 19.9465 9.48178 15.4341 
125 1 18.3584 10.9622 14.2295 
ITEM: TIMESTEP
20
ITEM: NUMBER OF ATOMS
129
ITEM: BOX BOUNDS xy xz yz pp pp pp
0.0000000000000000e+00 2.3654499999999999e+01 7.8845000000000001e+00
0.0000000000000000e+00 1.3658086643083999e+01 0.0000000000000000e+00
0.0000000000000000e+00 2.5747000000000000e+01 0.0000000000000000e+00
ITEM: ATOMS id type x y z 
18 1 10.3893 6.74897 2.64193 
28 1 5.15154 4.47208 12.8605 
31 1 9.44277 6.50878 0.419404 
62 1 9.14738 5.2392 12.391 
91 1 9.48694 6.47081 11.9632 
92 1 10.8323 6.17095 10.9826 
106 1 10.4141 6.72995 9.70347 
127 1 10.8174 6.17996 1.36186 
4 1 4.4322 5.80855 13.2499 
5 1 3.22552 5.57962 14.2075 
43 1 4.57377 6.93668 15.4958 
52 1 9.14358 5.25114 25.7045 
66 1 4.43914 5.77035 24.807 
67 1 5.07348 6.89854 23.8927 
88 1 5.15218 4.47066 25.2174 
107 1 3.21026 5.61697 23.8847 
116 1 4.57109 6.92987 22.5809 
117 1 5.07711 6.89505 14.1794 
11 1 11.3233 7.56371 3.34318 
12 1 10.4864 8.84667 4.09179 
14 1 8.99502 11.3298 0.381225 
15 1 10.1947 11.544 1.33715 
16 1 8.43523 8.92975 0.711608 
19 1 10.4715 8.86542 5.55125 
29 1 10.9562 10.1362 3.32133 
32 1 8.74627 7.69012 1.29042 
35 1 12.0097 9.58874 2.57719 
45 1 9.2348 8.9483 3.26111 
47 1 12.7449 8.74691 0.536349 
49 1 11.2879 10.9944 0.684944 
51 1 8.85116 10.1988 2.62585 
53 1 11.3315 7.55524 8.98996 
54 1 10.5269 8.87486 8.23153 
56 1 8.99363 11.3539 11.932 
57 1 8.33699 10.2598 11.0554 
58 1 11.3331 10.9367 11.6856 
60 1 12.266 8.00679 9.63284 
61 1 10.4851 8.87421 6.77347 
73 1 9.24183 9.09085 9.0204 
75 1 12.723 8.78971 11.7905 
76 1 12.2338 10.0531 11.0175 
79 1 9.16364 7.58024 9.68002 
80 1 8.27718 12.6511 12.3424 
89 1 11.0046 10.1453 8.96604 
93 1 8.44258 8.9735 11.6529 
95 1 10.0293 11.0676 9.64139 
105 1 10.2079 11.5268 11.0393 
109 1 8.64533 7.66898 11.0883 
110 1 12.061 9.60374 9.74507 
114 1 8.78905 10.2334 9.72756 
119 1 8.33688 10.2384 1.30836 
120 1 12.2527 8.03686 2.70445 
123 1 12.1948 10.0555 1.25756 
124 1 9.23253 7.66255 2.55918 
128 1 10.0298 11.0553 2.64432 
129 2 8.04486 7.50282 9.66086 
6 1 4.98507 8.19257 13.5827 
13 1 9.59936 10.3059 25.1556 
17 1 9.17782 8.95412 25.1608 
30 1 9.94445 7.69116 25.0961 
34 1 11.2906 7.48305 25.1218 
36 1 8.26919 12.6609 25.7338 
46 1 11.6921 8.79247 25.0793 
50 1 11.0436 10.1298 25.2419 
55 1 9.61343 10.2924 12.9904 
59 1 10.9915 10.1088 12.8969 
74 1 11.6744 8.84583 12.986 
78 1 11.3007 7.50777 12.9597 
90 1 9.94599 7.68774 13.0097 
94 1 9.19704 8.94056 12.9024 
101 1 4.98555 8.19889 24.4981 
33 1 11.7478 6.58016 0.678481 
77 1 11.7495 6.58881 11.6724 
41 1 17.8991 6.14385 13.5513 
68 1 17.8922 6.1948 24.5322 
103 1 19.1629 6.07032 22.5625 
126 1 19.1613 6.07931 15.5269 
3 1 19.5915 6.82755 12.2878 
7 1 20.0072 8.16714 12.289 
10 1 15.1385 8.47762 12.8365 
22 1 19.244 9.43695 12.223 
26 1 17.9011 9.65207 12.2493 
38 1 17.5015 8.34148 12.2049 
42 1 18.1581 7.00625 12.3716 
44 1 20.0479 11.8811 12.8317 
48 1 12.5873 7.51714 1.38426 
65 1 19.6231 6.76447 0.113625 
69 1 18.2513 7.06482 -0.00598671 
82 1 17.5291 8.33662 0.127993 
86 1 17.8848 9.66457 0.0915123 
96 1 14.0345 8.65799 12.3674 
98 1 19.2257 9.44387 0.0957219 
102 1 19.9308 8.15218 0.0469967 
113 1 12.5819 7.52333 10.957 
1 1 17.8673 9.5692 16.2169 
2 1 18.7065 8.2824 16.9651 
8 1 18.8008 10.3821 15.5144 
9 1 18.7186 8.26411 18.4299 
20 1 14.0376 8.65412 25.7165 
21 1 18.2366 6.99917 16.1959 
23 1 19.7467 10.6273 13.2934 
24 1 20.4438 9.44323 14.1616 
25 1 17.442 10.5518 13.5527 
27 1 17.182 7.54264 15.4527 
37 1 19.9531 8.18377 16.1339 
39 1 16.4461 8.3859 13.41 
40 1 16.6038 9.61438 14.2571 
63 1 17.8653 9.57073 21.8642 
64 1 18.7047 8.28264 21.1132 
70 1 16.9336 9.11464 22.505 
71 1 18.7183 8.26417 19.6514 
72 1 20.0474 11.8815 25.2505 
81 1 19.9578 8.1851 21.9492 
83 1 16.4538 8.36141 24.6593 
84 1 16.9815 7.07099 23.9125 
85 1 17.4394 10.5549 24.5275 
87 1 19.9548 9.46996 22.6471 
97 1 18.2468 6.99342 21.8756 
99 1 19.7461 10.6226 24.7925 
100 1 18.3731 10.9532 23.8486 
104 1 15.152 8.47711 25.2372 
108 1 18.8048 10.3855 22.567 
111 1 20.4392 9.43349 23.9259 
112 1 17.1635 7.5285 22.6293 
115 1 16.605 9.6119 23.824 
118 1 16.9378 9.09669 15.5767 
121 1 16.996 7.0768 14.1274 
122 1 19.9572 9.4679 15.4342 
125 1 18.372 10.9531 14.2353 
ITEM: TIMESTEP
30
ITEM: NUMBER OF ATOMS
129
ITEM: BOX BOUNDS xy xz yz pp pp pp
0.0000000000000000e+00 2.3654499999999999e+01 7.8845000000000001e+00
0.0000000000000000e+00 1.3658086643083999e+01 0.0000000000000000e+00
0.0000000000000000e+00 2.5747000000000000e+01 0.0000000000000000e+00
ITEM: ATOMS id type x y z 
18 1 10.3852 6.75433 2.65947 
28 1 5.10896 4.57435 12.8811 
31 1 9.41764 6.54337 0.414807 
62 1 9.11359 5.25082 12.3996 
91 1 9.46786 6.4992 11.9535 
92 1 10.8099 6.19969 10.9782 
106 1 10.3936 6.7807 9.71436 
127 1 10.8018 6.1923 1.3486 
4 1 4.4328 5.83368 13.2741 
5 1 3.22223 5.59959 14.2137 
43 1 4.56038 6.95819 15.4856 
52 1 9.10451 5.27164 25.7058 
66 1 4.44041 5.81465 24.8161 
67 1 5.05867 6.93814 23.896 
88 1 5.11546 4.55796 25.1927 
107 1 3.19076 5.65133 23.883 
116 1 4.56514 6.95589 22.5954 
117 1 5.0769 6.93557 14.1771 
11 1 11.3311 7.59641 3.36523 
12 1 10.4874 8.8502 4.08897 
14 1 8.99003 11.2957 0.392434 
15 1 10.2057 11.532 1.34196 
16 1 8.39171 8.91541 0.697881 
19 1 10.4709 8.86576 5.55615 
29 1 10.9579 10.1291 3.32927 
32 1 8.6938 7.66852 1.27472 
35 1 12.028 9.60146 2.57027 
45 1 9.22219 8.93727 3.27009 
47 1 12.6966 8.75061 0.516651 
49 1 11.3203 11.025 0.678629 
51 1 8.85862 10.1752 2.61266 
53 1 11.3167 7.57789 8.98829 
54 1 10.5104 8.88906 8.24766 
56 1 9.01467 11.3269 11.9291 
57 1 8.3223 10.237 11.0675 
58 1 11.3426 10.9529 11.6756 
60 1 12.2659 8.02189 9.61638 
61 1 10.486 8.873 6.77237 
73 1 9.3032 9.151 9.07525 
75 1 12.6984 8.8127 11.7917 
76 1 12.2715 10.0672 11.0103 
79 1 9.12928 7.62087 9.68797 
80 1 8.3203 12.5592 12.3176 
89 1 11.0387 10.1513 8.9437 
93 1 8.38562 8.93287 11.6574 
95 1 10.0056 10.9338 9.64566 
105 1 10.2259 11.4389 11.0012 
109 1 8.65077 7.64379 11.1123 
110 1 12.0946 9.61552 9.73229 
114 1 8.76264 10.2405 9.73355 
119 1 8.33971 10.1922 1.30566 
120 1 12.2565 8.05778 2.72051 
123 1 12.2178 10.0726 1.2564 
124 1 9.20565 7.66064 2.55675 
128 1 10.0273 11.0497 2.65431 
129 2 8.01603 7.45985 9.58972 
6 1 5.02803 8.21745 13.5706 
13 1 9.64382 10.254 25.1489 
17 1 9.13905 8.94789 25.154 
30 1 9.92696 7.71818 25.0698 
34 1 11.259 7.48502 25.1162 
36 1 8.31068 12.5608 25.7537 
46 1 11.7185 8.79418 25.119 
50 1 11.0583 10.1685 25.2429 
55 1 9.63591 10.2648 13.0196 
59 1 10.9949 10.1358 12.8946 
74 1 11.689 8.85468 12.9789 
78 1 11.2686 7.52147 12.9537 
90 1 9.92359 7.70149 13.0296 
94 1 9.17856 8.94207 12.9265 
101 1 5.02168 8.20717 24.5097 
33 1 11.7296 6.6091 0.692829 
77 1 11.7255 6.62696 11.6634 
41 1 17.8659 6.10366 13.5596 
68 1 17.8589 6.20141 24.5431 
103 1 19.1604 6.07455 22.555 
126 1 19.1635 6.08666 15.5299 
3 1 19.5638 6.86857 12.267 
7 1 20.0561 8.1945 12.2824 
10 1 15.1303 8.46331 12.8365 
22 1 19.2653 9.40978 12.1973 
26 1 17.9298 9.64461 12.2434 
38 1 17.4697 8.34847 12.2488 
42 1 18.1167 6.96671 12.3627 
44 1 20.087 11.8603 12.8331 
48 1 12.5663 7.54616 1.39417 
65 1 19.6034 6.81116 0.116633 
69 1 18.2353 7.01475 0.0305367 
82 1 17.5012 8.32025 0.0837637 
86 1 17.9129 9.65075 0.0925916 
96 1 14.045 8.67442 12.3666 
98 1 19.2455 9.4306 0.106616 
102 1 19.9997 8.1624 0.0646672 
113 1 12.5611 7.55506 10.949 
1 1 17.8584 9.53337 16.24 
2 1 18.7049 8.27773 16.9649 
8 1 18.8055 10.3798 15.5339 
9 1 18.7218 8.26579 18.4329 
20 1 14.0651 8.6657 25.7062 
21 1 18.237 7.00249 16.2036 
23 1 19.7717 10.5887 13.2894 
24 1 20.4948 9.46219 14.1463 
25 1 17.46 10.5239 13.5665 
27 1 17.1615 7.52974 15.4432 
37 1 19.9655 8.19501 16.1439 
39 1 16.4811 8.38486 13.3833 
40 1 16.6252 9.58172 14.2647 
63 1 17.8703 9.55179 21.8513 
64 1 18.7089 8.27624 21.1165 
70 1 16.9295 9.09925 22.4848 
71 1 18.7217 8.26522 19.6486 
72 1 20.0876 11.8699 25.2535 
81 1 19.9701 8.19935 21.9373 
83 1 16.5021 8.33769 24.6773 
84 1 16.9404 7.06007 23.8907 
85 1 17.4567 10.5262 24.5173 
87 1 19.9711 9.4814 22.653 
97 1 18.2388 6.99464 21.8625 
99 1 19.7718 10.5787 24.8005 
100 1 18.3888 10.9315 23.8409 
104 1 15.1421 8.46586 25.2392 
108 1 18.8034 10.3616 22.564 
111 1 20.48 9.45684 23.937 
112 1 17.1364 7.51453 22.6129 
115 1 16.6285 9.57868 23.8147 
118 1 16.9333 9.07616 15.5929 
121 1 16.9727 7.06303 14.1255 
122 1 19.9871 9.46815 15.4286 
125 1 18.3866 10.9405 14.2205 
ITEM: TIMESTEP
40
ITEM: NUMBER OF ATOMS
129
ITEM: BOX BOUNDS xy xz yz pp pp pp
0.0000000000000000e+00 2.3654499999999999e+01 7.8845000000000001e+00
0.0000000000000000e+00 1.3658086643083999e+01 0.0000000000000000e+00
0.0000000000000000e+00 2.5747000000000000e+01 0.0000000000000000e+00
ITEM: ATOMS id type x y z 
18 1 10.382 6.77831 2.64978 
28 1 5.10234 4.59821 12.8837 
31 1 9.40396 6.55095 0.414583 
62 1 9.09715 5.25732 12.4019 
91 1 9.44224 6.51864 11.9474 
92 1 10.7963 6.21481 10.9683 
106 1 10.3931 6.80057 9.71882 
127 1 10.786 6.20511 1.36392 
4 1 4.42813 5.85244 13.2714 
5 1 3.20541 5.60466 14.2199 
43 1 4.56424 6.965 15.4801 
52 1 9.08554 5.27886 25.7058 
66 1 4.43928 5.82176 24.8092 
67 1 5.06643 6.95788 23.8939 
88 1 5.10932 4.5786 25.1876 
107 1 3.17679 5.66095 23.8798 
116 1 4.5629 6.95963 22.5971 
117 1 5.08238 6.95654 14.1825 
11 1 11.3217 7.59505 3.36523 
12 1 10.4879 8.845 4.09293 
14 1 8.99201 11.2793 0.397154 
15 1 10.2155 11.5281 1.34681 
16 1 8.37488 8.9051 0.690161 
19 1 10.4709 8.8643 5.55981 
29 1 10.9544 10.1241 3.32655 
32 1 8.68031 7.66087 1.27977 
35 1 12.0317 9.61041 2.57146 
45 1 9.22702 8.93163 3.26643 
47 1 12.6962 8.75959 0.518768 
49 1 11.3313 11.03 0.675054 
51 1 8.85617 10.1677 2.6064 
53 1 11.308 7.582 8.98947 
54 1 10.5199 8.89092 8.24577 
56 1 9.01659 11.3002 11.9331 
57 1 8.31788 10.2144 11.0612 
58 1 11.3588 10.9456 11.6749 
60 1 12.2657 8.03015 9.60851 
61 1 10.4852 8.87511 6.77709 
73 1 9.28497 9.11305 9.07382 
75 1 12.6954 8.82265 11.7897 
76 1 12.2873 10.0779 11.0045 
79 1 9.11167 7.62829 9.70142 
80 1 8.32699 12.5428 12.3143 
89 1 11.0412 10.1383 8.94025 
93 1 8.37141 8.91658 11.6708 
95 1 10.0195 10.9567 9.64978 
105 1 10.2375 11.4274 10.998 
109 1 8.66205 7.64252 11.1181 
110 1 12.1046 9.62517 9.72011 
114 1 8.75696 10.2352 9.74741 
119 1 8.33857 10.1748 1.30913 
120 1 12.2559 8.06572 2.72631 
123 1 12.2283 10.0788 1.25406 
124 1 9.20754 7.65376 2.55219 
128 1 10.0257 11.0467 2.65553 
129 2 8.00573 7.44293 9.55874 
6 1 5.04585 8.22662 13.563 
13 1 9.65128 10.2426 25.1436 
17 1 9.13515 8.94456 25.1526 
30 1 9.91886 7.72281 25.0593 
34 1 11.2533 7.49025 25.1195 
36 1 8.3196 12.5326 25.7574 
46 1 11.7118 8.79733 25.1192 
50 1 11.071 10.1672 25.2505 
55 1 9.6367 10.2513 13.0248 
59 1 10.9988 10.1404 12.8955 
74 1 11.6778 8.8547 12.9828 
78 1 11.2631 7.52373 12.956 
90 1 9.92268 7.71708 13.0382 
94 1 9.17099 8.94209 12.93 
101 1 5.03308 8.21769 24.5163 
33 1 11.7182 6.6205 0.692846 
77 1 11.7176 6.63866 11.6606 
41 1 17.8594 6.10437 13.5488 
68 1 17.8515 6.20899 24.5445 
103 1 19.1577 6.08354 22.5555 
126 1 19.165 6.08574 15.5296 
3 1 19.5401 6.88809 12.2683 
7 1 20.0568 8.18726 12.2773 
10 1 15.1368 8.45585 12.8389 
22 1 19.272 9.4087 12.1863 
26 1 17.9377 9.64162 12.2462 
38 1 17.4778 8.33583 12.2473 
42 1 18.1204 6.96631 12.3756 
44 1 20.106 11.8532 12.8329 
48 1 12.5642 7.56088 1.39276 
65 1 19.6077 6.8114 0.137249 
69 1 18.24 7.02354 0.0374872 
82 1 17.5002 8.31869 0.0867532 
86 1 17.9194 9.64329 0.0879041 
96 1 14.0386 8.68104 12.3632 
98 1 19.2545 9.43256 0.114164 
102 1 19.9928 8.16387 0.0696513 
113 1 12.5573 7.56778 10.9472 
1 1 17.8709 9.53776 16.2374 
2 1 18.7016 8.2848 16.9683 
8 1 18.8074 10.3501 15.5216 
9 1 18.7228 8.26634 18.4312 
20 1 14.0545 8.67244 25.7098 
21 1 18.2359 7.00722 16.2003 
23 1 19.7849 10.5817 13.2884 
24 1 20.5092 9.47121 14.1528 
25 1 17.4721 10.5127 13.566 
27 1 17.1588 7.52201 15.4439 
37 1 19.9633 8.20078 16.1404 
39 1 16.4869 8.37306 13.3875 
40 1 16.6244 9.57053 14.2649 
63 1 17.8688 9.54593 21.8453 
64 1 18.7046 8.28143 21.1129 
70 1 16.9265 9.08716 22.4771 
71 1 18.7232 8.26577 19.6495 
72 1 20.1056 11.8623 25.2539 
81 1 19.9648 8.20016 21.9411 
83 1 16.5071 8.3256 24.6672 
84 1 16.9246 7.05402 23.8822 
85 1 17.4664 10.5137 24.518 
87 1 19.9793 9.47991 22.6546 
97 1 18.2429 7.0002 21.867 
99 1 19.7847 10.5746 24.8051 
100 1 18.3972 10.9218 23.8408 
104 1 15.1497 8.45956 25.2367 
108 1 18.8098 10.3535 22.5633 
111 1 20.4993 9.46171 23.9351 
112 1 17.1333 7.50758 22.6039 
115 1 16.6351 9.56263 23.8143 
118 1 16.9358 9.06641 15.6004 
121 1 16.9627 7.05563 14.1261 
122 1 19.9804 9.47986 15.4253 
125 1 18.4048 10.927 14.2406 
ITEM: TIMESTEP
50
ITEM: NUMBER OF ATOMS
129
ITEM: BOX BOUNDS xy xz yz pp pp pp
0.0000000000000000e+00 2.3654499999999999e+01 7.8845000000000001e+00
0.0000000000000000e+00 1.3658086643083999e+01 0.0000000000000000e+00
0.0000000000000000e+00 2.5747000000000000e+01 0.0000000000000000e+00
ITEM: ATOMS id type x y z 
18 1 10.3744 6.79583 2.64993 
28 1 5.09209 4.64008 12.8873 
31 1 9.37862 6.56007 0.410286 
62 1 9.06485 5.27592 12.4024 
91 1 9.40105 6.54806 11.9474 
92 1 10.7757 6.24263 10.9663 
106 1 10.395 6.81622 9.71799 
127 1 10.7668 6.2233 1.36676 
4 1 4.41592 5.88617 13.2745 
5 1 3.18853 5.61569 14.2265 
43 1 4.56838 6.97539 15.474 
52 1 9.04765 5.2912 25.7056 
66 1 4.42794 5.85211 24.8038 
67 1 5.07268 6.9852 23.8961 
88 1 5.10251 4.60957 25.1802 
107 1 3.15979 5.67885 23.8819 
116 1 4.56369 6.96803 22.6029 
117 1 5.08774 6.98928 14.1836 
11 1 11.3217 7.60652 3.37151 
12 1 10.4901 8.83578 4.09897 
14 1 9.00516 11.2453 0.401777 
15 1 10.2316 11.5167 1.353 
16 1 8.34533 8.88596 0.677467 
19 1 10.4707 8.86213 5.56222 
29 1 10.954 10.1191 3.3228 
32 1 8.64842 7.6493 1.27825 
35 1 12.0386 9.62358 2.57636 
45 1 9.22868 8.92434 3.26439 
47 1 12.6986 8.77766 0.524638 
49 1 11.3483 11.0407 0.676644 
51 1 8.85332 10.1569 2.60073 
53 1 11.3061 7.59076 8.9873 
54 1 10.5284 8.88294 8.24326 
56 1 9.02594 11.2549 11.9318 
57 1 8.30966 10.175 11.0665 
58 1 11.3812 10.9353 11.6731 
60 1 12.2682 8.05006 9.60036 
61 1 10.4838 8.87861 6.77974 
73 1 9.25823 9.09415 9.07682 
75 1 12.6896 8.84184 11.7865 
76 1 12.3169 10.0925 10.9871 
79 1 9.08181 7.63465 9.68692 
80 1 8.33892 12.5131 12.309 
89 1 11.0412 10.135 8.94473 
93 1 8.3426 8.89841 11.6969 
95 1 10.0301 10.9656 9.64577 
105 1 10.2484 11.404 11.0058 
109 1 8.64106 7.6308 11.1117 
110 1 12.1296 9.63884 9.70359 
114 1 8.76227 10.2202 9.75823 
119 1 8.33308 10.143 1.31063 
120 1 12.2548 8.08133 2.7322 
123 1 12.2494 10.093 1.25315 
124 1 9.19152 7.65149 2.5479 
128 1 10.0228 11.041 2.65579 
129 2 7.99923 7.41608 9.54371 
6 1 5.07519 8.24571 13.5508 
13 1 9.65928 10.2298 25.1442 
17 1 9.12948 8.94099 25.1474 
30 1 9.90725 7.72487 25.0421 
34 1 11.2431 7.49442 25.1215 
36 1 8.32894 12.4923 25.7604 
46 1 11.7032 8.79932 25.1168 
50 1 11.0845 10.1653 25.2544 
55 1 9.63779 10.2448 13.0302 
59 1 11.0069 10.1439 12.8976 
74 1 11.673 8.86011 12.9869 
78 1 11.2536 7.53008 12.9563 
90 1 9.916 7.72341 13.055 
94 1 9.15346 8.93803 12.9452 
101 1 5.05258 8.23641 24.5283 
33 1 11.6994 6.64281 0.698644 
77 1 11.7009 6.66236 11.6557 
41 1 17.8432 6.09263 13.5497 
68 1 17.8405 6.22458 24.5496 
103 1 19.1561 6.0935 22.5573 
126 1 19.168 6.08994 15.5288 
3 1 19.5337 6.90203 12.2699 
7 1 20.0615 8.19044 12.2724 
10 1 15.1355 8.44967 12.8366 
22 1 19.2836 9.40679 12.1688 
26 1 17.9483 9.63706 12.2488 
38 1 17.4873 8.33319 12.2421 
42 1 18.1052 6.96826 12.3797 
44 1 20.1438 11.8407 12.8326 
48 1 12.5565 7.58409 1.39199 
65 1 19.6116 6.81893 0.151052 
69 1 18.2397 7.02783 0.0466477 
82 1 17.5051 8.31448 0.0907152 
86 1 17.9265 9.63133 0.085731 
96 1 14.0437 8.68481 12.3655 
98 1 19.2684 9.43477 0.129691 
102 1 19.9987 8.16377 0.077009 
113 1 12.5467 7.59185 10.9426 
1 1 17.8677 9.5263 16.2444 
2 1 18.6979 8.29543 16.9724 
8 1 18.8159 10.336 15.5233 
9 1 18.7249 8.26767 18.4302 
20 1 14.0558 8.67879 25.7071 
21 1 18.2367 7.01072 16.1948 
23 1 19.8112 10.5725 13.2843 
24 1 20.5413 9.48218 14.1514 
25 1 17.4905 10.4889 13.5725 
27 1 17.1522 7.50865 15.4495 
37 1 19.9613 8.20637 16.136 
39 1 16.4915 8.35501 13.3977 
40 1 16.6326 9.54994 14.2658 
63 1 17.8653 9.53761 21.8372 
64 1 18.7005 8.29353 21.1075 
70 1 16.924 9.0705 22.4644 
71 1 18.7259 8.2672 19.6496 
72 1 20.1411 11.8496 25.2551 
81 1 19.9621 8.20465 21.9461 
83 1 16.5059 8.30189 24.6576 
84 1 16.8988 7.03917 23.8716 
85 1 17.482 10.4904 24.5142 
87 1 19.9978 9.478 22.6591 
97 1 18.2421 7.00585 21.8667 
99 1 19.8109 10.5693 24.8089 
100 1 18.4144 10.9028 23.8424 
104 1 15.1503 8.45367 25.2381 
108 1 18.8183 10.3394 22.562 
111 1 20.5319 9.4714 23.9351 
112 1 17.1204 7.49326 22.588 
115 1 16.6482 9.53747 23.8102 
118 1 16.9355 9.05123 15.6044 
121 1 16.9414 7.03931 14.1261 
122 1 19.9985 9.47967 15.4213 
125 1 18.4228 10.9094 14.2406 
ITEM: TIMESTEP
60
ITEM: NUMBER OF ATOMS
129
ITEM: BOX BOUNDS xy xz yz pp pp pp
0.0000000000000000e+00 2.3654499999999999e+01 7.8845000000000001e+00
0.0000000000000000e+00 1.3658086643083999e+01 0.0000000000000000e+00
0.0000000000000000e+00 2.5747000000000000e+01 0.0000000000000000e+00
ITEM: ATOMS id type x y z 
18 1 10.3628 6.81341 2.65245 
28 1 5.08974 4.67499 12.8848 
31 1 9.35457 6.57088 0.404949 
62 1 9.01962 5.29555 12.4017 
91 1 9.37176 6.57319 11.9518 
92 1 10.7456 6.27611 10.9722 
106 1 10.3689 6.84561 9.71256 
127 1 10.7421 6.24596 1.36473 
4 1 4.40481 5.91604 13.2843 
5 1 3.1813 5.62762 14.2316 
43 1 4.56893 6.98521 15.4725 
52 1 8.99602 5.30085 25.7034 
66 1 4.42414 5.87683 24.7991 
67 1 5.07673 7.01043 23.8984 
88 1 5.1003 4.63789 25.1733 
107 1 3.14498 5.70235 23.8833 
116 1 4.56461 6.97776 22.6103 
117 1 5.09452 7.01493 14.1821 
11 1 11.321 7.61812 3.37473 
12 1 10.4925 8.83156 4.09645 
14 1 9.01672 11.2134 0.410508 
15 1 10.24 11.5032 1.35793 
16 1 8.31419 8.86521 0.660974 
19 1 10.4708 8.8635 5.57406 
29 1 10.9523 10.1125 3.32354 
32 1 8.61331 7.63221 1.27507 
35 1 12.0491 9.63679 2.57573 
45 1 9.22543 8.9176 3.26618 
47 1 12.7023 8.79226 0.517989 
49 1 11.3657 11.053 0.676621 
51 1 8.85061 10.1455 2.59758 
53 1 11.307 7.60568 8.98217 
54 1 10.515 8.88184 8.24305 
56 1 9.03526 11.2257 11.9351 
57 1 8.30009 10.1483 11.0629 
58 1 11.4003 10.9269 11.6723 
60 1 12.2726 8.07216 9.59154 
61 1 10.4805 8.87372 6.78706 
73 1 9.2621 9.09601 9.08502 
75 1 12.6975 8.86439 11.7875 
76 1 12.3511 10.1029 10.9762 
79 1 9.07049 7.63816 9.67708 
80 1 8.35109 12.4776 12.3037 
89 1 11.0505 10.1358 8.94148 
93 1 8.31743 8.86249 11.7165 
95 1 10.008 10.9299 9.64846 
105 1 10.2551 11.373 11.0018 
109 1 8.60073 7.62776 11.1082 
110 1 12.1612 9.65555 9.68771 
114 1 8.77646 10.2034 9.77273 
119 1 8.32891 10.1158 1.30835 
120 1 12.2527 8.10199 2.73715 
123 1 12.2698 10.11 1.25654 
124 1 9.16953 7.64757 2.54255 
128 1 10.0191 11.0315 2.65618 
129 2 7.9794 7.37829 9.52264 
6 1 5.10768 8.26886 13.5343 
13 1 9.67249 10.2114 25.147 
17 1 9.11639 8.93471 25.1439 
30 1 9.90106 7.72817 25.029 
34 1 11.2324 7.492 25.1169 
36 1 8.3316 12.4568 25.7582 
46 1 11.7018 8.79585 25.1212 
50 1 11.0927 10.1724 25.2633 
55 1 9.6429 10.2291 13.0316 
59 1 11.0125 10.1514 12.9019 
74 1 11.6673 8.86014 12.9853 
78 1 11.2479 7.53337 12.9613 
90 1 9.90856 7.73285 13.0701 
94 1 9.13094 8.93256 12.9665 
101 1 5.07625 8.25383 24.5401 
33 1 11.6827 6.6651 0.707127 
77 1 11.6842 6.68909 11.647 
41 1 17.8241 6.07702 13.552 
68 1 17.8269 6.23847 24.5505 
103 1 19.1546 6.10624 22.5608 
126 1 19.1723 6.10042 15.5292 
3 1 19.5214 6.91786 12.2684 
7 1 20.0771 8.20059 12.2676 
10 1 15.1348 8.4425 12.8343 
22 1 19.2886 9.40536 12.1554 
26 1 17.9592 9.63851 12.2438 
38 1 17.4875 8.33954 12.2478 
42 1 18.0919 6.96034 12.3883 
44 1 20.1953 11.8307 12.8305 
48 1 12.5457 7.60401 1.39638 
65 1 19.619 6.82173 0.169944 
69 1 18.2449 7.03264 0.0558544 
82 1 17.507 8.31469 0.0874544 
86 1 17.9333 9.63127 0.0850289 
96 1 14.0437 8.68835 12.3639 
98 1 19.272 9.43381 0.153435 
102 1 20.0079 8.16979 0.082116 
113 1 12.5337 7.62026 10.9415 
1 1 17.8677 9.51679 16.2473 
2 1 18.6953 8.29914 16.9695 
8 1 18.8277 10.3185 15.5259 
9 1 18.7274 8.2702 18.4307 
20 1 14.0603 8.68642 25.7053 
21 1 18.2391 7.0156 16.1937 
23 1 19.8351 10.5615 13.279 
24 1 20.5765 9.50038 14.1487 
25 1 17.5112 10.4707 13.5783 
27 1 17.1419 7.49443 15.4487 
37 1 19.9644 8.21195 16.1363 
39 1 16.4874 8.33726 13.3879 
40 1 16.6386 9.5315 14.2701 
63 1 17.8642 9.53096 21.8316 
64 1 18.6991 8.29936 21.1086 
70 1 16.9244 9.0492 22.4512 
71 1 18.7288 8.2705 19.6481 
72 1 20.19 11.8387 25.2575 
81 1 19.964 8.20724 21.9452 
83 1 16.5054 8.27893 24.6599 
84 1 16.8764 7.02407 23.8575 
85 1 17.4973 10.4659 24.5071 
87 1 20.0194 9.48258 22.6655 
97 1 18.2399 7.01329 21.8639 
99 1 19.8333 10.5589 24.8087 
100 1 18.4397 10.8786 23.8484 
104 1 15.1479 8.44727 25.2364 
108 1 18.8296 10.3217 22.5617 
111 1 20.566 9.4878 23.9383 
112 1 17.102 7.47834 22.5762 
115 1 16.6613 9.51116 23.8024 
118 1 16.9381 9.0287 15.615 
121 1 16.9223 7.02194 14.1277 
122 1 20.0199 9.48377 15.4159 
125 1 18.4488 10.8869 14.238 
ITEM: TIMESTEP
70
ITEM: NUMBER OF ATOMS
129
ITEM: BOX BOUNDS xy xz yz pp pp pp
0.0000000000000000e+00 2.3654499999999999e+01 7.8845000000000001e+00
0.0000000000000000e+00 1.3658086643083999e+01 0.0000000000000000e+00
0.0000000000000000e+00 2.5747000000000000e+01 0.0000000000000000e+00
ITEM: ATOMS id type x y z 
18 1 10.3559 6.82345 2.65333 
28 1 5.08943 4.69475 12.8826 
31 1 9.34054 6.57545 0.401802 
62 1 8.99234 5.30945 12.4007 
91 1 9.35543 6.58578 11.9533 
92 1 10.7262 6.29787 10.9735 
106 1 10.3669 6.8578 9.71134 
127 1 10.7276 6.25947 1.36317 
4 1 4.4001 5.93443 13.2878 
5 1 3.17583 5.63374 14.2319 
43 1 4.57448 6.99218 15.4682 
52 1 8.96455 5.30726 25.702 
66 1 4.42041 5.89298 24.8018 
67 1 5.0804 7.02484 23.9033 
88 1 5.09998 4.65367 25.1692 
107 1 3.14045 5.71398 23.8851 
116 1 4.56657 6.98357 22.6129 
117 1 5.09596 7.03285 14.1786 
11 1 11.3198 7.62384 3.37529 
12 1 10.4925 8.82863 4.10153 
14 1 9.02106 11.1976 0.415162 
15 1 10.2455 11.4966 1.36015 
16 1 8.29732 8.85359 0.654475 
19 1 10.4699 8.86152 5.56855 
29 1 10.9516 10.1093 3.32245 
32 1 8.59411 7.62529 1.27218 
35 1 12.0545 9.64586 2.57652 
45 1 9.22424 8.91451 3.26529 
47 1 12.7017 8.80008 0.518179 
49 1 11.3756 11.0596 0.678954 
51 1 8.84738 10.1379 2.59551 
53 1 11.3088 7.61304 8.984 
54 1 10.5174 8.88379 8.25317 