ITEM: TIMESTEP
0
ITEM: NUMBER OF ATOMS
81
ITEM: BOX BOUNDS pp pp pp
0.0000000000000000e+00 1.3416000000000000e+01
0.0000000000000000e+00 1.3416000000000000e+01
0.0000000000000000e+00 1.3414999999999999e+01
ITEM: ATOMS id type x y z 
21 1 1.912 1.912 1.912 
22 1 2.794 2.794 2.795 
23 1 0.386 2.099 2.099 
33 1 2.098 2.099 0.386 
37 1 2.099 0.386 2.099 
41 1 4.371 4.372 4.372 
42 1 3.489 3.489 3.489 
43 1 4.184 5.897 4.185 
53 1 4.185 4.185 5.898 
57 1 5.897 4.185 4.185 
4 1 1.912 1.912 11.079 
5 1 2.794 2.794 10.197 
6 1 2.099 0.386 10.892 
16 1 2.098 2.099 12.605 
19 1 0.386 2.099 10.892 
64 1 4.371 4.372 8.62 
65 1 3.489 3.489 9.502 
66 1 5.897 4.185 8.807 
76 1 4.185 4.185 7.094 
79 1 4.184 5.897 8.807 
10 1 1.911 11.079 1.912 
11 1 2.794 10.197 2.795 
12 1 2.099 12.605 2.099 
15 1 2.099 10.892 0.386 
18 1 0.386 10.892 2.099 
67 1 4.372 8.62 4.371 
68 1 3.489 9.502 3.489 
69 1 5.897 8.807 4.185 
74 1 4.185 8.807 5.897 
80 1 4.185 7.094 4.185 
30 1 1.911 11.079 11.079 
31 1 2.794 10.197 10.197 
32 1 0.386 10.892 10.892 
35 1 2.099 10.892 12.605 
38 1 2.099 12.605 10.892 
47 1 4.372 8.62 8.62 
48 1 3.489 9.502 9.502 
49 1 4.184 7.094 8.807 
54 1 4.184 8.807 7.094 
60 1 5.897 8.807 8.807 
7 1 11.08 1.912 1.912 
8 1 10.197 2.794 2.795 
9 1 10.893 0.386 2.099 
14 1 10.893 2.099 0.386 
20 1 12.606 2.099 2.099 
70 1 8.62 4.372 4.372 
71 1 9.502 3.489 3.489 
72 1 7.094 4.185 4.185 
75 1 8.807 4.185 5.897 
78 1 8.807 5.898 4.185 
27 1 11.08 1.912 11.079 
28 1 10.197 2.794 10.197 
29 1 12.606 2.099 10.892 
34 1 10.893 2.099 12.605 
40 1 10.893 0.386 10.892 
50 1 8.62 4.372 8.62 
51 1 9.502 3.489 9.502 
52 1 8.807 5.897 8.807 
55 1 8.807 4.185 7.094 
58 1 7.094 4.185 8.807 
24 1 11.08 11.08 1.912 
25 1 10.197 10.197 2.795 
26 1 12.606 10.892 2.099 
36 1 10.893 10.892 0.386 
39 1 10.893 12.605 2.099 
44 1 8.62 8.62 4.372 
45 1 9.502 9.502 3.489 
46 1 8.807 7.094 4.185 
56 1 8.807 8.807 5.898 
59 1 7.094 8.807 4.185 
1 1 11.08 11.079 11.079 
2 1 10.197 10.197 10.197 
3 1 10.893 12.605 10.892 
13 1 10.893 10.892 12.605 
17 1 12.606 10.892 10.892 
61 1 8.62 8.62 8.62 
62 1 9.502 9.502 9.502 
63 1 7.094 8.807 8.807 
73 1 8.807 8.807 7.094 
77 1 8.807 7.094 8.807 
81 2 11.819 11.448 11.801 
ITEM: TIMESTEP
10
ITEM: NUMBER OF ATOMS
81
ITEM: BOX BOUNDS pp pp pp
0.0000000000000000e+00 1.3416000000000000e+01
0.0000000000000000e+00 1.3416000000000000e+01
0.0000000000000000e+00 1.3414999999999999e+01
ITEM: ATOMS id type x y z 
21 1 1.91447 1.9147 1.91487 
22 1 2.79608 2.79626 2.79703 
23 1 0.38995 2.09897 2.09958 
33 1 2.09893 2.09894 0.390219 
37 1 2.09918 0.39283 2.09912 
41 1 4.37124 4.371 4.37186 
42 1 3.49017 3.48969 3.4899 
43 1 4.18509 5.89588 4.1854 
53 1 4.1854 4.18551 5.89878 
57 1 5.89503 4.18569 4.18559 
4 1 1.92051 1.92707 11.0817 
5 1 2.7981 2.80162 10.1965 
6 1 2.10719 0.408744 10.8862 
16 1 2.10023 2.10211 12.6106 
19 1 0.39545 2.10049 10.8871 
64 1 4.36964 4.36898 8.61619 
65 1 3.49264 3.49263 9.49907 
66 1 5.89315 4.18427 8.80805 
76 1 4.18474 4.18492 7.08684 
79 1 4.18293 5.89225 8.80824 
10 1 1.92436 11.0832 1.92818 
11 1 2.80056 10.196 2.80262 
12 1 2.10189 12.6099 2.10248 
15 1 2.10743 10.8859 0.401063 
18 1 0.397515 10.8853 2.10141 
67 1 4.36952 8.61646 4.36933 
68 1 3.49209 9.49732 3.49144 
69 1 5.89145 8.80826 4.18367 
74 1 4.18319 8.80829 5.8921 
80 1 4.18436 7.08986 4.1848 
30 1 1.95495 11.0962 11.0907 
31 1 2.80788 10.1801 10.1783 
32 1 0.509536 10.9064 10.9146 
35 1 2.11302 10.8859 12.6364 
38 1 2.11476 12.6366 10.8845 
47 1 4.37083 8.60907 8.60955 
48 1 3.49517 9.49083 9.49063 
49 1 4.18295 7.08636 8.807 
54 1 4.18342 8.80697 7.08672 
60 1 5.88261 8.81208 8.81187 
7 1 11.0823 1.92308 1.92208 
8 1 10.1959 2.80059 2.7979 
9 1 10.8865 0.403259 2.10036 
14 1 10.8881 2.10036 0.395664 
20 1 12.6111 2.102 2.10118 
70 1 8.61658 4.36948 4.36982 
71 1 9.49854 3.49216 3.49309 
72 1 7.09044 4.18491 4.18494 
75 1 8.80785 4.18414 5.89211 
78 1 8.80803 5.89307 4.1838 
27 1 11.0915 1.98057 11.0899 
28 1 10.1943 2.81933 10.1937 
29 1 12.6213 2.11824 10.8898 
34 1 10.8909 2.11819 12.6208 
40 1 10.8615 0.452636 10.8557 
50 1 8.61102 4.36436 8.61069 
51 1 9.49036 3.49607 9.49279 
52 1 8.81251 5.88018 8.81239 
55 1 8.80755 4.18263 7.08734 
58 1 7.08721 4.18267 8.8074 
24 1 11.1101 11.107 2.01626 
25 1 10.1836 10.1848 2.81396 
26 1 12.6318 10.8885 2.11799 
36 1 10.8523 10.8707 0.479333 
39 1 10.8896 12.6291 2.11922 
44 1 8.61238 8.61217 4.36778 
45 1 9.49072 9.49086 3.49234 
46 1 8.80727 7.08488 4.18348 
56 1 8.81224 8.81244 5.8855 
59 1 7.08751 8.80732 4.1834 
1 1 10.9603 11.1452 11.153 
2 1 10.1637 10.1952 10.1725 
3 1 10.8111 12.7064 10.8313 
13 1 10.6706 10.751 12.7164 
17 1 12.7008 10.7855 10.8164 
61 1 8.59008 8.58632 8.58959 
62 1 9.48512 9.47266 9.47727 
63 1 7.08223 8.80533 8.80579 
73 1 8.80522 8.8051 7.08093 
77 1 8.80507 7.07971 8.80542 
81 2 12.0342 11.3503 11.5685 
ITEM: TIMESTEP
20
ITEM: NUMBER OF ATOMS
81
ITEM: BOX BOUNDS pp pp pp
0.0000000000000000e+00 1.3416000000000000e+01
0.0000000000000000e+00 1.3416000000000000e+01
0.0000000000000000e+00 1.3414999999999999e+01
ITEM: ATOMS id type x y z 
21 1 1.91467 1.91611 1.91606 
22 1 2.79524 2.79488 2.79457 
23 1 0.389405 2.10285 2.10293 
33 1 2.10229 2.10268 0.391632 
37 1 2.10286 0.39269 2.10306 
41 1 4.3695 4.36922 4.3694 
42 1 3.48932 3.48962 3.49102 
43 1 4.18173 5.89367 4.18216 
53 1 4.18203 4.1822 5.89575 
57 1 5.89428 4.18229 4.18227 
4 1 1.91917 1.9303 11.0832 
5 1 2.79624 2.80302 10.1993 
6 1 2.11536 0.405952 10.8822 
16 1 2.10384 2.1073 12.61 
19 1 0.395209 2.11203 10.8872 
64 1 4.36913 4.36812 8.61522 
65 1 3.49208 3.4948 9.49886 
66 1 5.89273 4.17963 8.81036 
76 1 4.18163 4.18136 7.08769 
79 1 4.17921 5.89138 8.81037 
10 1 1.92326 11.0831 1.92661 
11 1 2.79822 10.1987 2.80278 
12 1 2.1058 12.6105 2.10729 
15 1 2.1158 10.8833 0.400487 
18 1 0.39684 10.8853 2.11124 
67 1 4.37003 8.61464 4.3686 
68 1 3.49295 9.49757 3.49428 
69 1 5.89246 8.81017 4.17986 
74 1 4.17955 8.81037 5.89143 
80 1 4.18146 7.08975 4.18147 
30 1 1.93597 11.0956 11.0913 
31 1 2.81273 10.1895 10.1864 
32 1 0.520227 10.8934 10.9067 
35 1 2.12354 10.8882 12.6318 
38 1 2.12381 12.6326 10.8857 
47 1 4.37132 8.60745 8.60797 
48 1 3.49162 9.4956 9.49368 
49 1 4.18039 7.08695 8.80744 
54 1 4.18078 8.8071 7.08758 
60 1 5.89468 8.80991 8.81011 
7 1 11.0817 1.92313 1.91823 
8 1 10.2 2.79994 2.79685 
9 1 10.886 0.400308 2.10955 
14 1 10.8881 2.11005 0.395221 
20 1 12.6081 2.10504 2.10429 
70 1 8.61559 4.36855 4.36797 
71 1 9.50004 3.49271 3.4916 
72 1 7.0905 4.18169 4.18186 
75 1 8.8102 4.17975 5.89156 
78 1 8.8099 5.89277 4.18032 
27 1 11.0894 1.96587 11.0847 
28 1 10.2023 2.82219 10.2018 
29 1 12.6151 2.12483 10.8884 
34 1 10.8907 2.12445 12.6134 
40 1 10.8537 0.45032 10.8455 
50 1 8.61186 4.36498 8.61125 
51 1 9.49245 3.50162 9.49536 
52 1 8.81026 5.88861 8.81056 
55 1 8.80855 4.1786 7.08753 
58 1 7.08845 4.17879 8.80835 
24 1 11.0919 11.0898 1.96839 
25 1 10.2031 10.2011 2.82312 
26 1 12.6243 10.89 2.1279 
36 1 10.7985 10.8386 0.476831 
39 1 10.8932 12.6191 2.12982 
44 1 8.61245 8.61183 4.36595 
45 1 9.49379 9.49524 3.49272 
46 1 8.80779 7.0876 4.18024 
56 1 8.81003 8.81049 5.8911 
59 1 7.09013 8.80792 4.18013 
1 1 10.9209 11.1442 11.1934 
2 1 10.1519 10.1923 10.1962 
3 1 10.7935 12.6884 10.8694 
13 1 10.7177 10.8246 12.7029 
17 1 12.7264 10.7766 10.8169 
61 1 8.61234 8.60434 8.60623 
62 1 9.49794 9.49633 9.48282 
63 1 7.08784 8.80329 8.80427 
73 1 8.80437 8.80279 7.08408 
77 1 8.80467 7.08239 8.80405 
81 2 12.0241 11.291 11.4911 
ITEM: TIMESTEP
30
ITEM: NUMBER OF ATOMS
81
ITEM: BOX BOUNDS pp pp pp
0.0000000000000000e+00 1.3416000000000000e+01
0.0000000000000000e+00 1.3416000000000000e+01
0.0000000000000000e+00 1.3414999999999999e+01
ITEM: ATOMS id type x y z 
21 1 1.91139 1.91415 1.91668 
22 1 2.79188 2.79576 2.7958 
23 1 0.386452 2.10626 2.10594 
33 1 2.10526 2.10811 0.392988 
37 1 2.10632 0.390951 2.1077 
41 1 4.37036 4.36992 4.36871 
42 1 3.48933 3.48962 3.48868 
43 1 4.17903 5.89219 4.17829 
53 1 4.17873 4.17778 5.89169 
57 1 5.89596 4.17851 4.1788 
4 1 1.91919 1.93809 11.0854 
5 1 2.797 2.8095 10.1993 
6 1 2.12512 0.416347 10.8813 
16 1 2.1079 2.11438 12.6129 
19 1 0.396877 2.12565 10.8881 
64 1 4.36989 4.36957 8.61455 
65 1 3.49135 3.49804 9.49947 
66 1 5.89342 4.17455 8.80941 
76 1 4.17812 4.1778 7.0887 
79 1 4.17678 5.89077 8.80832 
10 1 1.92022 11.0846 1.93504 
11 1 2.8006 10.1994 2.80527 
12 1 2.10906 12.6117 2.11362 
15 1 2.12672 10.8842 0.415119 
18 1 0.399408 10.889 2.12191 
67 1 4.37046 8.61389 4.36838 
68 1 3.49447 9.49982 3.49451 
69 1 5.89254 8.80846 4.17655 
74 1 4.1768 8.80824 5.89234 
80 1 4.17829 7.08714 4.17848 
30 1 1.97381 11.1023 11.0983 
31 1 2.83254 10.1956 10.1916 
32 1 0.551558 10.8607 10.88 
35 1 2.14524 10.8911 12.6357 
38 1 2.1424 12.6385 10.8866 
47 1 4.37983 8.60483 8.60568 
48 1 3.50959 9.49367 9.49001 
49 1 4.17883 7.08636 8.80743 
54 1 4.17934 8.80699 7.08663 
60 1 5.89968 8.80109 8.80256 
7 1 11.0819 1.9212 1.91615 
8 1 10.1982 2.79831 2.79414 
9 1 10.8921 0.398963 2.11834 
14 1 10.8904 2.11798 0.39318 
20 1 12.6079 2.10819 2.10613 
70 1 8.61746 4.36738 4.36666 
71 1 9.50084 3.49056 3.4886 
72 1 7.09218 4.17879 4.17852 
75 1 8.80995 4.17507 5.89137 
78 1 8.80909 5.88999 4.17643 
27 1 11.0894 1.977 11.0827 
28 1 10.2003 2.83719 10.1987 
29 1 12.6167 2.1367 10.8869 
34 1 10.894 2.13452 12.6125 
40 1 10.8214 0.472914 10.8643 
50 1 8.61029 4.37214 8.61072 
51 1 9.49933 3.51116 9.49498 
52 1 8.80403 5.8918 8.804 
55 1 8.80886 4.17553 7.08647 
58 1 7.08813 4.17491 8.8092 
24 1 11.0862 11.0848 1.99021 
25 1 10.2012 10.2022 2.84598 
26 1 12.617 10.8901 2.13542 
36 1 10.7689 10.8389 0.497718 
39 1 10.895 12.6204 2.13978 
44 1 8.60897 8.60933 4.37144 
45 1 9.49822 9.49282 3.51762 
46 1 8.8095 7.08529 4.17555 
56 1 8.80494 8.80361 5.89047 
59 1 7.08547 8.80981 4.17473 
1 1 10.8829 11.1611 11.198 
2 1 10.1268 10.207 10.2118 
3 1 10.7554 12.6994 10.89 
13 1 10.6937 10.8642 12.7257 
17 1 12.7688 10.7142 10.7624 
61 1 8.61698 8.60545 8.60274 
62 1 9.48646 9.49199 9.49012 
63 1 7.09675 8.80278 8.80247 
73 1 8.80786 8.80367 7.08709 
77 1 8.80885 7.08828 8.80427 
81 2 11.993 11.1906 11.3661 
ITEM: TIMESTEP
40
ITEM: NUMBER OF ATOMS
81
ITEM: BOX BOUNDS pp pp pp
0.0000000000000000e+00 1.3416000000000000e+01
0.0000000000000000e+00 1.3416000000000000e+01
0.0000000000000000e+00 1.3414999999999999e+01
ITEM: ATOMS id type x y z 
21 1 1.91135 1.91535 1.91793 
22 1 2.79048 2.7952 2.79699 
23 1 0.385808 2.10832 2.10757 
33 1 2.10661 2.11192 0.394617 
37 1 2.10723 0.392889 2.11182 
41 1 4.36972 4.36761 4.36697 
42 1 3.48986 3.48725 3.48802 
43 1 4.17747 5.88982 4.17561 
53 1 4.17726 4.17537 5.88969 
57 1 5.89608 4.17666 4.17627 
4 1 1.91826 1.9444 11.088 
5 1 2.79739 2.81355 10.2022 
6 1 2.13153 0.424468 10.8833 
16 1 2.10969 2.12056 12.6149 
19 1 0.394599 2.13401 10.8882 
64 1 4.3678 4.36728 8.61075 
65 1 3.49098 3.50003 9.49921 
66 1 5.89237 4.17117 8.80955 
76 1 4.17593 4.17487 7.08466 
79 1 4.17517 5.88759 8.80763 
10 1 1.9166 11.0872 1.94051 
11 1 2.79697 10.2001 2.80832 
12 1 2.11055 12.6148 2.11972 
15 1 2.13487 10.8874 0.422503 
18 1 0.396889 10.891 2.12778 
67 1 4.36726 8.61149 4.36592 
68 1 3.49112 9.49886 3.49622 
69 1 5.8892 8.81031 4.17128 
74 1 4.1745 8.80793 5.88902 
80 1 4.17563 7.08481 4.17534 
30 1 2.02533 11.1105 11.1055 
31 1 2.8658 10.2032 10.1978 
32 1 0.573921 10.8286 10.854 
35 1 2.16649 10.8958 12.6453 
38 1 2.16175 12.6481 10.8904 
47 1 4.3825 8.60215 8.60278 
48 1 3.52642 9.49472 9.48946 
49 1 4.17779 7.08181 8.80688 
54 1 4.17842 8.80574 7.08336 
60 1 5.90547 8.79854 8.79902 
7 1 11.0825 1.91816 1.91559 
8 1 10.1987 2.7958 2.79359 
9 1 10.896 0.39982 2.12323 
14 1 10.8933 2.1239 0.392154 
20 1 12.6079 2.11014 2.10744 
70 1 8.61681 4.36236 4.36397 
71 1 9.50149 3.48641 3.4858 
72 1 7.09028 4.17515 4.17584 
75 1 8.81077 4.17131 5.88872 
78 1 8.81151 5.88496 4.17173 
27 1 11.0895 1.9841 11.0827 
28 1 10.2049 2.84854 10.2001 
29 1 12.6172 2.14627 10.8869 
34 1 10.8959 2.14617 12.6148 
40 1 10.8037 0.487033 10.8793 
50 1 8.60866 4.37258 8.60686 
51 1 9.50095 3.52038 9.49464 
52 1 8.80507 5.89319 8.8017 
55 1 8.80816 4.1738 7.08283 
58 1 7.08616 4.17209 8.80855 
24 1 11.0855 11.0875 2.00313 
25 1 10.2064 10.2034 2.86324 
26 1 12.6164 10.8906 2.14429 
36 1 10.7549 10.8615 0.512291 
39 1 10.8968 12.622 2.15173 
44 1 8.60634 8.60345 4.37392 
45 1 9.4983 9.49525 3.53174 
46 1 8.80821 7.0795 4.17291 
56 1 8.80447 8.80098 5.89337 
59 1 7.08381 8.80818 4.17186 
1 1 10.8542 11.1764 11.2143 
2 1 10.1021 10.2216 10.2351 
3 1 10.7251 12.7111 10.9165 
13 1 10.6743 10.8888 12.7368 
17 1 12.7958 10.677 10.7365 
61 1 8.62319 8.60848 8.60724 
62 1 9.47643 9.50167 9.50054 
63 1 7.10044 8.7999 8.80002 
73 1 8.81195 8.80506 7.08875 
77 1 8.8111 7.08794 8.80431 
81 2 11.9286 11.0783 11.2178 
ITEM: TIMESTEP
50
ITEM: NUMBER OF ATOMS
81
ITEM: BOX BOUNDS pp pp pp
0.0000000000000000e+00 1.3416000000000000e+01
0.0000000000000000e+00 1.3416000000000000e+01
0.0000000000000000e+00 1.3414999999999999e+01
ITEM: ATOMS id type x y z 
21 1 1.91393 1.91571 1.91834 
22 1 2.79367 2.79616 2.7953 
23 1 0.386042 2.11023 2.10974 
33 1 2.10724 2.11477 0.396044 
37 1 2.10743 0.39316 2.11547 
41 1 4.37034 4.36859 4.3676 
42 1 3.48871 3.48891 3.49037 
43 1 4.17671 5.88802 4.17402 
53 1 4.17656 4.17372 5.88817 
57 1 5.89598 4.1743 4.1744 
4 1 1.9178 1.94673 11.0892 
5 1 2.79464 2.81418 10.1997 
6 1 2.1361 0.425172 10.8879 
16 1 2.11004 2.12503 12.6155 
19 1 0.39497 2.13739 10.8879 
64 1 4.3688 4.36476 8.61033 
65 1 3.49322 3.49865 9.49848 
66 1 5.8918 4.16972 8.80841 
76 1 4.17491 4.1728 7.08251 
79 1 4.17399 5.88483 8.80773 
10 1 1.91447 11.0871 1.94105 
11 1 2.79249 10.1996 2.81113 
12 1 2.11051 12.6148 2.12375 
15 1 2.14049 10.8922 0.42208 
18 1 0.398737 10.8911 2.1304 
67 1 4.36719 8.61063 4.36209 
68 1 3.48698 9.49821 3.4983 
69 1 5.88853 8.80915 4.16845 
74 1 4.1733 8.80751 5.88528 
80 1 4.17426 7.08252 4.17284 
30 1 2.04915 11.1141 11.1062 
31 1 2.89 10.2097 10.2056 
32 1 0.594378 10.8222 10.8572 
35 1 2.18162 10.9003 12.6466 
38 1 2.17592 12.6497 10.8947 
47 1 4.38358 8.59897 8.59881 
48 1 3.54286 9.49959 9.49241 
49 1 4.17768 7.07938 8.80586 
54 1 4.17823 8.80474 7.07994 
60 1 5.90736 8.79609 8.79666 
7 1 11.0833 1.91826 1.91641 
8 1 10.1986 2.79503 2.79191 
9 1 10.8959 0.404719 2.1278 
14 1 10.8941 2.12853 0.394267 
20 1 12.6075 2.11195 2.10878 
70 1 8.6154 4.3616 4.36194 
71 1 9.49974 3.48308 3.48731 
72 1 7.09012 4.17281 4.17369 
75 1 8.81083 4.16915 5.886 
78 1 8.81133 5.88321 4.16927 
27 1 11.0894 1.99183 11.083 
28 1 10.2035 2.85292 10.2011 
29 1 12.6167 2.1512 10.8865 
34 1 10.8959 2.15439 12.6162 
40 1 10.7975 0.497228 10.8908 
50 1 8.60638 4.37242 8.6048 
51 1 9.49847 3.52381 9.49354 
52 1 8.80671 5.89295 8.80175 
55 1 8.80851 4.17261 7.08068 
58 1 7.08615 4.17198 8.80713 
24 1 11.0857 11.0904 2.01806 
25 1 10.2063 10.2013 2.87003 
26 1 12.6193 10.8906 2.15072 
36 1 10.754 10.8751 0.521544 
39 1 10.896 12.6268 2.16164 
44 1 8.60362 8.59987 4.37525 
45 1 9.49695 9.4918 3.53568 
46 1 8.80784 7.07777 4.17312 
56 1 8.80549 8.80051 5.89503 
59 1 7.08303 8.80696 4.17215 
1 1 10.8545 11.1721 11.2216 
2 1 10.0712 10.2283 10.2411 
3 1 10.7208 12.726 10.9296 
13 1 10.6692 10.9007 12.7515 
17 1 12.8041 10.6871 10.761 
61 1 8.62427 8.6075 8.60814 
62 1 9.46134 9.50731 9.50795 
63 1 7.10204 8.79933 8.79932 
73 1 8.81558 8.80592 7.08948 
77 1 8.81504 7.0875 8.80556 
81 2 11.864 10.979 11.0702 
ITEM: TIMESTEP
60
ITEM: NUMBER OF ATOMS
81
ITEM: BOX BOUNDS pp pp pp
0.0000000000000000e+00 1.3416000000000000e+01
0.0000000000000000e+00 1.3416000000000000e+01
0.0000000000000000e+00 1.3414999999999999e+01
ITEM: ATOMS id type x y z 
21 1 1.91193 1.9171 1.91869 
22 1 2.79272 2.79462 2.79564 
23 1 0.3886 2.11046 2.10972 
33 1 2.10752 2.11549 0.395518 
37 1 2.10789 0.393691 2.11615 
41 1 4.37056 4.36601 4.36569 
42 1 3.48984 3.48823 3.48892 
43 1 4.17572 5.88991 4.17323 
53 1 4.17573 4.17313 5.88969 
57 1 5.89489 4.17393 4.17404 
4 1 1.91777 1.9466 11.0888 
5 1 2.79573 2.81322 10.2018 
6 1 2.13801 0.428467 10.8894 
16 1 2.10984 2.12586 12.6158 
19 1 0.395936 2.1384 10.8881 
64 1 4.36837 4.36335 8.60878 
65 1 3.4906 3.49815 9.49766 
66 1 5.89131 4.16915 8.80838 
76 1 4.17495 4.17207 7.08451 
79 1 4.17367 5.88548 8.80779 
10 1 1.91766 11.0886 1.94225 
11 1 2.79275 10.2004 2.81071 
12 1 2.10998 12.6149 2.12469 
15 1 2.14274 10.8931 0.423411 
18 1 0.394408 10.8904 2.13183 
67 1 4.36519 8.60917 4.36297 
68 1 3.48725 9.49741 3.49727 
69 1 5.88821 8.80925 4.16786 
74 1 4.17312 8.80721 5.88497 
80 1 4.17417 7.08473 4.17199 
30 1 2.05553 11.1153 11.1099 
31 1 2.8941 10.2094 10.2048 
32 1 0.593447 10.825 10.8631 
35 1 2.18578 10.9015 12.6455 
38 1 2.1794 12.6515 10.8948 
47 1 4.38484 8.59869 8.59843 
48 1 3.54992 9.49885 9.49208 
49 1 4.17761 7.07969 8.80542 
54 1 4.17816 8.80441 7.07922 
60 1 5.90608 8.7952 8.79543 
7 1 11.0842 1.92253 1.91632 
8 1 10.1988 2.79399 2.79358 
9 1 10.8951 0.401276 2.13042 
14 1 10.8939 2.13052 0.394343 
20 1 12.6096 2.11252 2.10957 
70 1 8.61569 4.35953 4.3624 
71 1 9.49947 3.48587 3.48653 
72 1 7.08986 4.17171 4.17263 
75 1 8.81088 4.16867 5.88588 
78 1 8.81144 5.88283 4.16878 
27 1 11.0898 1.99934 11.0861 
28 1 10.2033 2.85335 10.1999 
29 1 12.6172 2.15249 10.886 
34 1 10.8958 2.15661 12.6148 
40 1 10.7961 0.491238 10.8928 
50 1 8.6078 4.37215 8.60304 
51 1 9.49735 3.5251 9.4936 
52 1 8.80756 5.89241 8.80186 
55 1 8.80834 4.17224 7.08035 
58 1 7.08559 4.17147 8.80698 
24 1 11.0874 11.0934 2.01904 
25 1 10.2068 10.201 2.87158 
26 1 12.6157 10.8913 2.15263 
36 1 10.7543 10.8789 0.525172 
39 1 10.8963 12.6231 2.16444 
44 1 8.60361 8.59945 4.37514 
45 1 9.49733 9.49223 3.53678 
46 1 8.8077 7.07716 4.17272 
56 1 8.80616 8.80034 5.89457 
59 1 7.08235 8.80642 4.17166 
1 1 10.8449 11.1764 11.2135 
2 1 10.0651 10.2316 10.2478 
3 1 10.7225 12.7194 10.936 
13 1 10.6729 10.9044 12.7534 
17 1 12.8055 10.6853 10.7613 
61 1 8.62365 8.6058 8.60669 
62 1 9.4554 9.51143 9.51065 
63 1 7.10035 8.79859 8.79901 
73 1 8.81636 8.8064 7.08911 
77 1 8.81595 7.08698 8.8063 
81 2 11.857 10.9588 11.0397 
ITEM: TIMESTEP
70
ITEM: NUMBER OF ATOMS
81
ITEM: BOX BOUNDS pp pp pp
0.0000000000000000e+00 1.3416000000000000e+01
0.0000000000000000e+00 1.3416000000000000e+01
0.0000000000000000e+00 1.3414999999999999e+01
ITEM: ATOMS id type x y z 
21 1 1.91286 1.91695 1.91886 
22 1 2.79266 2.79531 2.79532 
23 1 0.388356 2.11121 2.11054 
33 1 2.10788 2.1168 0.395764 
37 1 2.10809 0.393785 2.11749 
41 1 4.37073 4.36586 4.3654 
42 1 3.48982 3.48823 3.48912 
43 1 4.17527 5.88902 4.17227 
53 1 4.17532 4.17218 5.88907 
57 1 5.89433 4.17287 4.17314 
4 1 1.91797 1.94692 11.0897 
5 1 2.79467 2.81318 10.2013 
6 1 2.1411 0.428751 10.8909 
16 1 2.1099 2.12741 12.616 
19 1 0.395312 2.13983 10.8879 
64 1 4.36779 4.36273 8.60924 
65 1 3.4911 3.49695 9.49744 
66 1 5.89113 4.16828 8.80812 
76 1 4.17417 4.17089 7.08382 
79 1 4.17304 5.8847 8.80757 
10 1 1.9167 11.0889 1.94234 
11 1 2.79358 10.2009 2.80918 
12 1 2.11001 12.6151 2.12615 
15 1 2.14648 10.8952 0.42468 
18 1 0.394746 10.8906 2.13369 
67 1 4.36468 8.60919 4.3615 
68 1 3.48669 9.49735 3.49643 
69 1 5.88758 8.80892 4.16717 
74 1 4.17207 8.8071 5.88416 
80 1 4.17303 7.0838 4.17074 
30 1 2.05988 11.1169 11.1116 
31 1 2.899 10.2124 10.2064 
32 1 0.595211 10.8294 10.8709 
35 1 2.19211 10.9032 12.6467 
38 1 2.1848 12.6517 10.8966 
47 1 4.38495 8.59808 8.59765 
48 1 3.55481 9.50001 9.49515 
49 1 4.17739 7.07893 8.80509 
54 1 4.17783 8.80434 7.07845 
60 1 5.90587 8.79423 8.79426 
7 1 11.0852 1.92268 1.91698 
8 1 10.1996 2.79491 2.79301 
9 1 10.8954 0.403479 2.13354 
14 1 10.8943 2.13343 0.395393 
20 1 12.6097 2.11356 2.11016 
70 1 8.61514 4.35914 4.3615 
71 1 9.49981 3.48504 3.48666 
72 1 7.08919 4.17035 4.17148 
75 1 8.81086 4.16757 5.88533 
78 1 8.81124 5.88177 4.16811 
27 1 11.0892 1.99996 11.0865 
28 1 10.2034 2.85364 10.1995 
29 1 12.6162 2.15478 10.886 
34 1 10.8955 2.16042 12.6157 
40 1 10.797 0.4912 10.8994 
50 1 8.60683 4.37113 8.60223 
51 1 9.49769 3.52627 9.49371 
52 1 8.80893 5.89131 8.80222 
55 1 8.80848 4.17155 7.07961 
58 1 7.0853 4.17104 8.80637 
24 1 11.0859 11.0934 2.02151 
25 1 10.2075 10.2014 2.87464 
26 1 12.6158 10.8912 2.15569 
36 1 10.7564 10.8844 0.523401 
39 1 10.8954 12.625 2.16928 
44 1 8.60241 8.59875 4.37544 
45 1 9.49678 9.49117 3.53771 
46 1 8.80757 7.07596 4.17217 
56 1 8.80704 8.80025 5.89368 
59 1 7.08164 8.80561 4.17121 
1 1 10.8455 11.1718 11.2105 
2 1 10.05 10.2339 10.2502 
3 1 10.7243 12.7216 10.9411 
13 1 10.6792 10.9107 12.7537 
17 1 12.8068 10.6806 10.7584 
61 1 8.62277 8.60448 8.6057 
62 1 9.44314 9.51375 9.51345 
63 1 7.10046 8.79707 8.79772 
73 1 8.81757 8.80675 7.08825 
77 1 8.81741 7.08589 8.80711 
81 2 11.8454 10.9372 11.0058 
ITEM: TIMESTEP
80
ITEM: NUMBER OF ATOMS
81
ITEM: BOX BOUNDS pp pp pp
0.0000000000000000e+00 1.3416000000000000e+01
0.0000000000000000e+00 1.3416000000000000e+01
0.0000000000000000e+00 1.3414999999999999e+01
ITEM: ATOMS id type x y z 
21 1 1.91286 1.91754 1.9184 
22 1 2.79292 2.79387 2.796 
23 1 0.389781 2.11211 2.11113 
33 1 2.10807 2.1181 0.395941 
37 1 2.10821 0.394209 2.1188 
41 1 4.36984 4.36518 4.36585 
42 1 3.4897 3.4885 3.48857 
43 1 4.17447 5.88915 4.17118 
53 1 4.17492 4.17136 5.88923 
57 1 5.89454 4.17158 4.17198 
4 1 1.91647 1.94734 11.0895 
5 1 2.79434 2.81241 10.2013 
6 1 2.1445 0.429525 10.8927 
16 1 2.11009 2.12877 12.6164 
19 1 0.395148 2.14088 10.8884 
64 1 4.36816 4.36126 8.60832 
65 1 3.48878 3.49783 9.49731 
66 1 5.89009 4.16754 8.80775 
76 1 4.17368 4.16979 7.08402 
79 1 4.17268 5.88397 8.8072 
10 1 1.9167 11.0895 1.94301 
11 1 2.79291 10.2016 2.80988 
12 1 2.10996 12.6155 2.12745 
15 1 2.15071 10.8969 0.425229 
18 1 0.392904 10.8907 2.13545 
67 1 4.36356 8.60855 4.36119 
68 1 3.48686 9.4974 3.49574 
69 1 5.88636 8.80834 4.16622 
74 1 4.17154 8.80674 5.88342 
80 1 4.17214 7.08389 4.16931 
30 1 2.06224 11.1176 11.1145 
31 1 2.90495 10.2164 10.2082 
32 1 0.592823 10.8318 10.8749 
35 1 2.198 10.905 12.6473 
38 1 2.18959 12.6525 10.8985 
47 1 4.385 8.59819 8.59788 
48 1 3.55691 9.50103 9.49635 
49 1 4.17701 7.07806 8.80469 
54 1 4.17727 8.80395 7.0776 
60 1 5.90437 8.79281 8.79297 
7 1 11.0854 1.9244 1.91667 
8 1 10.1998 2.79451 2.79367 
9 1 10.8954 0.40244 2.13726 
14 1 10.8947 2.13631 0.395801 
20 1 12.611 2.11461 2.11125 
70 1 8.6143 4.35736 4.36158 
71 1 9.49992 3.48674 3.48569 
72 1 7.0894 4.16904 4.1703 
75 1 8.81087 4.16673 5.88458 
78 1 8.81108 5.88145 4.16737 
27 1 11.089 2.0016 11.0885 
28 1 10.2045 2.85461 10.1993 
29 1 12.6163 2.1565 10.8862 
34 1 10.8953 2.16407 12.6162 
40 1 10.7985 0.490716 10.9057 
50 1 8.60756 4.37087 8.60175 
51 1 9.49798 3.5264 9.49344 
52 1 8.81003 5.88948 8.80259 
55 1 8.80831 4.17035 7.0789 
58 1 7.08427 4.17007 8.80595 
24 1 11.086 11.0961 2.02286 
25 1 10.2072 10.2017 2.87608 
26 1 12.6144 10.8917 2.15831 
36 1 10.7609 10.8908 0.524779 
39 1 10.8952 12.6245 2.17332 
44 1 8.60325 8.59647 4.37396 
45 1 9.4974 9.49125 3.53885 
46 1 8.8069 7.07559 4.17182 
56 1 8.80792 8.80044 5.89278 
59 1 7.0804 8.80515 4.17066 
1 1 10.8471 11.1691 11.2038 
2 1 10.04 10.2372 10.2512 
3 1 10.7269 12.7189 10.9463 
13 1 10.6858 10.916 12.7527 
17 1 12.808 10.6754 10.7532 
61 1 8.62038 8.60216 8.60414 
62 1 9.42813 9.51618 9.51755 
63 1 7.0989 8.79513 8.79581 
73 1 8.81881 8.80689 7.087 
77 1 8.81889 7.08387 8.80772 
81 2 11.84 10.9217 10.9829 
ITEM: TIMESTEP
90
ITEM: NUMBER OF ATOMS
81
ITEM: BOX BOUNDS pp pp pp
0.0000000000000000e+00 1.3416000000000000e+01
0.0000000000000000e+00 1.3416000000000000e+01
0.0000000000000000e+00 1.3414999999999999e+01
ITEM: ATOMS id type x y z 
21 1 1.91338 1.91714 1.91881 
22 1 2.7935 2.79432 2.79526 
23 1 0.389299 2.11268 2.11168 
33 1 2.10827 2.11876 0.396025 
37 1 2.10826 0.394455 2.1193 
41 1 4.3701 4.36545 4.36557 
42 1 3.49019 3.48819 3.48877 
43 1 4.17416 5.88869 4.17071 
53 1 4.17462 4.17083 5.88902 
57 1 5.89395 4.17107 4.17158 
4 1 1.91665 1.94756 11.0899 
5 1 2.79408 2.81239 10.2013 
6 1 2.14621 0.429454 10.8936 
16 1 2.10994 2.12957 12.6163 
19 1 0.394215 2.14158 10.8883 
64 1 4.36681 4.3615 8.60853 
65 1 3.48942 3.49716 9.49721 
66 1 5.89031 4.16691 8.80754 
76 1 4.17328 4.1691 7.08371 
79 1 4.17249 5.88357 8.80686 
10 1 1.91613 11.0898 1.94322 
11 1 2.79281 10.2017 2.80948 
12 1 2.10977 12.6158 2.12834 
15 1 2.15289 10.8981 0.426363 
18 1 0.393336 10.8911 2.13648 
67 1 4.36352 8.60861 4.36049 
68 1 3.48688 9.49736 3.49516 
69 1 5.88631 8.808 4.16604 
74 1 4.17103 8.8065 5.88328 
80 1 4.17151 7.08339 4.16865 
30 1 2.06273 11.1188 11.115 
31 1 2.90623 10.2182 10.2092 
32 1 0.592591 10.8321 10.8756 
35 1 2.20087 10.9059 12.6486 
38 1 2.19179 12.6525 10.8999 
47 1 4.38337 8.59751 8.59768 
48 1 3.55905 9.50309 9.49815 
49 1 4.17668 7.07782 8.8045 
54 1 4.17684 8.80381 7.07753 
60 1 5.90349 8.79206 8.79218 
7 1 11.0862 1.92367 1.9177 
8 1 10.2009 2.79576 2.79304 
9 1 10.8956 0.404384 2.13886 
14 1 10.8949 2.13795 0.396484 
20 1 12.6106 2.11513 2.11152 
70 1 8.6141 4.35762 4.36093 
71 1 9.4993 3.48563 3.48542 
72 1 7.08873 4.16821 4.16968 
75 1 8.81077 4.16592 5.88454 
78 1 8.81075 5.88031 4.16715 
27 1 11.0887 2.00128 11.0889 
28 1 10.2056 2.85492 10.199 
29 1 12.6155 2.15725 10.8867 
34 1 10.8952 2.16606 12.6173 
40 1 10.8 0.491202 10.9095 
50 1 8.6067 4.36987 8.60187 
51 1 9.49792 3.52494 9.49282 
52 1 8.81106 5.88906 8.80293 
55 1 8.80835 4.1699 7.0789 
58 1 7.08456 4.16979 8.80559 
24 1 11.0852 11.0957 2.02379 
25 1 10.2079 10.2017 2.87655 
26 1 12.6147 10.8919 2.15967 
36 1 10.7639 10.8943 0.52304 
39 1 10.8947 12.6264 2.17592 
44 1 8.6017 8.59719 4.37396 
45 1 9.49674 9.49173 3.53914 
46 1 8.80695 7.07455 4.17116 
56 1 8.8086 8.80022 5.89218 
59 1 7.08049 8.80431 4.17034 
1 1 10.848 11.1665 11.2029 
2 1 10.0336 10.2387 10.2514 
3 1 10.7287 12.7189 10.9483 
13 1 10.69 10.9191 12.7503 
17 1 12.8099 10.6716 10.749 
61 1 8.61891 8.60113 8.60359 
62 1 9.41999 9.51707 9.51893 
63 1 7.09792 8.79351 8.79445 
73 1 8.81899 8.80683 7.08625 
77 1 8.81922 7.08326 8.80793 
81 2 11.8384 10.916 10.9744 
ITEM: TIMESTEP
100
ITEM: NUMBER OF ATOMS
81
ITEM: BOX BOUNDS pp pp pp
0.0000000000000000e+00 1.3416000000000000e+01
0.0000000000000000e+00 1.3416000000000000e+01
0.0000000000000000e+00 1.3414999999999999e+01
ITEM: ATOMS id type x y z 
21 1 1.91488 1.91814 1.91826 
22 1 2.79376 2.79204 2.7977 
23 1 0.391801 2.11551 2.11336 
33 1 2.10909 2.1227 0.395416 
37 1 2.10846 0.395822 2.122 
41 1 4.36953 4.36581 4.36489 
42 1 3.48951 3.48742 3.49105 
43 1 4.17225 5.88838 4.16792 
53 1 4.17354 4.16872 5.88795 
57 1 5.89348 4.1679 4.16859 
4 1 1.91573 1.94774 11.0901 
5 1 2.79179 2.81416 10.2021 
6 1 2.15453 0.431026 10.8988 
16 1 2.10977 2.13308 12.6158 
19 1 0.393334 2.14387 10.8892 
64 1 4.36639 4.3591 8.60682 
65 1 3.48805 3.49765 9.49758 
66 1 5.88892 4.1648 8.80607 
76 1 4.17147 4.16588 7.08263 
79 1 4.17145 5.88221 8.8052 
10 1 1.91447 11.0912 1.94578 
11 1 2.79123 10.2022 2.80999 
12 1 2.10916 12.6172 2.1327 
15 1 2.16339 10.9032 0.430728 
18 1 0.391596 10.893 2.14141 
67 1 4.36155 8.60736 4.35938 
68 1 3.4872 9.49706 3.49323 
69 1 5.88461 8.8055 4.16426 
74 1 4.16912 8.80493 5.88244 
80 1 4.16874 7.08306 4.16545 
30 1 2.06605 11.1224 11.122 
31 1 2.91706 10.2288 10.2158 
32 1 0.591218 10.833 10.8729 
35 1 2.2132 10.9111 12.6531 
38 1 2.20107 12.6542 10.9069 
47 1 4.37706 8.59786 8.59746 
48 1 3.55976 9.50756 9.50203 
49 1 4.17396 7.07648 8.80364 
54 1 4.17365 8.80279 7.07676 
60 1 5.89653 8.78724 8.78792 
7 1 11.0886 1.92555 1.92046 
8 1 10.2011 2.79577 2.79387 
9 1 10.8963 0.407053 2.14827 
14 1 10.8957 2.14643 0.400046 
20 1 12.6131 2.1183 2.11437 
70 1 8.61262 4.35697 4.35994 
71 1 9.49928 3.48635 3.4859 
72 1 7.0882 4.16421 4.1668 
75 1 8.80975 4.16319 5.88354 
78 1 8.80896 5.87933 4.1657 
27 1 11.0884 2.00303 11.0941 
28 1 10.2072 2.8527 10.1977 
29 1 12.6146 2.16075 10.8889 
34 1 10.8942 2.17574 12.6208 
40 1 10.8078 0.489519 10.9267 
50 1 8.60602 4.36555 8.60047 
51 1 9.5002 3.52167 9.48964 
52 1 8.81469 5.88459 8.80445 
55 1 8.80742 4.16672 7.07799 
58 1 7.08332 4.16727 8.80401 
24 1 11.0849 11.1009 2.02532 
25 1 10.2065 10.2057 2.87793 
26 1 12.6129 10.8943 2.16561 
36 1 10.7818 10.9124 0.517933 
39 1 10.8935 12.629 2.18659 
44 1 8.6015 8.59503 4.37133 
45 1 9.50011 9.48758 3.53697 
46 1 8.8051 7.0737 4.16946 
56 1 8.81075 8.8 5.88948 
59 1 7.07888 8.80209 4.16864 
1 1 10.8542 11.1594 11.1883 
2 1 10.0006 10.249 10.2559 
3 1 10.7396 12.716 10.9588 
13 1 10.7122 10.9333 12.7438 
17 1 12.8176 10.6596 10.7275 
61 1 8.61028 8.59707 8.60028 
62 1 9.38592 9.52307 9.52796 
63 1 7.09155 8.78503 8.78683 
73 1 8.81962 8.80545 7.08355 
77 1 8.82084 7.07853 8.80864 
81 2 11.8328 10.8764 10.9383 
ITEM: TIMESTEP
110
ITEM: NUMBER OF ATOMS
81
ITEM: BOX BOUNDS pp pp pp
0.0000000000000000e+00 1.3416000000000000e+01
0.0000000000000000e+00 1.3416000000000000e+01
0.0000000000000000e+00 1.3414999999999999e+01
ITEM: ATOMS id type x y z 
21 1 1.91478 1.91808 1.91857 
22 1 2.79415 2.79284 2.7967 
23 1 0.391674 2.11567 2.11352 
33 1 2.10911 2.12271 0.395658 
37 1 2.10848 0.395678 2.12221 
41 1 4.36973 4.36544 4.36513 
42 1 3.48984 3.48711 3.49099 
43 1 4.17207 5.88835 4.16782 
53 1 4.17344 4.16864 5.88807 
57 1 5.89315 4.1678 4.16861 
4 1 1.91551 1.94853 11.0902 
5 1 2.79247 2.8136 10.202 
6 1 2.15462 0.431331 10.899 
16 1 2.10978 2.13335 12.6161 
19 1 0.393286 2.14397 10.8894 
64 1 4.36599 4.3596 8.60703 
65 1 3.48784 3.49754 9.49712 
66 1 5.88921 4.16469 8.80598 
76 1 4.17143 4.16579 7.08271 
79 1 4.17141 5.88218 8.80508 
10 1 1.91474 11.0915 1.94608 
11 1 2.79157 10.2021 2.80982 
12 1 2.10911 12.6171 2.13282 
15 1 2.16352 10.9033 0.431019 
18 1 0.391486 10.8931 2.14167 
67 1 4.36195 8.60729 4.35893 
68 1 3.48635 9.49731 3.49445 
69 1 5.88504 8.80544 4.16427 
74 1 4.16905 8.80484 5.88229 
80 1 4.16863 7.08297 4.16526 
30 1 2.06592 11.1224 11.122 
31 1 2.91651 10.2284 10.2162 
32 1 0.593988 10.833 10.8722 
35 1 2.21339 10.9113 12.6533 
38 1 2.20131 12.6544 10.9073 
47 1 4.37638 8.5975 8.59786 
48 1 3.56074 9.50868 9.50197 
49 1 4.17353 7.07646 8.80357 
54 1 4.17313 8.80276 7.07656 