LAMMPS (3 Mar 2020)
Reading data file ...
  orthogonal box = (0 0 0) to (13.416 13.416 13.415)
  2 by 2 by 2 MPI processor grid
  reading atoms ...
  81 atoms
  read_data CPU = 0.00218855 secs
WARNING: Using 'neigh_modify every 1 delay 0 check yes' setting during minimization (../min.cpp:190)
WARNING: Total cutoff < 2*bond cutoff. May need to use an increased neighbor list skin. (../pair_reaxc.cpp:413)
Neighbor list info ...
  update every 1 steps, delay 0 steps, check yes
  max neighbors/atom: 2000, page size: 100000
  master list distance cutoff = 9.5
  ghost atom cutoff = 9.5
  binsize = 4.75, bins = 3 3 3
  2 neighbor lists, perpetual/occasional/extra = 2 0 0
  (1) pair reax/c, perpetual
      attributes: half, newton off, ghost
      pair build: half/bin/newtoff/ghost
      stencil: half/ghost/bin/3d/newtoff
      bin: standard
  (2) fix qeq/reax, perpetual, copy from (1)
      attributes: half, newton off, ghost
      pair build: copy
      stencil: none
      bin: none
Setting up cg style minimization ...
  Unit style    : real
  Current step  : 0
Per MPI rank memory allocation (min/avg/max) = 18.29 | 18.29 | 18.29 Mbytes
Step Temp E_pair E_mol TotEng Press 
       0            0   -14429.059            0   -14429.059    12073.561 
     119            0   -14634.994            0   -14634.994    22935.786 
Loop time of 1.69933 on 8 procs for 119 steps with 81 atoms

99.3% CPU use with 8 MPI tasks x no OpenMP threads

Minimization stats:
  Stopping criterion = energy tolerance
  Energy initial, next-to-last, final = 
        -14429.0593462     -14634.9935448     -14634.9935896
  Force two-norm initial, final = 393.92 33.19
  Force max component initial, final = 192.417 18.2809
  Final line search alpha, max atom move = 0.000103411 0.00189045
  Iterations, force evaluations = 119 636

MPI task timing breakdown:
Section |  min time  |  avg time  |  max time  |%varavg| %total
---------------------------------------------------------------
Pair    | 1.248      | 1.2677     | 1.3088     |   1.6 | 74.60
Neigh   | 0.00066373 | 0.0006801  | 0.00069574 |   0.0 |  0.04
Comm    | 0.013139   | 0.053828   | 0.073184   |   7.8 |  3.17
Output  | 0.00023116 | 0.00029228 | 0.00043698 |   0.0 |  0.02
Modify  | 0.37288    | 0.37316    | 0.3734     |   0.0 | 21.96
Other   |            | 0.003623   |            |       |  0.21

Nlocal:    10.125 ave 11 max 10 min
Histogram: 7 0 0 0 0 0 0 0 0 1
Nghost:    580 ave 594 max 569 min
Histogram: 2 0 1 0 2 1 0 1 0 1
Neighs:    1090 ave 1178 max 1070 min
Histogram: 6 1 0 0 0 0 0 0 0 1

Total # of neighbors = 8720
Ave neighs/atom = 107.654
Neighbor list builds = 1
Dangerous builds = 0
WARNING: Using 'neigh_modify every 1 delay 0 check yes' setting during minimization (../min.cpp:190)
WARNING: Total cutoff < 2*bond cutoff. May need to use an increased neighbor list skin. (../pair_reaxc.cpp:413)
Setting up cg style minimization ...
  Unit style    : real
  Current step  : 119
Per MPI rank memory allocation (min/avg/max) = 18.3 | 18.3 | 18.3 Mbytes
Step Temp E_pair E_mol TotEng Press 
     119            0   -14634.994            0   -14634.994    22935.786 
     195            0   -14635.453            0   -14635.453     22955.32 
Loop time of 1.9625 on 8 procs for 76 steps with 81 atoms

99.4% CPU use with 8 MPI tasks x no OpenMP threads

Minimization stats:
  Stopping criterion = energy tolerance
  Energy initial, next-to-last, final = 
        -14634.9935896     -14635.4531505     -14635.4532502
  Force two-norm initial, final = 33.19 17.0984
  Force max component initial, final = 18.2809 5.43999
  Final line search alpha, max atom move = 0.00752684 0.0409459
  Iterations, force evaluations = 76 762

MPI task timing breakdown:
Section |  min time  |  avg time  |  max time  |%varavg| %total
---------------------------------------------------------------
Pair    | 1.4652     | 1.4942     | 1.5575     |   2.2 | 76.14
Neigh   | 0          | 0          | 0          |   0.0 |  0.00
Comm    | 0.014934   | 0.077746   | 0.10632    |   9.4 |  3.96
Output  | 0.0001769  | 0.00025721 | 0.00040116 |   0.0 |  0.01
Modify  | 0.38578    | 0.38616    | 0.38641    |   0.0 | 19.68
Other   |            | 0.004098   |            |       |  0.21

Nlocal:    10.125 ave 11 max 10 min
Histogram: 7 0 0 0 0 0 0 0 0 1
Nghost:    573.625 ave 588 max 564 min
Histogram: 1 2 0 1 0 3 0 0 0 1
Neighs:    1089.5 ave 1178 max 1072 min
Histogram: 7 0 0 0 0 0 0 0 0 1

Total # of neighbors = 8716
Ave neighs/atom = 107.605
Neighbor list builds = 0
Dangerous builds = 0
WARNING: Using 'neigh_modify every 1 delay 0 check yes' setting during minimization (../min.cpp:190)
WARNING: Total cutoff < 2*bond cutoff. May need to use an increased neighbor list skin. (../pair_reaxc.cpp:413)
Setting up cg style minimization ...
  Unit style    : real
  Current step  : 195
WARNING: Energy due to 3 extra global DOFs will be included in minimizer energies
Per MPI rank memory allocation (min/avg/max) = 18.3 | 18.3 | 18.3 Mbytes
Step Temp E_pair E_mol TotEng Press Volume 
     195            0   -14635.453            0   -14635.453     22955.32    2414.5532 
     296            0   -14638.987            0   -14638.987   -39.548259    2431.7768 
Loop time of 0.294112 on 8 procs for 101 steps with 81 atoms

99.5% CPU use with 8 MPI tasks x no OpenMP threads

Minimization stats:
  Stopping criterion = energy tolerance
  Energy initial, next-to-last, final = 
        -14635.4532502     -14638.9871303     -14638.9871632
  Force two-norm initial, final = 1400.36 23.05
  Force max component initial, final = 824.865 6.26187
  Final line search alpha, max atom move = 6.15231e-08 3.8525e-07
  Iterations, force evaluations = 101 122

MPI task timing breakdown:
Section |  min time  |  avg time  |  max time  |%varavg| %total
---------------------------------------------------------------
Pair    | 0.2351     | 0.2402     | 0.25061    |   0.9 | 81.67
Neigh   | 0          | 0          | 0          |   0.0 |  0.00
Comm    | 0.0020701  | 0.01243    | 0.01746    |   4.0 |  4.23
Output  | 0.00017492 | 0.00021773 | 0.00031814 |   0.0 |  0.07
Modify  | 0.038926   | 0.038971   | 0.03901    |   0.0 | 13.25
Other   |            | 0.002296   |            |       |  0.78

Nlocal:    10.125 ave 11 max 10 min
Histogram: 7 0 0 0 0 0 0 0 0 1
Nghost:    573.625 ave 588 max 564 min
Histogram: 1 2 0 1 0 3 0 0 0 1
Neighs:    1090 ave 1178 max 1073 min
Histogram: 7 0 0 0 0 0 0 0 0 1

Total # of neighbors = 8720
Ave neighs/atom = 107.654
Neighbor list builds = 0
Dangerous builds = 0
WARNING: Using 'neigh_modify every 1 delay 0 check yes' setting during minimization (../min.cpp:190)
WARNING: Total cutoff < 2*bond cutoff. May need to use an increased neighbor list skin. (../pair_reaxc.cpp:413)
Setting up cg style minimization ...
  Unit style    : real
  Current step  : 296
Per MPI rank memory allocation (min/avg/max) = 18.3 | 18.3 | 18.3 Mbytes
Step Temp E_pair E_mol TotEng Press 
     296            0   -14638.987            0   -14638.987   -39.548259 
     342            0   -14639.656            0   -14639.656    7950.1972 
Loop time of 1.08836 on 8 procs for 46 steps with 81 atoms

99.5% CPU use with 8 MPI tasks x no OpenMP threads

Minimization stats:
  Stopping criterion = energy tolerance
  Energy initial, next-to-last, final = 
        -14638.9871632     -14639.6560284     -14639.6560314
  Force two-norm initial, final = 20.9114 11.3409
  Force max component initial, final = 3.97882 3.63067
  Final line search alpha, max atom move = 1.30034e-05 4.7211e-05
  Iterations, force evaluations = 46 437

MPI task timing breakdown:
Section |  min time  |  avg time  |  max time  |%varavg| %total
---------------------------------------------------------------
Pair    | 0.83833    | 0.8435     | 0.85693    |   0.6 | 77.50
Neigh   | 0          | 0          | 0          |   0.0 |  0.00
Comm    | 0.0077575  | 0.020884   | 0.025771   |   3.8 |  1.92
Output  | 0.00010184 | 0.00012712 | 0.00019185 |   0.0 |  0.01
Modify  | 0.22142    | 0.22163    | 0.22178    |   0.0 | 20.36
Other   |            | 0.002207   |            |       |  0.20

Nlocal:    10.125 ave 11 max 10 min
Histogram: 7 0 0 0 0 0 0 0 0 1
Nghost:    565 ave 568 max 564 min
Histogram: 5 0 0 0 0 2 0 0 0 1
Neighs:    1082.5 ave 1173 max 1066 min
Histogram: 7 0 0 0 0 0 0 0 0 1

Total # of neighbors = 8660
Ave neighs/atom = 106.914
Neighbor list builds = 0
Dangerous builds = 0
WARNING: Using 'neigh_modify every 1 delay 0 check yes' setting during minimization (../min.cpp:190)
WARNING: Total cutoff < 2*bond cutoff. May need to use an increased neighbor list skin. (../pair_reaxc.cpp:413)
Setting up cg style minimization ...
  Unit style    : real
  Current step  : 342
WARNING: Energy due to 3 extra global DOFs will be included in minimizer energies
Per MPI rank memory allocation (min/avg/max) = 18.3 | 18.3 | 18.3 Mbytes
Step Temp E_pair E_mol TotEng Press Volume 
     342            0   -14639.656            0   -14639.656    7950.1972    2431.7768 
     465            0   -14640.331            0   -14640.331    -45.24027    2439.5508 
Loop time of 0.477287 on 8 procs for 123 steps with 81 atoms

99.4% CPU use with 8 MPI tasks x no OpenMP threads

Minimization stats:
  Stopping criterion = energy tolerance
  Energy initial, next-to-last, final = 
        -14639.6560314     -14640.3311692     -14640.3312759
  Force two-norm initial, final = 489.016 18.0644
  Force max component initial, final = 300.327 5.34763
  Final line search alpha, max atom move = 1.18595e-05 6.34203e-05
  Iterations, force evaluations = 123 205

MPI task timing breakdown:
Section |  min time  |  avg time  |  max time  |%varavg| %total
---------------------------------------------------------------
Pair    | 0.39274    | 0.39557    | 0.40279    |   0.5 | 82.88
Neigh   | 0          | 0          | 0          |   0.0 |  0.00
Comm    | 0.0050033  | 0.012144   | 0.014886   |   2.7 |  2.54
Output  | 0.00024344 | 0.00029825 | 0.00042691 |   0.0 |  0.06
Modify  | 0.065685   | 0.065733   | 0.06577    |   0.0 | 13.77
Other   |            | 0.003538   |            |       |  0.74

Nlocal:    10.125 ave 11 max 10 min
Histogram: 7 0 0 0 0 0 0 0 0 1
Nghost:    565 ave 568 max 564 min
Histogram: 5 0 0 0 0 2 0 0 0 1
Neighs:    1082 ave 1173 max 1066 min
Histogram: 7 0 0 0 0 0 0 0 0 1

Total # of neighbors = 8656
Ave neighs/atom = 106.864
Neighbor list builds = 0
Dangerous builds = 0
WARNING: Using 'neigh_modify every 1 delay 0 check yes' setting during minimization (../min.cpp:190)
WARNING: Total cutoff < 2*bond cutoff. May need to use an increased neighbor list skin. (../pair_reaxc.cpp:413)
Setting up cg style minimization ...
  Unit style    : real
  Current step  : 465
Per MPI rank memory allocation (min/avg/max) = 18.3 | 18.3 | 18.3 Mbytes
Step Temp E_pair E_mol TotEng Press 
     465            0   -14640.331            0   -14640.331    -45.24027 
     467            0   -14640.335            0   -14640.335   -45.749528 
Loop time of 0.0779863 on 8 procs for 2 steps with 81 atoms

99.3% CPU use with 8 MPI tasks x no OpenMP threads

Minimization stats:
  Stopping criterion = energy tolerance
  Energy initial, next-to-last, final = 
        -14640.3312759     -14640.3353688     -14640.3354142
  Force two-norm initial, final = 16.4988 11.5985
  Force max component initial, final = 5.34763 4.39212
  Final line search alpha, max atom move = 1.21541e-05 5.33822e-05
  Iterations, force evaluations = 2 31

MPI task timing breakdown:
Section |  min time  |  avg time  |  max time  |%varavg| %total
---------------------------------------------------------------
Pair    | 0.061177   | 0.061641   | 0.062779   |   0.2 | 79.04
Neigh   | 0          | 0          | 0          |   0.0 |  0.00
Comm    | 0.00092189 | 0.0020376  | 0.0024928  |   1.0 |  2.61
Output  | 0          | 0          | 0          |   0.0 |  0.00
Modify  | 0.014078   | 0.014091   | 0.014102   |   0.0 | 18.07
Other   |            | 0.0002168  |            |       |  0.28

Nlocal:    10.125 ave 11 max 10 min
Histogram: 7 0 0 0 0 0 0 0 0 1
Nghost:    565 ave 568 max 564 min
Histogram: 5 0 0 0 0 2 0 0 0 1
Neighs:    1078 ave 1172 max 1058 min
Histogram: 7 0 0 0 0 0 0 0 0 1

Total # of neighbors = 8624
Ave neighs/atom = 106.469
Neighbor list builds = 0
Dangerous builds = 0
WARNING: Total cutoff < 2*bond cutoff. May need to use an increased neighbor list skin. (../pair_reaxc.cpp:413)
Setting up Verlet run ...
  Unit style    : real
  Current step  : 0
  Time step     : 0.25
Per MPI rank memory allocation (min/avg/max) = 17.17 | 17.17 | 17.17 Mbytes
Step Temp TotEng KinEng PotEng Press 
       0          300   -14568.796    71.539441   -14640.335    1294.7557 
     200     223.5961   -14541.501      53.3198   -14594.821   -11107.336 
     400    332.82472    -14498.68    79.366982   -14578.047   -5447.4781 
     600    316.13708   -14482.012    75.387568   -14557.399   -10685.371 
     800    283.22861   -14508.457    67.540054   -14575.997   -11618.805 
    1000    350.31924   -14494.918    83.538808   -14578.457    15092.257 
    1200    313.72364   -14501.099    74.812047   -14575.911     1394.159 
    1400    270.32772   -14510.781    64.463646   -14575.244    -3659.726 
    1600    302.82672   -14490.842    72.213515   -14563.056    16922.468 
    1800    290.62846   -14505.189    69.304658   -14574.494    9000.2135 
    2000     313.2265   -14494.263    74.693495   -14568.957   -2781.7883 
    2200    314.01365   -14482.057    74.881203   -14556.938   -1693.0462 
    2400    276.02245   -14504.235     65.82164   -14570.057     2663.123 
    2600    260.94859     -14500.5    62.227054   -14562.727   -4831.8624 
    2800    333.67636   -14491.001    79.570067   -14570.571   -264.04387 
    3000    284.14584   -14507.645    67.758781   -14575.404    17276.676 
    3200    341.84325   -14485.455    81.517584   -14566.973    15641.831 
    3400    313.11909   -14491.486    74.667882   -14566.154     4393.177 
    3600    299.57138   -14500.138     71.43723   -14571.576    6730.1023 
    3800    303.86652   -14514.626    72.461471   -14587.087   -2299.6986 
    4000    282.87904   -14512.603    67.456695    -14580.06    95.396166 
    4200    297.74783   -14497.485    71.002377   -14568.487    12016.316 
    4400    296.13251   -14506.759    70.617181   -14577.377    15566.902 
    4600    263.15782   -14510.224    62.753878   -14572.978    1679.0345 
    4800    282.63301   -14496.474    67.398026   -14563.872   -8238.0764 
    5000    262.38727   -14506.963    62.570129   -14569.533    -6029.286 
    5200    316.47927   -14486.633    75.469168   -14562.102    4372.5592 
    5400    313.80681    -14499.77    74.831879   -14574.602   -4042.9579 
    5600    292.49668   -14501.918    69.750164   -14571.669   -5081.8219 
    5800    355.40592   -14484.189    84.751804   -14568.941    6709.9039 
    6000    295.39738   -14509.012    70.441879   -14579.454    4543.2224 
    6200    300.26241   -14493.676    71.602018   -14565.278    1672.2881 
    6400    363.32868   -14496.532    86.641102   -14583.173   -10687.299 
    6600    257.65319   -14507.558    61.441217       -14569   -1112.1533 
    6800    314.47778   -14494.044    74.991883   -14569.036    -11636.27 
    7000    293.22978   -14501.452    69.924982   -14571.377   -28487.096 
    7200    315.82783   -14503.895    75.313821   -14579.209   -19788.099 
    7400    355.97014   -14489.738    84.886349   -14574.625    9087.2783 
    7600    268.07703   -14515.726    63.926936   -14579.653    17771.666 
    7800    282.74603   -14502.556    67.424976   -14569.981    -9033.185 
    8000    279.39825   -14497.653    66.626649    -14564.28     4520.003 
    8200     255.5876   -14518.842    60.948646   -14579.791    13550.177 
    8400     295.4011   -14496.262    70.442765   -14566.705    975.71179 
    8600    264.59467   -14502.395    63.096515   -14565.491   -4017.6947 
    8800    274.16057   -14510.529    65.377648   -14575.907   -1900.1758 
    9000    327.32065   -14487.067    78.054454   -14565.121   -3768.9767 
    9200    321.25011    -14498.41    76.606845   -14575.017     1514.096 
    9400    295.34639   -14503.211    70.429718   -14573.641   -4647.9928 
    9600    330.91899   -14480.808    78.912532   -14559.721   -2073.9753 
    9800    316.43978   -14497.292    75.459751   -14572.751   -911.07332 
   10000    288.49881   -14504.217    68.796812   -14573.014   -6329.3098 
   10200    312.39943   -14494.575     74.49627   -14569.072    3795.4841 
   10400    353.38858   -14486.304    84.270738   -14570.575    9839.3324 
   10600    305.65302   -14508.764    72.887488   -14581.652    6194.3487 
   10800    310.59644   -14504.025     74.06632   -14578.091    -1673.027 
   11000    318.78207   -14478.945    76.018304   -14554.963   -5587.5992 
   11200    287.53665   -14502.246    68.567372   -14570.813   -11296.293 
   11400    298.54097   -14504.928    71.191514   -14576.119    -19883.32 
   11600    303.34211   -14486.657    72.336416   -14558.993   -14436.374 
   11800    297.92771   -14504.888    71.045273   -14575.933   -2815.0257 
   12000    285.48945   -14505.065    68.079185   -14573.144    14098.328 
   12200    326.96031   -14489.952    77.968526    -14567.92    2213.5418 
   12400    317.41531   -14487.964    75.692379   -14563.656    7149.3344 
   12600    296.34439   -14503.628    70.667707   -14574.296    9669.8205 
   12800    301.41656   -14497.439    71.877241   -14569.316     -1279.85 
   13000    281.94093   -14502.259    67.232988   -14569.492    -9119.096 
   13200    246.46077   -14509.006    58.772219   -14567.778    774.15902 
   13400     287.8046   -14490.614    68.631268   -14559.245   -6481.4428 
   13600    268.92116   -14502.838    64.128231   -14566.966    287.20245 
   13800     250.7593   -14503.768    59.797267   -14563.565    11551.359 
   14000    315.54665   -14486.337    75.246771   -14561.584   -9961.0785 
   14200    284.01359   -14512.216    67.727245   -14579.944    6857.1734 
   14400    294.93884   -14503.862    70.332532   -14574.194   -1958.7801 
   14600    270.13422   -14493.093    64.417503   -14557.511   -10927.261 
   14800    290.06582     -14499.3    69.170489   -14568.471    1007.5518 
   15000    268.98319   -14521.775    64.143024   -14585.918   -9585.8371 
   15200    313.68993   -14498.701    74.804008   -14573.505    6012.1882 
   15400    322.91226   -14495.673    77.003209   -14572.676    7442.3779 
   15600      286.266   -14512.194    68.264367   -14580.458    9748.3405 
   15800    300.45527   -14505.756    71.648007   -14577.404    6502.9665 
   16000    301.11772   -14498.698    71.805978   -14570.504   -10656.419 
   16200    281.05907     -14503.8    67.022697   -14570.823   -11157.499 
   16400    251.55603   -14518.204     59.98726   -14578.191   -3676.5732 
   16600    289.63216    -14495.88    69.067076   -14564.947    20704.374 
   16800    287.66085    -14497.56    68.596989   -14566.157    6524.6755 
   17000    241.40409    -14518.86    57.566379   -14576.426   -8366.7827 
   17200    318.46898   -14498.821    75.943644   -14574.765   -84.100671 
   17400    285.66892    -14499.75    68.121983   -14567.872    2724.5532 
   17600    308.75705   -14509.275    73.627689   -14582.902      6217.67 
   17800    302.89829   -14503.284    72.230582   -14575.515    7122.7589 
   18000     311.2646   -14489.577    74.225651   -14563.803    9808.1079 
   18200    244.86432   -14514.186    58.391521   -14572.577    14303.249 
   18400    301.83849   -14500.884    71.977857   -14572.862    19321.403 
   18600    302.42409   -14500.147    72.117501   -14572.264   -2650.3622 
   18800    310.02939   -14502.485    73.931099   -14576.416    5834.6359 
   19000    287.08414    -14511.65    68.459462    -14580.11   -8419.6238 
   19200    329.14992   -14491.954    78.490671   -14570.444    1186.1632 
   19400    311.39967   -14500.919    74.257861   -14575.177   -1585.8623 
   19600    325.32909   -14500.283    77.579538   -14577.863   -801.45114 
   19800    333.34062   -14497.734    79.490005   -14577.224   -2366.6463 
   20000    286.97461   -14509.658    68.433345   -14578.091   -13298.169 
   20200     300.0528   -14503.984    71.552032   -14575.536   -2706.0533 
   20400    312.70564   -14494.799     74.56929   -14569.369    6631.9418 
   20600    281.62361   -14513.548    67.157318   -14580.705   -9507.1534 
   20800    313.63312   -14509.836    74.790461   -14584.627   -8659.2845 
   21000    324.41309   -14496.571    77.361103   -14573.932   -5494.5807 
   21200    300.34881   -14495.064     71.62262   -14566.687    6025.3261 
   21400    255.60809   -14513.516    60.953534   -14574.469    6821.3419 
   21600    334.32116   -14502.313     79.72383   -14582.037   -1842.9812 
   21800    313.63035   -14494.882    74.789801   -14569.672   -1911.2348 
   22000    329.73171   -14497.581    78.629408    -14576.21   -5975.8381 
   22200    259.19058   -14510.043    61.807831   -14571.851    1641.3806 
   22400    277.95782   -14508.618    66.283158   -14574.902    8205.9941 
   22600    338.21358   -14487.093    80.652034   -14567.745   -8398.7445 
   22800    294.57242   -14506.999    70.245153   -14577.244    3398.6007 
   23000     338.3026   -14506.317    80.673262    -14586.99    2961.4586 
   23200    297.84709   -14498.815    71.026048   -14569.841    11099.952 
   23400    334.77155   -14484.232    79.831231   -14564.063   -9119.9178 
   23600    306.03914   -14500.607    72.979563   -14573.587   -18254.734 
   23800    308.47858   -14502.865    73.561284   -14576.426   -1218.4771 
   24000    325.53612   -14495.858    77.628907   -14573.487   -9221.7694 
   24200    343.29361   -14488.518    81.863443   -14570.382    2769.5638 
   24400    274.49775   -14511.144    65.458053   -14576.602    6733.9159 
   24600    301.66471     -14500.9    71.936416   -14572.837    686.20302 
   24800    346.99313   -14485.162    82.745648   -14567.908    3032.5489 
   25000    324.68575   -14480.355    77.426124   -14557.781   -14568.414 
   25200     282.5312   -14505.287    67.373746   -14572.661   -7532.8508 
   25400    273.77897   -14504.361    65.286649   -14569.647    16845.941 
   25600    328.56656   -14485.801     78.35156   -14564.152   -2233.0156 
   25800      313.485   -14505.232    74.755138   -14579.987    1389.5768 
   26000       298.91   -14503.009    71.279515   -14574.288    13263.764 
   26200    320.45803   -14491.636    76.417961   -14568.054   -8798.5686 
   26400      275.535   -14518.299    65.705401   -14584.004   -13424.184 
   26600    303.84514    -14505.33    72.456372   -14577.786    4679.2037 
   26800     333.3536       -14500      79.4931   -14579.493   -776.49635 
   27000    297.02922   -14499.667    70.831016   -14570.498    1775.1717 
   27200     312.4518   -14491.337    74.508758   -14565.845    929.44972 
   27400    257.85625   -14514.017     61.48964   -14575.507    12546.022 
   27600    264.01739   -14503.559    62.958855   -14566.518   -6590.7206 
   27800    311.13173    -14496.79    74.193968   -14570.984   -18244.086 
   28000    328.17025   -14499.032    78.257054   -14577.289   -2825.5537 
   28200    254.30443   -14510.475    60.642655   -14571.118     2775.174 
   28400    282.65414   -14493.192    67.403065   -14560.595   -5584.0705 
   28600    304.64723   -14507.871    72.647642   -14580.518    5159.4192 
   28800    300.21276   -14508.695    71.590178   -14580.285    773.37683 
   29000    339.24178   -14493.362    80.897225    -14574.26   -2706.8407 
   29200    261.87984   -14508.499    62.449126   -14570.948    -2277.267 
   29400    268.39899   -14509.457    64.003712   -14573.461   -688.97911 
   29600     318.4631   -14494.031     75.94224   -14569.973   -1989.3098 
   29800    315.36338   -14500.043    75.203066   -14575.246   -4200.1138 
   30000     282.7648   -14517.594    67.429453   -14585.023   -9819.8187 
   30200    271.44224   -14500.452     64.72942   -14565.181    2471.1291 
   30400    303.22031   -14496.256    72.307372   -14568.564   -1936.4162 
   30600    269.57031   -14518.875    64.283032   -14583.158   -3462.6875 
   30800    304.14399   -14500.767    72.527637   -14573.295     6893.574 
   31000    329.53719    -14495.57     78.58302   -14574.153   -2166.2322 
   31200    234.68469   -14517.793    55.964039   -14573.757   -16232.617 
   31400    283.71257   -14514.699    67.655462   -14582.355    3477.1713 
   31600    307.79116   -14496.565    73.397359   -14569.962    3802.1803 
   31800    294.87138   -14501.933    70.316446   -14572.249    8496.1976 
   32000    291.11505   -14515.103    69.420693   -14584.524    1357.2164 
   32200     320.9177   -14491.988    76.527576   -14568.515     5697.669 
   32400    263.82252    -14500.38    62.912385   -14563.292    14156.388 
   32600    318.86165   -14486.281    76.037281   -14562.318    13838.707 
   32800    304.54232   -14490.312    72.622624   -14562.935    3248.9758 
   33000    261.40494   -14504.521    62.335878   -14566.857    11465.861 
   33200    286.17349   -14497.587    68.242306   -14565.829   -1342.5031 
   33400    318.22931   -14496.246     75.88649   -14572.132    779.15204 
   33600    275.94947   -14513.108    65.804235   -14578.912    2713.6721 
   33800    320.14461   -14495.681    76.343221   -14572.024   -124.63256 
   34000     308.9722   -14493.233    73.678995   -14566.912    405.20262 
   34200    263.93654   -14512.542    62.939575   -14575.482    8882.3829 
   34400     318.1573   -14507.597    75.869318   -14583.466    6627.3884 
   34600    340.56029   -14495.257    81.211642   -14576.468    11169.373 
   34800    307.10914   -14497.627     73.23472   -14570.862    150.57771 
   35000    247.91919   -14526.348    59.120002   -14585.468    11646.394 
   35200    275.85427   -14511.687    65.781535   -14577.468   -12105.066 
   35400    325.17373   -14493.852    77.542489   -14571.395   -8521.1171 
   35600    308.59178   -14501.789    73.588278   -14575.377    169.15226 
   35800    279.05851   -14516.866    66.545632   -14583.411    3237.8768 
   36000    308.89553   -14500.028    73.660711   -14573.688    8681.0708 
   36200    273.38028   -14498.253    65.191574   -14563.444    6902.8033 
   36400    305.21881   -14503.282    72.783945   -14576.066   -12305.524 
   36600    303.50154   -14511.263    72.374435   -14583.638   -10149.472 
   36800    356.91752   -14486.678    85.112267    -14571.79   -1913.9007 
   37000    277.18942   -14501.718     66.09992   -14567.818    24041.206 
   37200    284.49494   -14504.951     67.84203   -14572.793     11593.79 
   37400    331.31121   -14498.143    79.006064   -14577.149     17375.43 
   37600    371.44138   -14476.332    88.575695   -14564.908   -8414.1152 
   37800    312.50189   -14500.507    74.520702   -14575.028   -2882.5404 
   38000    268.50307   -14508.646    64.028532   -14572.675    14055.082 
   38200    325.36114   -14489.424    77.587181   -14567.011   -5324.0507 
   38400    308.56711   -14496.272    73.582397   -14569.854    393.14672 
   38600    302.26355   -14506.905    72.079219   -14578.984   -16056.052 
   38800     303.0151   -14492.068    72.258437   -14564.326    742.23236 
   39000    352.36787   -14476.984    84.027334   -14561.011   -5093.9075 
   39200    298.47069   -14503.367    71.174754   -14574.541   -5432.8481 
   39400     311.1492   -14504.706    74.198134   -14578.904    524.02126 
   39600     317.6251    -14494.17    75.742408   -14569.912    7656.6342 
   39800    323.31514    -14493.62    77.099281   -14570.719    9575.3785 
   40000     270.9469   -14510.306      64.6113   -14574.917    6785.1826 
   40200     281.8817   -14499.516    67.218864   -14566.735   -14006.883 
   40400    357.12482   -14470.155    85.161701   -14555.317   -6201.7345 
   40600    331.06124   -14490.437    78.946454   -14569.384    9619.6411 
   40800    328.22418   -14504.248    78.269914   -14582.518    141.83823 
   41000    301.61816    -14507.73    71.925316   -14579.656    141.40975 
   41200    349.55147   -14489.942    83.355724   -14573.298   -9575.7543 
   41400    326.67677   -14496.109    77.900912    -14574.01    5039.9637 
   41600    295.78502   -14510.338    70.534317   -14580.872   -300.09187 
   41800    313.08917   -14493.094    74.660746   -14567.755    5711.1582 
   42000    305.36155   -14497.567    72.817982   -14570.385    11282.665 
   42200    318.11587   -14502.599    75.859438   -14578.458    1922.5287 
   42400    350.46803   -14492.023    83.574289   -14575.597   -9846.7654 
   42600    288.97619   -14488.048     68.91065   -14556.959    8908.6834 
   42800    258.21393   -14505.973    61.574934   -14567.548   -5509.1794 
   43000    279.55689    -14495.17    66.664478   -14561.834   -9015.2504 
   43200    280.57209   -14507.719    66.906568   -14574.625   -7098.8334 
   43400    301.48644   -14503.225    71.893906   -14575.119   -2158.5036 
   43600    356.08112   -14485.549    84.912814   -14570.462    1068.3205 
   43800    311.40951   -14502.093    74.260208   -14576.353   -6111.5504 
   44000    295.10037   -14506.546    70.371052   -14576.917   -4994.0882 
   44200    366.23444   -14484.721    87.334024   -14572.055   -792.01076 
   44400    301.10151   -14498.913    71.802112   -14570.715    1064.9684 
   44600    287.68885   -14505.373    68.603666   -14573.977   -2374.6891 
   44800    308.06255   -14475.541    73.462075   -14549.003   -4483.2383 
   45000    302.66532   -14494.814    72.175026   -14566.989     22091.65 
   45200    273.10774   -14507.862    65.126584   -14572.988    14359.547 
   45400    277.06733   -14504.498    66.070806   -14570.569   -10163.636 
   45600     340.0626   -14485.993     81.09296   -14567.086   -5833.0864 
   45800     278.6308   -14508.484    66.443639   -14574.927     -7588.15 
   46000    283.98042   -14502.078    67.719335   -14569.798    793.37623 
   46200    381.26169   -14482.427    90.917495   -14573.344    25994.547 
   46400    302.35703   -14508.228    72.101511   -14580.329      12261.2 
   46600    327.54781   -14496.747    78.108625   -14574.855   -7290.8752 
   46800    314.77428   -14496.329    75.062586   -14571.392   -2266.5052 
   47000    260.28315   -14515.958    62.068371   -14578.026    -12735.72 
   47200    316.58115   -14497.282    75.493462   -14572.775    9811.2878 
   47400    288.92691   -14499.288    68.898898   -14568.187    6892.1626 
   47600    238.60972   -14517.654     56.90002   -14574.554    303.42974 
   47800    285.47179   -14500.178    68.074975   -14568.253   -12327.942 
   48000    279.67682   -14496.971    66.693078   -14563.664    25.897583 
   48200    255.00686   -14517.128    60.810162   -14577.938    14291.571 
   48400    265.02428   -14515.195    63.198963   -14578.394   -4202.8251 
   48600    344.31232    -14499.85    82.106371   -14581.957   -7099.4735 
   48800    298.52424   -14496.031    71.187525   -14567.219   -1079.2554 
   49000    261.35785   -14512.755    62.324648    -14575.08    -9285.852 
   49200    313.44341   -14500.978    74.745222   -14575.723    7660.9602 
   49400    294.67615   -14498.585    70.269891   -14568.855     9412.721 
   49600     319.5685   -14501.853    76.205839   -14578.059    5956.8318 
   49800     270.1452   -14521.132    64.420122   -14585.553   -7744.9775 
   50000    303.96459   -14503.645    72.484857    -14576.13   -2037.3307 
   50200    343.88576   -14494.733    82.004651   -14576.738    9816.5745 
   50400    281.85986   -14513.767    67.213655   -14580.981    5704.5785 
   50600    256.82414    -14525.11    61.243517   -14586.354   -2814.7755 
   50800    320.27561   -14497.851     76.37446   -14574.226    7947.5421 
   51000    293.16115   -14500.496    69.908615   -14570.405    3249.4688 
   51200    274.79986   -14505.617    65.530095   -14571.147    1076.6948 
   51400    275.28937   -14514.595    65.646827   -14580.241   -8061.5854 
   51600    320.50602   -14492.511    76.429405   -14568.941   -6705.9025 
   51800    360.32015   -14498.518    85.923674   -14584.442   -3434.7432 
   52000    321.64036   -14505.145    76.699906   -14581.845    646.15426 
   52200    281.84063   -14495.366    67.209071   -14562.575   -607.10174 
   52400    331.92785   -14492.438    79.153111   -14571.591   -14307.111 
   52600    292.41883   -14505.966    69.731599   -14575.698   -9709.0877 
   52800    323.03636   -14496.199    77.032802   -14573.232    6610.1506 
   53000    300.48549   -14490.201    71.655214   -14561.857   -8820.9803 
   53200    304.49672   -14502.534    72.611751   -14575.146   -1412.5411 
   53400    299.43701   -14504.479    71.405188   -14575.885    6538.6773 
   53600    294.81207   -14514.882    70.302301   -14585.185    14916.134 
   53800    305.22141   -14493.442    72.784564   -14566.227   -6760.6932 
   54000    302.80711   -14499.558    72.208837   -14571.767   -19333.423 
   54200    277.86867   -14509.296    66.261898   -14575.558    2017.4137 
   54400    290.38338   -14503.878    69.246215   -14573.125    24.129936 
   54600     353.9811   -14486.902    84.412034   -14571.314   -4139.5672 
   54800    314.70202   -14509.279    75.045354   -14584.324    1432.8801 
   55000    299.80048   -14507.703    71.491863   -14579.195   -6630.8962 
   55200      335.175   -14485.003     79.92744    -14564.93   -4822.5632 
   55400    299.79383   -14498.392    71.490276   -14569.883    4770.3009 
   55600    281.58291   -14502.695    67.147615   -14569.843    11184.184 
   55800    252.27203   -14510.559    60.158001   -14570.717    7950.7509 
   56000     307.3503     -14501.3     73.29223   -14574.592   -6362.4935 
   56200    301.85518   -14500.366    71.981836   -14572.347   -2974.2165 
   56400    326.80828   -14504.804    77.932272   -14582.737   -4748.7795 
   56600    338.92797   -14487.815    80.822391   -14568.638   -719.58906 
   56800    267.43572   -14510.287    63.774007   -14574.061    5715.9493 
   57000    331.15209   -14498.423    78.968118   -14577.391    1774.5282 
   57200    304.66761   -14501.773    72.652502   -14574.425   -8513.6374 
   57400    256.74147   -14525.945    61.223804   -14587.169    5851.3529 
   57600    288.33499   -14505.786    68.757746   -14574.544   -9945.2845 
   57800    277.80223   -14502.218    66.246053   -14568.464      6840.14 
   58000    258.87111   -14508.392    61.731648   -14570.124   -1831.6236 
   58200    320.16193   -14488.616    76.347352   -14564.964   -785.73093 
   58400    306.06395   -14507.892     72.98548   -14580.877    7157.9301 
   58600    266.10305   -14501.095    63.456211   -14564.551   -2413.0954 
   58800    340.53455   -14492.956    81.205504   -14574.161    5729.6311 
   59000    290.94982   -14511.361    69.381291   -14580.742    6234.1152 
   59200    352.80595   -14495.032    84.131802   -14579.164   -2336.2169 
   59400    273.57595   -14514.602    65.238235    -14579.84   -4118.2876 
   59600      262.645   -14512.258     62.63159   -14574.889    10939.291 
   59800    304.16899   -14498.895    72.533599   -14571.428    3672.6474 
   60000       275.93   -14509.185    65.799593   -14574.984   -1127.0081 
   60200    268.08077   -14509.099    63.927828   -14573.027   -7325.8492 
   60400    300.30817   -14491.189    71.612929   -14562.802   -9698.3672 
   60600    254.80921   -14511.588    60.763028   -14572.351   -13403.987 
   60800    346.26158   -14501.423    82.571201   -14583.995    814.93328 
   61000    319.98256   -14498.541    76.304579   -14574.846    2997.5002 
   61200    319.08801   -14500.661    76.091259   -14576.753     4341.521 
   61400    312.13211   -14498.016    74.432522   -14572.448   -6306.2094 
   61600    255.73522   -14518.367    60.983849   -14579.351   -7359.6849 
   61800    299.02645   -14500.216    71.307283   -14571.523   -6116.1299 
   62000    312.23179   -14501.196    74.456293   -14575.652   -12526.057 
   62200    263.33142   -14510.975    62.795275    -14573.77    4424.6691 
   62400    325.65787   -14487.961     77.65794   -14565.619   -7717.2705 
   62600    280.01837    -14510.92    66.774526   -14577.695   -17056.396 
   62800     265.5219   -14503.676    63.317628   -14566.994    -18807.25 
   63000     276.2259   -14501.217    65.870155   -14567.087   -15287.428 
   63200    279.28704   -14505.041    66.600128   -14571.641      2061.19 
   63400     264.2057   -14484.621    63.003761   -14547.624    13929.407 
   63600    298.73532   -14503.789     71.23786   -14575.027    1136.8927 
   63800    307.52201   -14500.033    73.333176   -14573.366    3943.5024 
   64000    271.29454   -14495.993      64.6942   -14560.687   -16518.334 
   64200    262.76885   -14514.327    62.661122   -14576.988   -986.96328 
   64400    276.23899   -14507.812    65.873277   -14573.685    2333.0896 
   64600    301.24357   -14498.102    71.835989   -14569.938    6066.4623 
   64800     295.6118   -14503.935     70.49301   -14574.428   -15255.014 
   65000    322.68755   -14509.405    76.949624   -14586.355   -644.06224 
   65200    311.10291   -14488.366    74.187095   -14562.553   -9345.5259 
   65400    295.86507    -14510.58    70.553406   -14581.133    9622.0498 
   65600    309.64783   -14501.087    73.840109   -14574.928    3912.2815 
   65800    314.47881   -14498.094    74.992129   -14573.086   -16103.862 
   66000    262.59886   -14518.854    62.620585   -14581.475     6604.809 
   66200    276.17919    -14493.84    65.859016   -14559.699    20993.781 
   66400    316.44256   -14499.539    75.460414       -14575    18863.438 
   66600    262.49075   -14509.362    62.594805   -14571.956    15481.522 
   66800    302.41224   -14494.985    72.114675     -14567.1   -4613.0446 
   67000    335.14314   -14495.336    79.919844   -14575.256   -18545.653 
   67200    281.44784   -14503.646    67.115404   -14570.761   -1092.8934 
   67400    304.06556   -14505.646    72.508934   -14578.155    8710.8526 
   67600    358.92772   -14487.388    85.591627   -14572.979    3073.9739 
   67800    294.49306   -14505.081     70.22623   -14575.307     23196.51 
   68000    289.95982   -14506.981    69.145213   -14576.126    15653.818 
   68200    328.67808   -14492.363    78.378153   -14570.741   -7209.0446 
   68400    307.69567    -14498.04    73.374588   -14571.414   -596.60131 
   68600    295.57328   -14512.823    70.483825   -14583.307   -16064.328 
   68800     295.4173   -14490.423    70.446628    -14560.87   -9767.2302 
   69000    307.30908   -14494.698    73.282399    -14567.98   -1984.9963 
   69200     286.4647   -14504.189    68.311747     -14572.5   -2100.0345 
   69400     273.0638   -14503.824    65.116106    -14568.94   -2695.8412 
   69600    302.73098   -14499.273    72.190685   -14571.464   -2397.9767 
   69800    319.03983   -14485.543    76.079771   -14561.623    10755.618 
   70000    313.60529   -14502.772    74.783823   -14577.556    2804.3189 
   70200    277.53132   -14503.452    66.181453   -14569.633   -16563.258 
   70400    335.54637   -14477.463       80.016   -14557.479    3632.1944 
   70600    302.52667   -14493.768    72.141962    -14565.91    7934.4798 
   70800     308.9363   -14505.266    73.670435   -14578.936     -8199.29 
   71000    322.73208   -14497.536    76.960242   -14574.496   -5267.6449 
   71200    365.75425   -14480.338    87.219515   -14567.557   -7635.0416 
   71400     319.1626   -14507.716    76.109047   -14583.825    3979.0269 
   71600    304.26301   -14499.688    72.556019   -14572.244   -835.65996 
   71800     363.5237   -14484.706    86.687609   -14571.393   -7751.0667 
   72000    262.19969   -14511.051    62.525398   -14573.577   -12531.876 
   72200    319.30551   -14493.133    76.143126   -14569.276   -21887.564 
   72400    307.55521   -14498.691    73.341093   -14572.032   -1372.0728 
   72600    304.20859   -14501.362    72.543042   -14573.905    6632.7434 
   72800    308.61063    -14498.43    73.592772   -14572.023   -6238.1746 
   73000    274.99838   -14513.632    65.577434   -14579.209   -1254.4467 
   73200    298.19437   -14498.401    71.108861    -14569.51    5499.7471 
   73400    286.93366   -14497.935    68.423579   -14566.358   -25.478241 
   73600    256.44825   -14517.391    61.153882   -14578.544   -1421.2418 
   73800    270.77565   -14501.232    64.570462   -14565.803   -3431.3679 
   74000    292.36877   -14503.047     69.71966   -14572.766    3674.1107 
   74200    277.87889   -14502.455    66.264335    -14568.72   -395.11417 
   74400    285.63328   -14492.384    68.113483   -14560.498    10701.693 
   74600    297.38447   -14505.661    70.915729   -14576.577   -7907.1785 
   74800    251.02515   -14509.022    59.860664   -14568.883    16717.981 
   75000    351.08289   -14489.743    83.720911   -14573.464    5631.8715 
   75200    287.91774   -14498.176    68.658248   -14566.835   -11272.579 
   75400    263.53183   -14519.834    62.843067   -14582.677   -131.89886 
   75600    274.64548   -14515.485    65.493282   -14580.978    9653.1755 
   75800    303.59344   -14497.689    72.396349   -14570.085    923.49457 
   76000    348.18363   -14495.508    83.029541   -14578.538    6185.4085 
   76200    283.13894   -14511.976    67.518672   -14579.494    10714.589 
   76400    271.81955   -14499.766    64.819395   -14564.585    11797.764 
   76600    283.31111   -14496.149    67.559728   -14563.709   -13027.504 
   76800    273.71889   -14504.355    65.272322   -14569.627   -3296.6056 
   77000    251.79782   -14503.401    60.044918   -14563.446    6127.2549 
   77200    303.05548   -14501.103    72.268066   -14573.371    4333.4925 
   77400    277.11461   -14495.093     66.08208   -14561.176    957.60619 
   77600    306.79038   -14498.072    73.158708   -14571.231    1848.8232 
   77800    279.52374   -14513.042    66.656574   -14579.699    12880.898 
   78000     327.3803   -14491.035     78.06868   -14569.104   -1712.6957 
   78200    304.40194   -14502.681     72.58915    -14575.27   -4527.3767 
   78400    271.90354   -14512.334    64.839424   -14577.173     6525.811 
   78600    294.55782   -14497.687    70.241673   -14567.929   -10337.379 
   78800    306.01693   -14496.251    72.974267   -14569.226    6504.5649 
   79000    249.39426   -14518.178    59.471753   -14577.649    12664.638 
   79200    298.17658   -14506.476     71.10462   -14577.581    3532.2748 
   79400    357.42403   -14490.658    85.233052   -14575.891    4747.9123 
   79600    276.40762   -14509.236    65.913489    -14575.15    3370.1464 
   79800    330.83911   -14494.787    78.893484   -14573.681   -5765.4202 
   80000    350.96896   -14488.966    83.693744    -14572.66    3098.7411 
   80200    301.64083   -14504.147    71.930722   -14576.077   -5797.2553 
   80400    328.50667   -14496.996    78.337278   -14575.333    1654.5897 
   80600    249.86353   -14513.918    59.583657   -14573.501    7447.3247 
   80800    319.13795   -14504.323    76.103168   -14580.427    5724.0176 
   81000    342.28918   -14491.864    81.623922   -14573.488    20160.672 
   81200    250.69981   -14511.832    59.783082   -14571.615    15714.689 
   81400    281.52645   -14499.157     67.13415   -14566.291    2487.0139 
   81600    326.78725    -14473.65    77.927257   -14551.577    8549.3678 
   81800    303.48207   -14495.322    72.369792   -14567.692    11112.438 
   82000    299.41632   -14508.604    71.400255   -14580.005    3976.1868 
   82200    338.63877   -14496.514    80.753428   -14577.268   -8450.1053 
   82400    303.36717   -14491.456    72.342393   -14563.799   -14684.454 
   82600    265.54708   -14512.864    63.323633   -14576.187   -2826.2908 
   82800    321.23101   -14498.968     76.60229    -14575.57    11547.354 
   83000    322.38818   -14496.427    76.878235   -14573.305   -12712.379 
   83200    290.74217    -14513.88    69.331774   -14583.212   -4715.9657 
   83400    333.88926   -14499.543    79.620838   -14579.164   -8536.4408 
   83600    280.42327   -14504.874     66.87108   -14571.745   -13646.867 
   83800    280.85417   -14512.115    66.973836   -14579.089   -13488.899 
   84000    296.19986   -14495.631    70.633242   -14566.264    14260.922 
   84200    267.71866   -14504.023    63.841477   -14567.865    4626.8356 
   84400    279.15838   -14524.425    66.569448   -14590.994    11799.809 
   84600    290.31981   -14506.289    69.231057    -14575.52    8240.9778 
   84800    297.96814    -14495.45    71.054914   -14566.505   -12499.388 
   85000    277.20529   -14503.649    66.103706   -14569.752   -11737.267 
   85200    297.46519   -14507.905    70.934979    -14578.84    4276.5162 
   85400    320.77361   -14484.535    76.493217   -14561.029    5359.7068 
   85600    248.94163   -14500.289    59.363818   -14559.653    3732.6232 
   85800    328.21299   -14493.701    78.267247   -14571.968   -669.63001 
   86000    280.27622    -14506.47    66.836015   -14573.306    -14995.93 
   86200    267.28594   -14513.556     63.73829   -14577.294   -20252.336 
   86400    329.17237   -14494.358    78.496026   -14572.854     3930.515 
   86600    295.82513   -14503.317    70.543881   -14573.861    9345.4141 
   86800    278.64181   -14513.282    66.446264   -14579.728   -2237.9573 
   87000    307.96591   -14503.215    73.439031   -14576.654   -3941.5581 
   87200    318.07993   -14492.186    75.850868   -14568.037   -7245.5561 
   87400    302.11888    -14509.32     72.04472   -14581.365    8760.1705 
   87600    277.36573   -14509.799    66.141965   -14575.941    7000.1905 
   87800    316.79787   -14494.638    75.545143   -14570.183    19969.411 
   88000    357.15057   -14500.678     85.16784   -14585.846    13892.213 
   88200    249.47337   -14521.696    59.490618   -14581.187    -4316.273 
   88400    307.82136   -14500.555     73.40456   -14573.959   -9595.5219 
   88600    302.40275   -14496.547    72.112411   -14568.659   -8438.5483 
   88800    290.78065   -14512.491     69.34095   -14581.832   -2805.5449 
   89000    260.27184   -14505.481    62.065674   -14567.546    6178.1373 
   89200    265.80382   -14495.554    63.384856   -14558.938   -764.90388 
   89400    278.49053   -14513.324     66.41019   -14579.734    5683.3978 
   89600    287.10981    -14500.33    68.465584   -14568.796    918.63332 
   89800     300.6476   -14498.705    71.693871   -14570.399   -3590.9409 
   90000    280.97592   -14509.765    67.002867   -14576.768    7448.8752 
   90200    293.35647   -14508.042    69.955193   -14577.997   -9746.5373 
   90400      311.522    -14492.62    74.287033   -14566.907   -13047.563 
   90600     273.8709   -14513.326    65.308569   -14578.635    -9744.206 
   90800    292.99798   -14508.071    69.869706   -14577.941    912.20758 
   91000    305.95509   -14497.841     72.95952   -14570.801        11618 
   91200    295.45888   -14509.849    70.456545   -14580.306   -847.67587 
   91400    302.57781   -14512.225    72.154158   -14584.379   -1682.6765 
   91600     324.3529   -14498.931    77.346751   -14576.278    -7508.062 
   91800    280.26398   -14506.386    66.833096   -14573.219   -12992.078 
   92000    265.52599   -14514.893    63.318604   -14578.212    1543.7144 
   92200    292.94895   -14496.557    69.858014   -14566.415    4362.1895 
   92400    250.54052   -14510.798    59.745095   -14570.544    11739.498 
   92600     309.8008   -14497.557    73.876586   -14571.434    26028.284 
   92800    306.99973   -14493.814     73.20863   -14567.023    16582.486 
   93000     309.4423   -14509.833    73.791096   -14583.624   -5458.4183 
   93200    283.99093   -14497.813     67.72184   -14565.535   -3045.8869 
   93400    323.06501   -14500.373    77.039635   -14577.412   -973.94582 
   93600    281.66522   -14510.899    67.167241   -14578.066   -2329.1497 
   93800    323.80428   -14492.292    77.215924   -14569.508    23098.424 
   94000    284.85219   -14497.337    67.927222   -14565.264    4557.1925 
   94200     282.9656   -14508.895    67.477335   -14576.372    2650.7301 
   94400    355.27168   -14488.967    84.719792   -14573.687   -1630.1302 
   94600    307.21921   -14497.758    73.260968   -14571.019   -2753.1478 
   94800    301.97721   -14507.353    72.010936   -14579.364    5681.3453 
   95000     326.9279    -14487.09    77.960798   -14565.051    6136.3954 
   95200    294.81227   -14502.084    70.302351   -14572.386    5296.5393 
   95400    315.24778   -14508.922    75.175501   -14584.098    6647.5317 
   95600    296.60457   -14501.586     70.72975   -14572.316   -7521.2623 
   95800     267.2485   -14504.423    63.729362   -14568.152   -2463.7664 
   96000    315.17294   -14494.724    75.157654   -14569.882   -1635.6944 
   96200    381.05971   -14485.469    90.869329   -14576.338    7304.4048 
   96400    289.26576   -14506.043    68.979702   -14575.022    8144.4203 
   96600    282.85949   -14498.814    67.452033   -14566.266    6640.9584 
   96800    326.08932   -14481.757    77.760826   -14559.518    2662.5502 
   97000    299.80112   -14504.201    71.492016   -14575.693    2167.0356 
   97200    302.35248   -14504.948    72.100425   -14577.048    -5299.157 
   97400     360.6196    -14482.94    85.995082   -14568.935   -3614.9591 
   97600    274.57134   -14500.576      65.4756   -14566.052   -3250.5587 
   97800    282.41006   -14505.278    67.344859   -14572.623   -2159.8682 
   98000    315.32125   -14497.469     75.19302   -14572.662    5098.5107 
   98200    309.99774   -14478.688     73.92355   -14552.612   -2255.9941 
   98400    268.01807   -14505.148    63.912876   -14569.061    8783.7621 
   98600    305.02576   -14500.185    72.737908   -14572.923   -9427.7235 
   98800    290.38634   -14503.238    69.246921   -14572.485    6846.6829 
   99000    286.08174   -14506.151    68.220425   -14574.371    6245.0997 
   99200    297.63907   -14487.644    70.976442   -14558.621   -11602.514 
   99400    253.44327   -14511.056    60.437299   -14571.494   -3833.5492 
   99600    301.82776   -14500.921    71.975297   -14572.897    -3126.304 
   99800    286.55581   -14491.421    68.333476   -14559.755    8186.9161 
  100000    277.19953   -14513.823    66.102331   -14579.925    24674.952 
  100200    278.74346   -14498.969    66.470504    -14565.44     4428.078 
  100400    301.75472   -14492.571     71.95788   -14564.529    7824.3289 
  100600    286.12684   -14502.825    68.231182   -14571.057    2473.5349 
  100800    250.93409   -14520.249    59.838948   -14580.088   -1690.5498 
  101000    251.37578   -14517.885    59.944275   -14577.829   -826.44414 
  101200    321.12727   -14499.827    76.577552   -14576.405   -8443.0978 
  101400    300.80751   -14498.953    71.732005   -14570.685    11399.911 
  101600    269.38874   -14515.736    64.239733   -14579.976   -5315.7905 
  101800    313.37583   -14500.456    74.729107   -14575.185   -9411.4774 
  102000    338.12587   -14494.589    80.631119    -14575.22    9140.6234 
  102200    285.38423   -14514.615    68.054095   -14582.669    22371.428 
  102400    272.36229   -14525.053    64.948821   -14590.002   -2330.9145 
  102600    303.16598   -14496.462    72.294415   -14568.756   -9911.8027 
  102800    315.04598    -14497.38    75.127378   -14572.507    6203.4711 
  103000    274.07923    -14512.59    65.358251   -14577.949   -2579.3027 
  103200    338.78034   -14485.084    80.787188   -14565.871   -1445.1429 
  103400    317.53843   -14501.279     75.72174       -14577    10607.998 
  103600     268.6326   -14504.193     64.05942   -14568.253   -2911.5914 
  103800    349.27048   -14483.541    83.288716   -14566.829   -1413.2446 
  104000    276.10174   -14500.907    65.840546   -14566.748   -4255.6417 
  104200    294.95873   -14505.421    70.337276   -14575.758    1447.3621 
  104400    309.32158   -14483.623    73.762309   -14557.385    2351.0305 
  104600    305.10775   -14509.964     72.75746   -14582.721    -3892.574 
  104800    318.61703   -14496.886    75.978947   -14572.864    19177.086 
  105000    298.13551   -14496.613    71.094827   -14567.708    13510.416 
  105200    258.93842   -14516.038      61.7477   -14577.786   -1590.6726 
  105400    339.24058   -14497.544    80.896938   -14578.441   -6079.7774 
  105600    308.65468   -14498.028    73.603278   -14571.631   -12576.946 
  105800     305.4283   -14496.422    72.833899   -14569.256   -5032.8893 
  106000    271.65509   -14514.085    64.780177   -14578.865    10492.541 
  106200    302.09648   -14491.406    72.039377   -14563.446    -4759.405 
  106400    314.48624   -14496.549      74.9939   -14571.543    5165.2812 
  106600    308.43589   -14508.574    73.551104   -14582.125    2705.5549 
  106800    289.74505   -14498.449    69.093997   -14567.543    2279.3406 
  107000    316.57667   -14493.035    75.492395   -14568.527    2411.1537 
  107200    280.95104   -14509.956    66.996934   -14576.953   -9788.5545 
  107400    322.19408   -14502.863    76.831949   -14579.695    7330.8719 
  107600    312.80771     -14503.5    74.593629   -14578.093    6676.7684 
  107800    301.59692   -14497.042    71.920251   -14568.962   -791.19162 
  108000    339.76915    -14489.78    81.022983   -14570.803     2879.123 
  108200    302.16302   -14508.905    72.055246   -14580.961     6778.551 
  108400    290.20574   -14494.699    69.203854   -14563.902     9788.206 
  108600    361.19012   -14486.849    86.131132    -14572.98   -1219.6368 
  108800    340.09291   -14502.465     81.10019   -14583.565   -10490.252 
  109000    282.64696    -14512.01    67.401351   -14579.412    2314.2529 
  109200    323.91319   -14493.537    77.241894   -14570.779    11285.654 
  109400    322.09692    -14489.03    76.808779   -14565.839    5249.8306 
  109600    333.75839   -14508.246    79.589629   -14587.835   -14842.827 
  109800    290.85794   -14498.156    69.359381   -14567.515     7447.945 
  110000    366.80859   -14486.005    87.470938   -14573.476    26565.738 
  110200    314.16221   -14502.139     74.91663   -14577.055    5480.4789 
  110400    247.68771   -14508.618      59.0648   -14567.683     -17466.1 
  110600     321.1146   -14483.035    76.574531   -14559.609    9142.4493 
  110800    346.09047   -14501.901    82.530396   -14584.432    2494.5604 
  111000    290.04286   -14507.847    69.165014   -14577.012    2263.2704 
  111200    378.77909   -14479.407    90.325481   -14569.733    2467.1032 
  111400    289.99049   -14498.213    69.152526   -14567.366    1757.9298 
  111600    289.67763   -14505.844     69.07792   -14574.922     2662.204 
  111800    314.43563   -14499.747    74.981832   -14574.728    523.82502 
  112000    299.99482   -14515.163    71.538205   -14586.702   -1494.2413 
  112200    317.44798    -14495.01    75.700171    -14570.71    9323.9549 
  112400    303.94949   -14502.571    72.481256   -14575.053   -775.16198 
  112600    291.04636   -14506.434    69.404313   -14575.838    7282.8581 
  112800    314.85825   -14499.829    75.082611   -14574.911    8470.1394 
  113000    345.05874   -14486.139    82.284364   -14568.424    21149.031 
  113200    247.39831   -14504.004    58.995789   -14562.999   -9394.7913 
  113400    283.33479   -14508.847    67.565375   -14576.412    -9226.797 
  113600    345.75518   -14487.261    82.450441   -14569.711     6886.135 
  113800    334.22082   -14503.235    79.699902   -14582.935   -10867.732 
  114000    315.88945   -14502.839    75.328517   -14578.167   -3284.1156 
  114200    299.74437   -14502.399    71.478482   -14573.878    12161.931 
  114400    308.23812   -14506.091    73.503944   -14579.595   -2529.5805 
  114600    279.84427    -14501.07    66.733009   -14567.803   -5160.8253 
  114800    354.39538    -14491.62    84.510826   -14576.131   -7064.5979 
  115000    278.00093    -14511.53    66.293438   -14577.823   -7320.5214 
  115200    301.46803    -14498.53    71.889514   -14570.419    840.77279 
  115400    288.66627   -14492.854    68.836745    -14561.69   -7980.8303 
  115600    313.86492   -14503.756    74.845736   -14578.602   -2650.0141 
  115800    321.05768   -14503.059    76.560958    -14579.62    583.42442 
  116000    389.02818   -14472.346    92.769529   -14565.116     18597.74 
  116200    294.71872   -14497.607    70.280043   -14567.887    6300.8695 
  116400    264.97558   -14508.432    63.187351   -14571.619   -18534.091 
  116600    346.33979   -14483.275    82.589849   -14565.865   -20545.991 
  116800    337.11376   -14492.408    80.389766   -14572.798   -45.976383 
  117000    290.67259   -14507.741    69.315183   -14577.056    18156.196 
  117200    343.25016   -14489.567    81.853082    -14571.42    27919.633 
  117400    308.23437   -14491.173    73.503049   -14564.676   -5141.8484 
  117600    269.18389   -14505.763    64.190883   -14569.953    6550.0174 
  117800    339.74195   -14500.404    81.016498    -14581.42    14257.023 
  118000    302.06128   -14491.641    72.030985   -14563.672    4228.9882 
  118200    273.62926   -14498.393    65.250947   -14563.644   -6258.9458 
  118400     298.7003   -14510.749    71.229508   -14581.979    11920.294 
  118600    326.88838    -14495.65    77.951374   -14573.602    10271.868 
  118800    282.80329   -14492.383     67.43863   -14559.821     -6314.31 
  119000     280.2805   -14515.137    66.837033   -14581.974   -1692.4262 
  119200     329.6231   -14500.857    78.603508    -14579.46   -11266.561 
  119400    300.25415    -14499.96    71.600048    -14571.56    366.03945 
  119600    332.53532   -14478.957    79.297971   -14558.255    930.75279 
  119800    292.14286   -14503.874     69.66579   -14573.539   -5034.2419 
  120000    345.59219   -14504.947    82.411574   -14587.358     14143.11 
  120200    330.57048   -14480.045    78.829424   -14558.874    310.72027 
  120400    366.87077   -14487.089    87.485765   -14574.575    3613.8394 
  120600    314.99006   -14503.255    75.114043   -14578.369   -5138.6976 
  120800    253.97459   -14513.306    60.564001    -14573.87    3091.9137 
  121000    330.46907   -14490.915    78.805242    -14569.72     2808.761 
  121200    314.85169     -14499.5    75.081046   -14574.581    6609.4292 
  121400    274.26541   -14513.499    65.402646   -14578.902   -2976.8291 
  121600    337.79899   -14499.599    80.553169   -14580.152    1217.9567 
  121800    333.95537   -14492.926    79.636602   -14572.563    9704.6911 
  122000    307.98842    -14496.35    73.444398   -14569.795   -761.18113 
  122200    264.36582   -14513.623    63.041943   -14576.665   -14068.701 
  122400     302.4065   -14490.001    72.113308   -14562.114    6043.1499 
  122600    308.99205   -14497.654    73.683728   -14571.338   -7307.8692 
  122800    257.54816   -14514.408    61.416171   -14575.824   -2717.9486 
  123000    307.60174   -14490.504    73.352189   -14563.856    15482.357 
  123200    311.57331   -14493.626    74.299267   -14567.925    5265.4607 
  123400    258.96329   -14509.135     61.75363   -14570.889   -2801.6172 
  123600    307.75813   -14496.965    73.389482   -14570.355   -9004.6485 
  123800    299.53574   -14474.105    71.428731   -14545.533   -11840.163 
  124000    289.61199   -14500.424    69.062267   -14569.486   -12203.084 
  124200    289.47859    -14503.42    69.030455    -14572.45   -4642.8831 
  124400    274.77539   -14508.026     65.52426   -14573.551   -4068.3848 
  124600    294.32332   -14495.692    70.185752   -14565.877   -7158.0492 
  124800     352.3382   -14486.917    84.020259   -14570.937   -1183.5493 
  125000    291.47631   -14510.667    69.506842   -14580.174   -13653.281 
  125200     335.6294   -14495.766    80.035798   -14575.802   -4190.2883 
  125400    354.36024   -14474.525    84.502445   -14559.027    9799.3398 
  125600    288.34777   -14503.762    68.760794   -14572.523    354.90529 
  125800    283.08587   -14509.012    67.506016   -14576.518   -7032.1565 
  126000    360.98562   -14487.882    86.082364   -14573.965    558.19138 
  126200    318.73751   -14505.097    76.007677   -14581.105     14821.59 
  126400    281.12063   -14511.648    67.037377   -14578.685    11205.785 
  126600    342.47928   -14497.226    81.669253   -14578.896     923.6834 
  126800    294.70012   -14495.531    70.275606   -14565.806   -17217.311 
  127000    279.60199   -14509.226    66.675234   -14575.901    -6851.564 
  127200    347.70766   -14487.753    82.916038   -14570.669   -2320.2923 
  127400    314.95807   -14503.504    75.106415    -14578.61    7142.3927 
  127600    315.22633   -14506.124    75.170386   -14581.294    10190.616 
  127800    292.39324    -14491.19    69.725497   -14560.916    688.82764 
  128000    286.36477   -14509.197     68.28792   -14577.485    8207.2649 
  128200    288.23178   -14506.476    68.733135   -14575.209   -13625.666 
  128400    326.07764   -14493.679    77.758041   -14571.437   -5458.7908 
  128600    289.70006     -14513.5    69.083268   -14582.583    4756.1171 
  128800    269.42381   -14511.451    64.248095   -14575.699    8670.1704 
  129000    310.89192   -14495.212     74.13678   -14569.349    3416.9363 
  129200    291.40052   -14499.994    69.488767   -14569.483    2634.7399 
  129400    268.73039    -14521.21     64.08274   -14585.293    5596.4774 
  129600    286.00437   -14509.794    68.201975   -14577.996    3528.9367 
  129800    314.83861   -14493.355    75.077929   -14568.433    -9366.472 
  130000    293.74917   -14507.048    70.048837   -14577.097    179.65307 
  130200    280.57296   -14508.733    66.906777   -14575.639    1266.7972 
  130400    317.37494   -14492.497    75.682753    -14568.18    -11035.44 
  130600    378.91608   -14469.668    90.358149   -14560.026   -14483.962 
  130800    321.67769   -14498.687    76.708807   -14575.396   -335.86138 
  131000     282.7406   -14509.823    67.423681   -14577.246    9941.8203 
  131200    317.51246   -14497.281    75.715546   -14572.997    -12847.95 
  131400    353.63509       -14485    84.329522    -14569.33   -2597.6323 
  131600    276.79453   -14504.838    66.005752   -14570.843    2803.4546 
  131800     254.6954   -14508.815     60.73589   -14569.551    7076.0378 
  132000    315.31801   -14485.966    75.192248   -14561.158    15857.947 
  132200    302.77032   -14496.706    72.200064   -14568.906    15092.692 
  132400    274.40116   -14505.535    65.435019    -14570.97    10818.118 
  132600    303.63959   -14494.214    72.407355   -14566.621   -519.41653 
  132800    301.11928   -14486.357    71.806351   -14558.163    6380.2793 
  133000    285.90486   -14511.161    68.178247   -14579.339   -3395.1835 
  133200    309.67456   -14500.904    73.846484   -14574.751   -5910.1677 
  133400    331.70289   -14484.559    79.099465   -14563.659   -10143.903 
  133600    287.04139   -14497.035     68.44927   -14565.485    4055.0013 
  133800    244.04484   -14513.572    58.196104   -14571.768    7178.3828 
  134000    327.59939   -14486.879    78.120925       -14565    2778.6757 
  134200    325.10281   -14490.363    77.525577   -14567.889     6156.463 
  134400    318.36252   -14502.506    75.918256   -14578.424    4818.1757 
  134600    283.54935    -14513.06     67.61654   -14580.677    8340.3301 
  134800      227.525    -14525.21    54.256705   -14579.467   -10271.716 
  135000    313.49608   -14501.082    74.757782    -14575.84   -7678.5367 
  135200    338.00211   -14492.045    80.601607   -14572.647    -2846.514 
  135400    266.09981   -14513.945     63.45544   -14577.401    4177.7155 
  135600    285.60562   -14505.643    68.106887   -14573.749    5983.8953 
  135800    322.55164   -14495.029    76.917213   -14571.947    5549.3246 
  136000    269.60242   -14506.772    64.290689   -14571.063   -5434.8842 
  136200    246.91804   -14514.279    58.881263    -14573.16   -20751.458 
  136400    322.32734   -14499.177    76.863725   -14576.041   -12390.305 
  136600    286.24954   -14506.377     68.26044   -14574.638   -20323.121 
  136800    310.16155   -14505.747    73.962613    -14579.71   -14618.158 
  137000    321.66652   -14488.098    76.706144   -14564.804    12550.739 
  137200    272.03547   -14514.187    64.870884   -14579.058    -732.2459 
  137400    281.77422   -14506.262    67.193233   -14573.455    2244.9371 
  137600    330.54247   -14493.197    78.822746   -14572.019   -8193.6679 
  137800    329.41656   -14501.742    78.554256   -14580.296   -6928.8546 
  138000    308.05889   -14504.001    73.461203   -14577.462   -11425.924 
  138200    290.02103   -14489.054    69.159808   -14558.214   -10602.473 
  138400    269.20035    -14507.18     64.19481   -14571.374   -7242.9186 
  138600    337.77881   -14503.776    80.548359   -14584.324    -448.2254 
  138800    354.81429    -14473.75     84.61072   -14558.361   -20327.448 
  139000    324.63488   -14497.605    77.413993   -14575.019   -5195.8036 
  139200    270.75861   -14509.307    64.566399   -14573.873    3786.2032 
  139400     354.5018    -14491.33    84.536203   -14575.866    4538.1932 
  139600    297.10697   -14496.603    70.849556   -14567.452    5827.5283 
  139800    259.28017   -14516.791    61.829195    -14578.62     5853.886 
  140000    308.73518   -14506.582    73.622475   -14580.205    5565.2788 
  140200    294.59981   -14493.197    70.251685   -14563.449   -1492.3243 
  140400    288.07065   -14498.693     68.69471   -14567.387   -12027.166 
  140600    303.68234   -14505.609    72.417549   -14578.026   -19824.782 
  140800    348.22573   -14493.424    83.039579   -14576.463   -10633.825 
  141000    260.61051   -14507.945    62.146434   -14570.092    140.45124 
  141200    290.45266   -14507.326    69.262736   -14576.589    10953.532 
  141400    333.85087   -14488.202    79.611682   -14567.814     19887.39 
  141600     283.5875   -14505.114    67.625637    -14572.74    7363.2832 
  141800    300.01117   -14498.805    71.542104   -14570.347   -17466.897 
  142000    285.94269   -14500.656    68.187266   -14568.843   -6855.6831 
  142200    265.36496   -14517.393    63.280203   -14580.673   -5419.8226 
  142400    300.55664   -14497.009     71.67218   -14568.682   -2216.9011 
  142600    335.07296   -14496.693    79.903107   -14576.596    10959.456 
  142800    275.64935   -14511.605    65.732668   -14577.337     127.1985 
  143000    264.12991   -14507.008    62.985686   -14569.993   -2924.1046 
  143200    320.21929   -14493.791    76.361029   -14570.152    985.51007 
  143400    287.97662   -14510.755    68.672288   -14579.428    125.05258 
  143600    270.88334   -14517.044    64.596142    -14581.64     4678.487 
  143800    291.44124   -14501.446    69.498478   -14570.945    303.89346 
  144000    290.56067   -14497.011    69.288493   -14566.299   -14323.077 
  144200    351.89306   -14492.762    83.914111   -14576.676   -6185.7128 
  144400    307.52838   -14510.923    73.334695   -14584.258    8533.4768 
  144600    317.26483   -14492.909    75.656495   -14568.565    17565.439 
  144800     311.7096    -14495.33    74.331768   -14569.662     2209.781 
  145000     292.0298   -14504.782    69.638829   -14574.421   -187.16523 
  145200    349.43059   -14488.668    83.326898   -14571.995   -2267.4909 
  145400     282.2329    -14494.37    67.302613   -14561.673   -22832.253 
  145600     279.1392   -14505.423    66.564874   -14571.988   -24976.336 
  145800    345.60451   -14485.891    82.414512   -14568.306    2152.5124 
  146000    305.34004    -14495.49    72.812853   -14568.303   -2272.7902 
  146200    298.17687   -14504.516    71.104688   -14575.621   -368.87545 
  146400    323.69131   -14493.997    77.188986   -14571.186    177.51649 
  146600    336.08363     -14497.5    80.144117   -14577.644    -11952.05 
  146800    289.20388   -14510.171    68.964946   -14579.136   -16232.039 
  147000    332.26422   -14495.469    79.233323   -14574.703    1510.5806 
  147200    293.81475   -14498.645    70.064476   -14568.709    19788.304 
  147400    306.08365   -14498.998    72.990177   -14571.988    11987.916 
  147600    321.34979   -14500.562    76.630614   -14577.193    12712.478 
  147800    273.32444   -14515.069    65.178259   -14580.247     10914.85 
  148000    303.77521   -14493.634    72.439696   -14566.074   -3306.9557 
  148200    283.66316   -14504.603     67.64368   -14572.247    6628.4071 
  148400    316.46052   -14504.439    75.464696   -14579.903    9771.0789 
  148600    337.53381   -14484.128    80.489933   -14564.618    24277.797 
  148800    278.53904   -14506.583    66.421757   -14573.005    25560.417 
  149000    286.70167   -14503.874    68.368258   -14572.242     -2597.63 
  149200    369.80818   -14476.295    88.186235   -14564.481     4681.284 
  149400    279.60741   -14498.456    66.676527   -14565.132    5499.8014 
  149600    275.32307    -14507.42    65.654862   -14573.075   -1382.1964 
  149800    304.91077   -14512.768    72.710488   -14585.478    13135.671 
  150000    313.58263   -14491.413     74.77842   -14566.192     10886.71 
  150200    314.25652   -14509.429     74.93912   -14584.368   -506.63473 
  150400    320.27735   -14509.708    76.374876   -14586.082    10167.258 
  150600    311.63953   -14493.444    74.315059   -14567.759    8353.2023 
  150800    291.29728   -14500.025    69.464149   -14569.489   -6546.2908 
  151000    279.76342   -14508.888     66.71373   -14575.602   -7206.5135 
  151200    349.19768    -14493.03    83.271356   -14576.301   -2144.4152 
  151400    293.13034   -14513.023     69.90127   -14582.924   -6546.4755 
  151600    289.82959   -14503.896    69.114156    -14573.01   -2713.3082 
  151800    342.23764   -14493.837    81.611633   -14575.449    7073.9465 
  152000    327.51107     -14499.5    78.099863     -14577.6    8963.7299 
  152200    240.47866   -14514.238    57.345696   -14571.584   -370.82531 
  152400    278.32841   -14510.359    66.371529   -14576.731   -6702.2209 
  152600    282.22547   -14491.691    67.300842   -14558.991    18603.409 
  152800     287.3809   -14508.492    68.530231   -14577.022     8759.668 
  153000    269.07862   -14508.495    64.165781   -14572.661    4189.0773 
  153200    314.67366    -14498.39    75.038592   -14573.429    4141.4875 
  153400    265.29233   -14505.128    63.262883   -14568.391   -6965.4427 
  153600    269.64801   -14511.278     64.30156    -14575.58   -7624.1348 
  153800    325.34565   -14490.464    77.583488   -14568.047     2290.178 
  154000    317.74103   -14505.562    75.770052   -14581.332    7050.0487 
  154200    308.90113   -14498.952    73.662049   -14572.614    3717.4497 
  154400    320.90338    -14489.68    76.524161   -14566.204    8115.1705 
  154600    281.68453    -14507.05    67.171847   -14574.222    -12222.75 
  154800     343.5492   -14491.919    81.924393   -14573.844   -9742.7317 
  155000    351.02008   -14494.954    83.705935    -14578.66   -4931.5906 
  155200    297.06545   -14507.439    70.839655   -14578.278   -3436.8895 
  155400    274.03967   -14501.237    65.348815   -14566.586   -2805.7758 
  155600    283.62808   -14501.551    67.635314   -14569.186   -2206.5049 
  155800    290.55477    -14511.23    69.287087   -14580.517    18301.541 
  156000    299.90911   -14506.971    71.517767   -14578.489   -2632.6748 
  156200    294.87232   -14494.957    70.316671   -14565.273    -19576.65 
  156400    274.69554   -14510.211    65.505217   -14575.717   -6941.4196 
  156600    296.36124   -14510.606    70.671725   -14581.278    5820.9937 
  156800    325.98112   -14499.558    77.735024   -14577.293    2382.4833 
  157000    288.05851   -14505.197    68.691816   -14573.889    3977.5527 
  157200    281.96223   -14516.128    67.238067   -14583.366   -4631.3141 
  157400    304.10842   -14494.053    72.519154   -14566.572    12035.418 
  157600    275.05315   -14498.777    65.590495   -14564.368    3142.1249 
  157800    258.94795   -14519.856    61.749972   -14581.606   -14149.109 
  158000    296.56561   -14503.011    70.720459   -14573.732   -4774.6793 
  158200    275.20419   -14499.796    65.626513   -14565.422    787.70211 
  158400    289.32012   -14496.561    68.992667   -14565.553     1757.904 
  158600     287.1226   -14511.904    68.468636   -14580.373    5382.5247 
  158800    304.57707   -14495.769    72.630912     -14568.4    5887.5011 
  159000    291.38795   -14492.616     69.48577   -14562.102    7412.3117 
  159200    263.49546   -14504.689    62.834394   -14567.524   -2856.1666 
  159400    298.71747   -14502.728    71.233604   -14573.961    6434.3225 
  159600    300.03701   -14502.359    71.548267   -14573.907    13232.799 
  159800    275.41994   -14507.896    65.677963   -14573.574    439.01776 
  160000    348.01369   -14488.754    82.989018   -14571.743   -5042.0391 
  160200     300.1042   -14508.258    71.564288   -14579.823    2837.2373 
  160400    265.88837   -14506.727    63.405019   -14570.132   -13582.464 
  160600    308.47826   -14492.698    73.561208   -14566.259    6819.5019 
  160800    284.97471   -14504.724    67.956439    -14572.68   -1029.7673 
  161000    234.91483   -14529.066     56.01892   -14585.084    6313.6808 
  161200    284.80182   -14510.126    67.915211   -14578.041   -7196.9381 
  161400    351.18817   -14492.668    83.746018   -14576.414   -4429.0405 
  161600    278.48636   -14511.048    66.409195   -14577.457    19481.945 
  161800    302.37375   -14508.527    72.105497   -14580.633    19483.233 
  162000    276.09195   -14501.972    65.838212    -14567.81    3596.7764 
  162200    294.59236   -14490.316    70.249909   -14560.566   -304.07893 
  162400      341.193   -14488.822    81.362521   -14570.184      5694.02 
  162600    254.71331   -14511.875     60.74016   -14572.615   -15748.201 
  162800    294.19478    -14499.37    70.155101   -14569.525   -11042.865 
  163000    328.10151   -14474.849    78.240661   -14553.089    1170.6746 
  163200    313.66678   -14497.677    74.798486   -14572.475   -5137.1964 
  163400    282.52193    -14506.93    67.371537   -14574.301    17764.334 
  163600    321.99476   -14498.551    76.784417   -14575.335    3005.6053 
  163800    338.23762   -14489.364    80.657767   -14570.022   -9547.7751 
  164000    288.54903   -14511.513    68.808789   -14580.322   -10021.173 
  164200    296.94441   -14497.489     70.81079     -14568.3   -19570.494 
  164400    319.72198    -14488.64    76.242439   -14564.882   -2883.2556 
  164600    318.88901   -14497.634    76.043805   -14573.678   -14601.654 
  164800    276.05344   -14520.541    65.829028    -14586.37    5318.8706 
  165000     325.2537   -14505.583     77.56156   -14583.145   -6274.6152 
  165200     272.9701   -14495.296     65.09376   -14560.389    13552.081 
  165400    265.98149   -14504.805    63.427223   -14568.233   -17800.855 
  165600    246.83869   -14524.353    58.862339   -14583.215   -2789.2267 
  165800    306.92895   -14511.979    73.191752   -14585.171    317.88371 
  166000    327.00388   -14495.009    77.978916   -14572.988    18652.949 
  166200    358.83156   -14490.939    85.568697   -14576.508    18436.633 
  166400    263.25831   -14508.758     62.77784   -14571.536   -8208.4074 
  166600    303.96739   -14493.749    72.485525   -14566.234   -2535.3245 
  166800    312.73894   -14489.585    74.577231   -14564.162   -654.39878 
  167000    284.59302   -14506.626    67.865419   -14574.491   -2340.1617 
  167200    238.82611   -14512.575    56.951621   -14569.526   -4314.9172 
  167400    323.64632    -14489.18    77.178256   -14566.358    5353.6521 
  167600    289.40249   -14505.685    69.012307   -14574.697   -2634.2184 
  167800    297.33234   -14513.962    70.903298   -14584.866   -2344.7741 
  168000    264.25639   -14512.467    63.015849   -14575.483   -20420.118 
  168200    324.00819   -14494.718     77.26455   -14571.983   -4167.3268 
  168400    301.92846   -14507.216     71.99931   -14579.216    4214.8846 
  168600    329.03706   -14507.204    78.463757   -14585.668    14063.542 
  168800    324.03475   -14494.881    77.270884   -14572.152   -3743.3033 
  169000    378.74175   -14468.717    90.316578   -14559.034   -6577.7786 
  169200    294.34485   -14491.881    70.190886   -14562.072    14982.654 
  169400    263.59669   -14507.967    62.858533   -14570.826    7842.8521 
  169600     294.4408   -14496.761    70.213767   -14566.975    6047.3927 
  169800    361.19373   -14488.776    86.131992   -14574.908   -14376.513 
  170000    269.12788   -14508.401    64.177527   -14572.578   -7309.8118 
  170200    298.03723   -14493.624    71.071389   -14564.696    6571.9558 
  170400    329.65771   -14482.872     78.61176   -14561.484    1657.5084 
  170600    289.10017   -14509.608    68.940215   -14578.549    2165.6093 
  170800    295.81532   -14501.335    70.541542   -14571.877    2792.8646 
  171000    332.95492   -14487.959     79.39803   -14567.358    2381.2906 
  171200     281.8734   -14510.076    67.216885   -14577.293    4495.5207 
  171400    271.39538   -14496.128    64.718245   -14560.846    6771.0009 
  171600    293.73607   -14496.314    70.045714    -14566.36    9700.3305 
  171800    275.73136   -14513.466    65.752225   -14579.218    22396.647 
  172000    307.11157   -14494.619      73.2353   -14567.854    8133.3213 
  172200    355.86131   -14498.565    84.860398   -14583.425    3250.0389 
  172400     287.8212   -14502.792    68.635226   -14571.427   -6670.6689 
  172600    328.11822    -14483.04    78.244647   -14561.285    1193.2181 
  172800    305.33867   -14491.869    72.812527   -14564.682    -3916.746 
  173000    266.70711   -14502.354     63.60026   -14565.954   -12513.566 
  173200    341.70938   -14489.857    81.485661   -14571.343   -2441.9964 
  173400    319.57247   -14497.013    76.206786    -14573.22    8358.5735 
  173600    289.93435    -14504.93    69.139138   -14574.069    10976.939 
  173800    317.01278   -14492.883    75.596391    -14568.48    13345.674 
  174000    258.39685   -14519.199    61.618553   -14580.817    7354.2241 
  174200    285.28638   -14509.626     68.03076   -14577.657   -4517.1173 
  174400    328.81456   -14493.759      78.4107    -14572.17    14415.805 
  174600    293.14567   -14509.832    69.904925   -14579.737   -7206.9659 
  174800    313.25401   -14509.518    74.700056   -14584.218   -5921.3355 
  175000    298.95991   -14496.916    71.291416   -14568.207   -1935.2301 
  175200    270.42571   -14500.303    64.487013    -14564.79   -1007.3512 
  175400    248.22794    -14522.76    59.193626   -14581.954    7616.4042 
  175600    292.59759   -14502.312    69.774227   -14572.087    9530.9987 
  175800    343.40901   -14492.952    81.890962   -14574.843    6396.1529 
  176000    284.67779   -14510.864    67.885634   -14578.749    27794.684 
  176200    261.73875   -14509.804    62.415479   -14572.219    19024.479 
  176400    310.85125   -14495.086    74.127083   -14569.213    2888.6601 
  176600    293.04632    -14508.34    69.881233   -14578.221   -7348.9075 
  176800     238.0441   -14523.906     56.76514   -14580.671   -20020.842 
  177000     316.0725   -14498.261    75.372166   -14573.633   -1753.3404 
  177200    293.75731   -14496.787    70.050778   -14566.838   -3532.3696 
  177400    297.11682   -14510.126    70.851905   -14580.978   -601.40883 
  177600    311.17989   -14506.574    74.205452    -14580.78    1656.2954 
  177800    377.52935   -14489.885    90.027463   -14579.913    9251.7178 
  178000    297.37825   -14507.713    70.914246   -14578.627    5195.9959 
  178200    270.22034   -14500.933    64.438041   -14565.371    16505.861 
  178400    299.29639   -14478.281    71.371655   -14549.653    9961.0693 
  178600    292.15338   -14502.657    69.668298   -14572.326    1442.7341 
  178800    292.29813   -14506.192    69.702816   -14575.895   -3185.2227 
  179000    323.64761   -14494.301    77.178564   -14571.479   -1977.4621 
  179200     238.6365   -14497.112    56.906407   -14554.018    2651.1062 
  179400    243.21472    -14516.65    57.998151   -14574.648    7994.8131 
[...]
  950000     294.3347   -14501.231    70.188467    -14571.42    11629.955 
  950200    376.35627   -14488.823    89.747723   -14578.571    26603.627 
  950400    304.15881   -14502.934    72.531171   -14575.465    2178.9894 
  950600    292.55291   -14506.853    69.763573   -14576.616   -4077.6029 
  950800    317.93768   -14485.537    75.816947   -14561.354   -861.48795 
  951000    286.89145   -14498.876    68.413513    -14567.29   -10747.111 
  951200    301.81084   -14505.331    71.971263   -14577.302   -9794.0375 
  951400    314.88942   -14500.738    75.090043   -14575.828    2553.2831 
  951600    325.50635     -14483.6    77.621807   -14561.222   -4587.5947 
  951800    279.96686   -14510.988    66.762243    -14577.75   -7785.2891 
  952000    299.04764   -14502.527    71.312338   -14573.839     -8411.01 
  952200    325.90752   -14490.317    77.717473   -14568.034   -2638.1237 
  952400    296.61634   -14508.065    70.732557   -14578.797    9420.9415 
  952600    302.50863   -14509.037    72.137661   -14581.174     7162.685 
  952800    302.53447   -14491.345    72.143824   -14563.489    3827.2061 
  953000    263.83472   -14508.309    62.915294   -14571.224    2424.3003 
  953200    261.12217   -14511.373    62.268447   -14573.641     15975.57 
  953400    305.71083   -14498.659    72.901273    -14571.56     13390.89 
  953600    287.76994   -14503.593    68.623002   -14572.216    16588.171 
  953800    250.17596   -14521.303    59.658161   -14580.961    21189.664 
  954000    243.23391   -14502.132    58.002726   -14560.135    11989.521 
  954200    252.01274   -14496.387    60.096167   -14556.483   -13209.677 
  954400    269.35757   -14512.111      64.2323   -14576.343    -8368.123 
  954600    295.02543   -14502.832    70.353182   -14573.185   -4519.6769 
  954800    287.92219   -14493.109    68.659308   -14561.768    9918.2452 
  955000    274.43303   -14505.578    65.442619    -14571.02    5016.1804 
  955200    298.62568   -14514.354    71.211714   -14585.566    3473.5724 
  955400    345.41729   -14498.095    82.369867   -14580.465   -8193.8891 
  955600    286.53179   -14492.789    68.327747   -14561.117   -2615.9832 
  955800    259.87268   -14515.598    61.970488   -14577.569     11346.31 
  956000    309.13686   -14502.287    73.718262   -14576.006    599.44565 
  956200    303.38217   -14496.643     72.34597   -14568.989    2163.1077 
  956400    268.20685   -14513.951    63.957895   -14577.909    5419.2166 
  956600    298.59575   -14500.391    71.204577   -14571.595   -9018.3008 
  956800    284.75403    -14498.64    67.903813   -14566.543    4160.9553 
  957000    253.50479   -14514.469     60.45197   -14574.921   -16510.005 
  957200     281.6604   -14509.359    67.166093   -14576.525   -1017.2668 
  957400    308.75341    -14499.38    73.626822   -14573.007    5593.5381 
  957600    256.28847   -14509.555    61.115779   -14570.671      4523.69 
  957800    303.66561   -14487.658    72.413559   -14560.072    7971.7411 
  958000    290.35469   -14504.968    69.239375   -14574.207   -9549.3039 
  958200    326.54778   -14498.943    77.870151   -14576.813   -9860.8908 
  958400    332.07032   -14487.163    79.187084    -14566.35    6440.0779 
  958600    298.62826   -14498.165    71.212329   -14569.377    7454.9914 
  958800    294.24724   -14504.721    70.167611   -14574.888   -7705.2466 
  959000    362.73775   -14485.921    86.500186   -14572.421   -5847.9163 
  959200    303.86665   -14489.489    72.461501   -14561.951   -259.61132 
  959400    256.56028   -14508.241    61.180596   -14569.422    13492.085 
  959600    270.67021   -14501.173     64.54532   -14565.719    13448.036 
  959800    354.10411   -14485.902    84.441366   -14570.344    14979.328 
  960000    307.65214   -14504.209    73.364208   -14577.573    1526.7889 
  960200    272.40167   -14505.608    64.958211   -14570.566   -1291.1947 
  960400    326.12194   -14497.663    77.768605   -14575.432   -1179.9871 
  960600    367.00928   -14480.145    87.518797   -14567.663    12705.016 
  960800    327.78272   -14495.646    78.164643    -14573.81    1561.8285 
  961000    302.92769   -14502.785    72.237592   -14575.022    1410.6371 
  961200    325.91823   -14489.834    77.720028   -14567.554    14907.167 
  961400    338.41029   -14490.949    80.698944   -14571.648    11381.131 
  961600    297.59442   -14502.869    70.965794   -14573.834    11256.071 
  961800    252.69048   -14513.028    60.257785   -14573.286    4978.3988 
  962000    288.51977   -14508.165     68.80181   -14576.967     3435.267 
  962200    301.24215   -14496.196    71.835649   -14568.032    4893.4532 
  962400    285.67383    -14514.51    68.123155   -14582.633    11084.929 
  962600    290.55263   -14510.266    69.286576   -14579.553   -6512.4335 
  962800    323.37157   -14497.611    77.112738   -14574.724    2852.5068 
  963000    287.85813   -14504.539    68.644034   -14573.183   -8775.5953 
  963200    278.98949   -14506.645    66.529173   -14573.175   -5449.2463 
  963400    308.87772   -14491.283    73.656465   -14564.939    6467.0302 
  963600    297.19677   -14513.176    70.870969   -14584.047    10785.826 
  963800    287.76116   -14506.741    68.620909   -14575.361     2716.182 
  964000    308.71773   -14501.387    73.618313   -14575.005    -9441.799 
  964200    268.52636   -14503.116    64.034087    -14567.15   -13568.594 
  964400    278.72423   -14509.824     66.46592    -14576.29   -4761.7476 
  964600    316.69218    -14494.52    75.519939    -14570.04     -759.294 
  964800    355.40387    -14480.38    84.751315   -14565.132    6208.2709 
  965000    324.58192   -14506.472    77.401363   -14583.873   -3019.1805 
  965200     312.3257   -14501.574    74.478688   -14576.053   -8099.7199 
  965400    345.68115    -14488.25    82.432788   -14570.682   -4306.6545 
  965600     337.6768   -14498.276    80.524032     -14578.8   -2729.2947 
  965800    276.03461   -14504.588     65.82454   -14570.412    6925.9006 
  966000    329.98032   -14476.527    78.688692   -14555.216   -2046.9679 
  966200    332.11765   -14492.735    79.198371   -14571.933     13061.64 
  966400    282.05363   -14506.223    67.259864   -14573.483    338.92913 
  966600    269.47295   -14506.277    64.259814   -14570.537   -18575.236 
  966800    357.85465   -14487.822    85.335739   -14573.157   -15594.805 
  967000    273.73954   -14508.813    65.277245    -14574.09    6885.4526 
  967200    308.28315   -14505.386     73.51468     -14578.9   -3147.5872 
  967400    332.50706   -14495.472     79.29123   -14574.763   -2035.4497 
  967600    370.26769   -14475.668    88.295812   -14563.964   -3253.7564 
  967800    291.80403   -14501.494    69.584991   -14571.079    6670.1659 
  968000    249.77286   -14510.693    59.562037   -14570.255   -370.87486 
  968200    325.99315   -14487.309    77.737892   -14565.047    13577.642 
  968400     296.0837   -14497.512    70.605542   -14568.118   -191.32037 
  968600    271.46165   -14500.839    64.734049   -14565.574    6523.6146 
  968800    282.28104   -14507.415    67.314093   -14574.729    8405.0439 
  969000    253.39224   -14513.689    60.425132   -14574.114    8295.1862 
  969200    273.95833   -14494.669    65.329418   -14559.998    7076.7364 
  969400    276.79265   -14507.879    66.005304   -14573.885   -5073.6499 
  969600    297.71254   -14507.279    70.993962   -14578.273    6454.1677 
  969800    327.49149   -14484.775    78.095194    -14562.87    11113.328 
  970000    289.05213   -14504.485    68.928758   -14573.414    11784.165 
  970200    323.45719    -14501.99    77.133155   -14579.123    440.58495 
  970400    331.58727   -14475.971    79.071894   -14555.043   -9.1273989 
  970600    306.09732   -14496.349    72.993438   -14569.343   -4068.8355 
  970800    254.98593   -14511.691    60.805169   -14572.496   -13028.944 
  971000    298.59238    -14492.67    71.203773   -14563.874   -5798.5832 
  971200    322.75706   -14490.163    76.966199   -14567.129    -2824.514 
  971400    271.12445   -14507.526    64.653639   -14572.179    -9776.983 
  971600    320.08608   -14489.582    76.329263   -14565.911   -5779.9015 
  971800    328.77476   -14492.437    78.401208   -14570.839   -1210.3696 
  972000     294.3697   -14503.604    70.196812   -14573.801   -1506.3213 
  972200    308.38169   -14499.502    73.538179   -14573.041    3433.5785 
  972400    312.86326    -14492.48    74.606876   -14567.087    2318.9603 
  972600    307.29569   -14508.775    73.279206   -14582.054    2751.2068 
  972800     289.5152   -14502.619    69.039185   -14571.658   -3745.2185 
  973000    292.54181    -14490.81    69.760926   -14560.571    3591.2994 
  973200    255.59563   -14513.587    60.950563   -14574.538   -8465.7105 
  973400    257.73751    -14502.57    61.461325   -14564.031   -2110.1842 
  973600    341.65656   -14491.683    81.473064   -14573.156    3154.9768 
  973800      269.604   -14516.667    64.291065   -14580.959   -7135.0522 
  974000    283.03126   -14501.491    67.492994   -14568.984   -1563.0772 
  974200    293.00244   -14496.999    69.870768   -14566.869    15509.018 
  974400    242.25367   -14521.528    57.768974   -14579.297    2476.2654 
  974600    255.41862    -14517.14    60.908352   -14578.048    12584.544 
  974800    343.03544   -14497.095     81.80188   -14578.897    3712.6107 
  975000    300.25561   -14504.227    71.600396   -14575.828   -6873.4972 
  975200    248.44552   -14525.032    59.245511   -14584.278    4467.2602 
  975400    283.31176   -14506.798    67.559884   -14574.358    6243.9681 
  975600    308.57062   -14501.296    73.583233   -14574.879    5411.2455 
  975800    265.07194   -14502.644    63.210328   -14565.854   -12831.005 
  976000    277.05648   -14493.958    66.068218   -14560.027   -1126.3708 
  976200    269.63695    -14507.01    64.298923   -14571.309    11992.877 
  976400    327.45019   -14503.548    78.085346   -14581.634    16.252196 
  976600    383.41922   -14478.165    91.431989   -14569.597    2475.1621 
  976800      304.949   -14499.255    72.719603   -14571.975   -3307.8011 
  977000    328.27701   -14504.858    78.282512    -14583.14    12542.464 
  977200    312.34591   -14493.299    74.483506   -14567.783    869.53723 
  977400    330.17563   -14497.483    78.735267   -14576.218    568.42916 
  977600    274.42442   -14514.094    65.440566   -14579.534    747.33021 
  977800    326.89293   -14493.793    77.952458   -14571.746   -2092.8445 
  978000    343.10124   -14488.269    81.817571   -14570.086   -143.51875 
  978200     243.8352   -14512.153    58.146113   -14570.299    11764.459 
  978400    250.56221   -14499.583    59.750268   -14559.333     1677.887 
  978600    327.01493   -14492.013    77.981552   -14569.995    1115.6925 
  978800    312.91997    -14502.32    74.620398    -14576.94     16421.87 
  979000    273.54068   -14516.178    65.229824   -14581.408    15046.277 
  979200    286.76036   -14509.565    68.382253   -14577.948   -494.13587 
  979400     291.9451   -14498.369    69.618631   -14567.988    2871.6406 
  979600    344.32607   -14502.904    82.109648   -14585.014   -7639.2634 
  979800    290.61204   -14511.322    69.300743   -14580.623   -1298.4433 
  980000    342.30299   -14495.941    81.627215   -14577.568    1648.5579 
  980200    308.42697   -14497.349    73.548977   -14570.898    4292.4291 
  980400    309.18343   -14505.072    73.729366   -14578.801   -4163.1463 
  980600    310.33148   -14486.646    74.003135   -14560.649   -3151.9108 
  980800    319.16257   -14498.334    76.109039   -14574.443    738.44958 
  981000    284.04208   -14508.083    67.734039   -14575.817   -8124.5944 
  981200    292.27039   -14498.798    69.696202   -14568.494     6187.483 
  981400    329.36701   -14498.636     78.54244   -14577.179    -4306.111 
  981600     279.6593   -14502.264      66.6889   -14568.952   -11517.669 
  981800    279.31965   -14518.961    66.607906   -14585.569     6638.266 
  982000     317.8269   -14495.805    75.790528   -14571.596    983.77203 
  982200    294.00271   -14501.324    70.109299   -14571.433   -2661.1373 
  982400    258.95143   -14516.465    61.750801   -14578.216   -2523.7349 
  982600    324.14794   -14492.027    77.297874   -14569.325   -1068.4322 
  982800     271.5103   -14501.381     64.74565   -14566.127    10153.642 
  983000    247.61355   -14512.311    59.047118   -14571.358   -7406.5015 
  983200    304.18482   -14509.367    72.537372   -14581.904   -15597.458 
  983400    292.86534   -14494.343    69.838075   -14564.182   -10498.799 
  983600    304.56165   -14496.605    72.627234   -14569.233   -3399.4626 
  983800    262.10699   -14511.972    62.503291   -14574.475   -18527.784 
  984000    316.39458   -14494.048    75.448972   -14569.497   -10152.027 
  984200    314.33633   -14491.744    74.958151   -14566.702    -2883.441 
  984400    291.80405   -14510.024    69.584997   -14579.609    2961.5657 
  984600    316.88524   -14499.191    75.565977   -14574.757    14358.431 
  984800     362.8922   -14480.604    86.537017   -14567.141     14056.42 
  985000    310.00444   -14496.132    73.925147   -14570.057     16294.86 
  985200    314.21252   -14504.919    74.928627   -14579.848    5363.0194 
  985400    290.55142   -14489.859    69.286286   -14559.145   -8716.6889 
  985600    294.30041   -14492.387    70.180289   -14562.567   -3206.7816 
  985800    325.51775   -14503.079    77.624526   -14580.704    4361.7198 
  986000    293.93638   -14504.379    70.093481   -14574.472    10833.826 
  986200     293.4354   -14499.607    69.974015   -14569.581    13898.256 
  986400    367.09963   -14491.924     87.54034   -14579.464      1124.16 
  986600    345.17099   -14507.221    82.311132   -14589.532   -5781.0497 
  986800    321.26062   -14497.499    76.609351   -14574.109   -6610.2651 
  987000    349.93932    -14487.92    83.448211   -14571.368   -2376.2237 
  987200    295.44818   -14504.713    70.453992   -14575.167   -15495.222 
  987400    305.61559   -14507.795    72.878561   -14580.674    -13648.18 
  987600      321.418   -14489.714     76.64688   -14566.361   -115.98189 
  987800    225.62808   -14513.297    53.804355   -14567.101   -3314.3239 
  988000    300.12659   -14504.495    71.569628   -14576.065    14755.759 
  988200    343.67653   -14496.218    81.954756   -14578.173   -1785.9222 
  988400    289.90015   -14500.909    69.130984    -14570.04   -3535.8596 
  988600    264.09447   -14518.378    62.977237   -14581.355    3737.6942 
  988800    285.79522   -14510.555    68.152102   -14578.707   -11581.134 
  989000    288.15924   -14495.595    68.715838    -14564.31   -22275.123 
  989200    290.80501   -14505.167     69.34676   -14574.514   -6128.1026 
  989400    273.89437   -14514.763    65.314167   -14580.077    15790.559 
  989600    293.59525   -14502.969    70.012134   -14572.981    12078.461 
  989800    287.95089   -14495.051    68.666152   -14563.717    5441.9437 
  990000      284.444   -14506.686    67.829882   -14574.516   -10724.774 
  990200    273.18244   -14512.313    65.144397   -14577.457   -6636.8583 
  990400    288.00514   -14493.846    68.679089   -14562.525    1503.0903 
  990600    262.88118   -14498.344     62.68791   -14561.032   -4515.7191 
  990800    270.17068   -14519.007    64.426197   -14583.434    12898.679 
  991000    301.74626   -14501.878    71.955863   -14573.834    19247.292 
  991200    291.98107   -14494.004    69.627208   -14563.631    -6311.552 
  991400     330.7773   -14481.443    78.878744   -14560.322   -3837.8454 
  991600    295.94231   -14508.511    70.571824   -14579.083     15911.01 
  991800    301.49703   -14500.854     71.89643    -14572.75   -10666.301 
  992000    315.45215    -14490.25    75.224235   -14565.474    4466.3099 
  992200    332.55128   -14497.438    79.301776    -14576.74     11889.21 
  992400    283.71298   -14506.667     67.65556   -14574.323   -2811.8784 
  992600    285.28684   -14510.378     68.03087   -14578.409    6476.2237 
  992800    309.46168   -14489.693    73.795718   -14563.488    1496.1258 
  993000    293.96466    -14505.89    70.100224    -14575.99    1518.6168 
  993200    268.60044   -14511.225    64.051751   -14575.276   -11181.491 
  993400    311.20559   -14496.132    74.211581   -14570.343    347.99954 
  993600    301.44293   -14508.891     71.88353   -14580.775    6781.7643 
  993800    288.46539   -14508.981    68.788844   -14577.769    13965.452 
  994000    310.41312   -14494.209    74.022604   -14568.232    543.45143 
  994200    301.06667   -14499.439    71.793805   -14571.232   -1308.3619 
  994400    310.99055   -14501.535    74.160301   -14575.695    1600.9135 
  994600    240.74975   -14516.386    57.410341   -14573.797   -9636.1527 
  994800    290.02573    -14502.87    69.160929   -14572.031    5740.9743 
  995000    339.50591   -14497.009    80.960211   -14577.969   -3188.7075 
  995200    307.15384    -14508.09    73.245381   -14581.335    969.07037 
  995400     346.5528   -14487.393    82.640645   -14570.034    6017.5865 
  995600    297.07047   -14504.309    70.840851   -14575.149    20264.486 
  995800    299.20311   -14505.376     71.34941   -14576.726   -7530.7314 
  996000    297.84732   -14500.471    71.026102   -14571.497   -2912.2382 
  996200     282.5262   -14502.524    67.372555   -14569.896    11393.552 
  996400    354.45872   -14475.355     84.52593   -14559.881   -6936.3105 
  996600     279.5186   -14503.953    66.655348   -14570.608    12487.805 
  996800    263.19814   -14502.704    62.763494   -14565.468   -3117.3506 
  997000    294.68189   -14493.006     70.27126   -14563.278    -9801.948 
  997200    270.55253    -14516.19    64.517257   -14580.707    8021.1338 
  997400    319.95517   -14503.762    76.298047    -14580.06    13437.771 
  997600    319.84191   -14496.125    76.271039   -14572.396   -2755.7778 
  997800    274.99176   -14515.657    65.575855   -14581.233    2548.9764 
  998000    317.41308    -14497.95    75.691848   -14573.641    3309.8538 
  998200    329.52535   -14499.094    78.580197   -14577.674    5337.4889 
  998400    303.87859   -14510.191    72.464349   -14582.655    1970.9048 
  998600    304.02634   -14488.984    72.499582   -14561.483    1681.7905 
  998800    288.65491   -14499.368    68.834037   -14568.202   -13192.183 
  999000    294.24793   -14506.619    70.167775   -14576.787   -9002.9839 
  999200    327.99307   -14500.312    78.214803   -14578.527     2597.784 
  999400    353.35976    -14484.28    84.263867   -14568.544    12571.706 
  999600    315.19534   -14506.074    75.162996   -14581.237    12.302528 
  999800    282.65759    -14508.31    67.403888   -14575.714    2116.8321 
 1000000    330.19181    -14488.18    78.739124   -14566.919    7537.8581 
Loop time of 2294.51 on 8 procs for 1000000 steps with 81 atoms

Performance: 9.414 ns/day, 2.549 hours/ns, 435.824 timesteps/s
99.5% CPU use with 8 MPI tasks x no OpenMP threads

MPI task timing breakdown:
Section |  min time  |  avg time  |  max time  |%varavg| %total
---------------------------------------------------------------
Pair    | 1943.7     | 1955.5     | 1965.3     |  14.3 | 85.22
Neigh   | 0          | 0          | 0          |   0.0 |  0.00
Comm    | 19.23      | 28.7       | 40.35      | 116.6 |  1.25
Output  | 0.088184   | 0.095991   | 0.14538    |   6.0 |  0.00
Modify  | 308.4      | 308.71     | 308.98     |   1.0 | 13.45
Other   |            | 1.55       |            |       |  0.07

Nlocal:    10.125 ave 11 max 10 min
Histogram: 7 0 0 0 0 0 0 0 0 1
Nghost:    565 ave 568 max 564 min
Histogram: 5 0 0 0 0 2 0 0 0 1
Neighs:    1078 ave 1172 max 1058 min
Histogram: 7 0 0 0 0 0 0 0 0 1

Total # of neighbors = 8624
Ave neighs/atom = 106.469
Neighbor list builds = 0
Dangerous builds = 0

Please see the log.cite file for references relevant to this simulation

Total wall time: 0:38:20
