ITEM: TIMESTEP
0
ITEM: NUMBER OF ATOMS
50
ITEM: BOX BOUNDS pp pp pp
0.0000000000000000e+00 1.1000000000000000e+01
0.0000000000000000e+00 1.1002000000000001e+01
0.0000000000000000e+00 1.1000000000000000e+01
ITEM: ATOMS id type x y z 
10 1 4.603 4.603 4.603 
11 1 3.085 3.085 3.085 
12 1 3.796 3.796 3.796 
46 1 0.726 0.725 0.725 
47 1 2.26 2.259 2.26 
48 1 1.551 1.55 1.55 
19 1 4.546 4.545 6.226 
20 1 3.013 3.013 7.764 
21 1 3.721 3.721 7.053 
31 1 0.668 0.667 10.103 
32 1 2.187 2.187 8.589 
33 1 1.476 1.475 9.298 
16 1 4.546 6.225 4.546 
17 1 3.013 7.765 3.013 
18 1 3.721 7.053 3.722 
25 1 0.668 10.103 0.668 
26 1 2.188 8.589 2.188 
27 1 1.476 9.298 1.476 
4 1 4.608 6.169 6.169 
5 1 3.086 7.684 7.684 
6 1 3.799 6.974 6.974 
37 1 0.729 10.046 10.046 
38 1 2.259 8.509 8.508 
39 1 1.552 9.219 9.219 
13 1 6.225 4.546 4.546 
14 1 7.764 3.013 3.013 
15 1 7.053 3.721 3.722 
28 1 10.102 0.667 0.668 
29 1 8.589 2.187 2.188 
30 1 9.298 1.475 1.476 
1 1 6.168 4.608 6.169 
2 1 7.684 3.086 7.684 
3 1 6.974 3.799 6.974 
40 1 10.045 0.728 10.046 
41 1 8.508 2.259 8.508 
42 1 9.218 1.551 9.218 
7 1 6.169 6.169 4.608 
8 1 7.684 7.684 3.086 
9 1 6.974 6.974 3.799 
43 1 10.046 10.047 0.729 
44 1 8.508 8.509 2.259 
45 1 9.219 9.219 1.552 
22 1 6.229 6.229 6.229 
23 1 7.764 7.765 7.765 
24 1 7.055 7.056 7.055 
34 1 10.108 10.108 10.107 
35 1 8.59 8.59 8.59 
36 1 9.301 9.301 9.3 
49 2 7.452 7.08 8.888 
50 3 7.452 7.08 9.864 
ITEM: TIMESTEP
10
ITEM: NUMBER OF ATOMS
50
ITEM: BOX BOUNDS pp pp pp
0.0000000000000000e+00 1.1000000000000000e+01
0.0000000000000000e+00 1.1002000000000001e+01
0.0000000000000000e+00 1.1000000000000000e+01
ITEM: ATOMS id type x y z 
10 1 4.60324 4.60294 4.60302 
11 1 3.08596 3.08577 3.08576 
12 1 3.79696 3.79709 3.79714 
46 1 0.726254 0.725207 0.725215 
47 1 2.26086 2.2599 2.26073 
48 1 1.55144 1.55059 1.55077 
19 1 4.54813 4.54741 6.22714 
20 1 3.01145 3.01139 7.76511 
21 1 3.72003 3.72004 7.05432 
31 1 0.668 0.666974 10.1047 
32 1 2.18648 2.18627 8.589 
33 1 1.47528 1.4747 9.29978 
16 1 4.54728 6.2265 4.54817 
17 1 3.01164 7.76545 3.01232 
18 1 3.72072 7.05442 3.72036 
25 1 0.668818 10.1049 0.667851 
26 1 2.18722 8.58962 2.18704 
27 1 1.475 9.29937 1.47544 
4 1 4.58616 6.16416 6.16437 
5 1 3.08742 7.68558 7.68554 
6 1 3.79473 6.97141 6.97135 
37 1 0.73302 10.0454 10.0453 
38 1 2.2614 8.50746 8.5068 
39 1 1.55155 9.21839 9.21805 
13 1 6.2266 4.54786 4.54788 
14 1 7.76508 3.01176 3.01201 
15 1 7.05379 3.71995 3.72057 
28 1 10.104 0.667561 0.667748 
29 1 8.58931 2.18632 2.18739 
30 1 9.29917 1.47456 1.47534 
1 1 6.16341 4.5858 6.16445 
2 1 7.68541 3.08732 7.68545 
3 1 6.97143 3.79492 6.97136 
40 1 10.0442 0.731673 10.0449 
41 1 8.50643 2.26097 8.50628 
42 1 9.21803 1.55115 9.21855 
7 1 6.16442 6.16406 4.58623 
8 1 7.68544 7.68546 3.08722 
9 1 6.97147 6.97149 3.79449 
43 1 10.0449 10.0453 0.733155 
44 1 8.50662 8.50684 2.26084 
45 1 9.21764 9.21899 1.55286 
22 1 6.25204 6.2522 6.24655 
23 1 7.74944 7.73867 7.80606 
24 1 7.03371 7.03857 7.01468 
34 1 10.1161 10.1157 10.1169 
35 1 8.60799 8.61104 8.58389 
36 1 9.3146 9.31577 9.30609 
49 2 7.45864 7.09638 8.87881 
50 3 7.44715 7.06975 9.873 
ITEM: TIMESTEP
20
ITEM: NUMBER OF ATOMS
50
ITEM: BOX BOUNDS pp pp pp
0.0000000000000000e+00 1.1000000000000000e+01
0.0000000000000000e+00 1.1002000000000001e+01
0.0000000000000000e+00 1.1000000000000000e+01
ITEM: ATOMS id type x y z 
10 1 4.60103 4.601 4.60043 
11 1 3.08685 3.08652 3.08617 
12 1 3.79779 3.79809 3.79913 
46 1 0.728783 0.728238 0.728286 
47 1 2.26396 2.26362 2.26357 
48 1 1.55401 1.55212 1.55351 
19 1 4.55186 4.55122 6.23573 
20 1 3.00841 3.00842 7.76565 
21 1 3.71886 3.71849 7.06044 
31 1 0.668306 0.668803 10.106 
32 1 2.18467 2.1843 8.59052 
33 1 1.47362 1.47351 9.30205 
16 1 4.54781 6.23426 4.55064 
17 1 3.00882 7.76672 3.00896 
18 1 3.7182 7.05994 3.71893 
25 1 0.670284 10.1067 0.66901 
26 1 2.18538 8.59086 2.18505 
27 1 1.4736 9.30196 1.47429 
4 1 4.57092 6.15914 6.1596 
5 1 3.08597 7.68567 7.68544 
6 1 3.79148 6.97039 6.97078 
37 1 0.740593 10.0453 10.0453 
38 1 2.26205 8.50535 8.50477 
39 1 1.5582 9.2175 9.21729 
13 1 6.23424 4.54811 4.55058 
14 1 7.76657 3.00788 3.0085 
15 1 7.0598 3.71843 3.71895 
28 1 10.106 0.668859 0.668564 
29 1 8.59115 2.18399 2.18623 
30 1 9.30049 1.47428 1.47213 
1 1 6.15855 4.57064 6.1601 
2 1 7.68567 3.08578 7.68546 
3 1 6.97006 3.79161 6.97096 
40 1 10.0449 0.739032 10.0458 
41 1 8.50632 2.26022 8.50628 
42 1 9.21654 1.5578 9.2169 
7 1 6.16081 6.16093 4.57095 
8 1 7.68573 7.68585 3.08491 
9 1 6.97097 6.97085 3.79047 
43 1 10.0443 10.0453 0.740991 
44 1 8.50539 8.5061 2.26108 
45 1 9.21662 9.2169 1.55818 
22 1 6.24415 6.24989 6.21922 
23 1 7.71763 7.67535 7.87744 
24 1 7.03141 7.03644 7.00239 
34 1 10.1322 10.1328 10.1356 
35 1 8.6194 8.62954 8.56738 
36 1 9.32095 9.32679 9.29286 
49 2 7.47618 7.1387 8.86164 
50 3 7.43836 7.05081 9.8728 
ITEM: TIMESTEP
30
ITEM: NUMBER OF ATOMS
50
ITEM: BOX BOUNDS pp pp pp
0.0000000000000000e+00 1.1000000000000000e+01
0.0000000000000000e+00 1.1002000000000001e+01
0.0000000000000000e+00 1.1000000000000000e+01
ITEM: ATOMS id type x y z 
10 1 4.60988 4.61063 4.60451 
11 1 3.09126 3.09085 3.09197 
12 1 3.80324 3.80323 3.8016 
46 1 0.735561 0.734268 0.73592 
47 1 2.26872 2.26806 2.26819 
48 1 1.55881 1.55778 1.55908 
19 1 4.54989 4.54873 6.24289 
20 1 3.00628 3.00889 7.76688 
21 1 3.7226 3.71696 7.06436 
31 1 0.671654 0.674069 10.1141 
32 1 2.1807 2.18504 8.59092 
33 1 1.47697 1.46811 9.30415 
16 1 4.53103 6.23056 4.5419 
17 1 3.00953 7.77029 3.00651 
18 1 3.71239 7.059 3.72089 
25 1 0.674923 10.1154 0.671113 
26 1 2.18793 8.59383 2.18088 
27 1 1.46514 9.30135 1.47755 
4 1 4.57062 6.15707 6.15517 
5 1 3.08928 7.68331 7.68419 
6 1 3.77955 6.96189 6.96048 
37 1 0.746161 10.0475 10.0476 
38 1 2.26474 8.50574 8.50504 
39 1 1.56197 9.21833 9.21907 
13 1 6.23273 4.53245 4.54573 
14 1 7.76959 3.00902 3.00697 
15 1 7.05914 3.71267 3.72106 
28 1 10.1128 0.669832 0.673812 
29 1 8.59131 2.18318 2.18325 
30 1 9.30447 1.47285 1.47271 
1 1 6.15464 4.57078 6.1539 
2 1 7.68238 3.09025 7.68327 
3 1 6.96045 3.78075 6.96025 
40 1 10.0466 0.746433 10.048 
41 1 8.50451 2.26526 8.50495 
42 1 9.21728 1.56193 9.21705 
7 1 6.16337 6.16348 4.56723 
8 1 7.68639 7.68586 3.08138 
9 1 6.96647 6.9676 3.77885 
43 1 10.0475 10.0481 0.742423 
44 1 8.50773 8.50767 2.26094 
45 1 9.22027 9.22155 1.55776 
22 1 6.24678 6.26362 6.18346 
23 1 7.68051 7.60965 7.90724 
24 1 7.02004 7.01457 7.00315 
34 1 10.1446 10.1463 10.1351 
35 1 8.63119 8.64895 8.54333 
36 1 9.32836 9.34105 9.27394 
49 2 7.48814 7.17526 8.92048 
50 3 7.42002 7.01098 9.86676 
ITEM: TIMESTEP
40
ITEM: NUMBER OF ATOMS
50
ITEM: BOX BOUNDS pp pp pp
0.0000000000000000e+00 1.1000000000000000e+01
0.0000000000000000e+00 1.1002000000000001e+01
0.0000000000000000e+00 1.1000000000000000e+01
ITEM: ATOMS id type x y z 
10 1 4.60827 4.61052 4.59649 
11 1 3.09131 3.0911 3.09166 
12 1 3.80396 3.80385 3.80169 
46 1 0.737509 0.736384 0.736686 
47 1 2.27019 2.26992 2.27082 
48 1 1.56142 1.55912 1.56107 
19 1 4.55475 4.55229 6.25213 
20 1 3.00557 3.0054 7.76763 
21 1 3.72025 3.71942 7.06924 
31 1 0.675321 0.673768 10.1185 
32 1 2.18191 2.18142 8.59115 
33 1 1.47327 1.47297 9.30799 
16 1 4.52847 6.22709 4.54095 
17 1 3.00559 7.77253 3.00457 
18 1 3.7092 7.05902 3.71553 
25 1 0.669764 10.1151 0.674565 
26 1 2.17963 8.59243 2.18302 
27 1 1.47675 9.31221 1.47129 
4 1 4.56552 6.15276 6.14976 
5 1 3.08389 7.68077 7.68101 
6 1 3.78249 6.96325 6.96247 
37 1 0.747363 10.0492 10.0475 
38 1 2.26616 8.50598 8.50587 
39 1 1.56335 9.21947 9.2196 
13 1 6.23165 4.53171 4.54517 
14 1 7.77061 3.00467 3.00549 
15 1 7.06106 3.70993 3.71743 
28 1 10.1163 0.670705 0.675581 
29 1 8.59363 2.18226 2.18252 
30 1 9.30745 1.47271 1.4716 
1 1 6.14951 4.56587 6.1478 
2 1 7.67981 3.08631 7.68056 
3 1 6.96135 3.78257 6.96103 
40 1 10.0484 0.748005 10.0469 
41 1 8.50467 2.26687 8.50494 
42 1 9.21753 1.56455 9.21809 
7 1 6.16296 6.16311 4.56567 
8 1 7.68606 7.68572 3.07518 
9 1 6.96857 6.96942 3.77642 
43 1 10.048 10.0498 0.742375 
44 1 8.50906 8.50934 2.25987 
45 1 9.22223 9.22276 1.55592 
22 1 6.24235 6.26194 6.17163 
23 1 7.68201 7.60533 7.90952 
24 1 7.01969 7.00948 7.00496 
34 1 10.1478 10.1521 10.126 
35 1 8.63322 8.64828 8.54459 
36 1 9.33439 9.35437 9.25551 
49 2 7.48828 7.18318 8.93931 
50 3 7.40747 6.984 9.90271 
ITEM: TIMESTEP
50
ITEM: NUMBER OF ATOMS
50
ITEM: BOX BOUNDS pp pp pp
0.0000000000000000e+00 1.1000000000000000e+01
0.0000000000000000e+00 1.1002000000000001e+01
0.0000000000000000e+00 1.1000000000000000e+01
ITEM: ATOMS id type x y z 
10 1 4.61001 4.61391 4.59043 
11 1 3.09213 3.09138 3.09368 
12 1 3.80593 3.80706 3.8001 
46 1 0.741438 0.740387 0.739426 
47 1 2.2727 2.27153 2.27411 
48 1 1.56313 1.56184 1.56293 
19 1 4.55853 4.5575 6.2615 
20 1 3.00444 3.00387 7.76869 
21 1 3.72108 3.71998 7.07389 
31 1 0.678264 0.67627 10.1229 
32 1 2.18194 2.18182 8.59086 
33 1 1.47509 1.47392 9.31033 
16 1 4.52431 6.22234 4.53703 
17 1 3.00077 7.77345 3.00306 
18 1 3.70478 7.0569 3.71138 
25 1 0.665965 10.1169 0.674432 
26 1 2.17982 8.59568 2.18228 
27 1 1.47694 9.3157 1.47147 
4 1 4.56347 6.1498 6.14738 
5 1 3.08235 7.67983 7.67982 
6 1 3.77794 6.96126 6.9601 
37 1 0.748086 10.0503 10.047 
38 1 2.26773 8.50578 8.50669 
39 1 1.56517 9.22015 9.2185 
13 1 6.22982 4.52983 4.54276 
14 1 7.77223 3.00083 3.00416 
15 1 7.06011 3.70681 3.71457 
28 1 10.1182 0.668227 0.676014 
29 1 8.59548 2.18242 2.18121 
30 1 9.31085 1.47144 1.47358 
1 1 6.14553 4.56233 6.14381 
2 1 7.67813 3.0853 7.67868 
3 1 6.95889 3.77932 6.95822 
40 1 10.0489 0.749764 10.0462 
41 1 8.50389 2.26952 8.50519 
42 1 9.21816 1.56719 9.21696 
7 1 6.16513 6.16494 4.56635 
8 1 7.68591 7.68578 3.06877 
9 1 6.9704 6.97088 3.77245 
43 1 10.0506 10.0526 0.73989 
44 1 8.51132 8.51147 2.25673 
45 1 9.22459 9.22535 1.55399 
22 1 6.24098 6.26357 6.16022 
23 1 7.67665 7.59071 7.91688 
24 1 7.02088 7.00545 7.00967 
34 1 10.1519 10.1602 10.1136 
35 1 8.63485 8.64774 8.54142 
36 1 9.3398 9.36723 9.23533 
49 2 7.48792 7.19076 8.96919 
50 3 7.39291 6.95383 9.93427 
ITEM: TIMESTEP
60
ITEM: NUMBER OF ATOMS
50
ITEM: BOX BOUNDS pp pp pp
0.0000000000000000e+00 1.1000000000000000e+01
0.0000000000000000e+00 1.1002000000000001e+01
0.0000000000000000e+00 1.1000000000000000e+01
ITEM: ATOMS id type x y z 
10 1 4.6133 4.61903 4.58582 
11 1 3.09363 3.09274 3.09514 
12 1 3.80746 3.80926 3.8002 
46 1 0.743237 0.742274 0.737124 
47 1 2.27369 2.27132 2.27557 
48 1 1.56318 1.56355 1.56398 
19 1 4.56074 4.5594 6.26519 
20 1 3.0061 3.00532 7.76963 
21 1 3.72175 3.72145 7.0746 
31 1 0.681018 0.678361 10.1262 
32 1 2.1825 2.18274 8.59026 
33 1 1.47762 1.47446 9.31098 
16 1 4.5227 6.22024 4.53443 
17 1 3.00022 7.77239 3.00201 
18 1 3.70179 7.0555 3.71086 
25 1 0.665302 10.1173 0.673672 
26 1 2.18401 8.59974 2.18138 
27 1 1.4681 9.31085 1.4748 
4 1 4.56408 6.14909 6.14758 
5 1 3.08098 7.67876 7.67856 
6 1 3.77901 6.96147 6.95996 
37 1 0.746801 10.0511 10.0447 
38 1 2.26809 8.50563 8.5059 
39 1 1.56614 9.21945 9.21787 
13 1 6.22924 4.52901 4.54221 
14 1 7.77219 3.00064 3.00421 
15 1 7.05851 3.70559 3.71332 
28 1 10.1169 0.664636 0.677423 
29 1 8.59603 2.18288 2.18132 
30 1 9.31115 1.46916 1.47627 
1 1 6.14395 4.56162 6.14216 
2 1 7.67608 3.08387 7.67671 
3 1 6.95856 3.78088 6.95755 
40 1 10.0492 0.749637 10.0437 
41 1 8.50402 2.2714 8.50421 
42 1 9.21663 1.56825 9.21614 
7 1 6.16891 6.16884 4.57105 
8 1 7.68529 7.68618 3.06502 
9 1 6.97334 6.97203 3.77295 
43 1 10.0524 10.0546 0.737287 
44 1 8.51214 8.51207 2.25388 
45 1 9.22573 9.22673 1.55202 
22 1 6.24353 6.26801 6.15702 
23 1 7.67055 7.57856 7.93242 
24 1 7.02088 7.00325 7.01423 
34 1 10.1535 10.1654 10.1022 
35 1 8.6335 8.64638 8.5369 
36 1 9.33963 9.36755 9.22693 
49 2 7.48612 7.1896 8.98598 
50 3 7.38661 6.94288 9.9386 
ITEM: TIMESTEP
70
ITEM: NUMBER OF ATOMS
50
ITEM: BOX BOUNDS pp pp pp
0.0000000000000000e+00 1.1000000000000000e+01
0.0000000000000000e+00 1.1002000000000001e+01
0.0000000000000000e+00 1.1000000000000000e+01
ITEM: ATOMS id type x y z 
10 1 4.61369 4.62004 4.58538 
11 1 3.09325 3.09207 3.09622 
12 1 3.80834 3.81062 3.79789 
46 1 0.742695 0.742747 0.736896 
47 1 2.27307 2.27151 2.27625 
48 1 1.56439 1.56333 1.56305 
19 1 4.56106 4.56029 6.26567 
20 1 3.00583 3.00522 7.76929 
21 1 3.72288 3.72235 7.07597 
31 1 0.681985 0.678516 10.1268 
32 1 2.18292 2.18235 8.58982 
33 1 1.4778 1.47585 9.31212 
16 1 4.52203 6.21975 4.53476 
17 1 2.99948 7.77231 3.00222 
18 1 3.70273 7.05508 3.7101 
25 1 0.663951 10.1166 0.67404 
26 1 2.18281 8.59956 2.18174 
27 1 1.469 9.31177 1.47388 
4 1 4.56397 6.1492 6.14743 
5 1 3.08155 7.67894 7.67845 
6 1 3.77787 6.96042 6.95932 
37 1 0.746766 10.0509 10.0445 
38 1 2.26853 8.50564 8.50628 
39 1 1.5651 9.21979 9.21713 
13 1 6.22879 4.52883 4.54177 
14 1 7.77153 3.00025 3.00378 
15 1 7.05916 3.70606 3.71394 
28 1 10.1172 0.663708 0.677888 
29 1 8.5966 2.18238 2.18178 
30 1 9.31095 1.46896 1.47562 
1 1 6.14414 4.56185 6.14202 
2 1 7.67666 3.08502 7.67703 
3 1 6.95708 3.77845 6.95631 
40 1 10.0487 0.749233 10.0436 
41 1 8.50362 2.27155 8.50434 
42 1 9.21732 1.5682 9.21561 
7 1 6.16989 6.16925 4.57109 
8 1 7.68592 7.68615 3.06428 
9 1 6.97314 6.97292 3.77269 
43 1 10.0527 10.0552 0.73737 
44 1 8.51234 8.51228 2.25328 
45 1 9.22574 9.22688 1.55124 
22 1 6.24419 6.26951 6.15661 
23 1 7.67022 7.5771 7.93603 
24 1 7.02113 7.00295 7.01608 
34 1 10.1541 10.1669 10.0987 
35 1 8.63314 8.64567 8.53641 
36 1 9.33979 9.36818 9.22454 
49 2 7.48536 7.18877 8.98929 
50 3 7.38491 6.9399 9.94144 
ITEM: TIMESTEP
80
ITEM: NUMBER OF ATOMS
50
ITEM: BOX BOUNDS pp pp pp
0.0000000000000000e+00 1.1000000000000000e+01
0.0000000000000000e+00 1.1002000000000001e+01
0.0000000000000000e+00 1.1000000000000000e+01
ITEM: ATOMS id type x y z 
10 1 4.617 4.62592 4.57694 
11 1 3.09402 3.09241 3.09625 
12 1 3.80914 3.81278 3.79606 
46 1 0.743203 0.745096 0.734483 
47 1 2.27204 2.27078 2.27959 
48 1 1.56705 1.56512 1.56006 
19 1 4.5649 4.56521 6.27149 
20 1 3.00729 3.00646 7.76947 
21 1 3.72517 3.72502 7.07912 
31 1 0.687482 0.682178 10.1324 
32 1 2.18409 2.18342 8.58933 
33 1 1.48106 1.47802 9.31496 
16 1 4.52157 6.21896 4.53354 
17 1 2.99787 7.77169 3.00112 
18 1 3.70077 7.05462 3.70867 
25 1 0.660498 10.1151 0.672459 
26 1 2.18388 8.60183 2.18045 
27 1 1.4616 9.30898 1.47622 
4 1 4.56254 6.14837 6.1476 
5 1 3.08062 7.67833 7.67794 
6 1 3.7768 6.95995 6.95863 
37 1 0.745184 10.0505 10.0423 
38 1 2.27021 8.50623 8.5062 
39 1 1.56251 9.21911 9.21449 
13 1 6.22938 4.53015 4.54184 
14 1 7.77107 2.99938 3.00333 
15 1 7.05887 3.70547 3.71318 
28 1 10.1149 0.658131 0.678699 
29 1 8.59624 2.18087 2.18132 
30 1 9.31353 1.4668 1.47901 
1 1 6.14273 4.55904 6.13974 
2 1 7.67591 3.08476 7.67589 
3 1 6.95565 3.77658 6.95439 
40 1 10.0474 0.747193 10.0397 
41 1 8.50397 2.27302 8.50276 
42 1 9.21532 1.56915 9.21558 
7 1 6.17543 6.17376 4.57378 
8 1 7.68702 7.68731 3.06052 
9 1 6.97609 6.97479 3.77166 
43 1 10.0544 10.0584 0.737069 
44 1 8.51223 8.51339 2.24851 
45 1 9.2286 9.22854 1.54937 
22 1 6.24625 6.27511 6.15183 
23 1 7.66825 7.56878 7.95568 
24 1 7.0201 6.99967 7.02322 
34 1 10.1572 10.1736 10.0801 
35 1 8.6319 8.64293 8.53333 
36 1 9.34117 9.37194 9.21137 
49 2 7.48049 7.18263 9.00809 
50 3 7.37544 6.9235 9.95827 
ITEM: TIMESTEP
90
ITEM: NUMBER OF ATOMS
50
ITEM: BOX BOUNDS pp pp pp
0.0000000000000000e+00 1.1000000000000000e+01
0.0000000000000000e+00 1.1002000000000001e+01
0.0000000000000000e+00 1.1000000000000000e+01
ITEM: ATOMS id type x y z 
10 1 4.61742 4.6276 4.57535 
11 1 3.09366 3.09218 3.09747 
12 1 3.81049 3.81445 3.79359 
46 1 0.74524 0.746778 0.731483 
47 1 2.27325 2.27116 2.27831 
48 1 1.56546 1.56472 1.56272 
19 1 4.56614 4.56675 6.27313 
20 1 3.00776 3.00693 7.76967 
21 1 3.72603 3.72603 7.07974 
31 1 0.688963 0.683403 10.1345 
32 1 2.18487 2.18376 8.58971 
33 1 1.48156 1.4788 9.31535 
16 1 4.52198 6.21882 4.53309 
17 1 2.99746 7.77163 3.00067 
18 1 3.70104 7.05477 3.70848 
25 1 0.656958 10.1124 0.673453 
26 1 2.18024 8.60059 2.18201 
27 1 1.46549 9.31089 1.47318 
4 1 4.5622 6.14843 6.14748 
5 1 3.08042 7.67871 7.67782 
6 1 3.77631 6.95954 6.95899 
37 1 0.743695 10.05 10.0409 
38 1 2.26909 8.50607 8.50531 
39 1 1.56388 9.21964 9.21537 
13 1 6.22954 4.53052 4.54171 
14 1 7.77076 2.99891 3.00306 
15 1 7.05941 3.70566 3.71303 
28 1 10.1152 0.657407 0.679958 
29 1 8.59792 2.18055 2.18301 
30 1 9.31054 1.46557 1.47679 
1 1 6.14209 4.5578 6.13924 
2 1 7.67573 3.08417 7.67553 
3 1 6.9559 3.77672 6.95424 
40 1 10.0465 0.746842 10.0397 
41 1 8.50336 2.27366 8.50374 
42 1 9.2165 1.568 9.21352 
7 1 6.17699 6.17514 4.57414 
8 1 7.68736 7.68756 3.05916 
9 1 6.97693 6.976 3.77177 
43 1 10.0555 10.059 0.738267 
44 1 8.51297 8.51327 2.24812 
45 1 9.22728 9.22905 1.54805 
22 1 6.24615 6.2763 6.14982 
23 1 7.66741 7.56599 7.96087 
24 1 7.01988 6.99902 7.02506 
34 1 10.1583 10.1761 10.0734 
35 1 8.63179 8.64275 8.53129 
36 1 9.34174 9.37323 9.20706 
49 2 7.47847 7.17951 9.01425 
50 3 7.37225 6.91811 9.96542 
ITEM: TIMESTEP
100
ITEM: NUMBER OF ATOMS
50
ITEM: BOX BOUNDS pp pp pp
0.0000000000000000e+00 1.1000000000000000e+01
0.0000000000000000e+00 1.1002000000000001e+01
0.0000000000000000e+00 1.1000000000000000e+01
ITEM: ATOMS id type x y z 
10 1 4.61825 4.62972 4.5731 
11 1 3.0936 3.09243 3.0978 
12 1 3.81153 3.81538 3.792 
46 1 0.745773 0.74759 0.730279 
47 1 2.27307 2.27071 2.27939 
48 1 1.56616 1.56572 1.56139 
19 1 4.56718 4.5682 6.27468 
20 1 3.00816 3.00745 7.76991 
21 1 3.72685 3.72689 7.08045 
31 1 0.690785 0.684961 10.1367 
32 1 2.1853 2.18418 8.5896 
33 1 1.48308 1.47964 9.31668 
16 1 4.52232 6.21908 4.5328 
17 1 2.99709 7.77188 3.00078 
18 1 3.70065 7.05413 3.70752 
25 1 0.655391 10.1112 0.673126 
26 1 2.17968 8.60078 2.18202 
27 1 1.46424 9.31003 1.47292 
4 1 4.56209 6.14858 6.14759 
5 1 3.0801 7.67876 7.67775 
6 1 3.77605 6.9596 6.95897 
37 1 0.742897 10.0496 10.0402 
38 1 2.26907 8.50612 8.50513 
39 1 1.56347 9.21965 9.21487 
13 1 6.22975 4.53081 4.54161 
14 1 7.77076 2.99873 3.00304 
15 1 7.05967 3.70566 3.71298 
28 1 10.1145 0.656249 0.680157 
29 1 8.59797 2.18028 2.18302 
30 1 9.31 1.46408 1.47748 
1 1 6.142 4.55717 6.13864 
2 1 7.67572 3.08417 7.67537 
3 1 6.95558 3.7761 6.95377 
40 1 10.0458 0.746298 10.0388 
41 1 8.50335 2.27398 8.50334 
42 1 9.2161 1.5678 9.21312 
7 1 6.17857 6.17645 4.57493 
8 1 7.68776 7.68788 3.05788 
9 1 6.97782 6.97711 3.77174 
43 1 10.0563 10.0599 0.738838 
44 1 8.51297 8.51342 2.2466 
45 1 9.22795 9.22981 1.54829 
22 1 6.24645 6.27787 6.14854 
23 1 7.66614 7.56277 7.96599 
24 1 7.01957 6.99825 7.02698 
34 1 10.1594 10.1782 10.0669 
35 1 8.63143 8.64228 8.52921 
36 1 9.34217 9.37444 9.20218 
49 2 7.47637 7.17618 9.02052 
50 3 7.36903 6.91276 9.97236 
ITEM: TIMESTEP
110
ITEM: NUMBER OF ATOMS
50
ITEM: BOX BOUNDS pp pp pp
0.0000000000000000e+00 1.1000000000000000e+01
0.0000000000000000e+00 1.1002000000000001e+01
0.0000000000000000e+00 1.1000000000000000e+01
ITEM: ATOMS id type x y z 
10 1 4.62983 4.64794 4.54948 
11 1 3.09902 3.09222 3.09834 
12 1 3.81121 3.83048 3.78198 
46 1 0.754513 0.761388 0.71419 
47 1 2.27453 2.2721 2.28305 
48 1 1.56981 1.56806 1.56183 
19 1 4.57757 4.58268 6.29053 
20 1 3.0145 3.01467 7.77441 
21 1 3.73204 3.73291 7.08214 
31 1 0.709613 0.702145 10.1588 
32 1 2.1924 2.19008 8.59085 
33 1 1.49499 1.48732 9.32427 
16 1 4.52323 6.21812 4.5275 
17 1 2.99322 7.7705 2.99937 
18 1 3.69917 7.05377 3.70519 
25 1 0.643582 10.0961 0.66579 
26 1 2.17741 8.59994 2.17865 
27 1 1.44782 9.30302 1.4778 
4 1 4.56369 6.14838 6.14939 
5 1 3.07789 7.67695 7.67845 
6 1 3.77439 6.96363 6.95469 
37 1 0.733877 10.0446 10.0332 
38 1 2.26908 8.5067 8.50259 
39 1 1.55936 9.21776 9.21015 
13 1 6.23256 4.53474 4.53844 
14 1 7.77183 2.99897 3.00078 
15 1 7.06153 3.70109 3.71646 
28 1 10.1055 0.642742 0.683888 
29 1 8.59748 2.17362 2.1878 
30 1 9.30426 1.45865 1.47568 
1 1 6.13849 4.54841 6.1312 
2 1 7.67263 3.07892 7.6706 
3 1 6.95712 3.78109 6.95434 
40 1 10.0374 0.739044 10.0323 
41 1 8.50126 2.27632 8.50114 
42 1 9.21636 1.56667 9.20625 
7 1 6.19556 6.19073 4.58824 
8 1 7.69433 7.69161 3.0513 
9 1 6.97974 6.98575 3.76544 
43 1 10.0663 10.071 0.750249 
44 1 8.51525 8.51634 2.24017 
45 1 9.22811 9.23162 1.53727 
22 1 6.25057 6.29437 6.14017 
23 1 7.6523 7.53071 8.01548 
24 1 7.01744 6.99147 7.04904 
34 1 10.1707 10.1986 10.003 
35 1 8.62593 8.63492 8.51086 
36 1 9.34542 9.38509 9.15275 
49 2 7.45612 7.14313 9.07888 
50 3 7.33909 6.86396 10.0336 
ITEM: TIMESTEP
120
ITEM: NUMBER OF ATOMS
50
ITEM: BOX BOUNDS pp pp pp
0.0000000000000000e+00 1.1000000000000000e+01
0.0000000000000000e+00 1.1002000000000001e+01
0.0000000000000000e+00 1.1000000000000000e+01
ITEM: ATOMS id type x y z 
10 1 4.62943 4.65024 4.54744 
11 1 3.09589 3.09584 3.09803 
12 1 3.81713 3.82715 3.77956 
46 1 0.754191 0.760273 0.714778 
47 1 2.2749 2.27003 2.28439 
48 1 1.57081 1.57123 1.55794 
19 1 4.57815 4.58239 6.28835 
20 1 3.01501 3.0147 7.7706 
21 1 3.73577 3.73776 7.08699 
31 1 0.711825 0.703662 10.1603 
32 1 2.19423 2.19067 8.59044 
33 1 1.49757 1.49167 9.32818 
16 1 4.52224 6.21932 4.52725 
17 1 2.99276 7.77102 2.99838 
18 1 3.69895 7.05486 3.70389 
25 1 0.639503 10.0946 0.666961 
26 1 2.17242 8.59893 2.18233 
27 1 1.45241 9.30121 1.4711 
4 1 4.56583 6.14998 6.14929 
5 1 3.07761 7.67873 7.67507 
6 1 3.77676 6.96065 6.95859 
37 1 0.732239 10.0434 10.0335 
38 1 2.26869 8.50609 8.50214 
39 1 1.55872 9.21689 9.20997 
13 1 6.23273 4.53362 4.54142 
14 1 7.77144 2.99651 3.00449 
15 1 7.06138 3.70558 3.71337 
28 1 10.1044 0.643255 0.680792 
29 1 8.5962 2.1745 2.18567 
30 1 9.30418 1.4557 1.47898 
1 1 6.13927 4.55336 6.13199 
2 1 7.67413 3.08443 7.67235 
3 1 6.95367 3.77383 6.94904 
40 1 10.038 0.739574 10.0315 
41 1 8.50242 2.27592 8.49887 
42 1 9.21215 1.566 9.20779 
7 1 6.19555 6.19166 4.58811 
8 1 7.69027 7.69207 3.04763 
9 1 6.98704 6.98605 3.77307 
43 1 10.0656 10.0709 0.747883 
44 1 8.51384 8.51466 2.23522 
45 1 9.23254 9.23534 1.54491 
22 1 6.25163 6.29703 6.14291 
23 1 7.65045 7.5268 8.0235 
24 1 7.016 6.98964 7.054 
34 1 10.1724 10.1991 9.9932 
35 1 8.62326 8.63122 8.51039 
36 1 9.3451 9.38529 9.14448 
49 2 7.45318 7.13771 9.08403 
50 3 7.33608 6.85991 10.037 
ITEM: TIMESTEP
130
ITEM: NUMBER OF ATOMS
50
ITEM: BOX BOUNDS pp pp pp
0.0000000000000000e+00 1.1000000000000000e+01
0.0000000000000000e+00 1.1002000000000001e+01
0.0000000000000000e+00 1.1000000000000000e+01
ITEM: ATOMS id type x y z 
10 1 4.63435 4.65845 4.53549 
11 1 3.09716 3.09862 3.09486 
12 1 3.82115 3.82863 3.77467 
46 1 0.756831 0.764049 0.707188 
47 1 2.27411 2.27232 2.28023 
48 1 1.57225 1.57197 1.55596 
19 1 4.58023 4.58749 6.28755 
20 1 3.01877 3.01854 7.7704 
21 1 3.74314 3.74501 7.09174 
31 1 0.720623 0.714125 10.1699 
32 1 2.2003 2.19582 8.59187 
33 1 1.50757 1.50238 9.33839 
16 1 4.52613 6.22153 4.52474 
17 1 2.99067 7.77067 2.99845 
18 1 3.69805 7.05661 3.7048 
25 1 0.628575 10.0863 0.664916 
26 1 2.16477 8.59497 2.18377 
27 1 1.45294 9.29399 1.46138 
4 1 4.5712 6.15354 6.14884 
5 1 3.07717 7.67947 7.67158 
6 1 3.78405 6.96107 6.9631 
37 1 0.724982 10.0386 10.0292 
38 1 2.26707 8.50296 8.49906 
39 1 1.55601 9.21593 9.20607 
13 1 6.23504 4.54007 4.54133 
14 1 7.77034 2.99537 3.00742 
15 1 7.06324 3.70872 3.71224 
28 1 10.0969 0.639313 0.675213 
29 1 8.59466 2.17116 2.18735 
30 1 9.29863 1.45043 1.47897 
1 1 6.13933 4.55424 6.13022 
2 1 7.67406 3.0843 7.66954 
3 1 6.95454 3.77366 6.9451 
40 1 10.0327 0.735222 10.0286 
41 1 8.49915 2.27491 8.49724 
42 1 9.21126 1.56947 9.20687 
7 1 6.20409 6.19798 4.59841 
8 1 7.69314 7.69358 3.04636 
9 1 6.9907 6.98808 3.77261 
43 1 10.0681 10.0755 0.75454 
44 1 8.51246 8.51557 2.23273 
45 1 9.23698 9.24051 1.55006 
22 1 6.2529 6.30636 6.14863 
23 1 7.64252 7.50964 8.05405 
24 1 7.01122 6.98355 7.07568 
34 1 10.18 10.2064 9.95301 
35 1 8.61693 8.62195 8.50624 
36 1 9.34733 9.38841 9.11573 
49 2 7.43999 7.1144 9.10734 
50 3 7.32166 6.83921 10.0584 
ITEM: TIMESTEP
140
ITEM: NUMBER OF ATOMS
50
ITEM: BOX BOUNDS pp pp pp
0.0000000000000000e+00 1.1000000000000000e+01
0.0000000000000000e+00 1.1002000000000001e+01
0.0000000000000000e+00 1.1000000000000000e+01
ITEM: ATOMS id type x y z 
10 1 4.63463 4.65932 4.53511 
11 1 3.09801 3.09771 3.09508 
12 1 3.8204 3.8319 3.77213 
46 1 0.757053 0.76339 0.708184 
47 1 2.27509 2.27233 2.28181 
48 1 1.57247 1.57404 1.55371 
19 1 4.58214 4.58831 6.2893 
20 1 3.02122 3.02059 7.77245 
21 1 3.74128 3.74385 7.08835 
31 1 0.722076 0.715977 10.1712 
32 1 2.20202 2.19799 8.59448 
33 1 1.50667 1.50113 9.33559 
16 1 4.52628 6.22197 4.52523 
17 1 2.99004 7.77066 2.99995 
18 1 3.69908 7.05555 3.70392 
25 1 0.629278 10.0843 0.661527 
26 1 2.16752 8.59425 2.17993 
27 1 1.44657 9.29312 1.46685 
4 1 4.5733 6.15351 6.15033 
5 1 3.07928 7.6788 7.67418 
6 1 3.78097 6.96244 6.95868 
37 1 0.724668 10.0391 10.0286 
38 1 2.26698 8.50424 8.49876 
39 1 1.55472 9.21366 9.20556 
13 1 6.23606 4.54111 4.54022 
14 1 7.7709 2.99563 3.00636 
15 1 7.06346 3.70771 3.71397 
28 1 10.0947 0.636557 0.674938 
29 1 8.59401 2.17003 2.18789 
30 1 9.29808 1.45113 1.478 
1 1 6.1391 4.5538 6.12982 
2 1 7.67396 3.08398 7.66823 
3 1 6.95344 3.77444 6.94591 
40 1 10.0338 0.736736 10.0292 
41 1 8.50004 2.27721 8.49741 
42 1 9.20926 1.56612 9.2059 
7 1 6.20436 6.19891 4.59695 
8 1 7.69281 7.69305 3.04519 
9 1 6.99167 6.98949 3.77524 
43 1 10.0703 10.0774 0.758034 
44 1 8.51445 8.51701 2.23353 
45 1 9.23593 9.24061 1.54795 
22 1 6.25264 6.30721 6.14946 
23 1 7.64264 7.50877 8.05812 
24 1 7.01048 6.9825 7.07761 
34 1 10.1814 10.2078 9.94672 
35 1 8.61633 8.62101 8.50445 
36 1 9.34725 9.38822 9.11208 
49 2 7.4382 7.11139 9.11102 
50 3 7.31895 6.83512 10.0628 
ITEM: TIMESTEP
150
ITEM: NUMBER OF ATOMS
50
ITEM: BOX BOUNDS pp pp pp
0.0000000000000000e+00 1.1000000000000000e+01
0.0000000000000000e+00 1.1002000000000001e+01
0.0000000000000000e+00 1.1000000000000000e+01
ITEM: ATOMS id type x y z 
10 1 4.63482 4.66018 4.53408 
11 1 3.09819 3.09827 3.09459 
12 1 3.82086 3.8324 3.77139 
46 1 0.757556 0.763655 0.707602 
47 1 2.27503 2.27232 2.28153 
48 1 1.57268 1.57417 1.55293 
19 1 4.58255 4.5886 6.28922 
20 1 3.0219 3.02147 7.77287 
21 1 3.74199 3.74423 7.08803 
31 1 0.722968 0.716872 10.1724 
32 1 2.20286 2.19854 8.59501 
33 1 1.50714 1.50253 9.33655 
16 1 4.52641 6.22206 4.52511 
17 1 2.98964 7.77047 2.99979 
18 1 3.69951 7.05598 3.7035 
25 1 0.628215 10.0832 0.661407 
26 1 2.1672 8.59353 2.17955 
27 1 1.44545 9.29256 1.46746 
4 1 4.57396 6.15384 6.15068 
5 1 3.07944 7.67874 7.67392 
6 1 3.78159 6.96266 6.95852 
37 1 0.723731 10.0387 10.0281 
38 1 2.26727 8.50417 8.49862 
39 1 1.55372 9.21295 9.20506 
13 1 6.23661 4.54162 4.54019 
14 1 7.77097 2.99556 3.0069 
15 1 7.06364 3.70807 3.71359 
28 1 10.0935 0.635546 0.674865 
29 1 8.59345 2.16976 2.18769 
30 1 9.29763 1.4505 1.47837 
1 1 6.13913 4.55429 6.12957 
2 1 7.67432 3.08453 7.66796 
3 1 6.95255 3.77369 6.94574 
40 1 10.0336 0.736464 10.029 
41 1 8.49985 2.2777 8.49747 
42 1 9.20882 1.56555 9.20492 
7 1 6.20502 6.19967 4.59739 
8 1 7.69293 7.69357 3.0448 
9 1 6.99289 6.98996 3.77589 
43 1 10.0711 10.0782 0.759487 
44 1 8.51452 8.51711 2.23302 
45 1 9.23674 9.24154 1.54916 
22 1 6.25264 6.30802 6.14997 
23 1 7.64206 7.50733 8.06111 
24 1 7.00998 6.98181 7.07961 
34 1 10.1826 10.2091 9.94088 
35 1 8.61593 8.62025 8.50321 
36 1 9.34749 9.38849 9.10909 
49 2 7.43672 7.10891 9.11411 
50 3 7.31668 6.83173 10.0661 
ITEM: TIMESTEP
160
ITEM: NUMBER OF ATOMS
50
ITEM: BOX BOUNDS pp pp pp
0.0000000000000000e+00 1.1000000000000000e+01
0.0000000000000000e+00 1.1002000000000001e+01
0.0000000000000000e+00 1.1000000000000000e+01
ITEM: ATOMS id type x y z 
10 1 4.6439 4.67683 4.51292 
11 1 3.10538 3.10265 3.08425 
12 1 3.81999 3.85361 3.75144 
46 1 0.767163 0.76735 0.695545 
47 1 2.27872 2.27609 2.27571 
48 1 1.57809 1.57891 1.54459 
19 1 4.58922 4.59526 6.2838 
20 1 3.03445 3.03616 7.78094 
21 1 3.75477 3.75367 7.08913 
31 1 0.739533 0.738812 10.1926 
32 1 2.21969 2.21645 8.61253 
33 1 1.51946 1.51689 9.34608 
16 1 4.53151 6.2293 4.5266 
17 1 2.98581 7.76908 3.00337 
18 1 3.70813 7.05042 3.6897 
25 1 0.60017 10.0609 0.66068 
26 1 2.15218 8.58046 2.18143 
27 1 1.43765 9.27689 1.46169 
4 1 4.59105 6.15845 6.15358 
5 1 3.08154 7.67666 7.67173 
6 1 3.79389 6.97388 6.9539 
37 1 0.708568 10.0352 10.0189 
38 1 2.27235 8.50513 8.49926 
39 1 1.52963 9.19743 9.1916 
13 1 6.24623 4.55775 4.53552 
14 1 7.7724 2.99574 3.01068 
15 1 7.06792 3.71215 3.71642 
28 1 10.0714 0.614461 0.671914 
29 1 8.58565 2.16364 2.1905 
30 1 9.27828 1.43948 1.47666 
1 1 6.14028 4.5576 6.12173 
2 1 7.67655 3.08905 7.65907 
3 1 6.94115 3.77384 6.947 
40 1 10.0242 0.724829 10.0204 
41 1 8.49549 2.27739 8.49178 
42 1 9.20609 1.56836 9.20167 
7 1 6.22207 6.21611 4.6105 
8 1 7.69796 7.7016 3.04177 
9 1 7.009 6.99902 3.78481 
43 1 10.0879 10.0986 0.804376 
44 1 8.51704 8.52255 2.23016 
45 1 9.25122 9.25553 1.566 
22 1 6.25254 6.32632 6.16074 
23 1 7.628 7.47419 8.12774 
24 1 6.99978 6.96817 7.12292 
34 1 10.2149 10.24 9.8085 
35 1 8.60353 8.60013 8.47836 
36 1 9.34909 9.39025 9.03646 
49 2 7.40574 7.05674 9.179 
50 3 7.26875 6.76095 10.1313 
ITEM: TIMESTEP
170
ITEM: NUMBER OF ATOMS
50
ITEM: BOX BOUNDS pp pp pp
0.0000000000000000e+00 1.1000000000000000e+01
0.0000000000000000e+00 1.1002000000000001e+01
0.0000000000000000e+00 1.1000000000000000e+01
ITEM: ATOMS id type x y z 
10 1 4.64203 4.67971 4.50945 
11 1 3.10054 3.10982 3.07989 
12 1 3.82771 3.84332 3.75287 
46 1 0.766061 0.76653 0.694496 
47 1 2.28032 2.27614 2.27367 
48 1 1.57674 1.57753 1.54475 
19 1 4.58804 4.59631 6.28403 
20 1 3.03667 3.03763 7.78261 
21 1 3.75483 3.75444 7.08924 
31 1 0.741353 0.739312 10.1906 
32 1 2.22043 2.21525 8.60895 
33 1 1.523 1.52494 9.35479 
16 1 4.53718 6.22907 4.52009 
17 1 2.98922 7.76498 2.99723 
18 1 3.70167 7.0549 3.70037 
25 1 0.597694 10.0606 0.65849 
26 1 2.15649 8.58183 2.17725 
27 1 1.42678 9.27279 1.46825 
4 1 4.59132 6.16255 6.15362 
5 1 3.08376 7.68061 7.66952 
6 1 3.79572 6.9688 6.95969 
37 1 0.698931 10.0255 10.0178 
38 1 2.26275 8.49944 8.49512 
39 1 1.54318 9.20506 9.19783 
13 1 6.24707 4.56054 4.53772 
14 1 7.77149 2.99695 3.01346 