ITEM: TIMESTEP
0
ITEM: NUMBER OF ATOMS
33
ITEM: BOX BOUNDS pp pp pp
0.0000000000000000e+00 7.0970000000000004e+00
0.0000000000000000e+00 7.0970000000000004e+00
0.0000000000000000e+00 2.4588000000000001e+01
ITEM: ATOMS id type x y z 
2 1 3.339 1.632 13.319 
5 1 4.651 1.581 18.133 
7 1 3.391 1.602 15.981 
8 1 2.166 1.581 18.134 
18 1 3.408 1.581 17.416 
21 1 3.338 2.875 12.602 
23 1 3.367 1.619 14.753 
24 1 3.338 0.39 12.601 
17 1 7.023 2.875 24.28 
19 1 6.997 1.619 22.129 
20 1 7.023 0.39 24.281 
22 1 6.957 1.581 19.466 
25 1 5.714 1.581 18.748 
27 1 6.974 1.602 20.9 
28 1 1.102 1.581 18.748 
30 1 7.024 1.631 23.563 
10 1 6.954 5.232 5.122 
13 1 7.023 3.938 0.307 
15 1 6.994 5.194 2.459 
16 1 7.023 6.423 0.307 
26 1 7.022 5.181 1.025 
29 1 5.711 5.232 5.839 
31 1 6.97 5.211 3.688 
32 1 1.098 5.232 5.84 
1 1 4.647 5.232 6.454 
3 1 3.388 5.211 8.606 
4 1 2.163 5.232 6.454 
6 1 3.338 5.182 11.269 
9 1 3.338 3.939 11.986 
11 1 3.365 5.194 9.834 
12 1 3.338 6.423 11.987 
14 1 3.404 5.232 7.171 
33 2 4.438 6.423 11.987 
ITEM: TIMESTEP
10
ITEM: NUMBER OF ATOMS
33
ITEM: BOX BOUNDS pp pp pp
0.0000000000000000e+00 7.0970000000000004e+00
0.0000000000000000e+00 7.0970000000000004e+00
0.0000000000000000e+00 2.4588000000000001e+01
ITEM: ATOMS id type x y z 
2 1 3.31912 1.62609 13.3037 
5 1 4.65161 1.58188 18.1348 
7 1 3.39335 1.60158 15.9929 
8 1 2.16624 1.58109 18.1365 
18 1 3.40787 1.58127 17.4312 
21 1 3.33646 2.88599 12.5942 
23 1 3.36461 1.61743 14.7684 
24 1 3.26616 0.439424 12.6204 
17 1 7.02211 2.87636 24.2787 
19 1 6.99618 1.61894 22.1294 
20 1 7.02223 0.390458 24.283 
22 1 6.95751 1.5819 19.4659 
25 1 5.71634 1.57995 18.75 
27 1 6.97409 1.60191 20.901 
28 1 1.09909 1.58112 18.7486 
30 1 7.02407 1.63153 23.5635 
10 1 6.95404 5.23156 5.121 
13 1 7.02383 3.93658 0.308726 
15 1 6.99398 5.1939 2.45984 
16 1 7.02397 6.4222 0.305108 
26 1 7.02054 5.18107 1.02499 
29 1 5.70968 5.23145 5.83871 
31 1 6.97005 5.211 3.68716 
32 1 1.0989 5.23202 5.84022 
1 1 4.64923 5.23252 6.45393 
3 1 3.3903 5.2107 8.60182 
4 1 2.16069 5.23204 6.45365 
6 1 3.31369 5.12998 11.2223 
9 1 3.33512 3.95845 11.9651 
11 1 3.35937 5.18702 9.84143 
12 1 3.40068 6.48601 12.0382 
14 1 3.40421 5.23227 7.18077 
33 2 4.50071 6.34629 11.9438 
ITEM: TIMESTEP
20
ITEM: NUMBER OF ATOMS
33
ITEM: BOX BOUNDS pp pp pp
0.0000000000000000e+00 7.0970000000000004e+00
0.0000000000000000e+00 7.0970000000000004e+00
0.0000000000000000e+00 2.4588000000000001e+01
ITEM: ATOMS id type x y z 
2 1 3.29314 1.64796 13.3041 
5 1 4.65183 1.58143 18.1424 
7 1 3.39812 1.59964 15.9838 
8 1 2.16664 1.58282 18.143 
18 1 3.40928 1.58048 17.4355 
21 1 3.32641 2.88651 12.5929 
23 1 3.35258 1.62115 14.7644 
24 1 3.28094 0.446144 12.6199 
17 1 7.02261 2.87469 24.2817 
19 1 6.99541 1.61917 22.1321 
20 1 7.02133 0.389261 24.2809 
22 1 6.95674 1.58199 19.4696 
25 1 5.71926 1.58186 18.7521 
27 1 6.97432 1.60142 20.9034 
28 1 1.09723 1.58012 18.7499 
30 1 7.02447 1.63275 23.5659 
10 1 6.95371 5.23099 5.11766 
13 1 7.02167 3.93895 0.306785 
15 1 6.99458 5.19396 2.45734 
16 1 7.02305 6.42279 0.308075 
26 1 7.02103 5.17996 1.0255 
29 1 5.70931 5.22805 5.83739 
31 1 6.96961 5.21077 3.68765 
32 1 1.09973 5.23203 5.8398 
1 1 4.65142 5.23705 6.45767 
3 1 3.39366 5.20419 8.59665 
4 1 2.15931 5.23312 6.45751 
6 1 3.28048 5.12359 11.2139 
9 1 3.31543 3.93757 11.9446 
11 1 3.34049 5.16958 9.83392 
12 1 3.45537 6.49414 12.0482 
14 1 3.40585 5.23443 7.18441 
33 2 4.541 6.35345 11.9501 
ITEM: TIMESTEP
30
ITEM: NUMBER OF ATOMS
33
ITEM: BOX BOUNDS pp pp pp
0.0000000000000000e+00 7.0970000000000004e+00
0.0000000000000000e+00 7.0970000000000004e+00
0.0000000000000000e+00 2.4588000000000001e+01
ITEM: ATOMS id type x y z 
2 1 3.28082 1.64077 13.3061 
5 1 4.65131 1.58019 18.1427 
7 1 3.39629 1.60242 15.9844 
8 1 2.16805 1.58271 18.1431 
18 1 3.4102 1.57997 17.4365 
21 1 3.31339 2.88505 12.586 
23 1 3.34665 1.62311 14.7636 
24 1 3.2911 0.447863 12.6214 
17 1 7.02266 2.87438 24.283 
19 1 6.9955 1.61935 22.1323 
20 1 7.01774 0.389305 24.2813 
22 1 6.95777 1.5825 19.4691 
25 1 5.71771 1.58183 18.755 
27 1 6.97413 1.60281 20.9043 
28 1 1.09978 1.57983 18.752 
30 1 7.02487 1.63135 23.566 
10 1 6.95407 5.2293 5.11805 
13 1 7.02019 3.93888 0.307329 
15 1 6.99409 5.19381 2.45799 
16 1 7.02743 6.4229 0.308505 
26 1 7.01968 5.18167 1.02555 
29 1 5.7119 5.2315 5.83722 
31 1 6.96996 5.20918 3.68696 
32 1 1.09862 5.23328 5.84056 
1 1 4.65238 5.23456 6.45645 
3 1 3.38895 5.19994 8.59737 
4 1 2.15964 5.23301 6.45676 
6 1 3.26845 5.13351 11.2161 
9 1 3.29709 3.9375 11.9389 
11 1 3.33082 5.16666 9.83437 
12 1 3.48033 6.49115 12.0458 
14 1 3.40699 5.23632 7.18137 
33 2 4.57744 6.35539 11.9533 
ITEM: TIMESTEP
40
ITEM: NUMBER OF ATOMS
33
ITEM: BOX BOUNDS pp pp pp
0.0000000000000000e+00 7.0970000000000004e+00
0.0000000000000000e+00 7.0970000000000004e+00
0.0000000000000000e+00 2.4588000000000001e+01
ITEM: ATOMS id type x y z 
2 1 3.21555 1.64592 13.3021 
5 1 4.65032 1.57755 18.1491 
7 1 3.38518 1.61161 15.9833 
8 1 2.17209 1.58034 18.1413 
18 1 3.41355 1.57837 17.4291 
21 1 3.22205 2.87804 12.5533 
23 1 3.31299 1.63545 14.7624 
24 1 3.35347 0.436535 12.6216 
17 1 7.01799 2.87215 24.287 
19 1 6.99504 1.62198 22.1338 
20 1 7.02454 0.39307 24.2875 
22 1 6.96202 1.58403 19.4717 
25 1 5.7151 1.58253 18.7633 
27 1 6.97523 1.60502 20.9055 
28 1 1.11033 1.58187 18.7602 
30 1 7.01983 1.63218 23.5673 
10 1 6.95895 5.2273 5.121 
13 1 7.01893 3.93927 0.309377 
15 1 6.99265 5.19046 2.45883 
16 1 7.02364 6.42094 0.305444 
26 1 7.01854 5.18141 1.02496 
29 1 5.71664 5.23246 5.84287 
31 1 6.97041 5.20661 3.68799 
32 1 1.10014 5.23404 5.84487 
1 1 4.65173 5.23598 6.45334 
3 1 3.36193 5.19061 8.60329 
4 1 2.1666 5.23529 6.45437 
6 1 3.20771 5.15431 11.2279 
9 1 3.21644 3.94116 11.9197 
11 1 3.28314 5.15955 9.83894 
12 1 3.63838 6.46746 12.0244 
14 1 3.40728 5.23365 7.18285 
33 2 4.74759 6.36486 11.9702 
ITEM: TIMESTEP
50
ITEM: NUMBER OF ATOMS
33
ITEM: BOX BOUNDS pp pp pp
0.0000000000000000e+00 7.0970000000000004e+00
0.0000000000000000e+00 7.0970000000000004e+00
0.0000000000000000e+00 2.4588000000000001e+01
ITEM: ATOMS id type x y z 
2 1 3.19121 1.62892 13.2873 
5 1 4.6522 1.58526 18.1405 
7 1 3.3764 1.61332 15.9808 
8 1 2.17957 1.58317 18.1501 
18 1 3.41088 1.57707 17.4299 
21 1 3.1828 2.88469 12.5519 
23 1 3.29883 1.64021 14.7622 
24 1 3.392 0.429781 12.608 
17 1 7.02307 2.87763 24.2798 
19 1 6.99615 1.62086 22.1335 
20 1 7.01641 0.387168 24.2814 
22 1 6.96282 1.58352 19.4699 
25 1 5.71583 1.58165 18.7565 
27 1 6.97603 1.60508 20.9055 
28 1 1.1045 1.57975 18.747 
30 1 7.02033 1.63253 23.5701 
10 1 6.95436 5.23651 5.12497 
13 1 7.02322 3.93687 0.314941 
15 1 6.99488 5.19025 2.46372 
16 1 7.01599 6.42324 0.313029 
26 1 7.01812 5.18045 1.02907 
29 1 5.70844 5.22471 5.8396 
31 1 6.97128 5.21133 3.69226 
32 1 1.10583 5.22949 5.8361 
1 1 4.65653 5.2288 6.47218 
3 1 3.34388 5.20269 8.60886 
4 1 2.16381 5.22953 6.45916 
6 1 3.21195 5.16629 11.2335 
9 1 3.19155 3.95489 11.9386 
11 1 3.2871 5.17596 9.84436 
12 1 3.6867 6.44198 12.009 
14 1 3.40394 5.23445 7.1879 
33 2 4.78941 6.35398 11.9673 
ITEM: TIMESTEP
60
ITEM: NUMBER OF ATOMS
33
ITEM: BOX BOUNDS pp pp pp
0.0000000000000000e+00 7.0970000000000004e+00
0.0000000000000000e+00 7.0970000000000004e+00
0.0000000000000000e+00 2.4588000000000001e+01
ITEM: ATOMS id type x y z 
2 1 3.17493 1.62512 13.2854 
5 1 4.65269 1.58476 18.1374 
7 1 3.37204 1.61479 15.976 
8 1 2.17673 1.58266 18.1441 
18 1 3.41189 1.58075 17.4248 
21 1 3.1814 2.8882 12.555 
23 1 3.28667 1.63602 14.7577 
24 1 3.39439 0.423201 12.6053 
17 1 7.01901 2.87556 24.2828 
19 1 6.99574 1.61963 22.1318 
20 1 7.02572 0.38938 24.2843 
22 1 6.9613 1.58395 19.4705 
25 1 5.71583 1.58071 18.7544 
27 1 6.97631 1.60628 20.9036 
28 1 1.10879 1.58103 18.753 
30 1 7.01871 1.63215 23.5685 
10 1 6.95338 5.23173 5.12572 
13 1 7.01814 3.93738 0.313008 
15 1 6.99373 5.19238 2.46383 
16 1 7.01336 6.42166 0.309574 
26 1 7.02067 5.18149 1.02971 
29 1 5.71104 5.22804 5.84802 
31 1 6.97039 5.20924 3.69253 
32 1 1.10297 5.23106 5.84014 
1 1 4.65287 5.23115 6.46981 
3 1 3.34333 5.20162 8.61571 
4 1 2.16559 5.23079 6.45596 
6 1 3.19469 5.17687 11.2426 
9 1 3.1839 3.95492 11.9357 
11 1 3.2774 5.18137 9.85098 
12 1 3.72131 6.44126 12.0064 
14 1 3.40263 5.22901 7.18828 
33 2 4.82846 6.34784 11.9662 
ITEM: TIMESTEP
70
ITEM: NUMBER OF ATOMS
33
ITEM: BOX BOUNDS pp pp pp
0.0000000000000000e+00 7.0970000000000004e+00
0.0000000000000000e+00 7.0970000000000004e+00
0.0000000000000000e+00 2.4588000000000001e+01
ITEM: ATOMS id type x y z 
2 1 3.17256 1.62872 13.2842 
5 1 4.65405 1.58097 18.1358 
7 1 3.3694 1.61485 15.9754 
8 1 2.17591 1.58188 18.144 
18 1 3.41193 1.58346 17.4216 
21 1 3.17577 2.88759 12.5545 
23 1 3.2842 1.63404 14.755 
24 1 3.39855 0.419133 12.6029 
17 1 7.01975 2.8755 24.2837 
19 1 6.99602 1.62137 22.1323 
20 1 7.01892 0.390164 24.2857 
22 1 6.96204 1.58423 19.4675 
25 1 5.71592 1.58413 18.7547 
27 1 6.97535 1.60314 20.9041 
28 1 1.10825 1.58224 18.7534 
30 1 7.01973 1.63193 23.5664 
10 1 6.95477 5.23022 5.12643 
13 1 7.01855 3.93779 0.312718 
15 1 6.99224 5.1924 2.46454 
16 1 7.02067 6.42122 0.308315 
26 1 7.01794 5.18076 1.03044 
29 1 5.70989 5.23103 5.84868 
31 1 6.97062 5.20979 3.69312 
32 1 1.10251 5.23052 5.84072 
1 1 4.65227 5.22906 6.47168 
3 1 3.34551 5.203 8.61614 
4 1 2.16515 5.2307 6.45595 
6 1 3.19748 5.17979 11.248 
9 1 3.18211 3.95575 11.9376 
11 1 3.26966 5.18313 9.85011 
12 1 3.73009 6.43893 12.0046 
14 1 3.40196 5.22811 7.19256 
33 2 4.83625 6.34644 11.9661 
ITEM: TIMESTEP
80
ITEM: NUMBER OF ATOMS
33
ITEM: BOX BOUNDS pp pp pp
0.0000000000000000e+00 7.0970000000000004e+00
0.0000000000000000e+00 7.0970000000000004e+00
0.0000000000000000e+00 2.4588000000000001e+01
ITEM: ATOMS id type x y z 
2 1 3.16175 1.62465 13.2746 
5 1 4.65334 1.58138 18.1311 
7 1 3.35924 1.61305 15.9654 
8 1 2.17542 1.58255 18.1405 
18 1 3.41079 1.58776 17.4115 
21 1 3.16231 2.88753 12.5539 
23 1 3.27104 1.628 14.7455 
24 1 3.41692 0.415016 12.5973 
17 1 7.01932 2.87482 24.2853 
19 1 6.99822 1.62483 22.1313 
20 1 7.01869 0.389116 24.284 
22 1 6.96309 1.58514 19.4614 
25 1 5.71657 1.58602 18.7476 
27 1 6.97279 1.59658 20.9036 
28 1 1.10909 1.58546 18.7529 
30 1 7.01775 1.63081 23.5634 
10 1 6.95463 5.22963 5.13131 
13 1 7.01939 3.93813 0.312042 
15 1 6.98948 5.19312 2.46645 
16 1 7.0185 6.42313 0.311862 
26 1 7.01801 5.18082 1.0324 
29 1 5.70798 5.23224 5.8555 
31 1 6.96947 5.21007 3.69492 
32 1 1.101 5.22865 5.84289 
1 1 4.65058 5.22634 6.47753 
3 1 3.34207 5.20597 8.62436 
4 1 2.16378 5.22985 6.4593 
6 1 3.19987 5.18852 11.2625 
9 1 3.17335 3.95832 11.9416 
11 1 3.25699 5.19327 9.85739 
12 1 3.76302 6.43509 12.0018 
14 1 3.39924 5.22571 7.20194 
33 2 4.87233 6.34045 11.9657 
ITEM: TIMESTEP
90
ITEM: NUMBER OF ATOMS
33
ITEM: BOX BOUNDS pp pp pp
0.0000000000000000e+00 7.0970000000000004e+00
0.0000000000000000e+00 7.0970000000000004e+00
0.0000000000000000e+00 2.4588000000000001e+01
ITEM: ATOMS id type x y z 
2 1 3.15992 1.6196 13.2717 
5 1 4.65385 1.58439 18.1261 
7 1 3.35609 1.61207 15.9633 
8 1 2.17641 1.58506 18.1385 
18 1 3.4099 1.58736 17.4111 
21 1 3.15988 2.88782 12.5528 
23 1 3.26826 1.6266 14.7434 
24 1 3.4221 0.415406 12.5961 
17 1 7.01887 2.87508 24.2846 
19 1 6.99487 1.62034 22.1288 
20 1 7.0187 0.389441 24.2844 
22 1 6.96144 1.58301 19.4631 
25 1 5.71492 1.58475 18.7463 
27 1 6.97405 1.60316 20.9006 
28 1 1.11067 1.58374 18.7516 
30 1 7.01932 1.6316 23.565 
10 1 6.95227 5.2302 5.1316 
13 1 7.01822 3.93778 0.312812 
15 1 6.99036 5.19273 2.46825 
16 1 7.01876 6.42261 0.311062 
26 1 7.01747 5.18131 1.03266 
29 1 5.70714 5.22997 5.85626 
31 1 6.96822 5.20998 3.69668 
32 1 1.10192 5.22928 5.84471 
1 1 4.65059 5.22749 6.48045 
3 1 3.33402 5.20793 8.62764 
4 1 2.16402 5.22835 6.46149 
6 1 3.19712 5.19105 11.2611 
9 1 3.17005 3.95983 11.944 
11 1 3.2641 5.19259 9.86218 
12 1 3.77242 6.43662 12.0031 
14 1 3.39867 5.22581 7.20179 
33 2 4.88139 6.33903 11.9658 
ITEM: TIMESTEP
100
ITEM: NUMBER OF ATOMS
33
ITEM: BOX BOUNDS pp pp pp
0.0000000000000000e+00 7.0970000000000004e+00
0.0000000000000000e+00 7.0970000000000004e+00
0.0000000000000000e+00 2.4588000000000001e+01
ITEM: ATOMS id type x y z 
2 1 3.15205 1.60964 13.2565 
5 1 4.65191 1.58568 18.1141 
7 1 3.33735 1.6068 15.948 
8 1 2.1741 1.58702 18.1321 
18 1 3.40572 1.5955 17.3962 
21 1 3.1393 2.88707 12.549 
23 1 3.25115 1.61548 14.7277 
24 1 3.45596 0.410486 12.5879 
17 1 7.01636 2.87713 24.2798 
19 1 6.99271 1.62044 22.1241 
20 1 7.0166 0.388678 24.2829 
22 1 6.95929 1.58293 19.4547 
25 1 5.71519 1.58823 18.7278 
27 1 6.97355 1.60179 20.8971 
28 1 1.10916 1.58805 18.7434 
30 1 7.01851 1.63081 23.5601 
10 1 6.94775 5.22757 5.1403 
13 1 7.01835 3.93481 0.318541 
15 1 6.98646 5.193 2.47266 
16 1 7.01561 6.42449 0.314799 
26 1 7.01647 5.18174 1.03707 
29 1 5.70448 5.22987 5.87264 
31 1 6.96446 5.21066 3.70118 
32 1 1.09705 5.22676 5.85151 
1 1 4.64627 5.22327 6.49415 
3 1 3.32415 5.21349 8.64131 
4 1 2.15823 5.22782 6.47012 
6 1 3.21072 5.20301 11.2784 
9 1 3.15478 3.9658 11.954 
11 1 3.26082 5.20384 9.87644 
12 1 3.82452 6.43495 12.0022 
14 1 3.39051 5.22488 7.21525 
33 2 4.93646 6.3303 11.967 
ITEM: TIMESTEP
105
ITEM: NUMBER OF ATOMS
33
ITEM: BOX BOUNDS pp pp pp
0.0000000000000000e+00 7.0970000000000004e+00
0.0000000000000000e+00 7.0970000000000004e+00
0.0000000000000000e+00 2.4588000000000001e+01
ITEM: ATOMS id type x y z 
2 1 3.15205 1.60961 13.2564 
5 1 4.65173 1.58582 18.114 
7 1 3.33735 1.60681 15.9481 
8 1 2.17437 1.58714 18.1319 
18 1 3.40568 1.59542 17.3962 
21 1 3.13928 2.88698 12.549 
23 1 3.25115 1.61547 14.7277 
24 1 3.45577 0.411128 12.5883 
17 1 7.01643 2.87728 24.2799 
19 1 6.99275 1.62041 22.1243 
20 1 7.0166 0.388619 24.2829 
22 1 6.95926 1.58301 19.4547 
25 1 5.71538 1.58809 18.7279 
27 1 6.9735 1.60184 20.8968 
28 1 1.10893 1.58792 18.7436 
30 1 7.01843 1.63084 23.5602 
10 1 6.94773 5.22762 5.14025 
13 1 7.01829 3.93466 0.318414 
15 1 6.98652 5.19303 2.47274 
16 1 7.01566 6.42455 0.314771 
26 1 7.01642 5.18171 1.03703 
29 1 5.70443 5.22974 5.87266 
31 1 6.96441 5.2106 3.70121 
32 1 1.09703 5.22681 5.85151 
1 1 4.6463 5.22339 6.49417 
3 1 3.32412 5.21352 8.64142 
4 1 2.15825 5.22777 6.47016 
6 1 3.21066 5.20291 11.2782 
9 1 3.15479 3.9659 11.954 
11 1 3.26086 5.20382 9.8764 
12 1 3.82484 6.43443 12.0019 
14 1 3.39051 5.22485 7.21522 
33 2 4.93651 6.3303 11.967 
ITEM: TIMESTEP
106
ITEM: NUMBER OF ATOMS
33
ITEM: BOX BOUNDS pp pp pp
0.0000000000000000e+00 7.0970000000000004e+00
0.0000000000000000e+00 7.0970000000000004e+00
0.0000000000000000e+00 2.4588000000000001e+01
ITEM: ATOMS id type x y z 
2 1 3.15205 1.60961 13.2564 
5 1 4.65173 1.58582 18.114 
7 1 3.33735 1.60681 15.9481 
8 1 2.17437 1.58714 18.1319 
18 1 3.40568 1.59542 17.3962 
21 1 3.13928 2.88698 12.549 
23 1 3.25115 1.61547 14.7277 
24 1 3.45577 0.411128 12.5883 
17 1 7.01643 2.87728 24.2799 
19 1 6.99275 1.62041 22.1243 
20 1 7.0166 0.388619 24.2829 
22 1 6.95926 1.58301 19.4547 
25 1 5.71538 1.58809 18.7279 
27 1 6.9735 1.60184 20.8968 
28 1 1.10893 1.58792 18.7436 
30 1 7.01843 1.63084 23.5602 
10 1 6.94773 5.22762 5.14025 
13 1 7.01829 3.93466 0.318414 
15 1 6.98652 5.19303 2.47274 
16 1 7.01566 6.42455 0.314771 
26 1 7.01642 5.18171 1.03703 
29 1 5.70443 5.22974 5.87266 
31 1 6.96441 5.2106 3.70121 
32 1 1.09703 5.22681 5.85151 
1 1 4.6463 5.22339 6.49417 
3 1 3.32412 5.21352 8.64142 
4 1 2.15825 5.22777 6.47016 
6 1 3.21066 5.20291 11.2782 
9 1 3.15479 3.9659 11.954 
11 1 3.26086 5.20382 9.8764 
12 1 3.82484 6.43443 12.0019 
14 1 3.39051 5.22485 7.21522 
33 2 4.93651 6.3303 11.967 
ITEM: TIMESTEP
110
ITEM: NUMBER OF ATOMS
33
ITEM: BOX BOUNDS pp pp pp
5.4148328694563581e-04 7.0964585167130556e+00
7.4388256267468947e-04 7.0962561174373260e+00
4.9176000000000003e-03 2.4583082400000002e+01
ITEM: ATOMS id type x y z 
2 1 3.15211 1.61001 13.256 
5 1 4.65155 1.58625 18.1116 
7 1 3.33738 1.60722 15.9466 
8 1 2.1746 1.58756 18.1295 
18 1 3.4057 1.59583 17.3941 
21 1 3.13934 2.88711 12.5489 
23 1 3.2512 1.61587 14.7268 
24 1 3.45577 0.411828 12.5882 
17 1 7.01591 2.87743 24.2752 
19 1 6.99223 1.62081 22.1203 
20 1 7.01608 0.38928 24.2782 
22 1 6.95874 1.58343 19.4518 
25 1 5.71506 1.58849 18.7253 
27 1 6.97298 1.60225 20.8934 
28 1 1.10928 1.58832 18.741 
30 1 7.0179 1.63124 23.5557 
10 1 6.94721 5.22727 5.14311 
13 1 7.01775 3.93457 0.323195 
15 1 6.986 5.19269 2.47667 
16 1 7.01513 6.42395 0.319562 
26 1 7.01588 5.18137 1.04153 
29 1 5.70409 5.22938 5.87523 
31 1 6.96388 5.21024 3.70465 
32 1 1.09741 5.22646 5.85409 
1 1 4.64614 5.22305 6.49649 
3 1 3.32415 5.21317 8.64289 
4 1 2.15847 5.22742 6.47249 
6 1 3.21071 5.20256 11.2786 
9 1 3.15485 3.96582 11.9541 
11 1 3.26091 5.20347 9.87737 
12 1 3.82482 6.4338 12.002 
14 1 3.39053 5.22449 7.21725 
33 2 4.9363 6.32971 11.9671 
ITEM: TIMESTEP
120
ITEM: NUMBER OF ATOMS
33
ITEM: BOX BOUNDS pp pp pp
2.1375247847318936e-03 7.0948624752152698e+00
3.1106453655571731e-03 7.0938893546344453e+00
1.7147560178394146e-02 2.4570852439821611e+01
ITEM: ATOMS id type x y z 
2 1 3.15227 1.61128 13.255 
5 1 4.65087 1.58768 18.1057 
7 1 3.33748 1.60852 15.9431 
8 1 2.17547 1.58897 18.1236 
18 1 3.40573 1.59707 17.3891 
21 1 3.13951 2.88737 12.5488 
23 1 3.25133 1.61715 14.7242 
24 1 3.45567 0.414413 12.5882 
17 1 7.0144 2.87783 24.2632 
19 1 6.99072 1.62207 22.1108 
20 1 7.01452 0.391483 24.2662 
22 1 6.95717 1.58481 19.4447 
25 1 5.71427 1.58967 18.719 
27 1 6.9714 1.60359 20.8845 
28 1 1.11016 1.58951 18.7347 
30 1 7.01628 1.63255 23.5445 
10 1 6.94565 5.22619 5.1502 
13 1 7.01614 3.93435 0.335102 
15 1 6.98451 5.19161 2.48628 
16 1 7.01362 6.42194 0.331539 
26 1 7.01428 5.18026 1.05268 
29 1 5.70319 5.22815 5.88158 
31 1 6.96229 5.20909 3.71345 
32 1 1.0984 5.22538 5.86045 
1 1 4.64557 5.22204 6.50234 
3 1 3.32424 5.21208 8.64632 
4 1 2.15922 5.22626 6.47837 
6 1 3.2108 5.20141 11.2795 
9 1 3.15503 3.96574 11.9544 
11 1 3.26106 5.20235 9.88001 
12 1 3.82498 6.43145 12.0021 
14 1 3.3906 5.22335 7.22228 
33 2 4.93573 6.32785 11.9675 
ITEM: TIMESTEP
130
ITEM: NUMBER OF ATOMS
33
ITEM: BOX BOUNDS pp pp pp
4.1466560526348924e-03 7.0928533439473664e+00
6.6591453655571748e-03 7.0903408546344462e+00
2.5947620622506006e-02 2.4562052379377498e+01
ITEM: ATOMS id type x y z 
2 1 3.15221 1.61317 13.2542 
5 1 4.64962 1.59036 18.1009 
7 1 3.33762 1.6105 15.9414 
8 1 2.17707 1.59148 18.1187 
18 1 3.40566 1.59867 17.3857 
21 1 3.13964 2.8872 12.549 
23 1 3.25145 1.61904 14.7219 
24 1 3.45534 0.418944 12.5887 
17 1 7.01273 2.87793 24.2545 
19 1 6.98897 1.62385 22.1046 
20 1 7.0126 0.395298 24.2572 
22 1 6.9551 1.58713 19.4397 
25 1 5.71365 1.59093 18.7148 
27 1 6.96926 1.60578 20.8768 
28 1 1.11091 1.59082 18.7306 
30 1 7.01402 1.63458 23.5367 
10 1 6.94359 5.22475 5.15519 
13 1 7.01391 3.93454 0.343827 
15 1 6.98285 5.19007 2.49263 
16 1 7.01186 6.41839 0.34049 
26 1 7.01209 5.17855 1.06059 
29 1 5.70234 5.22585 5.88595 
31 1 6.96009 5.20719 3.72079 
32 1 1.09928 5.2239 5.86484 
1 1 4.6445 5.22095 6.5069 
3 1 3.32427 5.2105 8.64819 
4 1 2.16056 5.22438 6.48295 
6 1 3.21058 5.19983 11.28 
9 1 3.15529 3.96618 11.9542 
11 1 3.26139 5.20059 9.88262 
12 1 3.82606 6.42717 12.0016 
14 1 3.3907 5.22158 7.22581 
33 2 4.93529 6.32503 11.9677 
ITEM: TIMESTEP
140
ITEM: NUMBER OF ATOMS
33
ITEM: BOX BOUNDS pp pp pp
4.7109939444126723e-03 7.0922890060555890e+00
9.4043055895416481e-03 7.0875956944104619e+00
2.8691666771120231e-02 2.4559308333228884e+01
ITEM: ATOMS id type x y z 
2 1 3.15106 1.61463 13.2537 
5 1 4.64955 1.59364 18.0984 
7 1 3.33762 1.61205 15.9414 
8 1 2.17761 1.59384 18.1169 
18 1 3.40536 1.59933 17.3853 
21 1 3.13944 2.8872 12.5491 
23 1 3.25146 1.62041 14.7212 
24 1 3.45563 0.421506 12.5886 
17 1 7.01272 2.87765 24.2519 
19 1 6.98869 1.62495 22.1019 
20 1 7.01217 0.39837 24.2544 
22 1 6.95433 1.58904 19.4381 
25 1 5.71317 1.59107 18.7138 
27 1 6.96836 1.6079 20.8736 
28 1 1.11122 1.59148 18.7292 
30 1 7.01293 1.63632 23.5344 
10 1 6.94263 5.22406 5.15655 
13 1 7.0128 3.93506 0.346433 
15 1 6.98276 5.18905 2.49511 
16 1 7.01163 6.41549 0.343356 
26 1 7.01117 5.17711 1.06311 
29 1 5.70217 5.22287 5.88751 
31 1 6.95905 5.20545 3.7238 
32 1 1.09944 5.22304 5.86639 
1 1 4.64398 5.22104 6.50864 
3 1 3.32394 5.20922 8.64879 
4 1 2.16101 5.22264 6.48461 
6 1 3.20936 5.19953 11.2801 
9 1 3.15542 3.96654 11.954 
11 1 3.26201 5.19914 9.88356 
12 1 3.82856 6.42385 12.0012 
14 1 3.3908 5.22023 7.22677 
33 2 4.93628 6.32275 11.9678 
ITEM: TIMESTEP
150
ITEM: NUMBER OF ATOMS
33
ITEM: BOX BOUNDS pp pp pp
4.1108168092942607e-03 7.0928891831907066e+00
1.1875525258906562e-02 7.0851244747410966e+00
2.8796914960375210e-02 2.4559203085039627e+01
ITEM: ATOMS id type x y z 
2 1 3.14846 1.61557 13.2534 
5 1 4.65015 1.5957 18.097 
7 1 3.33754 1.61336 15.9418 
8 1 2.17718 1.5956 18.1165 
18 1 3.40516 1.60007 17.386 
21 1 3.13878 2.8876 12.5489 
23 1 3.25103 1.62152 14.7218 
24 1 3.45685 0.42269 12.588 
17 1 7.0135 2.87734 24.2523 
19 1 6.98918 1.626 22.1003 
20 1 7.0128 0.401037 24.2544 
22 1 6.95453 1.58983 19.4373 
25 1 5.71296 1.59291 18.7139 
27 1 6.96862 1.60962 20.8721 
28 1 1.11088 1.59281 18.7289 
30 1 7.01335 1.63798 23.5338 
10 1 6.94257 5.22278 5.15719 
13 1 7.01297 3.93562 0.345971 
15 1 6.98333 5.18809 2.4965 
16 1 7.0123 6.41295 0.343281 
26 1 7.01169 5.17568 1.06389 
29 1 5.70203 5.22146 5.88763 
31 1 6.95911 5.20401 3.72513 
32 1 1.09898 5.22215 5.86698 
1 1 4.64418 5.22024 6.50947 
3 1 3.32333 5.20791 8.64894 
4 1 2.16054 5.22113 6.48501 
6 1 3.20689 5.20049 11.2802 
9 1 3.15535 3.96693 11.9538 
11 1 3.26285 5.19795 9.88375 
12 1 3.83324 6.42079 12.0009 
14 1 3.39092 5.2193 7.22672 
33 2 4.93968 6.32045 11.9679 
ITEM: TIMESTEP
160
ITEM: NUMBER OF ATOMS
33
ITEM: BOX BOUNDS pp pp pp
3.5471945120736461e-03 7.0934528054879271e+00
1.3828825736648880e-02 7.0831711742633559e+00
3.0234106798810920e-02 2.4557765893201193e+01
ITEM: ATOMS id type x y z 
2 1 3.14644 1.6159 13.253 
5 1 4.65052 1.59703 18.0955 
7 1 3.33753 1.61433 15.9415 
8 1 2.17672 1.5968 18.1155 
18 1 3.40509 1.6011 17.3857 
21 1 3.13809 2.88796 12.5486 
23 1 3.25024 1.62232 14.7216 
24 1 3.45818 0.423686 12.5876 
17 1 7.0139 2.87725 24.2512 
19 1 6.98958 1.62708 22.098 
20 1 7.0134 0.403093 24.2531 
22 1 6.95479 1.59093 19.4354 
25 1 5.71294 1.59416 18.7129 
27 1 6.96888 1.61057 20.8699 
28 1 1.11041 1.59395 18.7278 
30 1 7.01388 1.63914 23.5316 
10 1 6.94261 5.22177 5.15893 
13 1 7.01341 3.93591 0.347028 
15 1 6.98366 5.18721 2.49873 
16 1 7.01291 6.41105 0.344575 
26 1 7.0122 5.17467 1.06618 
29 1 5.70201 5.22041 5.8888 
31 1 6.95926 5.20303 3.72727 
32 1 1.09846 5.22112 5.8683 
1 1 4.64422 5.21951 6.51069 
3 1 3.32316 5.20711 8.64953 
4 1 2.16009 5.22021 6.48599 
6 1 3.20536 5.20114 11.2806 
9 1 3.15508 3.96728 11.9538 
11 1 3.26287 5.19737 9.88423 
12 1 3.83697 6.41853 12.0006 
14 1 3.39088 5.21834 7.22739 
33 2 4.94334 6.31852 11.9681 
ITEM: TIMESTEP
170
ITEM: NUMBER OF ATOMS
33
ITEM: BOX BOUNDS pp pp pp
3.3004589265447251e-03 7.0936995410734562e+00
1.4764413469984512e-02 7.0822355865300208e+00
3.0749234339709670e-02 2.4557250765660296e+01
ITEM: ATOMS id type x y z 
2 1 3.14523 1.61585 13.2528 
5 1 4.65059 1.59768 18.0948 
7 1 3.3375 1.61478 15.9412 
8 1 2.17652 1.59738 18.1151 
18 1 3.40504 1.60166 17.3855 
21 1 3.13759 2.88808 12.5485 
23 1 3.24965 1.62262 14.7214 
24 1 3.45916 0.424099 12.5874 
17 1 7.01404 2.8772 24.2508 
19 1 6.98971 1.62758 22.0968 
20 1 7.0136 0.403982 24.2524 
22 1 6.9548 1.59148 19.4345 
25 1 5.71295 1.59477 18.7122 
27 1 6.96892 1.61107 20.8688 
28 1 1.11019 1.59451 18.7273 
30 1 7.01419 1.63971 23.5304 
10 1 6.94253 5.22106 5.15989 
13 1 7.01355 3.93605 0.347424 
15 1 6.98374 5.18677 2.49988 
16 1 7.01312 6.41022 0.34524 
26 1 7.0125 5.17419 1.06732 
29 1 5.70207 5.22035 5.88969 
31 1 6.9592 5.20257 3.72839 
32 1 1.09816 5.22064 5.869 
1 1 4.64407 5.21889 6.51118 
3 1 3.32318 5.20681 8.64985 
4 1 2.15985 5.21974 6.48643 
6 1 3.20467 5.20166 11.2809 
9 1 3.15483 3.96752 11.9538 
11 1 3.26263 5.1973 9.88449 
12 1 3.83935 6.41739 12.0005 
14 1 3.39081 5.21785 7.22769 
33 2 4.94586 6.31749 11.9681 
ITEM: TIMESTEP
180
ITEM: NUMBER OF ATOMS
33
ITEM: BOX BOUNDS pp pp pp
2.8097385670201951e-03 7.0941902614329813e+00
1.6335939718220584e-02 7.0806640602817854e+00
3.1408449943975562e-02 2.4556591550056030e+01
ITEM: ATOMS id type x y z 
2 1 3.14311 1.61565 13.2524 
5 1 4.65055 1.5989 18.0938 
7 1 3.33734 1.61552 15.9408 
8 1 2.17618 1.59836 18.1145 
18 1 3.4049 1.60264 17.3851 
21 1 3.13657 2.88824 12.5482 
23 1 3.24851 1.62303 14.7211 
24 1 3.46109 0.424776 12.5872 
17 1 7.01436 2.87718 24.2501 
19 1 6.98998 1.6284 22.0949 
20 1 7.01434 0.405439 24.2513 
22 1 6.95484 1.59256 19.4328 
25 1 5.71316 1.59551 18.7108 
27 1 6.96901 1.61193 20.8669 
28 1 1.10973 1.59546 18.7263 
30 1 7.01459 1.64061 23.5285 
10 1 6.94255 5.22038 5.16175 
13 1 7.01385 3.93623 0.348021 
15 1 6.98391 5.18604 2.50183 
16 1 7.01338 6.40888 0.346268 
26 1 7.01305 5.17344 1.06922 
29 1 5.70202 5.21916 5.89099 
31 1 6.95911 5.20174 3.73026 
32 1 1.09755 5.21979 5.87018 
1 1 4.64384 5.21845 6.51212 
3 1 3.32321 5.20641 8.65041 
4 1 2.15942 5.21892 6.48715 
6 1 3.20367 5.20264 11.2815 
9 1 3.15426 3.96792 11.9539 
11 1 3.26206 5.19734 9.88497 
12 1 3.84375 6.41547 12.0001 
14 1 3.39061 5.21697 7.22817 
33 2 4.95066 6.3157 11.9683 
ITEM: TIMESTEP
190
ITEM: NUMBER OF ATOMS
33
ITEM: BOX BOUNDS pp pp pp
2.4215961364915705e-03 7.0945784038635100e+00
1.7462400089809663e-02 7.0795375999101964e+00
3.1603558018362461e-02 2.4556396441981644e+01
ITEM: ATOMS id type x y z 
2 1 3.14178 1.61552 13.2522 
5 1 4.65055 1.59948 18.0931 
7 1 3.33711 1.61604 15.9404 
8 1 2.17597 1.59907 18.1142 
18 1 3.40475 1.60341 17.3848 
21 1 3.13577 2.88831 12.5481 
23 1 3.2477 1.62327 14.7208 
24 1 3.46255 0.425333 12.5871 
17 1 7.01463 2.87731 24.2498 
19 1 6.99018 1.62899 22.0938 
20 1 7.01434 0.406571 24.251 
22 1 6.95506 1.59316 19.4316 
25 1 5.71319 1.59642 18.71 
27 1 6.96909 1.61258 20.8657 
28 1 1.10936 1.59616 18.7257 
30 1 7.01507 1.64118 23.5274 
10 1 6.94265 5.21971 5.16299 
13 1 7.01415 3.93623 0.348352 
15 1 6.98405 5.1855 2.50304 
16 1 7.01417 6.40782 0.34656 
26 1 7.01326 5.17296 1.07036 
29 1 5.70187 5.21872 5.89161 
31 1 6.95909 5.20117 3.73146 
32 1 1.09709 5.2192 5.87096 
1 1 4.64372 5.2178 6.51279 
3 1 3.32315 5.20618 8.65079 
4 1 2.15915 5.21832 6.48758 
6 1 3.20329 5.20322 11.2819 
9 1 3.15376 3.96816 11.954 
11 1 3.26165 5.19743 9.88531 
12 1 3.8468 6.41418 11.9999 
14 1 3.39041 5.21639 7.22847 
33 2 4.95405 6.3144 11.9684 
ITEM: TIMESTEP
200
ITEM: NUMBER OF ATOMS
33
ITEM: BOX BOUNDS pp pp pp
1.9886592675665334e-03 7.0950113407324356e+00
1.8838892227994480e-02 7.0781611077720124e+00
3.1479337533448108e-02 2.4556520662466564e+01
ITEM: ATOMS id type x y z 
2 1 3.13972 1.61501 13.2517 
5 1 4.65035 1.60038 18.0922 
7 1 3.3366 1.61661 15.9399 
8 1 2.17578 1.59996 18.1138 
18 1 3.40447 1.60438 17.3844 
21 1 3.13432 2.8883 12.5478 
23 1 3.24637 1.62336 14.7203 
24 1 3.46514 0.425867 12.587 
17 1 7.01497 2.87752 24.2495 
19 1 6.99031 1.6297 22.0921 
20 1 7.01452 0.407898 24.2507 
22 1 6.95505 1.59394 19.43 
25 1 5.71325 1.59753 18.7085 
27 1 6.96902 1.61337 20.864 
28 1 1.10894 1.59707 18.7247 
30 1 7.01549 1.6419 23.5259 
10 1 6.94256 5.21922 5.16476 
13 1 7.0144 3.93619 0.348617 
15 1 6.98405 5.18483 2.50471 
16 1 7.01481 6.40657 0.34684 
26 1 7.01356 5.17236 1.07191 
29 1 5.70166 5.21739 5.8928 
31 1 6.95882 5.20045 3.73318 
32 1 1.09643 5.21842 5.87213 
1 1 4.64333 5.21741 6.51358 
3 1 3.3229 5.20608 8.65135 
4 1 2.15875 5.21756 6.48813 
6 1 3.20294 5.20438 11.2826 
9 1 3.15283 3.96864 11.9542 
11 1 3.26108 5.19787 9.88586 
12 1 3.85203 6.41244 11.9995 
14 1 3.39006 5.21565 7.2289 
33 2 4.95967 6.31261 11.9685 
ITEM: TIMESTEP
210
ITEM: NUMBER OF ATOMS
33
ITEM: BOX BOUNDS pp pp pp
1.1275061438711391e-03 7.0958724938561302e+00
2.0574165822353538e-02 7.0764258341776536e+00
3.1964774935997850e-02 2.4556035225064019e+01
ITEM: ATOMS id type x y z 
2 1 3.139 1.61553 13.2514 
5 1 4.65055 1.60144 18.0915 
7 1 3.33632 1.61747 15.9395 
8 1 2.17545 1.60099 18.1134 
18 1 3.40434 1.60542 17.384 
21 1 3.1337 2.88857 12.5477 
23 1 3.24584 1.62405 14.7199 
24 1 3.46609 0.427133 12.5869 
17 1 7.01573 2.87791 24.2488 
19 1 6.99102 1.63063 22.0911 
20 1 7.01555 0.409541 24.2503 
22 1 6.95582 1.59498 19.4289 
25 1 5.71359 1.59848 18.708 
27 1 6.96968 1.61433 20.8631 
28 1 1.10826 1.59806 18.7241 
30 1 7.01625 1.6428 23.5248 
10 1 6.94326 5.21818 5.16576 
13 1 7.01526 3.93597 0.349258 
15 1 6.98475 5.18401 2.50574 
16 1 7.01549 6.40506 0.347232 
26 1 7.01436 5.1716 1.07298 
29 1 5.70188 5.21692 5.89324 
31 1 6.95941 5.19962 3.73416 
32 1 1.09569 5.21757 5.87284 
1 1 4.64346 5.21631 6.51428 
3 1 3.32271 5.20548 8.65172 
4 1 2.15836 5.2167 6.48862 
6 1 3.20289 5.20416 11.2829 
9 1 3.15239 3.9686 11.9543 
11 1 3.26087 5.19744 9.88619 
12 1 3.8539 6.41088 11.9994 
14 1 3.38988 5.21484 7.22931 
33 2 4.96189 6.311 11.9686 
ITEM: TIMESTEP
220
ITEM: NUMBER OF ATOMS
33
ITEM: BOX BOUNDS pp pp pp
6.0378613673429309e-04 7.0963962138632661e+00
2.1688505114084947e-02 7.0753114948859217e+00
3.1260977595267199e-02 2.4556739022404749e+01
ITEM: ATOMS id type x y z 
2 1 3.13777 1.6153 13.2511 
5 1 4.65063 1.60232 18.0908 
7 1 3.33581 1.61792 15.9393 
8 1 2.17524 1.60172 18.1133 
18 1 3.40412 1.6062 17.3838 
21 1 3.13258 2.8886 12.5475 
23 1 3.24493 1.62416 14.7196 
24 1 3.46797 0.427687 12.5868 
17 1 7.01617 2.87816 24.2491 
19 1 6.99132 1.63121 22.0904 
20 1 7.0161 0.41044 24.2505 
22 1 6.95617 1.5958 19.428 
25 1 5.71346 1.59897 18.7078 
27 1 6.96985 1.61497 20.8624 
28 1 1.10779 1.59877 18.7236 
30 1 7.0167 1.64343 23.5244 
10 1 6.94352 5.21756 5.16678 
13 1 7.0157 3.93583 0.348988 
15 1 6.98497 5.1835 2.50645 
16 1 7.01585 6.40423 0.347028 
26 1 7.01485 5.17107 1.07338 
29 1 5.70139 5.21635 5.89298 
31 1 6.95948 5.199 3.73495 
32 1 1.09508 5.21691 5.87342 
1 1 4.64348 5.21584 6.51495 
3 1 3.32237 5.20533 8.65194 
4 1 2.15805 5.21613 6.48881 
6 1 3.20296 5.20476 11.2834 
9 1 3.15164 3.96887 11.9545 
11 1 3.26058 5.1977 9.88653 
12 1 3.85749 6.4096 11.9991 