ITEM: TIMESTEP
0
ITEM: NUMBER OF ATOMS
203
ITEM: BOX BOUNDS pp pp pp
0.0000000000000000e+00 1.6114000000000001e+01
0.0000000000000000e+00 1.6113000000000000e+01
0.0000000000000000e+00 1.6111999999999998e+01
ITEM: ATOMS id type x y z 
5 1 5.384 5.384 5.384 
65 1 5.66 6.662 2.461 
66 1 5.336 7.323 3.711 
68 1 4.865 6.606 4.866 
79 1 5.364 7.322 1.219 
89 1 6.662 2.461 5.66 
90 1 7.323 3.711 5.336 
92 1 6.606 4.866 4.866 
101 1 7.322 1.219 5.364 
109 1 2.461 5.66 6.662 
110 1 3.71 5.336 7.323 
112 1 4.865 4.866 6.606 
121 1 1.218 5.364 7.322 
129 1 6.662 5.66 2.461 
130 1 7.323 5.336 3.711 
137 1 7.322 5.364 1.219 
141 1 2.461 6.662 5.66 
142 1 3.71 7.323 5.336 
149 1 1.218 7.322 5.364 
153 1 5.66 2.461 6.662 
154 1 5.336 3.711 7.323 
161 1 5.364 1.219 7.322 
7 1 6.662 5.66 13.616 
8 1 7.323 5.336 12.366 
10 1 6.606 4.866 11.211 
21 1 7.322 5.364 14.858 
32 1 1.218 7.322 10.713 
40 1 2.461 6.662 10.417 
41 1 3.71 7.323 10.741 
43 1 4.865 6.606 11.211 
47 1 5.364 1.219 8.755 
55 1 5.66 2.461 9.415 
56 1 5.336 3.711 8.754 
58 1 4.865 4.866 9.471 
64 1 5.629 6.643 16.094 
75 1 5.384 5.384 10.693 
118 1 6.643 5.629 16.094 
168 1 5.66 6.662 13.616 
169 1 5.336 7.323 12.366 
176 1 5.364 7.322 14.858 
182 1 7.322 1.219 10.713 
186 1 6.662 2.461 10.417 
187 1 7.323 3.711 10.741 
191 1 1.218 5.364 8.755 
195 1 2.461 5.66 9.415 
196 1 3.71 5.336 8.754 
203 3 0.028 2.617 8.702 
9 1 7.322 10.713 1.219 
19 1 6.662 10.417 2.461 
20 1 7.323 10.741 3.711 
22 1 6.606 11.211 4.866 
27 1 1.218 8.755 5.364 
35 1 2.461 9.415 5.66 
36 1 3.71 8.754 5.336 
38 1 4.865 9.471 4.866 
44 1 6.643 16.095 5.63 
50 1 5.66 13.616 6.662 
51 1 5.336 12.366 7.323 
53 1 4.865 11.211 6.606 
62 1 5.364 14.858 7.322 
76 1 5.629 16.095 6.643 
81 1 5.384 10.693 5.384 
167 1 5.364 8.755 1.219 
171 1 5.66 9.415 2.461 
172 1 5.336 8.754 3.711 
180 1 6.662 13.616 5.66 
181 1 7.323 12.366 5.336 
188 1 7.322 14.858 5.364 
194 1 1.218 10.713 7.322 
198 1 2.461 10.417 6.662 
199 1 3.71 10.741 7.323 
17 1 5.384 10.693 10.693 
39 1 6.643 16.095 10.448 
49 1 5.629 9.434 16.095 
73 1 5.364 8.755 14.858 
82 1 5.629 16.095 9.434 
83 1 5.66 9.415 13.616 
84 1 5.336 8.754 12.366 
86 1 4.865 9.471 11.211 
91 1 7.322 14.858 10.713 
99 1 6.662 13.616 10.417 
100 1 7.323 12.366 10.741 
102 1 6.606 11.211 11.211 
113 1 6.643 10.448 16.094 
114 1 2.461 10.417 9.415 
115 1 3.71 10.741 8.754 
117 1 4.865 11.211 9.471 
126 1 1.218 10.713 8.755 
131 1 7.322 10.713 14.858 
135 1 6.662 10.417 13.616 
136 1 7.323 10.741 12.366 
144 1 2.461 9.415 10.417 
145 1 3.71 8.754 10.741 
152 1 1.218 8.755 10.713 
158 1 5.364 14.858 8.755 
162 1 5.66 13.616 9.415 
163 1 5.336 12.366 8.754 
3 1 8.755 5.364 1.219 
13 1 9.415 5.66 2.461 
14 1 8.754 5.336 3.711 
16 1 9.471 4.866 4.866 
24 1 16.095 5.629 6.643 
30 1 13.616 6.662 5.66 
31 1 12.367 7.323 5.336 
33 1 11.212 6.606 4.866 
42 1 14.859 7.322 5.364 
52 1 10.713 1.219 7.322 
60 1 10.417 2.461 6.662 
61 1 10.741 3.711 7.323 
63 1 11.212 4.866 6.606 
87 1 10.693 5.384 5.384 
98 1 16.095 6.643 5.63 
170 1 10.713 7.322 1.219 
174 1 10.417 6.662 2.461 
175 1 10.741 7.323 3.711 
179 1 8.755 1.219 5.364 
183 1 9.415 2.461 5.66 
184 1 8.754 3.711 5.336 
192 1 13.616 5.66 6.662 
193 1 12.367 5.336 7.323 
200 1 14.859 5.364 7.322 
6 1 16.096 5.629 9.434 
23 1 10.693 5.384 10.693 
59 1 10.448 6.643 16.095 
67 1 10.713 7.322 14.858 
77 1 10.417 6.662 13.616 
78 1 10.741 7.323 12.366 
80 1 11.212 6.606 11.211 
93 1 16.096 6.643 10.448 
94 1 9.415 2.461 10.417 
95 1 8.754 3.711 10.741 
97 1 9.471 4.866 11.211 
106 1 8.755 1.219 10.713 
116 1 14.859 5.364 8.755 
123 1 9.434 5.629 16.094 
124 1 13.616 5.66 9.415 
125 1 12.367 5.336 8.754 
127 1 11.212 4.866 9.471 
134 1 8.755 5.364 14.858 
138 1 9.415 5.66 13.616 
139 1 8.754 5.336 12.366 
143 1 14.859 7.322 10.713 
147 1 13.616 6.662 10.417 
148 1 12.367 7.323 10.741 
156 1 10.417 2.461 9.415 
157 1 10.741 3.711 8.754 
164 1 10.713 1.219 8.755 
201 2 16.096 4.279 9.434 
202 2 15.356 3.192 8.677 
11 1 10.693 10.693 5.384 
18 1 16.096 10.448 6.643 
29 1 9.434 16.095 5.63 
70 1 10.448 16.095 6.643 
71 1 10.417 9.415 2.461 
72 1 10.741 8.754 3.711 
74 1 11.212 9.471 4.866 
85 1 10.713 8.755 1.219 
96 1 8.755 14.858 5.364 
103 1 16.095 9.434 5.63 
104 1 9.415 13.616 5.66 
105 1 8.754 12.366 5.336 
107 1 9.471 11.211 4.866 
111 1 14.859 10.713 7.322 
119 1 13.616 10.417 6.662 
120 1 12.367 10.741 7.323 
122 1 11.212 11.211 6.606 
132 1 9.415 10.417 2.461 
133 1 8.754 10.741 3.711 
140 1 8.755 10.713 1.219 
146 1 14.859 8.755 5.364 
150 1 13.616 9.415 5.66 
151 1 12.367 8.754 5.336 
155 1 10.713 14.858 7.322 
159 1 10.417 13.616 6.662 
160 1 10.741 12.366 7.323 
1 1 9.415 10.417 13.616 
2 1 8.754 10.741 12.366 
4 1 9.471 11.211 11.211 
12 1 16.096 10.448 9.434 
15 1 8.755 10.713 14.858 
25 1 13.616 9.415 10.417 
26 1 12.367 8.754 10.741 
28 1 11.212 9.471 11.211 
34 1 9.434 16.095 10.448 
37 1 14.859 8.755 10.713 
45 1 10.417 13.616 9.415 
46 1 10.741 12.366 8.754 
48 1 11.212 11.211 9.471 
54 1 10.448 9.434 16.094 
57 1 10.713 14.858 8.755 
69 1 10.693 10.693 10.693 
88 1 10.448 16.095 9.434 
108 1 16.096 9.434 10.448 
128 1 9.434 10.448 16.094 
165 1 10.417 9.415 13.616 
166 1 10.741 8.754 12.366 
173 1 10.713 8.755 14.858 
177 1 9.415 13.616 10.417 
178 1 8.754 12.366 10.741 
185 1 8.755 14.858 10.713 
189 1 13.616 10.417 9.415 
190 1 12.367 10.741 8.754 
197 1 14.859 10.713 8.755 
ITEM: TIMESTEP
10
ITEM: NUMBER OF ATOMS
203
ITEM: BOX BOUNDS pp pp pp
0.0000000000000000e+00 1.6114000000000001e+01
0.0000000000000000e+00 1.6113000000000000e+01
0.0000000000000000e+00 1.6111999999999998e+01
ITEM: ATOMS id type x y z 
5 1 5.34789 5.34571 5.34122 
65 1 5.58678 6.60055 2.42095 
66 1 5.37712 7.33015 3.69279 
68 1 4.87197 6.61918 4.87363 
79 1 5.24908 7.31318 1.20104 
89 1 6.59876 2.41966 5.58956 
90 1 7.32841 3.69351 5.37755 
92 1 6.61864 4.87191 4.87453 
101 1 7.3142 1.19912 5.25076 
109 1 2.44431 5.59026 6.57804 
110 1 3.70488 5.37621 7.32301 
112 1 4.87753 4.87069 6.61973 
121 1 1.21054 5.26139 7.2969 
129 1 6.59893 5.58715 2.42065 
130 1 7.32717 5.37794 3.69415 
137 1 7.31222 5.24909 1.20044 
141 1 2.42158 6.60826 5.57899 
142 1 3.69589 7.33256 5.3776 
149 1 1.20218 7.32044 5.25116 
153 1 5.58909 2.41878 6.60069 
154 1 5.37539 3.69324 7.32429 
161 1 5.25067 1.20137 7.30982 
7 1 6.60088 5.58813 13.6532 
8 1 7.3276 5.37556 12.3801 
10 1 6.61697 4.87234 11.2019 
21 1 7.31253 5.25005 14.8741 
32 1 1.16133 7.30373 10.8068 
40 1 2.41584 6.60976 10.5109 
41 1 3.69476 7.33208 10.7053 
43 1 4.87386 6.61386 11.2029 
47 1 5.2505 1.2023 8.76662 
55 1 5.58903 2.42 9.47745 
56 1 5.37762 3.69131 8.75463 
58 1 4.87754 4.86961 9.45998 
64 1 5.54396 6.57175 16.0942 
75 1 5.35119 5.34411 10.7345 
118 1 6.5722 5.54364 16.0935 
168 1 5.5882 6.60002 13.6545 
169 1 5.37239 7.32424 12.3813 
176 1 5.24955 7.31204 14.8748 
182 1 7.31421 1.19911 10.8269 
186 1 6.59873 2.42139 10.4878 
187 1 7.32893 3.69668 10.7016 
191 1 1.26305 5.34804 8.71428 
195 1 2.43461 5.58655 9.48773 
196 1 3.70999 5.37687 8.75066 
203 3 0.0120545 2.63054 8.72159 
9 1 7.31323 10.8274 1.19957 
19 1 6.60093 10.4899 2.42153 
20 1 7.32547 10.7026 3.69696 
22 1 6.61635 11.2022 4.87484 
27 1 1.2005 8.76144 5.25256 
35 1 2.41964 9.47438 5.5891 
36 1 3.692 8.75144 5.37427 
38 1 4.87234 9.45974 4.87541 
44 1 6.57218 16.0963 5.54641 
50 1 5.58698 13.6534 6.60217 
51 1 5.37543 12.3815 7.32637 
53 1 4.87335 11.2032 6.61672 
62 1 5.25011 14.8782 7.31245 
76 1 5.54589 16.0946 6.57195 
81 1 5.34503 10.7302 5.34834 
167 1 5.24955 8.76437 1.19962 
171 1 5.58677 9.47564 2.42441 
172 1 5.3749 8.75199 3.69588 
180 1 6.60086 13.6555 5.58751 
181 1 7.32561 12.3801 5.3743 
188 1 7.31296 14.878 5.25003 
194 1 1.19972 10.8243 7.31272 
198 1 2.41926 10.4885 6.60256 
199 1 3.69207 10.7009 7.32774 
17 1 5.34572 10.7336 10.7298 
39 1 6.5714 16.0962 10.5309 
49 1 5.54562 9.5065 16.0958 
73 1 5.24892 8.76446 14.8777 
82 1 5.54591 16.0936 9.50525 
83 1 5.58767 9.47678 13.6554 
84 1 5.37693 8.75051 12.3838 
86 1 4.86897 9.4541 11.2014 
91 1 7.31286 14.8778 10.8274 
99 1 6.60041 13.6562 10.4896 
100 1 7.32656 12.3827 10.7012 
102 1 6.61839 11.2031 11.2025 
113 1 6.57162 10.5319 16.0939 
114 1 2.41949 10.4865 9.47753 
115 1 3.69007 10.6994 8.74929 
117 1 4.87214 11.2044 9.45764 
126 1 1.19798 10.8241 8.76254 
131 1 7.31407 10.8273 14.8776 
135 1 6.60053 10.49 13.6562 
136 1 7.32721 10.7014 12.3812 
144 1 2.41487 9.46843 10.4882 
145 1 3.68794 8.75704 10.7016 
152 1 1.19557 8.76068 10.8233 
158 1 5.25008 14.8786 8.76436 
162 1 5.58681 13.6545 9.4754 
163 1 5.37685 12.3838 8.74709 
3 1 8.76468 5.24907 1.2004 
13 1 9.47801 5.58688 2.42048 
14 1 8.74938 5.37789 3.69388 
16 1 9.45858 4.87214 4.87465 
24 1 16.0916 5.53671 6.54149 
30 1 13.6553 6.60674 5.5803 
31 1 12.3817 7.33241 5.37818 
33 1 11.2053 6.61945 4.87383 
42 1 14.8745 7.32066 5.25106 
52 1 10.8263 1.20138 7.30985 
60 1 10.488 2.41902 6.60087 
61 1 10.7016 3.69321 7.32442 
63 1 11.1989 4.87019 6.61977 
87 1 10.7295 5.34566 5.34123 
98 1 16.0954 6.5765 5.53462 
170 1 10.8279 7.31313 1.20097 
174 1 10.4902 6.6004 2.42078 
175 1 10.6993 7.33011 3.69254 
179 1 8.76279 1.1991 5.25076 
183 1 9.47828 2.41958 5.58955 
184 1 8.74818 3.69332 5.37751 
192 1 13.6368 5.59014 6.5799 
193 1 12.3737 5.37654 7.32465 
200 1 14.8657 5.26334 7.28321 
6 1 16.1058 5.45534 9.52333 
23 1 10.7257 5.34427 10.7343 
59 1 10.533 6.57175 16.0943 
67 1 10.8275 7.31199 14.8749 
77 1 10.4888 6.59991 13.6548 
78 1 10.7046 7.32396 12.3811 
80 1 11.2033 6.61377 11.2029 
93 1 16.0964 6.54063 10.519 
94 1 9.47841 2.42135 10.4877 
95 1 8.74824 3.69678 10.7015 
97 1 9.45997 4.87228 11.2019 
106 1 8.76279 1.19916 10.8269 
116 1 14.8189 5.34317 8.7136 
123 1 9.50479 5.54365 16.0936 
124 1 13.6285 5.58944 9.4952 
125 1 12.3688 5.37646 8.75226 
127 1 11.2017 4.87082 9.45953 
134 1 8.76456 5.25007 14.8742 
138 1 9.47621 5.58831 13.6533 
139 1 8.74952 5.37557 12.3798 
143 1 14.9157 7.30282 10.8063 
147 1 13.6609 6.60822 10.5094 
148 1 12.3828 7.3311 10.705 
156 1 10.4879 2.42016 9.47736 
157 1 10.6994 3.69083 8.75413 
164 1 10.8264 1.20242 8.76674 
201 2 16.1115 4.25301 9.65503 
202 2 15.3497 3.13906 8.64953 
11 1 10.7319 10.7303 5.34822 
18 1 16.0956 10.5316 6.57614 
29 1 9.50482 16.0963 5.54642 
70 1 10.5311 16.0944 6.572 
71 1 10.4904 9.47575 2.4243 
72 1 10.7021 8.75205 3.69571 
74 1 11.2047 9.46001 4.87559 
85 1 10.8276 8.76453 1.19937 
96 1 8.76409 14.878 5.25005 
103 1 16.0953 9.50198 5.5468 
104 1 9.47611 13.6555 5.58758 
105 1 8.75139 12.3803 5.37442 
107 1 9.46038 11.2025 4.87484 
111 1 14.8774 10.8242 7.31263 
119 1 13.6573 10.4881 6.60254 
120 1 12.385 10.7013 7.32742 
122 1 11.2039 11.2033 6.61724 
132 1 9.47602 10.4899 2.42147 
133 1 8.75159 10.7026 3.69716 
140 1 8.76386 10.8273 1.19942 
146 1 14.8761 8.76186 5.25267 
150 1 13.6574 9.47431 5.58922 
151 1 12.3853 8.75123 5.37433 
155 1 10.8268 14.8781 7.31254 
159 1 10.49 13.6533 6.60229 
160 1 10.7018 12.3815 7.32663 
1 1 9.47642 10.4901 13.6561 
2 1 8.75013 10.7016 12.381 
4 1 9.45884 11.203 11.2026 
12 1 16.0958 10.5296 9.50428 
15 1 8.76296 10.8272 14.8774 
25 1 13.6618 9.46837 10.4885 
26 1 12.3889 8.7572 10.7013 
28 1 11.2079 9.45411 11.2016 
34 1 9.50563 16.0961 10.5309 
37 1 14.8821 8.76028 10.8239 
45 1 10.49 13.6544 9.47536 
46 1 10.7006 12.3836 8.7472 
48 1 11.2046 11.2044 9.4579 
54 1 10.5313 9.5065 16.0954 
57 1 10.8268 14.8784 8.76435 
69 1 10.7308 10.7343 10.7295 
88 1 10.5311 16.0936 9.50514 
108 1 16.0961 9.50263 10.5283 
128 1 9.5054 10.5318 16.0939 
165 1 10.4892 9.47684 13.6554 
166 1 10.6998 8.75059 12.3841 
173 1 10.8279 8.76432 14.8777 
177 1 9.47677 13.6562 10.4894 
178 1 8.75062 12.3825 10.7013 
185 1 8.76427 14.8776 10.8273 
189 1 13.6576 10.4869 9.477 
190 1 12.3864 10.6998 8.74913 
197 1 14.8795 10.8241 8.76242 
ITEM: TIMESTEP
20
ITEM: NUMBER OF ATOMS
203
ITEM: BOX BOUNDS pp pp pp
0.0000000000000000e+00 1.6114000000000001e+01
0.0000000000000000e+00 1.6113000000000000e+01
0.0000000000000000e+00 1.6111999999999998e+01
ITEM: ATOMS id type x y z 
5 1 5.35324 5.35305 5.35064 
65 1 5.58739 6.60365 2.42166 
66 1 5.36939 7.32868 3.69198 
68 1 4.87072 6.61567 4.86977 
79 1 5.24338 7.31162 1.19923 
89 1 6.60257 2.42024 5.58936 
90 1 7.32671 3.69153 5.37069 
92 1 6.61638 4.86864 4.86994 
101 1 7.31232 1.19787 5.24481 
109 1 2.44637 5.58916 6.57815 
110 1 3.6989 5.37049 7.32518 
112 1 4.87516 4.86897 6.61406 
121 1 1.207 5.27198 7.27823 
129 1 6.60181 5.58781 2.42132 
130 1 7.32614 5.37092 3.69232 
137 1 7.31117 5.24328 1.19861 
141 1 2.4221 6.61055 5.57916 
142 1 3.69529 7.33152 5.36889 
149 1 1.19959 7.3174 5.24476 
153 1 5.58878 2.42069 6.60429 
154 1 5.36928 3.68986 7.32648 
161 1 5.24468 1.19854 7.31111 
7 1 6.60365 5.58879 13.6533 
8 1 7.32698 5.36892 12.3829 
10 1 6.61606 4.8685 11.2064 
21 1 7.31163 5.24431 14.8762 
32 1 1.16117 7.29206 10.8047 
40 1 2.41374 6.60944 10.5063 
41 1 3.68646 7.32787 10.7133 
43 1 4.86845 6.61268 11.2064 
47 1 5.24483 1.19919 8.76635 
55 1 5.58935 2.42019 9.47433 
56 1 5.37148 3.68804 8.75072 
58 1 4.877 4.86666 9.46457 
64 1 5.54026 6.56872 16.094 
75 1 5.35513 5.35248 10.7259 
118 1 6.56898 5.54006 16.0933 
168 1 5.58833 6.6027 13.6548 
169 1 5.36696 7.32542 12.3836 
176 1 5.2439 7.31091 14.8769 
182 1 7.31252 1.19835 10.8323 
186 1 6.60334 2.42117 10.4882 
187 1 7.32755 3.6923 10.7079 
191 1 1.25234 5.35144 8.70934 
195 1 2.44793 5.60593 9.48378 
196 1 3.70622 5.37346 8.75002 
203 3 0.00872465 2.62602 8.72468 
9 1 7.31171 10.8329 1.19974 
19 1 6.60371 10.4886 2.42256 
20 1 7.32636 10.7089 3.69348 
22 1 6.61465 11.2066 4.87075 
27 1 1.19869 8.76448 5.24748 
35 1 2.41919 9.47287 5.59069 
36 1 3.69027 8.75388 5.36815 
38 1 4.86918 9.46231 4.8709 
44 1 6.56938 16.095 5.54198 
50 1 5.58918 13.655 6.60334 
51 1 5.36905 12.3841 7.32518 
53 1 4.86754 11.2063 6.61586 
62 1 5.24481 14.8782 7.31113 
76 1 5.54151 16.0946 6.56932 
81 1 5.35307 10.7231 5.35468 
167 1 5.24405 8.76606 1.19991 
171 1 5.58844 9.47389 2.42355 
172 1 5.3683 8.75233 3.69387 
180 1 6.60405 13.655 5.58893 
181 1 7.32625 12.3841 5.36805 
188 1 7.31185 14.878 5.24504 
194 1 1.19732 10.8298 7.31107 
198 1 2.41965 10.487 6.60472 
199 1 3.6905 10.7076 7.32713 
17 1 5.35138 10.7249 10.7229 
39 1 6.56915 16.0959 10.5354 
49 1 5.54039 9.50855 16.0953 
73 1 5.24346 8.76561 14.8782 
82 1 5.54154 16.0947 9.50777 
83 1 5.58805 9.47348 13.6548 
84 1 5.36951 8.75056 12.3853 
86 1 4.86741 9.45926 11.2057 
91 1 7.31144 14.8789 10.8326 
99 1 6.60288 13.6565 10.4884 
100 1 7.32585 12.3859 10.7073 
102 1 6.61576 11.2068 11.2058 
113 1 6.56871 10.5366 16.0948 
114 1 2.41914 10.4853 9.47444 
115 1 3.68891 10.7071 8.75054 
117 1 4.86733 11.2074 9.45941 
126 1 1.19706 10.8302 8.7636 
131 1 7.31177 10.8335 14.8781 
135 1 6.60271 10.489 13.6555 
136 1 7.32621 10.7076 12.384 
144 1 2.41183 9.46603 10.4885 
145 1 3.68688 8.75417 10.7083 
152 1 1.19209 8.75216 10.8262 
158 1 5.24452 14.8788 8.76528 
162 1 5.58832 13.6556 9.47324 
163 1 5.36941 12.385 8.74927 
3 1 8.76566 5.2432 1.1986 
13 1 9.4751 5.58757 2.42133 
14 1 8.75063 5.37084 3.69209 
16 1 9.46092 4.86894 4.87009 
24 1 16.0935 5.53028 6.54082 
30 1 13.655 6.60937 5.57974 
31 1 12.3813 7.33174 5.36914 
33 1 11.2066 6.61579 4.87015 
42 1 14.8777 7.31813 5.24461 
52 1 10.8322 1.19841 7.31086 
60 1 10.4883 2.42045 6.60438 
61 1 10.7076 3.68986 7.32667 
63 1 11.1998 4.86827 6.61281 
87 1 10.7241 5.35299 5.35071 
98 1 16.0952 6.5695 5.53304 
170 1 10.8336 7.31164 1.19925 
174 1 10.4895 6.60345 2.42144 
175 1 10.7072 7.32878 3.69193 
179 1 8.76469 1.19791 5.24481 
183 1 9.47432 2.42025 5.58925 
184 1 8.75008 3.69133 5.37065 
192 1 13.6349 5.58925 6.57956 
193 1 12.3794 5.37109 7.32873 
200 1 14.8692 5.27317 7.27914 
6 1 16.0972 5.43145 9.51297 
23 1 10.7218 5.35284 10.7262 
59 1 10.5368 6.56868 16.0941 
67 1 10.8332 7.31079 14.877 
77 1 10.4888 6.6027 13.6548 
78 1 10.7101 7.32523 12.3836 
80 1 11.2084 6.61247 11.2066 
93 1 16.0962 6.52925 10.5176 
94 1 9.47383 2.42103 10.4881 
95 1 8.74937 3.69245 10.7079 
97 1 9.461 4.86848 11.2062 
106 1 8.7645 1.19818 10.8323 
116 1 14.8289 5.34742 8.71095 
123 1 9.50799 5.54003 16.0934 
124 1 13.6267 5.60581 9.48393 
125 1 12.3717 5.37225 8.75228 
127 1 11.2036 4.86806 9.46299 
134 1 8.76538 5.24431 14.8762 
138 1 9.47342 5.58889 13.6535 
139 1 8.7499 5.369 12.3828 
143 1 14.9152 7.29127 10.8038 
147 1 13.6636 6.60974 10.5054 
148 1 12.3921 7.32731 10.7125 
156 1 10.4877 2.42072 9.47429 
157 1 10.7057 3.68766 8.75062 
164 1 10.8322 1.19924 8.76617 
201 2 16.1133 4.26589 9.7413 
202 2 15.3476 3.12805 8.64159 
11 1 10.7239 10.7233 5.35474 
18 1 16.0956 10.5343 6.57217 
29 1 9.50758 16.0949 5.54195 
70 1 10.5355 16.0948 6.56948 
71 1 10.4887 9.47395 2.42357 
72 1 10.7087 8.75251 3.69375 
74 1 11.2079 9.46237 4.87089 
85 1 10.8331 8.76614 1.19976 
96 1 8.76527 14.878 5.24509 
103 1 16.0952 9.50637 5.54405 
104 1 9.47295 13.6551 5.58903 
105 1 8.75064 12.3842 5.36816 
107 1 9.46227 11.2067 4.87084 
111 1 14.8798 10.8297 7.31124 
119 1 13.6573 10.487 6.60493 
120 1 12.3864 10.708 7.32717 
122 1 11.2094 11.2063 6.61595 
132 1 9.47328 10.4885 2.42255 
133 1 8.75067 10.7089 3.69354 
140 1 8.76532 10.8329 1.1997 
146 1 14.8783 8.7645 5.24753 
150 1 13.658 9.47272 5.59057 
151 1 12.3866 8.75345 5.36819 
155 1 10.8321 14.8781 7.31128 
159 1 10.4878 13.6549 6.60344 
160 1 10.7082 12.3841 7.32522 
1 1 9.47431 10.4891 13.6554 
2 1 8.75084 10.7076 12.384 
4 1 9.4612 11.2068 11.2059 
12 1 16.0955 10.5356 9.50534 
15 1 8.76513 10.8335 14.8781 
25 1 13.6651 9.46541 10.4886 
26 1 12.3904 8.75434 10.7082 
28 1 11.2101 9.45884 11.2057 
34 1 9.50791 16.096 10.5353 
37 1 14.8848 8.75214 10.8262 
45 1 10.4886 13.6557 9.47318 
46 1 10.7079 12.385 8.74926 
48 1 11.2096 11.2074 9.45939 
54 1 10.5366 9.50861 16.0951 
57 1 10.8323 14.8789 8.76531 
69 1 10.7257 10.7248 10.723 
88 1 10.5353 16.0943 9.50784 
108 1 16.0955 9.50464 10.5346 
128 1 9.5083 10.5366 16.0947 
165 1 10.4889 9.47352 13.6548 
166 1 10.7074 8.75053 12.3852 
173 1 10.8335 8.76553 14.8781 
177 1 9.4742 13.6565 10.4883 
178 1 8.75112 12.3859 10.7073 
185 1 8.76563 14.8789 10.8326 
189 1 13.6581 10.4851 9.47449 
190 1 12.388 10.7074 8.75038 
197 1 14.8802 10.8301 8.76354 
ITEM: TIMESTEP
30
ITEM: NUMBER OF ATOMS
203
ITEM: BOX BOUNDS pp pp pp
0.0000000000000000e+00 1.6114000000000001e+01
0.0000000000000000e+00 1.6113000000000000e+01
0.0000000000000000e+00 1.6111999999999998e+01
ITEM: ATOMS id type x y z 
5 1 5.38015 5.37798 5.37761 
65 1 5.59452 6.60997 2.42033 
66 1 5.33865 7.32983 3.68483 
68 1 4.86519 6.59981 4.86402 
79 1 5.22317 7.30836 1.19578 
89 1 6.61101 2.41976 5.5949 
90 1 7.32798 3.68436 5.33941 
92 1 6.6008 4.86061 4.86063 
101 1 7.30753 1.19522 5.22428 
109 1 2.45256 5.60647 6.56924 
110 1 3.68738 5.3397 7.32623 
112 1 4.86622 4.86178 6.59872 
121 1 1.20741 5.30389 7.26543 
129 1 6.60966 5.59457 2.4201 
130 1 7.3281 5.33926 3.6852 
137 1 7.30786 5.22306 1.19582 
141 1 2.41799 6.6226 5.57589 
142 1 3.68823 7.3357 5.33298 
149 1 1.18997 7.31408 5.22904 
153 1 5.59507 2.41738 6.60935 
154 1 5.339 3.6848 7.32891 
161 1 5.22377 1.19391 7.30968 
7 1 6.60961 5.59477 13.6564 
8 1 7.32828 5.33812 12.3906 
10 1 6.60029 4.86148 11.2144 
21 1 7.30796 5.22324 14.8809 
32 1 1.14587 7.267 10.7976 
40 1 2.40851 6.60801 10.4858 
41 1 3.66607 7.32327 10.7509 
43 1 4.85493 6.60026 11.2159 
47 1 5.22375 1.19324 8.76749 
55 1 5.59632 2.41697 9.46734 
56 1 5.34118 3.68296 8.74676 
58 1 4.87102 4.86169 9.47698 
64 1 5.5227 6.55577 16.0951 
75 1 5.37859 5.3819 10.7037 
118 1 6.55577 5.52268 16.0945 
168 1 5.59291 6.60972 13.6552 
169 1 5.33901 7.32848 12.3899 
176 1 5.22262 7.30804 14.8816 
182 1 7.3077 1.1953 10.8533 
186 1 6.61071 2.41868 10.4826 
187 1 7.32762 3.68362 10.7385 
191 1 1.2184 5.357 8.69334 
195 1 2.43676 5.65851 9.42604 
196 1 3.70493 5.35458 8.74563 
203 3 -0.000318809 2.59897 8.73031 
9 1 7.30821 10.8538 1.19603 
19 1 6.60916 10.4824 2.42011 
20 1 7.32828 10.7381 3.6861 
22 1 6.60057 11.215 4.86286 
27 1 1.19005 8.76218 5.23202 
35 1 2.41295 9.46354 5.59876 
36 1 3.68096 8.75504 5.33846 
38 1 4.86147 9.47788 4.86174 
44 1 6.55633 16.0943 5.52343 
50 1 5.59478 13.6579 6.60952 
51 1 5.33878 12.3911 7.32753 
53 1 4.85785 11.2151 6.60309 
62 1 5.22405 14.8816 7.30829 
76 1 5.52332 16.0951 6.55655 
81 1 5.37739 10.6992 5.38004 
167 1 5.22322 8.76862 1.19673 
171 1 5.59401 9.46715 2.42107 
172 1 5.33806 8.74865 3.68659 
180 1 6.60985 13.6583 5.59489 
181 1 7.32819 12.3918 5.33872 
188 1 7.30849 14.8823 5.22433 
194 1 1.19384 10.8493 7.30784 
198 1 2.41689 10.4772 6.60868 
199 1 3.68152 10.7366 7.32945 
17 1 5.37406 10.6963 10.6992 
39 1 6.55592 16.095 10.5535 
49 1 5.52225 9.5211 16.095 
73 1 5.22271 8.76872 14.8815 
82 1 5.52324 16.0949 9.52085 
83 1 5.59259 9.46655 13.6555 
84 1 5.33633 8.74769 12.3877 
86 1 4.85296 9.47286 11.2128 
91 1 7.30863 14.8832 10.8534 
99 1 6.60875 13.6591 10.4826 
100 1 7.32806 12.3922 10.7361 
102 1 6.60078 11.2155 11.2137 
113 1 6.55552 10.5546 16.0955 
114 1 2.41504 10.4705 9.47275 
115 1 3.67712 10.737 8.75165 
117 1 4.85695 11.2148 9.47365 
126 1 1.19444 10.8496 8.77123 
131 1 7.30745 10.8547 14.8821 
135 1 6.60836 10.4834 13.6573 
136 1 7.32763 10.7363 12.3907 
144 1 2.39843 9.4467 10.4832 
145 1 3.67403 8.74596 10.7436 
152 1 1.18034 8.73127 10.8316 
158 1 5.22357 14.8821 8.76784 
162 1 5.59399 13.6582 9.46661 
163 1 5.33783 12.3915 8.74836 
3 1 8.76901 5.22294 1.19584 
13 1 9.4675 5.59447 2.41957 
14 1 8.74834 5.33938 3.68529 
16 1 9.47586 4.86069 4.8604 
24 1 16.0945 5.52514 6.5151 
30 1 13.6592 6.62403 5.57615 
31 1 12.3896 7.33376 5.33303 
33 1 11.2122 6.60083 4.86342 
42 1 14.885 7.31286 5.22924 
52 1 10.8535 1.19443 7.3099 
60 1 10.4819 2.41882 6.60979 
61 1 10.7361 3.67972 7.3306 
63 1 11.2098 4.86221 6.59844 
87 1 10.6957 5.37967 5.37348 
98 1 16.0952 6.55803 5.50728 
170 1 10.8538 7.3083 1.19564 
174 1 10.4823 6.60967 2.41987 
175 1 10.7386 7.32937 3.68593 
179 1 8.7692 1.19462 5.22412 
183 1 9.46698 2.41918 5.59531 
184 1 8.74835 3.68516 5.33938 
192 1 13.6275 5.60743 6.57027 
193 1 12.3924 5.34058 7.32696 
200 1 14.8729 5.3031 7.27785 
6 1 16.0971 5.32769 9.53301 
23 1 10.6992 5.38068 10.702 
59 1 10.5543 6.55574 16.0952 
67 1 10.8544 7.30798 14.8814 
77 1 10.4844 6.60989 13.6549 
78 1 10.738 7.3285 12.3905 
80 1 11.2233 6.60088 11.2155 
93 1 16.095 6.4942 10.4847 
94 1 9.46573 2.41879 10.4831 
95 1 8.74957 3.68357 10.7386 
97 1 9.47625 4.86158 11.2146 
106 1 8.76932 1.19556 10.8533 
116 1 14.8565 5.35513 8.69713 
123 1 9.52114 5.52266 16.0943 
124 1 13.6526 5.65106 9.42302 
125 1 12.3722 5.35355 8.74745 
127 1 11.2045 4.86022 9.47811 
134 1 8.76908 5.22329 14.8811 
138 1 9.46739 5.59474 13.6563 
139 1 8.74883 5.33798 12.3903 
143 1 14.9358 7.26861 10.7974 
147 1 13.6701 6.60832 10.4863 
148 1 12.4076 7.32572 10.7515 
156 1 10.4812 2.41597 9.46773 
157 1 10.7367 3.68522 8.74737 
164 1 10.8532 1.19286 8.76814 
201 2 16.1241 4.34344 10.0961 
202 2 15.3374 3.08982 8.60894 
11 1 10.6997 10.6989 5.37985 
18 1 16.0959 10.5469 6.55169 
29 1 9.52078 16.0945 5.52349 
70 1 10.5534 16.0942 6.55597 
71 1 10.4831 9.46734 2.42089 
72 1 10.7388 8.74931 3.68686 
74 1 11.2154 9.47783 4.86156 
85 1 10.8539 8.76859 1.19671 
96 1 8.76832 14.8823 5.22427 
103 1 16.0958 9.51227 5.52777 
104 1 9.4671 13.6582 5.59494 
105 1 8.74866 12.3917 5.33874 
107 1 9.47641 11.2149 4.86279 
111 1 14.8838 10.8496 7.30796 
119 1 13.6599 10.4777 6.60875 
120 1 12.3952 10.7368 7.32964 
122 1 11.2189 11.2151 6.60295 
132 1 9.4679 10.4825 2.42002 
133 1 8.74872 10.7383 3.68625 
140 1 8.76879 10.8538 1.19597 
146 1 14.8872 8.76228 5.23161 
150 1 13.664 9.46362 5.59805 
151 1 12.3956 8.75487 5.33875 
155 1 10.8529 14.8817 7.3081 
159 1 10.4822 13.6579 6.60952 
160 1 10.7382 12.3912 7.32767 
1 1 9.46846 10.4836 13.6572 
2 1 8.74952 10.7364 12.3908 
4 1 9.4762 11.2155 11.2136 
12 1 16.0957 10.5493 9.52317 
15 1 8.76951 10.8548 14.8821 
25 1 13.6781 9.44699 10.4829 
26 1 12.4032 8.74452 10.7434 
28 1 11.2242 9.47271 11.2124 
34 1 9.52087 16.095 10.5538 
37 1 14.8973 8.72969 10.8316 
45 1 10.4831 13.6581 9.46667 
46 1 10.7393 12.3915 8.74846 
48 1 11.2196 11.2148 9.47409 
54 1 10.5548 9.52108 16.0949 
57 1 10.8535 14.8819 8.76776 
69 1 10.703 10.6965 10.6991 
88 1 10.554 16.0957 9.52054 
108 1 16.096 9.50367 10.5494 
128 1 9.52143 10.5546 16.0956 
165 1 10.4843 9.46661 13.6557 
166 1 10.7404 8.74722 12.388 
173 1 10.8543 8.76877 14.8816 
177 1 9.46809 13.659 10.4827 
178 1 8.74917 12.3921 10.7362 
185 1 8.76837 14.8832 10.8534 
189 1 13.6622 10.4706 9.47263 
190 1 12.4003 10.7369 8.75206 
197 1 14.8823 10.8495 8.77169 
ITEM: TIMESTEP
40
ITEM: NUMBER OF ATOMS
203
ITEM: BOX BOUNDS pp pp pp
0.0000000000000000e+00 1.6114000000000001e+01
0.0000000000000000e+00 1.6113000000000000e+01
0.0000000000000000e+00 1.6111999999999998e+01
ITEM: ATOMS id type x y z 
5 1 5.3771 5.37543 5.37491 
65 1 5.59487 6.61029 2.41424 
66 1 5.33482 7.32865 3.67981 
68 1 4.86578 6.60626 4.86239 
79 1 5.22279 7.30952 1.19146 
89 1 6.61014 2.41386 5.59571 
90 1 7.32784 3.67959 5.3337 
92 1 6.60624 4.86017 4.86067 
101 1 7.30959 1.19088 5.22323 
109 1 2.44465 5.61328 6.5749 
110 1 3.685 5.3368 7.32088 
112 1 4.86857 4.85843 6.60282 
121 1 1.20073 5.30513 7.27359 
129 1 6.60969 5.59509 2.41382 
130 1 7.32768 5.33381 3.67944 
137 1 7.30941 5.22259 1.19129 
141 1 2.41613 6.62152 5.57177 
142 1 3.68617 7.33653 5.32661 
149 1 1.18794 7.31608 5.22196 
153 1 5.59522 2.41304 6.6103 
154 1 5.3354 3.67778 7.32862 
161 1 5.22281 1.1906 7.30918 
7 1 6.60973 5.59588 13.6619 
8 1 7.32751 5.33254 12.3964 
10 1 6.60436 4.86181 11.2149 
21 1 7.30934 5.22344 14.8846 
32 1 1.15021 7.27104 10.7952 
40 1 2.40856 6.60691 10.4763 
41 1 3.66388 7.3222 10.7604 
43 1 4.85436 6.60381 11.2172 
47 1 5.22306 1.19105 8.76805 
55 1 5.59607 2.41408 9.46567 
56 1 5.33432 3.68009 8.75018 
58 1 4.86687 4.86466 9.47109 
64 1 5.5213 6.55358 16.0941 
75 1 5.37445 5.37839 10.7036 
118 1 6.55338 5.52143 16.0939 
168 1 5.59424 6.61083 13.6609 
169 1 5.33284 7.32821 12.3949 
176 1 5.22293 7.30938 14.8844 
182 1 7.30947 1.19089 10.8545 
186 1 6.60998 2.41417 10.4817 
187 1 7.32779 3.68054 10.7444 
191 1 1.20396 5.34152 8.6971 
195 1 2.42106 5.65453 9.41625 
196 1 3.69935 5.35177 8.74242 
203 3 -0.0021716 2.59389 8.73307 
9 1 7.30921 10.8539 1.1923 
19 1 6.61016 10.482 2.41552 
20 1 7.3276 10.7439 3.68133 
22 1 6.60464 11.2148 4.86299 
27 1 1.18811 8.76499 5.23105 
35 1 2.40852 9.46451 5.60086 
36 1 3.67638 8.75756 5.33213 
38 1 4.86176 9.47538 4.86207 
44 1 6.55332 16.0947 5.52164 
50 1 5.59526 13.6612 6.61048 
51 1 5.33224 12.396 7.32839 
53 1 4.85643 11.2145 6.60802 
62 1 5.22326 14.885 7.30904 
76 1 5.52144 16.0944 6.55349 
81 1 5.37489 10.7031 5.37847 
167 1 5.22294 8.76798 1.19214 
171 1 5.59472 9.46709 2.4156 
172 1 5.33254 8.75045 3.68153 
180 1 6.61019 13.6623 5.59554 
181 1 7.32762 12.3968 5.33306 
188 1 7.30942 14.8853 5.22342 
194 1 1.18957 10.8483 7.31084 
198 1 2.41149 10.4771 6.61238 
199 1 3.67565 10.7427 7.33088 
17 1 5.37261 10.6988 10.7003 
39 1 6.55335 16.0948 10.5557 
49 1 5.52127 9.52322 16.0942 
73 1 5.22331 8.76808 14.8839 
82 1 5.52112 16.0941 9.52351 
83 1 5.5945 9.46629 13.6596 
84 1 5.33008 8.75032 12.3931 
86 1 4.8515 9.47009 11.2119 
91 1 7.30914 14.8849 10.8538 
99 1 6.6103 13.6617 10.4816 
100 1 7.32694 12.3951 10.743 
102 1 6.60326 11.2142 11.2136 
113 1 6.55349 10.5557 16.0943 
114 1 2.40978 10.4684 9.47138 
115 1 3.672 10.7424 8.75302 
117 1 4.85591 11.214 9.47159 
126 1 1.19069 10.8476 8.76887 
131 1 7.3092 10.8537 14.8842 
135 1 6.60988 10.4815 13.6608 
136 1 7.32698 10.7432 12.3943 
144 1 2.39575 9.44508 10.4793 
145 1 3.66755 8.74557 10.7528 
152 1 1.17761 8.73364 10.8312 
158 1 5.2231 14.8848 8.76763 
162 1 5.59509 13.6611 9.46645 
163 1 5.33072 12.3948 8.75001 
3 1 8.76753 5.22248 1.1911 
13 1 9.46711 5.59491 2.4139 
14 1 8.74909 5.33389 3.67922 
16 1 9.47099 4.86065 4.86043 
24 1 16.0941 5.52868 6.51367 
30 1 13.6612 6.62118 5.57362 
31 1 12.3916 7.33613 5.32688 
33 1 11.2113 6.60602 4.86229 
42 1 14.8879 7.31629 5.22207 
52 1 10.8541 1.19018 7.3092 
60 1 10.4817 2.41197 6.60986 
61 1 10.7429 3.68139 7.32691 
63 1 11.2104 4.85836 6.60479 
87 1 10.7008 5.37471 5.37695 
98 1 16.0948 6.55377 5.49613 
170 1 10.8543 7.30943 1.1916 
174 1 10.4822 6.61053 2.41459 
175 1 10.742 7.32886 3.67935 
179 1 8.76766 1.19147 5.22328 
183 1 9.46611 2.41379 5.59515 
184 1 8.74921 3.67879 5.33392 
192 1 13.6347 5.61356 6.57794 
193 1 12.3899 5.33511 7.31958 
200 1 14.8778 5.30529 7.28158 
6 1 16.0993 5.3162 9.5577 
23 1 10.7034 5.37796 10.7024 
59 1 10.5558 6.55355 16.0939 
67 1 10.8541 7.30939 14.8845 
77 1 10.4829 6.61076 13.6607 
78 1 10.7444 7.32821 12.3949 
80 1 11.2224 6.60331 11.2172 
93 1 16.0964 6.5124 10.4793 
94 1 9.46721 2.41446 10.4816 
95 1 8.74935 3.68067 10.7445 
97 1 9.47268 4.86186 11.2146 
106 1 8.76731 1.19078 10.8546 
116 1 14.8763 5.33737 8.70372 
123 1 9.52353 5.52133 16.0941 
124 1 13.6614 5.65005 9.41707 
125 1 12.3795 5.35025 8.74319 
127 1 11.2112 4.86516 9.47199 
134 1 8.76754 5.22342 14.8844 
138 1 9.4671 5.59579 13.6616 
139 1 8.74962 5.33261 12.3966 
143 1 14.9286 7.2713 10.7944 
147 1 13.6691 6.60519 10.4752 
148 1 12.4135 7.32202 10.76 
156 1 10.481 2.41369 9.4664 
157 1 10.7431 3.68065 8.75117 
164 1 10.8541 1.1913 8.76767 
201 2 16.1222 4.34726 10.1418 
202 2 15.3359 3.08182 8.60089 
11 1 10.7022 10.7031 5.37853 
18 1 16.0957 10.551 6.55449 
29 1 9.52338 16.0947 5.52128 
70 1 10.5559 16.0949 6.55378 
71 1 10.4824 9.46723 2.41564 
72 1 10.7444 8.75049 3.68168 
74 1 11.2156 9.47489 4.86198 
85 1 10.8542 8.76805 1.19202 
96 1 8.76745 14.8852 5.2234 
103 1 16.0952 9.51832 5.52844 
104 1 9.46668 13.6622 5.59557 
105 1 8.74929 12.3969 5.33312 
107 1 9.4723 11.2149 4.86303 
111 1 14.8876 10.8485 7.31084 
119 1 13.6655 10.4775 6.61234 
120 1 12.4014 10.7429 7.33112 
122 1 11.2203 11.2145 6.60789 
132 1 9.4668 10.4822 2.41556 
133 1 8.74935 10.7439 3.68115 
140 1 8.76772 10.8539 1.19221 
146 1 14.8888 8.76505 5.23093 
150 1 13.6685 9.46443 5.60031 
151 1 12.4005 8.75713 5.33222 
155 1 10.8538 14.8846 7.30913 
159 1 10.4817 13.6613 6.61045 