ITEM: TIMESTEP
0
ITEM: NUMBER OF ATOMS
50
ITEM: BOX BOUNDS pp pp pp
0.0000000000000000e+00 1.1000000000000000e+01
0.0000000000000000e+00 1.1002000000000001e+01
0.0000000000000000e+00 1.1000000000000000e+01
ITEM: ATOMS id type x y z 
10 1 4.603 4.603 4.603 
11 1 3.085 3.085 3.085 
12 1 3.796 3.796 3.796 
46 1 0.726 0.725 0.725 
47 1 2.26 2.259 2.26 
48 1 1.551 1.55 1.55 
19 1 4.546 4.545 6.226 
20 1 3.013 3.013 7.764 
21 1 3.721 3.721 7.053 
31 1 0.668 0.667 10.103 
32 1 2.187 2.187 8.589 
33 1 1.476 1.475 9.298 
16 1 4.546 6.225 4.546 
17 1 3.013 7.765 3.013 
18 1 3.721 7.053 3.722 
25 1 0.668 10.103 0.668 
26 1 2.188 8.589 2.188 
27 1 1.476 9.298 1.476 
49 2 1.1 9.842 2.656 
50 3 1.1 9.842 3.632 
4 1 4.608 6.169 6.169 
5 1 3.086 7.684 7.684 
6 1 3.799 6.974 6.974 
37 1 0.729 10.046 10.046 
38 1 2.259 8.509 8.508 
39 1 1.552 9.219 9.219 
13 1 6.225 4.546 4.546 
14 1 7.764 3.013 3.013 
15 1 7.053 3.721 3.722 
28 1 10.102 0.667 0.668 
29 1 8.589 2.187 2.188 
30 1 9.298 1.475 1.476 
1 1 6.168 4.608 6.169 
2 1 7.684 3.086 7.684 
3 1 6.974 3.799 6.974 
40 1 10.045 0.728 10.046 
41 1 8.508 2.259 8.508 
42 1 9.218 1.551 9.218 
7 1 6.169 6.169 4.608 
8 1 7.684 7.684 3.086 
9 1 6.974 6.974 3.799 
43 1 10.046 10.047 0.729 
44 1 8.508 8.509 2.259 
45 1 9.219 9.219 1.552 
22 1 6.229 6.229 6.229 
23 1 7.764 7.765 7.765 
24 1 7.055 7.056 7.055 
34 1 10.108 10.108 10.107 
35 1 8.59 8.59 8.59 
36 1 9.301 9.301 9.3 
ITEM: TIMESTEP
10
ITEM: NUMBER OF ATOMS
50
ITEM: BOX BOUNDS pp pp pp
0.0000000000000000e+00 1.1000000000000000e+01
0.0000000000000000e+00 1.1002000000000001e+01
0.0000000000000000e+00 1.1000000000000000e+01
ITEM: ATOMS id type x y z 
10 1 4.59477 4.59606 4.59484 
11 1 3.08533 3.08312 3.08512 
12 1 3.78909 3.79289 3.78941 
46 1 0.737653 0.734529 0.741355 
47 1 2.27515 2.27492 2.273 
48 1 1.56472 1.56173 1.56806 
19 1 4.5333 4.53703 6.23442 
20 1 2.9988 2.99965 7.77674 
21 1 3.711 3.70865 7.06596 
31 1 0.672942 0.687871 10.0895 
32 1 2.19231 2.19318 8.58661 
33 1 1.48153 1.47994 9.28625 
16 1 4.53298 6.23841 4.53491 
17 1 3.00435 7.76935 3.00634 
18 1 3.71841 7.05844 3.71435 
25 1 0.639226 10.1339 0.627352 
26 1 2.21911 8.55509 2.19672 
27 1 1.51834 9.2544 1.43907 
49 2 1.09653 9.83928 2.69668 
50 3 1.07878 9.87409 3.678 
4 1 4.5997 6.17651 6.17538 
5 1 3.08652 7.68334 7.68529 
6 1 3.79271 6.9803 6.97667 
37 1 0.743148 10.0303 10.0339 
38 1 2.27456 8.49266 8.48922 
39 1 1.56846 9.2042 9.20891 
13 1 6.23481 4.53662 4.53515 
14 1 7.77725 2.9991 3.00112 
15 1 7.06441 3.71029 3.70853 
28 1 10.0883 0.684535 0.674965 
29 1 8.58711 2.1929 2.19348 
30 1 9.28507 1.48066 1.48134 
1 1 6.17812 4.59533 6.17812 
2 1 7.68634 3.08088 7.68567 
3 1 6.98211 3.79552 6.98337 
40 1 10.0353 0.739125 10.0348 
41 1 8.49522 2.27328 8.49499 
42 1 9.20509 1.56175 9.20553 
7 1 6.17549 6.17677 4.59949 
8 1 7.68637 7.68421 3.08537 
9 1 6.97746 6.98123 3.79228 
43 1 10.0362 10.0347 0.744636 
44 1 8.4919 8.4938 2.27228 
45 1 9.20933 9.20696 1.56814 
22 1 6.23885 6.24088 6.23747 
23 1 7.77755 7.77716 7.77686 
24 1 7.06465 7.06724 7.06737 
34 1 10.0882 10.1042 10.0898 
35 1 8.5857 8.58646 8.58331 
36 1 9.29173 9.29157 9.29577 
ITEM: TIMESTEP
20
ITEM: NUMBER OF ATOMS
50
ITEM: BOX BOUNDS pp pp pp
0.0000000000000000e+00 1.1000000000000000e+01
0.0000000000000000e+00 1.1002000000000001e+01
0.0000000000000000e+00 1.1000000000000000e+01
ITEM: ATOMS id type x y z 
10 1 4.59849 4.591 4.59899 
11 1 3.08261 3.09511 3.0822 
12 1 3.80275 3.77796 3.80252 
46 1 0.725661 0.742968 0.733068 
47 1 2.27703 2.27178 2.27963 
48 1 1.56943 1.57271 1.56537 
19 1 4.53993 4.53175 6.23944 
20 1 3.00757 3.00096 7.77649 
21 1 3.70191 3.71168 7.06127 
31 1 0.670961 0.67639 10.0884 
32 1 2.19451 2.18189 8.58 
33 1 1.47303 1.5004 9.29931 
16 1 4.54201 6.23552 4.53325 
17 1 3.01171 7.76819 3.00515 
18 1 3.70574 7.05696 3.72242 
25 1 0.643971 10.1356 0.634777 
26 1 2.2123 8.56174 2.1391 
27 1 1.60509 9.14856 1.25307 
49 2 1.06218 9.87716 2.86211 
50 3 1.03326 9.93677 3.74868 
4 1 4.60056 6.17224 6.18037 
5 1 3.08298 7.68728 7.67309 
6 1 3.8055 6.96666 6.99264 
37 1 0.729915 10.0472 10.0197 
38 1 2.28067 8.48941 8.49377 
39 1 1.56864 9.19916 9.19228 
13 1 6.23612 4.53638 4.53382 
14 1 7.77238 3.00558 3.00078 
15 1 7.06731 3.70516 3.71675 
28 1 10.0838 0.676838 0.672078 
29 1 8.57799 2.18337 2.19316 
30 1 9.3017 1.49833 1.47941 
1 1 6.17532 4.60686 6.17725 
2 1 7.68682 3.09371 7.68901 
3 1 6.97224 3.78074 6.96827 
40 1 10.0349 0.734511 10.0335 
41 1 8.493 2.26789 8.49431 
42 1 9.20758 1.57298 9.20511 
7 1 6.18112 6.17376 4.59987 
8 1 7.67503 7.68859 3.0818 
9 1 6.99382 6.96797 3.80341 
43 1 10.027 10.0461 0.737272 
44 1 8.4946 8.49033 2.28034 
45 1 9.19474 9.19995 1.5682 
22 1 6.23894 6.2395 6.24296 
23 1 7.77112 7.77569 7.7769 
24 1 7.07393 7.06632 7.06288 
34 1 10.0902 10.0999 10.0976 
35 1 8.58725 8.57654 8.59162 
36 1 9.28657 9.31107 9.28049 
ITEM: TIMESTEP
30
ITEM: NUMBER OF ATOMS
50
ITEM: BOX BOUNDS pp pp pp
0.0000000000000000e+00 1.1000000000000000e+01
0.0000000000000000e+00 1.1002000000000001e+01
0.0000000000000000e+00 1.1000000000000000e+01
ITEM: ATOMS id type x y z 
10 1 4.60064 4.59701 4.60122 
11 1 3.08564 3.08448 3.08526 
12 1 3.79334 3.79114 3.79342 
46 1 0.731814 0.730156 0.736327 
47 1 2.27211 2.27031 2.27165 
48 1 1.56433 1.5637 1.56612 
19 1 4.53542 4.53317 6.23808 
20 1 3.00176 2.99965 7.77548 
21 1 3.70732 3.70654 7.06701 
31 1 0.668335 0.686269 10.0973 
32 1 2.19026 2.1892 8.58578 
33 1 1.47763 1.48557 9.29319 
16 1 4.54133 6.23086 4.54104 
17 1 3.00146 7.77182 3.00292 
18 1 3.7055 7.06731 3.71092 
25 1 0.668621 10.104 0.634721 
26 1 2.22079 8.54943 2.09742 
27 1 1.59053 9.16401 1.24728 
49 2 1.04873 9.89352 2.8864 
50 3 1.02426 9.94881 3.78091 
4 1 4.60578 6.16909 6.17376 
5 1 3.08748 7.68264 7.68247 
6 1 3.79737 6.97493 6.9776 
37 1 0.731657 10.0426 10.0226 
38 1 2.27477 8.49374 8.49532 
39 1 1.56734 9.20351 9.1974 
13 1 6.23869 4.53354 4.53686 
14 1 7.77506 3.00042 3.00246 
15 1 7.06721 3.70687 3.70895 
28 1 10.0949 0.675906 0.673097 
29 1 8.58554 2.19039 2.19008 
30 1 9.29177 1.48328 1.48013 
1 1 6.17485 4.59968 6.17465 
2 1 7.68479 3.08438 7.68483 
3 1 6.97787 3.79385 6.97777 
40 1 10.0326 0.740732 10.0332 
41 1 8.49546 2.27247 8.49539 
42 1 9.20306 1.56737 9.20324 
7 1 6.17511 6.1713 4.60443 
8 1 7.6855 7.68494 3.08479 
9 1 6.98022 6.97779 3.79475 
43 1 10.0404 10.041 0.738436 
44 1 8.49888 8.49849 2.26984 
45 1 9.20675 9.20716 1.56632 
22 1 6.24198 6.23903 6.24023 
23 1 7.77538 7.77462 7.77512 
24 1 7.06875 7.06729 7.06808 
34 1 10.0877 10.1071 10.1002 
35 1 8.5862 8.5857 8.58584 
36 1 9.28908 9.29832 9.29369 
ITEM: TIMESTEP
40
ITEM: NUMBER OF ATOMS
50
ITEM: BOX BOUNDS pp pp pp
0.0000000000000000e+00 1.1000000000000000e+01
0.0000000000000000e+00 1.1002000000000001e+01
0.0000000000000000e+00 1.1000000000000000e+01
ITEM: ATOMS id type x y z 
10 1 4.5971 4.60561 4.59682 
11 1 3.0846 3.08209 3.08418 
12 1 3.79053 3.79277 3.79038 
46 1 0.740716 0.716902 0.740835 
47 1 2.2692 2.26976 2.27029 
48 1 1.56685 1.55622 1.56688 
19 1 4.53768 4.53228 6.23471 
20 1 3.00049 3.00031 7.77337 
21 1 3.71133 3.70398 7.06762 
31 1 0.665244 0.689841 10.1068 
32 1 2.18705 2.18826 8.58514 
33 1 1.47872 1.48814 9.30047 
16 1 4.53423 6.2391 4.53262 
17 1 2.99821 7.77621 2.99139 
18 1 3.70032 7.07239 3.70481 
25 1 0.685856 10.0834 0.616325 
26 1 2.25652 8.5059 2.0428 
27 1 1.58868 9.16339 1.25283 
49 2 1.0264 9.92114 2.94202 
50 3 1.00162 9.9787 3.85214 
4 1 4.60348 6.17052 6.1647 
5 1 3.0903 7.67941 7.68567 
6 1 3.79527 6.97757 6.96879 
37 1 0.729703 10.0451 10.0061 
38 1 2.2777 8.49077 8.49483 
39 1 1.5665 9.20515 9.18893 
13 1 6.23466 4.53776 4.5368 
14 1 7.77476 3.00278 3.00061 
15 1 7.06872 3.70443 3.71262 
28 1 10.104 0.668544 0.677118 
29 1 8.58787 2.19125 2.18496 
30 1 9.29296 1.47352 1.48398 
1 1 6.17104 4.60399 6.17064 
2 1 7.68389 3.08565 7.684 
3 1 6.97674 3.79495 6.97686 
40 1 10.0311 0.743022 10.0369 
41 1 8.49536 2.27199 8.49496 
42 1 9.20253 1.56834 9.20365 
7 1 6.16782 6.17457 4.59959 
8 1 7.69084 7.68636 3.08378 
9 1 6.97526 6.98314 3.78823 
43 1 10.0539 10.034 0.74184 
44 1 8.50053 8.50152 2.26847 
45 1 9.21421 9.20562 1.56692 
22 1 6.24167 6.23531 6.23667 
23 1 7.77414 7.77482 7.77373 
24 1 7.07167 7.06454 7.06635 
34 1 10.0824 10.1101 10.1076 
35 1 8.58636 8.58864 8.58317 
36 1 9.28527 9.29524 9.30298 
ITEM: TIMESTEP
50
ITEM: NUMBER OF ATOMS
50
ITEM: BOX BOUNDS pp pp pp
0.0000000000000000e+00 1.1000000000000000e+01
0.0000000000000000e+00 1.1002000000000001e+01
0.0000000000000000e+00 1.1000000000000000e+01
ITEM: ATOMS id type x y z 
10 1 4.59717 4.60368 4.59666 
11 1 3.0846 3.08297 3.08427 
12 1 3.79118 3.79241 3.79095 
46 1 0.740895 0.715841 0.740484 
47 1 2.26944 2.2697 2.27042 
48 1 1.56693 1.55537 1.56715 
19 1 4.53778 4.5329 6.2342 
20 1 3.00216 2.99984 7.77394 
21 1 3.70904 3.70514 7.06568 
31 1 0.665632 0.690898 10.1073 
32 1 2.18812 2.18849 8.587 
33 1 1.47605 1.48819 9.29781 
16 1 4.53355 6.23933 4.533 
17 1 2.99926 7.77485 2.99015 
18 1 3.70142 7.07241 3.70449 
25 1 0.688149 10.0824 0.614659 
26 1 2.25762 8.50302 2.03597 
27 1 1.58723 9.16552 1.25325 
49 2 1.02423 9.92377 2.94885 
50 3 0.998776 9.98237 3.85864 
4 1 4.60335 6.17096 6.16449 
5 1 3.09023 7.67985 7.68272 
6 1 3.7976 6.97454 6.97235 
37 1 0.7284 10.0463 10.0043 
38 1 2.27796 8.49074 8.49454 
39 1 1.56615 9.20518 9.18794 
13 1 6.23446 4.53768 4.53627 
14 1 7.77506 3.00187 3.00194 
15 1 7.06766 3.70644 3.71018 
28 1 10.1034 0.667248 0.678077 
29 1 8.58702 2.18823 2.18605 
30 1 9.29564 1.47823 1.48167 
1 1 6.1714 4.6032 6.17093 
2 1 7.68346 3.0858 7.68377 
3 1 6.97719 3.79497 6.97674 
40 1 10.0318 0.742189 10.0392 
41 1 8.49622 2.27131 8.49507 
42 1 9.20267 1.56802 9.20554 
7 1 6.16869 6.17519 4.59843 
8 1 7.68817 7.68662 3.08337 
9 1 6.97803 6.98115 3.79058 
43 1 10.0544 10.0332 0.741795 
44 1 8.5004 8.50106 2.26892 
45 1 9.21461 9.20516 1.56753 
22 1 6.24148 6.23577 6.23551 
23 1 7.77486 7.77332 7.77328 
24 1 7.06946 7.0659 7.06555 
34 1 10.0813 10.1094 10.1081 
35 1 8.58585 8.58688 8.5866 
36 1 9.28581 9.29941 9.29768 
ITEM: TIMESTEP
60
ITEM: NUMBER OF ATOMS
50
ITEM: BOX BOUNDS pp pp pp
0.0000000000000000e+00 1.1000000000000000e+01
0.0000000000000000e+00 1.1002000000000001e+01
0.0000000000000000e+00 1.1000000000000000e+01
ITEM: ATOMS id type x y z 
10 1 4.59841 4.60178 4.59595 
11 1 3.08372 3.08358 3.08409 
12 1 3.79098 3.79289 3.78998 
46 1 0.744089 0.711182 0.74079 
47 1 2.26981 2.26805 2.27088 
48 1 1.56841 1.55204 1.56838 
19 1 4.53353 4.534 6.23016 
20 1 3.00336 2.99943 7.77399 
21 1 3.70765 3.70556 7.06389 
31 1 0.665409 0.693541 10.1049 
32 1 2.18842 2.19042 8.58727 
33 1 1.47606 1.49026 9.29816 
16 1 4.53379 6.23894 4.53491 
17 1 3.00601 7.76731 2.97942 
18 1 3.70433 7.07007 3.70227 
25 1 0.690089 10.08 0.605452 
26 1 2.26987 8.48564 2.00699 
27 1 1.58298 9.17069 1.25955 
49 2 1.01274 9.93778 2.98538 
50 3 0.982788 10.003 3.896 
4 1 4.60491 6.16933 6.16572 
5 1 3.09231 7.6778 7.68137 
6 1 3.79954 6.97244 6.97152 
37 1 0.723441 10.0499 9.99339 
38 1 2.27898 8.49038 8.49256 
39 1 1.56444 9.20611 9.18148 
13 1 6.23388 4.53873 4.53237 
14 1 7.77715 2.99858 3.00526 
15 1 7.06414 3.71055 3.70033 
28 1 10.1076 0.665361 0.683872 
29 1 8.58824 2.18771 2.1863 
30 1 9.29695 1.47655 1.48324 
1 1 6.1732 4.6012 6.17073 
2 1 7.68438 3.08547 7.68452 
3 1 6.9776 3.79353 6.9758 
40 1 10.0292 0.74332 10.048 
41 1 8.49729 2.27097 8.49545 
42 1 9.20162 1.56821 9.20856 
7 1 6.17096 6.17397 4.59706 
8 1 7.68687 7.68734 3.08342 
9 1 6.97813 6.98056 3.79054 
43 1 10.0591 10.0303 0.741304 
44 1 8.50384 8.50196 2.27081 
45 1 9.2159 9.20328 1.56438 
22 1 6.23976 6.23995 6.23119 
23 1 7.77485 7.7713 7.77307 
24 1 7.06872 7.06737 7.06298 
34 1 10.0801 10.1111 10.1051 
35 1 8.5843 8.58676 8.58569 
36 1 9.2821 9.29881 9.29959 
ITEM: TIMESTEP
70
ITEM: NUMBER OF ATOMS
50
ITEM: BOX BOUNDS pp pp pp
0.0000000000000000e+00 1.1000000000000000e+01
0.0000000000000000e+00 1.1002000000000001e+01
0.0000000000000000e+00 1.1000000000000000e+01
ITEM: ATOMS id type x y z 
10 1 4.59804 4.60215 4.59536 
11 1 3.08348 3.08341 3.08387 
12 1 3.79069 3.7929 3.78962 
46 1 0.744912 0.710527 0.740333 
47 1 2.26955 2.26744 2.27123 
48 1 1.56884 1.55157 1.56764 
19 1 4.53496 4.53305 6.23047 
20 1 3.00323 2.99971 7.77389 
21 1 3.70803 3.70518 7.06362 
31 1 0.664856 0.692975 10.1055 
32 1 2.18859 2.19062 8.58763 
33 1 1.47561 1.49065 9.29791 
16 1 4.53361 6.23922 4.53412 
17 1 3.00686 7.76609 2.97566 
18 1 3.70378 7.07029 3.70104 
25 1 0.691376 10.0788 0.605267 
26 1 2.27148 8.48421 2.00477 
27 1 1.58233 9.17097 1.261 
49 2 1.01144 9.93935 2.99032 
50 3 0.98023 10.0063 3.90197 
4 1 4.60465 6.1694 6.16498 
5 1 3.09201 7.67812 7.68179 
6 1 3.79936 6.97262 6.97211 
37 1 0.723222 10.0503 9.99212 
38 1 2.2785 8.49055 8.49241 
39 1 1.56427 9.20688 9.18065 
13 1 6.23349 4.53909 4.53163 
14 1 7.77636 2.99944 3.00301 
15 1 7.06559 3.7089 3.70336 
28 1 10.1082 0.664453 0.684543 
29 1 8.58818 2.18717 2.18643 
30 1 9.29796 1.47669 1.48393 
1 1 6.17247 4.60156 6.16963 
2 1 7.68419 3.08551 7.68403 
3 1 6.97764 3.79382 6.97592 
40 1 10.0288 0.744196 10.0481 
41 1 8.49742 2.27076 8.49548 
42 1 9.20134 1.56869 9.2094 
7 1 6.1702 6.17425 4.59646 
8 1 7.68722 7.68804 3.08297 
9 1 6.97881 6.98095 3.78992 
43 1 10.0586 10.029 0.739652 
44 1 8.50285 8.5013 2.26947 
45 1 9.21856 9.20384 1.56726 
22 1 6.24074 6.2387 6.2313 
23 1 7.77469 7.77171 7.77268 
24 1 7.06894 7.0665 7.06333 
34 1 10.0796 10.111 10.1056 
35 1 8.5836 8.58649 8.58685 
36 1 9.28264 9.29956 9.29783 
ITEM: TIMESTEP
80
ITEM: NUMBER OF ATOMS
50
ITEM: BOX BOUNDS pp pp pp
0.0000000000000000e+00 1.1000000000000000e+01
0.0000000000000000e+00 1.1002000000000001e+01
0.0000000000000000e+00 1.1000000000000000e+01
ITEM: ATOMS id type x y z 
10 1 4.59747 4.60273 4.59468 
11 1 3.08317 3.08335 3.08356 
12 1 3.79046 3.79275 3.78938 
46 1 0.7459 0.709661 0.73985 
47 1 2.26942 2.2668 2.27134 
48 1 1.56933 1.55096 1.56755 
19 1 4.5362 4.53243 6.2304 
20 1 3.00316 2.99989 7.77365 
21 1 3.70844 3.70509 7.06344 
31 1 0.664262 0.692931 10.1055 
32 1 2.18847 2.19103 8.58806 
33 1 1.47539 1.49067 9.29779 
16 1 4.53341 6.23945 4.53375 
17 1 3.00823 7.76426 2.97138 
18 1 3.70376 7.0701 3.69986 
25 1 0.69236 10.0775 0.604713 
26 1 2.27312 8.48253 2.00188 
27 1 1.58137 9.17172 1.2625 
49 2 1.00985 9.94132 2.99689 
50 3 0.977054 10.0104 3.90906 
4 1 4.60478 6.16937 6.16455 
5 1 3.09229 7.67804 7.68238 
6 1 3.79888 6.97273 6.9717 
37 1 0.722818 10.051 9.99069 
38 1 2.27824 8.49079 8.49167 
39 1 1.56374 9.2075 9.18027 
13 1 6.23351 4.53904 4.53094 
14 1 7.77562 3.00021 3.00154 
15 1 7.06679 3.70754 3.70514 
28 1 10.1089 0.663817 0.68489 
29 1 8.58843 2.18726 2.18599 
30 1 9.29872 1.47535 1.48557 
1 1 6.17212 4.60172 6.16884 
2 1 7.68414 3.08546 7.68356 
3 1 6.97755 3.79414 6.97598 
40 1 10.0283 0.744934 10.0489 
41 1 8.49712 2.27085 8.49559 
42 1 9.20136 1.56917 9.20987 
7 1 6.1695 6.17487 4.59563 
8 1 7.68727 7.68848 3.08245 
9 1 6.97935 6.98128 3.78975 
43 1 10.0595 10.0283 0.739557 
44 1 8.5037 8.50167 2.26958 
45 1 9.21901 9.20333 1.56684 
22 1 6.24125 6.23741 6.23123 
23 1 7.77451 7.77184 7.77247 
24 1 7.06896 7.06585 7.0631 
34 1 10.0792 10.1114 10.1054 
35 1 8.58302 8.58663 8.58707 
36 1 9.28259 9.29948 9.29769 
ITEM: TIMESTEP
90
ITEM: NUMBER OF ATOMS
50
ITEM: BOX BOUNDS pp pp pp
0.0000000000000000e+00 1.1000000000000000e+01
0.0000000000000000e+00 1.1002000000000001e+01
0.0000000000000000e+00 1.1000000000000000e+01
ITEM: ATOMS id type x y z 
10 1 4.59744 4.60287 4.59434 
11 1 3.08305 3.08323 3.08348 
12 1 3.79024 3.79293 3.78914 
46 1 0.746561 0.70911 0.739619 
47 1 2.2695 2.26638 2.27152 
48 1 1.56948 1.5506 1.56738 
19 1 4.53655 4.53221 6.23015 
20 1 3.00315 3 7.77347 
21 1 3.70868 3.70502 7.06339 
31 1 0.663617 0.693121 10.1053 
32 1 2.18833 2.19136 8.58827 
33 1 1.47538 1.49071 9.29778 
16 1 4.53334 6.23954 4.53366 
17 1 3.0093 7.76289 2.96858 
18 1 3.70395 7.06982 3.69906 
25 1 0.693104 10.0768 0.604202 
26 1 2.27401 8.48146 1.99993 
27 1 1.58075 9.17232 1.2635 
49 2 1.00876 9.94265 3.00159 
50 3 0.974893 10.0132 3.91378 
4 1 4.6045 6.1694 6.16399 
5 1 3.09217 7.67801 7.68216 
6 1 3.79938 6.97248 6.97229 
37 1 0.722424 10.0514 9.98968 
38 1 2.27799 8.49105 8.49126 
39 1 1.56359 9.2077 9.17975 
13 1 6.23365 4.53884 4.53097 
14 1 7.77565 3.00015 3.00144 
15 1 7.06662 3.70768 3.70479 
28 1 10.1095 0.663343 0.685445 
29 1 8.58875 2.18684 2.18636 
30 1 9.29894 1.47536 1.48539 
1 1 6.17217 4.60159 6.16857 
2 1 7.68409 3.08559 7.68354 
3 1 6.97768 3.79389 6.97558 
40 1 10.0281 0.74523 10.0496 
41 1 8.49727 2.27079 8.49588 
42 1 9.20112 1.56933 9.21027 
7 1 6.16971 6.17489 4.59543 
8 1 7.6878 7.68857 3.08262 
9 1 6.97854 6.98162 3.78894 
43 1 10.0601 10.0277 0.739533 
44 1 8.50413 8.50154 2.27004 
45 1 9.21909 9.20314 1.56637 
22 1 6.24146 6.23702 6.231 
23 1 7.77437 7.7718 7.77228 
24 1 7.06903 7.06561 7.06309 
34 1 10.079 10.1119 10.1051 
35 1 8.58261 8.58648 8.58739 
36 1 9.28248 9.29988 9.29718 
ITEM: TIMESTEP
100
ITEM: NUMBER OF ATOMS
50
ITEM: BOX BOUNDS pp pp pp
0.0000000000000000e+00 1.1000000000000000e+01
0.0000000000000000e+00 1.1002000000000001e+01
0.0000000000000000e+00 1.1000000000000000e+01
ITEM: ATOMS id type x y z 
10 1 4.59745 4.60341 4.59171 
11 1 3.08145 3.08302 3.08279 
12 1 3.78934 3.79309 3.78724 
46 1 0.751207 0.704788 0.737133 
47 1 2.26955 2.26309 2.27185 
48 1 1.57114 1.54546 1.56688 
19 1 4.53859 4.53102 6.22868 
20 1 3.00423 3.00181 7.77265 
21 1 3.70869 3.70294 7.06167 
31 1 0.660174 0.694326 10.1027 
32 1 2.18647 2.19358 8.58741 
33 1 1.47745 1.4933 9.30148 
16 1 4.53292 6.24036 4.5328 
17 1 3.01939 7.75032 2.94564 
18 1 3.70525 7.06779 3.69087 
25 1 0.696639 10.0729 0.600376 
26 1 2.28117 8.47254 1.9836 
27 1 1.5754 9.17788 1.27209 
49 2 0.999713 9.95383 3.04162 
50 3 0.956319 10.0371 3.95423 
4 1 4.60465 6.16896 6.16305 
5 1 3.09301 7.67683 7.68259 
6 1 3.8006 6.97174 6.97247 
37 1 0.719685 10.054 9.98174 
38 1 2.27643 8.49316 8.48792 
39 1 1.56207 9.20879 9.17347 
13 1 6.23374 4.53916 4.5287 
14 1 7.7766 2.99954 2.99813 
15 1 7.06531 3.7079 3.70515 
28 1 10.1144 0.659445 0.691004 
29 1 8.5911 2.18482 2.18674 
30 1 9.30203 1.47179 1.48909 
1 1 6.17287 4.60077 6.16632 
2 1 7.68378 3.086 7.68384 
3 1 6.97929 3.79219 6.97191 
40 1 10.0254 0.748348 10.0551 
41 1 8.49616 2.27226 8.49619 
42 1 9.19957 1.57106 9.21406 
7 1 6.16819 6.17594 4.59211 
8 1 7.68688 7.69098 3.08123 
9 1 6.98116 6.98102 3.78804 
43 1 10.0639 10.0233 0.736659 
44 1 8.50769 8.50202 2.26994 
45 1 9.22341 9.20167 1.56647 
22 1 6.24224 6.2346 6.22881 
23 1 7.77282 7.77115 7.77157 
24 1 7.06953 7.06346 7.06071 
34 1 10.0777 10.1136 10.1025 
35 1 8.58073 8.58623 8.58781 
36 1 9.2785 9.30168 9.29727 
ITEM: TIMESTEP
110
ITEM: NUMBER OF ATOMS
50
ITEM: BOX BOUNDS pp pp pp
0.0000000000000000e+00 1.1000000000000000e+01
0.0000000000000000e+00 1.1002000000000001e+01
0.0000000000000000e+00 1.1000000000000000e+01
ITEM: ATOMS id type x y z 
10 1 4.59682 4.6055 4.58579 
11 1 3.07838 3.08245 3.08046 
12 1 3.78571 3.79382 3.78428 
46 1 0.762523 0.693788 0.732087 
47 1 2.2707 2.25366 2.27493 
48 1 1.578 1.53655 1.56474 
19 1 4.5415 4.52803 6.22145 
20 1 3.0046 3.00319 7.77018 
21 1 3.71204 3.70356 7.05729 
31 1 0.654543 0.695268 10.0993 
32 1 2.18701 2.20055 8.59074 
33 1 1.47418 1.4998 9.29979 
16 1 4.53173 6.24159 4.53146 
17 1 3.04551 7.71753 2.88432 
18 1 3.71315 7.05775 3.66925 
25 1 0.707626 10.0602 0.589294 
26 1 2.2958 8.45257 1.94091 
27 1 1.56323 9.19233 1.29488 
49 2 0.975643 9.98362 3.14849 
50 3 0.907247 10.1001 4.06038 
4 1 4.60702 6.16646 6.1603 
5 1 3.09675 7.67472 7.6844 
6 1 3.80025 6.96862 6.97155 
37 1 0.711285 10.0607 9.96276 
38 1 2.27304 8.49729 8.47706 
39 1 1.55556 9.21544 9.16028 
13 1 6.23296 4.53876 4.52123 
14 1 7.77682 2.99848 2.99379 
15 1 7.06753 3.70575 3.69689 
28 1 10.1255 0.649306 0.703324 
29 1 8.59632 2.17918 2.19078 
30 1 9.31042 1.46485 1.49663 
1 1 6.17631 4.59572 6.15726 
2 1 7.68625 3.08398 7.67949 
3 1 6.9789 3.79186 6.97231 
40 1 10.0184 0.755271 10.0703 
41 1 8.49529 2.27411 8.50182 
42 1 9.19606 1.57526 9.22214 
7 1 6.16698 6.17616 4.58612 
8 1 7.68941 7.69449 3.07921 
9 1 6.98 6.98469 3.78266 
43 1 10.0733 10.013 0.730486 
44 1 8.51643 8.50181 2.27318 
45 1 9.23216 9.19665 1.56316 
22 1 6.24509 6.23022 6.22203 
23 1 7.77068 7.76763 7.76863 
24 1 7.06801 7.06156 7.05743 
34 1 10.0742 10.121 10.0958 
35 1 8.57133 8.58658 8.58986 
36 1 9.27368 9.30357 9.29317 
ITEM: TIMESTEP
120
ITEM: NUMBER OF ATOMS
50
ITEM: BOX BOUNDS pp pp pp
0.0000000000000000e+00 1.1000000000000000e+01
0.0000000000000000e+00 1.1002000000000001e+01
0.0000000000000000e+00 1.1000000000000000e+01
ITEM: ATOMS id type x y z 
10 1 4.59665 4.6056 4.58573 
11 1 3.07784 3.08265 3.08106 
12 1 3.78695 3.79356 3.78354 
46 1 0.762763 0.694209 0.73192 
47 1 2.27127 2.25358 2.27467 
48 1 1.57771 1.53662 1.56538 
19 1 4.54125 4.52779 6.22132 
20 1 3.00479 3.00275 7.77008 
21 1 3.7114 3.70415 7.05781 
31 1 0.655653 0.696147 10.1 
32 1 2.18774 2.2014 8.59251 
33 1 1.47223 1.49835 9.2966 
16 1 4.53196 6.24153 4.53145 
17 1 3.04594 7.71694 2.88359 
18 1 3.71394 7.05683 3.66778 
25 1 0.707183 10.0602 0.5896 
26 1 2.29556 8.45292 1.94162 
27 1 1.56326 9.19232 1.29508 
49 2 0.975243 9.98413 3.15005 
50 3 0.906642 10.1009 4.06165 
4 1 4.60634 6.16631 6.16014 
5 1 3.09597 7.67424 7.68403 
6 1 3.8017 6.96956 6.97192 
37 1 0.711426 10.0605 9.96324 
38 1 2.27312 8.4972 8.47681 
39 1 1.55524 9.2158 9.15981 
13 1 6.233 4.5388 4.5209 
14 1 7.77684 2.99828 2.99433 
15 1 7.06696 3.70663 3.69626 
28 1 10.1254 0.648986 0.703113 
29 1 8.59685 2.17886 2.19114 
30 1 9.3103 1.46461 1.49638 
1 1 6.17593 4.59628 6.15788 
2 1 7.68562 3.08445 7.68096 
3 1 6.9805 3.7905 6.9697 
40 1 10.0189 0.754775 10.07 
41 1 8.49545 2.27398 8.50192 
42 1 9.19587 1.57552 9.22302 
7 1 6.16749 6.17552 4.58596 
8 1 7.68966 7.69389 3.07956 
9 1 6.97902 6.98519 3.78275 
43 1 10.0729 10.0131 0.730047 
44 1 8.51677 8.50179 2.27275 
45 1 9.23237 9.19675 1.56335 
22 1 6.24455 6.23081 6.22178 
23 1 7.77028 7.76797 7.7688 
24 1 7.06864 7.06094 7.05728 
34 1 10.0743 10.1209 10.0958 
35 1 8.57121 8.58681 8.58967 
36 1 9.27352 9.30355 9.29331 
ITEM: TIMESTEP
130
ITEM: NUMBER OF ATOMS
50
ITEM: BOX BOUNDS pp pp pp
0.0000000000000000e+00 1.1000000000000000e+01
0.0000000000000000e+00 1.1002000000000001e+01
0.0000000000000000e+00 1.1000000000000000e+01
ITEM: ATOMS id type x y z 
10 1 4.59666 4.60558 4.58576 
11 1 3.07787 3.08262 3.08107 
12 1 3.78692 3.79361 3.78353 
46 1 0.762763 0.694229 0.731924 
47 1 2.27129 2.25357 2.27468 
48 1 1.57771 1.53663 1.56536 
19 1 4.54124 4.52782 6.22131 
20 1 3.0048 3.00277 7.77008 
21 1 3.71142 3.70415 7.05779 
31 1 0.655682 0.696133 10.1 
32 1 2.18775 2.2014 8.59252 
33 1 1.47218 1.49836 9.29658 
16 1 4.53196 6.24153 4.53145 
17 1 3.04596 7.71691 2.88353 
18 1 3.714 7.05676 3.6677 
25 1 0.707185 10.0602 0.589596 
26 1 2.29554 8.45295 1.94166 
27 1 1.56325 9.19232 1.29509 
49 2 0.975218 9.98416 3.15015 
50 3 0.906603 10.1009 4.06174 
4 1 4.60631 6.16627 6.16013 
5 1 3.09595 7.67423 7.68402 
6 1 3.80173 6.96958 6.97193 
37 1 0.711423 10.0605 9.96325 
38 1 2.27309 8.49722 8.47678 
39 1 1.55525 9.21579 9.15984 
13 1 6.233 4.5388 4.52087 
14 1 7.77684 2.99828 2.99433 
15 1 7.06697 3.70662 3.69624 
28 1 10.1253 0.648979 0.703065 
29 1 8.59683 2.17883 2.19113 
30 1 9.31039 1.46463 1.49643 
1 1 6.17589 4.59626 6.15789 
2 1 7.68561 3.08444 7.68097 
3 1 6.98054 3.79049 6.96966 
40 1 10.0189 0.754776 10.07 
41 1 8.49544 2.27399 8.50199 
42 1 9.1959 1.57548 9.22298 
7 1 6.16747 6.17555 4.58594 
8 1 7.68963 7.69391 3.07957 
9 1 6.97906 6.98513 3.78276 
43 1 10.0729 10.0131 0.730041 
44 1 8.51678 8.50177 2.27276 
45 1 9.23235 9.19674 1.56335 
22 1 6.24457 6.2308 6.22177 
23 1 7.77031 7.76795 7.7688 
24 1 7.0686 7.06099 7.0573 
34 1 10.0743 10.1209 10.0957 
35 1 8.57122 8.58681 8.58966 
36 1 9.27348 9.30357 9.29333 
ITEM: TIMESTEP
132
ITEM: NUMBER OF ATOMS
50
ITEM: BOX BOUNDS pp pp pp
0.0000000000000000e+00 1.1000000000000000e+01
0.0000000000000000e+00 1.1002000000000001e+01
0.0000000000000000e+00 1.1000000000000000e+01
ITEM: ATOMS id type x y z 
10 1 4.59666 4.60558 4.58576 
11 1 3.07787 3.08262 3.08107 
12 1 3.78691 3.79361 3.78353 
46 1 0.762763 0.69423 0.731924 
47 1 2.2713 2.25357 2.27468 
48 1 1.57771 1.53663 1.56536 
19 1 4.54124 4.52782 6.22131 
20 1 3.0048 3.00277 7.77008 
21 1 3.71142 3.70415 7.05779 
31 1 0.655683 0.696133 10.1 
32 1 2.18775 2.2014 8.59252 
33 1 1.47218 1.49836 9.29658 
16 1 4.53196 6.24153 4.53145 
17 1 3.04596 7.71691 2.88353 
18 1 3.714 7.05676 3.6677 
25 1 0.707185 10.0602 0.589596 
26 1 2.29554 8.45295 1.94166 
27 1 1.56325 9.19232 1.29509 
49 2 0.975217 9.98416 3.15015 
50 3 0.906602 10.1009 4.06174 
4 1 4.60631 6.16627 6.16013 
5 1 3.09596 7.67423 7.68402 
6 1 3.80173 6.96958 6.97193 
37 1 0.711422 10.0605 9.96325 
38 1 2.27309 8.49723 8.47678 
39 1 1.55525 9.21579 9.15984 
13 1 6.233 4.5388 4.52087 
14 1 7.77684 2.99828 2.99433 
15 1 7.06697 3.70662 3.69624 
28 1 10.1253 0.648979 0.703063 
29 1 8.59683 2.17883 2.19113 
30 1 9.31039 1.46463 1.49644 
1 1 6.17589 4.59626 6.15789 
2 1 7.68561 3.08444 7.68097 
3 1 6.98054 3.79049 6.96966 
40 1 10.0189 0.754777 10.07 
41 1 8.49544 2.27399 8.50199 
42 1 9.1959 1.57548 9.22297 
7 1 6.16747 6.17555 4.58594 
8 1 7.68962 7.69391 3.07957 
9 1 6.97907 6.98512 3.78276 
43 1 10.0729 10.0131 0.730041 
44 1 8.51678 8.50177 2.27276 
45 1 9.23235 9.19674 1.56335 
22 1 6.24457 6.2308 6.22177 
23 1 7.77031 7.76795 7.7688 
24 1 7.06859 7.06099 7.0573 
34 1 10.0743 10.1209 10.0957 
35 1 8.57122 8.58681 8.58966 
36 1 9.27348 9.30357 9.29333 
ITEM: TIMESTEP
133
ITEM: NUMBER OF ATOMS
50
ITEM: BOX BOUNDS pp pp pp
0.0000000000000000e+00 1.1000000000000000e+01
0.0000000000000000e+00 1.1002000000000001e+01
0.0000000000000000e+00 1.1000000000000000e+01
ITEM: ATOMS id type x y z 
10 1 4.59666 4.60558 4.58576 
11 1 3.07787 3.08262 3.08107 
12 1 3.78691 3.79361 3.78353 
46 1 0.762763 0.69423 0.731924 
47 1 2.2713 2.25357 2.27468 
48 1 1.57771 1.53663 1.56536 
19 1 4.54124 4.52782 6.22131 
20 1 3.0048 3.00277 7.77008 
21 1 3.71142 3.70415 7.05779 
31 1 0.655683 0.696133 10.1 
32 1 2.18775 2.2014 8.59252 
33 1 1.47218 1.49836 9.29658 
16 1 4.53196 6.24153 4.53145 
17 1 3.04596 7.71691 2.88353 
18 1 3.714 7.05676 3.6677 
25 1 0.707185 10.0602 0.589596 
26 1 2.29554 8.45295 1.94166 
27 1 1.56325 9.19232 1.29509 
49 2 0.975217 9.98416 3.15015 
50 3 0.906602 10.1009 4.06174 
4 1 4.60631 6.16627 6.16013 
5 1 3.09596 7.67423 7.68402 
6 1 3.80173 6.96958 6.97193 
37 1 0.711422 10.0605 9.96325 
38 1 2.27309 8.49723 8.47678 
39 1 1.55525 9.21579 9.15984 
13 1 6.233 4.5388 4.52087 
14 1 7.77684 2.99828 2.99433 
15 1 7.06697 3.70662 3.69624 
28 1 10.1253 0.648979 0.703063 
29 1 8.59683 2.17883 2.19113 
30 1 9.31039 1.46463 1.49644 
1 1 6.17589 4.59626 6.15789 
2 1 7.68561 3.08444 7.68097 
3 1 6.98054 3.79049 6.96966 
40 1 10.0189 0.754777 10.07 
41 1 8.49544 2.27399 8.50199 
42 1 9.1959 1.57548 9.22297 
7 1 6.16747 6.17555 4.58594 
8 1 7.68963 7.69391 3.07957 
9 1 6.97907 6.98512 3.78276 
43 1 10.0729 10.0131 0.730041 
44 1 8.51678 8.50177 2.27276 
45 1 9.23235 9.19674 1.56335 
22 1 6.24457 6.2308 6.22177 
23 1 7.77031 7.76795 7.7688 
24 1 7.06859 7.06099 7.0573 
34 1 10.0743 10.1209 10.0957 
35 1 8.57122 8.58681 8.58966 
36 1 9.27348 9.30357 9.29333 
ITEM: TIMESTEP
140
ITEM: NUMBER OF ATOMS
50
ITEM: BOX BOUNDS pp pp pp
-2.0580076991717818e-03 1.1002058007699173e+01
-2.0706621610902180e-03 1.1004070662161093e+01
-3.6792436231696170e-03 1.1003679243623173e+01
ITEM: ATOMS id type x y z 
10 1 4.59648 4.6054 4.58531 
11 1 3.07701 3.08176 3.07951 
12 1 3.78624 3.79291 3.78233 
46 1 0.760835 0.692314 0.728601 
47 1 2.27004 2.2523 2.27248 
48 1 1.57615 1.53502 1.5626 
19 1 4.541 4.5276 6.22166 
20 1 3.00392 3.0019 7.77154 
21 1 3.71086 3.70357 7.05872 
31 1 0.653717 0.694152 10.1032 
32 1 2.18645 2.20012 8.59463 
33 1 1.47073 1.4969 9.29907 
16 1 4.53174 6.24167 4.53093 
17 1 3.0451 7.71767 2.88181 
18 1 3.71347 7.0572 3.66653 
25 1 0.705222 10.0621 0.58615 
26 1 2.29429 8.45412 1.93927 
27 1 1.56182 9.19366 1.29232 
49 2 0.973511 9.98587 3.14863 
50 3 0.904864 10.1027 4.06082 
4 1 4.60614 6.16636 6.16041 
5 1 3.09511 7.67501 7.68543 
6 1 3.80103 6.97018 6.97297 
37 1 0.709513 10.0623 9.96642 
38 1 2.27181 8.49842 8.4788 
39 1 1.55368 9.21729 9.16242 
13 1 6.23314 4.53858 4.52033 
14 1 7.77764 2.99739 2.99271 
15 1 7.06745 3.70605 3.69512 
28 1 10.1272 0.646994 0.699673 
29 1 8.59804 2.17752 2.18888 
30 1 9.31176 1.46315 1.49381 
1 1 6.17598 4.59608 6.15816 
2 1 7.68639 3.08358 7.68238 
3 1 6.98114 3.78979 6.97071 
40 1 10.0207 0.752849 10.0732 
41 1 8.49661 2.27274 8.5041 
42 1 9.1974 1.57388 9.22554 
7 1 6.16756 6.17564 4.58548 
8 1 7.69039 7.69469 3.078 
9 1 6.97967 6.98573 3.78157 
43 1 10.0747 10.0149 0.72671 
44 1 8.51796 8.50294 2.27055 
45 1 9.23386 9.19824 1.5606 
22 1 6.2447 6.23095 6.22213 
23 1 7.7711 7.76875 7.77028 
24 1 7.06908 7.06147 7.05822 
34 1 10.0762 10.1228 10.099 
35 1 8.57241 8.58802 8.59177 
36 1 9.27484 9.30496 9.2958 
ITEM: TIMESTEP
150
ITEM: NUMBER OF ATOMS
50
ITEM: BOX BOUNDS pp pp pp
-2.2060787983469799e-03 1.1002206078798348e+01
-2.2630671597027490e-03 1.1004263067159703e+01
-9.1722437287817451e-03 1.1009172243728790e+01
ITEM: ATOMS id type x y z 
10 1 4.59705 4.60595 4.58502 
11 1 3.07711 3.08183 3.07727 
12 1 3.78601 3.79266 3.78043 
46 1 0.760149 0.691743 0.723313 
47 1 2.26963 2.25178 2.2689 
48 1 1.57582 1.53466 1.55842 
19 1 4.54144 4.5281 6.22186 
20 1 3.00423 3.00221 7.77343 
21 1 3.71105 3.70372 7.06005 
31 1 0.653078 0.693325 10.1083 
32 1 2.1862 2.19983 8.59789 
33 1 1.47074 1.497 9.30266 
16 1 4.53223 6.24118 4.53043 
17 1 3.04546 7.71731 2.87952 
18 1 3.71375 7.05691 3.6647 
25 1 0.704475 10.0629 0.580657 
26 1 2.29399 8.45445 1.93571 
27 1 1.56189 9.19362 1.28831 
49 2 0.973338 9.98609 3.1465 
50 3 0.904664 10.1029 4.05952 
4 1 4.60669 6.1658 6.16044 
5 1 3.0952 7.67494 7.68743 
6 1 3.80077 6.97041 6.97464 
37 1 0.708951 10.0629 9.97155 
38 1 2.27129 8.49897 8.48204 
39 1 1.55338 9.21762 9.16639 