ITEM: TIMESTEP
0
ITEM: NUMBER OF ATOMS
162
ITEM: BOX BOUNDS xy xz yz pp pp pp
-6.7755000000000001e+00 1.3552000000000000e+01 -6.7755000000000001e+00
0.0000000000000000e+00 1.1735510246683001e+01 0.0000000000000000e+00
0.0000000000000000e+00 2.2149999999999999e+01 0.0000000000000000e+00
ITEM: ATOMS id type x y z 
8 1 -2.486 5.297 9.849 
87 1 3.001 4.231 10.696 
90 1 2.733 5.481 9.824 
109 1 -2.486 5.297 0.765 
158 1 2.733 5.481 0.79 
11 1 4.24 4.139 20.131 
14 1 3.031 4.094 19.728 
18 1 1.299 5.827 18.554 
33 1 2.266 4.151 20.924 
43 1 4.343 3.96 21.647 
47 1 3.32 5.732 17.88 
52 1 4.24 4.139 12.633 
76 1 2.552 4.924 14.209 
85 1 4.343 3.96 11.117 
89 1 3.32 5.732 14.883 
91 1 1.036 5.037 11.84 
102 1 3.031 4.094 13.035 
105 1 1.299 5.827 14.209 
114 1 2.266 4.151 11.84 
150 1 2.552 4.924 18.554 
156 1 3.001 4.231 22.068 
159 1 1.036 5.037 20.924 
5 1 -5.049 10.63 8.653 
9 1 -3.317 8.897 7.479 
19 1 -1.707 7.414 10.572 
21 1 -2.66 8.795 10.993 
23 1 -3.31 7.532 6.805 
25 1 -4.284 10.573 9.849 
32 1 1.503 6.367 0.79 
36 1 -1.869 7.426 9.056 
38 1 -2.209 6.086 8.653 
54 1 0.3 8.576 10.696 
57 1 1.291 8.001 9.824 
60 1 -1.707 7.414 0.042 
65 1 -3.31 7.532 3.808 
78 1 -1.869 7.426 1.558 
80 1 -2.566 8.842 1.961 
84 1 -4.57 9.799 3.135 
99 1 -3.054 9.687 0.765 
100 1 -2.96 6.142 3.135 
107 1 -5.049 10.63 1.961 
110 1 -3.317 8.897 3.135 
111 1 0.642 5.929 10.696 
113 1 1.503 6.367 9.824 
119 1 -4.284 10.573 0.765 
127 1 -2.209 6.086 1.961 
131 1 -2.318 6.148 10.993 
138 1 1.291 8.001 0.79 
142 1 -2.566 8.842 8.653 
145 1 -4.57 9.799 7.479 
151 1 -5.019 10.493 10.993 
154 1 -3.054 9.687 9.849 
155 1 -2.96 6.142 7.479 
12 1 2.53 7.1 17.202 
17 1 0.468 9.427 20.924 
24 1 -3.52 8.357 11.865 
27 1 -0.31 7.31 21.647 
29 1 0.642 5.929 22.068 
31 1 1.292 7.192 17.88 
44 1 -0.148 7.298 20.131 
46 1 0.191 8.638 19.728 
51 1 -0.31 7.31 11.117 
53 1 2.53 7.1 15.561 
56 1 1.292 7.192 14.883 
63 1 -2.318 6.148 21.771 
66 1 -3.309 6.723 20.899 
70 1 -0.148 7.298 12.633 
72 1 0.548 5.882 13.035 
92 1 0.942 8.582 14.209 
95 1 -5.019 10.493 21.771 
98 1 -4.751 9.243 20.899 
104 1 0.468 9.427 11.84 
116 1 -2.66 8.795 21.771 
118 1 -3.52 8.357 20.899 
122 1 0.191 8.638 13.035 
133 1 -3.309 6.723 11.865 
136 1 0.3 8.576 22.068 
147 1 0.548 5.882 19.728 
153 1 -4.751 9.243 11.865 
160 1 0.942 8.582 18.554 
1 1 7.976 4.694 10.572 
4 1 9.274 4.77 10.993 
20 1 8.034 4.861 9.056 
42 1 9.55 5.41 7.479 
67 1 10.043 4.578 0.765 
77 1 7.976 4.694 0.042 
94 1 8.035 4.861 1.558 
96 1 9.278 4.635 1.961 
121 1 4.688 5.417 10.696 
130 1 9.55 5.41 3.135 
134 1 10.043 4.578 9.849 
152 1 9.278 4.635 8.653 
45 1 4.688 5.417 22.068 
55 1 4.788 5.329 13.035 
106 1 9.274 4.77 21.771 
137 1 4.788 5.329 19.728 
2 1 7.294 10.585 9.056 
3 1 9.004 7.624 6.127 
6 1 8.556 6.347 6.805 
16 1 2.314 8.72 0.79 
22 1 7.166 6.156 8.653 
26 1 7.226 8.565 7.479 
35 1 7.191 10.764 10.572 
37 1 6.846 9.307 10.993 
39 1 8.214 8.992 6.805 
41 1 6.677 7.002 9.849 
48 1 3.775 6.213 0.79 
61 1 7.294 10.585 1.558 
62 1 9.004 7.624 4.487 
64 1 6.747 9.395 1.961 
68 1 7.437 6.931 3.135 
71 1 4.29 8.493 10.696 
74 1 3.567 7.818 9.824 
81 1 8.556 6.347 3.808 
83 1 6.47 8.606 0.765 
93 1 7.191 10.764 0.042 
97 1 8.214 8.992 3.808 
101 1 2.261 9.954 10.696 
103 1 2.314 8.72 9.824 
117 1 7.166 6.156 1.961 
120 1 7.226 8.565 3.135 
123 1 3.775 6.213 9.824 
129 1 6.677 7.002 0.765 
132 1 6.747 9.395 8.653 
135 1 7.437 6.931 7.479 
141 1 7.244 6.231 10.993 
144 1 6.47 8.606 9.849 
148 1 3.567 7.818 0.79 
161 2 5.876 8.565 7.479 
162 3 5.876 8.565 6.503 
7 1 9.22 6.004 11.865 
10 1 3.558 10.029 21.647 
13 1 2.261 9.954 22.068 
15 1 2.978 8.376 17.88 
28 1 3.5 9.862 20.131 
30 1 4.369 8.568 19.728 
34 1 4.308 6.159 18.554 
40 1 7.76 8.511 11.865 
49 1 4.857 7.722 20.924 
50 1 1.984 9.314 18.554 
58 1 1.491 10.146 11.84 
59 1 4.097 7.793 14.209 
69 1 3.558 10.029 11.117 
73 1 2.978 8.376 14.883 
75 1 5.064 6.118 11.84 
79 1 7.244 6.231 21.771 
82 1 7.967 6.906 20.899 
86 1 3.5 9.862 12.633 
88 1 2.256 10.089 13.035 
108 1 9.22 6.004 20.899 
112 1 4.369 8.568 13.035 
115 1 4.308 6.159 14.209 
124 1 4.857 7.722 11.84 
125 1 1.984 9.314 14.209 
126 1 6.846 9.307 21.771 
128 1 7.76 8.511 20.899 
139 1 1.491 10.146 20.924 
140 1 4.097 7.793 18.554 
143 1 7.967 6.906 11.865 
146 1 4.29 8.493 22.068 
149 1 5.064 6.118 20.924 
157 1 2.256 10.089 19.728 
ITEM: TIMESTEP
10
ITEM: NUMBER OF ATOMS
162
ITEM: BOX BOUNDS xy xz yz pp pp pp
-6.7755000000000001e+00 1.3552000000000000e+01 -6.7755000000000001e+00
0.0000000000000000e+00 1.1735510246683001e+01 0.0000000000000000e+00
0.0000000000000000e+00 2.2149999999999999e+01 0.0000000000000000e+00
ITEM: ATOMS id type x y z 
8 1 -2.40642 5.35798 9.84847 
87 1 2.97913 4.26379 10.6456 
90 1 2.64815 5.44365 9.78252 
109 1 -2.40533 5.35958 0.767281 
158 1 2.64681 5.44121 0.830483 
11 1 4.29545 4.18002 20.1512 
14 1 2.92099 4.10915 19.7113 
18 1 1.34281 5.83608 18.6019 
33 1 2.12662 4.24498 20.9066 
43 1 4.32013 4.11139 21.5742 
47 1 3.25327 5.80342 17.8583 
52 1 4.29647 4.18116 12.6076 
76 1 2.4368 4.88646 14.1889 
85 1 4.32337 4.1254 11.189 
89 1 3.25122 5.80486 14.9059 
91 1 0.984607 5.10045 11.8631 
102 1 2.92129 4.10728 13.0524 
105 1 1.34157 5.8354 14.1613 
114 1 2.12523 4.24418 11.8594 
150 1 2.43528 4.88663 18.5747 
156 1 2.97592 4.26692 22.1162 
159 1 0.985868 5.09965 20.9003 
5 1 -4.88542 10.6179 8.59785 
9 1 -3.27375 8.88185 7.55099 
19 1 -1.77134 7.50182 10.5654 
21 1 -2.61624 8.7569 10.9098 
23 1 -3.30424 7.5521 6.86569 
25 1 -4.14746 10.4831 9.81867 
32 1 1.58063 6.33342 0.783717 
36 1 -1.89298 7.52845 9.06295 
38 1 -2.15669 6.19666 8.64698 
54 1 0.291688 8.52376 10.6806 
57 1 1.34293 7.99655 9.78248 
60 1 -1.76385 7.50296 0.0576905 
65 1 -3.31751 7.51112 3.76805 
78 1 -1.911 7.53437 1.55941 
80 1 -2.56968 8.7883 1.88553 
84 1 -4.45194 9.82655 3.10421 
99 1 -3.00391 9.63029 0.792921 
100 1 -2.92254 6.24208 3.17833 
107 1 -4.92999 10.6057 1.98779 
110 1 -3.35013 8.87385 3.09016 
111 1 0.602315 5.96619 10.7768 
113 1 1.58129 6.33249 9.83233 
119 1 -4.13805 10.4823 0.801569 
127 1 -2.15345 6.20619 1.96514 
131 1 -2.30931 6.20703 11.0076 
138 1 1.34324 7.9961 0.831863 
142 1 -2.55982 8.79373 8.73305 
145 1 -4.48174 9.75289 7.50465 
151 1 -4.98989 10.4645 11.0516 
154 1 -3.0097 9.63127 9.83652 
155 1 -2.9134 6.22994 7.44107 
12 1 2.59347 7.0768 17.1093 
17 1 0.39039 9.3643 20.9215 
24 1 -3.53426 8.39041 11.8497 
27 1 -0.253586 7.21631 21.6319 
29 1 0.599364 5.96677 21.9834 
31 1 1.27126 7.19764 17.8952 
44 1 -0.104072 7.18269 20.1348 
46 1 0.136574 8.52107 19.7242 
51 1 -0.255547 7.21711 11.1323 
53 1 2.59507 7.0782 15.6524 
56 1 1.27193 7.20015 14.8682 
63 1 -2.30722 6.20136 21.7566 
66 1 -3.3665 6.73949 20.8557 
70 1 -0.103843 7.18181 12.6295 
72 1 0.550366 5.93677 12.962 
92 1 0.901399 8.5035 14.2421 
95 1 -4.98559 10.465 21.7057 
98 1 -4.68953 9.22157 20.8505 
104 1 0.389958 9.3642 11.8416 
116 1 -2.61759 8.7562 21.8455 
118 1 -3.55188 8.39411 20.9116 
122 1 0.136149 8.52075 13.0387 
133 1 -3.36978 6.74589 11.9045 
136 1 0.291122 8.52384 22.0832 
147 1 0.550326 5.93609 19.8023 
153 1 -4.67663 9.21592 11.9015 
160 1 0.901176 8.50416 18.5217 
1 1 7.89695 4.92594 10.5311 
4 1 9.18515 4.78329 11.0368 
20 1 7.88318 4.9262 9.06943 
42 1 9.49422 5.40543 7.44149 
67 1 9.98733 4.53746 0.753578 
77 1 7.89764 4.93294 0.0732534 
94 1 7.87456 4.93098 1.54662 
96 1 9.21055 4.63475 1.99539 
121 1 4.68801 5.40368 10.7355 
130 1 9.47121 5.41133 3.18483 
134 1 9.98918 4.54069 9.86569 
152 1 9.20967 4.63826 8.6149 
45 1 4.69725 5.40489 22.0423 
55 1 4.81849 5.48189 13.0633 
106 1 9.17918 4.77642 21.73 
137 1 4.81672 5.47891 19.6955 
2 1 7.26754 10.6098 9.12155 
3 1 8.9284 7.73194 6.0719 
6 1 8.53141 6.36224 6.84035 
16 1 2.33688 8.7012 0.841296 
22 1 7.15217 6.19193 8.7196 
26 1 7.06828 8.43802 7.39948 
35 1 7.24301 10.5942 10.5664 
37 1 6.84407 9.30183 11.041 
39 1 8.23906 8.95001 6.7654 
41 1 6.73826 7.02037 9.83487 
48 1 3.73106 6.35477 0.85786 
61 1 7.23423 10.5437 1.54506 
62 1 8.95626 7.6604 4.52293 
64 1 6.71692 9.24251 1.98512 
68 1 7.41024 6.96849 3.05798 
71 1 4.29337 8.55382 10.7929 
74 1 3.63516 7.81138 9.84182 
81 1 8.56084 6.41486 3.77205 
83 1 6.54781 8.44705 0.789776 
93 1 7.19574 10.5974 0.106107 
97 1 8.26928 8.9348 3.82676 
101 1 2.35332 9.9548 10.6574 
103 1 2.33809 8.70114 9.77302 
117 1 7.14843 6.2013 1.89127 
120 1 7.17215 8.43425 3.06023 
123 1 3.73352 6.35271 9.75959 
129 1 6.73835 7.01947 0.776714 
132 1 6.73257 9.32985 8.74667 
135 1 7.44681 6.85433 7.56488 
141 1 7.24565 6.19256 10.9105 
144 1 6.5379 8.44194 9.84271 
148 1 3.63439 7.8115 0.775393 
161 2 5.76553 8.48816 7.37659 
162 3 5.9207 8.56253 6.46893 
7 1 9.19518 6.03405 11.9044 
10 1 3.63806 9.78997 21.6032 
13 1 2.35396 9.95561 22.1072 
15 1 2.99103 8.31883 17.9103 
28 1 3.65358 9.78173 20.1426 
30 1 4.37901 8.53071 19.8041 
34 1 4.34782 6.29202 18.6276 
40 1 7.73467 8.38593 11.8764 
49 1 4.79736 7.70732 20.9028 
50 1 2.07106 9.30933 18.5126 
58 1 1.54721 10.1833 11.8361 
59 1 4.1263 7.75687 14.1301 
69 1 3.63888 9.79015 11.1597 
73 1 2.98811 8.31681 14.8518 
75 1 4.98969 6.27787 11.8693 
79 1 7.2455 6.17897 21.864 
82 1 7.89328 6.96348 20.9167 
86 1 3.65381 9.78108 12.6195 
88 1 2.32893 10.0793 13.0721 
108 1 9.19718 6.02429 20.853 
112 1 4.3802 8.52886 12.9592 
115 1 4.34794 6.29318 14.1364 
124 1 4.79432 7.70496 11.8574 
125 1 2.07275 9.30779 14.2521 
126 1 6.86112 9.29232 21.7891 
128 1 7.75969 8.37648 20.8743 
139 1 1.54684 10.1835 20.9263 
140 1 4.12817 7.75681 18.6341 
143 1 7.89224 6.97216 11.8338 
146 1 4.29244 8.55668 21.9724 
149 1 4.99487 6.28264 20.8846 
157 1 2.32726 10.0786 19.6924 
ITEM: TIMESTEP
20
ITEM: NUMBER OF ATOMS
162
ITEM: BOX BOUNDS xy xz yz pp pp pp
-6.7755000000000001e+00 1.3552000000000000e+01 -6.7755000000000001e+00
0.0000000000000000e+00 1.1735510246683001e+01 0.0000000000000000e+00
0.0000000000000000e+00 2.2149999999999999e+01 0.0000000000000000e+00
ITEM: ATOMS id type x y z 
8 1 -2.41635 5.3797 9.84613 
87 1 2.96169 4.26761 10.656 
90 1 2.6706 5.45106 9.77772 
109 1 -2.41866 5.38113 0.770921 
158 1 2.67079 5.45102 0.836972 
11 1 4.28685 4.20179 20.1264 
14 1 2.8998 4.13629 19.6967 
18 1 1.30874 5.85823 18.587 
33 1 2.11302 4.25852 20.9087 
43 1 4.31155 4.15874 21.5797 
47 1 3.25942 5.78399 17.8487 
52 1 4.28777 4.20129 12.6391 
76 1 2.45387 4.91246 14.1751 
85 1 4.3087 4.16022 11.1858 
89 1 3.25871 5.78478 14.9146 
91 1 0.976068 5.11256 11.8547 
102 1 2.90067 4.13618 13.0668 
105 1 1.3087 5.85779 14.1769 
114 1 2.11252 4.25798 11.8549 
150 1 2.45353 4.91291 18.5876 
156 1 2.9616 4.26881 22.1061 
159 1 0.975998 5.11236 20.9093 
5 1 -4.88896 10.5776 8.60688 
9 1 -3.27124 8.86088 7.53606 
19 1 -1.7604 7.49955 10.5523 
21 1 -2.61385 8.77338 10.9437 
23 1 -3.31818 7.56669 6.86589 
25 1 -4.13271 10.4689 9.81793 
32 1 1.59359 6.35159 0.773768 
36 1 -1.8788 7.53268 9.07056 
38 1 -2.1582 6.21517 8.64443 
54 1 0.305188 8.50832 10.6761 
57 1 1.35633 7.99435 9.79204 
60 1 -1.75854 7.49948 0.0650518 
65 1 -3.31025 7.53049 3.77618 
78 1 -1.89815 7.54805 1.55028 
80 1 -2.559 8.79261 1.88546 
84 1 -4.46768 9.81009 3.09844 
99 1 -2.99613 9.61722 0.7876 
100 1 -2.93057 6.25438 3.172 
107 1 -4.923 10.589 1.99332 
110 1 -3.32629 8.87001 3.10043 
111 1 0.61327 5.96762 10.7511 
113 1 1.59535 6.35109 9.8407 
119 1 -4.13016 10.466 0.775138 
127 1 -2.15835 6.21633 1.97001 
131 1 -2.32694 6.21513 11.0139 
138 1 1.35624 7.99426 0.821818 
142 1 -2.53778 8.79599 8.73173 
145 1 -4.47793 9.73885 7.51474 
151 1 -4.96538 10.4215 11.0547 
154 1 -3.00161 9.6288 9.83772 
155 1 -2.93001 6.27159 7.43763 
12 1 2.55223 7.07566 17.1481 
17 1 0.39954 9.34118 20.9146 
24 1 -3.54105 8.36867 11.8482 
27 1 -0.251082 7.20628 21.6311 
29 1 0.61227 5.96766 22.0112 
31 1 1.29174 7.19602 17.9071 
44 1 -0.117158 7.1742 20.1358 
46 1 0.144697 8.50648 19.7207 
51 1 -0.250774 7.20621 11.1337 
53 1 2.55263 7.07504 15.6151 
56 1 1.2912 7.19598 14.8564 
63 1 -2.32441 6.21646 21.752 
66 1 -3.38202 6.76094 20.8659 
70 1 -0.11751 7.17406 12.6278 
72 1 0.543732 5.93411 12.9643 
92 1 0.914188 8.4558 14.2501 
95 1 -4.97724 10.4266 21.7281 
98 1 -4.67707 9.22006 20.8636 
104 1 0.399634 9.34139 11.8489 
116 1 -2.6193 8.77056 21.8143 
118 1 -3.55252 8.37436 20.919 
122 1 0.144373 8.50678 13.0426 
133 1 -3.38187 6.76663 11.8955 
136 1 0.305662 8.50917 22.0878 
147 1 0.543411 5.93474 19.7991 
153 1 -4.66381 9.20919 11.8972 
160 1 0.914319 8.4549 18.5131 
1 1 7.87133 4.92798 10.5258 
4 1 9.17433 4.8082 11.0277 
20 1 7.86943 4.92793 9.07386 
42 1 9.48735 5.42302 7.44478 
67 1 9.97818 4.55713 0.758685 
77 1 7.87233 4.93083 0.0858525 
94 1 7.86143 4.9452 1.54486 
96 1 9.1901 4.65687 1.99573 
121 1 4.66641 5.4589 10.7112 
130 1 9.47025 5.42983 3.17098 
134 1 9.98022 4.55675 9.85887 
152 1 9.19583 4.65419 8.62014 
45 1 4.66739 5.45805 22.0494 
55 1 4.81439 5.48933 13.063 
106 1 9.17505 4.80136 21.7381 
137 1 4.81443 5.48918 19.6993 
2 1 7.28362 10.5685 9.08761 
3 1 8.941 7.73675 6.09906 
6 1 8.52107 6.36887 6.84202 
16 1 2.35247 8.69647 0.844767 
22 1 7.14287 6.19173 8.71224 
26 1 7.03621 8.43823 7.42914 
35 1 7.25363 10.5741 10.5678 
37 1 6.84562 9.27001 11.0544 
39 1 8.25908 8.92947 6.74574 
41 1 6.7342 7.01212 9.82659 
48 1 3.70302 6.36132 0.828801 
61 1 7.25494 10.5195 1.5515 
62 1 8.97134 7.66552 4.52344 
64 1 6.71469 9.23173 1.98288 
68 1 7.40414 6.96895 3.0501 
71 1 4.30466 8.53014 10.7645 
74 1 3.60535 7.78438 9.82962 
81 1 8.52519 6.39433 3.78011 
83 1 6.54735 8.43388 0.796018 
93 1 7.24028 10.5717 0.105626 
97 1 8.26962 8.94035 3.83957 
101 1 2.35977 9.93329 10.6675 
103 1 2.35311 8.69592 9.76924 
117 1 7.13735 6.1925 1.90045 
120 1 7.18486 8.41806 3.06561 
123 1 3.7031 6.36046 9.78575 
129 1 6.72918 7.00553 0.781502 
132 1 6.74682 9.30305 8.74611 
135 1 7.44583 6.8594 7.56515 
141 1 7.23506 6.21542 10.9119 
144 1 6.54757 8.45142 9.82834 
148 1 3.60623 7.78442 0.784348 
161 2 5.75692 8.48152 7.37644 
162 3 5.9198 8.56145 6.44578 
7 1 9.17624 6.05374 11.9064 
10 1 3.65806 9.79375 21.5974 
13 1 2.35972 9.93349 22.0967 
15 1 3.01284 8.33369 17.9041 
28 1 3.6736 9.78211 20.1399 
30 1 4.39729 8.52978 19.7946 
34 1 4.33866 6.30075 18.6251 
40 1 7.73759 8.386 11.8788 
49 1 4.80455 7.72072 20.9075 
50 1 2.06615 9.28817 18.5161 
58 1 1.55505 10.1671 11.8383 
59 1 4.13395 7.75697 14.1259 
69 1 3.65926 9.79536 11.1646 
73 1 3.01373 8.33379 14.8591 
75 1 4.98947 6.27892 11.859 
79 1 7.24012 6.20337 21.8357 
82 1 7.91619 6.9614 20.9131 
86 1 3.67351 9.78162 12.6233 
88 1 2.345 10.0642 13.0709 
108 1 9.18284 6.04302 20.8523 
112 1 4.39764 8.52948 12.9714 
115 1 4.3391 6.30167 14.1388 
124 1 4.80444 7.7208 11.8554 
125 1 2.06593 9.28865 14.2465 
126 1 6.85735 9.24514 21.7616 
128 1 7.74807 8.3776 20.8866 
139 1 1.55503 10.1674 20.926 
140 1 4.13533 7.75748 18.6379 
143 1 7.91616 6.96579 11.8422 
146 1 4.30444 8.52863 21.9973 
149 1 4.98937 6.27962 20.9045 
157 1 2.34464 10.0644 19.693 
ITEM: TIMESTEP
30
ITEM: NUMBER OF ATOMS
162
ITEM: BOX BOUNDS xy xz yz pp pp pp
-6.7755000000000001e+00 1.3552000000000000e+01 -6.7755000000000001e+00
0.0000000000000000e+00 1.1735510246683001e+01 0.0000000000000000e+00
0.0000000000000000e+00 2.2149999999999999e+01 0.0000000000000000e+00
ITEM: ATOMS id type x y z 
8 1 -2.42949 5.40282 9.84431 
87 1 2.95504 4.276 10.651 
90 1 2.65376 5.44069 9.77255 
109 1 -2.43062 5.406 0.774868 
158 1 2.65394 5.44042 0.840584 
11 1 4.27411 4.2231 20.1232 
14 1 2.88732 4.1483 19.708 
18 1 1.30075 5.84926 18.5757 
33 1 2.09377 4.26826 20.9014 
43 1 4.29376 4.19958 21.5643 
47 1 3.24864 5.79863 17.8325 
52 1 4.27503 4.22256 12.641 
76 1 2.43938 4.9265 14.1809 
85 1 4.29255 4.20155 11.2022 
89 1 3.2484 5.79871 14.9307 
91 1 0.961877 5.12318 11.8415 
102 1 2.88729 4.14776 13.0557 
105 1 1.30057 5.84929 14.1888 
114 1 2.09374 4.26788 11.8625 
150 1 2.4388 4.92655 18.5824 
156 1 2.95491 4.27728 22.1115 
159 1 0.961441 5.12339 20.9221 
5 1 -4.87641 10.5515 8.61773 
9 1 -3.26882 8.8606 7.53476 
19 1 -1.75416 7.51085 10.5566 
21 1 -2.58859 8.78861 10.9613 
23 1 -3.31492 7.57587 6.85123 
25 1 -4.10846 10.4536 9.81699 
32 1 1.60499 6.37284 0.779854 
36 1 -1.86012 7.54369 9.0753 
38 1 -2.15433 6.23536 8.63948 
54 1 0.316733 8.49492 10.6751 
57 1 1.36429 7.98414 9.79528 
60 1 -1.75789 7.51387 0.05839 
65 1 -3.30222 7.54229 3.78858 
78 1 -1.8797 7.56157 1.54984 
80 1 -2.54172 8.79551 1.89587 
84 1 -4.45994 9.79862 3.10209 
99 1 -2.97739 9.60534 0.772755 
100 1 -2.93672 6.27568 3.17088 
107 1 -4.90496 10.5755 1.98142 
110 1 -3.31787 8.87555 3.11307 
111 1 0.608742 5.96493 10.7299 
113 1 1.60558 6.37368 9.83369 
119 1 -4.11022 10.4549 0.783015 
127 1 -2.15807 6.23542 1.9722 
131 1 -2.33561 6.22891 11.0152 
138 1 1.36608 7.98347 0.819746 
142 1 -2.50804 8.80596 8.71078 
145 1 -4.46047 9.71603 7.50757 
151 1 -4.9527 10.3918 11.0526 
154 1 -2.97716 9.6143 9.85505 
155 1 -2.93848 6.28859 7.44428 
12 1 2.5663 7.0753 17.1471 
17 1 0.412461 9.31865 20.9108 
24 1 -3.52617 8.34294 11.8574 
27 1 -0.248679 7.18871 21.6349 
29 1 0.608637 5.96566 22.0336 
31 1 1.2831 7.18343 17.8965 
44 1 -0.137064 7.16002 20.1395 
46 1 0.14062 8.48781 19.7185 
51 1 -0.246516 7.1893 11.1292 
53 1 2.56493 7.07648 15.6145 
56 1 1.28108 7.18265 14.8668 
63 1 -2.33602 6.23231 21.751 
66 1 -3.39066 6.78254 20.8697 
70 1 -0.137071 7.16001 12.6252 
72 1 0.524854 5.92966 12.9714 
92 1 0.916376 8.45012 14.2455 
95 1 -4.96749 10.3985 21.7252 
98 1 -4.67121 9.20716 20.8575 
104 1 0.412429 9.31711 11.8512 
116 1 -2.59052 8.77779 21.8006 
118 1 -3.5412 8.34936 20.9111 
122 1 0.140702 8.48824 13.0448 
133 1 -3.38878 6.7846 11.8941 
136 1 0.315551 8.49603 22.0902 
147 1 0.525001 5.9299 19.7923 
153 1 -4.6629 9.19847 11.9106 
160 1 0.916108 8.45137 18.5182 
1 1 7.83641 4.93122 10.5294 
4 1 9.1523 4.8352 11.0177 
20 1 7.84608 4.92665 9.06997 
42 1 9.47789 5.44077 7.44778 
67 1 9.96574 4.57849 0.767774 
77 1 7.84022 4.93182 0.0800013 
94 1 7.83893 4.94415 1.54588 
96 1 9.16938 4.67822 1.99445 
121 1 4.64943 5.49479 10.6914 
130 1 9.45166 5.45432 3.16926 
134 1 9.96961 4.5778 9.8545 
152 1 9.17831 4.67192 8.62097 
45 1 4.64965 5.49502 22.0715 
55 1 4.81636 5.51537 13.063 
106 1 9.15327 4.82843 21.7483 
137 1 4.81586 5.51415 19.7001 
2 1 7.3025 10.5381 9.09116 
3 1 8.93364 7.73956 6.09899 
6 1 8.51879 6.37995 6.83142 
16 1 2.36228 8.69628 0.857579 
22 1 7.12565 6.18052 8.70342 
26 1 7.01308 8.42979 7.422 
35 1 7.26307 10.555 10.5636 
37 1 6.8534 9.25361 11.0626 
39 1 8.26209 8.90919 6.72915 
41 1 6.71717 7.00926 9.82318 
48 1 3.70301 6.35073 0.824457 
61 1 7.26692 10.4957 1.55146 
62 1 8.97157 7.65256 4.53462 
64 1 6.71599 9.20821 1.98703 
68 1 7.39296 6.96244 3.05891 
71 1 4.31554 8.52122 10.7486 
74 1 3.59379 7.79937 9.81321 
81 1 8.51447 6.39578 3.80133 
83 1 6.53982 8.41247 0.806596 
93 1 7.25554 10.5269 0.114713 
97 1 8.28367 8.92417 3.85511 
101 1 2.38302 9.91528 10.682 
103 1 2.36134 8.69661 9.75663 
117 1 7.10909 6.18035 1.90897 
120 1 7.19286 8.41714 3.07216 
123 1 3.7032 6.3502 9.78876 
129 1 6.7108 6.99356 0.778785 
132 1 6.74399 9.27985 8.73569 
135 1 7.4353 6.8635 7.55873 
141 1 7.22184 6.22136 10.911 
144 1 6.5513 8.44043 9.83366 
148 1 3.59303 7.79962 0.800289 
161 2 5.73781 8.46453 7.35362 
162 3 5.91347 8.55978 6.42054 
7 1 9.16016 6.06358 11.912 
10 1 3.69025 9.7906 21.6008 
13 1 2.38275 9.91584 22.0825 
15 1 3.01644 8.32893 17.8922 
28 1 3.70002 9.78179 20.139 
30 1 4.42346 8.53843 19.784 
34 1 4.33522 6.30707 18.6179 
40 1 7.74073 8.38614 11.8998 
49 1 4.82118 7.7286 20.9134 
50 1 2.08065 9.27423 18.5188 
58 1 1.56533 10.1467 11.8456 
59 1 4.1441 7.76271 14.1322 
69 1 3.69143 9.79215 11.1622 
73 1 3.01794 8.33065 14.8721 
75 1 4.99011 6.30303 11.8672 
79 1 7.22593 6.20519 21.8255 
82 1 7.92425 6.9557 20.891 
86 1 3.69933 9.78054 12.6236 
88 1 2.36673 10.0458 13.071 
108 1 9.16842 6.05529 20.8464 
112 1 4.4236 8.53883 12.9795 
115 1 4.33534 6.3064 14.1455 
124 1 4.82049 7.72828 11.8497 
125 1 2.08135 9.27395 14.2447 
126 1 6.85297 9.22757 21.7507 
128 1 7.74642 8.38206 20.8743 
139 1 1.56506 10.1472 20.9181 
140 1 4.144 7.76285 18.6315 
143 1 7.91911 6.95515 11.863 
146 1 4.31262 8.52068 22.0137 
149 1 4.9905 6.30291 20.8955 
157 1 2.36575 10.0461 19.692 
ITEM: TIMESTEP
40
ITEM: NUMBER OF ATOMS
162
ITEM: BOX BOUNDS xy xz yz pp pp pp
-6.7755000000000001e+00 1.3552000000000000e+01 -6.7755000000000001e+00
0.0000000000000000e+00 1.1735510246683001e+01 0.0000000000000000e+00
0.0000000000000000e+00 2.2149999999999999e+01 0.0000000000000000e+00
ITEM: ATOMS id type x y z 
8 1 -2.4485 5.44094 9.83718 
87 1 2.9469 4.30147 10.6443 
90 1 2.64004 5.44561 9.7457 
109 1 -2.45098 5.44309 0.78275 
158 1 2.64002 5.44583 0.865934 
11 1 4.25504 4.25573 20.103 
14 1 2.86828 4.16618 19.7263 
18 1 1.28676 5.83797 18.5645 
33 1 2.07292 4.28234 20.9017 
43 1 4.2708 4.24904 21.5415 
47 1 3.22166 5.82552 17.8179 
52 1 4.25485 4.25639 12.6579 
76 1 2.41038 4.92672 14.1949 
85 1 4.27117 4.25124 11.2253 
89 1 3.22348 5.82338 14.9441 
91 1 0.931532 5.13681 11.8314 
102 1 2.86885 4.16493 13.0372 
105 1 1.28763 5.84036 14.2024 
114 1 2.07307 4.28206 11.8623 
150 1 2.41096 4.92766 18.5687 
156 1 2.94438 4.30212 22.1199 
159 1 0.930906 5.13789 20.931 
5 1 -4.86145 10.5063 8.63077 
9 1 -3.24937 8.84711 7.53443 
19 1 -1.74755 7.53702 10.5658 
21 1 -2.54192 8.78875 10.9871 
23 1 -3.30835 7.58656 6.83829 
25 1 -4.07193 10.4283 9.82697 
32 1 1.59185 6.38159 0.80543 
36 1 -1.83123 7.57485 9.07152 
38 1 -2.14688 6.26439 8.64239 
54 1 0.333946 8.4748 10.6732 
57 1 1.37897 7.98352 9.78676 
60 1 -1.74982 7.54055 0.0549711 
65 1 -3.2964 7.55102 3.80006 
78 1 -1.85054 7.58822 1.55364 
80 1 -2.5144 8.80851 1.90897 
84 1 -4.43608 9.79036 3.11312 
99 1 -2.93942 9.59198 0.763845 
100 1 -2.94162 6.29594 3.16685 
107 1 -4.87949 10.5516 1.96928 
110 1 -3.30239 8.8753 3.13224 
111 1 0.586001 5.96069 10.7119 
113 1 1.59451 6.3822 9.80746 
119 1 -4.08525 10.4297 0.773808 
127 1 -2.15342 6.26666 1.97453 
131 1 -2.34827 6.25487 11.0185 
138 1 1.37878 7.98304 0.826976 
142 1 -2.46521 8.82206 8.68752 
145 1 -4.44575 9.68884 7.49528 
151 1 -4.93233 10.3476 11.0569 
154 1 -2.92131 9.59525 9.85822 
155 1 -2.93752 6.30074 7.45385 
12 1 2.57793 7.07355 17.1383 
17 1 0.433678 9.28183 20.9055 
24 1 -3.49882 8.33674 11.8791 
27 1 -0.247788 7.16372 21.6431 
29 1 0.585125 5.96206 22.0531 
31 1 1.29172 7.17136 17.8673 
44 1 -0.163662 7.13047 20.1396 
46 1 0.130251 8.45841 19.7179 
51 1 -0.245596 7.16079 11.1223 
53 1 2.57913 7.07516 15.6294 
56 1 1.2907 7.17229 14.8923 
63 1 -2.34859 6.25605 21.752 
66 1 -3.39687 6.79453 20.8645 
70 1 -0.163542 7.13065 12.6265 
72 1 0.493729 5.91773 12.9883 
92 1 0.914247 8.45662 14.234 
95 1 -4.95405 10.3515 21.7273 
98 1 -4.65553 9.17444 20.8334 
104 1 0.433708 9.28233 11.8594 
116 1 -2.54714 8.78809 21.7825 
118 1 -3.50967 8.33941 20.8911 
122 1 0.129437 8.45848 13.0452 
133 1 -3.39652 6.79139 11.898 
136 1 0.332531 8.47317 22.0889 
147 1 0.494325 5.91802 19.7753 
153 1 -4.64544 9.17225 11.9324 
160 1 0.913447 8.45809 18.5312 
1 1 7.77904 4.92298 10.5276 
4 1 9.11478 4.87546 11.0064 
20 1 7.8063 4.92482 9.06374 
42 1 9.46405 5.46297 7.45346 
67 1 9.93992 4.62124 0.77665 
77 1 7.78351 4.92267 0.0755462 
94 1 7.79274 4.95015 1.54779 
96 1 9.12914 4.71245 1.99316 
121 1 4.63345 5.53159 10.6894 
130 1 9.43123 5.47924 3.1647 
134 1 9.94535 4.61943 9.85003 
152 1 9.14463 4.69732 8.62642 
45 1 4.63355 5.53327 22.0755 
55 1 4.81779 5.55773 13.0661 
106 1 9.11736 4.86943 21.7597 
137 1 4.81695 5.55639 19.6978 
2 1 7.32784 10.4887 9.0921 
3 1 8.92461 7.74464 6.09786 
6 1 8.51715 6.39156 6.81886 
16 1 2.37573 8.7032 0.874593 
22 1 7.08645 6.16123 8.69035 
26 1 6.98974 8.42328 7.39606 
35 1 7.286 10.5249 10.5491 
37 1 6.86031 9.21838 11.0669 
39 1 8.24944 8.90751 6.73209 
41 1 6.68585 7.01419 9.819 
48 1 3.68725 6.35779 0.855826 
61 1 7.28543 10.4602 1.56595 
62 1 8.96445 7.65224 4.55574 
64 1 6.72014 9.16937 1.99466 
68 1 7.37154 6.94936 3.0717 
71 1 4.33744 8.51674 10.7274 
74 1 3.60345 7.80827 9.78739 
81 1 8.50195 6.39929 3.81478 
83 1 6.53183 8.3871 0.804366 
93 1 7.2719 10.48 0.12893 
97 1 8.30219 8.91403 3.86236 
101 1 2.41863 9.8896 10.6973 
103 1 2.37602 8.70275 9.7387 
117 1 7.06322 6.16444 1.9277 
120 1 7.19951 8.39633 3.08672 
123 1 3.68454 6.35986 9.75672 
129 1 6.68107 6.97113 0.784088 
132 1 6.738 9.24406 8.73597 
135 1 7.41262 6.86412 7.54442 
141 1 7.19732 6.23014 10.9213 
144 1 6.55639 8.41653 9.83512 
148 1 3.6023 7.80833 0.826496 
161 2 5.7096 8.44031 7.31361 
162 3 5.89723 8.55747 6.37949 
7 1 9.13951 6.07886 11.9169 
10 1 3.74321 9.79775 21.6021 
13 1 2.41794 9.8897 22.0674 
15 1 3.01941 8.31421 17.8684 
28 1 3.74594 9.77366 20.1401 
30 1 4.47191 8.55427 19.7634 
34 1 4.33294 6.33032 18.6015 
40 1 7.74406 8.37351 11.9335 
49 1 4.84739 7.74812 20.9119 
50 1 2.09673 9.25733 18.5288 
58 1 1.5891 10.1105 11.8548 
59 1 4.16599 7.76899 14.1391 
69 1 3.74502 9.7989 11.16 
73 1 3.01718 8.31421 14.8908 
75 1 4.99269 6.33219 11.8668 
79 1 7.19838 6.21278 21.8098 
82 1 7.9013 6.94679 20.8597 
86 1 3.74582 9.77317 12.6232 
88 1 2.40562 10.0159 13.0774 
108 1 9.14723 6.06873 20.8406 
112 1 4.47188 8.55438 12.9987 
115 1 4.33306 6.32967 14.1614 
124 1 4.84778 7.74583 11.8508 
125 1 2.09956 9.25592 14.2371 
126 1 6.85569 9.1901 21.7478 
128 1 7.74708 8.37094 20.8471 
139 1 1.58835 10.1104 20.909 
140 1 4.1689 7.76787 18.6277 
143 1 7.89629 6.94783 11.8933 
146 1 4.33222 8.51683 22.0331 
149 1 4.9919 6.33199 20.8949 
157 1 2.40498 10.0156 19.6845 
ITEM: TIMESTEP
50
ITEM: NUMBER OF ATOMS
162
ITEM: BOX BOUNDS xy xz yz pp pp pp
-6.7755000000000001e+00 1.3552000000000000e+01 -6.7755000000000001e+00
0.0000000000000000e+00 1.1735510246683001e+01 0.0000000000000000e+00
0.0000000000000000e+00 2.2149999999999999e+01 0.0000000000000000e+00
ITEM: ATOMS id type x y z 
8 1 -2.45119 5.44733 9.83857 
87 1 2.93827 4.30642 10.6492 
90 1 2.63561 5.44836 9.74335 
109 1 -2.45468 5.44981 0.782793 
158 1 2.63535 5.44816 0.869716 
11 1 4.25455 4.26846 20.1028 
14 1 2.85621 4.17961 19.7095 
18 1 1.27497 5.84491 18.5597 
33 1 2.06979 4.29011 20.9094 
43 1 4.2642 4.26057 21.5393 
47 1 3.2295 5.8123 17.8178 
52 1 4.25476 4.26862 12.6617 
76 1 2.41804 4.936 14.1907 
85 1 4.26428 4.26155 11.2247 
89 1 3.23533 5.80231 14.9342 
91 1 0.931073 5.13709 11.8347 
102 1 2.85701 4.17859 13.053 
105 1 1.27332 5.85104 14.2071 
114 1 2.06968 4.28982 11.8541 
150 1 2.41689 4.93698 18.5746 
156 1 2.93749 4.30562 22.1141 
159 1 0.930242 5.1376 20.9292 
5 1 -4.84799 10.4983 8.63341 
9 1 -3.2466 8.84765 7.52538 
19 1 -1.7432 7.5393 10.5636 
21 1 -2.53899 8.79544 10.988 
23 1 -3.30868 7.57285 6.83754 
25 1 -4.06612 10.416 9.82907 
32 1 1.58888 6.38208 0.80737 
36 1 -1.82394 7.57667 9.07189 
38 1 -2.14465 6.2692 8.64223 
54 1 0.33645 8.46897 10.676 
57 1 1.38406 7.98058 9.78385 
60 1 -1.74822 7.54305 0.0557191 
65 1 -3.30088 7.54614 3.8031 
78 1 -1.84522 7.59206 1.55515 
80 1 -2.50919 8.81135 1.91041 
84 1 -4.43683 9.78817 3.11225 
99 1 -2.93366 9.59293 0.76349 
100 1 -2.94195 6.29687 3.16627 
107 1 -4.87289 10.5433 1.97292 
110 1 -3.29141 8.87811 3.13067 
111 1 0.587952 5.9574 10.7057 
113 1 1.58899 6.38196 9.80595 
119 1 -4.08247 10.424 0.771998 
127 1 -2.15259 6.27141 1.97499 
131 1 -2.3496 6.25691 11.0185 
138 1 1.38362 7.98058 0.829766 
142 1 -2.45199 8.8289 8.69704 
145 1 -4.4504 9.69209 7.49722 
151 1 -4.92496 10.3445 11.0512 
154 1 -2.91821 9.59595 9.86117 
155 1 -2.93888 6.30303 7.45249 
12 1 2.56437 7.07372 17.1537 
17 1 0.437047 9.27436 20.9028 
24 1 -3.49266 8.33507 11.8829 
27 1 -0.248418 7.16297 21.6413 
29 1 0.586523 5.95931 22.0582 
31 1 1.28886 7.1805 17.8752 
44 1 -0.167473 7.12853 20.1381 
46 1 0.133051 8.45318 19.7168 
51 1 -0.244941 7.16226 11.1243 
53 1 2.56739 7.07167 15.6409 
56 1 1.28044 7.18346 14.8708 
63 1 -2.35049 6.26099 21.7531 
66 1 -3.39748 6.79519 20.8632 
70 1 -0.167504 7.12919 12.6274 
72 1 0.49123 5.91186 12.9866 
92 1 0.920309 8.42819 14.2421 
95 1 -4.95163 10.3462 21.7277 
98 1 -4.65359 9.17014 20.8294 
104 1 0.437149 9.2742 11.8614 
116 1 -2.54294 8.78918 21.7779 
118 1 -3.50193 8.33872 20.8881 
122 1 0.133053 8.45299 13.0475 
133 1 -3.39718 6.79513 11.9006 
136 1 0.335678 8.46856 22.0879 
147 1 0.49027 5.91237 19.7786 
153 1 -4.64342 9.16721 11.937 
160 1 0.919932 8.43576 18.5243 
1 1 7.76542 4.91036 10.5285 
4 1 9.10909 4.88574 11.0046 
20 1 7.80198 4.93308 9.06326 
42 1 9.46481 5.46493 7.45811 
67 1 9.93403 4.62994 0.773619 
77 1 7.76861 4.90907 0.0737874 
94 1 7.78854 4.95415 1.54913 
96 1 9.11815 4.71625 1.99329 
121 1 4.62817 5.5368 10.6844 
130 1 9.43225 5.48211 3.16381 
134 1 9.94035 4.62644 9.85277 
152 1 9.13422 4.7023 8.62178 
45 1 4.62743 5.53641 22.0785 
55 1 4.8138 5.55407 13.0701 
106 1 9.11508 4.87986 21.7621 
137 1 4.81298 5.55365 19.6926 
2 1 7.32598 10.4777 9.08861 
3 1 8.92234 7.7499 6.09863 
6 1 8.50824 6.39592 6.82442 
16 1 2.37865 8.70284 0.876021 
22 1 7.08303 6.16434 8.67797 
26 1 6.98699 8.42196 7.3987 
35 1 7.28938 10.5124 10.5602 
37 1 6.87056 9.22149 11.0746 
39 1 8.24266 8.90834 6.73583 
41 1 6.6861 6.98817 9.81782 
48 1 3.68718 6.36057 0.85856 
61 1 7.28778 10.4516 1.56849 
62 1 8.96563 7.65687 4.55235 
64 1 6.72233 9.16931 1.99271 
68 1 7.36897 6.94531 3.07566 
71 1 4.34227 8.51374 10.7258 
74 1 3.60397 7.81004 9.78329 
81 1 8.4991 6.40081 3.81606 
83 1 6.52896 8.38427 0.806039 
93 1 7.27766 10.4679 0.131133 
97 1 8.29869 8.91864 3.86095 
101 1 2.42302 9.8841 10.6987 
103 1 2.37915 8.70277 9.73774 
117 1 7.05592 6.15857 1.93198 
120 1 7.20071 8.39382 3.09186 
123 1 3.68775 6.36097 9.75459 
129 1 6.6756 6.96488 0.782614 
132 1 6.74145 9.24052 8.72112 
135 1 7.41263 6.85926 7.54727 
141 1 7.18912 6.23803 10.922 
144 1 6.55014 8.42029 9.83206 
148 1 3.60326 7.80988 0.830504 
161 2 5.70552 8.43688 7.30654 
162 3 5.89502 8.55714 6.37298 
7 1 9.1335 6.07783 11.9166 
10 1 3.75299 9.80306 21.6041 
13 1 2.42241 9.88502 22.0654 
15 1 3.03401 8.31823 17.8688 
28 1 3.75082 9.77419 20.1363 
30 1 4.48225 8.55756 19.7628 
34 1 4.3295 6.3296 18.5986 
40 1 7.74033 8.3749 11.9348 
49 1 4.85178 7.75925 20.9138 
50 1 2.09589 9.24553 18.5268 
58 1 1.596 10.1029 11.8579 
59 1 4.1626 7.77792 14.1476 