ITEM: TIMESTEP
0
ITEM: NUMBER OF ATOMS
99
ITEM: BOX BOUNDS pp pp pp
0.0000000000000000e+00 1.6524999999999999e+01
0.0000000000000000e+00 1.6526000000000000e+01
0.0000000000000000e+00 1.6526000000000000e+01
ITEM: ATOMS id type x y z 
1 1 1.813 1.813 1.813 
10 1 5.821 5.821 5.821 
17 1 3.388 3.388 3.388 
26 1 4.246 4.246 4.246 
33 1 0.284 2 2 
41 1 2 0.284 2 
49 1 2 2 0.283 
58 1 7.351 5.634 5.634 
66 1 5.634 7.351 5.634 
74 1 5.634 5.634 7.351 
81 1 2.689 2.689 2.689 
90 1 4.945 4.945 4.945 
4 1 1.813 1.813 14.084 
11 1 5.821 5.821 10.076 
20 1 3.388 3.388 12.509 
27 1 4.246 4.246 11.651 
36 1 0.284 2 13.897 
46 1 2 0.284 13.897 
56 1 2 2 15.614 
59 1 7.351 5.634 10.263 
69 1 5.634 7.351 10.263 
79 1 5.634 5.634 8.546 
84 1 2.689 2.689 13.208 
91 1 4.945 4.945 10.952 
6 1 1.813 14.084 1.813 
13 1 5.821 10.076 5.821 
22 1 3.388 12.509 3.388 
29 1 4.246 11.651 4.246 
38 1 0.284 13.897 2 
48 1 2 15.614 2 
52 1 2 13.897 0.283 
61 1 7.351 10.263 5.634 
71 1 5.634 8.546 5.634 
75 1 5.634 10.263 7.351 
86 1 2.689 13.208 2.689 
93 1 4.945 10.952 4.945 
7 1 1.813 14.084 14.084 
16 1 5.821 10.076 10.076 
23 1 3.388 12.509 12.509 
32 1 4.246 11.651 11.651 
39 1 0.284 13.897 13.897 
43 1 2 15.614 13.897 
53 1 2 13.897 15.614 
64 1 7.351 10.263 10.263 
68 1 5.634 8.547 10.263 
78 1 5.634 10.263 8.546 
87 1 2.689 13.208 13.208 
96 1 4.945 10.952 10.952 
8 1 14.084 1.813 1.813 
15 1 10.076 5.821 5.821 
24 1 12.509 3.388 3.388 
31 1 11.651 4.246 4.246 
40 1 15.613 2 2 
44 1 13.897 0.284 2 
54 1 13.897 2 0.283 
63 1 8.547 5.634 5.634 
67 1 10.263 7.351 5.634 
77 1 10.263 5.634 7.351 
88 1 13.208 2.689 2.689 
95 1 10.952 4.945 4.945 
97 2 13.598 2.297 3.918 
98 2 14.79 2.238 4.852 
99 3 14.535 2.884 5.563 
5 1 14.084 1.813 14.084 
14 1 10.076 5.821 10.076 
21 1 12.509 3.388 12.509 
30 1 11.651 4.246 11.651 
37 1 15.613 2 13.897 
47 1 13.897 0.284 13.897 
51 1 13.897 2 15.614 
62 1 8.546 5.634 10.263 
72 1 10.263 7.351 10.263 
76 1 10.263 5.634 8.546 
85 1 13.208 2.689 13.208 
94 1 10.952 4.945 10.952 
3 1 14.084 14.084 1.813 
12 1 10.076 10.076 5.821 
19 1 12.509 12.509 3.388 
28 1 11.651 11.651 4.246 
35 1 15.613 13.897 2 
45 1 13.897 15.614 2 
55 1 13.897 13.897 0.283 
60 1 8.547 10.263 5.634 
70 1 10.263 8.547 5.634 
80 1 10.263 10.263 7.351 
83 1 13.208 13.208 2.689 
92 1 10.952 10.952 4.945 
2 1 14.084 14.084 14.084 
9 1 10.076 10.076 10.076 
18 1 12.509 12.509 12.509 
25 1 11.651 11.651 11.651 
34 1 15.613 13.897 13.897 
42 1 13.897 15.614 13.897 
50 1 13.897 13.897 15.614 
57 1 8.546 10.263 10.263 
65 1 10.263 8.546 10.263 
73 1 10.263 10.263 8.547 
82 1 13.208 13.208 13.208 
89 1 10.952 10.952 10.952 
ITEM: TIMESTEP
10
ITEM: NUMBER OF ATOMS
99
ITEM: BOX BOUNDS pp pp pp
0.0000000000000000e+00 1.6524999999999999e+01
0.0000000000000000e+00 1.6526000000000000e+01
0.0000000000000000e+00 1.6526000000000000e+01
ITEM: ATOMS id type x y z 
1 1 1.81146 1.81365 1.81332 
10 1 5.8205 5.82116 5.82107 
17 1 3.38856 3.38827 3.38811 
26 1 4.24607 4.24584 4.24598 
33 1 0.28827 2.00067 2.00118 
41 1 1.9993 0.282928 1.99961 
49 1 1.99925 1.9995 0.282866 
58 1 7.35221 5.63479 5.63479 
66 1 5.63454 7.35064 5.63466 
74 1 5.63455 5.63467 7.35061 
81 1 2.68866 2.68976 2.68957 
90 1 4.94523 4.9452 4.94541 
4 1 1.81355 1.81276 14.0837 
11 1 5.82096 5.82136 10.0761 
20 1 3.38785 3.38781 12.5084 
27 1 4.24604 4.24602 11.651 
36 1 0.285405 1.99952 13.8973 
46 1 1.99943 0.283641 13.8976 
56 1 1.99954 1.99938 15.6135 
59 1 7.35056 5.63464 10.2623 
69 1 5.63473 7.35097 10.2623 
79 1 5.63469 5.63464 8.54659 
84 1 2.68984 2.68954 13.2088 
91 1 4.94494 4.9454 10.9519 
6 1 1.81316 14.0837 1.8127 
13 1 5.8212 10.0761 5.82101 
22 1 3.38771 12.5084 3.38788 
29 1 4.24596 11.651 4.24601 
38 1 0.284302 13.8975 1.99937 
48 1 1.99951 15.6135 1.99933 
52 1 1.99939 13.8977 0.283452 
61 1 7.35046 10.2623 5.63468 
71 1 5.63468 8.54657 5.63464 
75 1 5.63466 10.2623 7.35087 
86 1 2.6896 13.2088 2.68954 
93 1 4.9453 10.952 4.94483 
7 1 1.81303 14.084 14.0839 
16 1 5.82102 10.0759 10.0759 
23 1 3.38801 12.5089 12.5088 
32 1 4.24609 11.651 11.6511 
39 1 0.283999 13.8977 13.8976 
43 1 1.99947 15.614 13.8976 
53 1 1.99946 13.8977 15.6137 
64 1 7.35064 10.2624 10.2623 
68 1 5.63471 8.54658 10.2623 
78 1 5.6347 10.2623 8.54637 
87 1 2.68902 13.2078 13.208 
96 1 4.94513 10.9521 10.9518 
8 1 14.1237 1.77284 1.76379 
15 1 10.0861 5.811 5.81287 
24 1 12.4459 3.45035 3.36503 
31 1 11.6378 4.25916 4.23126 
40 1 15.6113 1.99248 1.98829 
44 1 13.9044 0.285563 1.98909 
54 1 13.8989 1.99796 0.278825 
63 1 8.54564 5.63348 5.63343 
67 1 10.2636 7.35169 5.63341 
77 1 10.2636 5.6335 7.3516 
88 1 13.2211 2.67576 2.87841 
95 1 10.9413 4.95596 4.95676 
97 2 13.6161 2.2843 3.85 
98 2 14.7904 2.24518 4.8671 
99 3 14.5336 2.87339 5.54565 
5 1 14.0828 1.81328 14.0858 
14 1 10.0755 5.82101 10.0768 
21 1 12.5085 3.38864 12.5074 
30 1 11.6508 4.24618 11.6506 
37 1 15.6151 2.00005 13.8973 
47 1 13.8971 0.281744 13.8975 
51 1 13.8959 2.00117 15.6012 
62 1 8.54641 5.63471 10.2624 
72 1 10.2624 7.35076 10.2625 
76 1 10.2623 5.63469 8.54488 
85 1 13.2063 2.69038 13.2081 
94 1 10.9511 4.94592 10.9519 
3 1 14.083 14.086 1.81329 
12 1 10.076 10.0769 5.8215 
19 1 12.5088 12.5082 3.38797 
28 1 11.6514 11.6509 4.24607 
35 1 15.6139 13.8977 1.99966 
45 1 13.8965 15.6095 2.00126 
55 1 13.8975 13.8979 0.282843 
60 1 8.54666 10.2625 5.63468 
70 1 10.2623 8.54525 5.6347 
80 1 10.2623 10.2625 7.35071 
83 1 13.2072 13.2086 2.68934 
92 1 10.9516 10.9524 4.94542 
2 1 14.0837 14.084 14.084 
9 1 10.0759 10.076 10.0761 
18 1 12.509 12.5091 12.5088 
25 1 11.6511 11.6509 11.6511 
34 1 15.6133 13.8975 13.8976 
42 1 13.8976 15.6124 13.8975 
50 1 13.8976 13.8975 15.6135 
57 1 8.54617 10.2623 10.2624 
65 1 10.2623 8.54655 10.2624 
73 1 10.2624 10.2623 8.54694 
82 1 13.2077 13.208 13.2081 
89 1 10.952 10.952 10.952 
ITEM: TIMESTEP
20
ITEM: NUMBER OF ATOMS
99
ITEM: BOX BOUNDS pp pp pp
0.0000000000000000e+00 1.6524999999999999e+01
0.0000000000000000e+00 1.6526000000000000e+01
0.0000000000000000e+00 1.6526000000000000e+01
ITEM: ATOMS id type x y z 
1 1 1.81177 1.81463 1.81464 
10 1 5.81749 5.82241 5.82101 
17 1 3.38935 3.38905 3.3879 
26 1 4.24645 4.24657 4.24461 
33 1 0.284481 1.99877 1.99682 
41 1 1.99832 0.282453 1.99925 
49 1 1.99834 1.99927 0.282664 
58 1 7.34642 5.63421 5.6339 
66 1 5.63461 7.35181 5.63503 
74 1 5.63464 5.63506 7.3516 
81 1 2.68795 2.68946 2.69146 
90 1 4.94376 4.94336 4.94699 
4 1 1.81609 1.81136 14.0846 
11 1 5.82091 5.82107 10.0766 
20 1 3.39049 3.38667 12.5092 
27 1 4.24688 4.2459 11.6515 
36 1 0.286314 1.99935 13.8977 
46 1 1.99931 0.283887 13.8982 
56 1 1.99946 1.99875 15.6133 
59 1 7.34948 5.635 10.262 
69 1 5.63511 7.35134 10.2619 
79 1 5.63508 5.63511 8.54671 
84 1 2.68561 2.69193 13.2072 
91 1 4.94336 4.94542 10.9509 
6 1 1.81485 14.0852 1.81227 
13 1 5.8206 10.0768 5.82168 
22 1 3.39034 12.5106 3.3875 
29 1 4.24592 11.6519 4.24686 
38 1 0.284704 13.8981 1.99877 
48 1 1.99915 15.6133 1.99877 
52 1 1.99896 13.8983 0.284065 
61 1 7.3504 10.2619 5.63505 
71 1 5.63523 8.54721 5.6351 
75 1 5.63525 10.2618 7.35081 
86 1 2.68513 13.2051 2.68982 
93 1 4.94494 10.9507 4.94338 
7 1 1.81477 14.0845 14.0843 
16 1 5.82034 10.0756 10.0757 
23 1 3.38973 12.5097 12.5091 
32 1 4.24518 11.6499 11.6508 
39 1 0.28384 13.8981 13.898 
43 1 1.99902 15.614 13.898 
53 1 1.99903 13.8981 15.6142 
64 1 7.35005 10.2618 10.2617 
68 1 5.63524 8.54692 10.2617 
78 1 5.63524 10.2618 8.54675 
87 1 2.68688 13.2063 13.2069 
96 1 4.94663 10.9535 10.9521 
8 1 14.1244 1.77223 1.75181 
15 1 10.0818 5.81579 5.81899 
24 1 12.4373 3.45859 3.38046 
31 1 11.6306 4.26651 4.19623 
40 1 15.608 1.98136 1.97263 
44 1 13.9155 0.288629 1.97393 
54 1 13.9022 1.99462 0.282913 
63 1 8.54362 5.63153 5.63217 
67 1 10.2656 7.35383 5.63215 
77 1 10.2664 5.63072 7.35468 
88 1 13.22 2.67366 2.91414 
95 1 10.9397 4.95731 4.93979 
97 2 13.6275 2.26384 3.85975 
98 2 14.8075 2.24025 4.88159 
99 3 14.5311 2.87593 5.54606 
5 1 14.084 1.8132 14.0801 
14 1 10.075 5.82221 10.0797 
21 1 12.5084 3.38914 12.5052 
30 1 11.6514 4.24616 11.6497 
37 1 15.6163 1.99962 13.8973 
47 1 13.8974 0.280504 13.8974 
51 1 13.8944 2.00242 15.6058 
62 1 8.54477 5.63493 10.2626 
72 1 10.2621 7.35218 10.2627 
76 1 10.2632 5.63381 8.55217 
85 1 13.2042 2.69151 13.2099 
94 1 10.9503 4.94589 10.9536 
3 1 14.0835 14.0868 1.81692 
12 1 10.077 10.0794 5.82299 
19 1 12.51 12.509 3.39065 
28 1 11.6538 11.6503 4.24696 
35 1 15.6145 13.8987 1.99932 
45 1 13.8984 15.6132 1.99732 
55 1 13.8977 13.8989 0.282758 
60 1 8.54518 10.2625 5.63512 
70 1 10.2629 8.55078 5.63397 
80 1 10.262 10.2625 7.35207 
83 1 13.204 13.2071 2.68591 
92 1 10.9481 10.9541 4.94257 
2 1 14.0843 14.0812 14.0857 
9 1 10.0767 10.0766 10.0756 
18 1 12.5094 12.5066 12.5104 
25 1 11.652 11.651 11.6502 
34 1 15.613 13.8978 13.8981 
42 1 13.8977 15.6115 13.8978 
50 1 13.8982 13.8978 15.6133 
57 1 8.5458 10.2619 10.262 
65 1 10.2621 8.54752 10.2621 
73 1 10.2619 10.2619 8.54686 
82 1 13.2068 13.2117 13.2051 
89 1 10.9503 10.9522 10.9536 
ITEM: TIMESTEP
30
ITEM: NUMBER OF ATOMS
99
ITEM: BOX BOUNDS pp pp pp
0.0000000000000000e+00 1.6524999999999999e+01
0.0000000000000000e+00 1.6526000000000000e+01
0.0000000000000000e+00 1.6526000000000000e+01
ITEM: ATOMS id type x y z 
1 1 1.80843 1.81592 1.81421 
10 1 5.8178 5.82177 5.82234 
17 1 3.38782 3.39043 3.38825 
26 1 4.24551 4.24533 4.24777 
33 1 0.280835 1.99281 1.98718 
41 1 1.99813 0.283008 1.99952 
49 1 1.99833 1.99891 0.28431 
58 1 7.34794 5.63362 5.63376 
66 1 5.63409 7.35107 5.63547 
74 1 5.63414 5.63543 7.35079 
81 1 2.68999 2.68721 2.69045 
90 1 4.94495 4.94656 4.94337 
4 1 1.81353 1.81375 14.0841 
11 1 5.81957 5.8205 10.0753 
20 1 3.38639 3.39022 12.5081 
27 1 4.2465 4.24526 11.6496 
36 1 0.285526 1.99899 13.8981 
46 1 1.99965 0.283677 13.8984 
56 1 1.9995 1.99868 15.6144 
59 1 7.348 5.63497 10.2621 
69 1 5.63473 7.35159 10.2618 
79 1 5.63473 5.63534 8.5472 
84 1 2.69143 2.68668 13.2089 
91 1 4.94521 4.94542 10.9547 
6 1 1.8123 14.0833 1.81356 
13 1 5.82017 10.076 5.82077 
22 1 3.38602 12.5073 3.38873 
29 1 4.24622 11.6499 4.24515 
38 1 0.283725 13.8986 1.99853 
48 1 1.99885 15.6129 1.99853 
52 1 1.99913 13.8983 0.283578 
61 1 7.34903 10.262 5.63533 
71 1 5.63508 8.54697 5.63507 
75 1 5.63521 10.2618 7.35086 
86 1 2.69093 13.2103 2.68879 
93 1 4.94593 10.9549 4.94518 
7 1 1.81265 14.0829 14.083 
16 1 5.82155 10.0768 10.0768 
23 1 3.38647 12.5074 12.5074 
32 1 4.24785 11.6524 11.652 
39 1 0.283029 13.8981 13.8983 
43 1 1.99933 15.6141 13.8982 
53 1 1.99917 13.8983 15.614 
64 1 7.35061 10.2618 10.2617 
68 1 5.63533 8.54696 10.2618 
78 1 5.63525 10.2619 8.54552 
87 1 2.69113 13.2091 13.2092 
96 1 4.94292 10.9508 10.9513 
8 1 14.1189 1.77791 1.75533 
15 1 10.0797 5.81723 5.81963 
24 1 12.4343 3.46104 3.37587 
31 1 11.6166 4.28069 4.18107 
40 1 15.6056 1.97705 1.96332 
44 1 13.92 0.290814 1.96491 
54 1 13.8998 1.99683 0.280657 
63 1 8.5396 5.63242 5.63334 
67 1 10.2649 7.35737 5.63343 
77 1 10.2677 5.62952 7.35968 
88 1 13.2302 2.65905 2.93202 
95 1 10.9255 4.97207 4.92446 
97 2 13.6464 2.23486 3.87935 
98 2 14.8279 2.23467 4.89909 
99 3 14.5277 2.87837 5.54524 
5 1 14.0832 1.81306 14.084 
14 1 10.0738 5.82308 10.0809 
21 1 12.5064 3.39002 12.5092 
30 1 11.6495 4.24697 11.6514 
37 1 15.6147 1.99896 13.897 
47 1 13.898 0.281372 13.8972 
51 1 13.8958 2.00094 15.6049 
62 1 8.54424 5.6353 10.2638 
72 1 10.2617 7.35224 10.2638 
76 1 10.2643 5.63275 8.55072 
85 1 13.2088 2.68891 13.2042 
94 1 10.9527 4.94508 10.9503 
3 1 14.0821 14.0877 1.81342 
12 1 10.0738 10.0793 5.82054 
19 1 12.5081 12.5079 3.38601 
28 1 11.6498 11.6524 4.24503 
35 1 15.6127 13.8994 1.99936 
45 1 13.9044 15.6167 1.98815 
55 1 13.8982 13.8993 0.283288 
60 1 8.54594 10.2629 5.63557 
70 1 10.2636 8.54955 5.63367 
80 1 10.2619 10.2632 7.35047 
83 1 13.2088 13.209 2.69235 
92 1 10.9534 10.9529 4.94769 
2 1 14.0835 14.0839 14.0846 
9 1 10.0745 10.078 10.0772 
18 1 12.5088 12.5114 12.5074 
25 1 11.6501 11.651 11.6525 
34 1 15.6127 13.8978 13.8985 
42 1 13.8982 15.6117 13.8983 
50 1 13.8986 13.8981 15.6139 
57 1 8.5457 10.262 10.2619 
65 1 10.2622 8.54842 10.2624 
73 1 10.262 10.2624 8.54757 
82 1 13.2088 13.2057 13.2101 
89 1 10.9543 10.9517 10.9518 
ITEM: TIMESTEP
40
ITEM: NUMBER OF ATOMS
99
ITEM: BOX BOUNDS pp pp pp
0.0000000000000000e+00 1.6524999999999999e+01
0.0000000000000000e+00 1.6526000000000000e+01
0.0000000000000000e+00 1.6526000000000000e+01
ITEM: ATOMS id type x y z 
1 1 1.80914 1.8138 1.81421 
10 1 5.81749 5.82179 5.82154 
17 1 3.38847 3.38839 3.38813 
26 1 4.246 4.24641 4.24541 
33 1 0.279361 1.99051 1.9829 
41 1 1.99764 0.282773 1.99928 
49 1 1.99838 1.99901 0.284075 
58 1 7.3462 5.63355 5.63386 
66 1 5.6339 7.35205 5.63522 
74 1 5.63384 5.63546 7.35147 
81 1 2.68663 2.68906 2.69111 
90 1 4.94269 4.94496 4.94583 
4 1 1.815 1.81218 14.0845 
11 1 5.81945 5.82138 10.0766 
20 1 3.38886 3.38806 12.5086 
27 1 4.24651 4.24626 11.6516 
36 1 0.286291 1.99889 13.898 
46 1 1.99954 0.283607 13.8987 
56 1 1.99961 1.99863 15.6145 
59 1 7.34932 5.63506 10.2627 
69 1 5.63487 7.35145 10.2619 
79 1 5.63437 5.63533 8.54661 
84 1 2.68804 2.68877 13.2084 
91 1 4.9433 4.94449 10.9519 
6 1 1.81328 14.0849 1.8129 
13 1 5.82027 10.0769 5.82089 
22 1 3.38821 12.5094 3.38815 
29 1 4.2465 11.6516 4.24545 
38 1 0.284435 13.8988 1.99847 
48 1 1.99853 15.6134 1.99846 
52 1 1.99886 13.8985 0.283811 
61 1 7.35044 10.2624 5.63529 
71 1 5.63472 8.54741 5.63527 
75 1 5.63518 10.262 7.35069 
86 1 2.68727 13.2078 2.68884 
93 1 4.94376 10.9521 4.94426 
7 1 1.81379 14.0841 14.084 
16 1 5.82064 10.0761 10.0763 
23 1 3.38865 12.509 12.5089 
32 1 4.24547 11.6508 11.6511 
39 1 0.284251 13.8982 13.8983 
43 1 1.99918 15.6137 13.8983 
53 1 1.99903 13.8984 15.6142 
64 1 7.35017 10.2618 10.2617 
68 1 5.63508 8.54695 10.2616 
78 1 5.63515 10.2618 8.5465 
87 1 2.6882 13.2075 13.2076 
96 1 4.94565 10.9531 10.9525 
8 1 14.1164 1.78007 1.75688 
15 1 10.0802 5.81699 5.81826 
24 1 12.4342 3.4607 3.37666 
31 1 11.6144 4.2831 4.16828 
40 1 15.6034 1.97602 1.95961 
44 1 13.9213 0.293685 1.96101 
54 1 13.8979 1.99869 0.282376 
63 1 8.54216 5.63312 5.63419 
67 1 10.2641 7.35536 5.63415 
77 1 10.2678 5.62934 7.35583 
88 1 13.2318 2.65492 2.94861 
95 1 10.9208 4.97724 4.91765 
97 2 13.6529 2.22277 3.88423 
98 2 14.8398 2.23153 4.90903 
99 3 14.5253 2.8796 5.54421 
5 1 14.0839 1.81352 14.082 
14 1 10.0741 5.82306 10.0804 
21 1 12.5078 3.38957 12.5068 
30 1 11.65 4.24693 11.65 
37 1 15.6157 1.99897 13.897 
47 1 13.8979 0.280732 13.8971 
51 1 13.8952 2.00143 15.6065 
62 1 8.54442 5.63552 10.2638 
72 1 10.2614 7.35255 10.2639 
76 1 10.2647 5.63233 8.55189 
85 1 13.2065 2.69008 13.2072 
94 1 10.9505 4.94606 10.953 
3 1 14.0831 14.0882 1.81462 
12 1 10.0752 10.0802 5.82212 
19 1 12.5095 12.5089 3.38813 
28 1 11.6518 11.652 4.24606 
35 1 15.6141 13.8996 1.99941 
45 1 13.9066 15.6188 1.98409 
55 1 13.898 13.8993 0.284092 
60 1 8.54559 10.2631 5.63556 
70 1 10.2637 8.55108 5.63394 
80 1 10.2616 10.2633 7.35159 
83 1 13.2061 13.2091 2.68919 
92 1 10.9503 10.9541 4.94523 
2 1 14.0839 14.0826 14.0848 
9 1 10.0759 10.0777 10.0764 
18 1 12.509 12.5086 12.5092 
25 1 11.6518 11.6508 11.6511 
34 1 15.6134 13.8976 13.8985 
42 1 13.8981 15.6113 13.8981 
50 1 13.8984 13.8978 15.6145 
57 1 8.5459 10.2621 10.2619 
65 1 10.2621 8.54779 10.2627 
73 1 10.2619 10.2626 8.54668 
82 1 13.2078 13.2089 13.2079 
89 1 10.9512 10.9531 10.9529 
ITEM: TIMESTEP
50
ITEM: NUMBER OF ATOMS
99
ITEM: BOX BOUNDS pp pp pp
0.0000000000000000e+00 1.6524999999999999e+01
0.0000000000000000e+00 1.6526000000000000e+01
0.0000000000000000e+00 1.6526000000000000e+01
ITEM: ATOMS id type x y z 
1 1 1.80779 1.81449 1.8136 
10 1 5.81741 5.82196 5.8212 
17 1 3.38699 3.38874 3.3882 
26 1 4.24555 4.24583 4.24529 
33 1 0.277556 1.98886 1.97959 
41 1 1.99745 0.282764 1.9995 
49 1 1.99835 1.99888 0.284085 
58 1 7.34642 5.63385 5.6345 
66 1 5.63372 7.35169 5.63543 
74 1 5.63355 5.63559 7.35127 
81 1 2.68729 2.68854 2.69059 
90 1 4.9425 4.94527 4.94597 
4 1 1.8149 1.81225 14.0847 
11 1 5.81978 5.82116 10.0767 
20 1 3.38813 3.38758 12.5089 
27 1 4.24598 4.24564 11.6514 
36 1 0.285748 1.99874 13.898 
46 1 1.99956 0.283644 13.8988 
56 1 1.99972 1.99855 15.6144 
59 1 7.34905 5.63526 10.2628 
69 1 5.6347 7.35143 10.2618 
79 1 5.63421 5.63541 8.54687 
84 1 2.68921 2.68913 13.2088 
91 1 4.9437 4.94542 10.9523 
6 1 1.81315 14.0848 1.81318 
13 1 5.82051 10.077 5.82069 
22 1 3.38726 12.5095 3.3884 
29 1 4.24603 11.6513 4.24511 
38 1 0.284015 13.8987 1.99866 
48 1 1.99849 15.6132 1.99854 
52 1 1.99883 13.8985 0.283802 
61 1 7.34975 10.2624 5.6354 
71 1 5.63458 8.54729 5.63523 
75 1 5.63504 10.262 7.35085 
86 1 2.68896 13.208 2.68815 
93 1 4.94434 10.9527 4.94492 
7 1 1.81421 14.0841 14.0841 
16 1 5.82054 10.076 10.0764 
23 1 3.38887 12.509 12.5089 
32 1 4.24592 11.651 11.6516 
39 1 0.283676 13.898 13.8984 
43 1 1.99929 15.6139 13.8984 
53 1 1.99907 13.8984 15.6142 
64 1 7.35022 10.2619 10.2617 
68 1 5.6352 8.54706 10.2616 
78 1 5.63527 10.2619 8.54644 
87 1 2.68789 13.2073 13.2072 
96 1 4.94496 10.9526 10.9518 
8 1 14.1141 1.78248 1.75786 
15 1 10.08 5.81741 5.81706 
24 1 12.4343 3.46013 3.37678 
31 1 11.6109 4.2872 4.16113 
40 1 15.6012 1.97533 1.95686 
44 1 13.9222 0.295547 1.95825 
54 1 13.8961 2.0004 0.283826 
63 1 8.54129 5.63361 5.63444 
67 1 10.2637 7.35619 5.63447 
77 1 10.2682 5.62894 7.35577 
88 1 13.2337 2.6507 2.95826 
95 1 10.919 4.97883 4.90929 
97 2 13.6591 2.21158 3.89068 
98 2 14.8506 2.22882 4.9181 
99 3 14.523 2.88054 5.54298 
5 1 14.0838 1.81352 14.0829 
14 1 10.0737 5.82306 10.0802 
21 1 12.5081 3.38944 12.5072 
30 1 11.6497 4.247 11.6511 
37 1 15.6152 1.99877 13.8973 
47 1 13.898 0.281264 13.8973 
51 1 13.8948 2.00182 15.6074 
62 1 8.54465 5.63581 10.2637 
72 1 10.2613 7.35235 10.2638 
76 1 10.2649 5.63221 8.55046 
85 1 13.2068 2.68963 13.2063 
94 1 10.9507 4.94614 10.9521 
3 1 14.0834 14.0891 1.81429 
12 1 10.0753 10.0803 5.82217 
19 1 12.5092 12.5089 3.38766 
28 1 11.6513 11.6524 4.24593 
35 1 15.6134 13.9 1.99939 
45 1 13.9084 15.6202 1.98062 
55 1 13.8979 13.8992 0.283686 
60 1 8.54536 10.2634 5.63558 
70 1 10.2633 8.55101 5.6345 
80 1 10.2615 10.2636 7.35125 
83 1 13.2068 13.211 2.69018 
92 1 10.9512 10.9542 4.94504 
2 1 14.0834 14.0831 14.0852 
9 1 10.076 10.0777 10.0764 
18 1 12.5084 12.5097 12.5095 
25 1 11.6515 11.6516 11.6511 
34 1 15.6131 13.8977 13.8987 
42 1 13.8982 15.6117 13.8981 
50 1 13.8985 13.8978 15.6141 
57 1 8.54585 10.2622 10.2619 
65 1 10.2618 8.54794 10.2629 
73 1 10.2618 10.2628 8.5469 
82 1 13.2095 13.207 13.2081 
89 1 10.9517 10.9524 10.9531 
ITEM: TIMESTEP
60
ITEM: NUMBER OF ATOMS
99
ITEM: BOX BOUNDS pp pp pp
0.0000000000000000e+00 1.6524999999999999e+01
0.0000000000000000e+00 1.6526000000000000e+01
0.0000000000000000e+00 1.6526000000000000e+01
ITEM: ATOMS id type x y z 
1 1 1.7983 1.81428 1.81198 
10 1 5.81659 5.82367 5.81872 
17 1 3.38097 3.38834 3.38658 
26 1 4.24322 4.24681 4.24192 
33 1 0.267576 1.97846 1.95559 
41 1 1.99453 0.284288 1.99934 
49 1 1.99844 1.99874 0.282182 
58 1 7.34388 5.63648 5.63915 
66 1 5.63262 7.35016 5.63611 
74 1 5.63161 5.63625 7.35295 
81 1 2.68119 2.686 2.69186 
90 1 4.93754 4.94133 4.94934 
4 1 1.81155 1.81578 14.0852 
11 1 5.81899 5.82051 10.0745 
20 1 3.38512 3.38949 12.5073 
27 1 4.24413 4.24636 11.6504 
36 1 0.282666 1.99748 13.8983 
46 1 2.00005 0.281708 13.8988 
56 1 2 1.9976 15.6124 
59 1 7.35081 5.63717 10.2639 
69 1 5.63472 7.35277 10.2623 
79 1 5.634 5.63708 8.54864 
84 1 2.69891 2.6872 13.2167 
91 1 4.94333 4.94328 10.95 
6 1 1.81159 14.086 1.81618 
13 1 5.82025 10.0788 5.82336 
22 1 3.38635 12.5104 3.39047 
29 1 4.24167 11.6529 4.25059 
38 1 0.283905 13.8995 1.99906 
48 1 1.99796 15.6145 1.99937 
52 1 1.99902 13.8992 0.28236 
61 1 7.34807 10.2626 5.63648 
71 1 5.63314 8.54587 5.6357 
75 1 5.63444 10.262 7.35077 
86 1 2.69076 13.2049 2.68275 
93 1 4.95171 10.9526 4.93667 
7 1 1.81394 14.083 14.0849 
16 1 5.81918 10.0759 10.0739 
23 1 3.38691 12.508 12.5082 
32 1 4.2442 11.6532 11.6471 
39 1 0.283616 13.8979 13.8989 
43 1 1.99927 15.6121 13.8992 
53 1 1.99827 13.8986 15.6129 
64 1 7.35213 10.2627 10.2614 
68 1 5.63524 8.54845 10.2605 
78 1 5.63537 10.2623 8.54661 
87 1 2.69303 13.2107 13.2086 
96 1 4.9467 10.9468 10.9593 
8 1 14.097 1.79934 1.76788 
15 1 10.0818 5.8203 5.80596 
24 1 12.4374 3.45332 3.37708 
31 1 11.5918 4.31351 4.10139 
40 1 15.5892 1.97258 1.93938 
44 1 13.9263 0.307539 1.93911 
54 1 13.8802 2.01565 0.290802 
63 1 8.53946 5.63781 5.63525 
67 1 10.2596 7.35834 5.63536 
77 1 10.2694 5.62821 7.34399 
88 1 13.2478 2.61825 3.03355 
95 1 10.904 4.98704 4.86852 
97 2 13.7001 2.13123 3.93592 
98 2 14.9375 2.20806 4.99115 
99 3 14.5041 2.88665 5.53072 
5 1 14.0815 1.81548 14.0903 
14 1 10.0743 5.82292 10.0748 
21 1 12.5088 3.38906 12.5078 
30 1 11.6472 4.24858 11.6535 
37 1 15.6118 1.99787 13.8998 
47 1 13.8991 0.283307 13.8999 
51 1 13.89 2.00665 15.6139 
62 1 8.54671 5.63718 10.2617 
72 1 10.259 7.34915 10.2619 
76 1 10.2654 5.63144 8.53936 
85 1 13.2059 2.68735 13.206 
94 1 10.9536 4.94735 10.9491 
3 1 14.0856 14.0945 1.80979 
12 1 10.0763 10.0805 5.82039 
19 1 12.5122 12.5134 3.38666 
28 1 11.653 11.654 4.24406 
35 1 15.6132 13.9025 1.99991 
45 1 13.9198 15.6303 1.95675 
55 1 13.8979 13.9 0.284052 
60 1 8.54374 10.2654 5.6361 
70 1 10.2604 8.55414 5.63952 
80 1 10.2606 10.2663 7.35178 
83 1 13.2018 13.2249 2.69191 
92 1 10.9533 10.956 4.94357 
2 1 14.0841 14.083 14.0865 
9 1 10.0745 10.0751 10.0791 
18 1 12.513 12.5041 12.5109 
25 1 11.6526 11.6491 11.6528 
34 1 15.6131 13.8979 13.8994 
42 1 13.8996 15.6138 13.8991 
50 1 13.8986 13.8968 15.6145 
57 1 8.54789 10.2616 10.2612 
65 1 10.2608 8.54509 10.2634 
73 1 10.2616 10.2636 8.54754 
82 1 13.2049 13.2142 13.206 
89 1 10.9462 10.9602 10.9514 
ITEM: TIMESTEP
70
ITEM: NUMBER OF ATOMS
99
ITEM: BOX BOUNDS pp pp pp
0.0000000000000000e+00 1.6524999999999999e+01
0.0000000000000000e+00 1.6526000000000000e+01
0.0000000000000000e+00 1.6526000000000000e+01
ITEM: ATOMS id type x y z 
1 1 1.79906 1.81263 1.81119 
10 1 5.8153 5.82109 5.82216 
17 1 3.38072 3.38682 3.38726 
26 1 4.24149 4.24531 4.24435 
33 1 0.265809 1.97944 1.95612 
41 1 1.99376 0.284645 1.99913 
49 1 1.99759 1.99847 0.283271 
58 1 7.3454 5.63706 5.63881 
66 1 5.63225 7.35092 5.63603 
74 1 5.63206 5.63678 7.35123 
81 1 2.6803 2.68881 2.68975 
90 1 4.93874 4.94336 4.94562 
4 1 1.81359 1.81226 14.0848 
11 1 5.82079 5.82137 10.0763 
20 1 3.38882 3.38757 12.5102 
27 1 4.24371 4.24552 11.6493 
36 1 0.282647 1.99751 13.8988 
46 1 1.99931 0.283102 13.8992 
56 1 2.00009 1.99778 15.6134 
59 1 7.35093 5.63727 10.2629 
69 1 5.63491 7.35091 10.2616 
79 1 5.63384 5.63688 8.54713 
84 1 2.69278 2.68998 13.2129 
91 1 4.94353 4.9452 10.951 
6 1 1.81328 14.085 1.81279 
13 1 5.82063 10.0763 5.82034 
22 1 3.38634 12.5092 3.38841 
29 1 4.24451 11.6521 4.2467 
38 1 0.283504 13.8996 1.9995 
48 1 1.99775 15.6148 1.99943 
52 1 1.99835 13.8994 0.283823 
61 1 7.34959 10.2628 5.63651 
71 1 5.63358 8.54656 5.63593 
75 1 5.63452 10.2623 7.35074 
86 1 2.68965 13.2071 2.68666 
93 1 4.9479 10.9542 4.94283 
7 1 1.8139 14.084 14.0843 
16 1 5.82168 10.076 10.0767 
23 1 3.38838 12.5097 12.5081 
32 1 4.24569 11.6508 11.651 
39 1 0.283848 13.8979 13.8991 
43 1 1.99935 15.6135 13.8992 
53 1 1.99869 13.8987 15.614 
64 1 7.35114 10.2622 10.2612 
68 1 5.63536 8.54672 10.261 
78 1 5.63501 10.2623 8.54626 
87 1 2.69026 13.209 13.2078 
96 1 4.94421 10.9496 10.9536 
8 1 14.0978 1.79857 1.76789 
15 1 10.0798 5.81817 5.80329 
24 1 12.4405 3.45047 3.37975 
31 1 11.5931 4.3077 4.1049 
40 1 15.5878 1.97308 1.93948 
44 1 13.9261 0.30816 1.93921 
54 1 13.8797 2.01636 0.29231 
63 1 8.54119 5.63825 5.63538 
67 1 10.2595 7.35681 5.63538 
77 1 10.2693 5.62825 7.34371 
88 1 13.2464 2.61857 3.03322 
95 1 10.9062 4.99159 4.86432 
97 2 13.6977 2.13122 3.9363 
98 2 14.9423 2.20958 4.99862 
99 3 14.5041 2.88386 5.52693 
5 1 14.0813 1.81459 14.0905 
14 1 10.0757 5.82093 10.0701 
21 1 12.5083 3.38826 12.5072 
30 1 11.6491 4.2491 11.6515 
37 1 15.6119 1.9978 13.9007 
47 1 13.8993 0.284653 13.901 
51 1 13.8884 2.00795 15.6158 
62 1 8.54701 5.6375 10.261 
72 1 10.2595 7.34958 10.261 
76 1 10.2648 5.63221 8.53931 
85 1 13.2049 2.68957 13.2082 
94 1 10.9507 4.94641 10.9503 
3 1 14.0842 14.0983 1.81141 
12 1 10.0753 10.0824 5.82182 
19 1 12.5097 12.5165 3.3873 
28 1 11.6532 11.6535 4.24403 
35 1 15.6128 13.9028 1.99955 
45 1 13.9194 15.631 1.95641 
55 1 13.898 13.8997 0.283631 
60 1 8.54583 10.265 5.63637 
70 1 10.2599 8.55284 5.63905 
80 1 10.2606 10.2658 7.35155 
83 1 13.2048 13.222 2.69141 
92 1 10.9536 10.9567 4.94355 
2 1 14.0835 14.085 14.0847 
9 1 10.0756 10.0762 10.0766 
18 1 12.5111 12.5071 12.5098 
25 1 11.6511 11.6516 11.6515 
34 1 15.6134 13.8981 13.8994 
42 1 13.8997 15.6145 13.8995 
50 1 13.8982 13.8969 15.6138 
57 1 8.54653 10.2618 10.2614 
65 1 10.2602 8.54562 10.2631 
73 1 10.2609 10.2635 8.54722 
82 1 13.2075 13.2098 13.2074 
89 1 10.9488 10.9546 10.9537 
ITEM: TIMESTEP
80
ITEM: NUMBER OF ATOMS
99
ITEM: BOX BOUNDS pp pp pp
0.0000000000000000e+00 1.6524999999999999e+01
0.0000000000000000e+00 1.6526000000000000e+01
0.0000000000000000e+00 1.6526000000000000e+01
ITEM: ATOMS id type x y z 
1 1 1.7984 1.81288 1.81084 
10 1 5.81527 5.82088 5.8217 
17 1 3.37974 3.38659 3.38781 
26 1 4.24025 4.2444 4.2457 
33 1 0.265971 1.98057 1.95669 
41 1 1.99297 0.284279 1.99909 
49 1 1.99683 1.99824 0.283366 
58 1 7.3453 5.63772 5.63899 
66 1 5.63215 7.35057 5.63644 
74 1 5.632 5.63665 7.35142 
81 1 2.67926 2.68995 2.68849 
90 1 4.93939 4.9441 4.94347 
4 1 1.81271 1.813 14.0847 
11 1 5.82177 5.82149 10.077 
20 1 3.39002 3.38815 12.5116 
27 1 4.24459 4.24596 11.6501 
36 1 0.282337 1.99708 13.8998 
46 1 1.99914 0.283461 13.8993 
56 1 2.00004 1.99784 15.6137 
59 1 7.35184 5.63752 10.262 
69 1 5.63523 7.3506 10.2613 
79 1 5.63411 5.63698 8.54726 
84 1 2.6894 2.68948 13.2094 
91 1 4.94363 4.94432 10.9505 
6 1 1.81295 14.085 1.81309 
13 1 5.82087 10.0762 5.82107 
22 1 3.38745 12.5085 3.38737 
29 1 4.24674 11.6521 4.24536 
38 1 0.283174 13.8999 1.99927 
48 1 1.99732 15.6146 1.9992 
52 1 1.99835 13.8993 0.283448 
61 1 7.35048 10.2627 5.63639 
71 1 5.63404 8.54641 5.63591 
75 1 5.6351 10.262 7.3504 
86 1 2.68833 13.2082 2.68908 
93 1 4.9448 10.9533 4.94558 
7 1 1.81352 14.084 14.0842 
16 1 5.82095 10.0759 10.0755 
23 1 3.38905 12.5099 12.5085 
32 1 4.24585 11.6497 11.6519 
39 1 0.283831 13.8982 13.8994 
43 1 1.99926 15.6137 13.8992 
53 1 1.99874 13.8989 15.6137 
64 1 7.35065 10.2617 10.2613 
68 1 5.63554 8.54634 10.2612 
78 1 5.63528 10.2618 8.54613 
87 1 2.68901 13.2081 13.2074 
96 1 4.9445 10.9516 10.9516 
8 1 14.0966 1.7998 1.76878 
15 1 10.08 5.81783 5.80053 
24 1 12.4415 3.44817 3.3837 
31 1 11.5954 4.30443 4.10754 
40 1 15.5882 1.97443 1.94034 
44 1 13.9251 0.308073 1.93964 
54 1 13.8779 2.01809 0.292446 
63 1 8.54086 5.63848 5.63437 
67 1 10.2591 7.35672 5.63451 
77 1 10.2692 5.62834 7.34161 
88 1 13.2485 2.61504 3.03266 
95 1 10.9077 4.99249 4.8628 
97 2 13.6949 2.1303 3.93795 
98 2 14.952 2.2086 5.0078 
99 3 14.502 2.88276 5.52348 
5 1 14.0809 1.81592 14.0921 
14 1 10.0761 5.8206 10.0683 
21 1 12.5076 3.3883 12.5075 
30 1 11.6489 4.24854 11.6504 
37 1 15.6116 1.99764 13.9022 
47 1 13.8992 0.285542 13.9026 
51 1 13.8864 2.00974 15.616 
62 1 8.54778 5.63755 10.2593 
72 1 10.2595 7.34922 10.2593 
76 1 10.2646 5.6325 8.53693 
85 1 13.2049 2.69126 13.2097 
94 1 10.9515 4.9464 10.9489 
3 1 14.0843 14.0989 1.81114 
12 1 10.076 10.0824 5.82192 
19 1 12.509 12.5189 3.38792 
28 1 11.6534 11.6544 4.24399 
35 1 15.6125 13.9039 1.99932 
45 1 13.9183 15.6312 1.95662 
55 1 13.8981 13.9002 0.283078 
60 1 8.54632 10.2649 5.63665 
70 1 10.2594 8.55226 5.63902 
80 1 10.2607 10.2656 7.3514 
83 1 13.2062 13.2203 2.6901 
92 1 10.9534 10.9574 4.94357 
2 1 14.0839 14.0851 14.0842 
9 1 10.0758 10.0752 10.0769 
18 1 12.5095 12.5093 12.5089 
25 1 11.6497 11.6522 11.6519 
34 1 15.6131 13.8986 13.8995 
42 1 13.8997 15.6157 13.9 
50 1 13.8982 13.8973 15.6135 
57 1 8.54641 10.2618 10.2613 
65 1 10.2596 8.54518 10.262 
73 1 10.2606 10.2634 8.54724 
82 1 13.2091 13.2074 13.2083 
89 1 10.9516 10.9517 10.9534 
ITEM: TIMESTEP
90
ITEM: NUMBER OF ATOMS
99
ITEM: BOX BOUNDS pp pp pp
0.0000000000000000e+00 1.6524999999999999e+01
0.0000000000000000e+00 1.6526000000000000e+01
0.0000000000000000e+00 1.6526000000000000e+01
ITEM: ATOMS id type x y z 
1 1 1.79706 1.81308 1.81039 
10 1 5.81433 5.82059 5.82166 
17 1 3.37714 3.38836 3.38682 
26 1 4.23958 4.24541 4.24352 
33 1 0.265503 1.98355 1.95804 
41 1 1.99099 0.284853 1.9981 
49 1 1.99586 1.9983 0.281875 
58 1 7.34488 5.63846 5.63768 
66 1 5.63238 7.35026 5.63619 
74 1 5.6325 5.63696 7.35061 
81 1 2.6777 2.68801 2.69046 
90 1 4.93607 4.94156 4.94766 
4 1 1.81182 1.81258 14.0833 
11 1 5.82307 5.82107 10.0762 
20 1 3.38782 3.38845 12.5095 
27 1 4.24553 4.24664 11.6511 
36 1 0.28025 1.99687 13.902 
46 1 1.99806 0.283524 13.8993 
56 1 1.99899 1.9982 15.6123 
59 1 7.35306 5.63783 10.2592 
69 1 5.63631 7.35012 10.2613 
79 1 5.63486 5.637 8.54649 
84 1 2.68882 2.68918 13.2074 
91 1 4.94773 4.9439 10.9528 
6 1 1.81291 14.085 1.81333 
13 1 5.82155 10.0757 5.82031 
22 1 3.38743 12.5099 3.38911 
29 1 4.24538 11.6517 4.24666 
38 1 0.282757 13.9014 1.99952 
48 1 1.99565 15.6152 1.99937 
52 1 1.99772 13.9 0.284239 
61 1 7.35118 10.2625 5.63681 
71 1 5.63441 8.54611 5.63672 
75 1 5.63567 10.2613 7.35029 
86 1 2.69104 13.2062 2.68521 
93 1 4.94546 10.9525 4.94489 
7 1 1.81385 14.0846 14.0846 
16 1 5.82139 10.0758 10.0759 
23 1 3.38784 12.5084 12.5091 
32 1 4.2461 11.6509 11.6511 
39 1 0.284221 13.899 13.8994 
43 1 1.99862 15.6138 13.8995 
53 1 1.99829 13.8994 15.6146 
64 1 7.35084 10.2612 10.2606 
68 1 5.63572 8.54595 10.2608 
78 1 5.63563 10.2614 8.54609 
87 1 2.68987 13.2086 13.2078 
96 1 4.94512 10.9522 10.9517 
8 1 14.096 1.80083 1.76912 
15 1 10.0797 5.81846 5.7952 
24 1 12.4456 3.44085 3.39089 
31 1 11.5999 4.30033 4.11247 
40 1 15.5878 1.97763 1.94209 
44 1 13.9228 0.308252 1.94029 
54 1 13.8729 2.02302 0.293777 
63 1 8.54038 5.63878 5.63118 
67 1 10.2583 7.35761 5.63135 
77 1 10.2689 5.62855 7.33587 
88 1 13.2513 2.60711 3.03565 