
     Program PWSCF v.7.1 starts on 24May2025 at 21: 1: 0 

     This program is part of the open-source Quantum ESPRESSO suite
     for quantum simulation of materials; please cite
         "P. Giannozzi et al., J. Phys.:Condens. Matter 21 395502 (2009);
         "P. Giannozzi et al., J. Phys.:Condens. Matter 29 465901 (2017);
         "P. Giannozzi et al., J. Chem. Phys. 152 154105 (2020);
          URL http://www.quantum-espresso.org", 
     in publications or presentations arising from this work. More details at
     http://www.quantum-espresso.org/quote

     Parallel version (MPI), running on    16 processors

     MPI processes distributed on     1 nodes
     242504 MiB available memory on the printing compute node when the environment starts

     Reading input from input.pwi
Warning: card &CELL ignored
Warning: card / ignored
Warning: card &FCP ignored
Warning: card / ignored
Warning: card &RISM ignored
Warning: card / ignored

     Current dimensions of program PWSCF are:
     Max number of different atomic species (ntypx) = 10
     Max number of k-points (npk) =  40000
     Max angular momentum in pseudopotentials (lmaxx) =  4
     file C.pbe-n-kjpaw_psl.1.0.0.UPF: wavefunction(s)  2S 2P renormalized
     file O.pbe-n-kjpaw_psl.0.1.UPF: wavefunction(s)  2P renormalized

     IMPORTANT: XC functional enforced from input :
     Exchange-correlation= PBE
                           (   1   4   3   4   0   0   0)
     Any further DFT definition will be discarded
     Please, verify this is what you really want


     gamma-point specific algorithms are used

     R & G space division:  proc/nbgrp/npool/nimage =      16
     Subspace diagonalization in iterative solution of the eigenvalue problem:
     a serial algorithm will be used


     Parallelization info
     --------------------
     sticks:   dense  smooth     PW     G-vecs:    dense   smooth      PW
     Min         858     428    106                75870    26832    3354
     Max         860     430    108                75880    26846    3360
     Sum       13753    6869   1725              1214029   429409   53715

     Using Slab Decomposition



     bravais-lattice index     =            0
     lattice parameter (alat)  =      20.7870  a.u.
     unit-cell volume          =    8983.6663 (a.u.)^3
     number of atoms/cell      =           49
     number of atomic types    =            2
     number of electrons       =       198.00 (up:  99.00, down:  99.00)
     number of Kohn-Sham states=          119
     kinetic-energy cutoff     =      50.0000  Ry
     charge density cutoff     =     400.0000  Ry
     scf convergence threshold =      1.0E-06
     mixing beta               =       0.3000
     number of iterations used =            8  plain     mixing
     energy convergence thresh.=      1.0E-04
     force convergence thresh. =      1.0E-03
     Exchange-correlation= PBE
                           (   1   4   3   4   0   0   0)
     nstep                     =         1000


     celldm(1)=  20.786987  celldm(2)=   0.000000  celldm(3)=   0.000000
     celldm(4)=   0.000000  celldm(5)=   0.000000  celldm(6)=   0.000000

     crystal axes: (cart. coord. in units of alat)
               a(1) = (   1.000000   0.000000   0.000000 )  
               a(2) = (   0.000000   1.000182   0.000000 )  
               a(3) = (   0.000000   0.000000   1.000000 )  

     reciprocal axes: (cart. coord. in units 2 pi/alat)
               b(1) = (  1.000000  0.000000  0.000000 )  
               b(2) = (  0.000000  0.999818  0.000000 )  
               b(3) = (  0.000000  0.000000  1.000000 )  


     PseudoPot. # 1 for C  read from file:
     /home/ana.bisette/espresso/pseudo/C.pbe-n-kjpaw_psl.1.0.0.UPF
     MD5 check sum: 5d2aebdfa2cae82b50a7e79e9516da0f
     Pseudo is Projector augmented-wave + core cor, Zval =  4.0
     Generated using "atomic" code by A. Dal Corso  v.5.1
     Shape of augmentation charge: PSQ
     Using radial grid of 1073 points,  4 beta functions with: 
                l(1) =   0
                l(2) =   0
                l(3) =   1
                l(4) =   1
     Q(r) pseudized with 0 coefficients 


     PseudoPot. # 2 for O  read from file:
     /home/ana.bisette/espresso/pseudo/O.pbe-n-kjpaw_psl.0.1.UPF
     MD5 check sum: 0234752ac141de4415c5fc33072bef88
     Pseudo is Projector augmented-wave + core cor, Zval =  6.0
     Generated using "atomic" code by A. Dal Corso  v.5.0.99 svn rev. 10869
     Shape of augmentation charge: BESSEL
     Using radial grid of 1095 points,  4 beta functions with: 
                l(1) =   0
                l(2) =   0
                l(3) =   1
                l(4) =   1
     Q(r) pseudized with 0 coefficients 


     atomic species   valence    mass     pseudopotential
        C              4.00    12.01100     C ( 1.00)
        O              6.00    15.99900     O ( 1.00)

     Starting magnetic structure 
     atomic species   magnetization
        C            0.000
        O            0.000

     No symmetry found



   Cartesian axes

     site n.     atom                  positions (alat units)
         1           C   tau(   1) = (   0.5607273   0.4189091   0.5608182  )
         2           C   tau(   2) = (   0.6985455   0.2805455   0.6985455  )
         3           C   tau(   3) = (   0.6340000   0.3453636   0.6340000  )
         4           C   tau(   4) = (   0.4189091   0.5608182   0.5608182  )
         5           C   tau(   5) = (   0.2805455   0.6985455   0.6985455  )
         6           C   tau(   6) = (   0.3453636   0.6340000   0.6340000  )
         7           C   tau(   7) = (   0.5608182   0.5608182   0.4189091  )
         8           C   tau(   8) = (   0.6985455   0.6985455   0.2805455  )
         9           C   tau(   9) = (   0.6340000   0.6340000   0.3453636  )
        10           C   tau(  10) = (   0.4184545   0.4184545   0.4184545  )
        11           C   tau(  11) = (   0.2804545   0.2804545   0.2804545  )
        12           C   tau(  12) = (   0.3450909   0.3450909   0.3450909  )
        13           C   tau(  13) = (   0.5659091   0.4132727   0.4132727  )
        14           C   tau(  14) = (   0.7058182   0.2739091   0.2739091  )
        15           C   tau(  15) = (   0.6411818   0.3382727   0.3383636  )
        16           C   tau(  16) = (   0.4132727   0.5659091   0.4132727  )
        17           C   tau(  17) = (   0.2739091   0.7059091   0.2739091  )
        18           C   tau(  18) = (   0.3382727   0.6411818   0.3383636  )
        19           C   tau(  19) = (   0.4132727   0.4131818   0.5660000  )
        20           C   tau(  20) = (   0.2739091   0.2739091   0.7058182  )
        21           C   tau(  21) = (   0.3382727   0.3382727   0.6411818  )
        22           C   tau(  22) = (   0.5662727   0.5662727   0.5662727  )
        23           C   tau(  23) = (   0.7058182   0.7059091   0.7059091  )
        24           C   tau(  24) = (   0.6413636   0.6414545   0.6413636  )
        25           C   tau(  25) = (   0.0607273   0.9184545   0.0607273  )
        26           C   tau(  26) = (   0.1989091   0.7808182   0.1989091  )
        27           C   tau(  27) = (   0.1341818   0.8452727   0.1341818  )
        28           C   tau(  28) = (   0.9183636   0.0606364   0.0607273  )
        29           C   tau(  29) = (   0.7808182   0.1988182   0.1989091  )
        30           C   tau(  30) = (   0.8452727   0.1340909   0.1341818  )
        31           C   tau(  31) = (   0.0607273   0.0606364   0.9184545  )
        32           C   tau(  32) = (   0.1988182   0.1988182   0.7808182  )
        33           C   tau(  33) = (   0.1341818   0.1340909   0.8452727  )
        34           C   tau(  34) = (   0.9189091   0.9189091   0.9188182  )
        35           C   tau(  35) = (   0.7809091   0.7809091   0.7809091  )
        36           C   tau(  36) = (   0.8455455   0.8455455   0.8454545  )
        37           C   tau(  37) = (   0.0662727   0.9132727   0.9132727  )
        38           C   tau(  38) = (   0.2053636   0.7735455   0.7734545  )
        39           C   tau(  39) = (   0.1410909   0.8380909   0.8380909  )
        40           C   tau(  40) = (   0.9131818   0.0661818   0.9132727  )
        41           C   tau(  41) = (   0.7734545   0.2053636   0.7734545  )
        42           C   tau(  42) = (   0.8380000   0.1410000   0.8380000  )
        43           C   tau(  43) = (   0.9132727   0.9133636   0.0662727  )
        44           C   tau(  44) = (   0.7734545   0.7735455   0.2053636  )
        45           C   tau(  45) = (   0.8380909   0.8380909   0.1410909  )
        46           C   tau(  46) = (   0.0660000   0.0659091   0.0659091  )
        47           C   tau(  47) = (   0.2054545   0.2053636   0.2054545  )
        48           C   tau(  48) = (   0.1410000   0.1409091   0.1409091  )
        49           O   tau(  49) = (   0.5530000   0.4469091   0.6801818  )

     number of k points=     1  Gaussian smearing, width (Ry)=  0.0001
                       cart. coord. in units 2pi/alat
        k(    1) = (   0.0000000   0.0000000   0.0000000), wk =   1.0000000

     Dense  grid:   607015 G-vectors     FFT dimensions: ( 135, 135, 135)

     Smooth grid:   214705 G-vectors     FFT dimensions: (  96,  96,  96)

     Estimated max dynamical RAM per process >     173.67 MB

     Estimated total dynamical RAM >       2.71 GB

     Check: negative core charge=   -0.000004
     Generating pointlists ...
     new r_m :   0.0461 (alat units)  0.9573 (a.u.) for type    1
     new r_m :   0.0507 (alat units)  1.0534 (a.u.) for type    2

     Initial potential from superposition of free atoms

     starting charge     197.9980, renormalised to     198.0000
     Starting wfcs are  196 randomized atomic wfcs
     Checking if some PAW data can be deallocated... 

     total cpu time spent up to now is        3.0 secs

     Self-consistent Calculation

     iteration #  1     ecut=    50.00 Ry     beta= 0.30
     Davidson diagonalization with overlap
     ethr =  1.00E-02,  avg # of iterations =  2.0

     total cpu time spent up to now is        5.4 secs

     total energy              =    -923.14358004 Ry
     estimated scf accuracy    <       5.36080065 Ry

     total magnetization       =    -0.00 Bohr mag/cell
     absolute magnetization    =     0.07 Bohr mag/cell

     iteration #  2     ecut=    50.00 Ry     beta= 0.30
     Davidson diagonalization with overlap
     ethr =  2.71E-03,  avg # of iterations =  1.0

     negative rho (up, down):  2.351E-08 2.387E-08

     total cpu time spent up to now is        7.4 secs

     total energy              =    -922.46789520 Ry
     estimated scf accuracy    <       2.41400651 Ry

     total magnetization       =     0.00 Bohr mag/cell
     absolute magnetization    =     0.05 Bohr mag/cell

     iteration #  3     ecut=    50.00 Ry     beta= 0.30
     Davidson diagonalization with overlap
     ethr =  1.22E-03,  avg # of iterations =  2.0

     negative rho (up, down):  5.193E-07 5.180E-07

     total cpu time spent up to now is        9.4 secs

     total energy              =    -922.53095705 Ry
     estimated scf accuracy    <       1.68854769 Ry

     total magnetization       =    -0.00 Bohr mag/cell
     absolute magnetization    =     0.04 Bohr mag/cell

     iteration #  4     ecut=    50.00 Ry     beta= 0.30
     Davidson diagonalization with overlap
     ethr =  8.53E-04,  avg # of iterations =  1.0

     negative rho (up, down):  6.745E-07 6.757E-07

     total cpu time spent up to now is       11.4 secs

     total energy              =    -922.66543343 Ry
     estimated scf accuracy    <       0.63608307 Ry

     total magnetization       =    -0.00 Bohr mag/cell
     absolute magnetization    =     0.03 Bohr mag/cell

     iteration #  5     ecut=    50.00 Ry     beta= 0.30
     Davidson diagonalization with overlap
     ethr =  3.21E-04,  avg # of iterations =  2.0

     negative rho (up, down):  7.394E-07 7.416E-07

     total cpu time spent up to now is       13.4 secs

     total energy              =    -922.65488458 Ry
     estimated scf accuracy    <       0.23572167 Ry

     total magnetization       =    -0.00 Bohr mag/cell
     absolute magnetization    =     0.02 Bohr mag/cell

     iteration #  6     ecut=    50.00 Ry     beta= 0.30
     Davidson diagonalization with overlap
     ethr =  1.19E-04,  avg # of iterations =  2.0

     negative rho (up, down):  7.977E-07 7.987E-07

     total cpu time spent up to now is       15.5 secs

     total energy              =    -922.66625035 Ry
     estimated scf accuracy    <       0.19730563 Ry

     total magnetization       =     0.00 Bohr mag/cell
     absolute magnetization    =     0.02 Bohr mag/cell

     iteration #  7     ecut=    50.00 Ry     beta= 0.30
     Davidson diagonalization with overlap
     ethr =  9.96E-05,  avg # of iterations =  2.0

     negative rho (up, down):  1.111E-06 1.114E-06

     total cpu time spent up to now is       17.6 secs

     total energy              =    -922.67363948 Ry
     estimated scf accuracy    <       0.04515634 Ry

     total magnetization       =    -0.00 Bohr mag/cell
     absolute magnetization    =     0.02 Bohr mag/cell

     iteration #  8     ecut=    50.00 Ry     beta= 0.30
     Davidson diagonalization with overlap
     ethr =  2.28E-05,  avg # of iterations =  2.0

     negative rho (up, down):  1.279E-06 1.281E-06

     total cpu time spent up to now is       19.6 secs

     total energy              =    -922.66531363 Ry
     estimated scf accuracy    <       0.11051836 Ry

     total magnetization       =     0.00 Bohr mag/cell
     absolute magnetization    =     0.02 Bohr mag/cell

     iteration #  9     ecut=    50.00 Ry     beta= 0.30
     Davidson diagonalization with overlap
     ethr =  2.28E-05,  avg # of iterations =  2.0

     negative rho (up, down):  1.305E-06 1.307E-06

     total cpu time spent up to now is       21.7 secs

     total energy              =    -922.67976785 Ry
     estimated scf accuracy    <       0.08848923 Ry

     total magnetization       =     0.00 Bohr mag/cell
     absolute magnetization    =     0.01 Bohr mag/cell

     iteration # 10     ecut=    50.00 Ry     beta= 0.30
     Davidson diagonalization with overlap
     ethr =  2.28E-05,  avg # of iterations =  1.0

     negative rho (up, down):  1.378E-06 1.379E-06

     total cpu time spent up to now is       23.6 secs

     total energy              =    -922.67711525 Ry
     estimated scf accuracy    <       0.06146988 Ry

     total magnetization       =     0.00 Bohr mag/cell
     absolute magnetization    =     0.01 Bohr mag/cell

     iteration # 11     ecut=    50.00 Ry     beta= 0.30
     Davidson diagonalization with overlap
     ethr =  2.28E-05,  avg # of iterations =  1.0

     negative rho (up, down):  1.399E-06 1.399E-06

     total cpu time spent up to now is       25.6 secs

     total energy              =    -922.67714039 Ry
     estimated scf accuracy    <       0.02157542 Ry

     total magnetization       =     0.00 Bohr mag/cell
     absolute magnetization    =     0.03 Bohr mag/cell

     iteration # 12     ecut=    50.00 Ry     beta= 0.30
     Davidson diagonalization with overlap
     ethr =  1.09E-05,  avg # of iterations = 12.0

     negative rho (up, down):  1.432E-06 1.431E-06

     total cpu time spent up to now is       28.1 secs

     total energy              =    -922.67653100 Ry
     estimated scf accuracy    <       0.01329525 Ry

     total magnetization       =     0.00 Bohr mag/cell
     absolute magnetization    =     0.05 Bohr mag/cell

     iteration # 13     ecut=    50.00 Ry     beta= 0.30
     Davidson diagonalization with overlap
     ethr =  6.71E-06,  avg # of iterations =  1.0

     negative rho (up, down):  1.423E-06 1.426E-06

     total cpu time spent up to now is       30.0 secs

     total energy              =    -922.67682059 Ry
     estimated scf accuracy    <       0.00042683 Ry

     total magnetization       =     0.00 Bohr mag/cell
     absolute magnetization    =     0.32 Bohr mag/cell

     iteration # 14     ecut=    50.00 Ry     beta= 0.30
     Davidson diagonalization with overlap
     ethr =  2.16E-07,  avg # of iterations =  3.0

     negative rho (up, down):  1.423E-06 1.428E-06

     total cpu time spent up to now is       32.1 secs

     total energy              =    -922.67681554 Ry
     estimated scf accuracy    <       0.00103688 Ry

     total magnetization       =     0.00 Bohr mag/cell
     absolute magnetization    =     0.39 Bohr mag/cell

     iteration # 15     ecut=    50.00 Ry     beta= 0.30
     Davidson diagonalization with overlap
     ethr =  2.16E-07,  avg # of iterations =  1.0

     negative rho (up, down):  1.460E-06 1.466E-06

     total cpu time spent up to now is       34.1 secs

     total energy              =    -922.67648002 Ry
     estimated scf accuracy    <       0.00721122 Ry

     total magnetization       =    -0.00 Bohr mag/cell
     absolute magnetization    =     0.26 Bohr mag/cell

     iteration # 16     ecut=    50.00 Ry     beta= 0.30
     Davidson diagonalization with overlap
     ethr =  2.16E-07,  avg # of iterations =  2.5

     negative rho (up, down):  1.459E-06 1.460E-06

     total cpu time spent up to now is       36.2 secs

     total energy              =    -922.67662930 Ry
     estimated scf accuracy    <       0.00068067 Ry

     total magnetization       =    -0.00 Bohr mag/cell
     absolute magnetization    =     0.04 Bohr mag/cell

     iteration # 17     ecut=    50.00 Ry     beta= 0.30
     Davidson diagonalization with overlap
     ethr =  2.16E-07,  avg # of iterations =  1.0

     negative rho (up, down):  1.457E-06 1.458E-06

     total cpu time spent up to now is       38.0 secs

     total energy              =    -922.67665270 Ry
     estimated scf accuracy    <       0.00047288 Ry

     total magnetization       =     0.00 Bohr mag/cell
     absolute magnetization    =     0.01 Bohr mag/cell

     iteration # 18     ecut=    50.00 Ry     beta= 0.30
     Davidson diagonalization with overlap
     ethr =  2.16E-07,  avg # of iterations =  1.0

     negative rho (up, down):  1.457E-06 1.457E-06

     total cpu time spent up to now is       39.8 secs

     total energy              =    -922.67663849 Ry
     estimated scf accuracy    <       0.00031966 Ry

     total magnetization       =     0.00 Bohr mag/cell
     absolute magnetization    =     0.03 Bohr mag/cell

     iteration # 19     ecut=    50.00 Ry     beta= 0.30
     Davidson diagonalization with overlap
     ethr =  1.61E-07,  avg # of iterations =  1.0

     negative rho (up, down):  1.452E-06 1.452E-06

     total cpu time spent up to now is       41.6 secs

     total energy              =    -922.67664373 Ry
     estimated scf accuracy    <       0.00055490 Ry

     total magnetization       =     0.00 Bohr mag/cell
     absolute magnetization    =     0.02 Bohr mag/cell

     iteration # 20     ecut=    50.00 Ry     beta= 0.30
     Davidson diagonalization with overlap
     ethr =  1.61E-07,  avg # of iterations =  1.0

     negative rho (up, down):  1.451E-06 1.451E-06

     total cpu time spent up to now is       43.5 secs

     total energy              =    -922.67665054 Ry
     estimated scf accuracy    <       0.00000795 Ry

     total magnetization       =    -0.00 Bohr mag/cell
     absolute magnetization    =     0.01 Bohr mag/cell

     iteration # 21     ecut=    50.00 Ry     beta= 0.30
     Davidson diagonalization with overlap
     ethr =  4.02E-09,  avg # of iterations =  1.0

     negative rho (up, down):  1.451E-06 1.451E-06

     Magnetic moment per site  (integrated on atomic sphere of radius R)
     atom   1 (R=0.046)  charge=  1.1652  magn=  0.0001
     atom   2 (R=0.046)  charge=  1.1801  magn=  0.0004
     atom   3 (R=0.046)  charge=  1.2020  magn=  0.0000
     atom   4 (R=0.046)  charge=  1.1280  magn= -0.0000
     atom   5 (R=0.046)  charge=  1.1705  magn=  0.0000
     atom   6 (R=0.046)  charge=  1.1951  magn= -0.0000
     atom   7 (R=0.046)  charge=  1.1271  magn=  0.0000
     atom   8 (R=0.046)  charge=  1.1713  magn= -0.0000
     atom   9 (R=0.046)  charge=  1.1947  magn=  0.0000
     atom  10 (R=0.046)  charge=  1.1280  magn= -0.0000
     atom  11 (R=0.046)  charge=  1.1731  magn=  0.0000
     atom  12 (R=0.046)  charge=  1.1938  magn= -0.0000
     atom  13 (R=0.046)  charge=  1.1244  magn= -0.0002
     atom  14 (R=0.046)  charge=  1.1722  magn= -0.0001
     atom  15 (R=0.046)  charge=  1.1828  magn=  0.0000
     atom  16 (R=0.046)  charge=  1.1180  magn= -0.0000
     atom  17 (R=0.046)  charge=  1.1720  magn= -0.0000
     atom  18 (R=0.046)  charge=  1.1832  magn=  0.0000
     atom  19 (R=0.046)  charge=  1.1246  magn= -0.0001
     atom  20 (R=0.046)  charge=  1.1727  magn= -0.0000
     atom  21 (R=0.046)  charge=  1.1832  magn= -0.0000
     atom  22 (R=0.046)  charge=  1.1169  magn= -0.0002
     atom  23 (R=0.046)  charge=  1.1709  magn= -0.0001
     atom  24 (R=0.046)  charge=  1.1838  magn=  0.0000
     atom  25 (R=0.046)  charge=  1.1272  magn= -0.0000
     atom  26 (R=0.046)  charge=  1.1720  magn=  0.0000
     atom  27 (R=0.046)  charge=  1.1964  magn= -0.0000
     atom  28 (R=0.046)  charge=  1.1282  magn=  0.0000
     atom  29 (R=0.046)  charge=  1.1712  magn=  0.0000
     atom  30 (R=0.046)  charge=  1.1967  magn= -0.0001
     atom  31 (R=0.046)  charge=  1.1273  magn=  0.0000
     atom  32 (R=0.046)  charge=  1.1715  magn=  0.0000
     atom  33 (R=0.046)  charge=  1.1971  magn= -0.0000
     atom  34 (R=0.046)  charge=  1.1284  magn=  0.0000
     atom  35 (R=0.046)  charge=  1.1705  magn=  0.0000
     atom  36 (R=0.046)  charge=  1.1965  magn= -0.0001
     atom  37 (R=0.046)  charge=  1.1189  magn= -0.0000
     atom  38 (R=0.046)  charge=  1.1707  magn= -0.0000
     atom  39 (R=0.046)  charge=  1.1844  magn=  0.0000
     atom  40 (R=0.046)  charge=  1.1157  magn= -0.0000
     atom  41 (R=0.046)  charge=  1.1658  magn=  0.0000
     atom  42 (R=0.046)  charge=  1.1876  magn=  0.0002
     atom  43 (R=0.046)  charge=  1.1185  magn= -0.0000
     atom  44 (R=0.046)  charge=  1.1706  magn=  0.0000
     atom  45 (R=0.046)  charge=  1.1845  magn= -0.0000
     atom  46 (R=0.046)  charge=  1.1182  magn= -0.0000
     atom  47 (R=0.046)  charge=  1.1702  magn= -0.0000
     atom  48 (R=0.046)  charge=  1.1865  magn=  0.0000
     atom  49 (R=0.051)  charge=  3.5798  magn=  0.0002

     total cpu time spent up to now is       45.4 secs

     End of self-consistent calculation

 ------ SPIN UP ------------


          k = 0.0000 0.0000 0.0000 ( 26858 PWs)   bands (ev):

   -25.9973 -21.6267 -21.1740 -17.7839 -17.6711 -17.5672 -17.5597 -17.4986
   -17.0850 -16.9263 -16.8659 -16.7768 -16.7229 -16.5690 -16.2209 -16.1361
   -16.0756 -16.0201 -15.9828 -15.8753 -15.7054 -15.4040 -14.8380 -14.7532
   -14.7115 -14.2451 -14.1824 -13.9553 -13.4953 -13.2654 -13.0379 -13.0258
   -12.9449 -12.3903 -12.1343 -11.9165 -11.8884 -11.7734 -11.0171 -10.9597
   -10.9311 -10.6983 -10.6147 -10.3684 -10.1658 -10.0788 -10.0150  -9.6666
    -9.6166  -9.5596  -9.5541  -9.5224  -9.3901  -8.2621  -7.6580  -7.2478
    -7.0099  -6.8762  -6.8468  -6.7047  -6.4087  -6.3866  -6.2135  -6.0673
    -6.0571  -5.7129  -5.6521  -5.6318  -5.5875  -5.5117  -5.5010  -5.4769
    -5.4162  -5.3884  -5.2613  -5.0681  -4.8731  -4.8075  -4.5979  -4.5022
    -4.3611  -4.3343  -4.0339  -3.9718  -3.8748  -3.6965  -3.6593  -3.6455
    -3.4709  -3.4472  -3.2052  -3.1025  -3.0718  -3.0392  -2.6148  -2.4333
    -2.1310  -1.9120  -1.4070  -1.3714  -0.3365  -0.2470   0.0673   0.4860
     0.5775   0.8705   1.1098   1.1797   1.2355   1.2852   1.5930   1.6151
     2.0599   2.1652   2.2494   2.4730   2.4821   2.5243   2.7609

 ------ SPIN DOWN ----------


          k = 0.0000 0.0000 0.0000 ( 26858 PWs)   bands (ev):

   -25.9973 -21.6267 -21.1740 -17.7839 -17.6711 -17.5672 -17.5598 -17.4986
   -17.0850 -16.9263 -16.8658 -16.7768 -16.7229 -16.5689 -16.2208 -16.1362
   -16.0756 -16.0201 -15.9827 -15.8753 -15.7054 -15.4040 -14.8380 -14.7532
   -14.7115 -14.2451 -14.1824 -13.9552 -13.4953 -13.2654 -13.0379 -13.0258
   -12.9450 -12.3903 -12.1342 -11.9165 -11.8884 -11.7734 -11.0170 -10.9597
   -10.9311 -10.6983 -10.6146 -10.3684 -10.1658 -10.0788 -10.0150  -9.6666
    -9.6167  -9.5596  -9.5541  -9.5224  -9.3900  -8.2620  -7.6582  -7.2477
    -7.0099  -6.8763  -6.8468  -6.7048  -6.4087  -6.3866  -6.2135  -6.0673
    -6.0572  -5.7128  -5.6520  -5.6318  -5.5875  -5.5117  -5.5010  -5.4769
    -5.4162  -5.3884  -5.2613  -5.0681  -4.8731  -4.8074  -4.5979  -4.5022
    -4.3611  -4.3342  -4.0339  -3.9719  -3.8747  -3.6965  -3.6593  -3.6455
    -3.4709  -3.4472  -3.2052  -3.1025  -3.0718  -3.0392  -2.6148  -2.4331
    -2.1310  -1.9119  -1.4074  -1.3709  -0.3365  -0.2470   0.0673   0.4860
     0.5775   0.8705   1.1098   1.1797   1.2355   1.2852   1.5930   1.6151
     2.0599   2.1653   2.2494   2.4730   2.4821   2.5243   2.7610

     the spin up/dw Fermi energies are    -1.3858   -1.3858 ev

!    total energy              =    -922.67665108 Ry
     total all-electron energy =     -3804.200239 Ry
     estimated scf accuracy    <       0.00000013 Ry
     smearing contrib. (-TS)   =      -0.00000000 Ry
     internal energy E=F+TS    =    -922.67665108 Ry

     The total energy is F=E-TS. E is the sum of the following terms:
     one-electron contribution =   -1323.09121565 Ry
     hartree contribution      =     707.59506560 Ry
     xc contribution           =    -225.82556395 Ry
     ewald contribution        =     224.23133727 Ry
     one-center paw contrib.   =    -305.58627435 Ry

     total magnetization       =    -0.00 Bohr mag/cell
     absolute magnetization    =     0.01 Bohr mag/cell

     convergence has been achieved in  21 iterations

     negative rho (up, down):  1.451E-06 1.451E-06

     Forces acting on atoms (cartesian axes, Ry/au):

     atom    1 type  1   force =    -0.04495739   -0.20289772   -0.09745166
     atom    2 type  1   force =     0.18854250   -0.19858578    0.17016855
     atom    3 type  1   force =    -0.03282730    0.02082991   -0.03204502
     atom    4 type  1   force =     0.00585878    0.00341439    0.00637684
     atom    5 type  1   force =    -0.04947974    0.04917390    0.04885217
     atom    6 type  1   force =    -0.03447458    0.03548419    0.04261040
     atom    7 type  1   force =     0.01656276    0.02000224   -0.05516280
     atom    8 type  1   force =     0.05671227    0.05675037   -0.05536191
     atom    9 type  1   force =     0.02610872    0.03248590   -0.02728805
     atom   10 type  1   force =    -0.02886270   -0.02517533   -0.03412890
     atom   11 type  1   force =    -0.05263158   -0.05345079   -0.05228774
     atom   12 type  1   force =    -0.03281705   -0.02884905   -0.03871232
     atom   13 type  1   force =    -0.06218521    0.08029973   -0.06511231
     atom   14 type  1   force =     0.07094388   -0.07141848   -0.06797783
     atom   15 type  1   force =    -0.03075721    0.03249251    0.03086361
     atom   16 type  1   force =     0.06120094   -0.05137002    0.04386634
     atom   17 type  1   force =    -0.04923226    0.04884308   -0.04904611
     atom   18 type  1   force =     0.00431277   -0.00279513    0.00519585
     atom   19 type  1   force =    -0.02637310   -0.00922435   -0.14905153
     atom   20 type  1   force =    -0.06383283   -0.06320099    0.06319493
     atom   21 type  1   force =     0.02115650    0.02094203   -0.02322073
     atom   22 type  1   force =    -0.02578470    0.15154495   -0.08475892
     atom   23 type  1   force =     0.06848567    0.06958248    0.06526089
     atom   24 type  1   force =    -0.01977927   -0.00673604   -0.03895554
     atom   25 type  1   force =     0.01319435   -0.01665518    0.02285028
     atom   26 type  1   force =     0.04674971   -0.04697704    0.04665664
     atom   27 type  1   force =     0.03810085   -0.03826018    0.03790630
     atom   28 type  1   force =    -0.01646931    0.02000759    0.05089774
     atom   29 type  1   force =    -0.06172371    0.06136442    0.05929686
     atom   30 type  1   force =    -0.02307577    0.02348524    0.03130823
     atom   31 type  1   force =     0.02631392    0.03160389   -0.01892010
     atom   32 type  1   force =     0.05693851    0.05686113   -0.05686677
     atom   33 type  1   force =     0.03095182    0.02998367   -0.02889829
     atom   34 type  1   force =    -0.03043512   -0.04417226   -0.02169336
     atom   35 type  1   force =    -0.06296435   -0.06251197   -0.06226038
     atom   36 type  1   force =    -0.02273972   -0.02776835   -0.02320993
     atom   37 type  1   force =    -0.05531350    0.05251239    0.04488379
     atom   38 type  1   force =     0.05367097   -0.05300716   -0.05366815
     atom   39 type  1   force =    -0.00875599    0.00815836    0.00758880
     atom   40 type  1   force =     0.02810512   -0.01706181    0.00006079
     atom   41 type  1   force =    -0.12297804    0.12308223   -0.12067629
     atom   42 type  1   force =     0.06442108   -0.06083942    0.05687323
     atom   43 type  1   force =     0.05098554    0.04873659   -0.05100091
     atom   44 type  1   force =    -0.05593482   -0.05652969    0.05670828
     atom   45 type  1   force =     0.01011191    0.00986556   -0.00951155
     atom   46 type  1   force =    -0.05304057   -0.04836626   -0.05200071
     atom   47 type  1   force =     0.05444128    0.05435747    0.05480121
     atom   48 type  1   force =    -0.00732794   -0.00807248   -0.00717260
     atom   49 type  2   force =     0.08088394    0.05206125    0.43021872

     Total force =     0.832913     Total SCF correction =     0.000274

     BFGS Geometry Optimization
     Energy error            =      0.0E+00 Ry
     Gradient error          =      4.3E-01 Ry/Bohr

     number of scf cycles    =   1
     number of bfgs steps    =   0

     energy             new  =    -922.6766510804 Ry

     new trust radius        =       0.4408409329 bohr
     new conv_thr            =       0.0000010000 Ry


ATOMIC_POSITIONS (angstrom)
C             6.1442095726        4.5006311486        6.1174308005
C             7.7837723958        2.9809129299        7.7740493207
C             6.9566285412        3.8100227152        6.9570425067
C             4.6111003351        6.1708068159        6.1723744804
C             3.0598164516        7.7100217075        7.7098514533
C             3.7807568404        6.9927774256        6.9965484524
C             6.1777646350        6.1795847297        4.5788091053
C             7.7140108384        7.7140310019        3.0567037367
C             6.9878161380        6.9911907975        3.7845597845
C             4.5877265173        4.5896777904        4.5849397616
C             3.0571485666        3.0567150577        3.0573305217
C             3.7786339654        3.7807337423        3.7755143224
C             6.1920930049        4.5884927862        4.5115440493
C             7.8015418846        2.9752069701        2.9770276800
C             7.0367239834        3.7381942978        3.7383323198
C             4.5783861431        6.1978161553        4.5692130687
C             2.9869474092        7.7908466452        2.9870459141
C             3.7232822173        7.0515208822        3.7247495278
C             4.5320439566        4.5401186832        6.1471253294
C             2.9792211190        2.9795554752        7.7974413181
C             3.7321955365        3.7320820464        7.0407121164
C             6.2153553229        6.3091941351        6.1841475130
C             7.8002410546        7.8018214604        7.7995345776
C             7.0445332597        7.0524354431        7.0343856143
C             0.6749821504       10.0941864591        0.6800918450
C             2.2127388833        8.5641408197        2.2126896294
C             1.4961621002        9.2777535853        1.4960591481
C            10.0932848178        0.6775875631        0.6949339240
C             8.5563372186        2.2194726539        2.2193785454
C             9.2857888279        1.4874278548        1.4925676015
C             0.6819247293        0.6837240575       10.0929879138
C             2.2171305598        2.2170896158        8.5589073994
C             1.4923789967        1.4908666742        9.2827076852
C            10.0918944277       10.0846250454       10.0955203667
C             8.5566807003        8.5569200919        8.5570532249
C             9.2889666562        9.2863056241        9.2877178333
C             0.6997293540       10.0737883584       10.0697514802
C             2.2874014548        8.4809498167        8.4796000371
C             1.5473665283        9.2233172191        9.2230158175
C            10.0598725867        0.7189712789       10.0460321668
C             8.4429228252        2.3241323086        8.4441408585
C             9.2520901655        1.5188051648        9.2480960175
C            10.0729803881       10.0727902914        0.7020114798
C             8.4784005704        8.4790857767        2.2890087302
C             9.2243509908        9.2242206313        1.5469667020
C             0.6979321367        0.6994056773        0.6974824073
C             2.2888090825        2.2877647356        2.2889995497
C             1.5471222226        1.5457282293        1.5462044220
O             6.1258019371        4.9435496244        7.7096619401



     Writing config-only to output data dir ./pwscf.save/
     NEW-OLD atomic charge density approx. for the potential

     Check: negative core charge=   -0.000004

     negative rho (up, down):  1.561E-06 1.537E-06
     Generating pointlists ...
     new r_m :   0.0430 (alat units)  0.8938 (a.u.) for type    1

     total cpu time spent up to now is       49.5 secs

     Self-consistent Calculation

     iteration #  1     ecut=    50.00 Ry     beta= 0.30
     Davidson diagonalization with overlap
     c_bands:  1 eigenvalues not converged
     c_bands:  1 eigenvalues not converged
     ethr =  1.00E-06,  avg # of iterations = 20.0

     negative rho (up, down):  1.428E-06 1.427E-06

     total cpu time spent up to now is       56.4 secs

     total energy              =    -922.58316375 Ry
     estimated scf accuracy    <       0.89776968 Ry

     total magnetization       =    -0.00 Bohr mag/cell
     absolute magnetization    =     0.01 Bohr mag/cell

     iteration #  2     ecut=    50.00 Ry     beta= 0.30
     Davidson diagonalization with overlap
     ethr =  4.53E-04,  avg # of iterations =  3.0

     negative rho (up, down):  1.945E-06 1.944E-06

     total cpu time spent up to now is       58.6 secs

     total energy              =    -922.52116553 Ry
     estimated scf accuracy    <       2.67047187 Ry

     total magnetization       =    -0.00 Bohr mag/cell
     absolute magnetization    =     0.00 Bohr mag/cell

     iteration #  3     ecut=    50.00 Ry     beta= 0.30
     Davidson diagonalization with overlap
     ethr =  4.53E-04,  avg # of iterations =  2.0

     negative rho (up, down):  1.892E-06 1.891E-06

     total cpu time spent up to now is       60.7 secs

     total energy              =    -922.72358806 Ry
     estimated scf accuracy    <       0.47520888 Ry

     total magnetization       =     0.00 Bohr mag/cell
     absolute magnetization    =     0.01 Bohr mag/cell

     iteration #  4     ecut=    50.00 Ry     beta= 0.30
     Davidson diagonalization with overlap
     ethr =  2.40E-04,  avg # of iterations =  1.0

     negative rho (up, down):  1.796E-06 1.796E-06

     total cpu time spent up to now is       62.6 secs

     total energy              =    -922.74520654 Ry
     estimated scf accuracy    <       0.09507092 Ry

     total magnetization       =     0.00 Bohr mag/cell
     absolute magnetization    =     0.01 Bohr mag/cell

     iteration #  5     ecut=    50.00 Ry     beta= 0.30
     Davidson diagonalization with overlap
     ethr =  4.80E-05,  avg # of iterations =  2.0

     negative rho (up, down):  1.435E-06 1.435E-06

     total cpu time spent up to now is       64.7 secs

     total energy              =    -922.74765352 Ry
     estimated scf accuracy    <       0.02039297 Ry

     total magnetization       =     0.00 Bohr mag/cell
     absolute magnetization    =     0.01 Bohr mag/cell

     iteration #  6     ecut=    50.00 Ry     beta= 0.30
     Davidson diagonalization with overlap
     ethr =  1.03E-05,  avg # of iterations =  2.0

     negative rho (up, down):  1.348E-06 1.348E-06

     total cpu time spent up to now is       66.7 secs

     total energy              =    -922.74723838 Ry
     estimated scf accuracy    <       0.00377065 Ry

     total magnetization       =    -0.00 Bohr mag/cell
     absolute magnetization    =     0.01 Bohr mag/cell

     iteration #  7     ecut=    50.00 Ry     beta= 0.30
     Davidson diagonalization with overlap
     ethr =  1.90E-06,  avg # of iterations =  8.0

     negative rho (up, down):  1.352E-06 1.353E-06

     total cpu time spent up to now is       69.3 secs

     total energy              =    -922.74733884 Ry
     estimated scf accuracy    <       0.00097405 Ry

     total magnetization       =    -0.00 Bohr mag/cell
     absolute magnetization    =     0.01 Bohr mag/cell

     iteration #  8     ecut=    50.00 Ry     beta= 0.30
     Davidson diagonalization with overlap
     ethr =  4.92E-07,  avg # of iterations =  2.0

     negative rho (up, down):  1.356E-06 1.356E-06

     total cpu time spent up to now is       71.4 secs

     total energy              =    -922.74733147 Ry
     estimated scf accuracy    <       0.00028531 Ry

     total magnetization       =     0.00 Bohr mag/cell
     absolute magnetization    =     0.01 Bohr mag/cell

     iteration #  9     ecut=    50.00 Ry     beta= 0.30
     Davidson diagonalization with overlap
     ethr =  1.44E-07,  avg # of iterations =  4.0

     negative rho (up, down):  1.360E-06 1.360E-06

     total cpu time spent up to now is       73.5 secs

     total energy              =    -922.74733249 Ry
     estimated scf accuracy    <       0.00007068 Ry

     total magnetization       =    -0.00 Bohr mag/cell
     absolute magnetization    =     0.01 Bohr mag/cell

     iteration # 10     ecut=    50.00 Ry     beta= 0.30
     Davidson diagonalization with overlap
     ethr =  3.57E-08,  avg # of iterations =  2.0

     negative rho (up, down):  1.358E-06 1.359E-06

     total cpu time spent up to now is       75.7 secs

     total energy              =    -922.74733200 Ry
     estimated scf accuracy    <       0.00003354 Ry

     total magnetization       =     0.00 Bohr mag/cell
     absolute magnetization    =     0.01 Bohr mag/cell

     iteration # 11     ecut=    50.00 Ry     beta= 0.30
     Davidson diagonalization with overlap
     ethr =  1.69E-08,  avg # of iterations =  3.0

     negative rho (up, down):  1.357E-06 1.357E-06

     total cpu time spent up to now is       77.8 secs

     total energy              =    -922.74733659 Ry
     estimated scf accuracy    <       0.00000665 Ry

     total magnetization       =    -0.00 Bohr mag/cell
     absolute magnetization    =     0.01 Bohr mag/cell

     iteration # 12     ecut=    50.00 Ry     beta= 0.30
     Davidson diagonalization with overlap
     ethr =  3.36E-09,  avg # of iterations =  2.0

     negative rho (up, down):  1.353E-06 1.353E-06

     Magnetic moment per site  (integrated on atomic sphere of radius R)
     atom   1 (R=0.043)  charge=  0.9355  magn=  0.0000
     atom   2 (R=0.043)  charge=  1.0344  magn=  0.0002
     atom   3 (R=0.043)  charge=  0.9345  magn= -0.0001
     atom   4 (R=0.043)  charge=  0.9346  magn=  0.0000
     atom   5 (R=0.043)  charge=  1.0004  magn=  0.0000
     atom   6 (R=0.043)  charge=  0.9823  magn= -0.0000
     atom   7 (R=0.043)  charge=  0.9474  magn= -0.0000
     atom   8 (R=0.043)  charge=  0.9959  magn= -0.0000
     atom   9 (R=0.043)  charge=  0.9851  magn=  0.0000
     atom  10 (R=0.043)  charge=  0.9518  magn= -0.0000
     atom  11 (R=0.043)  charge=  0.9985  magn= -0.0000
     atom  12 (R=0.043)  charge=  0.9881  magn=  0.0000
     atom  13 (R=0.043)  charge=  0.9434  magn= -0.0001
     atom  14 (R=0.043)  charge=  0.9719  magn= -0.0000
     atom  15 (R=0.043)  charge=  0.9459  magn=  0.0000
     atom  16 (R=0.043)  charge=  0.9301  magn= -0.0000
     atom  17 (R=0.043)  charge=  0.9795  magn= -0.0000
     atom  18 (R=0.043)  charge=  0.9549  magn= -0.0000
     atom  19 (R=0.043)  charge=  0.9383  magn= -0.0000
     atom  20 (R=0.043)  charge=  0.9751  magn= -0.0000
     atom  21 (R=0.043)  charge=  0.9467  magn=  0.0000
     atom  22 (R=0.043)  charge=  0.9279  magn= -0.0001
     atom  23 (R=0.043)  charge=  0.9766  magn= -0.0001
     atom  24 (R=0.043)  charge=  0.9560  magn=  0.0000
     atom  25 (R=0.043)  charge=  0.9414  magn= -0.0000
     atom  26 (R=0.043)  charge=  0.9976  magn= -0.0000
     atom  27 (R=0.043)  charge=  0.9882  magn=  0.0000
     atom  28 (R=0.043)  charge=  0.9428  magn=  0.0001
     atom  29 (R=0.043)  charge=  0.9960  magn=  0.0000
     atom  30 (R=0.043)  charge=  0.9818  magn= -0.0000
     atom  31 (R=0.043)  charge=  0.9428  magn=  0.0000
     atom  32 (R=0.043)  charge=  0.9961  magn=  0.0000
     atom  33 (R=0.043)  charge=  0.9840  magn= -0.0000
     atom  34 (R=0.043)  charge=  0.9436  magn=  0.0001
     atom  35 (R=0.043)  charge=  0.9955  magn=  0.0000
     atom  36 (R=0.043)  charge=  0.9844  magn= -0.0001
     atom  37 (R=0.043)  charge=  0.9295  magn= -0.0000
     atom  38 (R=0.043)  charge=  0.9769  magn= -0.0000
     atom  39 (R=0.043)  charge=  0.9523  magn=  0.0000
     atom  40 (R=0.043)  charge=  0.9352  magn= -0.0001
     atom  41 (R=0.043)  charge=  1.0338  magn= -0.0001
     atom  42 (R=0.043)  charge=  0.9390  magn=  0.0004
     atom  43 (R=0.043)  charge=  0.9310  magn= -0.0000
     atom  44 (R=0.043)  charge=  0.9784  magn=  0.0000
     atom  45 (R=0.043)  charge=  0.9511  magn= -0.0000
     atom  46 (R=0.043)  charge=  0.9312  magn= -0.0000
     atom  47 (R=0.043)  charge=  0.9778  magn=  0.0000
     atom  48 (R=0.043)  charge=  0.9541  magn= -0.0000
     atom  49 (R=0.051)  charge=  3.4621  magn= -0.0004

     total cpu time spent up to now is       79.9 secs

     End of self-consistent calculation

 ------ SPIN UP ------------


          k = 0.0000 0.0000 0.0000 ( 26858 PWs)   bands (ev):

   -22.7550 -21.8213 -21.0494 -17.7944 -17.6821 -17.6410 -17.5723 -17.4866
   -17.2062 -17.0364 -16.9663 -16.8959 -16.8681 -16.8029 -16.4078 -16.2726
   -16.1501 -15.8871 -15.8186 -15.6269 -15.4709 -15.2000 -14.6468 -14.4907
   -14.4465 -14.4112 -14.3168 -14.2828 -13.9143 -13.5009 -12.8137 -12.8020
   -12.6812 -12.4232 -12.3587 -12.2891 -12.1750 -11.5629 -11.2562 -11.2046
   -11.1391 -10.8228 -10.4696 -10.1496 -10.0603 -10.0032  -9.7526  -9.6984
    -9.6708  -9.6265  -9.5968  -9.4979  -9.3177  -7.6331  -7.3116  -7.0922
    -6.8855  -6.8404  -6.7746  -6.5895  -6.5057  -6.3796  -6.1797  -6.1353
    -6.0617  -5.9666  -5.8442  -5.7225  -5.6606  -5.6559  -5.6134  -5.5790
    -5.5642  -5.5141  -5.4427  -5.1108  -5.0827  -5.0606  -4.8286  -4.7465
    -4.6957  -4.6170  -3.7892  -3.7223  -3.6343  -3.4930  -3.3686  -3.3068
    -3.1538  -3.1107  -2.9333  -2.8939  -2.8658  -2.8182  -2.4636  -2.1983
    -1.9370  -1.7688  -1.6603  -1.1387  -1.0238  -0.6152  -0.1496  -0.0323
     0.2245   0.5218   0.6267   0.7711   0.8775   0.9079   1.0569   1.0972
     1.8123   1.9990   2.0349   2.1657   2.4558   2.4661   2.5646

 ------ SPIN DOWN ----------


          k = 0.0000 0.0000 0.0000 ( 26858 PWs)   bands (ev):

   -22.7555 -21.8212 -21.0496 -17.7945 -17.6821 -17.6408 -17.5723 -17.4867
   -17.2060 -17.0364 -16.9664 -16.8959 -16.8682 -16.8029 -16.4078 -16.2727
   -16.1501 -15.8872 -15.8186 -15.6270 -15.4709 -15.1998 -14.6468 -14.4907
   -14.4466 -14.4112 -14.3168 -14.2827 -13.9143 -13.5009 -12.8137 -12.8020
   -12.6811 -12.4231 -12.3587 -12.2891 -12.1750 -11.5629 -11.2562 -11.2046
   -11.1391 -10.8228 -10.4695 -10.1496 -10.0604 -10.0032  -9.7527  -9.6984
    -9.6708  -9.6265  -9.5969  -9.4980  -9.3178  -7.6332  -7.3118  -7.0923
    -6.8854  -6.8404  -6.7746  -6.5894  -6.5057  -6.3796  -6.1797  -6.1353
    -6.0615  -5.9666  -5.8442  -5.7225  -5.6607  -5.6559  -5.6134  -5.5790
    -5.5642  -5.5141  -5.4428  -5.1108  -5.0826  -5.0606  -4.8285  -4.7465
    -4.6956  -4.6170  -3.7893  -3.7223  -3.6344  -3.4930  -3.3687  -3.3068
    -3.1538  -3.1107  -2.9334  -2.8939  -2.8659  -2.8183  -2.4637  -2.1984
    -1.9370  -1.7685  -1.6600  -1.1383  -1.0236  -0.6152  -0.1496  -0.0323
     0.2244   0.5217   0.6266   0.7711   0.8775   0.9078   1.0569   1.0971
     1.8122   1.9990   2.0349   2.1656   2.4559   2.4661   2.5646

     the spin up/dw Fermi energies are    -1.3823   -1.3823 ev

!    total energy              =    -922.74733746 Ry
     total all-electron energy =     -3804.270925 Ry
     estimated scf accuracy    <       0.00000088 Ry
     smearing contrib. (-TS)   =      -0.00000000 Ry
     internal energy E=F+TS    =    -922.74733746 Ry

     The total energy is F=E-TS. E is the sum of the following terms:
     one-electron contribution =   -1296.16176490 Ry
     hartree contribution      =     694.07753950 Ry
     xc contribution           =    -225.26605927 Ry
     ewald contribution        =     210.18169385 Ry
     one-center paw contrib.   =    -305.57874664 Ry

     total magnetization       =    -0.00 Bohr mag/cell
     absolute magnetization    =     0.01 Bohr mag/cell

     convergence has been achieved in  12 iterations

     negative rho (up, down):  1.353E-06 1.353E-06

     Forces acting on atoms (cartesian axes, Ry/au):

     atom    1 type  1   force =    -0.06784969   -0.01996508   -0.01974851
     atom    2 type  1   force =    -0.39574419    0.37963975   -0.42308690
     atom    3 type  1   force =     0.08169939   -0.06144181    0.27096886
     atom    4 type  1   force =    -0.00970412    0.01659762    0.01428858
     atom    5 type  1   force =     0.04239382   -0.04253905   -0.04053537
     atom    6 type  1   force =    -0.01920331    0.01407330    0.01958497
     atom    7 type  1   force =     0.00919553    0.01888827   -0.01795956
     atom    8 type  1   force =    -0.06922969   -0.06833740    0.07071739
     atom    9 type  1   force =     0.06083710    0.06525782   -0.07468964
     atom   10 type  1   force =    -0.02868484   -0.00696060   -0.04859783
     atom   11 type  1   force =     0.05582161    0.05535451    0.05515000
     atom   12 type  1   force =    -0.05201631   -0.04767118   -0.05827476
     atom   13 type  1   force =    -0.00542378    0.01678245   -0.02103937
     atom   14 type  1   force =    -0.16301573    0.16353793    0.16483501
     atom   15 type  1   force =     0.10006523   -0.09802360   -0.11597920
     atom   16 type  1   force =    -0.01187988    0.01762877   -0.02286041
     atom   17 type  1   force =     0.10295907   -0.10358710    0.10292406
     atom   18 type  1   force =    -0.04826259    0.05051985   -0.04861265
     atom   19 type  1   force =     0.02585794   -0.00183652   -0.00005068
     atom   20 type  1   force =     0.15028061    0.15280781   -0.15423945
     atom   21 type  1   force =    -0.09919504   -0.09887519    0.07994718
     atom   22 type  1   force =    -0.03554063    0.03143332   -0.04531520
     atom   23 type  1   force =    -0.13789421   -0.13610486   -0.14434807
     atom   24 type  1   force =     0.09232135    0.10539460    0.07174931
     atom   25 type  1   force =     0.01072807   -0.01682037    0.01719618
     atom   26 type  1   force =    -0.03374798    0.03340017   -0.03392196
     atom   27 type  1   force =     0.02396392   -0.02386497    0.02540893
     atom   28 type  1   force =    -0.00552379   -0.00286966    0.04161865
     atom   29 type  1   force =     0.07878655   -0.08059024   -0.08116423
     atom   30 type  1   force =    -0.04974870    0.05036376    0.06437062
     atom   31 type  1   force =     0.00877264    0.01390634   -0.01076497
     atom   32 type  1   force =    -0.07074975   -0.07050238    0.07377554
     atom   33 type  1   force =     0.05426243    0.05415765   -0.05325294
     atom   34 type  1   force =    -0.01198180   -0.02897792    0.00061972
     atom   35 type  1   force =     0.07624680    0.07700756    0.07911992
     atom   36 type  1   force =    -0.05894945   -0.06621236   -0.05800847
     atom   37 type  1   force =     0.00491331   -0.00268442   -0.01451018
     atom   38 type  1   force =    -0.11557637    0.11641459    0.11544629
     atom   39 type  1   force =     0.05680634   -0.05689454   -0.05988876
     atom   40 type  1   force =     0.00425613    0.02490528   -0.03602778
     atom   41 type  1   force =     0.41650115   -0.41087872    0.41497437
     atom   42 type  1   force =    -0.08425735    0.09133187   -0.09747011
     atom   43 type  1   force =    -0.01243763   -0.01075796    0.01088339
     atom   44 type  1   force =     0.12603235    0.12580515   -0.12411560
     atom   45 type  1   force =    -0.06093337   -0.06181121    0.06291823
     atom   46 type  1   force =     0.00717234    0.01398464    0.00937586
     atom   47 type  1   force =    -0.11850862   -0.11827531   -0.11827414
     atom   48 type  1   force =     0.05746009    0.05853425    0.05896106
     atom   49 type  2   force =     0.11872503   -0.11124483    0.09790259

     Total force =     1.339423     Total SCF correction =     0.001286
     Energy error            =      7.1E-02 Ry
     Gradient error          =      4.2E-01 Ry/Bohr

     number of scf cycles    =   2
     number of bfgs steps    =   1

     energy             old  =    -922.6766510804 Ry
     energy             new  =    -922.7473374567 Ry

     CASE: energy            _new < energy            _old

     new trust radius        =       0.3235365561 bohr
     new conv_thr            =       0.0000010000 Ry


ATOMIC_POSITIONS (angstrom)
C             6.1107634874        4.4328823653        6.0819383323
C             7.7263138302        3.0306245119        7.7030339951
C             6.9703518279        3.7985243510        7.0260152107
C             4.6100685891        6.1766732977        6.1784743032
C             3.0570315987        7.7126709775        7.7129848585
C             3.7646501452        7.0077013419        7.0152499951
C             6.1854940042        6.1911813603        4.5567476557
C             7.7112040669        7.7114952070        3.0603551729
C             7.0134694135        7.0200759352        3.7545202543
C             4.5705773880        4.5799685221        4.5603951758
C             3.0573041805        3.0564848000        3.0573959132
C             3.7534963289        3.7580704623        3.7467578208
C             6.1715310511        4.6178865821        4.4855498117
C             7.7758214963        3.0009342364        3.0041823888
C             7.0564172552        3.7196242195        3.7140461862
C             4.5936183389        6.1872563010        4.5759614404
C             3.0018412118        7.7756514857        3.0019863739
C             3.7105715608        7.0653509498        3.7122067409
C             4.5315076071        4.5367686489        6.1016041999
C             3.0034111322        3.0046729169        7.7719059263
C             3.7098240233        3.7097380200        7.0568590740
C             6.1971533115        6.3645977920        6.1450993430
C             7.7810716515        7.7835069888        7.7775048358
C             7.0653274331        7.0810115001        7.0433459481
C             0.6821285511       10.0842127375        0.6920661989
C             2.2172031292        8.5595060800        2.2170748919
C             1.5147595748        9.2591362253        1.5150172140
C            10.0866511577        0.6828619550        0.7225696652
C             8.5603916337        2.2147843090        2.2138921305
C             9.2642843405        1.5092361231        1.5208353268
C             0.6925082823        0.6974147657       10.0840826795
C             2.2139510621        2.2139583907        8.5629882350
C             1.5175999938        1.5157616359        9.2584070496
C            10.0791199139       10.0627166229       10.0890773610
C             8.5596181697        8.5602167887        8.5610406846
C             9.2648905968        9.2585833513        9.2637717100
C             0.6842698203       10.0890405121       10.0792374560
C             2.2701956396        8.4986019230        8.4967689063
C             1.5612038537        9.2092717979        9.2079262435
C            10.0696902932        0.7210008391       10.0355793643
C             8.5264315956        2.2422894905        8.5279086145
C             9.2472692018        1.5267758180        9.2371303998
C            10.0849316485       10.0845431215        0.6896037934
C             8.4979542187        8.4983917712        2.2702483239
C             9.2097281287        9.2092674168        1.5623497498
C             0.6838231240        0.6887037353        0.6843313171
C             2.2709861973        2.2699840733        2.2713547049
C             1.5615855509        1.5602764470        1.5611514292
O             6.1850033891        4.9271112958        7.8694655937



     Writing config-only to output data dir ./pwscf.save/
     NEW-OLD atomic charge density approx. for the potential

     Check: negative core charge=   -0.000004

     negative rho (up, down):  1.333E-06 1.322E-06
     Generating pointlists ...

     total cpu time spent up to now is       84.5 secs

     Self-consistent Calculation

     iteration #  1     ecut=    50.00 Ry     beta= 0.30
     Davidson diagonalization with overlap
     c_bands:  1 eigenvalues not converged
     c_bands:  1 eigenvalues not converged
     ethr =  1.00E-06,  avg # of iterations = 20.0

     negative rho (up, down):  1.647E-06 1.649E-06

     total cpu time spent up to now is       90.9 secs

     total energy              =    -922.94589666 Ry
     estimated scf accuracy    <       0.39608525 Ry

     total magnetization       =    -0.00 Bohr mag/cell
     absolute magnetization    =     0.01 Bohr mag/cell

     iteration #  2     ecut=    50.00 Ry     beta= 0.30
     Davidson diagonalization with overlap
     ethr =  2.00E-04,  avg # of iterations =  4.0

     negative rho (up, down):  1.954E-06 1.955E-06

     total cpu time spent up to now is       93.1 secs

     total energy              =    -922.92863214 Ry
     estimated scf accuracy    <       0.71582184 Ry

     total magnetization       =     0.00 Bohr mag/cell
     absolute magnetization    =     0.00 Bohr mag/cell

     iteration #  3     ecut=    50.00 Ry     beta= 0.30
     Davidson diagonalization with overlap
     ethr =  2.00E-04,  avg # of iterations =  2.0

     negative rho (up, down):  2.030E-06 2.031E-06

     total cpu time spent up to now is       95.2 secs

     total energy              =    -922.97538778 Ry
     estimated scf accuracy    <       0.20155160 Ry

     total magnetization       =    -0.00 Bohr mag/cell
     absolute magnetization    =     0.01 Bohr mag/cell

     iteration #  4     ecut=    50.00 Ry     beta= 0.30
     Davidson diagonalization with overlap
     ethr =  1.02E-04,  avg # of iterations =  2.0

     negative rho (up, down):  2.039E-06 2.040E-06

     total cpu time spent up to now is       97.3 secs

     total energy              =    -922.98211095 Ry
     estimated scf accuracy    <       0.05274200 Ry

     total magnetization       =    -0.00 Bohr mag/cell
     absolute magnetization    =     0.01 Bohr mag/cell

     iteration #  5     ecut=    50.00 Ry     beta= 0.30
     Davidson diagonalization with overlap
     ethr =  2.66E-05,  avg # of iterations =  2.0

     negative rho (up, down):  2.032E-06 2.032E-06

     total cpu time spent up to now is       99.3 secs

     total energy              =    -922.98487371 Ry
     estimated scf accuracy    <       0.01525702 Ry

     total magnetization       =    -0.00 Bohr mag/cell
     absolute magnetization    =     0.01 Bohr mag/cell

     iteration #  6     ecut=    50.00 Ry     beta= 0.30
     Davidson diagonalization with overlap
     ethr =  7.71E-06,  avg # of iterations =  2.0

     negative rho (up, down):  2.024E-06 2.024E-06

     total cpu time spent up to now is      101.4 secs

     total energy              =    -922.98538588 Ry
     estimated scf accuracy    <       0.00296264 Ry

     total magnetization       =    -0.00 Bohr mag/cell
     absolute magnetization    =     0.01 Bohr mag/cell

     iteration #  7     ecut=    50.00 Ry     beta= 0.30
     Davidson diagonalization with overlap
     ethr =  1.50E-06,  avg # of iterations =  9.0

     negative rho (up, down):  1.999E-06 2.000E-06

     total cpu time spent up to now is      103.8 secs

     total energy              =    -922.98558537 Ry
     estimated scf accuracy    <       0.00121477 Ry

     total magnetization       =    -0.00 Bohr mag/cell
     absolute magnetization    =     0.02 Bohr mag/cell

     iteration #  8     ecut=    50.00 Ry     beta= 0.30
     Davidson diagonalization with overlap
     ethr =  6.14E-07,  avg # of iterations =  2.0

     negative rho (up, down):  1.980E-06 1.980E-06

     total cpu time spent up to now is      105.8 secs

     total energy              =    -922.98562412 Ry
     estimated scf accuracy    <       0.00015706 Ry

     total magnetization       =     0.00 Bohr mag/cell
     absolute magnetization    =     0.02 Bohr mag/cell

     iteration #  9     ecut=    50.00 Ry     beta= 0.30
     Davidson diagonalization with overlap
     ethr =  7.93E-08,  avg # of iterations =  2.0

     negative rho (up, down):  1.972E-06 1.973E-06

     total cpu time spent up to now is      108.0 secs

     total energy              =    -922.98563032 Ry
     estimated scf accuracy    <       0.00002305 Ry

     total magnetization       =     0.00 Bohr mag/cell
     absolute magnetization    =     0.03 Bohr mag/cell

     iteration # 10     ecut=    50.00 Ry     beta= 0.30
     Davidson diagonalization with overlap
     ethr =  1.16E-08,  avg # of iterations =  4.0

     negative rho (up, down):  1.970E-06 1.970E-06

     total cpu time spent up to now is      110.2 secs

     total energy              =    -922.98563431 Ry
     estimated scf accuracy    <       0.00000832 Ry

     total magnetization       =    -0.00 Bohr mag/cell
     absolute magnetization    =     0.04 Bohr mag/cell

     iteration # 11     ecut=    50.00 Ry     beta= 0.30
     Davidson diagonalization with overlap
     ethr =  4.20E-09,  avg # of iterations =  2.0

     negative rho (up, down):  1.968E-06 1.969E-06

     total cpu time spent up to now is      112.1 secs

     total energy              =    -922.98563900 Ry
     estimated scf accuracy    <       0.00000328 Ry

     total magnetization       =    -0.00 Bohr mag/cell
     absolute magnetization    =     0.05 Bohr mag/cell

     iteration # 12     ecut=    50.00 Ry     beta= 0.30
     Davidson diagonalization with overlap
     ethr =  1.66E-09,  avg # of iterations =  4.0

     negative rho (up, down):  1.966E-06 1.967E-06

     total cpu time spent up to now is      114.3 secs

     total energy              =    -922.98563810 Ry
     estimated scf accuracy    <       0.00000358 Ry

     total magnetization       =    -0.00 Bohr mag/cell
     absolute magnetization    =     0.07 Bohr mag/cell

     iteration # 13     ecut=    50.00 Ry     beta= 0.30
     Davidson diagonalization with overlap
     ethr =  1.66E-09,  avg # of iterations =  1.0

     negative rho (up, down):  1.965E-06 1.966E-06

     total cpu time spent up to now is      116.1 secs

     total energy              =    -922.98562298 Ry
     estimated scf accuracy    <       0.00000298 Ry

     total magnetization       =     0.00 Bohr mag/cell
     absolute magnetization    =     0.06 Bohr mag/cell

     iteration # 14     ecut=    50.00 Ry     beta= 0.30
     Davidson diagonalization with overlap
     ethr =  1.51E-09,  avg # of iterations =  5.0

     negative rho (up, down):  1.967E-06 1.968E-06

     Magnetic moment per site  (integrated on atomic sphere of radius R)
     atom   1 (R=0.043)  charge=  0.9137  magn= -0.0001
     atom   2 (R=0.043)  charge=  0.9703  magn=  0.0012
     atom   3 (R=0.043)  charge=  0.9602  magn= -0.0001
     atom   4 (R=0.043)  charge=  0.9276  magn= -0.0000
     atom   5 (R=0.043)  charge=  1.0048  magn= -0.0000
     atom   6 (R=0.043)  charge=  0.9905  magn= -0.0000
     atom   7 (R=0.043)  charge=  0.9455  magn= -0.0000
     atom   8 (R=0.043)  charge=  1.0133  magn= -0.0000
     atom   9 (R=0.043)  charge=  1.0086  magn=  0.0000
     atom  10 (R=0.043)  charge=  0.9517  magn= -0.0000
     atom  11 (R=0.043)  charge=  1.0129  magn= -0.0000
     atom  12 (R=0.043)  charge=  1.0086  magn=  0.0000
     atom  13 (R=0.043)  charge=  0.9346  magn= -0.0002
     atom  14 (R=0.043)  charge=  0.9897  magn= -0.0001
     atom  15 (R=0.043)  charge=  0.9738  magn=  0.0000
     atom  16 (R=0.043)  charge=  0.9232  magn= -0.0000
     atom  17 (R=0.043)  charge=  0.9971  magn= -0.0000
     atom  18 (R=0.043)  charge=  0.9727  magn= -0.0000
     atom  19 (R=0.043)  charge=  0.9277  magn= -0.0000
     atom  20 (R=0.043)  charge=  0.9950  magn= -0.0000
     atom  21 (R=0.043)  charge=  0.9741  magn=  0.0000
     atom  22 (R=0.043)  charge=  0.9163  magn= -0.0006
     atom  23 (R=0.043)  charge=  0.9965  magn= -0.0002
     atom  24 (R=0.043)  charge=  0.9734  magn=  0.0001
     atom  25 (R=0.043)  charge=  0.9394  magn= -0.0000
     atom  26 (R=0.043)  charge=  1.0055  magn= -0.0000
     atom  27 (R=0.043)  charge=  0.9994  magn= -0.0000
     atom  28 (R=0.043)  charge=  0.9353  magn=  0.0002
     atom  29 (R=0.043)  charge=  1.0046  magn=  0.0000
     atom  30 (R=0.043)  charge=  1.0038  magn= -0.0000
     atom  31 (R=0.043)  charge=  0.9381  magn=  0.0000
     atom  32 (R=0.043)  charge=  1.0069  magn=  0.0000
     atom  33 (R=0.043)  charge=  1.0060  magn= -0.0000
     atom  34 (R=0.043)  charge=  0.9368  magn=  0.0001
     atom  35 (R=0.043)  charge=  1.0071  magn=  0.0000
     atom  36 (R=0.043)  charge=  1.0036  magn= -0.0001
     atom  37 (R=0.043)  charge=  0.9189  magn= -0.0000
     atom  38 (R=0.043)  charge=  0.9955  magn=  0.0000
     atom  39 (R=0.043)  charge=  0.9706  magn= -0.0000
     atom  40 (R=0.043)  charge=  0.9290  magn= -0.0001
     atom  41 (R=0.043)  charge=  0.9793  magn= -0.0002
     atom  42 (R=0.043)  charge=  0.9924  magn=  0.0007
     atom  43 (R=0.043)  charge=  0.9225  magn= -0.0000
     atom  44 (R=0.043)  charge=  0.9946  magn=  0.0000
     atom  45 (R=0.043)  charge=  0.9715  magn= -0.0000
     atom  46 (R=0.043)  charge=  0.9232  magn= -0.0000
     atom  47 (R=0.043)  charge=  0.9955  magn=  0.0000
     atom  48 (R=0.043)  charge=  0.9708  magn= -0.0000
     atom  49 (R=0.051)  charge=  3.4313  magn= -0.0015

     total cpu time spent up to now is      118.5 secs

     End of self-consistent calculation

 ------ SPIN UP ------------


          k = 0.0000 0.0000 0.0000 ( 26858 PWs)   bands (ev):

   -21.9156 -21.7182 -20.4040 -17.7851 -17.6002 -17.5683 -17.4779 -17.3637
   -17.0516 -17.0044 -16.9859 -16.9293 -16.8836 -16.5922 -16.3036 -16.2063
   -16.0897 -15.9508 -15.8974 -15.7448 -15.6286 -15.5146 -14.8696 -14.7725
   -14.7245 -14.1871 -14.0818 -13.9476 -13.5628 -13.1271 -12.9551 -12.8501
   -12.7453 -12.2620 -12.2080 -12.1479 -12.0865 -11.4149 -11.2178 -11.1951
   -11.1285 -10.8019 -10.4070 -10.0886  -9.9797  -9.9085  -9.7016  -9.6465
    -9.6042  -9.4900  -9.4663  -9.2225  -9.0693  -7.3559  -7.1566  -6.9955
    -6.8033  -6.7631  -6.6646  -6.5258  -6.4927  -6.3230  -6.1204  -6.1131
    -6.0149  -5.8596  -5.7705  -5.7193  -5.6943  -5.6671  -5.6350  -5.6148
    -5.6018  -5.5261  -5.4881  -5.1487  -5.1066  -4.8976  -4.7261  -4.6868
    -4.5572  -4.4636  -3.9554  -3.8413  -3.7292  -3.5793  -3.5234  -3.4696
    -3.3934  -3.3046  -3.2103  -3.1599  -3.1288  -3.0696  -2.6263  -2.3768
    -2.3008  -2.0119  -1.6772  -1.3321  -0.5809  -0.1889   0.1464   0.4847
     0.6998   0.8395   1.0677   1.2071   1.2605   1.2703   1.3854   1.4790
     1.7456   1.8431   2.2539   2.3307   2.3856   2.4430   2.6614

 ------ SPIN DOWN ----------


          k = 0.0000 0.0000 0.0000 ( 26858 PWs)   bands (ev):

   -21.9161 -21.7181 -20.4048 -17.7854 -17.6002 -17.5681 -17.4780 -17.3637
   -17.0514 -17.0043 -16.9860 -16.9293 -16.8836 -16.5919 -16.3035 -16.2063
   -16.0894 -15.9508 -15.8975 -15.7449 -15.6287 -15.5143 -14.8695 -14.7725
   -14.7246 -14.1872 -14.0819 -13.9476 -13.5628 -13.1270 -12.9550 -12.8501
   -12.7454 -12.2621 -12.2079 -12.1479 -12.0864 -11.4149 -11.2176 -11.1951
   -11.1285 -10.8018 -10.4070 -10.0886  -9.9798  -9.9086  -9.7017  -9.6465
    -9.6042  -9.4899  -9.4663  -9.2229  -9.0696  -7.3558  -7.1566  -6.9954
    -6.8033  -6.7631  -6.6646  -6.5257  -6.4927  -6.3229  -6.1204  -6.1130
    -6.0143  -5.8596  -5.7705  -5.7193  -5.6944  -5.6672  -5.6351  -5.6148
    -5.6017  -5.5262  -5.4881  -5.1487  -5.1066  -4.8978  -4.7259  -4.6868
    -4.5567  -4.4639  -3.9554  -3.8414  -3.7293  -3.5793  -3.5234  -3.4698
    -3.3935  -3.3047  -3.2104  -3.1600  -3.1289  -3.0698  -2.6268  -2.3771
    -2.3008  -2.0125  -1.6768  -1.3314  -0.5810  -0.1890   0.1462   0.4847
     0.6998   0.8394   1.0676   1.2071   1.2605   1.2703   1.3854   1.4790
     1.7453   1.8433   2.2539   2.3307   2.3856   2.4430   2.6615

     the spin up/dw Fermi energies are    -1.5539   -1.5539 ev

!    total energy              =    -922.98563172 Ry
     total all-electron energy =     -3804.509220 Ry
     estimated scf accuracy    <       0.00000074 Ry
     smearing contrib. (-TS)   =      -0.00000000 Ry
     internal energy E=F+TS    =    -922.98563172 Ry

     The total energy is F=E-TS. E is the sum of the following terms:
     one-electron contribution =   -1279.32406120 Ry
     hartree contribution      =     686.07456006 Ry
     xc contribution           =    -225.60740155 Ry
     ewald contribution        =     201.48499559 Ry
     one-center paw contrib.   =    -305.61372461 Ry

     total magnetization       =     0.00 Bohr mag/cell
     absolute magnetization    =     0.02 Bohr mag/cell

     convergence has been achieved in  14 iterations

     negative rho (up, down):  1.967E-06 1.968E-06

     Forces acting on atoms (cartesian axes, Ry/au):

     atom    1 type  1   force =     0.01049843   -0.00387055    0.00926064
     atom    2 type  1   force =     0.11258912   -0.12344075    0.09642179
     atom    3 type  1   force =    -0.12202956    0.12212117    0.06949890
     atom    4 type  1   force =    -0.01210946    0.01885079    0.00563447
     atom    5 type  1   force =    -0.01710000    0.01674027    0.01904436
     atom    6 type  1   force =     0.03503966   -0.04368644   -0.03673583
     atom    7 type  1   force =     0.01066489    0.02053493   -0.00397200
     atom    8 type  1   force =     0.05607330    0.05645284   -0.05511759
     atom    9 type  1   force =    -0.05310648   -0.04900250    0.03648194
     atom   10 type  1   force =    -0.02501308    0.00770636   -0.05788635
     atom   11 type  1   force =    -0.04757074   -0.04839697   -0.04824244
     atom   12 type  1   force =     0.03863050    0.04727275    0.03207227
     atom   13 type  1   force =     0.03571857   -0.04839393   -0.00280949
     atom   14 type  1   force =    -0.01437461    0.01477946    0.01417467
     atom   15 type  1   force =    -0.02838768    0.03275675    0.00060737
     atom   16 type  1   force =    -0.05795066    0.05060934   -0.05828300
     atom   17 type  1   force =     0.01148720   -0.01160488    0.01150350
     atom   18 type  1   force =     0.04897914   -0.04530100    0.04690592
     atom   19 type  1   force =     0.01814898   -0.02822160    0.08972637
     atom   20 type  1   force =    -0.00342575   -0.00083777    0.00031212
     atom   21 type  1   force =     0.03431504    0.03932982   -0.06648201
     atom   22 type  1   force =    -0.00020782   -0.00341495    0.02363307
     atom   23 type  1   force =    -0.01227217   -0.01115089   -0.01979760
     atom   24 type  1   force =    -0.03107896   -0.00314940   -0.04751462
     atom   25 type  1   force =     0.00949671   -0.00771257    0.00320292
     atom   26 type  1   force =     0.02181289   -0.02207748    0.02195618
     atom   27 type  1   force =    -0.03354529    0.03301579   -0.03182792
     atom   28 type  1   force =    -0.00247488   -0.00321358   -0.00926135
     atom   29 type  1   force =    -0.04188826    0.04100504    0.04312702
     atom   30 type  1   force =     0.03884210   -0.03962989   -0.02753472
     atom   31 type  1   force =    -0.00651950    0.00347899   -0.00993720
     atom   32 type  1   force =     0.05349656    0.05388866   -0.05044745
     atom   33 type  1   force =    -0.04610023   -0.04867491    0.05006868
     atom   34 type  1   force =    -0.00131544    0.00868701    0.00048311
     atom   35 type  1   force =    -0.03600375   -0.03701651   -0.03413476
     atom   36 type  1   force =     0.03552882    0.02828286    0.03876180
     atom   37 type  1   force =     0.04201805   -0.04031126   -0.04391810
     atom   38 type  1   force =    -0.00871895    0.00950226    0.00858752
     atom   39 type  1   force =    -0.05020468    0.05092432    0.04772643
     atom   40 type  1   force =     0.01247497   -0.00293379    0.00692771
     atom   41 type  1   force =    -0.09412980    0.09476782   -0.10334268
     atom   42 type  1   force =     0.03573322   -0.03055881    0.02767542
     atom   43 type  1   force =    -0.04958263   -0.04218658    0.04253406
     atom   44 type  1   force =     0.00818337    0.00795287   -0.00622599
     atom   45 type  1   force =     0.04614730    0.04490184   -0.04417072
     atom   46 type  1   force =     0.04199963    0.04629338    0.04545744
     atom   47 type  1   force =    -0.00841262   -0.00883300   -0.00814919
     atom   48 type  1   force =    -0.04873862   -0.04748235   -0.04753715
     atom   49 type  2   force =     0.09438317   -0.09875296    0.02154249

     Total force =     0.528863     Total SCF correction =     0.000960
     Energy error            =      2.4E-01 Ry
     Gradient error          =      1.2E-01 Ry/Bohr

     number of scf cycles    =   3
     number of bfgs steps    =   2

     energy             old  =    -922.7473374567 Ry
     energy             new  =    -922.9856317161 Ry

     CASE: energy            _new < energy            _old

     new trust radius        =       0.1631727725 bohr
     new conv_thr            =       0.0000010000 Ry


ATOMIC_POSITIONS (angstrom)
C             6.1086974622        4.4284492524        6.0836889786
C             7.7385273884        3.0121078013        7.7055239466
C             6.9248026199        3.8459902614        7.0819447682
C             4.6038924332        6.1864818995        6.1823156675
C             3.0534048675        7.7161258420        7.7176331415
C             3.7779506903        6.9901485882        7.0012804941
C             6.1910858298        6.2020110942        4.5530779522
C             7.7292938618        7.7298354482        3.0428290429
C             6.9962201477        7.0050623978        3.7632016066
C             4.5568271434        4.5825599293        4.5304019273
C             3.0416616763        3.0404343548        3.0413982187
C             3.7652476409        3.7740181369        3.7550309950
C             6.1863224652        4.5987270158        4.4820522641
C             7.7543471245        3.0226327408        3.0257550564
C             7.0534348887        3.7247121695        3.7034079931
C             4.5674876666        6.2107753344        4.5485690943
C             3.0164353395        7.7609447037        3.0165850535
C             3.7273451285        7.0504014420        3.7280471408
C             4.5417667934        4.5242558298        6.1400818183
C             3.0159460497        3.0185787569        7.7576347958
C             3.7154323554        3.7175614353        7.0353921996
C             6.1935745057        6.3667321404        6.1507349544
C             7.7628928261        7.7659916247        7.7554189106
C             7.0604813973        7.0896357721        7.0293000221
C             0.6873429630       10.0791819519        0.6951931881
C             2.2236948270        8.5528650350        2.2236121008
C             1.5025782735        9.2710955039        1.5037210167
C            10.0849783656        0.6812719863        0.7227045831
C             8.5493721096        2.2252458424        2.2252152380
C             9.2763842391        1.4968530999        1.5150886315
C             0.6906112482        0.7003856984       10.0786488719
C             2.2307742155        2.2309756367        8.5477820613
C             1.5027990601        1.4998245896        9.2750421194
C            10.0772798434       10.0635618448       10.0892562788
C             8.5509164917        8.5511479796        8.5534297817
C             9.2746727357        9.2644956993        9.2750503937
C             0.7028186341       10.0714358700       10.0589041690
C             2.2556263735        8.5135950754        8.5112685351
C             1.5446902834        9.2260881191        9.2230616672
C            10.0756493593        0.7220199372       10.0351719625
C             8.5245111630        2.2450232218        8.5218373826
C             9.2550971088        1.5218909089        9.2401582372
C            10.0623522474       10.0653374651        0.7089633650
C             8.5132751745        8.5135881754        2.2559659885
C             9.2240865031        9.2229984661        1.5490441178
C             0.7025882726        0.7100076919        0.7048173955
C             2.2562747386        2.2551112467        2.2567818649
C             1.5457790682        1.5451165406        1.5460119964
O             6.2377683987        4.8737084427        7.8899630114



     Writing config-only to output data dir ./pwscf.save/
     NEW-OLD atomic charge density approx. for the potential

     Check: negative core charge=   -0.000004

     negative rho (up, down):  2.122E-06 2.137E-06
     Generating pointlists ...

     total cpu time spent up to now is      122.9 secs

     Self-consistent Calculation

     iteration #  1     ecut=    50.00 Ry     beta= 0.30
     Davidson diagonalization with overlap
     ethr =  1.00E-06,  avg # of iterations = 16.0

     negative rho (up, down):  1.870E-06 1.869E-06

     total cpu time spent up to now is      128.5 secs

     total energy              =    -923.03967392 Ry
     estimated scf accuracy    <       0.13007200 Ry

     total magnetization       =    -0.00 Bohr mag/cell
     absolute magnetization    =     0.02 Bohr mag/cell

     iteration #  2     ecut=    50.00 Ry     beta= 0.30
     Davidson diagonalization with overlap
     ethr =  6.57E-05,  avg # of iterations =  3.0

     negative rho (up, down):  1.992E-06 1.991E-06

     total cpu time spent up to now is      130.7 secs

     total energy              =    -923.02830351 Ry
     estimated scf accuracy    <       0.38784679 Ry

     total magnetization       =    -0.00 Bohr mag/cell
     absolute magnetization    =     0.02 Bohr mag/cell

     iteration #  3     ecut=    50.00 Ry     beta= 0.30
     Davidson diagonalization with overlap
     ethr =  6.57E-05,  avg # of iterations =  2.0

     negative rho (up, down):  1.913E-06 1.912E-06

     total cpu time spent up to now is      132.8 secs

     total energy              =    -923.06253678 Ry
     estimated scf accuracy    <       0.06624550 Ry

     total magnetization       =    -0.00 Bohr mag/cell
     absolute magnetization    =     0.02 Bohr mag/cell

     iteration #  4     ecut=    50.00 Ry     beta= 0.30
     Davidson diagonalization with overlap
     ethr =  3.35E-05,  avg # of iterations =  1.0

     negative rho (up, down):  1.775E-06 1.775E-06

     total cpu time spent up to now is      134.8 secs

     total energy              =    -923.06547034 Ry
     estimated scf accuracy    <       0.00678586 Ry

     total magnetization       =     0.00 Bohr mag/cell
     absolute magnetization    =     0.03 Bohr mag/cell

     iteration #  5     ecut=    50.00 Ry     beta= 0.30
     Davidson diagonalization with overlap
     ethr =  3.43E-06,  avg # of iterations =  2.0

     negative rho (up, down):  1.667E-06 1.666E-06

     total cpu time spent up to now is      136.8 secs

     total energy              =    -923.06585796 Ry
     estimated scf accuracy    <       0.00308419 Ry

     total magnetization       =    -0.00 Bohr mag/cell
     absolute magnetization    =     0.03 Bohr mag/cell

     iteration #  6     ecut=    50.00 Ry     beta= 0.30
     Davidson diagonalization with overlap
     ethr =  1.56E-06,  avg # of iterations =  1.0

     negative rho (up, down):  1.653E-06 1.653E-06

     total cpu time spent up to now is      138.8 secs

     total energy              =    -923.06608390 Ry
     estimated scf accuracy    <       0.00040456 Ry

     total magnetization       =     0.00 Bohr mag/cell
     absolute magnetization    =     0.03 Bohr mag/cell

     iteration #  7     ecut=    50.00 Ry     beta= 0.30
     Davidson diagonalization with overlap
     ethr =  2.04E-07,  avg # of iterations =  4.0

     negative rho (up, down):  1.655E-06 1.655E-06

     total cpu time spent up to now is      141.0 secs

     total energy              =    -923.06612566 Ry
     estimated scf accuracy    <       0.00009632 Ry

     total magnetization       =     0.00 Bohr mag/cell
     absolute magnetization    =     0.03 Bohr mag/cell

     iteration #  8     ecut=    50.00 Ry     beta= 0.30
     Davidson diagonalization with overlap
     ethr =  4.86E-08,  avg # of iterations =  2.0

     negative rho (up, down):  1.659E-06 1.660E-06

     total cpu time spent up to now is      143.1 secs

     total energy              =    -923.06613652 Ry
     estimated scf accuracy    <       0.00004101 Ry

     total magnetization       =    -0.00 Bohr mag/cell
     absolute magnetization    =     0.04 Bohr mag/cell

     iteration #  9     ecut=    50.00 Ry     beta= 0.30
     Davidson diagonalization with overlap
     ethr =  2.07E-08,  avg # of iterations =  1.0

     negative rho (up, down):  1.664E-06 1.664E-06

     total cpu time spent up to now is      145.1 secs

     total energy              =    -923.06614041 Ry
     estimated scf accuracy    <       0.00000770 Ry

     total magnetization       =    -0.00 Bohr mag/cell
     absolute magnetization    =     0.04 Bohr mag/cell

     iteration # 10     ecut=    50.00 Ry     beta= 0.30
     Davidson diagonalization with overlap
     ethr =  3.89E-09,  avg # of iterations =  4.0

     negative rho (up, down):  1.665E-06 1.665E-06

     total cpu time spent up to now is      147.4 secs

     total energy              =    -923.06614195 Ry
     estimated scf accuracy    <       0.00000210 Ry

     total magnetization       =    -0.00 Bohr mag/cell
     absolute magnetization    =     0.04 Bohr mag/cell

     iteration # 11     ecut=    50.00 Ry     beta= 0.30
     Davidson diagonalization with overlap
     ethr =  1.06E-09,  avg # of iterations =  2.0

     negative rho (up, down):  1.664E-06 1.665E-06

     Magnetic moment per site  (integrated on atomic sphere of radius R)
     atom   1 (R=0.043)  charge=  0.9194  magn= -0.0002
     atom   2 (R=0.043)  charge=  0.9595  magn=  0.0027
     atom   3 (R=0.043)  charge=  0.9541  magn= -0.0003
     atom   4 (R=0.043)  charge=  0.9294  magn= -0.0000
     atom   5 (R=0.043)  charge=  0.9804  magn= -0.0000
     atom   6 (R=0.043)  charge=  0.9811  magn= -0.0000
     atom   7 (R=0.043)  charge=  0.9452  magn= -0.0001
     atom   8 (R=0.043)  charge=  0.9825  magn= -0.0001
     atom   9 (R=0.043)  charge=  0.9873  magn=  0.0000
     atom  10 (R=0.043)  charge=  0.9477  magn= -0.0001
     atom  11 (R=0.043)  charge=  0.9857  magn= -0.0001
[...]
     estimated scf accuracy    <       0.00000013 Ry

     total magnetization       =    -0.00 Bohr mag/cell
     absolute magnetization    =     0.02 Bohr mag/cell

     iteration #  7     ecut=    50.00 Ry     beta= 0.30
     Davidson diagonalization with overlap
     ethr =  6.34E-11,  avg # of iterations =  4.0

     negative rho (up, down):  1.654E-06 1.654E-06

     total cpu time spent up to now is     1472.7 secs

     total energy              =    -923.30509325 Ry
     estimated scf accuracy    <       0.00000013 Ry

     total magnetization       =     0.00 Bohr mag/cell
     absolute magnetization    =     0.02 Bohr mag/cell

     iteration #  8     ecut=    50.00 Ry     beta= 0.30
     Davidson diagonalization with overlap
     ethr =  6.34E-11,  avg # of iterations =  1.0

     negative rho (up, down):  1.654E-06 1.654E-06

     total cpu time spent up to now is     1474.7 secs

     total energy              =    -923.30509325 Ry
     estimated scf accuracy    <       0.00000013 Ry

     total magnetization       =     0.00 Bohr mag/cell
     absolute magnetization    =     0.02 Bohr mag/cell

     iteration #  9     ecut=    50.00 Ry     beta= 0.30
     Davidson diagonalization with overlap
     ethr =  6.34E-11,  avg # of iterations =  1.0

     negative rho (up, down):  1.654E-06 1.655E-06

     total cpu time spent up to now is     1476.6 secs

     total energy              =    -923.30509323 Ry
     estimated scf accuracy    <       0.00000013 Ry

     total magnetization       =    -0.00 Bohr mag/cell
     absolute magnetization    =     0.02 Bohr mag/cell

     iteration # 10     ecut=    50.00 Ry     beta= 0.30
     Davidson diagonalization with overlap
     ethr =  6.34E-11,  avg # of iterations =  1.0

     negative rho (up, down):  1.654E-06 1.655E-06

     total cpu time spent up to now is     1478.5 secs

     total energy              =    -923.30509256 Ry
     estimated scf accuracy    <       0.00000014 Ry

     total magnetization       =    -0.00 Bohr mag/cell
     absolute magnetization    =     0.02 Bohr mag/cell

     iteration # 11     ecut=    50.00 Ry     beta= 0.30
     Davidson diagonalization with overlap
     ethr =  6.34E-11,  avg # of iterations =  4.0

     negative rho (up, down):  1.654E-06 1.655E-06

     total cpu time spent up to now is     1481.1 secs

     total energy              =    -923.30509144 Ry
     estimated scf accuracy    <       0.00000022 Ry

     total magnetization       =     0.00 Bohr mag/cell
     absolute magnetization    =     0.02 Bohr mag/cell

     iteration # 12     ecut=    50.00 Ry     beta= 0.30
     Davidson diagonalization with overlap
     ethr =  6.34E-11,  avg # of iterations =  4.0

     negative rho (up, down):  1.654E-06 1.655E-06

     total cpu time spent up to now is     1483.8 secs

     total energy              =    -923.30509212 Ry
     estimated scf accuracy    <       0.00000043 Ry

     total magnetization       =     0.00 Bohr mag/cell
     absolute magnetization    =     0.01 Bohr mag/cell

     iteration # 13     ecut=    50.00 Ry     beta= 0.30
     Davidson diagonalization with overlap
     ethr =  6.34E-11,  avg # of iterations =  3.0

     negative rho (up, down):  1.654E-06 1.655E-06

     total cpu time spent up to now is     1486.2 secs

     total energy              =    -923.30509217 Ry
     estimated scf accuracy    <       0.00000012 Ry

     total magnetization       =     0.00 Bohr mag/cell
     absolute magnetization    =     0.00 Bohr mag/cell

     iteration # 14     ecut=    50.00 Ry     beta= 0.30
     Davidson diagonalization with overlap
     ethr =  6.03E-11,  avg # of iterations =  2.0

     negative rho (up, down):  1.654E-06 1.654E-06

     Magnetic moment per site  (integrated on atomic sphere of radius R)
     atom   1 (R=0.043)  charge=  0.9265  magn=  0.0000
     atom   2 (R=0.043)  charge=  0.9672  magn= -0.0000
     atom   3 (R=0.043)  charge=  0.9546  magn=  0.0000
     atom   4 (R=0.043)  charge=  0.9316  magn= -0.0000
     atom   5 (R=0.043)  charge=  0.9905  magn= -0.0000
     atom   6 (R=0.043)  charge=  0.9847  magn=  0.0000
     atom   7 (R=0.043)  charge=  0.9297  magn= -0.0000
     atom   8 (R=0.043)  charge=  0.9898  magn= -0.0000
     atom   9 (R=0.043)  charge=  0.9834  magn=  0.0000
     atom  10 (R=0.043)  charge=  0.9293  magn=  0.0000
     atom  11 (R=0.043)  charge=  0.9889  magn=  0.0000
     atom  12 (R=0.043)  charge=  0.9841  magn= -0.0000
     atom  13 (R=0.043)  charge=  0.9260  magn=  0.0000
     atom  14 (R=0.043)  charge=  0.9907  magn=  0.0000
     atom  15 (R=0.043)  charge=  0.9844  magn= -0.0000
     atom  16 (R=0.043)  charge=  0.9309  magn= -0.0000
     atom  17 (R=0.043)  charge=  0.9911  magn= -0.0000
     atom  18 (R=0.043)  charge=  0.9842  magn=  0.0000
     atom  19 (R=0.043)  charge=  0.9331  magn= -0.0000
     atom  20 (R=0.043)  charge=  0.9908  magn=  0.0000
     atom  21 (R=0.043)  charge=  0.9842  magn= -0.0000
     atom  22 (R=0.043)  charge=  0.9345  magn=  0.0000
     atom  23 (R=0.043)  charge=  0.9927  magn= -0.0000
     atom  24 (R=0.043)  charge=  0.9836  magn=  0.0000
     atom  25 (R=0.043)  charge=  0.9307  magn=  0.0000
     atom  26 (R=0.043)  charge=  0.9899  magn=  0.0000
     atom  27 (R=0.043)  charge=  0.9862  magn= -0.0000
     atom  28 (R=0.043)  charge=  0.9245  magn= -0.0000
     atom  29 (R=0.043)  charge=  0.9885  magn= -0.0000
     atom  30 (R=0.043)  charge=  0.9873  magn=  0.0000
     atom  31 (R=0.043)  charge=  0.9316  magn= -0.0000
     atom  32 (R=0.043)  charge=  0.9913  magn= -0.0000
     atom  33 (R=0.043)  charge=  0.9851  magn=  0.0000
     atom  34 (R=0.043)  charge=  0.9320  magn=  0.0000
     atom  35 (R=0.043)  charge=  0.9894  magn=  0.0000
     atom  36 (R=0.043)  charge=  0.9851  magn= -0.0000
     atom  37 (R=0.043)  charge=  0.9321  magn= -0.0000
     atom  38 (R=0.043)  charge=  0.9904  magn= -0.0000
     atom  39 (R=0.043)  charge=  0.9850  magn=  0.0000
     atom  40 (R=0.043)  charge=  0.9294  magn= -0.0000
     atom  41 (R=0.043)  charge=  0.9902  magn=  0.0000
     atom  42 (R=0.043)  charge=  0.9782  magn= -0.0000
     atom  43 (R=0.043)  charge=  0.9304  magn= -0.0000
     atom  44 (R=0.043)  charge=  0.9891  magn= -0.0000
     atom  45 (R=0.043)  charge=  0.9854  magn=  0.0000
     atom  46 (R=0.043)  charge=  0.9312  magn=  0.0000
     atom  47 (R=0.043)  charge=  0.9901  magn=  0.0000
     atom  48 (R=0.043)  charge=  0.9846  magn= -0.0000
     atom  49 (R=0.045)  charge=  2.8822  magn=  0.0000

     total cpu time spent up to now is     1488.4 secs

     End of self-consistent calculation

 ------ SPIN UP ------------


          k = 0.0000 0.0000 0.0000 ( 26858 PWs)   bands (ev):

   -22.6578 -21.5284 -21.4963 -17.6210 -17.5674 -17.5278 -17.3754 -17.3440
   -17.2339 -17.0060 -16.9274 -16.9052 -16.8393 -16.7512 -16.1804 -16.1392
   -16.1182 -15.9807 -15.9144 -15.8022 -15.6335 -15.3321 -14.6954 -14.6516
   -14.5086 -14.2176 -14.1481 -14.0441 -13.6077 -13.1735 -12.9065 -12.8294
   -12.7583 -12.1935 -12.1598 -12.1109 -12.1031 -11.4727 -11.1588 -11.0800
   -11.0769 -10.7945 -10.4016  -9.9908  -9.9320  -9.8800  -9.6226  -9.5379
    -9.5114  -9.4906  -9.4902  -9.4182  -9.1903  -7.4442  -7.2362  -7.0035
    -6.8546  -6.7771  -6.6330  -6.5404  -6.4633  -6.3592  -6.2491  -6.1000
    -6.0611  -5.8560  -5.8368  -5.7353  -5.6754  -5.6542  -5.6188  -5.5599
    -5.5567  -5.4539  -5.4323  -5.2209  -5.0486  -5.0188  -4.8802  -4.6522
    -4.5266  -4.4797  -4.4449  -3.8700  -3.7531  -3.7514  -3.5222  -3.4302
    -3.4188  -3.3299  -3.2343  -3.1904  -3.0886  -3.0477  -2.8728  -2.4313
    -2.3609  -2.1364  -1.5475  -1.1914  -0.3443  -0.2623  -0.1166   0.5123
     0.5815   0.6560   1.0635   1.1122   1.1182   1.1549   1.3250   1.4482
     1.9522   2.2697   2.2956   2.3237   2.3468   2.3801   2.4528

 ------ SPIN DOWN ----------


          k = 0.0000 0.0000 0.0000 ( 26858 PWs)   bands (ev):

   -22.6578 -21.5284 -21.4963 -17.6210 -17.5674 -17.5278 -17.3754 -17.3440
   -17.2339 -17.0060 -16.9274 -16.9052 -16.8393 -16.7512 -16.1804 -16.1392
   -16.1182 -15.9807 -15.9144 -15.8022 -15.6335 -15.3321 -14.6954 -14.6516
   -14.5086 -14.2176 -14.1481 -14.0441 -13.6077 -13.1735 -12.9065 -12.8294
   -12.7583 -12.1935 -12.1598 -12.1109 -12.1031 -11.4727 -11.1588 -11.0800
   -11.0769 -10.7945 -10.4016  -9.9908  -9.9320  -9.8800  -9.6226  -9.5379
    -9.5114  -9.4906  -9.4902  -9.4182  -9.1903  -7.4442  -7.2362  -7.0035
    -6.8546  -6.7771  -6.6330  -6.5404  -6.4633  -6.3592  -6.2491  -6.1000
    -6.0611  -5.8560  -5.8368  -5.7353  -5.6754  -5.6542  -5.6188  -5.5599
    -5.5567  -5.4539  -5.4323  -5.2209  -5.0486  -5.0188  -4.8802  -4.6522
    -4.5266  -4.4797  -4.4449  -3.8700  -3.7531  -3.7514  -3.5222  -3.4302
    -3.4188  -3.3299  -3.2343  -3.1904  -3.0886  -3.0477  -2.8728  -2.4313
    -2.3609  -2.1364  -1.5475  -1.1914  -0.3443  -0.2623  -0.1166   0.5123
     0.5815   0.6560   1.0635   1.1122   1.1182   1.1549   1.3250   1.4482
     1.9522   2.2697   2.2956   2.3237   2.3468   2.3801   2.4528

     the spin up/dw Fermi energies are    -1.4614   -1.4614 ev

!    total energy              =    -923.30509220 Ry
     total all-electron energy =     -3804.828680 Ry
     estimated scf accuracy    <          8.5E-09 Ry
     smearing contrib. (-TS)   =      -0.00000000 Ry
     internal energy E=F+TS    =    -923.30509220 Ry

     The total energy is F=E-TS. E is the sum of the following terms:
     one-electron contribution =   -1254.91678071 Ry
     hartree contribution      =     673.59845987 Ry
     xc contribution           =    -225.45363016 Ry
     ewald contribution        =     189.03563508 Ry
     one-center paw contrib.   =    -305.56877628 Ry

     total magnetization       =    -0.00 Bohr mag/cell
     absolute magnetization    =     0.00 Bohr mag/cell

     convergence has been achieved in  14 iterations

     negative rho (up, down):  1.654E-06 1.654E-06

     Forces acting on atoms (cartesian axes, Ry/au):

     atom    1 type  1   force =     0.00039505   -0.00010577   -0.00045370
     atom    2 type  1   force =     0.00018373   -0.00027282    0.00076571
     atom    3 type  1   force =     0.00011181    0.00012963   -0.00031706
     atom    4 type  1   force =     0.00005205   -0.00016269    0.00048351
     atom    5 type  1   force =     0.00052056   -0.00068874   -0.00047971
     atom    6 type  1   force =    -0.00055162    0.00050461    0.00086796
     atom    7 type  1   force =     0.00011637    0.00018913    0.00014050
     atom    8 type  1   force =     0.00065764    0.00037536   -0.00046979
     atom    9 type  1   force =    -0.00022401   -0.00069341    0.00063027
     atom   10 type  1   force =    -0.00020616   -0.00001263    0.00023840
     atom   11 type  1   force =     0.00021825    0.00028728    0.00013082
     atom   12 type  1   force =     0.00007502   -0.00039624   -0.00017824
     atom   13 type  1   force =    -0.00034342    0.00001842   -0.00008953
     atom   14 type  1   force =    -0.00018590    0.00038555    0.00021104
     atom   15 type  1   force =     0.00023037   -0.00023613    0.00007857
     atom   16 type  1   force =     0.00004640    0.00021948    0.00054890
     atom   17 type  1   force =    -0.00005018    0.00033807   -0.00008431
     atom   18 type  1   force =     0.00012736    0.00020436   -0.00008357
     atom   19 type  1   force =    -0.00000732   -0.00010961    0.00000513
     atom   20 type  1   force =     0.00006707    0.00002194   -0.00012367
     atom   21 type  1   force =    -0.00036497   -0.00038028   -0.00002728
     atom   22 type  1   force =     0.00015016   -0.00053154    0.00020553
     atom   23 type  1   force =    -0.00045851    0.00040094   -0.00057574
     atom   24 type  1   force =     0.00030811    0.00005950    0.00001728
     atom   25 type  1   force =    -0.00006148    0.00033385   -0.00008134
     atom   26 type  1   force =     0.00001262   -0.00010503   -0.00050376
     atom   27 type  1   force =     0.00009775   -0.00001143   -0.00004913
     atom   28 type  1   force =     0.00017394   -0.00003424   -0.00005216
     atom   29 type  1   force =     0.00023840   -0.00047801   -0.00001747
     atom   30 type  1   force =    -0.00017575    0.00010812    0.00014970
     atom   31 type  1   force =     0.00011391    0.00006930    0.00010663
     atom   32 type  1   force =    -0.00035809    0.00009912   -0.00036470
     atom   33 type  1   force =    -0.00045071    0.00010708   -0.00019547
     atom   34 type  1   force =     0.00002713   -0.00020658    0.00010587
     atom   35 type  1   force =     0.00020784    0.00013746    0.00023760
     atom   36 type  1   force =    -0.00040249   -0.00036534   -0.00029023
     atom   37 type  1   force =     0.00001468    0.00013247   -0.00026380
     atom   38 type  1   force =    -0.00050395    0.00028283   -0.00031742
     atom   39 type  1   force =    -0.00035736    0.00047383   -0.00015455
     atom   40 type  1   force =     0.00007220   -0.00030070    0.00019203
     atom   41 type  1   force =     0.00037087    0.00019337   -0.00028280
     atom   42 type  1   force =    -0.00013074   -0.00071483    0.00012023
     atom   43 type  1   force =     0.00004415   -0.00006443   -0.00007763
     atom   44 type  1   force =     0.00021525   -0.00018570   -0.00020929
     atom   45 type  1   force =    -0.00032173    0.00013149    0.00015379
     atom   46 type  1   force =     0.00034233    0.00020149    0.00014292
     atom   47 type  1   force =     0.00070304    0.00064057    0.00049792
     atom   48 type  1   force =    -0.00043963   -0.00031678   -0.00043315
     atom   49 type  2   force =    -0.00030002    0.00032767    0.00014517

     Total force =     0.003805     Total SCF correction =     0.000132
     Energy error            =      1.7E-05 Ry
     Gradient error          =      8.7E-04 Ry/Bohr

     bfgs converged in  48 scf cycles and  47 bfgs steps
     (criteria: energy <  1.0E-04 Ry, force <  1.0E-03 Ry/Bohr)

     End of BFGS Geometry Optimization

     Final energy             =    -923.3050922016 Ry

     File ./pwscf.bfgs deleted, as requested
Begin final coordinates

ATOMIC_POSITIONS (angstrom)
C             6.1626684614        4.6197980262        6.2274670270
C             7.7501068422        3.0408863002        7.7680777856
C             6.7967672457        3.9920183290        7.4688172319
C             4.5474993815        6.2289348704        6.1299979148
C             3.0067738926        7.7734825060        7.6679185443
C             3.7082802299        7.0691227014        6.9373956412
C             6.2104527389        6.1818813842        4.5484456619
C             7.7489703354        7.7295678028        3.0006141398
C             7.0478424331        7.0088360635        3.7157156488
C             4.5960579891        4.5602758717        4.5535720794
C             3.0503684193        3.0120064537        3.0124336470
C             3.7702788641        3.7168137377        3.7255216884
C             6.2253599880        4.5530185262        4.5951888658
C             7.7648914674        3.0146157144        3.0444131705
C             7.0587425744        3.7203985512        3.7724777545
C             4.5920195945        6.1782402309        4.5065460191
C             3.0453818030        7.7166739549        2.9620933975
C             3.7682203668        6.9957811888        3.6546052171
C             4.5538077496        4.6108627627        6.1686298336
C             3.0142797035        3.0612173828        7.7096433471
C             3.7126895406        3.7848487947        6.9954863455
C             6.1653427093        6.2295271221        6.1632102113
C             7.7151196903        7.7748849840        7.6984599903
C             6.9911926348        7.0754677719        6.9855330572
C             0.6884106961       10.0812272190        0.6730585158
C             2.2414870905        8.5213761669        2.1907596351
C             1.5199301961        9.2441617933        1.4987144264
C            10.0777580581        0.6984384876        0.6820605237
C             8.5479835779        2.2318788571        2.2372724408
C             9.2569696238        1.5209409571        1.5157147730
C             0.7155095539        0.6974661130       10.0503286163
C             2.2437067692        2.2569023133        8.5120305311
C             1.5544394220        1.5272447221        9.2305090148
C            10.0770882064       10.0707279276       10.0433576879
C             8.5177899357        8.5496760775        8.4981987702
C             9.2462318246        9.2399047052        9.2171418104
C             0.6951783198       10.0816143821       10.0488668479
C             2.2253536018        8.5551196116        8.4796336771
C             1.5213046658        9.2556917845        9.2110298896
C            10.0832170565        0.7015295770        9.9840448663
C             8.5303939575        2.2565753751        8.4679660873
C             9.2742016552        1.5188330058        9.1881607846
C            10.0671204042       10.0861617951        0.6591958658
C             8.5316507318        8.5341184711        2.2066704651
C             9.2352961407        9.2558712076        1.4946018989
C             0.6918771443        0.7008342137        0.6656737474
C             2.2453215930        2.2289783236        2.2188690887
C             1.5220842549        1.5278911686        1.5061645728
O             6.3215808649        4.4746747130        8.5457112434
End final coordinates



     Writing all to output data dir ./pwscf.save/

     init_run     :      2.71s CPU      2.83s WALL (       1 calls)
     electrons    :   1246.19s CPU   1296.96s WALL (      48 calls)
     update_pot   :     71.99s CPU     72.91s WALL (      47 calls)
     forces       :     74.92s CPU     78.05s WALL (      48 calls)

     Called by init_run:
     wfcinit      :      0.70s CPU      0.73s WALL (       1 calls)
     potinit      :      1.10s CPU      1.14s WALL (       1 calls)
     hinit0       :      0.67s CPU      0.69s WALL (       1 calls)

     Called by electrons:
     c_bands      :    678.08s CPU    699.05s WALL (     575 calls)
     sum_band     :    177.46s CPU    183.16s WALL (     575 calls)
     v_of_rho     :    139.61s CPU    144.29s WALL (     603 calls)
     newd         :     64.81s CPU     66.36s WALL (     603 calls)
     PAW_pot      :    204.12s CPU    205.31s WALL (     650 calls)
     mix_rho      :     15.49s CPU     16.65s WALL (     575 calls)

     Called by c_bands:
     init_us_2    :     10.21s CPU     10.42s WALL (    2492 calls)
     init_us_2:cp :     10.19s CPU     10.42s WALL (    2492 calls)
     regterg      :    660.87s CPU    681.39s WALL (    1150 calls)

     Called by *egterg:
     rdiaghg      :     43.33s CPU     43.60s WALL (    4175 calls)
     h_psi        :    376.80s CPU    394.84s WALL (    4311 calls)
     s_psi        :     65.33s CPU     65.77s WALL (    4311 calls)
     g_psi        :      1.28s CPU      1.29s WALL (    3159 calls)

     Called by h_psi:
     h_psi:calbec :     63.77s CPU     64.84s WALL (    4311 calls)
     vloc_psi     :    243.14s CPU    259.62s WALL (    4311 calls)
     add_vuspsi   :     66.39s CPU     66.86s WALL (    4311 calls)

     General routines
     calbec       :     99.16s CPU    100.74s WALL (    5939 calls)
     fft          :     60.56s CPU     67.95s WALL (   13134 calls)
     ffts         :      2.89s CPU      3.35s WALL (    2356 calls)
     fftw         :    255.50s CPU    272.76s WALL (  400748 calls)
     interpolate  :      7.71s CPU      8.63s WALL (    1206 calls)

     Parallel routines

     PWSCF        :  23m49.01s CPU  24m51.95s WALL


   This run was terminated on:  21:25:52  24May2025            

=------------------------------------------------------------------------------=
   JOB DONE.
=------------------------------------------------------------------------------=
