ITEM: TIMESTEP
0
ITEM: NUMBER OF ATOMS
43
ITEM: BOX BOUNDS pp pp pp
0.0000000000000000e+00 9.8979999999999997e+00
0.0000000000000000e+00 9.8979999999999997e+00
0.0000000000000000e+00 9.8979999999999997e+00
ITEM: ATOMS id type x y z 
1 1 1.091 1.091 1.091 
2 1 0.2 0.2 0.2 
3 1 1.982 1.982 0.2 
4 1 0.2 1.982 1.982 
5 1 1.982 0.2 1.982 
11 1 3.566 3.566 8.515 
12 1 2.675 2.675 9.406 
13 1 4.456 4.456 9.405 
14 1 4.457 2.675 7.624 
15 1 2.675 4.457 7.624 
16 1 3.566 8.515 3.566 
17 1 2.675 9.406 2.675 
18 1 4.457 7.624 2.675 
19 1 4.456 9.405 4.456 
20 1 2.675 7.624 4.457 
41 2 0.056 9.74 1.499 
31 1 1.091 6.04 6.04 
32 1 0.2 5.149 5.149 
33 1 1.982 6.931 5.149 
34 1 0.2 6.931 6.931 
35 1 1.982 5.149 6.931 
26 1 8.515 3.566 3.566 
27 1 9.406 2.675 2.675 
28 1 7.624 4.457 2.675 
29 1 7.624 2.675 4.457 
30 1 9.405 4.456 4.456 
36 1 6.04 1.091 6.04 
37 1 6.931 0.2 6.931 
38 1 5.149 0.2 5.149 
39 1 5.149 1.982 6.931 
40 1 6.931 1.982 5.149 
21 1 6.04 6.04 1.091 
22 1 5.149 6.931 1.982 
23 1 6.931 5.149 1.982 
24 1 5.149 5.149 0.2 
25 1 6.931 6.931 0.2 
42 2 8.838 9.545 2.504 
43 3 9.47 9.59 3.245 
6 1 8.515 8.515 8.515 
7 1 9.405 9.405 9.405 
8 1 7.624 7.624 9.406 
9 1 7.624 9.406 7.624 
10 1 9.406 7.624 7.624 
ITEM: TIMESTEP
10
ITEM: NUMBER OF ATOMS
43
ITEM: BOX BOUNDS pp pp pp
0.0000000000000000e+00 9.8979999999999997e+00
0.0000000000000000e+00 9.8979999999999997e+00
0.0000000000000000e+00 9.8979999999999997e+00
ITEM: ATOMS id type x y z 
1 1 1.19015 1.19387 1.15609 
2 1 0.105487 0.0660208 0.30783 
3 1 1.99417 1.99575 0.217618 
4 1 0.240673 2.01114 1.98825 
5 1 2.01336 0.245788 1.99097 
11 1 3.5674 3.56786 8.50945 
12 1 2.68106 2.68054 9.39325 
13 1 4.4576 4.4581 9.40954 
14 1 4.45795 2.67063 7.62188 
15 1 2.67062 4.45737 7.62193 
16 1 3.56205 8.51293 3.56315 
17 1 2.68149 9.40782 2.67352 
18 1 4.45526 7.62313 2.67199 
19 1 4.45501 9.40742 4.45502 
20 1 2.67298 7.62391 4.45557 
41 2 0.00875149 9.704 1.38997 
31 1 1.09363 6.03745 6.03621 
32 1 0.200121 5.14894 5.14698 
33 1 1.98109 6.93024 5.14721 
34 1 0.205744 6.92479 6.92563 
35 1 1.98043 5.14966 6.92758 
26 1 8.513 3.56237 3.56334 
27 1 9.40563 2.68083 2.67315 
28 1 7.62308 4.45546 2.67229 
29 1 7.62403 2.6723 4.45528 
30 1 9.40798 4.45498 4.45517 
36 1 6.03714 1.09378 6.03595 
37 1 6.92414 0.206391 6.92479 
38 1 5.14884 0.199858 5.14673 
39 1 5.14962 1.98017 6.92722 
40 1 6.93019 1.98126 5.14721 
21 1 6.03985 6.03949 1.09431 
22 1 5.14925 6.92934 1.98225 
23 1 6.92957 5.14866 1.98165 
24 1 5.14925 5.1511 0.203513 
25 1 6.93044 6.92926 0.202734 
42 2 8.80943 9.53254 2.53246 
43 3 9.47289 9.58813 3.22703 
6 1 8.53212 8.53422 8.52121 
7 1 9.36458 9.36614 9.35844 
8 1 7.62267 7.62441 9.41609 
9 1 7.62082 9.42131 7.61638 
10 1 9.42049 7.62164 7.61716 
ITEM: TIMESTEP
20
ITEM: NUMBER OF ATOMS
43
ITEM: BOX BOUNDS pp pp pp
0.0000000000000000e+00 9.8979999999999997e+00
0.0000000000000000e+00 9.8979999999999997e+00
0.0000000000000000e+00 9.8979999999999997e+00
ITEM: ATOMS id type x y z 
1 1 1.1937 1.19734 1.15951 
2 1 0.100106 0.0508785 0.324751 
3 1 2.00224 2.00412 0.221834 
4 1 0.258329 2.0236 1.99415 
5 1 2.02602 0.265741 1.9981 
11 1 3.56731 3.56926 8.50844 
12 1 2.68969 2.68991 9.39005 
13 1 4.46017 4.45943 9.40779 
14 1 4.4592 2.67257 7.62024 
15 1 2.67228 4.45838 7.61922 
16 1 3.56062 8.5125 3.56005 
17 1 2.69262 9.42162 2.67584 
18 1 4.45523 7.62252 2.67217 
19 1 4.45335 9.40561 4.45124 
20 1 2.67277 7.62301 4.45308 
41 2 -0.0245474 9.66234 1.39878 
31 1 1.09355 6.03488 6.03294 
32 1 0.200013 5.14733 5.1445 
33 1 1.98077 6.92894 5.14524 
34 1 0.209272 6.92705 6.9228 
35 1 1.97981 5.14953 6.92542 
26 1 8.51263 3.56076 3.5606 
27 1 9.41734 2.69245 2.67481 
28 1 7.62265 4.45474 2.67151 
29 1 7.6228 2.67277 4.45283 
30 1 9.40661 4.4536 4.45195 
36 1 6.03385 1.09337 6.03138 
37 1 6.92561 0.210452 6.921 
38 1 5.14648 0.199561 5.1439 
39 1 5.14891 1.98028 6.92539 
40 1 6.92874 1.98067 5.14491 
21 1 6.03984 6.04034 1.09542 
22 1 5.14803 6.92837 1.98045 
23 1 6.92849 5.14886 1.98122 
24 1 5.15076 5.15136 0.20384 
25 1 6.93213 6.93285 0.204118 
42 2 8.79041 9.52435 2.5508 
43 3 9.47331 9.58589 3.22485 
6 1 8.52923 8.53306 8.51341 
7 1 9.35505 9.35113 9.3652 
8 1 7.62415 7.62558 9.41207 
9 1 7.62166 9.42141 7.61378 
10 1 9.41882 7.62259 7.61441 
ITEM: TIMESTEP
30
ITEM: NUMBER OF ATOMS
43
ITEM: BOX BOUNDS pp pp pp
0.0000000000000000e+00 9.8979999999999997e+00
0.0000000000000000e+00 9.8979999999999997e+00
0.0000000000000000e+00 9.8979999999999997e+00
ITEM: ATOMS id type x y z 
1 1 1.19516 1.20028 1.15745 
2 1 0.0953948 0.0382058 0.336757 
3 1 2.00402 2.00633 0.225235 
4 1 0.270287 2.03102 1.99604 
5 1 2.03274 0.275473 1.99815 
11 1 3.56954 3.57217 8.50443 
12 1 2.69207 2.69274 9.39383 
13 1 4.46352 4.46018 9.40667 
14 1 4.46147 2.67453 7.61774 
15 1 2.67322 4.46024 7.61785 
16 1 3.56062 8.51183 3.55808 
17 1 2.70049 9.43424 2.67914 
18 1 4.45593 7.62197 2.67091 
19 1 4.45374 9.40469 4.45073 
20 1 2.67059 7.62331 4.45153 
41 2 -0.0468397 9.63261 1.40628 
31 1 1.09519 6.03511 6.03035 
32 1 0.198504 5.14745 5.1438 
33 1 1.97981 6.92705 5.14215 
34 1 0.209271 6.92618 6.92092 
35 1 1.98013 5.14859 6.92212 
26 1 8.512 3.56088 3.55853 
27 1 9.42703 2.69986 2.67543 
28 1 7.62155 4.45744 2.67228 
29 1 7.62215 2.67174 4.45063 
30 1 9.40725 4.45191 4.45245 
36 1 6.03333 1.09371 6.02892 
37 1 6.92375 0.212684 6.9204 
38 1 5.14514 0.20121 5.14126 
39 1 5.14741 1.97948 6.92234 
40 1 6.92758 1.98042 5.14191 
21 1 6.04304 6.04181 1.09493 
22 1 5.14801 6.92694 1.98037 
23 1 6.92721 5.14731 1.97867 
24 1 5.14977 5.15479 0.20393 
25 1 6.93318 6.93388 0.204138 
42 2 8.77456 9.51789 2.56657 
43 3 9.47333 9.58395 3.22437 
6 1 8.5303 8.53294 8.51365 
7 1 9.35347 9.34546 9.3747 
8 1 7.62234 7.62623 9.40974 
9 1 7.62249 9.42274 7.60815 
10 1 9.42025 7.62353 7.61048 
ITEM: TIMESTEP
40
ITEM: NUMBER OF ATOMS
43
ITEM: BOX BOUNDS pp pp pp
0.0000000000000000e+00 9.8979999999999997e+00
0.0000000000000000e+00 9.8979999999999997e+00
0.0000000000000000e+00 9.8979999999999997e+00
ITEM: ATOMS id type x y z 
1 1 1.18914 1.19289 1.15738 
2 1 0.0930538 0.0291142 0.349033 
3 1 2.01084 2.01356 0.220505 
4 1 0.274163 2.03821 1.99855 
5 1 2.04057 0.281408 2.00051 
11 1 3.57069 3.57234 8.50743 
12 1 2.69816 2.69919 9.3911 
13 1 4.46322 4.4616 9.40513 
14 1 4.45958 2.67726 7.6148 
15 1 2.67463 4.45793 7.61469 
16 1 3.56013 8.514 3.55673 
17 1 2.7079 9.43882 2.6828 
18 1 4.45529 7.62285 2.67129 
19 1 4.45169 9.40409 4.44866 
20 1 2.67136 7.62213 4.44791 
41 2 -0.0623194 9.61052 1.41194 
31 1 1.09292 6.03458 6.02855 
32 1 0.199401 5.14541 5.14154 
33 1 1.98096 6.92843 5.14065 
34 1 0.207169 6.92792 6.91975 
35 1 1.98269 5.14902 6.92101 
26 1 8.51386 3.56128 3.55787 
27 1 9.43161 2.70843 2.67868 
28 1 7.62301 4.45571 2.67107 
29 1 7.6223 2.67102 4.44771 
30 1 9.40441 4.45188 4.45125 
36 1 6.03346 1.09458 6.02711 
37 1 6.92661 0.209945 6.91797 
38 1 5.14252 0.200827 5.13989 
39 1 5.14734 1.98133 6.92184 
40 1 6.92679 1.98058 5.1388 
21 1 6.04185 6.042 1.09328 
22 1 5.14713 6.92773 1.98057 
23 1 6.92917 5.14834 1.98012 
24 1 5.15081 5.15448 0.202468 
25 1 6.93395 6.93584 0.201861 
42 2 8.76148 9.51259 2.58074 
43 3 9.47247 9.58216 3.22568 
6 1 8.52798 8.53245 8.50721 
7 1 9.35211 9.3406 9.38066 
8 1 7.62396 7.62636 9.40781 
9 1 7.62424 9.42524 7.61047 
10 1 9.42171 7.62636 7.61098 
ITEM: TIMESTEP
50
ITEM: NUMBER OF ATOMS
43
ITEM: BOX BOUNDS pp pp pp
0.0000000000000000e+00 9.8979999999999997e+00
0.0000000000000000e+00 9.8979999999999997e+00
0.0000000000000000e+00 9.8979999999999997e+00
ITEM: ATOMS id type x y z 
1 1 1.1896 1.19345 1.15409 
2 1 0.0905042 0.0169339 0.364762 
3 1 2.01116 2.0141 0.221642 
4 1 0.280102 2.04347 1.99539 
5 1 2.0458 0.288591 1.99864 
11 1 3.57383 3.57408 8.50516 
12 1 2.69738 2.69922 9.39616 
13 1 4.46395 4.46583 9.40353 
14 1 4.45931 2.67824 7.61308 
15 1 2.67615 4.46001 7.61266 
16 1 3.56025 8.51582 3.55614 
17 1 2.71268 9.45049 2.68243 
18 1 4.45371 7.62307 2.66931 
19 1 4.4523 9.40377 4.44774 
20 1 2.66968 7.62187 4.44601 
41 2 -0.082136 9.58016 1.41996 
31 1 1.09288 6.03427 6.02634 
32 1 0.199888 5.14547 5.14168 
33 1 1.97977 6.92777 5.13717 
34 1 0.208369 6.93059 6.91823 
35 1 1.98216 5.14925 6.91843 
26 1 8.51587 3.56167 3.55637 
27 1 9.44303 2.71327 2.67847 
28 1 7.6228 4.4554 2.66951 
29 1 7.62172 2.67073 4.4448 
30 1 9.4041 4.45255 4.45004 
36 1 6.03148 1.09434 6.02429 
37 1 6.92939 0.210284 6.91619 
38 1 5.14335 0.201526 5.14021 
39 1 5.1488 1.98327 6.91824 
40 1 6.92618 1.98044 5.13604 
21 1 6.04184 6.04224 1.09256 
22 1 5.15016 6.9307 1.97864 
23 1 6.93034 5.15024 1.97775 
24 1 5.15453 5.1551 0.200392 
25 1 6.93498 6.93608 0.197837 
42 2 8.74295 9.50498 2.60291 
43 3 9.46965 9.57936 3.23036 
6 1 8.53063 8.53525 8.50829 
7 1 9.3527 9.33618 9.39117 
8 1 7.62222 7.62682 9.40623 
9 1 7.62322 9.42767 7.60742 
10 1 9.42273 7.62647 7.6077 
ITEM: TIMESTEP
60
ITEM: NUMBER OF ATOMS
43
ITEM: BOX BOUNDS pp pp pp
0.0000000000000000e+00 9.8979999999999997e+00
0.0000000000000000e+00 9.8979999999999997e+00
0.0000000000000000e+00 9.8979999999999997e+00
ITEM: ATOMS id type x y z 
1 1 1.18826 1.19197 1.15152 
2 1 0.0889583 0.00928883 0.373449 
3 1 2.01198 2.01519 0.22023 
4 1 0.282842 2.04638 1.99396 
5 1 2.04925 0.29187 1.99787 
11 1 3.57224 3.5748 8.50484 
12 1 2.69874 2.70088 9.39642 
13 1 4.4663 4.46522 9.40037 
14 1 4.46 2.67812 7.61129 
15 1 2.67715 4.46123 7.61165 
16 1 3.56132 8.51724 3.55506 
17 1 2.71509 9.45339 2.68278 
18 1 4.45456 7.6236 2.66749 
19 1 4.45112 9.40442 4.44861 
20 1 2.66793 7.62385 4.44311 
41 2 -0.0926403 9.56252 1.42488 
31 1 1.09175 6.03436 6.02535 
32 1 0.199468 5.14562 5.14047 
33 1 1.98205 6.92668 5.13776 
34 1 0.209168 6.93182 6.9144 
35 1 1.98396 5.14984 6.91737 
26 1 8.5166 3.56293 3.5544 
27 1 9.44634 2.71535 2.67898 
28 1 7.62374 4.45696 2.66808 
29 1 7.623 2.66903 4.44264 
30 1 9.40433 4.4522 4.45029 
36 1 6.03277 1.0938 6.02367 
37 1 6.92717 0.213126 6.91452 
38 1 5.1443 0.20137 5.13682 
39 1 5.14758 1.98515 6.91697 
40 1 6.92559 1.98304 5.13609 
21 1 6.0425 6.04386 1.09209 
22 1 5.14989 6.93152 1.97847 
23 1 6.9296 5.14864 1.9772 
24 1 5.15655 5.15642 0.198532 
25 1 6.93352 6.93774 0.198723 
42 2 8.73168 9.50029 2.61764 
43 3 9.46694 9.57752 3.23512 
6 1 8.53143 8.53637 8.50694 
7 1 9.35267 9.33331 9.39728 
8 1 7.62464 7.62941 9.40371 
9 1 7.62679 9.42633 7.60749 
10 1 9.42286 7.62837 7.60947 
ITEM: TIMESTEP
70
ITEM: NUMBER OF ATOMS
43
ITEM: BOX BOUNDS pp pp pp
0.0000000000000000e+00 9.8979999999999997e+00
0.0000000000000000e+00 9.8979999999999997e+00
0.0000000000000000e+00 9.8979999999999997e+00
ITEM: ATOMS id type x y z 
1 1 1.18819 1.1919 1.15135 
2 1 0.0889566 0.0088145 0.37431 
3 1 2.01202 2.01524 0.220117 
4 1 0.282989 2.04654 1.99385 
5 1 2.04951 0.292076 1.99767 
11 1 3.57265 3.5749 8.50479 
12 1 2.69869 2.70087 9.39652 
13 1 4.46635 4.46534 9.40068 
14 1 4.45935 2.67834 7.61123 
15 1 2.67749 4.46126 7.6115 
16 1 3.56116 8.51727 3.55468 
17 1 2.71506 9.4536 2.68284 
18 1 4.45455 7.62377 2.66797 
19 1 4.45107 9.40435 4.44831 
20 1 2.66814 7.62382 4.44345 
41 2 -0.0933569 9.56122 1.42522 
31 1 1.0922 6.03473 6.02516 
32 1 0.199604 5.14566 5.14055 
33 1 1.98172 6.92694 5.13709 
34 1 0.209091 6.93157 6.91545 
35 1 1.98351 5.14983 6.91727 
26 1 8.51669 3.56288 3.55448 
27 1 9.44656 2.71545 2.67894 
28 1 7.62392 4.4565 2.66778 
29 1 7.62299 2.66938 4.44269 
30 1 9.40413 4.4522 4.45011 
36 1 6.03259 1.09395 6.02367 
37 1 6.92838 0.21271 6.91445 
38 1 5.14424 0.201598 5.1373 
39 1 5.14815 1.98515 6.91669 
40 1 6.92586 1.98264 5.13567 
21 1 6.04242 6.04382 1.09191 
22 1 5.15012 6.93161 1.97802 
23 1 6.92967 5.14924 1.97713 
24 1 5.15649 5.15643 0.198209 
25 1 6.93405 6.93788 0.198008 
42 2 8.73082 9.49993 2.61883 
43 3 9.46668 9.57738 3.23557 
6 1 8.53185 8.53655 8.50706 
7 1 9.35264 9.33304 9.39759 
8 1 7.62419 7.62925 9.40422 
9 1 7.62569 9.4269 7.60744 
10 1 9.42293 7.62852 7.60824 
ITEM: TIMESTEP
80
ITEM: NUMBER OF ATOMS
43
ITEM: BOX BOUNDS pp pp pp
0.0000000000000000e+00 9.8979999999999997e+00
0.0000000000000000e+00 9.8979999999999997e+00
0.0000000000000000e+00 9.8979999999999997e+00
ITEM: ATOMS id type x y z 
1 1 1.18184 1.18323 1.13965 
2 1 0.0853636 -0.0347719 0.432872 
3 1 2.00956 2.01427 0.21042 
4 1 0.287923 2.04996 1.98283 
5 1 2.05832 0.302533 1.98624 
11 1 3.57428 3.57862 8.50017 
12 1 2.69818 2.7052 9.3936 
13 1 4.46856 4.47198 9.39485 
14 1 4.45923 2.682 7.60585 
15 1 2.68286 4.46245 7.60472 
16 1 3.56155 8.52729 3.54418 
17 1 2.72432 9.46731 2.67724 
18 1 4.46065 7.63463 2.66244 
19 1 4.44982 9.40712 4.44614 
20 1 2.66404 7.63371 4.43067 
41 2 -0.14559 9.45633 1.45541 
31 1 1.09487 6.04067 6.01942 
32 1 0.199741 5.14999 5.13983 
33 1 1.97758 6.93532 5.1262 
34 1 0.209074 6.93592 6.91113 
35 1 1.9918 5.15423 6.90859 
26 1 8.52524 3.56552 3.5465 
27 1 9.45829 2.72437 2.67103 
28 1 7.63174 4.45804 2.65586 
29 1 7.6326 2.66858 4.42988 
30 1 9.40731 4.45635 4.44689 
36 1 6.0369 1.10243 6.01643 
37 1 6.93933 0.223821 6.90907 
38 1 5.14601 0.204905 5.13515 
39 1 5.14698 1.98818 6.90864 
40 1 6.93223 1.98236 5.11892 
21 1 6.05064 6.05133 1.08151 
22 1 5.15304 6.93701 1.9718 
23 1 6.93758 5.15325 1.96982 
24 1 5.15682 5.16604 0.193265 
25 1 6.93727 6.93974 0.186299 
42 2 8.65816 9.46926 2.72551 
43 3 9.44103 9.56501 3.27868 
6 1 8.54519 8.54935 8.50853 
7 1 9.35583 9.31877 9.43287 
8 1 7.62921 7.63309 9.39625 
9 1 7.63703 9.43941 7.60325 
10 1 9.4276 7.6362 7.60541 
ITEM: TIMESTEP
90
ITEM: NUMBER OF ATOMS
43
ITEM: BOX BOUNDS pp pp pp
0.0000000000000000e+00 9.8979999999999997e+00
0.0000000000000000e+00 9.8979999999999997e+00
0.0000000000000000e+00 9.8979999999999997e+00
ITEM: ATOMS id type x y z 
1 1 1.17601 1.17875 1.13154 
2 1 0.0843258 -0.0428236 0.44591 
3 1 2.00451 2.01045 0.205457 
4 1 0.289709 2.04723 1.97791 
5 1 2.05619 0.30187 1.98407 
11 1 3.57539 3.57844 8.49732 
12 1 2.69382 2.70186 9.39129 
13 1 4.46732 4.4698 9.39289 
14 1 4.46323 2.68383 7.60281 
15 1 2.6826 4.46942 7.60592 
16 1 3.56755 8.52798 3.54892 
17 1 2.72159 9.467 2.67276 
18 1 4.46003 7.63626 2.65415 
19 1 4.45499 9.41027 4.44511 
20 1 2.66659 7.63524 4.43205 
41 2 -0.148731 9.43685 1.46359 
31 1 1.0963 6.0416 6.01803 
32 1 0.202412 5.15187 5.13475 
33 1 1.97798 6.9374 5.12324 
34 1 0.21363 6.94061 6.91093 
35 1 1.98813 5.1579 6.91098 
26 1 8.5266 3.56729 3.54291 
27 1 9.45663 2.71657 2.66674 
28 1 7.6343 4.46411 2.65384 
29 1 7.63074 2.67037 4.4278 
30 1 9.40673 4.45722 4.4446 
36 1 6.03864 1.09981 6.01461 
37 1 6.93865 0.222805 6.91018 
38 1 5.14993 0.206 5.13533 
39 1 5.15276 1.99119 6.90766 
40 1 6.93443 1.98233 5.1209 
21 1 6.04844 6.05107 1.08013 
22 1 5.15576 6.94114 1.96705 
23 1 6.93952 5.16015 1.96633 
24 1 5.15832 5.16035 0.191126 
25 1 6.93821 6.94345 0.183224 
42 2 8.63915 9.46189 2.75619 
43 3 9.43301 9.5623 3.29246 
6 1 8.54401 8.55106 8.50783 
7 1 9.35766 9.31573 9.43976 
8 1 7.63079 7.6365 9.39264 
9 1 7.63952 9.44578 7.60834 
10 1 9.43263 7.6421 7.60471 
ITEM: TIMESTEP
100
ITEM: NUMBER OF ATOMS
43
ITEM: BOX BOUNDS pp pp pp
0.0000000000000000e+00 9.8979999999999997e+00
0.0000000000000000e+00 9.8979999999999997e+00
0.0000000000000000e+00 9.8979999999999997e+00
ITEM: ATOMS id type x y z 
1 1 1.17647 1.17708 1.13191 
2 1 0.0836058 -0.0467707 0.451074 
3 1 2.00361 2.00867 0.202644 
4 1 0.286029 2.04559 1.97616 
5 1 2.05497 0.300313 1.98281 
11 1 3.5749 3.57777 8.49812 
12 1 2.69225 2.70128 9.389 
13 1 4.46777 4.46971 9.39391 
14 1 4.46276 2.68535 7.60284 
15 1 2.68118 4.46887 7.60581 
16 1 3.56581 8.52906 3.54481 
17 1 2.72291 9.4672 2.67215 
18 1 4.46096 7.63674 2.6548 
19 1 4.45578 9.41083 4.44418 
20 1 2.66768 7.63514 4.43102 
41 2 -0.149708 9.42953 1.46718 
31 1 1.09544 6.04317 6.01769 
32 1 0.202361 5.15326 5.13449 
33 1 1.97931 6.93846 5.1232 
34 1 0.216415 6.94326 6.91064 
35 1 1.98893 5.15699 6.90855 
26 1 8.5282 3.56864 3.54091 
27 1 9.45598 2.7176 2.66548 
28 1 7.63219 4.46311 2.65435 
29 1 7.63299 2.6718 4.42762 
30 1 9.40908 4.45757 4.44309 
36 1 6.04053 1.1022 6.01502 
37 1 6.94076 0.22544 6.91117 
38 1 5.15089 0.205643 5.13452 
39 1 5.15304 1.99323 6.90754 
40 1 6.93515 1.98368 5.11927 
21 1 6.04825 6.05195 1.07887 
22 1 5.15559 6.94169 1.96655 
23 1 6.93941 5.1584 1.96442 
24 1 5.16112 5.16213 0.187992 
25 1 6.93815 6.94371 0.181889 
42 2 8.63164 9.45902 2.76845 
43 3 9.42988 9.56126 3.29746 
6 1 8.54628 8.55247 8.5097 
7 1 9.35786 9.31472 9.44256 
8 1 7.63074 7.63761 9.39213 
9 1 7.64039 9.4452 7.60782 
10 1 9.43245 7.6424 7.60421 
ITEM: TIMESTEP
110
ITEM: NUMBER OF ATOMS
43
ITEM: BOX BOUNDS pp pp pp
0.0000000000000000e+00 9.8979999999999997e+00
0.0000000000000000e+00 9.8979999999999997e+00
0.0000000000000000e+00 9.8979999999999997e+00
ITEM: ATOMS id type x y z 
1 1 1.1592 1.16065 1.11667 
2 1 0.0758214 -0.0901917 0.505648 
3 1 1.98592 1.99133 0.177528 
4 1 0.272543 2.03006 1.96203 
5 1 2.04942 0.294682 1.97025 
11 1 3.57248 3.57529 8.49044 
12 1 2.67728 2.68634 9.37123 
13 1 4.4587 4.47582 9.382 
14 1 4.46769 2.68628 7.60783 
15 1 2.67968 4.46434 7.59273 
16 1 3.57761 8.53541 3.53882 
17 1 2.72308 9.4676 2.65919 
18 1 4.47601 7.64576 2.64942 
19 1 4.46745 9.42028 4.43719 
20 1 2.67975 7.6458 4.42197 
41 2 -0.160563 9.34716 1.51071 
31 1 1.10508 6.05843 6.01147 
32 1 0.212553 5.16682 5.12204 
33 1 1.9895 6.94648 5.11739 
34 1 0.225265 6.95648 6.90776 
35 1 1.98694 5.16129 6.90658 
26 1 8.53301 3.57637 3.53225 
27 1 9.45066 2.7133 2.65043 
28 1 7.63972 4.46315 2.63705 
29 1 7.64007 2.68137 4.42123 
30 1 9.41746 4.47056 4.42886 
36 1 6.05093 1.11581 6.01102 
37 1 6.95669 0.244521 6.90973 
38 1 5.16217 0.213281 5.1279 
39 1 5.16782 2.00254 6.90713 
40 1 6.94526 1.995 5.11786 
21 1 6.04869 6.05334 1.0615 
22 1 5.16557 6.94679 1.95487 
23 1 6.94454 5.16054 1.94886 
24 1 5.15112 5.16813 0.179218 
25 1 6.93708 6.95037 0.168221 
42 2 8.54685 9.42649 2.90896 
43 3 9.39364 9.54941 3.35258 
6 1 8.55792 8.56402 8.51202 
7 1 9.36066 9.30306 9.47832 
8 1 7.62888 7.64955 9.38579 
9 1 7.65803 9.46587 7.60614 
10 1 9.44186 7.65141 7.60517 
ITEM: TIMESTEP
120
ITEM: NUMBER OF ATOMS
43
ITEM: BOX BOUNDS pp pp pp
0.0000000000000000e+00 9.8979999999999997e+00
0.0000000000000000e+00 9.8979999999999997e+00
0.0000000000000000e+00 9.8979999999999997e+00
ITEM: ATOMS id type x y z 
1 1 1.15853 1.15782 1.11687 
2 1 0.0750011 -0.0944004 0.513717 
3 1 1.98323 1.98832 0.176554 
4 1 0.272681 2.03095 1.96117 
5 1 2.04969 0.292947 1.96967 
11 1 3.56662 3.57413 8.4918 
12 1 2.67455 2.6842 9.37047 
13 1 4.45805 4.47336 9.38194 
14 1 4.46839 2.68935 7.60218 
15 1 2.67979 4.46703 7.59548 
16 1 3.57985 8.53911 3.536 
17 1 2.72606 9.4684 2.65936 
18 1 4.47402 7.64435 2.64639 
19 1 4.4695 9.42236 4.43676 
20 1 2.68067 7.64647 4.4237 
41 2 -0.161311 9.33977 1.51518 
31 1 1.10387 6.05649 6.0086 
32 1 0.211459 5.1664 5.12201 
33 1 1.99135 6.94882 5.11526 
34 1 0.226363 6.95682 6.90688 
35 1 1.98994 5.16304 6.90266 
26 1 8.5364 3.57775 3.5281 
27 1 9.45085 2.71265 2.64978 
28 1 7.63964 4.46769 2.63621 
29 1 7.64239 2.68498 4.41982 
30 1 9.42057 4.4717 4.42664 
36 1 6.05464 1.11558 6.01152 
37 1 6.95906 0.24586 6.9103 
38 1 5.16504 0.216205 5.12799 
39 1 5.16263 1.99953 6.90764 
40 1 6.9473 1.99696 5.11518 
21 1 6.04917 6.05456 1.06121 
22 1 5.16493 6.94746 1.95534 
23 1 6.94308 5.16045 1.94699 
24 1 5.1516 5.16613 0.176376 
25 1 6.93687 6.95034 0.166981 
42 2 8.53736 9.42262 2.92632 
43 3 9.38911 9.54781 3.35653 
6 1 8.55935 8.56552 8.51253 
7 1 9.3586 9.29814 9.48002 
8 1 7.62928 7.65031 9.38261 
9 1 7.6589 9.46763 7.60922 
10 1 9.44493 7.65537 7.60405 
ITEM: TIMESTEP
130
ITEM: NUMBER OF ATOMS
43
ITEM: BOX BOUNDS pp pp pp
0.0000000000000000e+00 9.8979999999999997e+00
0.0000000000000000e+00 9.8979999999999997e+00
0.0000000000000000e+00 9.8979999999999997e+00
ITEM: ATOMS id type x y z 
1 1 1.1572 1.14971 1.11744 
2 1 0.0698871 -0.105428 0.523686 
3 1 1.98016 1.98311 0.174277 
4 1 0.275216 2.0292 1.96138 
5 1 2.05422 0.291328 1.97102 
11 1 3.56091 3.57248 8.49193 
12 1 2.67012 2.68283 9.36707 
13 1 4.45843 4.46387 9.38163 
14 1 4.45776 2.6888 7.59539 
15 1 2.67438 4.46675 7.59613 
16 1 3.58598 8.543 3.53687 
17 1 2.73345 9.46904 2.66426 
18 1 4.47014 7.64251 2.64412 
19 1 4.47873 9.42845 4.43449 
20 1 2.68571 7.65048 4.42302 
41 2 -0.163092 9.32811 1.5264 
31 1 1.10652 6.05922 6.00407 
32 1 0.214423 5.16729 5.11633 
33 1 1.99468 6.95403 5.11359 
34 1 0.236479 6.96033 6.90697 
35 1 1.98894 5.16246 6.89871 
26 1 8.53957 3.58075 3.52251 
27 1 9.45184 2.71711 2.64597 
28 1 7.63993 4.47631 2.636 
29 1 7.64421 2.69101 4.41538 
30 1 9.42091 4.47416 4.4217 
36 1 6.05758 1.12027 6.01148 
37 1 6.96212 0.250192 6.91399 
38 1 5.1717 0.222193 5.12851 
39 1 5.15773 2.00486 6.90115 
40 1 6.95242 2.00338 5.11455 
21 1 6.04713 6.05385 1.05646 
22 1 5.15675 6.94729 1.9474 
23 1 6.94166 5.16693 1.94669 
24 1 5.15433 5.15772 0.172488 
25 1 6.93403 6.94837 0.162008 
42 2 8.51549 9.41373 2.96345 
43 3 9.38166 9.54448 3.36193 
6 1 8.56016 8.56491 8.51084 
7 1 9.35619 9.2896 9.48797 
8 1 7.62893 7.64696 9.37786 
9 1 7.66024 9.47021 7.6127 
10 1 9.45515 7.65918 7.60415 
ITEM: TIMESTEP
140
ITEM: NUMBER OF ATOMS
43
ITEM: BOX BOUNDS pp pp pp
0.0000000000000000e+00 9.8979999999999997e+00
0.0000000000000000e+00 9.8979999999999997e+00
0.0000000000000000e+00 9.8979999999999997e+00
ITEM: ATOMS id type x y z 
1 1 1.15348 1.1473 1.11782 
2 1 0.0702736 -0.10891 0.53274 
3 1 1.97571 1.97826 0.174705 
4 1 0.2714 2.02877 1.9583 
5 1 2.05367 0.292178 1.97121 
11 1 3.55618 3.56839 8.48838 
12 1 2.66516 2.67554 9.36663 
13 1 4.45133 4.46458 9.37731 
14 1 4.46048 2.68496 7.5995 
15 1 2.6771 4.46779 7.59401 
16 1 3.59057 8.54463 3.53535 
17 1 2.73426 9.47154 2.66247 
18 1 4.47684 7.64452 2.64246 
19 1 4.48063 9.43004 4.43497 
20 1 2.6907 7.65018 4.42257 
41 2 -0.165594 9.32075 1.53242 
31 1 1.10903 6.06073 6.00621 
32 1 0.217545 5.17384 5.11484 
33 1 1.99782 6.95568 5.11394 
34 1 0.224392 6.95863 6.90073 
35 1 1.99294 5.16621 6.89743 
26 1 8.54055 3.58559 3.52272 
27 1 9.45014 2.71506 2.6447 
28 1 7.64055 4.47364 2.62987 
29 1 7.64817 2.69462 4.41561 
30 1 9.42717 4.47932 4.41913 
36 1 6.06103 1.12358 6.01236 
37 1 6.96646 0.251602 6.91081 
38 1 5.17457 0.225474 5.12653 
39 1 5.16566 2.00738 6.90326 
40 1 6.95404 2.00805 5.11338 
21 1 6.04489 6.05105 1.05131 
22 1 5.16412 6.94921 1.94644 
23 1 6.93906 5.16244 1.94133 
24 1 5.14545 5.15781 0.170519 
25 1 6.93223 6.94537 0.156838 
42 2 8.50183 9.40722 2.98858 
43 3 9.37531 9.54245 3.36906 
6 1 8.56359 8.56849 8.51276 
7 1 9.35749 9.28856 9.49408 
8 1 7.62777 7.64545 9.3754 
9 1 7.66398 9.47295 7.61196 
10 1 9.452 7.66006 7.60337 
ITEM: TIMESTEP
150
ITEM: NUMBER OF ATOMS
43
ITEM: BOX BOUNDS pp pp pp
0.0000000000000000e+00 9.8979999999999997e+00
0.0000000000000000e+00 9.8979999999999997e+00
0.0000000000000000e+00 9.8979999999999997e+00
ITEM: ATOMS id type x y z 
1 1 1.15262 1.14368 1.1206 
2 1 0.0674391 -0.117482 0.541408 
3 1 1.97099 1.97317 0.171252 
4 1 0.269167 2.02626 1.95828 
5 1 2.05406 0.290107 1.97323 
11 1 3.55212 3.5638 8.4882 
12 1 2.65968 2.67025 9.3642 
13 1 4.44662 4.45979 9.37911 
14 1 4.46117 2.68721 7.59725 
15 1 2.67552 4.46669 7.59107 
16 1 3.59787 8.54628 3.53504 
17 1 2.73762 9.47276 2.66292 
18 1 4.47908 7.64618 2.6385 
19 1 4.48765 9.43329 4.43501 
20 1 2.69587 7.65505 4.4231 
41 2 -0.169407 9.31055 1.54188 
31 1 1.11071 6.06668 6.00158 
32 1 0.220635 5.1784 5.11095 
33 1 2.00405 6.95876 5.11405 
34 1 0.229994 6.96403 6.90082 
35 1 1.99231 5.16676 6.89629 
26 1 8.54065 3.59022 3.51797 
27 1 9.45064 2.71699 2.64154 
28 1 7.63903 4.47435 2.62679 
29 1 7.65134 2.69987 4.41548 
30 1 9.43025 4.48506 4.41457 
36 1 6.06893 1.1272 6.01102 
37 1 6.97303 0.257712 6.9115 
38 1 5.18064 0.228936 5.1259 
39 1 5.16373 2.0047 6.90334 
40 1 6.95753 2.01318 5.11314 
21 1 6.04082 6.04843 1.04708 
22 1 5.16477 6.95073 1.94172 
23 1 6.93947 5.16185 1.93426 
24 1 5.14216 5.15638 0.16703 
25 1 6.93007 6.94344 0.150605 
42 2 8.48325 9.39824 3.02339 
43 3 9.36653 9.53954 3.37784 
6 1 8.5625 8.56757 8.51387 
7 1 9.35599 9.28446 9.50049 
8 1 7.62683 7.64371 9.37178 
9 1 7.66901 9.47658 7.61176 
10 1 9.44706 7.65962 7.59816 
ITEM: TIMESTEP
160
ITEM: NUMBER OF ATOMS
43
ITEM: BOX BOUNDS pp pp pp
0.0000000000000000e+00 9.8979999999999997e+00
0.0000000000000000e+00 9.8979999999999997e+00
0.0000000000000000e+00 9.8979999999999997e+00
ITEM: ATOMS id type x y z 
1 1 1.15215 1.14313 1.1201 
5 1 2.05416 0.290081 1.97334 
3 1 1.97097 1.97287 0.171156 
4 1 0.269335 2.02647 1.9586 
11 1 3.55215 3.56349 8.48798 
12 1 2.65943 2.6702 9.36378 
13 1 4.44634 4.45932 9.37861 
14 1 4.46006 2.68682 7.59641 
15 1 2.67434 4.46631 7.5917 
16 1 3.59773 8.54704 3.5359 
17 1 2.73817 9.47241 2.66329 
18 1 4.48013 7.64764 2.63833 
19 1 4.48796 9.43336 4.43419 
20 1 2.69722 7.65422 4.42313 
2 1 0.0672707 9.78008 0.542328 
31 1 1.11203 6.06672 6.00204 
32 1 0.220855 5.17824 5.11044 
33 1 2.00295 6.96014 5.11338 
34 1 0.230639 6.96392 6.90043 
35 1 1.99212 5.16681 6.89553 
26 1 8.54175 3.59061 3.51757 
27 1 9.45055 2.71691 2.64188 
28 1 7.63949 4.47548 2.62633 
29 1 7.6508 2.70083 4.41512 
30 1 9.42948 4.48479 4.41431 
36 1 6.06867 1.12834 6.01163 
37 1 6.97274 0.257506 6.91166 
38 1 5.18135 0.228974 5.12622 
39 1 5.16407 2.00555 6.90303 
40 1 6.95838 2.0125 5.11314 
21 1 6.04089 6.04889 1.04681 
22 1 5.16323 6.94884 1.94133 
23 1 6.93926 5.16225 1.93452 
24 1 5.14253 5.1558 0.166985 
25 1 6.93011 6.94324 0.150306 
42 2 8.482 9.39763 3.02574 
43 3 9.36599 9.53933 3.37828 
41 2 9.72844 9.31016 1.54223 
6 1 8.56211 8.56654 8.51391 
7 1 9.35562 9.28367 9.50034 
8 1 7.62687 7.64406 9.37111 
9 1 7.66947 9.47716 7.61206 
10 1 9.44816 7.66065 7.59884 
ITEM: TIMESTEP
170
ITEM: NUMBER OF ATOMS
43
ITEM: BOX BOUNDS pp pp pp
0.0000000000000000e+00 9.8979999999999997e+00
0.0000000000000000e+00 9.8979999999999997e+00
0.0000000000000000e+00 9.8979999999999997e+00
ITEM: ATOMS id type x y z 
1 1 1.15099 1.14077 1.11975 
5 1 2.05409 0.289637 1.97329 
3 1 1.96959 1.9706 0.170656 
4 1 0.270218 2.02567 1.95897 
11 1 3.54895 3.56241 8.48723 
12 1 2.65724 2.66838 9.36293 
13 1 4.44578 4.45715 9.37737 
14 1 4.45655 2.68714 7.5939 
15 1 2.67177 4.46401 7.5901 
16 1 3.60034 8.54998 3.53636 
17 1 2.73919 9.4734 2.66364 
18 1 4.47937 7.64637 2.63875 
19 1 4.49156 9.43601 4.4331 
20 1 2.69986 7.65601 4.42292 
2 1 0.065492 9.77701 0.544941 
31 1 1.11313 6.06805 6.0013 
32 1 0.221648 5.17947 5.10808 
33 1 2.00542 6.96099 5.11228 
34 1 0.235669 6.96564 6.90146 
35 1 1.98993 5.16552 6.89435 
26 1 8.54285 3.59209 3.51541 
27 1 9.45201 2.71639 2.64281 
28 1 7.64158 4.4797 2.62504 
29 1 7.65224 2.70282 4.4149 
30 1 9.4299 4.48659 4.41216 
36 1 6.06989 1.13075 6.0114 
37 1 6.97264 0.25866 6.91355 
38 1 5.18516 0.229851 5.12667 
39 1 5.16245 2.00632 6.90173 
40 1 6.95981 2.01514 5.11334 
21 1 6.03925 6.04806 1.04502 
22 1 5.16106 6.9472 1.94107 
23 1 6.94054 5.16546 1.9327 
24 1 5.143 5.1538 0.164514 
25 1 6.92868 6.94315 0.148401 
42 2 8.47436 9.39384 3.04025 
43 3 9.36258 9.53807 3.38094 
41 2 9.72723 9.30753 1.54503 
6 1 8.5633 8.56572 8.51326 
7 1 9.35496 9.28056 9.50236 
8 1 7.62591 7.6433 9.36914 
9 1 7.67035 9.47902 7.61349 
10 1 9.45146 7.66071 7.59942 
ITEM: TIMESTEP
180
ITEM: NUMBER OF ATOMS
43
ITEM: BOX BOUNDS pp pp pp
0.0000000000000000e+00 9.8979999999999997e+00
0.0000000000000000e+00 9.8979999999999997e+00
0.0000000000000000e+00 9.8979999999999997e+00
ITEM: ATOMS id type x y z 
1 1 1.15079 1.14053 1.11988 
5 1 2.05415 0.289463 1.9734 
3 1 1.96919 1.97026 0.170506 
4 1 0.270011 2.02537 1.95905 
11 1 3.54846 3.56173 8.48667 
12 1 2.65692 2.66801 9.36281 
13 1 4.44513 4.45731 9.37687 
14 1 4.45676 2.68686 7.59414 
15 1 2.67167 4.46445 7.59035 
16 1 3.60065 8.54961 3.53643 
17 1 2.73954 9.47346 2.66375 
18 1 4.47954 7.64681 2.63803 
19 1 4.49192 9.43606 4.43308 
20 1 2.70005 7.65611 4.42295 
2 1 0.0653729 9.77656 0.545447 
31 1 1.11331 6.06757 6.00044 
32 1 0.221835 5.17991 5.10814 
33 1 2.0059 6.96123 5.11251 
34 1 0.23536 6.9658 6.90075 
35 1 1.99022 5.16608 6.89449 
26 1 8.5434 3.59292 3.51534 
27 1 9.4522 2.71659 2.64263 
28 1 7.64097 4.47898 2.62467 
29 1 7.65238 2.70339 4.41469 
30 1 9.43027 4.48696 4.41165 
36 1 6.07021 1.13099 6.01179 
37 1 6.97296 0.258984 6.91349 
38 1 5.18543 0.230312 5.12648 
39 1 5.16283 2.00663 6.90168 
40 1 6.96014 2.0154 5.11309 
21 1 6.0393 6.04843 1.04446 
22 1 5.16149 6.94727 1.94076 
23 1 6.94014 5.16572 1.93329 
24 1 5.14287 5.15296 0.164429 
25 1 6.92854 6.94275 0.14801 
42 2 8.47316 9.39323 3.04259 
43 3 9.36202 9.53787 3.38134 
41 2 9.72697 9.3071 1.54558 
6 1 8.56319 8.56574 8.51346 
7 1 9.35481 9.28034 9.50262 
8 1 7.62572 7.64335 9.36892 
9 1 7.67037 9.4791 7.61357 
10 1 9.45185 7.66084 7.59977 
ITEM: TIMESTEP
190
ITEM: NUMBER OF ATOMS
43
ITEM: BOX BOUNDS pp pp pp
0.0000000000000000e+00 9.8979999999999997e+00
0.0000000000000000e+00 9.8979999999999997e+00
0.0000000000000000e+00 9.8979999999999997e+00
ITEM: ATOMS id type x y z 
1 1 1.14999 1.13841 1.12063 
5 1 2.05447 0.288799 1.97402 
3 1 1.96736 1.96829 0.169733 
4 1 0.269603 2.02435 1.95938 
11 1 3.54791 3.5603 8.48573 
12 1 2.6547 2.66589 9.36177 
13 1 4.44283 4.45627 9.37564 
14 1 4.45726 2.68607 7.59459 
15 1 2.67031 4.46454 7.59057 
16 1 3.60288 8.55011 3.53566 
17 1 2.74108 9.47353 2.66398 
18 1 4.48195 7.64809 2.63661 
19 1 4.49389 9.43717 4.43298 
20 1 2.70277 7.65681 4.42272 
2 1 0.0645175 9.7741 0.548349 
31 1 1.11507 6.06982 5.99929 
32 1 0.223324 5.18183 5.10656 
33 1 2.00756 6.96244 5.11193 
34 1 0.235404 6.96595 6.9003 
35 1 1.9901 5.16723 6.89462 
26 1 8.54395 3.59507 3.51471 
27 1 9.45237 2.71713 2.64183 
28 1 7.64035 4.47876 2.62275 
29 1 7.65338 2.70579 4.41377 
30 1 9.43137 4.48897 4.41042 
36 1 6.07277 1.13292 6.01175 
37 1 6.97455 0.260469 6.91345 
38 1 5.187 0.232122 5.12587 
39 1 5.16424 2.00661 6.90208 
40 1 6.96146 2.01757 5.11241 
21 1 6.03767 6.04781 1.04245 
22 1 5.16307 6.94795 1.93903 
23 1 6.93838 5.16485 1.93191 
24 1 5.14076 5.15169 0.163288 
25 1 6.9275 6.9418 0.145759 
42 2 8.46611 9.38967 3.05621 
43 3 9.35879 9.53667 3.38373 
41 2 9.72551 9.30465 1.54853 
6 1 8.56335 8.56583 8.51371 
7 1 9.35435 9.27906 9.50458 
8 1 7.62507 7.64285 9.36757 