LAMMPS (3 Mar 2020)
Reading data file ...
  orthogonal box = (0 0 0) to (9.898 9.898 9.898)
  2 by 2 by 2 MPI processor grid
  reading atoms ...
  43 atoms
  read_data CPU = 0.0251112 secs
WARNING: Using 'neigh_modify every 1 delay 0 check yes' setting during minimization (../min.cpp:190)
WARNING: Total cutoff < 2*bond cutoff. May need to use an increased neighbor list skin. (../pair_reaxc.cpp:413)
Neighbor list info ...
  update every 1 steps, delay 0 steps, check yes
  max neighbors/atom: 2000, page size: 100000
  master list distance cutoff = 9.5
  ghost atom cutoff = 9.5
  binsize = 4.75, bins = 3 3 3
  2 neighbor lists, perpetual/occasional/extra = 2 0 0
  (1) pair reax/c, perpetual
      attributes: half, newton off, ghost
      pair build: half/bin/newtoff/ghost
      stencil: half/ghost/bin/3d/newtoff
      bin: standard
  (2) fix qeq/reax, perpetual, copy from (1)
      attributes: half, newton off, ghost
      pair build: copy
      stencil: none
      bin: none
Setting up cg style minimization ...
  Unit style    : real
  Current step  : 0
Per MPI rank memory allocation (min/avg/max) = 18.37 | 18.6 | 18.86 Mbytes
Step Temp E_pair E_mol TotEng Press 
       0            0   -7488.3565            0   -7488.3565    3018.5514 
     150            0   -7553.7381            0   -7553.7381   -4370.3246 
Loop time of 1.76788 on 8 procs for 150 steps with 43 atoms

99.4% CPU use with 8 MPI tasks x no OpenMP threads

Minimization stats:
  Stopping criterion = energy tolerance
  Energy initial, next-to-last, final = 
        -7488.35651951      -7553.7380095     -7553.73808454
  Force two-norm initial, final = 351.198 36.948
  Force max component initial, final = 152.221 9.24602
  Final line search alpha, max atom move = 0.00679122 0.0627918
  Iterations, force evaluations = 150 726

MPI task timing breakdown:
Section |  min time  |  avg time  |  max time  |%varavg| %total
---------------------------------------------------------------
Pair    | 1.2563     | 1.3046     | 1.3402     |   2.4 | 73.79
Neigh   | 0          | 0          | 0          |   0.0 |  0.00
Comm    | 0.014841   | 0.050534   | 0.099003   |  12.1 |  2.86
Output  | 0.00026866 | 0.00033865 | 0.00050406 |   0.0 |  0.02
Modify  | 0.40772    | 0.40787    | 0.40801    |   0.0 | 23.07
Other   |            | 0.004587   |            |       |  0.26

Nlocal:    5.375 ave 7 max 5 min
Histogram: 6 0 0 0 0 1 0 0 0 1
Nghost:    586.625 ave 602 max 574 min
Histogram: 1 1 1 0 2 1 0 1 0 1
Neighs:    829.75 ave 1064 max 766 min
Histogram: 5 1 0 0 1 0 0 0 0 1

Total # of neighbors = 6638
Ave neighs/atom = 154.372
Neighbor list builds = 0
Dangerous builds = 0
WARNING: Using 'neigh_modify every 1 delay 0 check yes' setting during minimization (../min.cpp:190)
WARNING: Total cutoff < 2*bond cutoff. May need to use an increased neighbor list skin. (../pair_reaxc.cpp:413)
Setting up cg style minimization ...
  Unit style    : real
  Current step  : 150
Per MPI rank memory allocation (min/avg/max) = 18.37 | 18.6 | 18.86 Mbytes
Step Temp E_pair E_mol TotEng Press 
     150            0   -7553.7381            0   -7553.7381   -4370.3246 
     271            0   -7554.4961            0   -7554.4961   -8684.4641 
Loop time of 2.61469 on 8 procs for 121 steps with 43 atoms

99.4% CPU use with 8 MPI tasks x no OpenMP threads

Minimization stats:
  Stopping criterion = energy tolerance
  Energy initial, next-to-last, final = 
        -7553.73808454     -7554.49606781     -7554.49607816
  Force two-norm initial, final = 36.948 15.5119
  Force max component initial, final = 9.24602 5.06028
  Final line search alpha, max atom move = 2.10073e-05 0.000106303
  Iterations, force evaluations = 121 1112

MPI task timing breakdown:
Section |  min time  |  avg time  |  max time  |%varavg| %total
---------------------------------------------------------------
Pair    | 1.8903     | 1.974      | 2.0452     |   4.2 | 75.50
Neigh   | 0          | 0          | 0          |   0.0 |  0.00
Comm    | 0.025036   | 0.095934   | 0.17961    |  18.9 |  3.67
Output  | 0.00022488 | 0.00027477 | 0.00040299 |   0.0 |  0.01
Modify  | 0.53844    | 0.53861    | 0.53875    |   0.0 | 20.60
Other   |            | 0.005856   |            |       |  0.22

Nlocal:    5.375 ave 8 max 4 min
Histogram: 1 0 5 0 0 1 0 0 0 1
Nghost:    591.125 ave 614 max 574 min
Histogram: 3 0 0 1 1 0 0 1 1 1
Neighs:    836.375 ave 1220 max 627 min
Histogram: 1 0 4 1 1 0 0 0 0 1

Total # of neighbors = 6691
Ave neighs/atom = 155.605
Neighbor list builds = 0
Dangerous builds = 0
WARNING: Using 'neigh_modify every 1 delay 0 check yes' setting during minimization (../min.cpp:190)
WARNING: Total cutoff < 2*bond cutoff. May need to use an increased neighbor list skin. (../pair_reaxc.cpp:413)
Setting up cg style minimization ...
  Unit style    : real
  Current step  : 271
WARNING: Energy due to 3 extra global DOFs will be included in minimizer energies
Per MPI rank memory allocation (min/avg/max) = 18.37 | 18.6 | 18.86 Mbytes
Step Temp E_pair E_mol TotEng Press Volume 
     271            0   -7554.4961            0   -7554.4961   -8684.4641    969.71106 
     339            0   -7554.7333            0   -7554.7333    9.3198033    967.55971 
Loop time of 0.193864 on 8 procs for 68 steps with 43 atoms

99.4% CPU use with 8 MPI tasks x no OpenMP threads

Minimization stats:
  Stopping criterion = energy tolerance
  Energy initial, next-to-last, final = 
        -7554.49607816     -7554.73320621     -7554.73327432
  Force two-norm initial, final = 213.981 12.5505
  Force max component initial, final = 134.34 4.12003
  Final line search alpha, max atom move = 3.99318e-05 0.00016452
  Iterations, force evaluations = 68 88

MPI task timing breakdown:
Section |  min time  |  avg time  |  max time  |%varavg| %total
---------------------------------------------------------------
Pair    | 0.14922    | 0.15614    | 0.16181    |   1.2 | 80.54
Neigh   | 0          | 0          | 0          |   0.0 |  0.00
Comm    | 0.0015783  | 0.0072305  | 0.014138   |   5.5 |  3.73
Output  | 9.1562e-05 | 0.00011255 | 0.00016189 |   0.0 |  0.06
Modify  | 0.02874    | 0.028751   | 0.028761   |   0.0 | 14.83
Other   |            | 0.001629   |            |       |  0.84

Nlocal:    5.375 ave 8 max 4 min
Histogram: 1 0 5 0 0 1 0 0 0 1
Nghost:    591.125 ave 614 max 574 min
Histogram: 3 0 0 1 1 0 0 1 1 1
Neighs:    838.375 ave 1224 max 631 min
Histogram: 1 0 4 1 1 0 0 0 0 1

Total # of neighbors = 6707
Ave neighs/atom = 155.977
Neighbor list builds = 0
Dangerous builds = 0
WARNING: Using 'neigh_modify every 1 delay 0 check yes' setting during minimization (../min.cpp:190)
WARNING: Total cutoff < 2*bond cutoff. May need to use an increased neighbor list skin. (../pair_reaxc.cpp:413)
Setting up cg style minimization ...
  Unit style    : real
  Current step  : 339
Per MPI rank memory allocation (min/avg/max) = 18.37 | 18.6 | 18.86 Mbytes
Step Temp E_pair E_mol TotEng Press 
     339            0   -7554.7333            0   -7554.7333    9.3198032 
     423            0    -7555.137            0    -7555.137    -4555.264 
Loop time of 1.9741 on 8 procs for 84 steps with 43 atoms

99.4% CPU use with 8 MPI tasks x no OpenMP threads

Minimization stats:
  Stopping criterion = energy tolerance
  Energy initial, next-to-last, final = 
        -7554.73327432     -7555.13701745     -7555.13703996
  Force two-norm initial, final = 12.5477 30.0597
  Force max component initial, final = 4.12003 10.1838
  Final line search alpha, max atom move = 0.00315719 0.0321521
  Iterations, force evaluations = 84 821

MPI task timing breakdown:
Section |  min time  |  avg time  |  max time  |%varavg| %total
---------------------------------------------------------------
Pair    | 1.4125     | 1.4833     | 1.5476     |   3.9 | 75.14
Neigh   | 0          | 0          | 0          |   0.0 |  0.00
Comm    | 0.017167   | 0.08126    | 0.15198    |  16.8 |  4.12
Output  | 0.00016695 | 0.00020492 | 0.00030103 |   0.0 |  0.01
Modify  | 0.40487    | 0.40499    | 0.40507    |   0.0 | 20.52
Other   |            | 0.004303   |            |       |  0.22

Nlocal:    5.375 ave 8 max 4 min
Histogram: 1 0 5 0 0 1 0 0 0 1
Nghost:    594.25 ave 623 max 574 min
Histogram: 2 1 0 2 0 0 1 1 0 1
Neighs:    841.875 ave 1226 max 629 min
Histogram: 1 0 4 1 1 0 0 0 0 1

Total # of neighbors = 6735
Ave neighs/atom = 156.628
Neighbor list builds = 0
Dangerous builds = 0
WARNING: Using 'neigh_modify every 1 delay 0 check yes' setting during minimization (../min.cpp:190)
WARNING: Total cutoff < 2*bond cutoff. May need to use an increased neighbor list skin. (../pair_reaxc.cpp:413)
Setting up cg style minimization ...
  Unit style    : real
  Current step  : 423
WARNING: Energy due to 3 extra global DOFs will be included in minimizer energies
Per MPI rank memory allocation (min/avg/max) = 18.37 | 18.6 | 18.86 Mbytes
Step Temp E_pair E_mol TotEng Press Volume 
     423            0    -7555.137            0    -7555.137    -4555.264    967.55971 
     449            0   -7555.2411            0   -7555.2411   -323.55658    966.58259 
Loop time of 0.124923 on 8 procs for 26 steps with 43 atoms

99.4% CPU use with 8 MPI tasks x no OpenMP threads

Minimization stats:
  Stopping criterion = energy tolerance
  Energy initial, next-to-last, final = 
        -7555.13703996     -7555.24104608     -7555.24105316
  Force two-norm initial, final = 115.33 11.4491
  Force max component initial, final = 65.2984 4.63054
  Final line search alpha, max atom move = 5.91772e-05 0.000274023
  Iterations, force evaluations = 26 54

MPI task timing breakdown:
Section |  min time  |  avg time  |  max time  |%varavg| %total
---------------------------------------------------------------
Pair    | 0.095159   | 0.099875   | 0.10414    |   1.0 | 79.95
Neigh   | 0          | 0          | 0          |   0.0 |  0.00
Comm    | 0.0010167  | 0.0052808  | 0.0099938  |   4.4 |  4.23
Output  | 3.2721e-05 | 4.0306e-05 | 5.9431e-05 |   0.0 |  0.03
Modify  | 0.018796   | 0.018805   | 0.018816   |   0.0 | 15.05
Other   |            | 0.0009214  |            |       |  0.74

Nlocal:    5.375 ave 8 max 4 min
Histogram: 1 0 5 0 0 1 0 0 0 1
Nghost:    594.25 ave 623 max 574 min
Histogram: 2 1 0 2 0 0 1 1 0 1
Neighs:    841.375 ave 1228 max 630 min
Histogram: 1 0 4 1 1 0 0 0 0 1

Total # of neighbors = 6731
Ave neighs/atom = 156.535
Neighbor list builds = 0
Dangerous builds = 0
WARNING: Using 'neigh_modify every 1 delay 0 check yes' setting during minimization (../min.cpp:190)
WARNING: Total cutoff < 2*bond cutoff. May need to use an increased neighbor list skin. (../pair_reaxc.cpp:413)
Setting up cg style minimization ...
  Unit style    : real
  Current step  : 449
Per MPI rank memory allocation (min/avg/max) = 18.37 | 18.6 | 18.86 Mbytes
Step Temp E_pair E_mol TotEng Press 
     449            0   -7555.2411            0   -7555.2411   -323.55658 
     457            0   -7555.2622            0   -7555.2622   -662.68981 
Loop time of 0.212826 on 8 procs for 8 steps with 43 atoms

99.4% CPU use with 8 MPI tasks x no OpenMP threads

Minimization stats:
  Stopping criterion = energy tolerance
  Energy initial, next-to-last, final = 
        -7555.24105316     -7555.26212591     -7555.26218747
  Force two-norm initial, final = 8.28395 9.21746
  Force max component initial, final = 2.78381 3.42693
  Final line search alpha, max atom move = 4.50595e-05 0.000154416
  Iterations, force evaluations = 8 87

MPI task timing breakdown:
Section |  min time  |  avg time  |  max time  |%varavg| %total
---------------------------------------------------------------
Pair    | 0.15155    | 0.15905    | 0.16565    |   1.3 | 74.73
Neigh   | 0          | 0          | 0          |   0.0 |  0.00
Comm    | 0.002025   | 0.0086028  | 0.016084   |   5.4 |  4.04
Output  | 1.6831e-05 | 2.0511e-05 | 2.8433e-05 |   0.0 |  0.01
Modify  | 0.044662   | 0.044684   | 0.0447     |   0.0 | 21.00
Other   |            | 0.0004734  |            |       |  0.22

Nlocal:    5.375 ave 8 max 4 min
Histogram: 1 0 5 0 0 1 0 0 0 1
Nghost:    594.25 ave 623 max 574 min
Histogram: 2 1 0 2 0 0 1 1 0 1
Neighs:    842.875 ave 1231 max 631 min
Histogram: 1 0 4 1 1 0 0 0 0 1

Total # of neighbors = 6743
Ave neighs/atom = 156.814
Neighbor list builds = 0
Dangerous builds = 0
WARNING: Total cutoff < 2*bond cutoff. May need to use an increased neighbor list skin. (../pair_reaxc.cpp:413)
Setting up Verlet run ...
  Unit style    : real
  Current step  : 0
  Time step     : 0.25
Per MPI rank memory allocation (min/avg/max) = 17.25 | 17.47 | 17.73 Mbytes
Step Temp TotEng KinEng PotEng Press 
       0          300    -7517.704    37.558207   -7555.2622    1113.5383 
     200    257.27947   -7501.7965    32.209851   -7534.0064    11672.326 
     400    322.82533   -7478.0773    40.415801   -7518.4931   -17612.213 
     600    343.22766   -7474.8227    42.970052   -7517.7927    13116.787 
     800    243.81589   -7489.6258    30.524292   -7520.1501   -5864.7153 
    1000    306.06522   -7476.1506    38.317536   -7514.4682   -4754.7046 
    1200    260.13788   -7480.6662    32.567708    -7513.234   -27886.891 
    1400    285.48412   -7488.4061    35.740905    -7524.147    33656.484 
    1600    352.07194   -7473.4725    44.077302   -7517.5498   -4999.6454 
    1800     321.5648    -7480.751    40.257991   -7521.0089    12219.518 
    2000    299.67596   -7491.7472    37.517638   -7529.2648   -13932.751 
    2200    335.22938   -7473.2312    41.968714   -7515.1999   -2453.1404 
    2400    407.22613   -7451.9203    50.982277   -7502.9025    25187.419 
    2600     337.0934   -7475.9612    42.202079   -7518.1632    -7827.804 
    2800    259.15171   -7491.8753    32.444245   -7524.3195   -4711.0233 
    3000    280.37461   -7483.3425    35.101225   -7518.4437   -4811.3278 
    3200    361.39978   -7476.6301    45.245092   -7521.8752    1466.8624 
    3400     276.1154   -7488.0219    34.567997   -7522.5899     13970.49 
    3600     300.2501   -7479.7464    37.589518   -7517.3359    30114.143 
    3800    311.74064   -7472.8886    39.028064   -7511.9167   -15905.799 
    4000    335.92738   -7483.4563      42.0561   -7525.5124    34406.643 
    4200    347.87134   -7472.3082    43.551413   -7515.8596    9592.4359 
    4400    282.41547   -7482.1213    35.356729   -7517.4781    2169.1861 
    4600    241.44785   -7484.5955    30.227827   -7514.8233    34127.712 
    4800    334.32384   -7476.3176    41.855346    -7518.173   -1017.1775 
    5000    244.13561    -7476.282    30.564319   -7506.8463    28190.974 
    5200    225.46752   -7481.5875    28.227186   -7509.8147    13164.351 
    5400    280.25332   -7489.4724    35.086041   -7524.5584   -11014.502 
    5600    214.90064   -7496.3108    26.904275   -7523.2151    15714.116 
    5800    279.06478   -7477.0633    34.937243   -7512.0006   -11965.579 
    6000     301.6533   -7484.5779     37.76519   -7522.3431    19345.609 
    6200    295.58384   -7487.0979     37.00533   -7524.1033   -13617.746 
    6400     382.4446   -7469.4484    47.879778   -7517.3281    17248.239 
    6600    294.09066   -7484.5781    36.818392   -7521.3965    2469.1884 
    6800    295.44929   -7487.8739    36.988485   -7524.8624   -2772.9284 
    7000    367.01372   -7468.1871    45.947923    -7514.135   -2266.5421 
    7200    301.03069   -7482.9627    37.687243   -7520.6499    -8456.778 
    7400    275.34763   -7486.2373    34.471878   -7520.7091    33954.228 
    7600    235.28715   -7490.9138    29.456545   -7520.3704   -7799.3863 
    7800    254.61027   -7478.5497    31.875683   -7510.4254   -19515.245 
    8000    326.62443   -7478.2805    40.891425   -7519.1719    22339.123 
    8200    281.90487   -7488.1578    35.292805   -7523.4506   -10962.836 
    8400    282.46771   -7482.0567    35.363268     -7517.42   -5186.7875 
    8600    269.28028   -7471.6827    33.712281    -7505.395     30494.64 
    8800    308.57206   -7484.9526    38.631377    -7523.584   -24479.955 
    9000    361.48578   -7481.9035    45.255859   -7527.1593    29591.849 
    9200    329.11713   -7473.0917    41.203497   -7514.2952    1543.9368 
    9400    282.68632   -7489.9988    35.390637   -7525.3894    3458.7843 
    9600    308.98132    -7486.212    38.682614   -7524.8946   -33080.674 
    9800    326.04216   -7470.3845    40.818529   -7511.2031    1208.7848 
   10000    298.09512   -7482.2064    37.319726   -7519.5261   -2322.0261 
   10200    258.49715   -7487.5628    32.362297   -7519.9251   -7107.4913 
   10400    250.60582   -7496.2328    31.374351   -7527.6071   -5630.4661 
   10600    337.80537   -7480.9651    42.291213   -7523.2563    25327.742 
   10800    360.95951   -7480.2204    45.189972   -7525.4104    1787.8074 
   11000    283.36173    -7492.705    35.475194   -7528.1802   -188.74043 
   11200    342.03154   -7478.0062    42.820304   -7520.8265    30.058444 
   11400    313.12156   -7485.4448    39.200948   -7524.6458   -20835.801 
   11600    262.41394   -7488.5886    32.852657   -7521.4412   -23939.397 
   11800    371.94687   -7472.0455    46.565525   -7518.6111    16637.158 
   12000    303.43382   -7485.2302    37.988101   -7523.2183    26316.178 
   12200     334.8148   -7474.8486    41.916812   -7516.7654    39382.807 
   12400    317.54514   -7477.5185    39.754753   -7517.2732    11105.683 
   12600    285.12446   -7484.2536    35.695878   -7519.9495   -1673.2432 
   12800     302.0939   -7484.9883     37.82035   -7522.8086   -12055.123 
   13000    321.97191   -7477.5092    40.308959   -7517.8181   -23202.839 
   13200    371.05148    -7470.191    46.453427   -7516.6444    7642.5517 
   13400    314.23101    -7482.649    39.339844   -7521.9888   -15739.537 
   13600    304.69108   -7489.0602    38.145501   -7527.2057    17002.867 
   13800    379.68228   -7472.7215    47.533951   -7520.2554   -1250.9431 
   14000    343.83113   -7476.9831    43.045602   -7520.0287   -11658.294 
   14200    333.66512    -7481.501    41.772878   -7523.2738    9704.1325 
   14400    266.88866    -7489.057    33.412865   -7522.4699    2438.1235 
   14600    262.15078   -7486.4093    32.819711    -7519.229    36460.219 
   14800     340.2296   -7476.7707    42.594712   -7519.3654   -6450.6622 
   15000    271.88817   -7490.8603    34.038773   -7524.8991   -105.57659 
   15200    295.73492   -7484.4026    37.024244   -7521.4268   -6017.9902 
   15400    281.97954   -7478.7038    35.302153    -7514.006   -33513.047 
   15600    275.05678   -7479.6922    34.435465   -7514.1276   -31016.782 
   15800     269.9129   -7483.6578    33.791482   -7517.4493   -9624.9798 
   16000    317.06895    -7483.959    39.695137   -7523.6542   -7773.2423 
   16200     327.8517   -7470.9869    41.045073    -7512.032    286.54677 
   16400    327.81896   -7483.7626    41.040975   -7524.8036    19738.589 
   16600    294.75669   -7484.2548    36.901776   -7521.1565    20136.616 
   16800    375.66898   -7476.6072    47.031511   -7523.6387    9342.2737 
   17000    305.90692   -7481.8205    38.297717   -7520.1182   -11469.055 
   17200     290.2433   -7485.2473    36.336726    -7521.584     3967.058 
   17400    302.38921   -7478.5891    37.857322   -7516.4465   -7871.2821 
   17600    245.89702   -7485.8752    30.784837   -7516.6601   -19348.148 
   17800    276.55748   -7484.2699    34.623344   -7518.8933   -7673.1392 
   18000    315.94407   -7477.0867    39.554309    -7516.641    5675.4997 
   18200    277.24242   -7486.9306    34.709094   -7521.6397    13849.829 
   18400    290.21072   -7479.2984    36.332647   -7515.6311    4108.9734 
   18600     285.0553   -7480.0309     35.68722   -7515.7181   -8167.7935 
   18800    228.14082   -7489.1545    28.561867   -7517.7163   -871.78096 
   19000    291.28074   -7490.7922    36.466608   -7527.2588   -11031.084 
   19200     300.8541   -7477.6059    37.665135    -7515.271    18109.358 
   19400    274.52639   -7490.8141    34.369063   -7525.1832   -7587.9632 
   19600    309.14991   -7482.3142    38.703721   -7521.0179   -24997.536 
   19800     280.5449   -7478.3988    35.122544   -7513.5213    22222.839 
   20000    251.14116   -7489.9705    31.441372   -7521.4119   -11667.807 
   20200    284.46431   -7479.8843    35.613231   -7515.4975   -2226.8287 
   20400    354.56694   -7476.4117    44.389661   -7520.8014    -26635.89 
   20600     335.2573   -7484.0412     41.97221   -7526.0134       5748.7 
   20800    308.55222   -7481.1048    38.628894   -7519.7337   -11969.725 
   21000    353.72396   -7470.9455    44.284125   -7515.2296   -18370.627 
   21200    347.22608   -7486.2722     43.47063   -7529.7429   -10408.738 
   21400    347.07978   -7484.5897    43.452313    -7528.042   -7768.9605 
   21600    316.91509   -7481.2229    39.675874   -7520.8988    9549.9224 
   21800    382.68127   -7478.0985    47.909408   -7526.0079   -16202.878 
   22000    329.09992   -7480.1151    41.201342   -7521.3164   -15412.967 
   22200    315.85684   -7486.4739    39.543388   -7526.0173    611.43577 
   22400    374.78604   -7469.6384    46.920971   -7516.5594    19473.397 
   22600    304.14815   -7482.3768     38.07753   -7520.4543   -7030.6568 
   22800    288.11885   -7484.6603    36.070757    -7520.731    33176.302 
   23000    336.60708   -7473.7756    42.141194   -7515.9168   -13693.096 
   23200    321.58726   -7466.2327    40.260803   -7506.4935   -3891.7382 
   23400    287.09838   -7483.8291    35.943001   -7519.7721   -14945.732 
   23600    315.49217   -7480.8051    39.497734   -7520.3028    -463.4927 
   23800    388.55317   -7469.4658    48.644535   -7518.1103    3699.7796 
   24000    282.77847   -7485.9869    35.402174    -7521.389   -10295.756 
   24200    276.61791   -7479.7858    34.630909   -7514.4167     11467.94 
   24400    379.70553   -7465.5147    47.536863   -7513.0515   -30832.859 
   24600    271.01535   -7481.9482    33.929501   -7515.8777    30954.949 
   24800    343.63796   -7483.2694    43.021418   -7526.2908     -8519.94 
   25000    281.76674    -7477.028    35.275511   -7512.3035   -12038.461 
   25200     297.9165    -7489.455    37.297365   -7526.7524   -12418.592 
   25400    356.12671    -7478.461    44.584935   -7523.0459    16590.805 
   25600    338.01475   -7477.1926    42.317426     -7519.51   -5959.7831 
   25800    312.80196   -7486.5444    39.160935   -7525.7053   -16431.732 
   26000    312.23852   -7478.4916    39.090397    -7517.582    15548.897 
   26200    311.77773    -7478.312    39.032709   -7517.3447   -13918.669 
   26400    312.39744   -7488.1642    39.110292   -7527.2745    7944.1953 
   26600    347.97881   -7473.6715    43.564867   -7517.2364   -11391.948 
   26800    309.11057   -7483.7568    38.698796   -7522.4556    26917.439 
   27000    320.91501   -7484.3623    40.176641    -7524.539   -15862.399 
   27200    363.16398   -7469.7557     45.46596   -7515.2217     3438.319 
   27400    356.11006   -7482.7254    44.582851   -7527.3083    2468.0975 
   27600    284.11672   -7486.5916    35.569715   -7522.1613    11408.325 
   27800    403.50688   -7468.0911    50.516649   -7518.6077    149.02252 
   28000    311.20527   -7483.2478    38.961039   -7522.2088   -1621.8465 
   28200    278.53706   -7486.9983    34.871175   -7521.8695   -13241.042 
   28400    330.96781   -7469.9118    41.435192    -7511.347    17823.542 
   28600    279.72833   -7483.7802    35.020314   -7518.8005    -9884.422 
   28800    271.25122    -7481.748    33.959032    -7515.707    4061.5836 
   29000    251.88919   -7487.8195    31.535021   -7519.3546   -6053.0592 
   29200    237.38157   -7489.8902    29.718754    -7519.609    27495.695 
   29400     345.7677   -7478.8654    43.288049   -7522.1535   -4379.4085 
   29600     279.5464   -7491.9559    34.997538   -7526.9534    12155.217 
   29800    243.93142   -7491.2693    30.538756    -7521.808   -8767.2987 
   30000    261.23134   -7483.0789    32.704602   -7515.7835   -4362.8675 
   30200    339.15424   -7475.9953    42.460084   -7518.4553    611.04894 
   30400    200.07204    -7487.137    25.047823   -7512.1849     11815.76 
   30600    245.44483   -7490.2423    30.728225   -7520.9705    9760.2067 
   30800    305.64087   -7475.3816     38.26441    -7513.646   -20376.671 
   31000    280.65834   -7484.8048    35.136747   -7519.9415   -27433.122 
   31200    291.43245   -7484.9479    36.485601   -7521.4335   -18889.721 
   31400    377.97544   -7475.1735    47.320265   -7522.4938    10820.322 
   31600    305.06101   -7487.7959    38.191815   -7525.9877   -1850.9333 
   31800    348.79875   -7480.7695    43.667518    -7524.437    9494.3968 
   32000    331.17314   -7475.2999    41.460898   -7516.7608   -9416.4695 
   32200    269.57849   -7485.7011    33.749615   -7519.4507   -12769.535 
   32400    326.97885   -7480.7349    40.935797   -7521.6707   -4930.7993 
   32600    302.87653   -7483.0222    37.918331   -7520.9405   -1380.2336 
   32800    252.82866   -7491.2542    31.652637   -7522.9068   -10936.358 
   33000    335.60304   -7477.5926    42.015494   -7519.6081   -2516.9706 
   33200    324.70932   -7477.0316    40.651666   -7517.6833   -10086.573 
   33400    295.18513   -7489.2438    36.955414   -7526.1993    8135.1978 
   33600    315.77805   -7483.6816    39.533525   -7523.2151    11941.866 
   33800    283.38292   -7483.0144    35.477848   -7518.4923   -33375.342 
   34000    294.42498   -7473.2184    36.860248   -7510.0787   -12106.298 
   34200    296.60239   -7480.9808    37.132846   -7518.1137    3877.7784 
   34400    240.06241   -7488.9083    30.054379   -7518.9627    4196.2557 
   34600      243.379   -7481.8832    30.469595   -7512.3528   -7362.8905 
   34800     296.6411   -7484.4559    37.137692   -7521.5936      4642.76 
   35000    224.19513   -7496.4982     28.06789   -7524.5661   -175.64693 
   35200    294.27124   -7483.7222       36.841   -7520.5632    22245.204 
   35400    325.52144   -7479.2925    40.753339   -7520.0458    14836.816 
   35600    240.62486   -7491.3084    30.124794   -7521.4332    7824.2468 
   35800    323.68717   -7486.7822    40.523699   -7527.3059    7948.6543 
   36000    264.23668   -7479.7785    33.080853   -7512.8593   -19436.946 
   36200    331.03011   -7479.9072    41.442991   -7521.3502    22549.145 
   36400    366.82698   -7473.2464    45.924545    -7519.171   -7064.2948 
   36600    286.12154   -7487.2799    35.820707   -7523.1006    5972.8625 
   36800    292.83548   -7481.5681    36.661251   -7518.2294    4543.8229 
   37000    262.38421   -7473.1476    32.848935   -7505.9965   -35641.502 
   37200     251.6732   -7488.3009     31.50798   -7519.8088   -27063.915 
   37400    298.93543   -7479.3918    37.424928   -7516.8168    8645.5669 
   37600    359.56203   -7471.8266    45.015017   -7516.8416    14867.933 
   37800    263.83686   -7482.4093    33.030797   -7515.4401     5295.808 
   38000    323.27213   -7482.8244    40.471738   -7523.2962   -7744.6641 
   38200    351.91778   -7471.2479    44.058002   -7515.3059    17991.255 
   38400    288.39035   -7489.1665    36.104748   -7525.2713    11261.981 
   38600     324.1912   -7479.7756      40.5868   -7520.3624    15788.253 
   38800    298.39134   -7486.2949    37.356812   -7523.6518   -10710.049 
   39000    271.52196   -7489.0251    33.992926    -7523.018   -3700.2602 
   39200    282.61103   -7476.4522    35.381212   -7511.8334   -20798.308 
   39400    335.29695   -7480.1733    41.977174   -7522.1504   -10052.258 
   39600    302.64526     -7485.61    37.889377   -7523.4994    4734.6243 
   39800    314.19691   -7483.0397    39.335575   -7522.3753   -27672.661 
   40000    340.10059   -7469.8498     42.57856   -7512.4284    3457.6588 
   40200    270.66626   -7486.7478    33.885798   -7520.6336   -24042.094 
   40400    263.24692   -7485.9635     32.95694   -7518.9204    9655.7019 
   40600    328.04491   -7474.3298    41.069261   -7515.3991   -18645.576 
   40800    305.44927   -7480.3868    38.240422   -7518.6272    2618.6944 
   41000    254.48937   -7492.5007    31.860547   -7524.3613     11099.67 
   41200    216.70385   -7496.5808    27.130026   -7523.7108    -8026.267 
   41400    287.34939    -7477.893    35.974426   -7513.8674    18782.268 
   41600     337.9778   -7480.0005      42.3128   -7522.3133    18534.353 
   41800    238.14387   -7492.5662    29.814189   -7522.3804   -9564.9492 
   42000    301.34671   -7475.6498    37.726807   -7513.3766     46705.66 
   42200    276.94365   -7482.6427     34.67169   -7517.3143    13381.455 
   42400    304.28877    -7487.083    38.095134   -7525.1781    9095.5634 
   42600    363.73926   -7467.6052    45.537981   -7513.1432    40791.251 
   42800    325.00292   -7482.6112    40.688422   -7523.2996    10317.393 
   43000    318.64038   -7483.2504    39.891871   -7523.1423   -10003.031 
   43200    361.21749   -7472.0272     45.22227   -7517.2494     16256.37 
   43400    330.15423   -7473.5928    41.333336   -7514.9261    6665.4271 
   43600    299.40004   -7483.2657    37.483096   -7520.7487   -25263.348 
   43800     261.1678   -7479.7806    32.696647   -7512.4773   -16367.223 
   44000    297.23318   -7475.4169    37.211817   -7512.6287     1027.721 
   44200    233.13264   -7488.1395    29.186813   -7517.3263    19193.459 
   44400    388.67467   -7469.6846    48.659745   -7518.3443    39622.191 
   44600    288.94749   -7483.5211    36.174498   -7519.6956    30570.799 
   44800    302.38908   -7481.2363    37.857305   -7519.0936   -17992.682 
   45000    339.61102   -7472.6543     42.51727   -7515.1716    1998.8827 
   45200    294.52431   -7478.6225    36.872683   -7515.4952    7178.1196 
   45400     263.5147   -7491.8396    32.990465   -7524.8301   -1286.6408 
   45600    271.00431   -7487.3296     33.92812   -7521.2578     2997.789 
   45800    308.93843   -7480.7877    38.677245   -7519.4649   -20728.629 
   46000    314.54085   -7490.1304    39.378635    -7529.509    3756.8838 
   46200    284.24766   -7491.6442    35.586108   -7527.2303    32758.651 
   46400    356.86228   -7478.7831    44.677024   -7523.4601   -28093.291 
   46600    261.51572   -7482.4325    32.740205   -7515.1727    30559.621 
   46800    382.16242   -7478.1673    47.844451   -7526.0117   -6441.5167 
   47000    283.55605   -7481.8481    35.499522   -7517.3477    42182.949 
   47200    301.32501   -7490.3838     37.72409   -7528.1079   -17356.721 
   47400    312.02842   -7477.3364    39.064093   -7516.4005   -1684.3622 
   47600     306.2887    -7484.139    38.345514   -7522.4845    5962.3523 
   47800    254.65771   -7489.7433    31.881623   -7521.6249   -1478.6355 
   48000    297.62481   -7477.0316    37.260847   -7514.2924    5092.9165 
   48200    363.29941   -7480.8861    45.482915    -7526.369   -25085.152 
   48400    179.76085   -7500.6827    22.504984   -7523.1876    20294.219 
   48600    274.81654    -7490.916    34.405388   -7525.3214   -12062.299 
   48800    294.30922   -7476.8881    36.845756   -7513.7339    9354.1716 
   49000    295.75138   -7484.0208    37.026305   -7521.0471   -1149.7998 
   49200    276.07125   -7495.0559     34.56247   -7529.6184    16203.125 
   49400    278.77059   -7484.5321    34.900411   -7519.4325    4873.1114 
   49600    334.01055   -7473.7546    41.816125   -7515.5707   -31141.197 
   49800    259.63912   -7486.1909    32.505265   -7518.6962    32241.295 
   50000    358.20362   -7483.8927    44.844952   -7528.7376   -6581.4378 
   50200    305.57538   -7480.8295    38.256211   -7519.0857     6799.099 
   50400    231.28178   -7496.0849    28.955097     -7525.04   -4282.4907 
   50600    306.70997   -7483.1101    38.398255   -7521.5084    8855.0895 
   50800    266.57668   -7487.0474    33.373806   -7520.4212   -1030.5386 
   51000    242.46975   -7497.0474    30.355764   -7527.4031   -5643.7915 
   51200    334.00378   -7478.7989    41.815277   -7520.6142     2536.903 
   51400     299.4551    -7483.925    37.489988    -7521.415    -18305.25 
   51600    290.56365   -7487.0763    36.376832   -7523.4531   -24533.945 
   51800    376.40282   -7472.8087    47.123383   -7519.9321    17726.309 
   52000    322.27321    -7485.384    40.346679   -7525.7306   -20629.695 
   52200    280.50812   -7487.8545     35.11794   -7522.9724     15300.19 
   52400    305.89043   -7478.0763    38.295654   -7516.3719   -7737.9612 
   52600    352.89004   -7478.4518    44.179723   -7522.6315    13420.244 
   52800    272.57485   -7490.5892    34.124742   -7524.7139    20845.285 
   53000    329.72333   -7475.7871    41.279389   -7517.0665   -13809.645 
   53200    292.35859   -7480.3467    36.601548   -7516.9483    14270.938 
   53400    273.26515   -7494.3661    34.211164   -7528.5773   -13421.184 
   53600    230.21688   -7503.1801    28.821778   -7532.0018    13245.536 
   53800    288.90214   -7486.9013    36.168821   -7523.0702    9297.8046 
   54000    388.10369   -7472.5293    48.588261   -7521.1176   -2029.1695 
   54200    312.92077    -7480.335     39.17581   -7519.5108    2351.7479 
   54400    274.92132   -7487.8815    34.418506      -7522.3   -6662.7604 
   54600    253.93446   -7478.4315    31.791077   -7510.2226    27517.656 
   54800    306.48898   -7481.4399    38.370588   -7519.8105   -20186.801 
   55000    282.20606   -7489.3314    35.330512   -7524.6619    1877.3773 
   55200    367.98773   -7478.0004    46.069864   -7524.0703    -9764.399 
   55400    329.29773   -7478.5684    41.226107   -7519.7945   -5217.2992 
   55600    294.78905   -7491.0192    36.905827   -7527.9251    31282.754 
   55800    383.52759   -7475.2381    48.015362   -7523.2534   -23636.504 
   56000    336.12015   -7482.1761    42.080234   -7524.2563   -25221.578 
   56200     296.1899   -7485.2279    37.081205   -7522.3091    5728.9286 
   56400    327.97464   -7471.0411    41.060464   -7512.1015    1134.7344 
   56600    311.68047   -7483.7906    39.020532   -7522.8111    7085.5085 
   56800    297.56303   -7480.2123    37.253113   -7517.4654   -8436.6989 
   57000    297.55208   -7480.6576    37.251742   -7517.9093    39442.012 
   57200    238.86125   -7490.6448    29.904001   -7520.5488   -2221.7862 
   57400    304.15168   -7480.0733    38.077972   -7518.1512   -3046.9347 
   57600    321.80688   -7482.0916    40.288298   -7522.3799    2227.0485 
   57800    274.04745   -7482.9776    34.309103   -7517.2867   -11994.748 
   58000    408.46978   -7463.3516    51.137975   -7514.4896   -4947.7672 
   58200    319.51859   -7482.2263    40.001818   -7522.2281   -4205.5207 
   58400    298.10001   -7485.5956    37.320339    -7522.916    12662.549 
   58600    371.73022   -7473.9324    46.538401   -7520.4708   -1243.1759 
   58800    278.47976   -7486.3367    34.864001   -7521.2007   -8628.7748 
   59000    280.61482    -7488.735    35.131298   -7523.8663     19835.04 
   59200    321.28821   -7482.2502    40.223364   -7522.4735   -13378.839 
   59400    301.55301   -7475.9674    37.752634     -7513.72    12770.923 
   59600    435.43114   -7463.5836    54.513375    -7518.097    18258.365 
   59800    312.33228   -7480.9387    39.102134   -7520.0408   -6464.9523 
   60000    263.95607    -7488.896    33.045722   -7521.9417   -6447.0457 
   60200    318.02807   -7474.3352    39.815214   -7514.1504    5434.3126 
   60400    333.30848   -7482.0524    41.728229   -7523.7806    -24412.33 
   60600    242.73839    -7481.294    30.389395   -7511.6834    9229.7801 
   60800    316.30925   -7478.2794    39.600027   -7517.8795   -13041.113 
   61000    253.38262   -7493.6525    31.721989   -7525.3745    10189.153 
   61200    335.61721   -7479.3559    42.017269   -7521.3732    2530.7134 
   61400    307.19405   -7481.9969    38.458858   -7520.4558     4790.629 
   61600    291.75917   -7484.0279    36.526504   -7520.5544    30160.464 
   61800    291.33354   -7480.2769    36.473218   -7516.7502   -10287.382 
   62000    275.47902    -7481.168    34.488326   -7515.6564   -12112.995 
   62200    247.93221   -7486.6531     31.03963   -7517.6927   -3867.7671 
   62400    330.07246   -7475.1042    41.323099   -7516.4273   -7456.0449 
   62600     272.1641   -7480.4135    34.073319   -7514.4868   -14882.202 
   62800    281.71398   -7490.7703    35.268906   -7526.0392   -946.72058 
   63000    313.74674   -7477.1851    39.279216   -7516.4644   -10187.363 
   63200    315.53504   -7483.5268    39.503101   -7523.0299    1800.4434 
   63400    259.46751   -7487.7742    32.483781    -7520.258    -26669.27 
   63600    317.08724   -7477.6608    39.697427   -7517.3582    14886.229 
   63800    253.74683   -7488.1909    31.767587   -7519.9585   -18641.388 
   64000    255.98705   -7490.2063    32.048048   -7522.2543   -13259.932 
   64200     309.2128    -7483.468    38.711595   -7522.1796   -6547.5403 
   64400    219.73981   -7483.3886     27.51011   -7510.8988    9421.1214 
   64600    294.65203   -7473.1359    36.888673   -7510.0246   -11558.961 
   64800    293.13819   -7481.6831    36.699149   -7518.3823   -11292.405 
   65000    322.48511   -7485.6601    40.373208   -7526.0333   -7091.5369 
   65200    281.09936   -7475.6217    35.191959   -7510.8137    15617.412 
   65400    288.14701   -7488.4375    36.074283   -7524.5118   -1761.7428 
   65600    293.55701   -7485.4517    36.751582   -7522.2032    3184.9958 
   65800    326.97568   -7472.9597      40.9354   -7513.8951    1907.0595 
   66000    257.26536   -7488.8843    32.208085   -7521.0924    13296.697 
   66200    313.45587   -7482.4908    39.242801   -7521.7336   -7004.5484 
   66400    267.47307   -7473.3662     33.48603   -7506.8523    -8695.487 
   66600    242.16465   -7491.2118    30.317566   -7521.5294   -6392.2081 
   66800    280.68555   -7478.8644    35.140152   -7514.0045   -19308.691 
   67000    274.38051    -7483.163      34.3508   -7517.5138    -29833.86 
   67200    266.02793   -7487.7934    33.305106   -7521.0985    6301.3103 
   67400    329.65618   -7475.1986    41.270983   -7516.4696   -4790.2113 
   67600    276.68245   -7485.4366    34.638989   -7520.0755    32081.492 
   67800    267.64859   -7483.8875    33.508004   -7517.3955   -5993.1947 
   68000    326.12429   -7475.7512    40.828812     -7516.58    32687.073 
   68200    280.06926   -7483.6545    35.062997   -7518.7175   -18384.709 
   68400    203.33639   -7489.4633      25.4565   -7514.9198    9999.7533 
   68600    349.95106   -7476.7094    43.811781   -7520.5212    1755.8546 
   68800    288.25109   -7485.9986    36.087313   -7522.0859   -12485.591 
   69000    230.04258   -7493.9338    28.799956   -7522.7338    25869.404 
   69200    359.40421   -7475.1975    44.995258   -7520.1928   -1228.0738 
   69400    253.49239   -7486.4627    31.735731   -7518.1984     17184.74 
   69600    330.79906   -7480.1013    41.414065   -7521.5154   -13436.525 
   69800    373.09922   -7454.7565    46.709792   -7501.4663   -20198.918 
   70000    275.73556   -7474.7986    34.520444   -7509.3191    8859.9833 
   70200    248.98632   -7485.4093    31.171599   -7516.5809    11311.115 
   70400    253.82995   -7490.3432    31.777993   -7522.1212   -2210.7358 
   70600    240.77777   -7492.2477    30.143938   -7522.3916    9175.8779 
   70800    320.02491   -7473.8202    40.065206   -7513.8854    52621.854 
   71000    284.33891   -7480.7125    35.597532   -7516.3101    21949.322 
   71200    264.71853   -7487.9349    33.141178    -7521.076   -31643.708 
   71400    266.30483   -7479.7966    33.339773   -7513.1364    9272.5161 
   71600    357.37283   -7476.5171    44.740942    -7521.258   -23396.728 
   71800    267.92139   -7493.9735    33.542156   -7527.5157   -5279.4071 
   72000    257.06056   -7481.1626    32.182446   -7513.3451    2270.1542 
   72200    335.01704   -7475.9768    41.942131   -7517.9189   -8654.7919 
   72400    275.37332   -7490.7229    34.475094    -7525.198    5884.5636 
   72600    303.40754   -7489.0291    37.984811   -7527.0139   -6002.7725 
   72800    288.57481   -7481.6302    36.127841   -7517.7581    34549.413 
   73000    349.52994     -7473.66    43.759059   -7517.4191    9354.6226 
   73200    297.63999    -7481.141    37.262747   -7518.4037   -11556.594 
   73400    262.30146    -7486.482    32.838575   -7519.3205    13106.442 
   73600    305.96876   -7471.6783     38.30546   -7509.9838   -382.02638 
   73800    306.74441   -7481.2052    38.402566   -7519.6078   -8936.7173 
   74000    247.59537   -7485.1093    30.997461   -7516.1068    2533.6855 
   74200    278.60051   -7483.5705    34.879118   -7518.4496    -5768.575 
   74400    291.69987   -7482.3137    36.519079   -7518.8328   -17622.982 
   74600    320.18449   -7479.5507    40.085184   -7519.6359    10727.888 
   74800    337.41208   -7467.4156    42.241976   -7509.6576    10919.467 
   75000    323.89612   -7483.9091    40.549857   -7524.4589   -17740.157 
   75200    382.76761   -7478.3431    47.920217   -7526.2633    2799.8015 
   75400    323.55978   -7483.3781    40.507751   -7523.8858   -6173.2991 
   75600    215.49162    -7492.431    26.978262   -7519.4093   -599.96147 
   75800    312.94191   -7478.8582    39.178457   -7518.0366   -118.41098 
   76000    274.76634   -7484.5067    34.399103   -7518.9058   -8374.6361 
   76200    235.88513   -7492.8361    29.531409   -7522.3675     19613.95 
   76400     282.6215   -7477.5696    35.382522   -7512.9521    25271.912 
   76600    286.13457   -7484.3267    35.822338    -7520.149   -2161.8359 
   76800    281.76702    -7485.529    35.275546   -7520.8045   -1735.7308 
   77000    433.10144   -7461.6414    54.221711   -7515.8631    -14021.75 
   77200     301.0321   -7476.5975     37.68742   -7514.2849    19533.232 
   77400    268.88296   -7485.2044     33.66254    -7518.867    4289.3813 
   77600    329.83404   -7479.0194    41.293251   -7520.3127    25618.858 
   77800    296.71944    -7475.377      37.1475   -7512.5245    7217.1734 
   78000    241.92026   -7489.0537     30.28697   -7519.3407    20301.005 
   78200    314.50977   -7480.7397    39.374743   -7520.1144   -17000.444 
   78400    282.73245   -7489.4099    35.396413   -7524.8063    22152.699 
   78600    266.87043   -7491.2383    33.410583   -7524.6488    1175.4408 
   78800    327.23645   -7482.1465    40.968047   -7523.1146    8871.0994 
   79000    302.90447   -7485.9003    37.921829   -7523.8221    8877.7882 
   79200    351.34552   -7477.3627    43.986359    -7521.349    9370.7049 
   79400    362.58965   -7477.1216    45.394056   -7522.5156    3338.9581 
   79600    285.49706   -7488.6588    35.742525   -7524.4013   -10737.997 
   79800    274.37953   -7479.8476    34.350676   -7514.1983    20360.909 
   80000    330.93922    -7476.457    41.431612   -7517.8886   -254.52755 
   80200    282.19311   -7484.0258     35.32889   -7519.3547   -9129.2905 
   80400    262.01719   -7485.2339    32.802986   -7518.0369   -4986.3312 
   80600    374.46039   -7470.5248    46.880202    -7517.405    13494.073 
   80800    265.06286   -7486.5133    33.184285   -7519.6975     30572.38 
   81000    301.86489   -7485.0068    37.791679   -7522.7985    5334.5185 
   81200    321.02257    -7474.922    40.190107   -7515.1121   -13217.658 
   81400    316.63302   -7489.1753    39.640562   -7528.8158    4428.5104 
   81600    258.74622   -7491.3761     32.39348   -7523.7696    6410.7281 
   81800    346.56459   -7482.1269    43.387815   -7525.5147    12279.473 
   82000    372.59019    -7472.564    46.646065   -7519.2101   -7893.4189 
   82200    316.70744   -7471.5822    39.649878   -7511.2321    3024.4531 
   82400    245.64453   -7487.0724    30.753227   -7517.8256     10783.44 
   82600    303.15117   -7472.8374    37.952715   -7510.7901   -17278.835 
   82800    327.43739   -7475.1643    40.993204   -7516.1575   -19915.085 
   83000    303.01683   -7481.7025    37.935895   -7519.6384    33082.828 
   83200    255.32195    -7492.678    31.964782   -7524.6428    19050.087 
   83400    269.71851   -7489.8187    33.767146   -7523.5859    12696.299 
   83600     332.7268   -7479.9373    41.655406   -7521.5927   -14877.263 
   83800    315.49196   -7480.0683    39.497708    -7519.566   -9549.9737 
   84000    236.00115    -7492.208    29.545933   -7521.7539   -11225.325 
   84200    304.67536   -7477.5855    38.143534   -7515.7291    16252.363 
   84400     310.8448   -7480.5605    38.915911   -7519.4764    31021.839 
   84600    294.99927   -7485.2205    36.932145   -7522.1526    204.13397 
   84800     214.7541   -7490.8134     26.88593   -7517.6993   -4086.8284 
   85000    292.95819   -7478.6907    36.676615   -7515.3673    -20207.34 
   85200    355.42072   -7477.5286     44.49655   -7522.0251   -5838.2459 
   85400     252.6741   -7494.5821    31.633287   -7526.2154    5662.8794 
   85600     307.6285   -7482.9292    38.513249   -7521.4424    3259.6018 
   85800    311.78287   -7481.8534    39.033352   -7520.8867    26711.177 
   86000    251.21266   -7493.0299    31.450323   -7524.4802    3896.6388 
   86200    305.52059   -7485.3648    38.249352   -7523.6141   -23833.992 
   86400    299.45471   -7479.6996    37.489939   -7517.1896    46280.692 
   86600    342.07342   -7478.0766    42.825547   -7520.9021   -6898.0895 
   86800    325.49866   -7485.0261    40.750487   -7525.7765   -15075.191 
   87000    250.44087    -7490.618      31.3537   -7521.9717    11255.646 
   87200     327.5536    -7473.609    41.007752   -7514.6168   -10920.909 
   87400    234.23809   -7483.1571    29.325209   -7512.4824   -19908.508 
   87600    298.17352   -7481.5473    37.329542   -7518.8768    18002.521 
   87800    309.50195   -7480.7232    38.747794    -7519.471   -8182.0966 
   88000    303.36892    -7481.484    37.979976    -7519.464   -14838.895 
   88200     292.6779   -7487.7699    36.641523   -7524.4114    17229.566 
   88400    255.84602   -7491.9551    32.030392   -7523.9855    774.55046 
   88600    331.53623   -7474.2317    41.506354   -7515.7381   -18278.539 
   88800    301.86532   -7482.8848    37.791734   -7520.6765    21332.133 
   89000     291.2984   -7491.5541    36.468818    -7528.023   -9328.0531 
   89200    295.63643   -7485.2069    37.011914   -7522.2188    4698.6049 
   89400    282.11463   -7477.8149    35.319065    -7513.134     15073.93 
   89600     257.6083   -7486.3038    32.251019   -7518.5548   -11391.634 
   89800     314.5657   -7488.9121    39.381745   -7528.2939    17323.926 
   90000    334.95761   -7473.5538     41.93469   -7515.4885    12661.103 
   90200     306.7882   -7482.4144    38.408048   -7520.8224   -22495.967 
   90400    240.46218   -7493.2375    30.104428   -7523.3419    31286.372 
   90600    314.01757   -7483.5669    39.313123     -7522.88    10406.826 
   90800    370.11665   -7479.7734    46.336392   -7526.1098    21023.614 
   91000    260.12163   -7488.9692    32.565674   -7521.5349    14157.151 
   91200      293.296   -7484.6274    36.718906   -7521.3463   -27512.133 
   91400    304.24457   -7476.6075    38.089601   -7514.6971    24028.774 
   91600    255.16488   -7486.9338    31.945118   -7518.8789   -5606.5858 
   91800    263.28048   -7474.4721    32.961142   -7507.4332   -7329.7722 
   92000    255.62425   -7485.7306    32.002628   -7517.7332    27967.645 
   92200    256.24029   -7488.0076    32.079752   -7520.0873   -9850.4355 
   92400    337.24686   -7474.4662    42.221291   -7516.6875    42712.389 
   92600    270.16017   -7486.0862    33.822439   -7519.9087   -9119.6537 
   92800    302.98193    -7485.167    37.931527   -7523.0986    8121.0128 
   93000    357.64502   -7470.2183    44.775019   -7514.9933    6125.4646 
   93200    304.49346   -7478.3791    38.120761   -7516.4999    6698.1262 
   93400    238.00257   -7486.1734    29.796499   -7515.9699    20206.718 
   93600    376.78708   -7476.6168    47.171491   -7523.7883     7499.967 
   93800    247.69705   -7491.0268     31.01019    -7522.037    27465.574 
   94000    332.06621   -7472.7879    41.572705   -7514.3606   -22785.725 
   94200    287.41273   -7483.6141    35.982355   -7519.5964   -13230.957 
   94400    265.50511   -7486.0185    33.239652   -7519.2582   -16587.605 
   94600    382.82942   -7468.5612    47.927955   -7516.4892    20102.583 
   94800     302.7427   -7476.0355    37.901577   -7513.9371    22360.986 
   95000    255.03396    -7485.111    31.928727   -7517.0397   -14614.408 
   95200    261.33952   -7490.4565    32.718146   -7523.1747    -3297.369 
   95400    337.63945   -7478.0785    42.270441   -7520.3489    21613.386 
   95600    266.83039   -7482.6128    33.405569   -7516.0183   -13872.288 
   95800    281.17174   -7487.3126    35.201021   -7522.5136    27132.423 
   96000    262.38058   -7480.9929     32.84848   -7513.8414     3853.085 
   96200    240.49599   -7488.1446    30.108661   -7518.2533    7775.9969 
   96400    219.94162   -7490.1952    27.535376   -7517.7306    27.876721 
   96600    269.54155   -7479.4322    33.744991   -7513.1772    19794.277 
   96800    277.05764   -7482.6571    34.685961   -7517.3431   -17126.085 
   97000     257.7758   -7489.2858    32.271989   -7521.5578   -2183.5427 
   97200    312.25865   -7480.7577    39.092916   -7519.8506   -6892.4967 
   97400    263.23061   -7482.6271    32.954899    -7515.582    10443.417 
   97600    281.90184   -7487.1802    35.292426   -7522.4726    4497.0847 
   97800    306.31287   -7478.9975     38.34854    -7517.346    9830.7342 
   98000    266.01182   -7485.1782     33.30309   -7518.4812    -7466.443 
   98200    335.89629   -7477.8523    42.052208   -7519.9045   -5885.7721 
   98400    333.62336   -7468.5307     41.76765   -7510.2984    16576.342 
   98600    274.55591   -7484.8842    34.372758   -7519.2569    -1273.643 
   98800    290.58009    -7480.466    36.378891   -7516.8449   -4782.0483 
   99000    237.79872   -7487.1732    29.770979   -7516.9442   -11757.139 
   99200    258.83177   -7492.5529     32.40419   -7524.9571    2533.8911 
   99400    361.04034   -7478.6286    45.200093   -7523.8287    27250.445 
   99600    268.45963   -7488.5441    33.609541   -7522.1536    4268.7031 
   99800    353.49297   -7476.9638    44.255207    -7521.219    17328.008 
  100000      380.542    -7466.619    47.641584   -7514.2606    29119.395 
  100200     312.6076   -7481.7723    39.136603   -7520.9089    3124.6076 
  100400    308.08401   -7483.9443    38.570276   -7522.5146   -13548.315 
  100600    391.18702   -7468.0256    48.974276   -7516.9999    11332.163 
  100800    286.88281   -7479.3805    35.916013   -7515.2965   -10019.876 
  101000    293.81755   -7481.3717    36.784201   -7518.1559   -17045.274 
  101200    304.29246   -7480.8799    38.095597   -7518.9755    9545.3179 
  101400    262.33966   -7487.2195    32.843358   -7520.0628   -1974.2803 
  101600    276.25897   -7484.9859    34.585972   -7519.5719    23210.173 
  101800     355.5012   -7471.9043    44.506625   -7516.4109     2701.914 
  102000     264.5911   -7489.4366    33.125224   -7522.5619    17381.486 
  102200    287.55524   -7487.7607    36.000197   -7523.7609    10341.967 
  102400    258.36244   -7486.4945    32.345433   -7518.8399    21930.502 
  102600    334.02225   -7471.2075    41.817589   -7513.0251   -6988.4401 
  102800     296.8328   -7480.8323    37.161693    -7517.994   -20286.586 
  103000    287.55627   -7487.2683    36.000326   -7523.2686    6311.6187 
  103200    265.60831   -7492.7419    33.252573   -7525.9945     30059.16 
  103400    293.89429   -7478.0409    36.793808   -7514.8347   -13536.319 
  103600    300.75567   -7481.3273    37.652812   -7518.9802    32712.605 
  103800    259.64415   -7496.4372    32.505895   -7528.9431   -7685.5896 
  104000    308.53343   -7485.1492    38.626541   -7523.7758   -11428.141 
  104200    321.45439   -7480.4275    40.244167   -7520.6717   -20354.997 
  104400    343.41178   -7476.8973    42.993102   -7519.8904    12124.335 
  104600    300.50987   -7492.1895     37.62204   -7529.8116   -27201.516 
  104800     265.6782     -7481.55    33.261322   -7514.8113   -1753.8745 
  105000    278.25196   -7482.4211    34.835482   -7517.2566    8147.0654 
  105200    253.36423   -7483.2667    31.719687   -7514.9864    20248.693 
  105400    362.13621    -7471.029    45.337289   -7516.3662    8021.3839 
  105600    267.62923   -7487.7923    33.505579   -7521.2979   -7245.7244 
  105800    300.07642   -7478.4137    37.567774   -7515.9814    5806.5872 
  106000    338.05004   -7478.3629    42.321844   -7520.6847    1546.5745 
  106200    291.78308   -7483.6752    36.529497   -7520.2047   -28700.451 
  106400    369.57841   -7469.1741    46.269007   -7515.4431    19445.416 
  106600    304.17887   -7485.2751    38.081377   -7523.3565   -6718.1709 
  106800     334.7814   -7481.8559     41.91263   -7523.7686    9470.3557 
  107000    321.21685   -7467.8918    40.214429   -7508.1063   -7785.4235 
  107200    329.97325   -7465.8535    41.310678   -7507.1642   -23321.642 
  107400    271.27223   -7480.7526    33.961662   -7514.7142    7284.0348 
  107600    302.49284   -7482.0558    37.870295    -7519.926    17030.909 
  107800    223.54656   -7484.0606    27.986693   -7512.0473   -12392.609 
  108000    253.33633   -7490.2816    31.716194   -7521.9978    -5887.358 
  108200     351.7031   -7473.7285    44.031126   -7517.7596     12033.33 
  108400    322.99334   -7483.6517    40.436835   -7524.0885    10270.906 
  108600    299.55997   -7477.5097    37.503117   -7515.0128    4056.0807 
  108800    302.01484   -7477.3146    37.810452   -7515.1251    7421.0688 
  109000    288.10754   -7489.1742    36.069341   -7525.2436    8078.7584 
  109200    313.50132    -7479.085    39.248491   -7518.3334   -3785.6084 
  109400    336.08121   -7479.1308    42.075358   -7521.2061   -18661.369 
  109600     258.7233    -7496.291    32.390611   -7528.6816   -7544.2978 
  109800    305.32924   -7483.5269    38.225396   -7521.7523    -15026.24 
  110000    314.70795   -7474.3851    39.399554   -7513.7847    9928.5871 
  110200     280.7374   -7488.9537    35.146644   -7524.1004    9245.0304 
  110400    257.01597   -7486.3262    32.176862    -7518.503   -13675.597 
  110600    294.82592   -7480.2372    36.910443   -7517.1476    9643.4643 
  110800    321.34466   -7480.1363    40.230431   -7520.3667   -19860.841 
  111000    271.58881   -7491.2528    34.001295   -7525.2541   -6130.0219 
  111200    300.65939   -7483.7222    37.640759   -7521.3629     17186.35 
  111400    326.59052   -7476.8837    40.887181   -7517.7709   -968.98965 
  111600    259.22166   -7492.0523    32.453002   -7524.5053   -22112.698 
  111800      276.628   -7485.6183    34.632172   -7520.2504    7032.3484 
  112000    308.29775   -7479.1225    38.597035   -7517.7195   -18658.364 
  112200    216.12074   -7486.8549    27.057025   -7513.9119    33267.338 
  112400    288.38681   -7481.1086    36.104305   -7517.2129   -14517.741 
  112600    297.65327   -7477.0945     37.26441    -7514.359   -154.56728 
  112800    240.79674    -7489.091    30.146313   -7519.2373   -2918.8969 
  113000    249.90662   -7485.6063    31.286815   -7516.8931   -4548.8088 
  113200    320.74522   -7484.6704    40.155384   -7524.8257    33538.339 
  113400    253.42229   -7488.9479    31.726956   -7520.6749     -16761.1 
  113600    299.22953   -7476.3954    37.461748   -7513.8571   -17005.501 
  113800    245.69521    -7494.613    30.759571   -7525.3726    12518.697 
  114000     319.2778   -7484.2983    39.971672     -7524.27    11925.066 
  114200    311.78455   -7479.5687    39.033562   -7518.6023    622.44095 
  114400    234.27505   -7489.8024    29.329836   -7519.1322    9882.2954 
  114600    209.52442   -7497.2102    26.231205   -7523.4414    5706.4507 
  114800    289.66915   -7485.0721    36.264846   -7521.3369   -9621.8114 
  115000    279.12584   -7487.9554    34.944887   -7522.9003   -10143.227 
  115200    282.63471   -7485.7649    35.384177    -7521.149   -17273.657 
  115400    381.36416   -7474.5122    47.744513   -7522.2567   -4262.8997 
  115600     271.2272   -7488.0614    33.956024   -7522.0174    21037.852 
  115800    316.06009   -7482.0404    39.568834   -7521.6093    9261.0953 
  116000    383.12759   -7463.3777    47.965284    -7511.343   -17956.253 
  116200    325.93892   -7481.2211    40.805605   -7522.0267   -4384.3818 
  116400    263.47519    -7487.612    32.985519   -7520.5975   -16812.788 
  116600     310.3944   -7476.1044    38.859523   -7514.9639    7666.0528 
  116800    342.15193   -7478.5089    42.835376   -7521.3443    21227.241 
  117000    253.81553   -7488.3425    31.776187   -7520.1187    17035.464 
  117200    307.21051   -7472.9559     38.46092   -7511.4168    21207.372 
  117400    294.22387    -7480.431     36.83507   -7517.2661    28852.817 
  117600    323.80575   -7484.3452    40.538545   -7524.8837   -2735.5011 
  117800    284.72834   -7478.7856    35.646286   -7514.4319    22615.967 
  118000    306.67994   -7473.5475    38.394495    -7511.942   -1584.2818 
  118200    252.62509   -7492.0115    31.627151   -7523.6386    132.58662 
  118400    322.47899   -7481.0219    40.372441   -7521.3943     11790.05 
  118600    364.51144   -7477.5363    45.634653    -7523.171   -962.80535 
  118800    252.77837   -7491.3566     31.64634    -7523.003    618.01049 
  119000    350.17527   -7478.7471    43.839851   -7522.5869    7347.8994 
  119200    266.37275   -7480.4821    33.348276   -7513.8304   -13696.072 
  119400    308.86668   -7482.3066    38.668262   -7520.9748    15740.475 
  119600    256.82191   -7490.7408    32.152568   -7522.8934    26043.823 
  119800    280.82441   -7488.3789    35.157538   -7523.5365   -29418.084 
  120000    304.62297   -7476.7969    38.136975   -7514.9339   -19524.129 
  120200    281.24208   -7487.1102    35.209828     -7522.32   -8156.9963 
  120400    247.78828   -7492.5377    31.021612   -7523.5594    14958.124 
  120600    322.57332   -7484.7821    40.384251   -7525.1664   -7994.0317 
  120800    326.83535   -7477.8636    40.917832   -7518.7814   -5935.7655 
  121000    376.38417   -7472.2641    47.121048   -7519.3852    9441.7773 
  121200    278.33553   -7488.9104    34.845945   -7523.7564     21055.32 
  121400    327.49029   -7481.3533    40.999826   -7522.3531    -800.2673 
  121600    311.62778   -7472.2915    39.013935   -7511.3054    15210.489 
  121800    261.67439   -7481.3154    32.760069   -7514.0755    7757.2471 
  122000    308.81064   -7484.7351    38.661246   -7523.3963   -19336.179 
  122200    329.26237   -7474.2209     41.22168   -7515.4426   -16004.113 
  122400    258.75389   -7485.5336     32.39444    -7517.928    5292.8124 
  122600    318.40423   -7485.5234    39.862306   -7525.3857   -21048.937 
  122800    358.23424   -7482.4801    44.848786   -7527.3288   -15991.473 
  123000    301.28335   -7480.8369    37.718875   -7518.5558   -20216.231 
  123200    402.26246   -7468.6861    50.360855    -7519.047    2087.9849 
  123400    313.61198   -7482.8356    39.262345   -7522.0979     10345.68 
  123600    282.07374   -7485.3566    35.313946   -7520.6705    648.12542 
  123800    319.68637   -7476.4734    40.022823   -7516.4962    7685.4573 
  124000    346.18746   -7468.9785      43.3406   -7512.3191    15411.569 
  124200    331.50112   -7485.4376    41.501959   -7526.9396   -10459.836 
  124400    320.86149   -7478.4834     40.16994   -7518.6533    10824.411 
  124600    392.94713   -7463.9875    49.194632   -7513.1822    -39195.09 
  124800    328.09027   -7481.3729     41.07494   -7522.4479    10999.771 
  125000    304.78398   -7484.4469    38.157132    -7522.604    -6423.017 
  125200    288.79062    -7475.606    36.154859   -7511.7609   -6976.8133 
  125400    280.85712   -7480.5395    35.161633   -7515.7011   -20284.359 
  125600    286.72436    -7487.828    35.896175   -7523.7242   -20277.098 
  125800    310.15754   -7480.3629    38.829869   -7519.1927    12472.019 
  126000    336.40151   -7484.2613    42.115458   -7526.3768    14586.914 
  126200    333.95239   -7483.4833    41.808842   -7525.2921   -15815.607 
  126400    356.65718    -7471.073    44.651347   -7515.7243   -1684.1675 
  126600    282.95621   -7487.2059    35.424425   -7522.6304     30848.86 
  126800    307.53763   -7482.0854    38.501873   -7520.5873    2013.3677 
  127000    361.53922   -7467.4841    45.262549   -7512.7467    23738.524 
  127200    357.48174   -7469.1384    44.754577    -7513.893   -5203.2177 
  127400    314.52393   -7483.7768    39.376516   -7523.1533    13379.216 
  127600    282.48472   -7489.2634    35.365399   -7524.6288   -29801.565 
  127800    295.77616   -7472.9228    37.029408   -7509.9522    14393.012 
  128000    299.11738   -7479.0734    37.447708   -7516.5211    27436.288 
  128200    277.64333   -7490.6135    34.759285   -7525.3728    35797.879 
  128400     339.2303   -7482.4383    42.469606   -7524.9079   -10748.289 
  128600    263.68093   -7476.2255    33.011276   -7509.2368    10997.701 
  128800    316.32164    -7467.003    39.601578   -7506.6046   -8660.6174 
  129000    282.70707   -7486.5063    35.393235   -7521.8995    498.53567 
  129200    281.52281   -7483.4878    35.244973   -7518.7327   -8226.8178 
  129400    345.08398   -7470.4358    43.202452   -7513.6382    18497.714 
  129600    226.94827   -7490.2377    28.412566   -7518.6503    -23194.37 
  129800    297.54668   -7482.5258    37.251065   -7519.7769   -932.90448 
  130000    311.06877   -7473.9163    38.943951   -7512.8603     17336.46 
  130200    277.95233   -7479.8966     34.79797   -7514.6945   -19066.679 
  130400    216.91986   -7489.4308     27.15707   -7516.5879   -13322.817 
  130600    339.23632   -7471.4639     42.47036   -7513.9343    74.676308 
  130800    302.99756   -7479.9332    37.933483   -7517.8667    6325.9344 
  131000    329.78443   -7481.1689     41.28704    -7522.456      12418.6 
  131200    326.44383   -7483.1286    40.868816   -7523.9974   -2478.2473 
  131400    265.10508   -7485.8742    33.189571   -7519.0638    6673.9589 
  131600    322.10565   -7471.2596    40.325701   -7511.5853   -22906.839 
  131800    266.05394    -7485.032    33.308363   -7518.3404   -28926.733 
  132000     288.3856   -7485.2236    36.104153   -7521.3278   -5988.7351 
  132200    310.74832   -7475.2043    38.903832   -7514.1081    22619.162 
  132400    379.35321   -7461.8405    47.492754   -7509.3333   -3852.6312 
  132600    302.61597   -7478.9916     37.88571   -7516.8773    25984.944 
  132800    256.58112   -7488.7163    32.122422   -7520.8387   -11860.681 
  133000    297.50883   -7481.7096    37.246327   -7518.9559   -8951.2861 
  133200    369.24063   -7476.5887    46.226719   -7522.8155    -10305.11 
  133400    285.01441   -7491.6411    35.682101   -7527.3232    16784.793 
  133600     351.6531   -7477.4553    44.024867   -7521.4802   -9342.3247 
  133800    348.66622   -7478.9499    43.650927   -7522.6008   -2072.3713 
  134000    247.40145   -7485.1016    30.973182   -7516.0748    9977.7239 
  134200    387.64995   -7470.1907    48.531456   -7518.7222    6155.0589 
  134400    296.57387   -7489.4426    37.129275   -7526.5719    5515.6205 
  134600    379.09114   -7479.4094    47.459944   -7526.8693    7042.0654 
  134800    335.52421   -7476.2552    42.005626   -7518.2608     28890.43 
  135000    249.68145   -7492.3942    31.258625   -7523.6528   -5497.8154 
  135200    290.26296   -7481.7709    36.339187   -7518.1101   -2054.4322 
  135400    331.84512   -7478.3559    41.545025   -7519.9009    1206.7201 
  135600    252.53188   -7490.5402    31.615481   -7522.1557    12986.453 
  135800    275.11778   -7482.0212    34.443102   -7516.4643   -42106.601 
  136000    240.13506   -7478.2426    30.063474   -7508.3061   -17512.408 
  136200    229.02896   -7490.3172    28.673057   -7518.9902   -13870.618 
  136400    324.45395   -7473.5201    40.619695   -7514.1398   -9876.9963 
  136600    346.28779   -7476.6821    43.353161   -7520.0353   -7490.7451 
  136800    289.84457   -7488.1033    36.286807   -7524.3901   -6362.5844 
  137000    360.11126   -7472.4047    45.083778   -7517.4884    3262.7785 
  137200    304.88557   -7477.8639    38.169851   -7516.0338    179.35322 
  137400    279.26168    -7484.075    34.961893   -7519.0369   -15149.376 
  137600    270.18135   -7481.7048     33.82509   -7515.5299    3139.2729 
  137800    308.00634   -7469.8632    38.560553   -7508.4238    2617.2189 
  138000    241.43186    -7478.723    30.225826   -7508.9488    15000.196 
  138200    273.47346   -7483.6508    34.237242   -7517.8881   -22231.656 
  138400    295.77064    -7472.491    37.028716   -7509.5198    23230.202 
  138600    349.26738   -7471.5826    43.726187   -7515.3088    28949.906 
  138800    346.27186   -7484.1146    43.351167   -7527.4658    14829.922 
  139000    332.57272   -7480.9522    41.636117   -7522.5883     37708.62 
  139200    322.09539   -7467.8876    40.324417    -7508.212    26256.264 
  139400    272.97128     -7483.39    34.174373   -7517.5644    12821.646 
  139600    342.01257   -7479.2485    42.817929   -7522.0664   -2535.2399 
  139800    288.77158   -7461.9508    36.152476   -7498.1033    39259.385 
  140000    288.42859   -7483.1317    36.109535   -7519.2413   -20086.142 
  140200    301.67885   -7475.0105    37.768389   -7512.7789    24895.045 
  140400    327.72787    -7486.747     41.02957   -7527.7765    1231.1731 
  140600    299.47782   -7484.1247    37.492833   -7521.6175    906.12807 
  140800    354.77887   -7474.2647    44.416194   -7518.6809   -2433.3291 
  141000    270.29668   -7480.5615    33.839528    -7514.401    15600.757 
  141200     311.7698   -7488.4453    39.031716    -7527.477   -13623.084 
  141400    252.77101   -7496.6098    31.645419   -7528.2553   -15228.596 
  141600    308.26995   -7479.7747    38.593555   -7518.3682    25067.069 
  141800    294.41839   -7482.6061    36.859423   -7519.4655   -27191.713 
  142000    246.00228   -7493.5388    30.798015   -7524.3368    19603.029 
  142200    294.71239     -7476.38     36.89623   -7513.2762   -20000.565 
  142400     275.8443   -7482.9158    34.534057   -7517.4498    28314.146 
  142600    298.10915   -7490.0946    37.321483   -7527.4161    7827.9403 
  142800     334.9911   -7473.3093    41.938883   -7515.2481    5999.0619 
  143000     250.5893   -7485.2966    31.372282   -7516.6689    176.14617 
  143200    274.62992   -7482.5069    34.382024   -7516.8889    20094.697 
  143400    312.28708   -7481.6258    39.096475   -7520.7223    7273.0445 
  143600     300.2756   -7481.4112     37.59271   -7519.0039   -22058.374 
  143800    340.65069   -7468.0868     42.64743   -7510.7342   -15796.962 
  144000    354.52113    -7478.575    44.383927   -7522.9589    10926.988 
  144200     264.5954   -7485.0123    33.125763    -7518.138    26025.136 
  144400    347.57269   -7467.8649    43.514023   -7511.3789    7089.5906 
  144600    317.51158    -7468.196    39.750552   -7507.9466    1912.9527 
  144800    285.34059   -7483.1329    35.722936   -7518.8558     10982.27 
  145000    236.96901   -7483.7816    29.667103   -7513.4487    -9482.889 
  145200    382.02867   -7467.6732    47.827705   -7515.5009    21688.705 
  145400    280.69172   -7482.9671    35.140925    -7518.108   -10553.016 
  145600    343.12036   -7478.9379    42.956617   -7521.8945    11779.194 
  145800    251.55302    -7485.824    31.492935   -7517.3169    2419.6023 
  146000    281.50855   -7489.9939    35.243187   -7525.2371    4217.5432 
  146200    279.21476   -7474.1484    34.956019   -7509.1045    4759.8154 
  146400    229.06661   -7484.1075     28.67777   -7512.7853    14956.651 
  146600    205.82484   -7495.7455    25.768039   -7521.5136   -13980.094 
  146800    245.02214   -7492.4208    30.675308   -7523.0961   -9233.1407 
  147000    341.67244   -7478.2667    42.775347    -7521.042   -4485.8728 
  147200     385.6488   -7475.8781    48.280924   -7524.1591   -4157.7044 
  147400    294.96576     -7488.33    36.927949   -7525.2579    17604.316 
  147600     342.3723   -7478.0485    42.862966   -7520.9115    14860.706 
  147800     335.5778   -7459.5033    42.012335   -7501.5156    30390.407 
  148000      322.745   -7474.6602    40.405744    -7515.066   -41369.083 
  148200    277.84752    -7486.399    34.784849   -7521.1839     1161.745 
  148400    210.02895   -7495.8653    26.294369   -7522.1597   -2083.9218 
  148600    285.37215   -7483.0263    35.726887   -7518.7532    -13633.25 
  148800    291.46443   -7480.0695    36.489604   -7516.5591      21125.1 
  149000    259.32717   -7491.1561    32.466211   -7523.6223   -3521.2912 
  149200    270.97793    -7471.713    33.924817   -7505.6379    46358.297 
  149400    300.21721   -7483.8549      37.5854   -7521.4403   -8241.9312 
  149600     295.2677   -7485.0096    36.965751   -7521.9754    821.92797 
  149800    387.31249   -7470.5428    48.489208    -7519.032    7958.3943 
  150000    294.29213   -7478.6154    36.843616    -7515.459    28611.936 
  150200    279.89143   -7489.3057    35.040734   -7524.3464    5652.9927 
  150400    246.47933   -7473.4476    30.857739   -7504.3053    35809.863 
  150600    342.44613   -7479.6347    42.872208   -7522.5069    1984.0956 
  150800    276.24122   -7485.4972     34.58375   -7520.0809    39170.405 
  151000    342.95507   -7464.8074    42.935924   -7507.7433   -9047.1532 
  151200    286.93352   -7477.4547    35.922362    -7513.377   -36196.958 
  151400    286.55541   -7483.6296    35.875024   -7519.5046   -4170.2015 
  151600    307.97862   -7492.2781    38.557082   -7530.8352    -34587.67 
  151800     290.5567   -7485.1814    36.375962   -7521.5573   -23679.389 
  152000    358.03918   -7476.5557    44.824365   -7521.3801    19516.442 
  152200    251.01164   -7489.8449    31.425157     -7521.27    11802.851 
  152400    235.08105   -7486.1383    29.430743    -7515.569    5732.7145 
  152600    309.68408   -7477.6966    38.770596   -7516.4672   -6198.7764 
  152800    291.87476   -7480.8592    36.540976   -7517.4002    1250.8419 
  153000      232.639   -7489.8303    29.125012   -7518.9553     7290.769 
  153200    290.77373   -7473.7105    36.403133   -7510.1136   -29023.162 
  153400    263.81492   -7483.6505    33.028051   -7516.6785   -16624.957 
  153600    244.27663   -7499.1093    30.581973   -7529.6913   -2216.6399 
  153800    268.84799   -7488.6258    33.658161    -7522.284   -1530.8487 
  154000    292.87726   -7477.3541    36.666482   -7514.0206   -11622.444 
  154200    252.86844   -7479.2659    31.657617   -7510.9236   -33.880748 
  154400    254.89544    -7487.983    31.911385   -7519.8943   -15400.549 
  154600    324.18384   -7482.7526    40.585879   -7523.3385    7845.9343 
  154800     315.8929   -7475.4518    39.547903   -7514.9997   -4179.9877 
  155000    324.96235   -7468.9187    40.683344    -7509.602   -18180.251 
  155200    261.80661   -7488.3399    32.776622   -7521.1165     4899.191 
  155400    308.79938    -7482.234    38.659836   -7520.8938   -15694.214 
  155600     322.5265   -7472.0754     40.37839   -7512.4538    21849.674 
  155800    282.42838   -7483.2162    35.358345   -7518.5745   -17785.277 
  156000    283.06336    -7481.681    35.437841   -7517.1188    8755.6954 
  156200    382.13288   -7463.4555    47.840752   -7511.2962   -5385.9372 
  156400    334.14568   -7480.5702    41.833041   -7522.4033    5632.6854 
  156600    307.11668   -7485.8906    38.449173   -7524.3398   -2835.5815 
  156800    358.86971   -7471.9279    44.928343   -7516.8563    3125.5796 
  157000    296.29814   -7481.8772    37.094756    -7518.972    23358.952 
  157200     255.8359   -7487.3176    32.029125   -7519.3468   -5771.3394 
  157400    321.45438   -7480.0752    40.244166   -7520.3194    16527.252 
  157600    327.77368   -7478.0418    41.035306   -7519.0771    14943.103 
  157800    405.94918   -7475.1681    50.822411   -7525.9906   -2104.3834 
  158000    252.74343   -7492.6053    31.641966   -7524.2473    26604.877 
  158200    272.51341     -7483.61     34.11705    -7517.727    11088.442 
  158400    276.25361   -7480.1646    34.585301   -7514.7499    3154.8907 
  158600    236.31137   -7495.7932     29.58477    -7525.378    30441.084 
  158800    304.97569   -7487.6869    38.181134    -7525.868   -11316.222 
  159000    295.65949   -7478.9689    37.014801   -7515.9837   -11717.571 
  159200    326.23671    -7473.839    40.842886   -7514.6819    17420.454 
  159400    291.34312   -7487.0136    36.474417    -7523.488   -7033.3237 
  159600    328.66082   -7482.7357     41.14637   -7523.8821    33525.496 
  159800    309.33515    -7474.538    38.726912   -7513.2649   -2743.8749 
  160000    269.61613   -7485.1583    33.754328   -7518.9126   -3663.5132 
  160200    295.84524   -7482.5851    37.038055   -7519.6231    3298.8233 
  160400    282.95216   -7482.5592    35.423919   -7517.9832   -5156.9713 
  160600    353.13441   -7473.5024    44.210317   -7517.7127   -14630.094 
  160800    284.14336   -7481.5808     35.57305   -7517.1538    22195.302 
  161000    279.67981   -7484.8571     35.01424   -7519.8713    27421.465 
  161200    332.46767   -7469.2671    41.622965   -7510.8901    1156.8033 
  161400    380.50616   -7471.8028    47.637097   -7519.4399   -36285.423 
  161600    336.87546   -7478.4246    42.174793   -7520.5994    24070.312 
  161800    284.82686   -7488.7552    35.658621   -7524.4139   -37290.911 
  162000    237.76578   -7490.5349    29.766854   -7520.3017    17956.929 
  162200    292.55628   -7478.4344    36.626297   -7515.0607   -6557.7348 
  162400    282.89244   -7483.9669    35.416443   -7519.3833   -10184.972 
  162600    285.42052   -7491.0712    35.732943   -7526.8042   -19412.867 
  162800     325.8729   -7473.8295    40.797339   -7514.6268   -5599.7563 
  163000    296.34266    -7481.577    37.100329   -7518.6773    22637.081 
  163200      274.864   -7485.9237     34.41133   -7520.3351    -11551.36 
  163400    329.68539   -7472.1266    41.274641   -7513.4012    24651.966 
  163600    311.36696   -7485.4047    38.981282   -7524.3859    3408.6509 
  163800     308.2638   -7479.5337    38.592785   -7518.1265    -32445.54 
  164000    335.59592   -7470.4615    42.014603   -7512.4761   -6181.7748 
  164200    271.70831   -7481.4678    34.016256    -7515.484    25637.141 
  164400     323.3287   -7476.7573     40.47882   -7517.2361   -11567.778 
  164600    301.16007   -7488.1096    37.703441    -7525.813    11004.505 
  164800    301.66523   -7482.7257    37.766684   -7520.4924     11820.94 
  165000    339.35564   -7476.5632    42.485298   -7519.0485   -2893.0241 
  165200    276.61553    -7486.253    34.630611   -7520.8837   -31202.714 
  165400    302.89302   -7480.1229    37.920396   -7518.0433    3247.4491 
  165600    361.31625   -7474.7227    45.234634   -7519.9574    -2629.182 
  165800    304.20104   -7485.6476    38.084152   -7523.7317    15437.746 
  166000     248.7878   -7481.1684    31.146746   -7512.3151    19967.785 
  166200    339.03997   -7470.2079    42.445777   -7512.6536    35580.945 
  166400     262.8482    -7484.295    32.907024    -7517.202   -1165.6467 
  166600    296.23365   -7481.3545    37.086682   -7518.4412   -23826.391 
  166800    298.28001   -7479.3834    37.342875   -7516.7263   -13662.204 
  167000    276.01971   -7484.5816    34.556017   -7519.1376    8725.2461 
  167200    323.04904   -7476.5442    40.443808    -7516.988    11112.153 
  167400    255.25052   -7482.7192    31.955839   -7514.6751    10712.997 
  167600    268.91787   -7487.9793    33.666909   -7521.6462   -7683.2544 
  167800    330.54908   -7480.1206    41.382768   -7521.5034    17647.307 
  168000    292.37435   -7486.2713    36.603521   -7522.8748    10654.713 
  168200    296.61337   -7490.5195    37.134221   -7527.6537    14728.056 
  168400    345.85214   -7473.7455     43.29862   -7517.0441   -12277.137 
  168600    268.89413   -7486.7896    33.663938   -7520.4535   -4980.1514 
  168800    349.25816   -7483.1331    43.725034   -7526.8581    840.27909 
  169000    309.00194   -7479.8581    38.685196   -7518.5433    28213.089 
  169200    249.41275   -7490.9901    31.224986    -7522.215   -4762.8812 
  169400    257.15249    -7481.212    32.193954    -7513.406    37131.332 
  169600    302.71884   -7477.8738    37.898589   -7515.7724    5567.7085 
  169800    254.28353   -7491.4477    31.834777   -7523.2825   -21987.647 
  170000    285.18619   -7485.7546    35.703606   -7521.4582    4534.8276 
  170200    281.50978   -7478.3597    35.243341   -7513.6031    5113.8311 
  170400    349.36681   -7470.8808    43.738636   -7514.6194   -7934.6397 
  170600    279.20464   -7489.2328    34.954752   -7524.1876    -6682.277 
  170800    292.12955   -7479.3969    36.572874   -7515.9698    1077.0146 
  171000    270.08592   -7472.6294    33.813143   -7506.4426   -5618.5815 
  171200    245.23738   -7482.8982    30.702254   -7513.6005   -26428.928 
  171400    285.50606   -7485.3669    35.743652   -7521.1105    19777.051 
  171600    389.34249    -7473.879    48.743352   -7522.6223    8754.7914 
  171800    307.46115   -7484.7515    38.492298   -7523.2438    28010.144 
  172000      269.088   -7487.5021    33.688209   -7521.1903   -19758.685 
  172200    324.59286   -7476.7251    40.637086   -7517.3622   -1.3418272 
  172400    300.20905   -7482.0304    37.584379   -7519.6148    12516.319 
  172600    238.16015   -7492.3755    29.816228   -7522.1917   -7299.3295 
  172800     272.5042   -7483.3189    34.115897   -7517.4348   -14963.801 
  173000    309.97937   -7479.3343    38.807564   -7518.1418    3946.9331 
  173200    267.28975   -7490.0011    33.463078   -7523.4642    10931.646 
  173400    311.99598   -7482.3085    39.060031   -7521.3685   -7538.6747 
  173600    316.64323    -7479.635    39.641839   -7519.2768   -27401.023 
  173800    288.52613    -7487.736    36.121747   -7523.8577    1790.5478 
  174000     357.6746    -7470.945    44.778721   -7515.7237   -11078.649 
  174200    272.02677   -7485.4813    34.056126   -7519.5374   -5670.7576 
  174400    258.90117   -7482.0867    32.412878   -7514.4996    31982.558 
  174600    277.80433   -7478.7026    34.779442   -7513.4821   -22122.722 
  174800    267.39312   -7488.0437     33.47602   -7521.5197    11820.593 
  175000    278.37441   -7490.1522    34.850812    -7525.003    6718.6948 
  175200    305.37138   -7474.3528    38.230671   -7512.5835    -16527.52 
  175400    282.74065   -7487.3855    35.397439   -7522.7829    -23372.44 
  175600    309.44144   -7486.5708    38.740219    -7525.311   -2005.5378 
  175800    264.31811   -7480.9596    33.091047   -7514.0507    8013.3715 
  176000    274.44902    -7483.459    34.359377   -7517.8184    11345.275 
  176200     221.7537   -7497.0776    27.762238   -7524.8398    8430.7131 
  176400    272.69695   -7483.9564    34.140028   -7518.0964    8506.9682 
  176600    309.18885   -7475.2204    38.708595    -7513.929    30556.304 
  176800    279.03931   -7482.0048    34.934054   -7516.9389    17623.493 
  177000    254.94422   -7487.8865    31.917493   -7519.8039    208.16125 
  177200    277.76358   -7473.2671    34.774339   -7508.0415    -3795.083 
  177400    295.12525   -7490.8421    36.947918     -7527.79   -1590.3589 
  177600    272.52579   -7482.1326    34.118599   -7516.2512    917.01492 
  177800    304.58736   -7477.5122    38.132516   -7515.6447    -28435.78 
  178000    186.92512   -7495.8588    23.401907   -7519.2607    8629.6845 
  178200    256.50632   -7489.1906    32.113058   -7521.3036    20373.709 
  178400     339.4673    -7480.984    42.499276   -7523.4833    -14650.03 
  178600    277.31837   -7482.2133    34.718602   -7516.9319    3446.4788 
  178800    227.60315   -7488.9382    28.494554   -7517.4327     8601.175 
  179000    348.10012   -7474.0798    43.580054   -7517.6599   -4921.4238 
  179200    301.14288   -7481.3714    37.701289   -7519.0727   -7188.6444 
  179400    329.76491   -7483.1066    41.284596   -7524.3912    5142.3345 
[...]
  950000    284.07864   -7480.1855    35.564947   -7515.7505   -3149.4275 
  950200    268.01808   -7482.9995    33.554261   -7516.5537   -1539.4184 
  950400    335.87744   -7469.4436    42.049848   -7511.4934    12856.236 
  950600    288.75924   -7484.8026    36.150931   -7520.9536   -19129.837 
  950800    313.23613   -7484.8209     39.21529   -7524.0362    29958.439 
  951000    317.61052   -7474.1845    39.762938   -7513.9475    3828.4465 
  951200    226.83957   -7487.5888    28.398958   -7515.9877   -24991.523 
  951400    278.05343   -7484.6349    34.810627   -7519.4455     4647.276 
  951600    323.22584   -7475.9685    40.465944   -7516.4344   -1790.7641 
  951800    261.52162   -7480.2928    32.740943   -7513.0337   -19699.719 
  952000    303.39443   -7467.5277    37.983168   -7505.5109   -2525.0538 
  952200    279.17127   -7480.3575    34.950575   -7515.3081    10319.361 
  952400    256.32127   -7481.6639    32.089891   -7513.7538   -8830.0264 
  952600    369.92407   -7467.8832    46.312283   -7514.1954   -4420.4248 
  952800    219.66404   -7491.4652    27.500625   -7518.9658    21720.816 
  953000    320.09629   -7480.1567    40.074142   -7520.2309   -32674.356 
  953200    241.74708   -7477.4549    30.265289   -7507.7202    22105.345 
  953400    247.79848    -7495.434    31.022889   -7526.4569     10312.47 
  953600    260.34292   -7485.0396    32.593377    -7517.633    25257.049 
  953800    278.44282   -7478.9677    34.859377   -7513.8271    80.873709 
  954000    240.73049   -7491.1518    30.138019   -7521.2899   -890.89357 
  954200    268.77775   -7486.1283    33.649367   -7519.7777     20004.42 
  954400    324.64696   -7476.5644    40.643859   -7517.2082   -8054.9543 
  954600    307.61988   -7485.2157     38.51217   -7523.7279    1272.8964 
  954800    283.75688   -7492.7811    35.524665   -7528.3058    7249.6736 
  955000    286.41128    -7479.041     35.85698    -7514.898    30873.371 
  955200    267.82266   -7481.9253    33.529797   -7515.4551   -16351.503 
  955400    194.45735   -7494.5381    24.344898    -7518.883    3754.6096 
  955600    247.03754   -7478.1088    30.927623   -7509.0365   -9659.7955 
  955800    233.47838    -7482.082    29.230098   -7511.3121   -10041.504 
  956000    305.42658   -7472.7269    38.237582   -7510.9645    6302.0301 
  956200     313.0706   -7483.1386    39.194567   -7522.3331    9285.9964 
  956400    309.38384   -7485.5948    38.733007   -7524.3278   -7025.2739 
  956600    376.90124   -7471.2896    47.185783   -7518.4754     40550.69 
  956800    348.91166   -7480.1954    43.681654    -7523.877    -1478.496 
  957000    317.18197    -7482.581    39.709286   -7522.2903   -6890.9043 
  957200    336.76164   -7468.2457    42.160544   -7510.4062   -29163.228 
  957400    289.97702   -7481.2469     36.30339   -7517.5503    -5310.103 
  957600    253.82576   -7485.8593    31.777468   -7517.6368    7743.2349 
  957800    333.69076    -7476.839    41.776089   -7518.6151   -16522.727 
  958000     278.6472   -7482.6062    34.884964   -7517.4912     12237.76 
  958200     296.0301   -7489.1749    37.061199   -7526.2361   -40313.709 
  958400     306.5017   -7476.3378    38.372181     -7514.71    16839.103 
  958600    343.95614   -7478.2841    43.061252   -7521.3454     1482.181 
  958800    253.67602   -7491.4123    31.758721    -7523.171    18165.207 
  959000    350.48973   -7488.3727    43.879218   -7532.2519   -745.01118 
  959200    363.06871   -7475.8496    45.454032   -7521.3036   -15641.917 
  959400    274.92977    -7487.251    34.419564   -7521.6706   -19198.423 
  959600     267.5053   -7493.5886    33.490064   -7527.0787   -23609.373 
  959800    301.51613    -7479.126    37.748017    -7516.874    14443.895 
  960000    329.03722   -7479.6221    41.193493   -7520.8156   -11591.671 
  960200    357.28762   -7472.7998    44.730275   -7517.5301    9520.8448 
  960400    320.04129   -7485.6121    40.067256   -7525.6793   -17376.787 
  960600    304.82964    -7483.703    38.162848   -7521.8658   -7040.7117 
  960800    344.87976   -7473.0196    43.176885   -7516.1965   -23921.899 
  961000    307.01052   -7486.0462    38.435882    -7524.482    6316.1894 
  961200    350.80917   -7477.9125    43.919211   -7521.8317    -4961.411 
  961400    362.95272   -7475.0041    45.439511   -7520.4436    21714.657 
  961600    243.70661    -7485.976    30.510611   -7516.4866    7511.0828 
  961800    289.88189   -7479.9171     36.29148   -7516.2086    7891.4516 
  962000    259.93986   -7481.8478    32.542917   -7514.3907    22488.968 
  962200    241.89575   -7488.8553    30.283902   -7519.1392   -12779.926 
  962400    338.32153    -7474.485    42.355833   -7516.8409    17598.417 
  962600    282.71201   -7482.7464    35.393854   -7518.1403   -18036.244 
  962800    259.48398   -7485.2366    32.485844   -7517.7224   -345.57732 
  963000    327.74643   -7480.3813    41.031894   -7521.4132   -16940.638 
  963200    286.78563   -7487.2296    35.903846   -7523.1335    7293.8985 
  963400    323.13381   -7483.6048    40.454421   -7524.0592    9612.8246 
  963600    386.63722   -7474.4274    48.404668    -7522.832     36244.78 
  963800    307.69084   -7483.7228    38.521054   -7522.2439     3552.249 
  964000    290.65548   -7478.5321    36.388328   -7514.9204   -2819.1369 
  964200    306.39944   -7479.8947    38.359379   -7518.2541   -7.5368394 
  964400    240.23752   -7491.5882    30.076302   -7521.6645     37517.97 
  964600    291.12155   -7476.9794    36.446678   -7513.4261     16100.62 
  964800    260.66207   -7478.8423    32.633333   -7511.4757   -17985.294 
  965000    295.39859   -7485.8231    36.982138   -7522.8053     3335.398 
  965200    254.00343   -7496.6731    31.799712   -7528.4728    26477.542 
  965400    320.52694   -7485.0865    40.128056   -7525.2145   -20662.341 
  965600    347.18425   -7479.7868    43.465392   -7523.2522     19271.66 
  965800     309.1563   -7480.0955     38.70452   -7518.8001    17340.393 
  966000    258.19389   -7489.6042    32.324332   -7521.9286    18118.994 
  966200    351.98197   -7472.8735    44.066039   -7516.9395    32630.905 
  966400    293.22006   -7482.3132    36.709398   -7519.0226   -488.68234 
  966600    296.87665   -7487.0295    37.167182   -7524.1966   -11265.608 
  966800    284.47664   -7483.1755    35.614775   -7518.7903    9292.3721 
  967000    293.04941   -7484.4693    36.688035   -7521.1574   -34608.582 
  967200    328.09158   -7466.5559    41.075105    -7507.631   -10181.213 
  967400    346.37209   -7481.0282    43.363715   -7524.3919   -331.52524 
  967600     249.3497   -7481.9707    31.217091   -7513.1878    5021.8284 
  967800    335.72925    -7466.668    42.031295   -7508.6992   -10360.888 
  968000    277.06667   -7482.6904     34.68709   -7517.3775    19878.016 
  968200    304.86613   -7484.1025    38.167417   -7522.2699   -8590.5459 
  968400    308.73697   -7484.0203    38.652023   -7522.6723   -10115.666 
  968600    352.79303   -7478.2885    44.167578   -7522.4561   -10807.777 
  968800    270.31273   -7489.8234    33.841538   -7523.6649    8456.2276 
  969000    263.97497   -7480.9118    33.048088   -7513.9598    3081.5933 
  969200    343.65311   -7478.0498    43.023316   -7521.0731   -7999.8303 
  969400    255.69201   -7487.5565    32.011111   -7519.5676    13121.572 
  969600    366.00179   -7468.5652    45.821236   -7514.3865    17185.788 
  969800    253.90421   -7482.6102    31.787289   -7514.3974   -14610.859 
  970000    311.58301   -7482.5731     39.00833   -7521.5815    13780.353 
  970200    414.87758   -7464.0009    51.940193   -7515.9411   -15633.067 
  970400    321.99426   -7477.6042    40.311757   -7517.9159    1650.3828 
  970600    295.97981   -7480.6589    37.054902   -7517.7138   -34344.578 
  970800    303.14388   -7479.0182    37.951802     -7516.97    21017.699 
  971000    296.94253    -7478.841     37.17543   -7516.0164    1432.1949 
  971200    264.40951   -7488.6127     33.10249   -7521.7152   -18490.721 
  971400    282.19419   -7471.1156    35.329026   -7506.4446    6170.7892 
  971600    314.33704   -7478.5799    39.353119    -7517.933    -7748.068 
  971800    308.00061   -7483.1662    38.559835    -7521.726    1874.3261 
  972000    366.64472   -7471.7691    45.901728   -7517.6709    517.36918 
  972200    305.09312   -7484.7344    38.195834   -7522.9303   -10349.984 
  972400    301.15547   -7482.0733    37.702864   -7519.7762   -20160.278 
  972600    379.99921   -7475.6122    47.573629   -7523.1858   -7443.1296 
  972800    308.27145   -7482.4996    38.593743   -7521.0934    20560.871 
  973000    237.21163   -7490.9152    29.697478   -7520.6127    4760.5342 
  973200    280.37046   -7480.8587    35.100705   -7515.9594    5953.7585 
  973400    318.76611   -7479.3242    39.907612   -7519.2318   -7239.0708 
  973600    302.78956    -7484.711    37.907442   -7522.6185    23447.583 
  973800    401.95764   -7462.7293    50.322693    -7513.052   -21036.141 
  974000    321.40092   -7481.8509    40.237474   -7522.0883    -14951.81 
  974200    313.11739   -7483.3146    39.200425    -7522.515   -9075.3894 
  974400    329.82856   -7470.2695    41.292565   -7511.5621    19758.527 
  974600    306.27854   -7478.5182    38.344243   -7516.8624    3029.3039 
  974800    295.74198    -7484.419    37.025127   -7521.4442   -24473.562 
  975000    307.41739   -7480.2626    38.486819   -7518.7494    13138.885 
  975200    348.71313   -7470.7018    43.656799   -7514.3586    9641.1853 
  975400    259.83325   -7486.8408     32.52957   -7519.3703    21910.268 
  975600    264.27008   -7480.9624    33.085035   -7514.0475    -27877.12 
  975800    320.20184   -7478.9239    40.087356   -7519.0112    19120.606 
  976000    321.75951    -7482.412    40.282368   -7522.6943    5384.6854 
  976200    294.83112   -7490.6987    36.911094   -7527.6098    427.53024 
  976400    402.22403   -7473.5216    50.356045   -7523.8777    3423.4573 
  976600    282.15958    -7486.065    35.324693   -7521.3897   -4028.3353 
  976800    310.42841   -7482.6682    38.863781    -7521.532    14030.223 
  977000     333.1656   -7474.6775    41.710342   -7516.3879   -10572.613 
  977200    314.89222   -7486.0188    39.422623   -7525.4414   -662.58723 
  977400    371.20433   -7473.9062    46.472563   -7520.3787    5709.1562 
  977600    326.24203   -7478.8782    40.843552   -7519.7217   -9985.0346 
  977800    287.56518   -7487.5535    36.001442   -7523.5549    24673.901 
  978000     265.4564   -7483.0546    33.233554   -7516.2882   -18146.313 
  978200    340.79064   -7476.2637    42.664951   -7518.9286    26254.669 
  978400    323.85749   -7479.6563    40.545021   -7520.2013   -23693.892 
  978600    273.54514   -7490.8857    34.246216   -7525.1319    19581.686 
  978800    387.24855   -7473.0144    48.481204   -7521.4956   -3740.4696 
  979000     312.6279   -7481.1161    39.139145   -7520.2553    5940.9472 
  979200    256.57221   -7491.3261    32.121307   -7523.4474   -742.81489 
  979400     318.4032   -7477.9513    39.862177   -7517.8134   -24186.435 
  979600    299.54696   -7485.3064    37.501489   -7522.8079   -1501.7222 
  979800    349.38586    -7480.528    43.741021    -7524.269    814.80569 
  980000    352.54457   -7473.8697    44.136472   -7518.0062    32263.282 
  980200    290.98547   -7482.3075    36.429641   -7518.7371   -2017.2409 
  980400    345.21106   -7477.0323    43.218361   -7520.2507   -8236.2946 
  980600    282.84003   -7488.1393    35.409881   -7523.5492   -5988.2396 
  980800    291.38564   -7485.7801    36.479741   -7522.2598    28205.994 
  981000    321.60874   -7477.2158    40.263492   -7517.4793   -32390.935 
  981200     268.5384   -7483.7101    33.619402   -7517.3295    6223.8965 
  981400    230.52508   -7497.7206    28.860363   -7526.5809    -26668.58 
  981600    305.78356   -7476.7478    38.282273     -7515.03    11984.967 
  981800     348.3835   -7477.6287    43.615531   -7521.2443    136.42159 
  982000      272.154    -7490.928    34.072054        -7525   -8038.6013 
  982200    274.73299   -7486.8199    34.394928   -7521.2148    18574.305 
  982400    328.46359   -7472.0012    41.121678   -7513.1228   -3890.0702 
  982600    257.84391   -7485.2029    32.280516   -7517.4835    -10077.87 
  982800    271.90523   -7488.3369    34.040909   -7522.3778   -14148.798 
  983000     270.5268   -7480.5459    33.868338   -7514.4142   -13456.042 
  983200    294.62992    -7472.119    36.885904   -7509.0049    16479.626 
  983400    293.45104   -7484.0662    36.738316   -7520.8045    830.85993 
  983600    271.66583   -7483.8716    34.010938   -7517.8826    -8827.769 
  983800    369.51636   -7469.9605     46.26124   -7516.2218    28567.037 
  984000    259.25576   -7485.7412    32.457271   -7518.1985    7762.0077 
  984200    355.03423   -7477.2389    44.448164   -7521.6871     14711.26 
  984400    284.78212   -7486.1023    35.653019   -7521.7553   -11038.378 
  984600     323.1168    -7483.296    40.452292   -7523.7483    18090.822 
  984800    375.22326   -7476.4053    46.975709    -7523.381    23324.657 
  985000    263.02673   -7488.8795    32.929374   -7521.8089   -5840.3218 
  985200    360.43477   -7480.0795    45.124279   -7525.2038     7776.914 
  985400    284.72756   -7486.0044    35.646189   -7521.6505    25420.338 
  985600    202.59285   -7502.0984    25.363414   -7527.4618   -7239.2763 
  985800    282.75597   -7489.7965    35.399357   -7525.1958    23188.996 
  986000     303.8673    -7481.383     38.04237   -7519.4254    6254.9339 
  986200    299.22374   -7472.2302    37.461023   -7509.6912    43857.074 
  986400    343.69899   -7482.4954    43.029058   -7525.5245    16213.671 
  986600     283.5396   -7488.4792    35.497462   -7523.9766   -11692.666 
  986800    378.53618    -7472.394    47.390467   -7519.7844   -23662.004 
  987000    295.87385   -7480.1051    37.041637   -7517.1467   -895.28825 
  987200    250.58571   -7485.7495    31.371833   -7517.1214     2888.058 
  987400    369.41639   -7469.8431    46.248724   -7516.0918   -3449.2636 
  987600    279.63297   -7483.5005    35.008376   -7518.5088    14288.971 
  987800    330.01222   -7481.7638    41.315558   -7523.0793     -10500.5 
  988000    249.41014   -7482.0306    31.224658   -7513.2552    11834.876 
  988200    279.70895   -7480.4667    35.017889   -7515.4846   -12047.736 
  988400    281.50011   -7475.3068    35.242131   -7510.5489    32454.399 
  988600    298.75357   -7493.2867    37.402162   -7530.6889   -4631.6166 
  988800    248.02905   -7482.4981    31.051755   -7513.5499   -2818.2871 
  989000    357.20852   -7477.6619    44.720371   -7522.3823   -7318.0995 
  989200    259.64674   -7494.0577    32.506219   -7526.5639    5832.0699 
  989400    273.52226   -7487.9579    34.243351   -7522.2012     6886.503 
  989600    282.30438   -7477.9808     35.34282   -7513.3237    38513.377 
  989800    289.62826   -7479.0848    36.259726   -7515.3445   -43726.013 
  990000    257.28481   -7493.2192     32.21052   -7525.4297   -887.23399 
  990200    325.53465   -7481.5141    40.754992   -7522.2691    2898.3976 
  990400    264.88831   -7478.6067    33.162433   -7511.7691   -1631.0984 
  990600    232.88293   -7495.3888     29.15555   -7524.5444   -8919.6372 
  990800    278.64312   -7482.1762    34.884453   -7517.0607     7529.275 
  991000    284.57633   -7478.8673    35.627255   -7514.4946    25022.696 
  991200    277.22046   -7491.7277    34.706345    -7526.434   -27957.759 
  991400    312.22121   -7486.3072    39.088229   -7525.3954   -2087.9969 
  991600    329.39241   -7481.5638    41.237961   -7522.8018    18483.967 
  991800    270.81753   -7480.7234    33.904736   -7514.6282   -15961.916 
  992000    329.49368   -7472.9981    41.250638   -7514.2487   -2118.9111 
  992200    213.29677   -7488.9601     26.70348   -7515.6635   -725.93086 
  992400    329.36928   -7477.6407    41.235065   -7518.8758   -6701.3674 
  992600     272.8739   -7479.6364    34.162181   -7513.7985    18888.582 
  992800    215.44357   -7487.8091    26.972247   -7514.7814    -4320.102 
  993000    283.47396    -7478.371    35.489245   -7513.8602    15524.697 
  993200    323.00809   -7479.6423    40.438682    -7520.081    3333.9779 
  993400    283.16409   -7488.3561    35.450451   -7523.8065    10756.399 
  993600    320.23994   -7474.9551    40.092126   -7515.0472   -5147.3872 
  993800    261.27344   -7480.2745    32.709873   -7512.9843    16447.268 
  994000    278.20657   -7489.1709      34.8298   -7524.0007   -15243.605 
  994200    319.30699   -7471.9323    39.975327   -7511.9076    1025.6206 
  994400    311.09129   -7484.2718     38.94677   -7523.2185   -11168.671 
  994600    302.84621   -7483.6992    37.914535   -7521.6137      30379.6 
  994800    335.88894   -7471.9183    42.051287   -7513.9696   -26720.285 
  995000    302.38252   -7475.1631    37.856484   -7513.0195    508.28955 
  995200    295.54291   -7484.4315    37.000206   -7521.4317   -17859.098 
  995400    317.20366   -7475.1325    39.712003   -7514.8445   -11369.634 
  995600    306.88643   -7480.2039    38.420347   -7518.6243    1510.6066 
  995800    305.52765   -7487.3491    38.250236   -7525.5993    4063.3913 
  996000    347.88727   -7476.1832    43.553406   -7519.7367   -25113.785 
  996200    331.18536    -7485.329    41.462427   -7526.7915    26206.413 
  996400    310.92957    -7489.761    38.926523   -7528.6875     593.6294 
  996600     289.0752   -7479.8259    36.190487   -7516.0164   -16781.015 
  996800    228.38295   -7493.0462     28.59218   -7521.6384    20547.349 
  997000    272.82416   -7486.6544    34.155954   -7520.8104   -35774.828 
  997200    288.21129   -7482.2453    36.082331   -7518.3276   -11645.171 
  997400    229.57893   -7485.1119     28.74191   -7513.8539    41862.343 
  997600    329.48708   -7469.9587    41.249812   -7511.2085   -18180.184 
  997800    306.81175   -7484.4837    38.410997   -7522.8947   -4294.6158 
  998000    303.06419   -7483.6993    37.941825   -7521.6411   -21810.081 
  998200    330.81293   -7475.3677    41.415802   -7516.7835   -8118.4225 
  998400    301.21305   -7478.9061    37.710073   -7516.6162   -26591.422 
  998600    195.32419    -7490.534    24.453421   -7514.9874   -27764.531 
  998800    308.85817   -7474.1934    38.667196   -7512.8606   -22582.932 
  999000    313.17224   -7479.0907    39.207293    -7518.298    -13809.51 
  999200    245.83267   -7496.5184    30.776781   -7527.2952   -1702.1311 
  999400     276.7947   -7491.0439    34.653042    -7525.697    1379.9736 
  999600    358.44801   -7476.9686    44.875548   -7521.8441   -7923.9964 
  999800    307.20371   -7483.0123    38.460069   -7521.4723    16406.388 
 1000000    231.88415   -7492.3017    29.030509   -7521.3322     9817.177 
Loop time of 2412.69 on 8 procs for 1000000 steps with 43 atoms

Performance: 8.953 ns/day, 2.681 hours/ns, 414.476 timesteps/s
99.4% CPU use with 8 MPI tasks x no OpenMP threads

MPI task timing breakdown:
Section |  min time  |  avg time  |  max time  |%varavg| %total
---------------------------------------------------------------
Pair    | 1859.2     | 1937.6     | 2009.4     | 123.3 | 80.31
Neigh   | 3.2522     | 3.3495     | 3.4437     |   3.6 |  0.14
Comm    | 30.805     | 102.68     | 181.04     | 535.4 |  4.26
Output  | 0.09872    | 0.10705    | 0.15803    |   5.9 |  0.00
Modify  | 367.21     | 367.32     | 367.48     |   0.5 | 15.22
Other   |            | 1.642      |            |       |  0.07

Nlocal:    5.375 ave 9 max 2 min
Histogram: 1 3 0 0 0 0 0 1 2 1
Nghost:    638.375 ave 646 max 624 min
Histogram: 1 0 1 1 0 0 0 0 2 3
Neighs:    862.125 ave 1421 max 329 min
Histogram: 1 3 0 0 0 0 0 1 2 1

Total # of neighbors = 6897
Ave neighs/atom = 160.395
Neighbor list builds = 4420
Dangerous builds = 0

Please see the log.cite file for references relevant to this simulation

Total wall time: 0:40:19
