ITEM: TIMESTEP
0
ITEM: NUMBER OF ATOMS
147
ITEM: BOX BOUNDS pp pp pp
0.0000000000000000e+00 2.1884000000000000e+01
0.0000000000000000e+00 2.1885999999999999e+01
0.0000000000000000e+00 2.1885000000000002e+01
ITEM: ATOMS id type x y z 
9 1 8.524 12.547 12.547 
10 1 1.604 19.466 19.466 
11 1 1.605 19.466 12.547 
12 1 8.524 12.547 19.466 
13 1 1.605 12.547 19.466 
14 1 8.524 19.467 12.547 
15 1 8.524 19.467 19.466 
16 1 1.605 12.547 12.547 
25 1 10.105 10.965 10.965 
26 1 0.023 21.047 21.049 
27 1 0.023 21.047 10.964 
28 1 10.106 10.965 21.047 
29 1 0.023 10.966 21.048 
30 1 10.106 21.049 10.966 
31 1 10.106 21.048 21.049 
32 1 0.024 10.965 10.965 
57 1 5.811 12.218 12.218 
58 1 4.317 19.796 19.795 
59 1 4.318 19.795 12.218 
60 1 5.811 12.219 19.795 
61 1 4.318 12.218 19.795 
62 1 5.811 19.795 12.218 
63 1 5.811 19.796 19.795 
64 1 4.318 12.218 12.218 
65 1 8.853 15.26 12.218 
66 1 1.276 16.754 19.795 
67 1 8.853 16.754 19.795 
68 1 1.276 15.26 12.218 
69 1 1.276 16.754 12.218 
70 1 8.853 15.26 19.796 
71 1 1.276 15.26 19.795 
72 1 8.853 16.753 12.218 
73 1 8.853 12.219 15.26 
74 1 1.276 19.795 16.753 
75 1 1.276 12.218 16.754 
76 1 8.853 19.796 15.26 
77 1 8.853 19.796 16.753 
78 1 1.276 12.218 15.26 
79 1 1.276 19.795 15.26 
80 1 8.853 12.219 16.754 
105 1 7.01 12.317 12.317 
106 1 3.118 19.696 19.696 
107 1 3.119 19.696 12.317 
108 1 7.011 12.317 19.696 
109 1 3.119 12.317 19.696 
110 1 7.01 19.696 12.317 
111 1 7.01 19.697 19.696 
112 1 3.118 12.317 12.317 
113 1 8.754 14.061 12.317 
114 1 1.375 17.953 19.696 
115 1 8.754 17.953 19.696 
116 1 1.375 14.061 12.317 
117 1 1.375 17.953 12.317 
118 1 8.754 14.061 19.696 
119 1 1.375 14.061 19.696 
120 1 8.754 17.953 12.317 
121 1 8.754 12.317 14.061 
122 1 1.375 19.696 17.952 
123 1 1.375 12.317 17.953 
124 1 8.754 19.697 14.061 
125 1 8.754 19.697 17.952 
126 1 1.375 12.317 14.061 
127 1 1.375 19.696 14.061 
128 1 8.754 12.318 17.953 
137 1 9.407 11.664 11.664 
138 1 0.721 20.349 20.35 
139 1 0.721 20.349 11.663 
140 1 9.408 11.664 20.349 
141 1 0.721 11.664 20.35 
142 1 9.407 20.35 11.664 
143 1 9.407 20.35 20.35 
144 1 0.722 11.664 11.663 
1 1 19.466 1.604 1.604 
2 1 12.547 8.524 8.524 
3 1 12.546 8.524 1.604 
4 1 19.466 1.605 8.524 
5 1 12.547 1.604 8.524 
6 1 19.466 8.524 1.605 
7 1 19.466 8.524 8.524 
8 1 12.547 1.604 1.605 
17 1 21.048 0.023 0.022 
18 1 10.965 10.106 10.106 
19 1 10.965 10.106 0.024 
20 1 21.048 0.024 10.107 
21 1 10.965 0.022 10.105 
22 1 21.048 10.105 0.023 
23 1 21.047 10.106 10.106 
24 1 10.965 0.023 0.022 
33 1 16.753 1.275 1.276 
34 1 15.26 8.853 8.853 
35 1 15.26 8.852 1.276 
36 1 16.753 1.275 8.853 
37 1 15.26 1.275 8.853 
38 1 16.753 8.852 1.276 
39 1 16.753 8.853 8.853 
40 1 15.26 1.275 1.276 
41 1 19.795 4.317 1.276 
42 1 12.218 5.811 8.853 
43 1 19.795 5.811 8.853 
44 1 12.218 4.317 1.276 
45 1 12.218 5.811 1.275 
46 1 19.795 4.317 8.853 
47 1 12.218 4.317 8.853 
48 1 19.795 5.811 1.276 
49 1 19.795 1.275 4.317 
50 1 12.218 8.852 5.811 
51 1 12.218 1.276 5.811 
52 1 19.795 8.853 4.318 
53 1 19.795 8.853 5.811 
54 1 12.218 1.275 4.318 
55 1 12.218 8.852 4.317 
56 1 19.795 1.275 5.811 
81 1 17.952 1.374 1.375 
82 1 14.061 8.754 8.754 
83 1 14.06 8.753 1.375 
84 1 17.952 1.374 8.754 
85 1 14.06 1.374 8.754 
86 1 17.952 8.754 1.375 
87 1 17.952 8.754 8.754 
88 1 14.061 1.374 1.375 
89 1 19.696 3.118 1.375 
90 1 12.317 7.01 8.754 
91 1 19.696 7.01 8.754 
92 1 12.317 3.118 1.375 
93 1 12.317 7.01 1.374 
94 1 19.695 3.118 8.754 
95 1 12.317 3.118 8.754 
96 1 19.696 7.01 1.375 
97 1 19.696 1.374 3.118 
98 1 12.317 8.754 7.01 
99 1 12.317 1.375 7.01 
100 1 19.696 8.754 3.118 
101 1 19.696 8.754 7.01 
102 1 12.317 1.374 3.119 
103 1 12.317 8.753 3.118 
104 1 19.696 1.374 7.01 
129 1 20.35 0.722 0.721 
130 1 11.664 9.407 9.407 
131 1 11.663 9.407 0.722 
132 1 20.35 0.722 9.408 
133 1 11.663 0.72 9.407 
134 1 20.35 9.407 0.721 
135 1 20.349 9.407 9.407 
136 1 11.664 0.721 0.721 
145 2 17.952 8.754 10.104 
146 2 17.807 8.703 11.594 
147 3 17.683 9.628 11.885 
ITEM: TIMESTEP
10
ITEM: NUMBER OF ATOMS
147
ITEM: BOX BOUNDS pp pp pp
0.0000000000000000e+00 2.1884000000000000e+01
0.0000000000000000e+00 2.1885999999999999e+01
0.0000000000000000e+00 2.1885000000000002e+01
ITEM: ATOMS id type x y z 
9 1 8.51696 12.5535 12.5541 
10 1 1.61085 19.4598 19.4593 
11 1 1.61168 19.4597 12.5537 
12 1 8.51768 12.5538 19.4598 
13 1 1.6117 12.5538 19.4597 
14 1 8.5173 19.4602 12.5537 
15 1 8.51727 19.4603 19.4593 
16 1 1.61147 12.5535 12.5532 
25 1 10.1061 10.9643 10.9642 
26 1 0.0216175 21.0485 21.0502 
27 1 0.0216728 21.0483 10.963 
28 1 10.1077 10.9638 21.0486 
29 1 0.0217272 10.9648 21.0492 
30 1 10.1071 21.0503 10.9646 
31 1 10.107 21.0493 21.0501 
32 1 0.0209642 10.9624 10.962 
57 1 5.81941 12.2193 12.2193 
58 1 4.30967 19.7946 19.7938 
59 1 4.30996 19.7937 12.2192 
60 1 5.81882 12.22 19.7937 
61 1 4.31015 12.2193 19.7938 
62 1 5.81783 19.7938 12.2192 
63 1 5.8182 19.7948 19.7937 
64 1 4.31077 12.2192 12.2192 
65 1 8.85178 15.2525 12.2192 
66 1 1.27719 16.7603 19.7939 
67 1 8.85169 16.7615 19.7938 
68 1 1.27702 15.2553 12.219 
69 1 1.27719 16.7608 12.2192 
70 1 8.85185 15.2529 19.7946 
71 1 1.27722 15.2528 19.7938 
72 1 8.85175 16.7608 12.2192 
73 1 8.85158 12.2203 15.2512 
74 1 1.27723 19.7938 16.7605 
75 1 1.27722 12.2192 16.7611 
76 1 8.85181 19.7949 15.253 
77 1 8.85175 19.7947 16.7611 
78 1 1.27702 12.219 15.2553 
79 1 1.2772 19.7938 15.2524 
80 1 8.85191 12.2202 16.7599 
105 1 7.00558 12.3166 12.3166 
106 1 3.12233 19.6966 19.6964 
107 1 3.12309 19.6964 12.3166 
108 1 7.00628 12.3166 19.6965 
109 1 3.12301 12.3166 19.6964 
110 1 7.007 19.6965 12.3166 
111 1 7.00612 19.6974 19.6964 
112 1 3.12255 12.3164 12.3164 
113 1 8.75446 14.0649 12.3165 
114 1 1.37451 17.9494 19.6964 
115 1 8.75437 17.9489 19.6963 
116 1 1.3745 14.063 12.3166 
117 1 1.37457 17.9492 12.3166 
118 1 8.75447 14.0652 19.6966 
119 1 1.37463 14.0649 19.6964 
120 1 8.75447 17.9485 12.3165 
121 1 8.7545 12.3166 14.0662 
122 1 1.37453 19.6964 17.9482 
123 1 1.37454 12.3166 17.9489 
124 1 8.75436 19.6975 14.0641 
125 1 8.75436 19.6974 17.9481 
126 1 1.37449 12.3166 14.0629 
127 1 1.37463 19.6964 14.0647 
128 1 8.75443 12.3176 17.9497 
137 1 9.40992 11.6606 11.6608 
138 1 0.717511 20.3525 20.3536 
139 1 0.717768 20.3527 11.6595 
140 1 9.41106 11.6603 20.3524 
141 1 0.717745 11.6603 20.3535 
142 1 9.41059 20.3535 11.6608 
143 1 9.41059 20.3532 20.3532 
144 1 0.719309 11.6611 11.661 
1 1 19.4594 1.61082 1.6109 
2 1 12.5541 8.51631 8.51652 
3 1 12.5531 8.51754 1.61015 
4 1 19.4588 1.61066 8.51691 
5 1 12.5537 1.6099 8.51756 
6 1 19.4593 8.51725 1.61145 
7 1 19.5035 8.51033 8.50319 
8 1 12.5537 1.61068 1.61166 
17 1 21.0493 0.0220398 0.0212009 
18 1 10.9632 10.1075 10.1075 
19 1 10.9629 10.1079 0.0219411 
20 1 21.0493 0.0227586 10.108 
21 1 10.9631 0.0202918 10.1067 
22 1 21.0494 10.1063 0.0214576 
23 1 21.047 10.1064 10.1066 
24 1 10.964 0.0216252 0.0208653 
33 1 16.7608 1.27622 1.27727 
34 1 15.272 8.8599 8.84689 
35 1 15.2511 8.85064 1.27735 
36 1 16.7618 1.27632 8.85165 
37 1 15.2515 1.27632 8.85169 
38 1 16.7602 8.85092 1.27723 
39 1 16.6922 8.83485 8.81365 
40 1 15.2525 1.27622 1.27721 
41 1 19.7938 4.31015 1.27724 
42 1 12.2192 5.82071 8.8514 
43 1 19.793 5.81242 8.85311 
44 1 12.2193 4.3094 1.2772 
45 1 12.219 5.81581 1.27611 
46 1 19.794 4.31293 8.85185 
47 1 12.219 4.31189 8.85207 
48 1 19.7938 5.81809 1.27722 
49 1 19.7937 1.27625 4.30969 
50 1 12.2192 8.85055 5.82025 
51 1 12.219 1.27702 5.81641 
52 1 19.794 8.85165 4.31211 
53 1 19.7931 8.85303 5.81225 
54 1 12.2192 1.2763 4.31008 
55 1 12.219 8.85103 4.31186 
56 1 19.7936 1.27638 5.81991 
81 1 17.9481 1.37364 1.37453 
82 1 14.0586 8.75463 8.75443 
83 1 14.0658 8.75371 1.37432 
84 1 17.9472 1.3736 8.75442 
85 1 14.0656 1.3734 8.75459 
86 1 17.9487 8.75428 1.3745 
87 1 17.9295 8.77303 8.7992 
88 1 14.0645 1.37368 1.37467 
89 1 19.6963 3.1217 1.37458 
90 1 12.3154 7.00511 8.75373 
91 1 19.6971 7.01079 8.75415 
92 1 12.3166 3.12215 1.37465 
93 1 12.3164 7.00769 1.37357 
94 1 19.6956 3.1204 8.75429 
95 1 12.3165 3.11994 8.75447 
96 1 19.6965 7.00606 1.37447 
97 1 19.6964 1.3736 3.1222 
98 1 12.3152 8.75364 7.0055 
99 1 12.3165 1.37454 7.00786 
100 1 19.6964 8.75437 3.12175 
101 1 19.6968 8.75388 7.01093 
102 1 12.3167 1.37361 3.12278 
103 1 12.3164 8.75346 3.12003 
104 1 19.6965 1.37354 7.00449 
129 1 20.3534 0.717827 0.71698 
130 1 11.6594 9.41015 9.41003 
131 1 11.6601 9.40983 0.719022 
132 1 20.3532 0.718427 9.41161 
133 1 11.6602 0.717279 9.41 
134 1 20.3531 9.41053 0.717822 
135 1 20.3529 9.40938 9.40931 
136 1 11.6604 0.717784 0.717766 
145 2 17.9874 8.75473 10.1177 
146 2 17.8048 8.71848 11.5993 
147 3 17.6856 9.61154 11.8809 
ITEM: TIMESTEP
20
ITEM: NUMBER OF ATOMS
147
ITEM: BOX BOUNDS pp pp pp
0.0000000000000000e+00 2.1884000000000000e+01
0.0000000000000000e+00 2.1885999999999999e+01
0.0000000000000000e+00 2.1885000000000002e+01
ITEM: ATOMS id type x y z 
9 1 8.51243 12.5585 12.5587 
10 1 1.6158 19.4551 19.4547 
11 1 1.6163 19.4551 12.5583 
12 1 8.51292 12.5585 19.4551 
13 1 1.6163 12.5586 19.4552 
14 1 8.51277 19.4552 12.5583 
15 1 8.51264 19.4554 19.4548 
16 1 1.61606 12.5583 12.5584 
25 1 10.1039 10.9665 10.9666 
26 1 0.0228885 21.0475 21.0487 
27 1 0.0229514 21.0476 10.9644 
28 1 10.1059 10.9653 21.0472 
29 1 0.022924 10.9657 21.0483 
30 1 10.1055 21.0486 10.9659 
31 1 10.1057 21.0479 21.0483 
32 1 0.0211786 10.9629 10.9628 
57 1 5.81558 12.2204 12.2204 
58 1 4.31265 19.7933 19.7927 
59 1 4.31316 19.7926 12.2204 
60 1 5.81592 12.221 19.7925 
61 1 4.31327 12.2205 19.7926 
62 1 5.81586 19.7926 12.2204 
63 1 5.81562 19.7936 19.7925 
64 1 4.31273 12.2204 12.2204 
65 1 8.85066 15.2552 12.2203 
66 1 1.2784 16.7581 19.7927 
67 1 8.85052 16.7586 19.7927 
68 1 1.27843 15.2552 12.2204 
69 1 1.27837 16.7582 12.2204 
70 1 8.8507 15.2558 19.7932 
71 1 1.2784 15.2555 19.7926 
72 1 8.85061 16.7583 12.2204 
73 1 8.85055 12.2212 15.2557 
74 1 1.27839 19.7926 16.7578 
75 1 1.27838 12.2204 16.7582 
76 1 8.85057 19.7937 15.2553 
77 1 8.85059 19.7936 16.7579 
78 1 1.27844 12.2204 15.2551 
79 1 1.27836 19.7926 15.2551 
80 1 8.85066 12.2214 16.7581 
105 1 7.00419 12.3173 12.3175 
106 1 3.12416 19.6959 19.6955 
107 1 3.12459 19.6956 12.3174 
108 1 7.00452 12.3176 19.6958 
109 1 3.12471 12.3175 19.6956 
110 1 7.0044 19.6958 12.3175 
111 1 7.00412 19.6965 19.6955 
112 1 3.12404 12.3174 12.3173 
113 1 8.75367 14.0667 12.3173 
114 1 1.37525 17.9467 19.6956 
115 1 8.75346 17.9472 19.6955 
116 1 1.37525 14.0666 12.3173 
117 1 1.37537 17.9467 12.3174 
118 1 8.75366 14.0672 19.696 
119 1 1.37545 14.067 19.6955 
120 1 8.7536 17.947 12.3174 
121 1 8.75361 12.3176 14.067 
122 1 1.37527 19.6956 17.9464 
123 1 1.37533 12.3174 17.9467 
124 1 8.75356 19.6966 14.0668 
125 1 8.75352 19.6965 17.9465 
126 1 1.37523 12.3173 14.0665 
127 1 1.37542 19.6956 14.0665 
128 1 8.75372 12.3183 17.9467 
137 1 9.4102 11.6605 11.6604 
138 1 0.717117 20.3528 20.3542 
139 1 0.717282 20.3528 11.6589 
140 1 9.41214 11.6596 20.3534 
141 1 0.717403 11.66 20.3535 
142 1 9.41136 20.3546 11.66 
143 1 9.41107 20.3542 20.3542 
144 1 0.715811 11.658 11.6574 
1 1 19.4546 1.61558 1.6155 
2 1 12.5564 8.51026 8.51123 
3 1 12.5579 8.51237 1.61447 
4 1 19.4553 1.6187 8.51257 
5 1 12.5581 1.61454 8.51255 
6 1 19.4553 8.513 1.61963 
7 1 19.5258 8.50014 8.48909 
8 1 12.5583 1.61554 1.6162 
17 1 21.048 0.0230242 0.0222497 
18 1 10.963 10.1068 10.1067 
19 1 10.9648 10.1056 0.0239747 
20 1 21.0479 0.0236214 10.1065 
21 1 10.9652 0.0222882 10.105 
22 1 21.0478 10.1051 0.0225829 
23 1 21.044 10.1056 10.106 
24 1 10.9655 0.0229209 0.022463 
33 1 16.7578 1.27736 1.27843 
34 1 15.2607 8.85986 8.84194 
35 1 15.2551 8.84962 1.27849 
36 1 16.7577 1.27733 8.8505 
37 1 15.2554 1.27743 8.85068 
38 1 16.7581 8.84973 1.27841 
39 1 16.6824 8.82112 8.76426 
40 1 15.2552 1.27739 1.2784 
41 1 19.7926 4.31267 1.27848 
42 1 12.2192 5.81608 8.84968 
43 1 19.7873 5.81257 8.85405 
44 1 12.2205 4.31233 1.27827 
45 1 12.2203 5.81491 1.27751 
46 1 19.7926 4.3138 8.85028 
47 1 12.2205 4.31182 8.85097 
48 1 19.7925 5.8158 1.27837 
49 1 19.7926 1.27741 4.31257 
50 1 12.2193 8.8489 5.81652 
51 1 12.2203 1.27828 5.81566 
52 1 19.7927 8.85016 4.31567 
53 1 19.788 8.8539 5.80679 
54 1 12.2204 1.27751 4.31302 
55 1 12.2205 8.84992 4.31224 
56 1 19.7925 1.27741 5.8159 
81 1 17.9464 1.37453 1.37529 
82 1 14.048 8.75825 8.75139 
83 1 14.0666 8.75298 1.375 
84 1 17.9462 1.37416 8.75362 
85 1 14.0667 1.37416 8.7537 
86 1 17.9461 8.75353 1.37518 
87 1 17.9118 8.78813 8.89578 
88 1 14.0666 1.3745 1.37547 
89 1 19.6956 3.12417 1.37533 
90 1 12.3128 7.00305 8.75167 
91 1 19.7037 7.00597 8.75021 
92 1 12.3175 3.12371 1.37555 
93 1 12.3168 7.00374 1.37383 
94 1 19.6953 3.12452 8.75295 
95 1 12.3171 3.12366 8.75405 
96 1 19.6958 7.00376 1.37523 
97 1 19.6957 1.37445 3.12414 
98 1 12.3126 8.75139 7.00323 
99 1 12.3172 1.37502 7.00441 
100 1 19.6956 8.75297 3.12477 
101 1 19.7028 8.75125 7.00332 
102 1 12.3175 1.37443 3.12433 
103 1 12.3169 8.75336 3.124 
104 1 19.6955 1.3744 7.00434 
129 1 20.3537 0.717411 0.717067 
130 1 11.6531 9.41177 9.41175 
131 1 11.6591 9.41135 0.717445 
132 1 20.3534 0.718082 9.41174 
133 1 11.659 0.716269 9.41091 
134 1 20.3536 9.41079 0.717621 
135 1 20.3579 9.40606 9.40446 
136 1 11.6594 0.716933 0.716914 
145 2 18.0229 8.76219 10.1035 
146 2 17.8041 8.7264 11.5985 
147 3 17.6884 9.60034 11.8769 
ITEM: TIMESTEP
30
ITEM: NUMBER OF ATOMS
147
ITEM: BOX BOUNDS pp pp pp
0.0000000000000000e+00 2.1884000000000000e+01
0.0000000000000000e+00 2.1885999999999999e+01
0.0000000000000000e+00 2.1885000000000002e+01
ITEM: ATOMS id type x y z 
9 1 8.50834 12.5626 12.5626 
10 1 1.61931 19.4513 19.4514 
11 1 1.61965 19.4511 12.5615 
12 1 8.50948 12.5624 19.4517 
13 1 1.61972 12.562 19.4512 
14 1 8.5092 19.4519 12.5621 
15 1 8.50882 19.4521 19.4514 
16 1 1.61801 12.5602 12.5601 
25 1 10.1031 10.9678 10.9674 
26 1 0.0226278 21.0477 21.049 
27 1 0.0226577 21.0477 10.9643 
28 1 10.1067 10.9648 21.0479 
29 1 0.022696 10.9654 21.048 
30 1 10.1059 21.0493 10.9654 
31 1 10.1057 21.0486 21.0488 
32 1 0.0177628 10.9609 10.9605 
57 1 5.81513 12.2213 12.2214 
58 1 4.31261 19.7923 19.7916 
59 1 4.3129 19.7916 12.2214 
60 1 5.81642 12.2219 19.7915 
61 1 4.3129 12.2216 19.7916 
62 1 5.81604 19.7917 12.2214 
63 1 5.81572 19.7925 19.7915 
64 1 4.31152 12.2215 12.2215 
65 1 8.84972 15.2557 12.2213 
66 1 1.27936 16.7583 19.7916 
67 1 8.84953 16.7587 19.7917 
68 1 1.27954 15.2546 12.2215 
69 1 1.27942 16.7578 12.2214 
70 1 8.84966 15.2554 19.7921 
71 1 1.27941 15.2552 19.7916 
72 1 8.84961 16.7586 12.2214 
73 1 8.84964 12.222 15.2556 
74 1 1.27935 19.7916 16.758 
75 1 1.27944 12.2214 16.758 
76 1 8.84957 19.7927 15.255 
77 1 8.84958 19.7926 16.7582 
78 1 1.27958 12.2216 15.2542 
79 1 1.27937 19.7916 15.2548 
80 1 8.8497 12.2223 16.7584 
105 1 7.00437 12.3193 12.3194 
106 1 3.12328 19.694 19.6936 
107 1 3.1235 19.6937 12.3194 
108 1 7.00545 12.3197 19.6938 
109 1 3.12353 12.3195 19.6937 
110 1 7.00545 19.6939 12.3194 
111 1 7.00515 19.6945 19.6935 
112 1 3.12256 12.3194 12.3193 
113 1 8.75171 14.0662 12.3193 
114 1 1.37723 17.9478 19.6937 
115 1 8.75146 17.9481 19.6936 
116 1 1.37723 14.0651 12.3193 
117 1 1.37733 17.9474 12.3193 
118 1 8.75172 14.0663 19.6941 
119 1 1.37745 14.0658 19.6936 
120 1 8.75167 17.948 12.3194 
121 1 8.75165 12.3196 14.0662 
122 1 1.37718 19.6937 17.9474 
123 1 1.37729 12.3194 17.9473 
124 1 8.75159 19.6946 14.0656 
125 1 8.75157 19.6945 17.9476 
126 1 1.37725 12.3193 14.0653 
127 1 1.37737 19.6937 14.0654 
128 1 8.7518 12.3202 17.9482 
137 1 9.40752 11.6626 11.6632 
138 1 0.717662 20.353 20.3534 
139 1 0.717786 20.3531 11.6596 
140 1 9.41084 11.6602 20.3529 
141 1 0.718182 11.6605 20.3536 
142 1 9.41081 20.3533 11.6603 
143 1 9.41099 20.3533 20.3531 
144 1 0.713877 11.6559 11.6562 
1 1 19.4515 1.61897 1.61929 
2 1 12.5492 8.50585 8.50588 
3 1 12.5614 8.50845 1.61775 
4 1 19.4511 1.62306 8.50935 
5 1 12.5615 1.61744 8.50895 
6 1 19.4518 8.50941 1.62518 
7 1 19.5268 8.49667 8.48484 
8 1 12.5617 1.61888 1.61953 
17 1 21.0485 0.0227421 0.0223988 
18 1 10.9596 10.1086 10.1086 
19 1 10.9642 10.1065 0.0231795 
20 1 21.0477 0.0229661 10.106 
21 1 10.9642 0.0218106 10.1057 
22 1 21.0477 10.1052 0.0220834 
23 1 21.0398 10.1025 10.1029 
24 1 10.9649 0.0224551 0.0220305 
33 1 16.7577 1.27835 1.27938 
34 1 15.2625 8.85758 8.82355 
35 1 15.2551 8.84876 1.27952 
36 1 16.7587 1.27807 8.84931 
37 1 15.2551 1.2784 8.84973 
38 1 16.7585 8.84859 1.27911 
39 1 16.6928 8.81525 8.74732 
40 1 15.2553 1.27834 1.2794 
41 1 19.7916 4.31287 1.27946 
42 1 12.2184 5.81518 8.84787 
43 1 19.7843 5.8138 8.85282 
44 1 12.2214 4.3127 1.27921 
45 1 12.2212 5.81504 1.27851 
46 1 19.7898 4.31758 8.84978 
47 1 12.2213 4.31062 8.8503 
48 1 19.7913 5.81615 1.27908 
49 1 19.7916 1.27844 4.3131 
50 1 12.2184 8.8471 5.81556 
51 1 12.2212 1.27919 5.81542 
52 1 19.7904 8.84975 4.3156 
53 1 19.7848 8.85309 5.81022 
54 1 12.2214 1.27854 4.3132 
55 1 12.2213 8.84929 4.31076 
56 1 19.7912 1.2782 5.81622 
81 1 17.9478 1.37649 1.37721 
82 1 14.05 8.75987 8.75194 
83 1 14.0657 8.75107 1.37676 
84 1 17.9484 1.37696 8.7515 
85 1 14.0657 1.37604 8.75179 
86 1 17.9478 8.75143 1.37779 
87 1 17.9125 8.78871 8.96068 
88 1 14.0653 1.37647 1.37737 
89 1 19.6937 3.12302 1.37724 
90 1 12.3107 7.00322 8.74851 
91 1 19.7068 7.01167 8.7439 
92 1 12.3195 3.12244 1.37744 
93 1 12.3188 7.00482 1.37577 
94 1 19.6938 3.12672 8.75034 
95 1 12.3193 3.12111 8.75237 
96 1 19.6938 7.00544 1.37786 
97 1 19.6938 1.37642 3.12309 
98 1 12.3104 8.74794 7.00387 
99 1 12.3191 1.37681 7.00528 
100 1 19.6938 8.75011 3.12469 
101 1 19.704 8.74738 7.00509 
102 1 12.3194 1.37639 3.12311 
103 1 12.3191 8.7516 3.1215 
104 1 19.6936 1.37701 7.0056 
129 1 20.3526 0.717618 0.717145 
130 1 11.6481 9.40998 9.41013 
131 1 11.66 9.41027 0.717735 
132 1 20.3534 0.719324 9.41157 
133 1 11.6603 0.716741 9.41046 
134 1 20.3535 9.41069 0.718821 
135 1 20.3637 9.3992 9.39493 
136 1 11.6603 0.717321 0.717799 
145 2 18.044 8.77028 10.0683 
146 2 17.8021 8.72419 11.6129 
147 3 17.6894 9.60081 11.8814 
ITEM: TIMESTEP
40
ITEM: NUMBER OF ATOMS
147
ITEM: BOX BOUNDS pp pp pp
0.0000000000000000e+00 2.1884000000000000e+01
0.0000000000000000e+00 2.1885999999999999e+01
0.0000000000000000e+00 2.1885000000000002e+01
ITEM: ATOMS id type x y z 
9 1 8.50708 12.5636 12.5637 
10 1 1.61953 19.4513 19.4512 
11 1 1.61976 19.4511 12.5617 
12 1 8.50924 12.5624 19.4516 
13 1 1.6199 12.5622 19.4511 
14 1 8.50912 19.4517 12.5621 
15 1 8.5089 19.4518 19.4512 
16 1 1.61669 12.5588 12.5588 
25 1 10.1027 10.968 10.968 
26 1 0.0229433 21.0477 21.0485 
27 1 0.0229231 21.0478 10.9646 
28 1 10.1062 10.965 21.0478 
29 1 0.022979 10.9655 21.048 
30 1 10.1057 21.049 10.9654 
31 1 10.1057 21.0485 21.0485 
32 1 0.0163369 10.9602 10.9604 
57 1 5.81368 12.2219 12.222 
58 1 4.31322 19.7916 19.791 
59 1 4.31348 19.791 12.222 
60 1 5.81546 12.2224 19.7909 
61 1 4.31359 12.2222 19.7909 
62 1 5.81532 19.791 12.222 
63 1 5.81511 19.7919 19.7909 
64 1 4.31097 12.2223 12.2223 
65 1 8.84919 15.2564 12.2218 
66 1 1.27997 16.7576 19.791 
67 1 8.84892 16.7582 19.7911 
68 1 1.28032 15.2548 12.2223 
69 1 1.28011 16.7569 12.2221 
70 1 8.84904 15.2563 19.7914 
71 1 1.28005 15.2558 19.791 
72 1 8.84903 16.7582 12.222 
73 1 8.84912 12.2225 15.2564 
74 1 1.27997 19.791 16.7573 
75 1 1.28011 12.2221 16.7569 
76 1 8.84895 19.7921 15.2558 
77 1 8.84896 19.792 16.7576 
78 1 1.28033 12.2223 15.2549 
79 1 1.28002 19.791 15.2554 
80 1 8.8491 12.2229 16.7581 
105 1 7.00296 12.3204 12.3205 
106 1 3.12402 19.693 19.6926 
107 1 3.12417 19.6926 12.3204 
108 1 7.00472 12.3207 19.6929 
109 1 3.12425 12.3205 19.6927 
110 1 7.00457 19.6929 12.3204 
111 1 7.00433 19.6935 19.6926 
112 1 3.1229 12.3201 12.3201 
113 1 8.75061 14.0674 12.3204 
114 1 1.37823 17.9468 19.6927 
115 1 8.75042 17.9474 19.6926 
116 1 1.37796 14.0651 12.32 
117 1 1.37832 17.9461 12.3203 
118 1 8.75077 14.067 19.6932 
119 1 1.37846 14.0665 19.6926 
120 1 8.75064 17.9474 12.3205 
121 1 8.75055 12.3207 14.0673 
122 1 1.37817 19.6927 17.9466 
123 1 1.37829 12.3204 17.9461 
124 1 8.7506 19.6936 14.0666 
125 1 8.75055 19.6935 17.9468 
126 1 1.37802 12.3201 14.0649 
127 1 1.37836 19.6926 14.0661 
128 1 8.75086 12.3212 17.9474 
137 1 9.40633 11.6644 11.6644 
138 1 0.718237 20.3523 20.3531 
139 1 0.718053 20.3525 11.6599 
140 1 9.41018 11.6614 20.352 
141 1 0.718526 11.6609 20.3528 
142 1 9.4099 20.3527 11.6613 
143 1 9.40997 20.3527 20.3525 
144 1 0.712834 11.6553 11.6554 
1 1 19.4511 1.61925 1.61945 
2 1 12.5472 8.50576 8.50619 
3 1 12.5617 8.50815 1.61766 
4 1 19.4518 1.62504 8.50956 
5 1 12.562 1.61736 8.50874 
6 1 19.4521 8.50956 1.62543 
7 1 19.5219 8.49823 8.48623 
8 1 12.5619 1.619 1.61983 
17 1 21.048 0.0229065 0.0226286 
18 1 10.9583 10.1087 10.1086 
19 1 10.9645 10.1063 0.0232731 
20 1 21.047 0.0233815 10.1054 
21 1 10.9645 0.02206 10.1057 
22 1 21.047 10.1046 0.022545 
23 1 21.04 10.1022 10.102 
24 1 10.9651 0.022418 0.0224227 
33 1 16.7575 1.27902 1.28002 
34 1 15.2655 8.85401 8.81137 
35 1 15.2558 8.84819 1.28007 
36 1 16.7586 1.27872 8.84855 
37 1 15.2564 1.279 8.84911 
38 1 16.7584 8.84794 1.2797 
39 1 16.692 8.81386 8.73493 
40 1 15.2558 1.27898 1.28003 
41 1 19.7909 4.31328 1.28005 
42 1 12.2179 5.81413 8.84666 
43 1 19.7842 5.81577 8.8509 
44 1 12.222 4.31301 1.27982 
45 1 12.2218 5.81439 1.27911 
46 1 19.788 4.31938 8.84918 
47 1 12.2218 4.31088 8.84975 
48 1 19.7906 5.81594 1.27967 
49 1 19.7909 1.27908 4.3136 
50 1 12.2179 8.84581 5.81475 
51 1 12.2218 1.27975 5.8148 
52 1 19.7891 8.8494 4.31753 
53 1 19.784 8.85217 5.80986 
54 1 12.222 1.27921 4.31324 
55 1 12.2218 8.84878 4.31124 
56 1 19.7905 1.27882 5.81593 
81 1 17.9469 1.37748 1.37819 
82 1 14.0513 8.76138 8.74945 
83 1 14.0666 8.75009 1.37764 
84 1 17.9476 1.37834 8.75042 
85 1 14.0668 1.37689 8.75082 
86 1 17.9471 8.75038 1.37917 
87 1 17.9079 8.78647 8.96533 
88 1 14.0662 1.37744 1.37833 
89 1 19.6927 3.12398 1.37826 
90 1 12.3092 7.00238 8.74657 
91 1 19.7072 7.00994 8.74176 
92 1 12.3205 3.12323 1.37838 
93 1 12.3198 7.00395 1.37671 
94 1 19.6924 3.12885 8.74924 
95 1 12.3204 3.12188 8.75167 
96 1 19.6928 7.0045 1.3792 
97 1 19.6928 1.37741 3.12429 
98 1 12.3089 8.74592 7.00283 
99 1 12.3201 1.37765 7.00447 
100 1 19.6925 8.74894 3.12556 
101 1 19.7027 8.74604 7.00544 
102 1 12.3204 1.37735 3.12406 
103 1 12.3202 8.75084 3.12228 
104 1 19.6924 1.3784 7.00533 
129 1 20.3523 0.718146 0.718 
130 1 11.646 9.408 9.40824 
131 1 11.6607 9.40956 0.718232 
132 1 20.3527 0.720126 9.41083 
133 1 11.6608 0.717293 9.40956 
134 1 20.3531 9.41038 0.719796 
135 1 20.3672 9.39573 9.3904 
136 1 11.6609 0.718267 0.718319 
145 2 18.0693 8.77452 10.0824 
146 2 17.8008 8.72266 11.6212 
147 3 17.6899 9.60171 11.8851 
ITEM: TIMESTEP
50
ITEM: NUMBER OF ATOMS
147
ITEM: BOX BOUNDS pp pp pp
0.0000000000000000e+00 2.1884000000000000e+01
0.0000000000000000e+00 2.1885999999999999e+01
0.0000000000000000e+00 2.1885000000000002e+01
ITEM: ATOMS id type x y z 
9 1 8.50597 12.5646 12.5643 
10 1 1.61979 19.451 19.4511 
11 1 1.61974 19.4506 12.5617 
12 1 8.50898 12.5629 19.4514 
13 1 1.61998 12.5623 19.4505 
14 1 8.50867 19.4517 12.5626 
15 1 8.50852 19.4516 19.4511 
16 1 1.61458 12.5574 12.5584 
25 1 10.1016 10.9693 10.9692 
26 1 0.0232525 21.0476 21.0484 
27 1 0.0228364 21.0478 10.9646 
28 1 10.1057 10.9658 21.0474 
29 1 0.0230673 10.9656 21.0477 
30 1 10.1051 21.0485 10.966 
31 1 10.1052 21.048 21.048 
32 1 0.0147729 10.9598 10.96 
57 1 5.81281 12.2226 12.2227 
58 1 4.3131 19.7909 19.7903 
59 1 4.31317 19.7902 12.2228 
60 1 5.8154 12.2231 19.7902 
61 1 4.31328 12.223 19.7902 
62 1 5.81527 19.7904 12.2227 
63 1 5.81516 19.7912 19.7902 
64 1 4.31196 12.223 12.223 
65 1 8.84863 15.2568 12.2224 
66 1 1.28069 16.7577 19.7903 
67 1 8.8482 16.7582 19.7904 
68 1 1.28125 15.2546 12.2232 
69 1 1.28096 16.7563 12.223 
70 1 8.84836 15.2563 19.7907 
71 1 1.2808 15.2555 19.7902 
72 1 8.8484 16.7585 12.2226 
73 1 8.84859 12.2231 15.2568 
74 1 1.28068 19.7903 16.7574 
75 1 1.28097 12.223 16.7567 
76 1 8.84827 19.7914 15.2557 
77 1 8.84825 19.7913 16.7578 
78 1 1.28145 12.2234 15.2521 
79 1 1.28079 19.7902 15.2552 
80 1 8.84849 12.2235 16.7583 
105 1 7.00202 12.3217 12.3218 
106 1 3.12366 19.6919 19.6915 
107 1 3.12365 19.6914 12.3215 
108 1 7.00485 12.3219 19.6917 
109 1 3.1238 12.3217 19.6915 
110 1 7.00477 19.6917 12.3215 
111 1 7.00476 19.6923 19.6914 
112 1 3.11996 12.3205 12.3206 
113 1 8.74917 14.0673 12.3218 
114 1 1.3794 17.9473 19.6915 
115 1 8.74929 17.9477 19.6914 
116 1 1.37834 14.0636 12.3205 
117 1 1.37949 17.9461 12.3215 
118 1 8.74961 14.0667 19.692 
119 1 1.37965 14.066 19.6914 
120 1 8.74951 17.9479 12.3216 
121 1 8.74914 12.3221 14.0674 
122 1 1.3793 19.6916 17.9468 
123 1 1.37947 12.3216 17.9459 
124 1 8.74943 19.6924 14.0662 
125 1 8.74941 19.6924 17.9472 
126 1 1.37853 12.3206 14.065 
127 1 1.37951 19.6915 14.0657 
128 1 8.74967 12.3223 17.948 
137 1 9.40767 11.6629 11.6631 
138 1 0.717357 20.3532 20.3537 
139 1 0.717253 20.3534 11.6591 
140 1 9.41134 11.6599 20.3535 
141 1 0.717743 11.66 20.3536 
142 1 9.41118 20.3539 11.6599 
143 1 9.41125 20.3539 20.3536 
144 1 0.711201 11.6542 11.6542 
1 1 19.451 1.61949 1.61997 
2 1 12.5473 8.50603 8.50628 
3 1 12.562 8.50769 1.61763 
4 1 19.4521 1.62648 8.50965 
5 1 12.5625 1.61748 8.50834 
6 1 19.4523 8.50954 1.62619 
7 1 19.5182 8.49867 8.48793 
8 1 12.5622 1.61929 1.6197 
17 1 21.0477 0.0230687 0.022979 
18 1 10.9575 10.1075 10.1075 
19 1 10.965 10.1056 0.0234816 
20 1 21.0466 0.0234588 10.1048 
21 1 10.965 0.02249 10.1052 
22 1 21.0469 10.1045 0.0226961 
23 1 21.0413 10.1003 10.0991 
24 1 10.9656 0.0228392 0.0228174 
33 1 16.7577 1.27976 1.28073 
34 1 15.2648 8.85032 8.79698 
35 1 15.2561 8.84749 1.28067 
36 1 16.7594 1.27949 8.84765 
37 1 15.2565 1.27967 8.84834 
38 1 16.7586 8.84722 1.28048 
39 1 16.6943 8.8109 8.72368 
40 1 15.2557 1.27973 1.28075 
41 1 19.7901 4.31328 1.28072 
42 1 12.2171 5.81404 8.84486 
43 1 19.7849 5.81824 8.84827 
44 1 12.2228 4.3127 1.28052 
45 1 12.2224 5.81433 1.2798 
46 1 19.7862 4.32053 8.84819 
47 1 12.2224 4.31076 8.8491 
48 1 19.7898 5.81593 1.28043 
49 1 19.7901 1.27983 4.31383 
50 1 12.217 8.84393 5.81521 
51 1 12.2225 1.28043 5.81494 
52 1 19.7876 8.84858 4.3179 
53 1 19.7836 8.85085 5.80996 
54 1 12.2227 1.27993 4.31331 
55 1 12.2224 8.84817 4.31119 
56 1 19.7895 1.27958 5.81652 
81 1 17.9471 1.37866 1.37936 
82 1 14.0502 8.76257 8.74447 
83 1 14.0666 8.74896 1.37863 
84 1 17.9484 1.38014 8.74911 
85 1 14.0671 1.37792 8.74968 
86 1 17.9477 8.74909 1.38074 
87 1 17.9064 8.78424 8.9742 
88 1 14.0663 1.37855 1.37947 
89 1 19.6916 3.12396 1.3794 
90 1 12.3078 7.00256 8.74458 
91 1 19.7057 7.01234 8.73961 
92 1 12.3216 3.12321 1.37951 
93 1 12.321 7.004 1.37785 
94 1 19.6903 3.13012 8.74842 
95 1 12.3218 3.12148 8.75076 
96 1 19.6916 7.00492 1.38071 
97 1 19.6917 1.37858 3.12451 
98 1 12.3074 8.74367 7.00349 
99 1 12.3213 1.37868 7.00452 
100 1 19.6908 8.74799 3.12657 
101 1 19.6995 8.74482 7.00884 
102 1 12.3215 1.37849 3.12384 
103 1 12.3216 8.74992 3.12192 
104 1 19.6912 1.38011 7.00556 
129 1 20.3529 0.717284 0.71718 
130 1 11.6412 9.40869 9.40906 
131 1 11.6594 9.4112 0.716946 
132 1 20.3535 0.720129 9.41151 
133 1 11.6597 0.716025 9.41095 
134 1 20.3539 9.41133 0.71954 
135 1 20.3695 9.39407 9.38793 
136 1 11.6596 0.716935 0.717305 
145 2 18.0989 8.779 10.0874 
146 2 17.7985 8.72105 11.6342 
147 3 17.6906 9.60289 11.8905 
ITEM: TIMESTEP
60
ITEM: NUMBER OF ATOMS
147
ITEM: BOX BOUNDS pp pp pp
0.0000000000000000e+00 2.1884000000000000e+01
0.0000000000000000e+00 2.1885999999999999e+01
0.0000000000000000e+00 2.1885000000000002e+01
ITEM: ATOMS id type x y z 
9 1 8.50574 12.5644 12.5645 
10 1 1.61936 19.4514 19.4513 
11 1 1.61935 19.4509 12.5613 
12 1 8.50915 12.5624 19.4518 
13 1 1.61965 12.5619 19.4509 
14 1 8.50907 19.4519 12.5621 
15 1 8.50903 19.4519 19.4513 
16 1 1.61424 12.557 12.5571 
25 1 10.1017 10.9691 10.9692 
26 1 0.023195 21.0475 21.0482 
27 1 0.0229222 21.0479 10.9647 
28 1 10.1056 10.9656 21.0474 
29 1 0.0232282 10.9656 21.0477 
30 1 10.1052 21.0484 10.9658 
31 1 10.1054 21.0481 21.048 
32 1 0.014005 10.9593 10.9595 
57 1 5.81211 12.223 12.223 
58 1 4.3136 19.7905 19.7899 
59 1 4.31357 19.7899 12.2232 
60 1 5.81483 12.2234 19.7899 
61 1 4.31368 12.2234 19.7898 
62 1 5.81465 19.79 12.2231 
63 1 5.81466 19.7908 19.7898 
64 1 4.31088 12.2235 12.2235 
65 1 8.84832 15.2572 12.2227 
66 1 1.28107 16.7571 19.7899 
67 1 8.84784 16.7578 19.79 
68 1 1.28174 15.2542 12.2237 
69 1 1.28145 16.7559 12.2234 
70 1 8.84799 15.2568 19.7903 
71 1 1.28121 15.256 19.7899 
72 1 8.84808 16.7581 12.2229 
73 1 8.84827 12.2234 15.2572 
74 1 1.28107 19.7899 16.7569 
75 1 1.28145 12.2235 16.7558 
76 1 8.84791 19.791 15.2563 
77 1 8.84788 19.7909 16.7572 
78 1 1.28183 12.2238 15.2538 
79 1 1.2812 19.7899 15.2556 
80 1 8.84816 12.2238 16.758 
105 1 7.00123 12.3222 12.3223 
106 1 3.12437 19.6915 19.6912 
107 1 3.12423 19.6911 12.3218 
108 1 7.00412 12.3222 19.6914 
109 1 3.12439 12.3221 19.6911 
110 1 7.00391 19.6915 12.3219 
111 1 7.00391 19.6921 19.6911 
112 1 3.12049 12.3205 12.3206 
113 1 8.74868 14.0681 12.3222 
114 1 1.37968 17.9464 19.6912 
115 1 8.74896 17.947 19.6912 
116 1 1.37831 14.0642 12.3206 
117 1 1.37977 17.9449 12.3218 
118 1 8.74931 14.0675 19.6918 
119 1 1.37994 14.0668 19.691 
120 1 8.74918 17.9474 12.3219 
121 1 8.74865 12.3226 14.068 
122 1 1.3796 19.6913 17.9461 
123 1 1.37973 12.3218 17.9446 
124 1 8.74913 19.6921 14.067 
125 1 8.74909 19.6921 17.9465 
126 1 1.37855 12.3207 14.0646 
127 1 1.3798 19.6911 14.0663 
128 1 8.74936 12.3226 17.9474 
137 1 9.40651 11.6644 11.6641 
138 1 0.71802 20.3528 20.3533 
139 1 0.717502 20.3528 11.6594 
140 1 9.41075 11.6609 20.3528 
141 1 0.718014 11.6603 20.3529 
142 1 9.41039 20.3534 11.6607 
143 1 9.41037 20.3533 20.3531 
144 1 0.710569 11.6539 11.6541 
1 1 19.4512 1.61925 1.61969 
2 1 12.5463 8.5063 8.50673 
3 1 12.5619 8.5081 1.61731 
4 1 19.4527 1.62686 8.51002 
5 1 12.5624 1.61713 8.50875 
6 1 19.4527 8.50992 1.62611 
7 1 19.5156 8.50068 8.48887 
8 1 12.5618 1.619 1.61964 