ITEM: TIMESTEP
0
ITEM: NUMBER OF ATOMS
201
ITEM: BOX BOUNDS pp pp pp
0.0000000000000000e+00 1.6114000000000001e+01
0.0000000000000000e+00 1.6113000000000000e+01
0.0000000000000000e+00 1.6111999999999998e+01
ITEM: ATOMS id type x y z 
5 1 5.384 5.384 5.384 
65 1 5.66 6.662 2.461 
66 1 5.336 7.323 3.711 
68 1 4.865 6.606 4.866 
79 1 5.364 7.322 1.219 
89 1 6.662 2.461 5.66 
90 1 7.323 3.711 5.336 
92 1 6.606 4.866 4.866 
101 1 7.322 1.219 5.364 
109 1 2.461 5.66 6.662 
110 1 3.71 5.336 7.323 
112 1 4.865 4.866 6.606 
121 1 1.218 5.364 7.322 
129 1 6.662 5.66 2.461 
130 1 7.323 5.336 3.711 
137 1 7.322 5.364 1.219 
141 1 2.461 6.662 5.66 
142 1 3.71 7.323 5.336 
149 1 1.218 7.322 5.364 
153 1 5.66 2.461 6.662 
154 1 5.336 3.711 7.323 
161 1 5.364 1.219 7.322 
7 1 6.662 5.66 13.616 
8 1 7.323 5.336 12.366 
10 1 6.606 4.866 11.211 
21 1 7.322 5.364 14.858 
32 1 1.218 7.322 10.713 
40 1 2.461 6.662 10.417 
41 1 3.71 7.323 10.741 
43 1 4.865 6.606 11.211 
47 1 5.364 1.219 8.755 
55 1 5.66 2.461 9.415 
56 1 5.336 3.711 8.754 
58 1 4.865 4.866 9.471 
64 1 5.629 6.643 16.094 
75 1 5.384 5.384 10.693 
118 1 6.643 5.629 16.094 
168 1 5.66 6.662 13.616 
169 1 5.336 7.323 12.366 
176 1 5.364 7.322 14.858 
182 1 7.322 1.219 10.713 
186 1 6.662 2.461 10.417 
187 1 7.323 3.711 10.741 
191 1 1.218 5.364 8.755 
195 1 2.461 5.66 9.415 
196 1 3.71 5.336 8.754 
9 1 7.322 10.713 1.219 
19 1 6.662 10.417 2.461 
20 1 7.323 10.741 3.711 
22 1 6.606 11.211 4.866 
27 1 1.218 8.755 5.364 
35 1 2.461 9.415 5.66 
36 1 3.71 8.754 5.336 
38 1 4.865 9.471 4.866 
44 1 6.643 16.095 5.63 
50 1 5.66 13.616 6.662 
51 1 5.336 12.366 7.323 
53 1 4.865 11.211 6.606 
62 1 5.364 14.858 7.322 
76 1 5.629 16.095 6.643 
81 1 5.384 10.693 5.384 
167 1 5.364 8.755 1.219 
171 1 5.66 9.415 2.461 
172 1 5.336 8.754 3.711 
180 1 6.662 13.616 5.66 
181 1 7.323 12.366 5.336 
188 1 7.322 14.858 5.364 
194 1 1.218 10.713 7.322 
198 1 2.461 10.417 6.662 
199 1 3.71 10.741 7.323 
17 1 5.384 10.693 10.693 
39 1 6.643 16.095 10.448 
49 1 5.629 9.434 16.095 
73 1 5.364 8.755 14.858 
82 1 5.629 16.095 9.434 
83 1 5.66 9.415 13.616 
84 1 5.336 8.754 12.366 
86 1 4.865 9.471 11.211 
91 1 7.322 14.858 10.713 
99 1 6.662 13.616 10.417 
100 1 7.323 12.366 10.741 
102 1 6.606 11.211 11.211 
113 1 6.643 10.448 16.094 
114 1 2.461 10.417 9.415 
115 1 3.71 10.741 8.754 
117 1 4.865 11.211 9.471 
126 1 1.218 10.713 8.755 
131 1 7.322 10.713 14.858 
135 1 6.662 10.417 13.616 
136 1 7.323 10.741 12.366 
144 1 2.461 9.415 10.417 
145 1 3.71 8.754 10.741 
152 1 1.218 8.755 10.713 
158 1 5.364 14.858 8.755 
162 1 5.66 13.616 9.415 
163 1 5.336 12.366 8.754 
3 1 8.755 5.364 1.219 
13 1 9.415 5.66 2.461 
14 1 8.754 5.336 3.711 
16 1 9.471 4.866 4.866 
24 1 16.095 5.629 6.643 
30 1 13.616 6.662 5.66 
31 1 12.367 7.323 5.336 
33 1 11.212 6.606 4.866 
42 1 14.859 7.322 5.364 
52 1 10.713 1.219 7.322 
60 1 10.417 2.461 6.662 
61 1 10.741 3.711 7.323 
63 1 11.212 4.866 6.606 
87 1 10.693 5.384 5.384 
98 1 16.095 6.643 5.63 
170 1 10.713 7.322 1.219 
174 1 10.417 6.662 2.461 
175 1 10.741 7.323 3.711 
179 1 8.755 1.219 5.364 
183 1 9.415 2.461 5.66 
184 1 8.754 3.711 5.336 
192 1 13.616 5.66 6.662 
193 1 12.367 5.336 7.323 
200 1 14.859 5.364 7.322 
6 1 16.096 5.629 9.434 
23 1 10.693 5.384 10.693 
59 1 10.448 6.643 16.095 
67 1 10.713 7.322 14.858 
77 1 10.417 6.662 13.616 
78 1 10.741 7.323 12.366 
80 1 11.212 6.606 11.211 
93 1 16.096 6.643 10.448 
94 1 9.415 2.461 10.417 
95 1 8.754 3.711 10.741 
97 1 9.471 4.866 11.211 
106 1 8.755 1.219 10.713 
116 1 14.859 5.364 8.755 
123 1 9.434 5.629 16.094 
124 1 13.616 5.66 9.415 
125 1 12.367 5.336 8.754 
127 1 11.212 4.866 9.471 
134 1 8.755 5.364 14.858 
138 1 9.415 5.66 13.616 
139 1 8.754 5.336 12.366 
143 1 14.859 7.322 10.713 
147 1 13.616 6.662 10.417 
148 1 12.367 7.323 10.741 
156 1 10.417 2.461 9.415 
157 1 10.741 3.711 8.754 
164 1 10.713 1.219 8.755 
11 1 10.693 10.693 5.384 
18 1 16.096 10.448 6.643 
29 1 9.434 16.095 5.63 
70 1 10.448 16.095 6.643 
71 1 10.417 9.415 2.461 
72 1 10.741 8.754 3.711 
74 1 11.212 9.471 4.866 
85 1 10.713 8.755 1.219 
96 1 8.755 14.858 5.364 
103 1 16.095 9.434 5.63 
104 1 9.415 13.616 5.66 
105 1 8.754 12.366 5.336 
107 1 9.471 11.211 4.866 
111 1 14.859 10.713 7.322 
119 1 13.616 10.417 6.662 
120 1 12.367 10.741 7.323 
122 1 11.212 11.211 6.606 
132 1 9.415 10.417 2.461 
133 1 8.754 10.741 3.711 
140 1 8.755 10.713 1.219 
146 1 14.859 8.755 5.364 
150 1 13.616 9.415 5.66 
151 1 12.367 8.754 5.336 
155 1 10.713 14.858 7.322 
159 1 10.417 13.616 6.662 
160 1 10.741 12.366 7.323 
1 1 9.415 10.417 13.616 
2 1 8.754 10.741 12.366 
4 1 9.471 11.211 11.211 
12 1 16.096 10.448 9.434 
15 1 8.755 10.713 14.858 
25 1 13.616 9.415 10.417 
26 1 12.367 8.754 10.741 
28 1 11.212 9.471 11.211 
34 1 9.434 16.095 10.448 
37 1 14.859 8.755 10.713 
45 1 10.417 13.616 9.415 
46 1 10.741 12.366 8.754 
48 1 11.212 11.211 9.471 
54 1 10.448 9.434 16.094 
57 1 10.713 14.858 8.755 
69 1 10.693 10.693 10.693 
88 1 10.448 16.095 9.434 
108 1 16.096 9.434 10.448 
128 1 9.434 10.448 16.094 
165 1 10.417 9.415 13.616 
166 1 10.741 8.754 12.366 
173 1 10.713 8.755 14.858 
177 1 9.415 13.616 10.417 
178 1 8.754 12.366 10.741 
185 1 8.755 14.858 10.713 
189 1 13.616 10.417 9.415 
190 1 12.367 10.741 8.754 
197 1 14.859 10.713 8.755 
201 2 9.415 11.767 13.616 
ITEM: TIMESTEP
10
ITEM: NUMBER OF ATOMS
201
ITEM: BOX BOUNDS pp pp pp
0.0000000000000000e+00 1.6114000000000001e+01
0.0000000000000000e+00 1.6113000000000000e+01
0.0000000000000000e+00 1.6111999999999998e+01
ITEM: ATOMS id type x y z 
5 1 5.34094 5.33888 5.34134 
65 1 5.57099 6.59129 2.41895 
66 1 5.38393 7.32269 3.69356 
68 1 4.87444 6.6208 4.87522 
79 1 5.23098 7.30835 1.19777 
89 1 6.59141 2.42007 5.5736 
90 1 7.32426 3.69225 5.38266 
92 1 6.62121 4.87444 4.87626 
101 1 7.30863 1.19996 5.23145 
109 1 2.41988 5.57274 6.59162 
110 1 3.69233 5.38227 7.32337 
112 1 4.87384 4.8743 6.62231 
121 1 1.19739 5.23112 7.30787 
129 1 6.59044 5.57187 2.42134 
130 1 7.32433 5.38255 3.69482 
137 1 7.30954 5.22933 1.19877 
141 1 2.41866 6.5903 5.57325 
142 1 3.69138 7.32192 5.38314 
149 1 1.19668 7.3078 5.23119 
153 1 5.57394 2.42075 6.59032 
154 1 5.38277 3.69275 7.32329 
161 1 5.23096 1.19945 7.30838 
7 1 6.58837 5.57223 13.6575 
8 1 7.32506 5.38533 12.3853 
10 1 6.62177 4.87478 11.2007 
21 1 7.30927 5.22904 14.8787 
32 1 1.19722 7.30713 10.8469 
40 1 2.41762 6.58888 10.5041 
41 1 3.69412 7.32104 10.6907 
43 1 4.87285 6.6251 11.2033 
47 1 5.23088 1.19805 8.76862 
55 1 5.57283 2.41947 9.48628 
56 1 5.38423 3.69092 8.75075 
58 1 4.87447 4.87526 9.45431 
64 1 5.5275 6.56079 16.0967 
75 1 5.33677 5.34223 10.7382 
118 1 6.55751 5.52937 16.0944 
168 1 5.57233 6.58931 13.6584 
169 1 5.38622 7.32118 12.3832 
176 1 5.22949 7.30644 14.8775 
182 1 7.30814 1.19774 10.8461 
186 1 6.58959 2.41921 10.5038 
187 1 7.32463 3.69042 10.6914 
191 1 1.19657 5.2304 8.76719 
195 1 2.41864 5.57154 9.4859 
196 1 3.69096 5.38344 8.75056 
9 1 7.30955 10.8474 1.20497 
19 1 6.591 10.5051 2.41751 
20 1 7.3266 10.6914 3.69189 
22 1 6.62467 11.2011 4.87162 
27 1 1.1964 8.76764 5.23041 
35 1 2.41699 9.48629 5.57158 
36 1 3.68818 8.75112 5.38566 
38 1 4.87443 9.45316 4.8751 
44 1 6.55992 16.0965 5.52977 
50 1 5.56979 13.6588 6.59137 
51 1 5.38636 12.3867 7.32511 
53 1 4.87344 11.2022 6.62351 
62 1 5.23014 14.8803 7.30917 
76 1 5.52904 16.0955 6.56008 
81 1 5.33759 10.7386 5.33827 
167 1 5.22975 8.76794 1.1977 
171 1 5.57069 9.48618 2.41808 
172 1 5.38581 8.75213 3.68909 
180 1 6.5901 13.6588 5.57045 
181 1 7.32231 12.386 5.38635 
188 1 7.30798 14.8816 5.22958 
194 1 1.19657 10.847 7.30774 
198 1 2.41759 10.5051 6.58954 
199 1 3.68958 10.6909 7.3265 
17 1 5.3604 10.7382 10.7415 
39 1 6.55999 16.0936 10.5474 
49 1 5.5187 9.51023 16.0959 
73 1 5.23097 8.77099 14.8733 
82 1 5.53028 16.0961 9.51799 
83 1 5.57734 9.49516 13.66 
84 1 5.38594 8.75958 12.3919 
86 1 4.87741 9.46269 11.2005 
91 1 7.31138 14.8797 10.8468 
99 1 6.59326 13.6561 10.5033 
100 1 7.32525 12.3842 10.6785 
102 1 6.64165 11.2051 11.2042 
113 1 6.56612 10.5353 16.0946 
114 1 2.41778 10.5047 9.48889 
115 1 3.69457 10.6915 8.75796 
117 1 4.87846 11.2015 9.46255 
126 1 1.19738 10.8477 8.76779 
131 1 7.29304 10.8022 14.8809 
135 1 6.61238 10.4968 13.6601 
136 1 7.35944 10.6406 12.365 
144 1 2.41816 9.48767 10.5053 
145 1 3.69513 8.75651 10.6934 
152 1 1.1977 8.76902 10.8473 
158 1 5.23017 14.8805 8.76921 
162 1 5.57223 13.6594 9.48827 
163 1 5.38697 12.3833 8.75622 
3 1 8.7718 5.23093 1.19737 
13 1 9.48753 5.57382 2.41993 
14 1 8.75365 5.38223 3.69322 
16 1 9.45388 4.87423 4.8749 
24 1 16.0956 5.53022 6.55983 
30 1 13.6599 6.58963 5.57313 
31 1 12.3849 7.32228 5.38523 
33 1 11.2028 6.62216 4.87331 
42 1 14.8803 7.30789 5.23095 
52 1 10.8461 1.19963 7.30823 
60 1 10.5034 2.42044 6.59074 
61 1 10.6941 3.69211 7.32393 
63 1 11.2035 4.87428 6.62305 
87 1 10.7363 5.34081 5.34082 
98 1 16.0958 6.55966 5.5309 
170 1 10.8454 7.31143 1.20203 
174 1 10.5034 6.59001 2.4195 
175 1 10.6922 7.32182 3.69138 
179 1 8.76823 1.19891 5.23138 
183 1 9.4858 2.42016 5.57346 
184 1 8.75276 3.69281 5.38287 
192 1 13.6572 5.57243 6.59137 
193 1 12.3846 5.38213 7.3245 
200 1 14.8803 5.23091 7.30854 
6 1 16.0955 5.52921 9.51684 
23 1 10.7361 5.33704 10.7344 
59 1 10.5462 6.55853 16.096 
67 1 10.8523 7.2996 14.882 
77 1 10.5051 6.58319 13.6583 
78 1 10.6927 7.30521 12.3814 
80 1 11.2057 6.62111 11.1995 
93 1 16.0946 6.55857 10.5473 
94 1 9.48675 2.41864 10.5041 
95 1 8.75438 3.69252 10.6923 
97 1 9.45458 4.87432 11.2025 
106 1 8.76896 1.19756 10.8461 
116 1 14.8798 5.23056 8.76806 
123 1 9.51793 5.53164 16.0948 
124 1 13.6578 5.57132 9.485 
125 1 12.3856 5.38271 8.75224 
127 1 11.2035 4.87417 9.45336 
134 1 8.77152 5.23039 14.8808 
138 1 9.48269 5.56763 13.6581 
139 1 8.75504 5.3842 12.3831 
143 1 14.8802 7.3068 10.8465 
147 1 13.6589 6.58899 10.5041 
148 1 12.388 7.32441 10.6902 
156 1 10.504 2.42041 9.48617 
157 1 10.6936 3.69217 8.75233 
164 1 10.8463 1.19834 8.76847 
11 1 10.7383 10.7389 5.33768 
18 1 16.0964 10.5472 6.55864 
29 1 9.51745 16.0978 5.53004 
70 1 10.5475 16.0965 6.55908 
71 1 10.5029 9.48638 2.41981 
72 1 10.6913 8.74846 3.69394 
74 1 11.2028 9.45159 4.87267 
85 1 10.8471 8.76494 1.20097 
96 1 8.76832 14.8818 5.22894 
103 1 16.0952 9.5166 5.5298 
104 1 9.48793 13.6613 5.56964 
105 1 8.75396 12.3856 5.38911 
107 1 9.45393 11.2009 4.87312 
111 1 14.8808 10.8473 7.30795 
119 1 13.6595 10.5058 6.58964 
120 1 12.386 10.6891 7.32522 
122 1 11.2043 11.2043 6.62635 
132 1 9.49089 10.4998 2.41842 
133 1 8.7535 10.6879 3.6883 
140 1 8.7723 10.8418 1.1909 
146 1 14.8822 8.76683 5.23001 
150 1 13.6596 9.48574 5.57015 
151 1 12.3862 8.75175 5.38487 
155 1 10.848 14.8823 7.30915 
159 1 10.5067 13.6612 6.5882 
160 1 10.689 12.3853 7.32331 
1 1 9.4391 10.4742 13.4809 
2 1 8.73496 10.6178 12.2934 
4 1 9.41669 11.1712 11.2301 
12 1 16.0955 10.548 9.51834 
15 1 8.7936 11.0721 14.8692 
25 1 13.6607 9.48897 10.5045 
26 1 12.3799 8.75786 10.6926 
28 1 11.2079 9.45978 11.1979 
34 1 9.51629 16.0923 10.5482 
37 1 14.8789 8.76856 10.8477 
45 1 10.4991 13.6579 9.48849 
46 1 10.6954 12.3825 8.75748 
48 1 11.201 11.2033 9.46491 
54 1 10.5279 9.5269 16.104 
57 1 10.8468 14.8785 8.77112 
69 1 10.71 10.7321 10.7397 
88 1 10.5471 16.0963 9.51857 
108 1 16.0963 9.51858 10.5479 
128 1 9.51347 10.5365 16.0979 
165 1 10.5049 9.42463 13.6464 
166 1 10.6955 8.74306 12.3719 
173 1 10.847 8.77001 14.868 
177 1 9.47843 13.6426 10.5035 
178 1 8.7497 12.3677 10.7021 
185 1 8.7706 14.8725 10.8442 
189 1 13.6575 10.5061 9.48834 
190 1 12.3776 10.6956 8.7587 
197 1 14.8797 10.8478 8.76914 
201 2 9.43866 11.9377 13.8695 
ITEM: TIMESTEP
20
ITEM: NUMBER OF ATOMS
201
ITEM: BOX BOUNDS pp pp pp
0.0000000000000000e+00 1.6114000000000001e+01
0.0000000000000000e+00 1.6113000000000000e+01
0.0000000000000000e+00 1.6111999999999998e+01
ITEM: ATOMS id type x y z 
5 1 5.36148 5.3623 5.36083 
65 1 5.58282 6.59712 2.41578 
66 1 5.36415 7.32615 3.68422 
68 1 4.86227 6.61617 4.86224 
79 1 5.22083 7.30307 1.19385 
89 1 6.59865 2.41323 5.58204 
90 1 7.32511 3.68341 5.36387 
92 1 6.61487 4.86443 4.86313 
101 1 7.30844 1.19296 5.22268 
109 1 2.41331 5.5815 6.59886 
110 1 3.6825 5.3635 7.32552 
112 1 4.86243 4.86285 6.61579 
121 1 1.19237 5.22192 7.30891 
129 1 6.6 5.58114 2.41268 
130 1 7.32488 5.36326 3.68339 
137 1 7.30733 5.2232 1.19302 
141 1 2.4135 6.59923 5.58134 
142 1 3.68289 7.32557 5.36367 
149 1 1.19273 7.30849 5.22246 
153 1 5.58188 2.4139 6.599 
154 1 5.36406 3.68316 7.3257 
161 1 5.22238 1.19273 7.30936 
7 1 6.59844 5.58278 13.6627 
8 1 7.32559 5.36398 12.394 
10 1 6.61365 4.86383 11.2125 
21 1 7.30716 5.22229 14.8834 
32 1 1.19338 7.30865 10.8533 
40 1 2.41513 6.60164 10.4938 
41 1 3.68569 7.32729 10.7139 
43 1 4.86144 6.6188 11.2148 
47 1 5.22308 1.19314 8.76905 
55 1 5.58323 2.41319 9.47903 
56 1 5.36352 3.68356 8.75231 
58 1 4.86396 4.86478 9.46428 
64 1 5.52695 6.55329 16.0953 
75 1 5.36058 5.36518 10.7171 
118 1 6.55667 5.52602 16.0957 
168 1 5.58476 6.59763 13.6587 
169 1 5.36331 7.32575 12.3925 
176 1 5.22099 7.3011 14.8811 
182 1 7.3097 1.19344 10.8539 
186 1 6.59969 2.41459 10.4942 
187 1 7.32493 3.68285 10.7128 
191 1 1.19303 5.22246 8.76969 
195 1 2.413 5.5833 9.47897 
196 1 3.68181 5.36305 8.75229 
9 1 7.30103 10.8563 1.19996 
19 1 6.60007 10.5004 2.41314 
20 1 7.32534 10.7128 3.68783 
22 1 6.61339 11.2146 4.86528 
27 1 1.19346 8.76983 5.22287 
35 1 2.4138 9.47864 5.58395 
36 1 3.68173 8.7521 5.36331 
38 1 4.86435 9.46533 4.86508 
44 1 6.55674 16.0938 5.52634 
50 1 5.58317 13.662 6.6004 
51 1 5.36317 12.3932 7.326 
53 1 4.86178 11.2135 6.6152 
62 1 5.223 14.8829 7.30839 
76 1 5.52618 16.0942 6.55693 
81 1 5.36114 10.7159 5.36332 
167 1 5.21374 8.76463 1.19678 
171 1 5.57894 9.4777 2.41639 
172 1 5.36327 8.75036 3.68579 
180 1 6.59972 13.6625 5.58329 
181 1 7.32623 12.3943 5.3645 
188 1 7.30865 14.8832 5.22342 
194 1 1.19326 10.8537 7.30899 
198 1 2.41546 10.4942 6.60218 
199 1 3.68408 10.7138 7.32971 
17 1 5.38211 10.7175 10.7178 
39 1 6.55709 16.0955 10.5503 
49 1 5.50327 9.50615 16.0978 
73 1 5.21264 8.77028 14.8783 
82 1 5.52739 16.095 9.52128 
83 1 5.58973 9.48966 13.6676 
84 1 5.36494 8.75858 12.4016 
86 1 4.86967 9.47068 11.2111 
91 1 7.31248 14.8894 10.8552 
99 1 6.59022 13.6771 10.4894 
100 1 7.30726 12.3999 10.6902 
102 1 6.63278 11.21 11.2114 
113 1 6.55844 10.5154 16.1067 
114 1 2.41531 10.4926 9.47947 
115 1 3.68529 10.7137 8.75506 
117 1 4.86887 11.2124 9.46963 
126 1 1.19414 10.8533 8.76881 
131 1 7.30422 10.8142 14.8999 
135 1 6.65178 10.4468 13.6688 
136 1 7.38016 10.627 12.36 
144 1 2.41432 9.47814 10.4936 
145 1 3.68653 8.75621 10.7145 
152 1 1.19534 8.76907 10.8531 
158 1 5.22143 14.8857 8.7667 
162 1 5.57565 13.6643 9.47261 
163 1 5.36453 12.3928 8.74995 
3 1 8.76701 5.22246 1.19304 
13 1 9.47827 5.58139 2.41367 
14 1 8.75218 5.36273 3.68448 
16 1 9.46158 4.86357 4.86351 
24 1 16.0954 5.52531 6.55656 
30 1 13.6638 6.59898 5.58224 
31 1 12.3943 7.32629 5.36453 
33 1 11.216 6.6146 4.86467 
42 1 14.884 7.30916 5.2225 
52 1 10.854 1.19267 7.30885 
60 1 10.4952 2.41338 6.59967 
61 1 10.7134 3.68321 7.32491 
63 1 11.2148 4.86342 6.61579 
87 1 10.715 5.36181 5.36213 
98 1 16.0954 6.55639 5.52548 
170 1 10.8558 7.31548 1.19623 
174 1 10.4947 6.59733 2.41489 
175 1 10.7124 7.32226 3.68522 
179 1 8.76891 1.1926 5.22285 
183 1 9.47857 2.41329 5.58231 
184 1 8.75304 3.68521 5.36314 
192 1 13.664 5.58167 6.59894 
193 1 12.3941 5.36268 7.32529 
200 1 14.8843 5.22201 7.30899 
6 1 16.0953 5.52663 9.52108 
23 1 10.7125 5.35289 10.7097 
59 1 10.5519 6.55129 16.0964 
67 1 10.8636 7.30463 14.8858 
77 1 10.4979 6.58112 13.6721 
78 1 10.7179 7.27928 12.3861 
80 1 11.2243 6.60241 11.1966 
93 1 16.0963 6.55716 10.551 
94 1 9.47651 2.41168 10.4948 
95 1 8.75207 3.68365 10.7135 
97 1 9.45996 4.86121 11.2154 
106 1 8.7701 1.19064 10.8531 
116 1 14.8847 5.22227 8.76905 
123 1 9.51769 5.5237 16.0942 
124 1 13.6641 5.5819 9.47853 
125 1 12.3942 5.36237 8.75141 
127 1 11.2157 4.86104 9.45876 
134 1 8.76651 5.22136 14.8858 
138 1 9.47158 5.57345 13.6638 
139 1 8.75148 5.3624 12.3913 
143 1 14.8849 7.30792 10.8539 
147 1 13.6637 6.60045 10.4944 
148 1 12.3971 7.32469 10.7102 
156 1 10.4938 2.41302 9.47826 
157 1 10.7137 3.68249 8.75198 
164 1 10.8533 1.19193 8.76995 
11 1 10.7159 10.7163 5.36365 
18 1 16.0964 10.551 6.55768 
29 1 9.52091 16.0946 5.52714 
70 1 10.5507 16.0942 6.55787 
71 1 10.5023 9.47223 2.4121 
72 1 10.7141 8.74942 3.69091 
74 1 11.2151 9.46372 4.8674 
85 1 10.8496 8.77031 1.1915 
96 1 8.76831 14.8829 5.22308 
103 1 16.0945 9.52055 5.52674 
104 1 9.47782 13.6639 5.58347 
105 1 8.75134 12.3942 5.36452 
107 1 9.46501 11.2161 4.86814 
111 1 14.8831 10.8537 7.30804 
119 1 13.6601 10.4938 6.60264 
120 1 12.3921 10.7138 7.3266 
122 1 11.2157 11.2162 6.61814 
132 1 9.48435 10.4875 2.42555 
133 1 8.75258 10.712 3.68843 
140 1 8.75905 10.8452 1.20789 
146 1 14.8844 8.76899 5.22283 
150 1 13.6638 9.47851 5.58349 
151 1 12.3934 8.75207 5.363 
155 1 10.8536 14.8838 7.30968 
159 1 10.4935 13.6616 6.60086 
160 1 10.715 12.3934 7.32582 
1 1 9.52748 10.567 13.4461 
2 1 8.72935 10.6443 12.2705 
4 1 9.38957 11.1463 11.1891 
12 1 16.0957 10.55 9.52027 
15 1 8.75938 11.2077 14.9506 
25 1 13.6703 9.48236 10.4922 
26 1 12.4037 8.74971 10.7078 
28 1 11.2185 9.45946 11.1975 
34 1 9.51902 16.091 10.5505 
37 1 14.8862 8.76869 10.8543 
45 1 10.4893 13.6603 9.47684 
46 1 10.7134 12.3927 8.75294 
48 1 11.2139 11.2133 9.47231 
54 1 10.5134 9.52653 16.0907 
57 1 10.85 14.8797 8.77129 
69 1 10.7016 10.7035 10.712 
88 1 10.5496 16.0938 9.52062 
108 1 16.0975 9.52101 10.5496 
128 1 9.4784 10.532 16.0942 
165 1 10.4619 9.39435 13.6363 
166 1 10.7306 8.70576 12.3662 
173 1 10.8487 8.77106 14.8656 
177 1 9.4702 13.6483 10.4938 
178 1 8.73321 12.386 10.7271 
185 1 8.77003 14.8787 10.8517 
189 1 13.6644 10.4973 9.47848 
190 1 12.3926 10.7147 8.75345 
197 1 14.8844 10.8544 8.76852 
201 2 9.4745 11.9763 13.9183 
ITEM: TIMESTEP
30
ITEM: NUMBER OF ATOMS
201
ITEM: BOX BOUNDS pp pp pp
0.0000000000000000e+00 1.6114000000000001e+01
0.0000000000000000e+00 1.6113000000000000e+01
0.0000000000000000e+00 1.6111999999999998e+01
ITEM: ATOMS id type x y z 
5 1 5.37104 5.37243 5.37212 
65 1 5.58765 6.60159 2.4122 
66 1 5.3478 7.32675 3.67883 
68 1 4.85798 6.61115 4.85916 
79 1 5.21314 7.30158 1.19211 
89 1 6.60368 2.40869 5.58769 
90 1 7.32579 3.6773 5.34792 
92 1 6.61003 4.85925 4.8599 
101 1 7.30923 1.18928 5.21768 
109 1 2.40839 5.58745 6.6036 
110 1 3.6766 5.3472 7.32637 
112 1 4.85842 4.85862 6.61092 
121 1 1.18912 5.21694 7.3096 
129 1 6.604 5.58597 2.40963 
130 1 7.32632 5.34725 3.67812 
137 1 7.30853 5.21612 1.19003 
141 1 2.40895 6.60427 5.5874 
142 1 3.67674 7.32731 5.34704 
149 1 1.18936 7.30992 5.21747 
153 1 5.58755 2.40899 6.60435 
154 1 5.34775 3.67736 7.32678 
161 1 5.2174 1.18947 7.30929 
7 1 6.60422 5.58707 13.6655 
8 1 7.32587 5.34638 12.3973 
10 1 6.60885 4.85999 11.2166 
21 1 7.306 5.21556 14.8863 
32 1 1.19036 7.30989 10.8587 
40 1 2.41144 6.60768 10.488 
41 1 3.67893 7.33061 10.7302 
43 1 4.8594 6.61363 11.2191 
47 1 5.21782 1.19055 8.76802 
55 1 5.58844 2.40959 9.47362 
56 1 5.34728 3.67848 8.75262 
58 1 4.85914 4.85991 9.46864 
64 1 5.51896 6.55096 16.0934 
75 1 5.37202 5.37466 10.7059 
118 1 6.55133 5.51981 16.0946 
168 1 5.58894 6.60432 13.6634 
169 1 5.34709 7.33276 12.3987 
176 1 5.21417 7.30441 14.8841 
182 1 7.31093 1.19172 10.8595 
186 1 6.60491 2.41039 10.4885 
187 1 7.32553 3.67878 10.7303 
191 1 1.1895 5.21757 8.76886 
195 1 2.40895 5.58901 9.474 
196 1 3.67742 5.34687 8.75232 
9 1 7.29259 10.8594 1.19734 
19 1 6.59792 10.4936 2.41753 
20 1 7.32678 10.7309 3.68412 
22 1 6.60836 11.2187 4.86194 
27 1 1.19011 8.76912 5.21865 
35 1 2.40972 9.47363 5.59029 
36 1 3.67809 8.75262 5.34655 
38 1 4.85899 9.46988 4.86153 
44 1 6.55331 16.0941 5.52093 
50 1 5.58949 13.6663 6.6044 
51 1 5.3463 12.3978 7.32419 
53 1 4.85776 11.2167 6.60973 
62 1 5.21702 14.8868 7.3061 
76 1 5.52144 16.0953 6.55221 
81 1 5.37266 10.7051 5.37401 
167 1 5.20241 8.76153 1.20008 
171 1 5.58423 9.47281 2.4132 
172 1 5.34703 8.75181 3.68157 
180 1 6.60549 13.6663 5.58945 
181 1 7.3268 12.3986 5.34673 
188 1 7.30922 14.886 5.21845 
194 1 1.19015 10.8584 7.30995 
198 1 2.41152 10.4879 6.60826 
199 1 3.67926 10.7304 7.32995 
17 1 5.40096 10.7111 10.7122 
39 1 6.55257 16.0984 10.5561 
49 1 5.49513 9.50675 16.0968 
73 1 5.19921 8.76568 14.881 
82 1 5.52103 16.0963 9.52447 
83 1 5.60758 9.48235 13.6755 
84 1 5.34761 8.76036 12.4074 
86 1 4.86787 9.47137 11.2191 
91 1 7.31138 14.8929 10.8606 
99 1 6.58776 13.6874 10.4841 
100 1 7.2961 12.4051 10.7111 
102 1 6.63935 11.204 11.2262 
113 1 6.56261 10.5097 16.0942 
114 1 2.41098 10.4884 9.4731 
115 1 3.68206 10.7316 8.75604 
117 1 4.86533 11.2168 9.47259 
126 1 1.19129 10.858 8.76829 
131 1 7.3177 10.8197 14.9095 
135 1 6.69307 10.4232 13.6863 
136 1 7.40008 10.6251 12.3673 
144 1 2.41151 9.47333 10.4891 
145 1 3.68351 8.75746 10.7316 
152 1 1.19184 8.76819 10.8584 
158 1 5.2128 14.8921 8.76421 
162 1 5.5768 13.6708 9.46635 
163 1 5.34587 12.3976 8.74938 
3 1 8.76833 5.21671 1.19012 
13 1 9.47496 5.58857 2.40947 
14 1 8.75224 5.34714 3.67791 
16 1 9.46731 4.85932 4.8599 
24 1 16.0954 5.52068 6.55267 
30 1 13.6682 6.60415 5.58823 
31 1 12.4003 7.32672 5.3475 
33 1 11.2196 6.60924 4.8611 
42 1 14.8876 7.30972 5.21747 
52 1 10.8591 1.1893 7.30999 
60 1 10.4892 2.40856 6.60445 
61 1 10.7305 3.67726 7.3252 
63 1 11.2185 4.8591 6.61093 
87 1 10.7057 5.37179 5.37385 
98 1 16.0955 6.55284 5.52064 
170 1 10.8574 7.31894 1.18906 
174 1 10.4906 6.60624 2.4082 
175 1 10.7292 7.32413 3.67947 
179 1 8.76828 1.18919 5.21797 
183 1 9.47348 2.40891 5.588 
184 1 8.75167 3.6776 5.34781 
192 1 13.6684 5.58744 6.60404 
193 1 12.4004 5.34591 7.326 
200 1 14.8877 5.21689 7.30933 
6 1 16.0955 5.52114 9.5247 
23 1 10.7009 5.35718 10.6953 
59 1 10.5595 6.55445 16.0931 
67 1 10.8645 7.31192 14.8873 
77 1 10.4971 6.58394 13.68 
78 1 10.7423 7.27072 12.3953 
80 1 11.2292 6.58912 11.1988 
93 1 16.0968 6.55307 10.5559 
94 1 9.47162 2.4081 10.4886 
95 1 8.74929 3.67593 10.7304 
97 1 9.46579 4.85532 11.2185 
106 1 8.76962 1.18718 10.8588 
116 1 14.8878 5.21714 8.7683 
123 1 9.52529 5.52135 16.095 
124 1 13.6684 5.58663 9.47255 
125 1 12.4015 5.34592 8.74948 
127 1 11.2205 4.85444 9.46136 
134 1 8.76546 5.21414 14.8899 
138 1 9.46853 5.57861 13.6691 
139 1 8.75011 5.3449 12.3982 
143 1 14.8899 7.30927 10.8597 
147 1 13.6715 6.60334 10.4878 
148 1 12.404 7.32384 10.7236 
156 1 10.4876 2.40816 9.47323 
157 1 10.7298 3.67406 8.74843 
164 1 10.8585 1.18867 8.76884 
11 1 10.7045 10.7053 5.37423 
18 1 16.0963 10.5556 6.55401 
29 1 9.52427 16.0943 5.52188 
70 1 10.5556 16.0942 6.55412 
71 1 10.4994 9.46491 2.40731 
72 1 10.7326 8.74896 3.68281 
74 1 11.2179 9.46837 4.86238 
85 1 10.8427 8.77652 1.17191 
96 1 8.76784 14.8866 5.21835 
103 1 16.0956 9.52454 5.52188 
104 1 9.47191 13.6671 5.58971 
105 1 8.7503 12.3996 5.34702 
107 1 9.46987 11.2199 4.86501 
111 1 14.8875 10.8589 7.30826 
119 1 13.6662 10.4875 6.60689 
120 1 12.398 10.7299 7.32761 
122 1 11.2185 11.2189 6.61052 
132 1 9.47868 10.4765 2.42685 
133 1 8.75085 10.7291 3.687 
140 1 8.75335 10.8409 1.21284 
146 1 14.8875 8.76879 5.21818 
150 1 13.6679 9.47317 5.58961 
151 1 12.3994 8.75184 5.34738 
155 1 10.858 14.8863 7.31114 
159 1 10.4875 13.6665 6.6059 
160 1 10.7312 12.3989 7.32816 
1 1 9.55131 10.6107 13.4504 
2 1 8.75812 10.6665 12.2841 
4 1 9.37745 11.1379 11.1578 
12 1 16.097 10.5556 9.52335 
15 1 8.76867 11.2368 14.9527 
25 1 13.6771 9.47696 10.4881 
26 1 12.4114 8.749 10.7246 
28 1 11.2198 9.45096 11.2062 
34 1 9.52351 16.0904 10.5563 
37 1 14.8926 8.76761 10.8601 
45 1 10.4809 13.6621 9.47558 
46 1 10.7297 12.3961 8.75435 
48 1 11.2207 11.2157 9.47681 
54 1 10.4896 9.52861 16.0756 
57 1 10.854 14.8817 8.77064 
69 1 10.6832 10.6801 10.6969 
88 1 10.5551 16.0928 9.5241 
108 1 16.099 9.52501 10.5547 
128 1 9.45958 10.5294 16.0972 
165 1 10.4183 9.39982 13.6235 
166 1 10.7414 8.6981 12.3807 
173 1 10.8216 8.77883 14.8503 
177 1 9.45859 13.6451 10.4931 
178 1 8.72349 12.3902 10.7358 
185 1 8.76988 14.8802 10.8578 
189 1 13.6714 10.4944 9.47359 
190 1 12.402 10.7317 8.75319 
197 1 14.8904 10.8611 8.76647 
201 2 9.50064 12.0247 13.9448 
ITEM: TIMESTEP
40
ITEM: NUMBER OF ATOMS
201
ITEM: BOX BOUNDS pp pp pp
0.0000000000000000e+00 1.6114000000000001e+01
0.0000000000000000e+00 1.6113000000000000e+01
0.0000000000000000e+00 1.6111999999999998e+01
ITEM: ATOMS id type x y z 
5 1 5.37094 5.37178 5.37233 
65 1 5.588 6.60205 2.41184 
66 1 5.34168 7.32624 3.67804 
68 1 4.85854 6.6103 4.8607 
79 1 5.21116 7.30214 1.19124 
89 1 6.60462 2.40837 5.58868 
90 1 7.32604 3.67584 5.34215 
92 1 6.6098 4.85958 4.86046 
101 1 7.30926 1.18881 5.21676 
109 1 2.40807 5.58869 6.6046 
110 1 3.67518 5.34115 7.32655 
112 1 4.85877 4.85917 6.61063 
121 1 1.18848 5.21657 7.3093 
129 1 6.60549 5.58605 2.40954 
130 1 7.32748 5.34137 3.6772 
137 1 7.3098 5.21527 1.18881 
141 1 2.40855 6.60534 5.5887 
142 1 3.67504 7.32749 5.34072 
149 1 1.18861 7.30966 5.21702 
153 1 5.58866 2.40893 6.60501 
154 1 5.34164 3.67623 7.32676 
161 1 5.21652 1.189 7.30898 
7 1 6.60482 5.5878 13.666 
8 1 7.3268 5.34077 12.3992 
10 1 6.60899 4.8611 11.2161 
21 1 7.30637 5.21448 14.8875 
32 1 1.19 7.30925 10.8599 
40 1 2.41132 6.60793 10.4872 
41 1 3.67739 7.3308 10.7351 
43 1 4.86 6.61524 11.2196 
47 1 5.21664 1.19055 8.76757 
55 1 5.58902 2.40916 9.47267 
56 1 5.34181 3.67703 8.75184 
58 1 4.85909 4.86026 9.46818 
64 1 5.51548 6.54941 16.0931 
75 1 5.3711 5.37445 10.7057 
118 1 6.54873 5.51716 16.0947 
168 1 5.58957 6.60582 13.6646 
169 1 5.34214 7.33412 12.4012 
176 1 5.21176 7.30555 14.8849 
182 1 7.31107 1.1911 10.8607 
186 1 6.60505 2.41 10.4877 
187 1 7.32503 3.67697 10.7361 
191 1 1.18901 5.21684 8.76827 
195 1 2.40858 5.58992 9.47299 
196 1 3.67597 5.34146 8.7516 
9 1 7.28841 10.8559 1.19831 
19 1 6.59512 10.4919 2.41904 
20 1 7.32688 10.7375 3.68155 
22 1 6.60863 11.2173 4.86215 
27 1 1.18952 8.76851 5.21795 
35 1 2.40901 9.4726 5.59097 
36 1 3.67642 8.75188 5.34139 
38 1 4.85914 9.4691 4.86211 
44 1 6.5511 16.0946 5.51773 
50 1 5.58955 13.6668 6.60464 
51 1 5.34115 12.3996 7.32387 
53 1 4.85782 11.2162 6.61042 
62 1 5.21534 14.8883 7.30501 
76 1 5.51847 16.096 6.549 
81 1 5.37198 10.7049 5.37316 
167 1 5.20111 8.76248 1.19899 
171 1 5.58377 9.47162 2.41188 
172 1 5.34197 8.75155 3.67984 
180 1 6.60597 13.6672 5.59005 
181 1 7.32685 12.3999 5.34063 
188 1 7.3092 14.8874 5.21723 
194 1 1.18959 10.8596 7.30917 
198 1 2.41173 10.4871 6.60861 
199 1 3.67755 10.7355 7.33038 
17 1 5.40447 10.7117 10.7156 
39 1 6.5507 16.0975 10.5593 
49 1 5.4953 9.50837 16.0961 
73 1 5.19788 8.76566 14.8827 
82 1 5.51768 16.0972 9.52686 
83 1 5.61585 9.4773 13.679 
84 1 5.34379 8.76059 12.4104 
86 1 4.86989 9.47215 11.2198 
91 1 7.30999 14.8926 10.8602 
99 1 6.58629 13.688 10.4851 
100 1 7.29405 12.4062 10.7233 
102 1 6.64379 11.1984 11.2316 
113 1 6.56336 10.5098 16.0914 
114 1 2.4112 10.4884 9.47287 
115 1 3.68175 10.7375 8.75634 
117 1 4.86801 11.2156 9.47553 
126 1 1.19126 10.8598 8.76842 
131 1 7.32423 10.8189 14.9114 
135 1 6.6999 10.4191 13.6915 
136 1 7.40602 10.6263 12.3723 
144 1 2.41175 9.47346 10.4891 
145 1 3.68271 8.75724 10.737 
152 1 1.1918 8.7686 10.86 
158 1 5.21034 14.8933 8.76399 
162 1 5.57655 13.673 9.46622 
163 1 5.33975 12.4009 8.74973 
3 1 8.76984 5.21746 1.18901 
13 1 9.47479 5.59133 2.4087 
14 1 8.75316 5.34155 3.67591 
16 1 9.4675 4.85948 4.85996 
24 1 16.0956 5.51835 6.55037 
30 1 13.6687 6.60514 5.58931 
31 1 12.4015 7.32611 5.34137 
33 1 11.2186 6.60906 4.861 
42 1 14.8885 7.30937 5.21701 
52 1 10.8599 1.18832 7.30968 
60 1 10.4882 2.40759 6.60464 
61 1 10.737 3.67567 7.32421 
63 1 11.218 4.86 6.61016 
87 1 10.7056 5.37201 5.37344 
98 1 16.0956 6.55086 5.51828 
170 1 10.8553 7.32069 1.18621 
174 1 10.4894 6.60931 2.40654 
175 1 10.736 7.32429 3.67704 
179 1 8.76832 1.18851 5.21707 
183 1 9.47233 2.40864 5.58869 
184 1 8.75143 3.67632 5.34199 
192 1 13.6689 5.58884 6.60462 
193 1 12.4019 5.33963 7.32565 
200 1 14.8886 5.21632 7.3087 
6 1 16.0958 5.51779 9.52667 
23 1 10.7023 5.35733 10.6956 
59 1 10.5609 6.5554 16.0911 
67 1 10.8612 7.3123 14.8852 
77 1 10.4976 6.58292 13.6787 
78 1 10.7534 7.27153 12.3987 
80 1 11.2299 6.58664 11.2 
93 1 16.0969 6.5502 10.5589 
94 1 9.47107 2.40717 10.4881 
95 1 8.74931 3.67469 10.7368 
97 1 9.46651 4.85543 11.218 
106 1 8.77034 1.18533 10.86 
116 1 14.8888 5.21596 8.76769 
123 1 9.52855 5.52111 16.0951 
124 1 13.6691 5.58714 9.47146 
125 1 12.4028 5.33918 8.74909 
127 1 11.2199 4.85413 9.4606 
134 1 8.76601 5.21399 14.8916 
138 1 9.46869 5.57915 13.6708 
139 1 8.75152 5.33818 12.4003 
143 1 14.891 7.30896 10.8608 
147 1 13.6727 6.60362 10.4868 
148 1 12.4053 7.32277 10.7283 
156 1 10.487 2.40743 9.47195 
157 1 10.7361 3.67206 8.7474 
164 1 10.8596 1.1871 8.76886 
11 1 10.7056 10.7052 5.37424 
18 1 16.0964 10.5586 6.55074 
29 1 9.52669 16.0946 5.51912 
70 1 10.5586 16.0939 6.55214 
71 1 10.4971 9.46483 2.40487 
72 1 10.7399 8.74858 3.67777 
74 1 11.2171 9.46676 4.86042 
85 1 10.8373 8.77675 1.16911 
96 1 8.76808 14.8877 5.21736 
103 1 16.0958 9.52644 5.51851 
104 1 9.47154 13.6679 5.59058 
105 1 8.75056 12.4011 5.34156 
107 1 9.46874 11.2184 4.86515 
111 1 14.8887 10.8604 7.30784 
119 1 13.6676 10.4871 6.6065 
120 1 12.4004 10.7347 7.3268 
122 1 11.2182 11.218 6.61051 
132 1 9.47588 10.4719 2.42675 
133 1 8.75101 10.7337 3.68505 
140 1 8.74758 10.838 1.21532 
146 1 14.8885 8.76808 5.21728 
150 1 13.6686 9.47197 5.5899 
151 1 12.4005 8.75103 5.3419 
155 1 10.8583 14.8867 7.31247 
159 1 10.487 13.6678 6.60646 
160 1 10.7353 12.4004 7.32905 
1 1 9.55352 10.6288 13.4555 
2 1 8.76147 10.6736 12.285 
4 1 9.38006 11.1417 11.1555 
12 1 16.0973 10.5595 9.52592 
15 1 8.78013 11.2332 14.9403 
25 1 13.6772 9.47565 10.4883 
26 1 12.4126 8.74645 10.7319 
28 1 11.2182 9.44493 11.2087 
34 1 9.52527 16.0893 10.5596 
37 1 14.8931 8.76803 10.8614 
45 1 10.477 13.6625 9.47804 
46 1 10.735 12.3987 8.75526 
48 1 11.2219 11.2148 9.47336 