ITEM: TIMESTEP
0
ITEM: NUMBER OF ATOMS
163
ITEM: BOX BOUNDS xy xz yz pp pp pp
-6.7755000000000001e+00 1.3552000000000000e+01 -6.7755000000000001e+00
0.0000000000000000e+00 1.1735510246683001e+01 0.0000000000000000e+00
0.0000000000000000e+00 2.2149999999999999e+01 0.0000000000000000e+00
ITEM: ATOMS id type x y z 
8 1 -2.486 5.297 9.849 
87 1 3.001 4.231 10.696 
90 1 2.733 5.481 9.824 
109 1 -2.486 5.297 0.765 
158 1 2.733 5.481 0.79 
161 2 2.4915 0.18749 9.849 
162 2 1.6585 1.41149 10.101 
163 3 2.4335 2.00749 10.169 
11 1 4.24 4.139 20.131 
14 1 3.031 4.094 19.728 
18 1 1.299 5.827 18.554 
33 1 2.266 4.151 20.924 
43 1 4.343 3.96 21.647 
47 1 3.32 5.732 17.88 
52 1 4.24 4.139 12.633 
76 1 2.552 4.924 14.209 
85 1 4.343 3.96 11.117 
89 1 3.32 5.732 14.883 
91 1 1.036 5.037 11.84 
102 1 3.031 4.094 13.035 
105 1 1.299 5.827 14.209 
114 1 2.266 4.151 11.84 
150 1 2.552 4.924 18.554 
156 1 3.001 4.231 22.068 
159 1 1.036 5.037 20.924 
5 1 -5.049 10.63 8.653 
9 1 -3.317 8.897 7.479 
19 1 -1.707 7.414 10.572 
21 1 -2.66 8.795 10.993 
23 1 -3.31 7.532 6.805 
25 1 -4.284 10.573 9.849 
32 1 1.503 6.367 0.79 
36 1 -1.869 7.426 9.056 
38 1 -2.209 6.086 8.653 
54 1 0.3 8.576 10.696 
57 1 1.291 8.001 9.824 
60 1 -1.707 7.414 0.042 
65 1 -3.31 7.532 3.808 
78 1 -1.869 7.426 1.558 
80 1 -2.566 8.842 1.961 
84 1 -4.57 9.799 3.135 
99 1 -3.054 9.687 0.765 
100 1 -2.96 6.142 3.135 
107 1 -5.049 10.63 1.961 
110 1 -3.317 8.897 3.135 
111 1 0.642 5.929 10.696 
113 1 1.503 6.367 9.824 
119 1 -4.284 10.573 0.765 
127 1 -2.209 6.086 1.961 
131 1 -2.318 6.148 10.993 
138 1 1.291 8.001 0.79 
142 1 -2.566 8.842 8.653 
145 1 -4.57 9.799 7.479 
151 1 -5.019 10.493 10.993 
154 1 -3.054 9.687 9.849 
155 1 -2.96 6.142 7.479 
12 1 2.53 7.1 17.202 
17 1 0.468 9.427 20.924 
24 1 -3.52 8.357 11.865 
27 1 -0.31 7.31 21.647 
29 1 0.642 5.929 22.068 
31 1 1.292 7.192 17.88 
44 1 -0.148 7.298 20.131 
46 1 0.191 8.638 19.728 
51 1 -0.31 7.31 11.117 
53 1 2.53 7.1 15.561 
56 1 1.292 7.192 14.883 
63 1 -2.318 6.148 21.771 
66 1 -3.309 6.723 20.899 
70 1 -0.148 7.298 12.633 
72 1 0.548 5.882 13.035 
92 1 0.942 8.582 14.209 
95 1 -5.019 10.493 21.771 
98 1 -4.751 9.243 20.899 
104 1 0.468 9.427 11.84 
116 1 -2.66 8.795 21.771 
118 1 -3.52 8.357 20.899 
122 1 0.191 8.638 13.035 
133 1 -3.309 6.723 11.865 
136 1 0.3 8.576 22.068 
147 1 0.548 5.882 19.728 
153 1 -4.751 9.243 11.865 
160 1 0.942 8.582 18.554 
1 1 7.976 4.694 10.572 
4 1 9.274 4.77 10.993 
20 1 8.034 4.861 9.056 
42 1 9.55 5.41 7.479 
67 1 10.043 4.578 0.765 
77 1 7.976 4.694 0.042 
94 1 8.035 4.861 1.558 
96 1 9.278 4.635 1.961 
121 1 4.688 5.417 10.696 
130 1 9.55 5.41 3.135 
134 1 10.043 4.578 9.849 
152 1 9.278 4.635 8.653 
45 1 4.688 5.417 22.068 
55 1 4.788 5.329 13.035 
106 1 9.274 4.77 21.771 
137 1 4.788 5.329 19.728 
2 1 7.294 10.585 9.056 
3 1 9.004 7.624 6.127 
6 1 8.556 6.347 6.805 
16 1 2.314 8.72 0.79 
22 1 7.166 6.156 8.653 
26 1 7.226 8.565 7.479 
35 1 7.191 10.764 10.572 
37 1 6.846 9.307 10.993 
39 1 8.214 8.992 6.805 
41 1 6.677 7.002 9.849 
48 1 3.775 6.213 0.79 
61 1 7.294 10.585 1.558 
62 1 9.004 7.624 4.487 
64 1 6.747 9.395 1.961 
68 1 7.437 6.931 3.135 
71 1 4.29 8.493 10.696 
74 1 3.567 7.818 9.824 
81 1 8.556 6.347 3.808 
83 1 6.47 8.606 0.765 
93 1 7.191 10.764 0.042 
97 1 8.214 8.992 3.808 
101 1 2.261 9.954 10.696 
103 1 2.314 8.72 9.824 
117 1 7.166 6.156 1.961 
120 1 7.226 8.565 3.135 
123 1 3.775 6.213 9.824 
129 1 6.677 7.002 0.765 
132 1 6.747 9.395 8.653 
135 1 7.437 6.931 7.479 
141 1 7.244 6.231 10.993 
144 1 6.47 8.606 9.849 
148 1 3.567 7.818 0.79 
7 1 9.22 6.004 11.865 
10 1 3.558 10.029 21.647 
13 1 2.261 9.954 22.068 
15 1 2.978 8.376 17.88 
28 1 3.5 9.862 20.131 
30 1 4.369 8.568 19.728 
34 1 4.308 6.159 18.554 
40 1 7.76 8.511 11.865 
49 1 4.857 7.722 20.924 
50 1 1.984 9.314 18.554 
58 1 1.491 10.146 11.84 
59 1 4.097 7.793 14.209 
69 1 3.558 10.029 11.117 
73 1 2.978 8.376 14.883 
75 1 5.064 6.118 11.84 
79 1 7.244 6.231 21.771 
82 1 7.967 6.906 20.899 
86 1 3.5 9.862 12.633 
88 1 2.256 10.089 13.035 
108 1 9.22 6.004 20.899 
112 1 4.369 8.568 13.035 
115 1 4.308 6.159 14.209 
124 1 4.857 7.722 11.84 
125 1 1.984 9.314 14.209 
126 1 6.846 9.307 21.771 
128 1 7.76 8.511 20.899 
139 1 1.491 10.146 20.924 
140 1 4.097 7.793 18.554 
143 1 7.967 6.906 11.865 
146 1 4.29 8.493 22.068 
149 1 5.064 6.118 20.924 
157 1 2.256 10.089 19.728 
ITEM: TIMESTEP
10
ITEM: NUMBER OF ATOMS
163
ITEM: BOX BOUNDS xy xz yz pp pp pp
-6.7755000000000001e+00 1.3552000000000000e+01 -6.7755000000000001e+00
0.0000000000000000e+00 1.1735510246683001e+01 0.0000000000000000e+00
0.0000000000000000e+00 2.2149999999999999e+01 0.0000000000000000e+00
ITEM: ATOMS id type x y z 
8 1 -2.40531 5.35226 9.8556 
87 1 2.97289 4.26521 10.6512 
90 1 2.65561 5.46725 9.78621 
109 1 -2.40475 5.35396 0.762418 
158 1 2.66131 5.47176 0.82737 
161 2 2.5655 0.119027 9.85669 
162 2 1.65036 1.43301 10.1039 
163 3 2.42999 1.96967 10.1616 
11 1 4.2926 4.17446 20.155 
14 1 2.91558 4.12594 19.6932 
18 1 1.32435 5.85135 18.5886 
33 1 2.14763 4.2274 20.9015 
43 1 4.32304 4.11786 21.5874 
47 1 3.26823 5.797 17.8404 
52 1 4.28469 4.18012 12.6006 
76 1 2.43741 4.93503 14.1831 
85 1 4.3289 4.12829 11.1747 
89 1 3.27422 5.7976 14.9249 
91 1 1.00137 5.06734 11.8537 
102 1 2.91881 4.12819 13.0725 
105 1 1.3236 5.85434 14.1672 
114 1 2.14269 4.22054 11.869 
150 1 2.44063 4.92102 18.579 
156 1 2.97357 4.26108 22.115 
159 1 1.00537 5.06772 20.9057 
5 1 -4.96646 10.5876 8.56798 
9 1 -3.3205 8.87916 7.51521 
19 1 -1.76364 7.48964 10.5537 
21 1 -2.63998 8.77456 10.9259 
23 1 -3.30714 7.53049 6.85046 
25 1 -4.10427 10.6737 9.82318 
32 1 1.57679 6.33637 0.782654 
36 1 -1.90408 7.5226 9.06488 
38 1 -2.15204 6.20475 8.6377 
54 1 0.294446 8.53313 10.6734 
57 1 1.34907 7.99231 9.78762 
60 1 -1.75565 7.4893 0.0566187 
65 1 -3.32815 7.52545 3.78976 
78 1 -1.90481 7.51547 1.55254 
80 1 -2.55372 8.79339 1.85248 
84 1 -4.46752 9.81513 3.11447 
99 1 -3.02023 9.65597 0.782042 
100 1 -2.92876 6.23808 3.17717 
107 1 -4.9283 10.6011 1.99255 
110 1 -3.34097 8.88664 3.10289 
111 1 0.59855 5.96172 10.8164 
113 1 1.57376 6.33374 9.84127 
119 1 -4.16865 10.4928 0.785489 
127 1 -2.15282 6.19759 1.97256 
131 1 -2.30682 6.20191 11.01 
138 1 1.34944 7.99164 0.827513 
142 1 -2.55615 8.79156 8.7589 
145 1 -4.45235 9.82555 7.50098 
151 1 -5.02883 10.4285 11.102 
154 1 -3.00804 9.60897 9.83207 
155 1 -2.92887 6.25248 7.43176 
12 1 2.57584 7.06344 17.1331 
17 1 0.38687 9.37126 20.9274 
24 1 -3.54703 8.39373 11.8318 
27 1 -0.262203 7.23548 21.6319 
29 1 0.592105 5.95492 21.9447 
31 1 1.30782 7.19126 17.9173 
44 1 -0.113468 7.20826 20.1375 
46 1 0.135348 8.52538 19.7133 
51 1 -0.265057 7.23699 11.1314 
53 1 2.57827 7.05956 15.6221 
56 1 1.30761 7.18293 14.8401 
63 1 -2.30941 6.19429 21.7488 
66 1 -3.3659 6.72964 20.8604 
70 1 -0.114332 7.20844 12.6262 
72 1 0.537611 5.93071 12.9316 
92 1 0.912227 8.47252 14.2521 
95 1 -4.99541 10.4548 21.7272 
98 1 -4.68372 9.25587 20.8644 
104 1 0.38877 9.37072 11.8345 
116 1 -2.60692 8.77033 21.8855 
118 1 -3.58727 8.38961 20.9018 
122 1 0.138806 8.5255 13.0508 
133 1 -3.37497 6.75214 11.9042 
136 1 0.291623 8.53132 22.0918 
147 1 0.536277 5.92869 19.839 
153 1 -4.68146 9.23806 11.8885 
160 1 0.913895 8.4752 18.5081 
1 1 7.89889 4.95097 10.532 
4 1 9.1766 4.77945 11.0509 
20 1 7.88029 4.93693 9.08166 
42 1 9.47484 5.4161 7.43392 
67 1 9.99392 4.53232 0.770702 
77 1 7.8944 4.94397 0.0852445 
94 1 7.87807 4.93404 1.54101 
96 1 9.21831 4.63918 2.0064 
121 1 4.69423 5.42261 10.7247 
130 1 9.46911 5.42282 3.17977 
134 1 9.98487 4.53322 9.84619 
152 1 9.21638 4.64021 8.61478 
45 1 4.68795 5.41676 22.0339 
55 1 4.81359 5.48114 13.058 
106 1 9.18191 4.76393 21.7097 
137 1 4.81545 5.48345 19.7058 
2 1 7.25956 10.5452 9.09079 
3 1 8.98716 7.63845 6.01301 
6 1 8.56579 6.38542 6.81073 
16 1 2.3404 8.69067 0.834631 
22 1 7.15864 6.17948 8.74271 
26 1 7.11347 8.46147 7.54801 
35 1 7.24451 10.5741 10.529 
37 1 6.82389 9.26152 11.0018 
39 1 8.22469 8.88599 6.75369 
41 1 6.74043 7.01015 9.83945 
48 1 3.74355 6.36217 0.834655 
61 1 7.23862 10.5607 1.53836 
62 1 8.95099 7.6564 4.53545 
64 1 6.71536 9.23799 1.98776 
68 1 7.41064 6.96226 3.05761 
71 1 4.27786 8.54734 10.7864 
74 1 3.6355 7.77785 9.86015 
81 1 8.55042 6.41867 3.7854 
83 1 6.54603 8.44395 0.789916 
93 1 7.21496 10.6056 0.0949471 
97 1 8.27809 8.90973 3.84356 
101 1 2.35416 9.94782 10.6452 
103 1 2.34124 8.69826 9.78516 
117 1 7.15944 6.2056 1.88665 
120 1 7.17531 8.43183 3.06356 
123 1 3.74417 6.35559 9.7887 
129 1 6.74616 7.02166 0.779865 
132 1 6.68522 9.257 8.65587 
135 1 7.40784 6.98448 7.54009 
141 1 7.27033 6.17445 10.9151 
144 1 6.53375 8.43905 9.81763 
148 1 3.63515 7.78365 0.75573 
7 1 9.19847 6.03276 11.9011 
10 1 3.64154 9.783 21.6052 
13 1 2.35183 9.95764 22.1263 
15 1 2.98664 8.31504 17.9116 
28 1 3.6565 9.7865 20.1465 
30 1 4.37284 8.51838 19.8031 
34 1 4.35803 6.29053 18.6311 
40 1 7.74694 8.37334 11.8658 
49 1 4.78802 7.703 20.9077 
50 1 2.06288 9.3 18.5076 
58 1 1.54775 10.1884 11.8362 
59 1 4.12141 7.75709 14.1346 
69 1 3.63342 9.78549 11.1565 
73 1 2.98341 8.31021 14.8523 
75 1 4.99545 6.28194 11.8721 
79 1 7.25226 6.17662 21.8632 
82 1 7.90016 6.93629 20.9331 
86 1 3.64963 9.79086 12.6108 
88 1 2.31905 10.085 13.0768 
108 1 9.19209 6.03587 20.853 
112 1 4.37849 8.52081 12.9657 
115 1 4.35525 6.28989 14.134 
124 1 4.78666 7.70254 11.851 
125 1 2.06452 9.29912 14.255 
126 1 6.8479 9.31234 21.8054 
128 1 7.78677 8.36098 20.8524 
139 1 1.54214 10.1914 20.9217 
140 1 4.12529 7.76159 18.6354 
143 1 7.88568 6.98124 11.8208 
146 1 4.28054 8.54732 21.975 
149 1 4.9883 6.27626 20.8939 
157 1 2.317 10.0855 19.6844 
ITEM: TIMESTEP
20
ITEM: NUMBER OF ATOMS
163
ITEM: BOX BOUNDS xy xz yz pp pp pp
-6.7755000000000001e+00 1.3552000000000000e+01 -6.7755000000000001e+00
0.0000000000000000e+00 1.1735510246683001e+01 0.0000000000000000e+00
0.0000000000000000e+00 2.2149999999999999e+01 0.0000000000000000e+00
ITEM: ATOMS id type x y z 
8 1 -2.42224 5.38568 9.83759 
87 1 2.97037 4.27045 10.6497 
90 1 2.64731 5.45341 9.78146 
109 1 -2.42038 5.38077 0.769987 
158 1 2.65021 5.46086 0.829616 
161 2 2.59375 0.0922849 9.85807 
162 2 1.64093 1.43593 10.1042 
163 3 2.43544 1.96478 10.1604 
11 1 4.28552 4.20267 20.1201 
14 1 2.91028 4.14002 19.6875 
18 1 1.31457 5.86279 18.5933 
33 1 2.13114 4.22071 20.9076 
43 1 4.30523 4.16809 21.5829 
47 1 3.26144 5.79634 17.8304 
52 1 4.28615 4.21142 12.6447 
76 1 2.43952 4.93362 14.1765 
85 1 4.31391 4.17026 11.1733 
89 1 3.25942 5.79874 14.9325 
91 1 0.981696 5.05808 11.8512 
102 1 2.91091 4.14122 13.0722 
105 1 1.31737 5.86698 14.169 
114 1 2.12295 4.21762 11.8616 
150 1 2.43754 4.93768 18.5866 
156 1 2.96901 4.26472 22.1192 
159 1 0.986413 5.05336 20.912 
5 1 -4.94982 10.5606 8.57106 
9 1 -3.33977 8.88309 7.52007 
19 1 -1.7578 7.49181 10.5457 
21 1 -2.62574 8.79342 10.9352 
23 1 -3.29467 7.55007 6.84005 
25 1 -4.08224 10.6727 9.84108 
32 1 1.60812 6.36853 0.751607 
36 1 -1.89199 7.55129 9.07365 
38 1 -2.16192 6.21784 8.64059 
54 1 0.311557 8.51727 10.6644 
57 1 1.36353 7.96961 9.80198 
60 1 -1.74799 7.48681 0.0655164 
65 1 -3.30926 7.55519 3.79379 
78 1 -1.8782 7.52895 1.54268 
80 1 -2.55226 8.7877 1.82473 
84 1 -4.44416 9.78655 3.0958 
99 1 -3.00112 9.67499 0.778855 
100 1 -2.93616 6.25883 3.16964 
107 1 -4.92776 10.5846 2.00788 
110 1 -3.36031 8.87075 3.10221 
111 1 0.612545 5.96934 10.8099 
113 1 1.6112 6.36978 9.86379 
119 1 -4.15229 10.5034 0.779176 
127 1 -2.16117 6.20224 1.98006 
131 1 -2.32967 6.21728 11.0151 
138 1 1.36479 7.96746 0.812405 
142 1 -2.56832 8.79935 8.74429 
145 1 -4.47568 9.78723 7.50839 
151 1 -5.00097 10.402 11.0815 
154 1 -2.99476 9.6046 9.82494 
155 1 -2.93452 6.27404 7.44652 
12 1 2.5661 7.06657 17.1526 
17 1 0.404033 9.34413 20.9161 
24 1 -3.55233 8.3554 11.8434 
27 1 -0.26686 7.23549 21.6249 
29 1 0.6136 5.96799 21.9548 
31 1 1.28552 7.16855 17.9201 
44 1 -0.141616 7.19878 20.1466 
46 1 0.143413 8.51965 19.7107 
51 1 -0.27289 7.23811 11.1362 
53 1 2.56787 7.06273 15.6116 
56 1 1.28455 7.16749 14.8422 
63 1 -2.33022 6.20606 21.7402 
66 1 -3.38506 6.75541 20.8751 
70 1 -0.142099 7.19913 12.6153 
72 1 0.528048 5.93295 12.9086 
92 1 0.918777 8.45266 14.2473 
95 1 -4.98853 10.4585 21.7215 
98 1 -4.66723 9.25824 20.8569 
104 1 0.404524 9.3452 11.8476 
116 1 -2.62854 8.75444 21.8888 
118 1 -3.62311 8.3582 20.9355 
122 1 0.142463 8.51859 13.0497 
133 1 -3.39031 6.7848 11.89 
136 1 0.312336 8.51843 22.0993 
147 1 0.529681 5.93434 19.8573 
153 1 -4.67037 9.22219 11.8891 
160 1 0.918704 8.45204 18.5162 
1 1 7.87282 4.93641 10.5337 
4 1 9.17865 4.80815 11.0286 
20 1 7.85199 4.9546 9.0555 
42 1 9.46334 5.43658 7.43534 
67 1 9.97953 4.55559 0.761576 
77 1 7.8714 4.9253 0.0900238 
94 1 7.85966 4.94443 1.55506 
96 1 9.18636 4.66633 2.00625 
121 1 4.66675 5.47497 10.7027 
130 1 9.46972 5.44762 3.16865 
134 1 9.97077 4.56099 9.8494 
152 1 9.18502 4.66805 8.62441 
45 1 4.66707 5.47054 22.0601 
55 1 4.80887 5.49361 13.0604 
106 1 9.17454 4.7913 21.7422 
137 1 4.81485 5.49262 19.6996 
2 1 7.28176 10.5164 9.06282 
3 1 9.00734 7.60277 5.99153 
6 1 8.54746 6.39084 6.81066 
16 1 2.35027 8.6893 0.84295 
22 1 7.15644 6.19768 8.72062 
26 1 7.10416 8.45152 7.54597 
35 1 7.26632 10.5349 10.5294 
37 1 6.8251 9.22285 11.0218 
39 1 8.24446 8.82759 6.79933 
41 1 6.72489 6.98866 9.81727 
48 1 3.70085 6.35264 0.820981 
61 1 7.24745 10.5195 1.56858 
62 1 8.98414 7.64294 4.51563 
64 1 6.72028 9.23001 1.99034 
68 1 7.39288 6.96745 3.05038 
71 1 4.30641 8.52937 10.7669 
74 1 3.59779 7.7855 9.82702 
81 1 8.51458 6.40408 3.80797 
83 1 6.54339 8.44344 0.783733 
93 1 7.22844 10.555 0.109554 
97 1 8.2937 8.92744 3.86662 
101 1 2.3581 9.93178 10.6668 
103 1 2.35116 8.69051 9.77183 
117 1 7.13705 6.19229 1.89527 
120 1 7.19097 8.41046 3.06149 
123 1 3.70124 6.34727 9.79768 
129 1 6.72819 7.00198 0.781544 
132 1 6.67788 9.2441 8.65356 
135 1 7.43861 7.02254 7.53235 
141 1 7.24282 6.19566 10.9281 
144 1 6.52649 8.42202 9.81961 
148 1 3.59755 7.78667 0.788814 
7 1 9.18083 6.05216 11.9054 
10 1 3.66202 9.8001 21.6023 
13 1 2.35977 9.93124 22.0958 
15 1 3.01619 8.33027 17.899 
28 1 3.67474 9.7838 20.1344 
30 1 4.39556 8.53249 19.795 
34 1 4.34199 6.30162 18.6222 
40 1 7.72929 8.38341 11.8723 
49 1 4.80728 7.72135 20.908 
50 1 2.07017 9.27941 18.5114 
58 1 1.56044 10.1662 11.8377 
59 1 4.12806 7.75789 14.1291 
69 1 3.66287 9.80005 11.1609 
73 1 3.02037 8.33026 14.859 
75 1 4.99946 6.28533 11.8631 
79 1 7.22461 6.19449 21.8417 
82 1 7.93894 6.93663 20.8996 
86 1 3.67391 9.77989 12.6287 
88 1 2.34608 10.0609 13.0699 
108 1 9.1852 6.03935 20.8438 
112 1 4.39742 8.52943 12.9758 
115 1 4.34488 6.30508 14.1393 
124 1 4.80173 7.728 11.8602 
125 1 2.07207 9.27873 14.2499 
126 1 6.86552 9.25557 21.7817 
128 1 7.83142 8.36697 20.8658 
139 1 1.55852 10.1666 20.9273 
140 1 4.13453 7.75902 18.6318 
143 1 7.92617 6.96462 11.8513 
146 1 4.3074 8.52948 21.997 
149 1 4.99194 6.28211 20.9048 
157 1 2.34548 10.0617 19.6934 
ITEM: TIMESTEP
30
ITEM: NUMBER OF ATOMS
163
ITEM: BOX BOUNDS xy xz yz pp pp pp
-6.7755000000000001e+00 1.3552000000000000e+01 -6.7755000000000001e+00
0.0000000000000000e+00 1.1735510246683001e+01 0.0000000000000000e+00
0.0000000000000000e+00 2.2149999999999999e+01 0.0000000000000000e+00
ITEM: ATOMS id type x y z 
8 1 -2.43874 5.41222 9.84189 
87 1 2.96109 4.28458 10.643 
90 1 2.63203 5.44955 9.78237 
109 1 -2.43624 5.39964 0.767751 
158 1 2.63486 5.44961 0.827547 
161 2 2.63226 0.0760374 9.86138 
162 2 1.63277 1.44202 10.1049 
163 3 2.43846 1.95538 10.1586 
11 1 4.27864 4.2302 20.1233 
14 1 2.89278 4.15042 19.7003 
18 1 1.30624 5.86022 18.605 
33 1 2.11328 4.21388 20.9021 
43 1 4.28827 4.22215 21.5574 
47 1 3.24119 5.80731 17.8228 
52 1 4.27485 4.23427 12.6354 
76 1 2.42586 4.94435 14.1775 
85 1 4.3008 4.21388 11.2016 
89 1 3.24421 5.80649 14.9414 
91 1 0.962862 5.04605 11.8416 
102 1 2.89184 4.15108 13.0655 
105 1 1.30629 5.85965 14.1559 
114 1 2.10946 4.2154 11.8649 
150 1 2.42687 4.94084 18.5858 
156 1 2.96145 4.27679 22.1261 
159 1 0.965154 5.04729 20.9224 
5 1 -4.92919 10.5386 8.57917 
9 1 -3.32572 8.87809 7.5012 
19 1 -1.75483 7.51344 10.5545 
21 1 -2.59898 8.81019 10.9534 
23 1 -3.28235 7.55681 6.82434 
25 1 -4.05549 10.6714 9.83514 
32 1 1.60693 6.39624 0.752045 
36 1 -1.87388 7.56607 9.06238 
38 1 -2.15269 6.25226 8.64194 
54 1 0.319285 8.50911 10.6681 
57 1 1.37796 7.94953 9.80444 
60 1 -1.74652 7.49796 0.0620476 
65 1 -3.30383 7.55035 3.80611 
78 1 -1.84934 7.53199 1.54624 
80 1 -2.54156 8.79549 1.83913 
84 1 -4.44889 9.77792 3.10443 
99 1 -2.98477 9.67908 0.75883 
100 1 -2.93149 6.26825 3.17217 
107 1 -4.90855 10.5714 1.99269 
110 1 -3.32124 8.86567 3.08156 
111 1 0.603526 5.96192 10.812 
113 1 1.60597 6.39544 9.86413 
119 1 -4.13 10.5081 0.789981 
127 1 -2.14682 6.23017 1.97381 
131 1 -2.33912 6.23399 11.0077 
138 1 1.37801 7.94868 0.809372 
142 1 -2.55446 8.80725 8.73135 
145 1 -4.49067 9.75812 7.51606 
151 1 -4.99154 10.3668 11.0768 
154 1 -2.97237 9.6088 9.84193 
155 1 -2.93689 6.29668 7.44576 
12 1 2.563 7.07368 17.1492 
17 1 0.41784 9.3222 20.9169 
24 1 -3.52947 8.33869 11.8542 
27 1 -0.270539 7.22673 21.629 
29 1 0.604571 5.95817 21.9528 
31 1 1.28103 7.16675 17.9101 
44 1 -0.169993 7.19039 20.1405 
46 1 0.13371 8.49439 19.712 
51 1 -0.279734 7.2282 11.1313 
53 1 2.56323 7.07316 15.6118 
56 1 1.28169 7.16707 14.8528 
63 1 -2.33816 6.21784 21.7434 
66 1 -3.39389 6.77553 20.8791 
70 1 -0.171527 7.1901 12.6203 
72 1 0.514289 5.93331 12.9069 
92 1 0.92142 8.43731 14.2452 
95 1 -4.98009 10.4467 21.7114 
98 1 -4.65434 9.27598 20.8612 
104 1 0.41785 9.32232 11.8463 
116 1 -2.62295 8.76813 21.8867 
118 1 -3.62491 8.327 20.9365 
122 1 0.134422 8.4942 13.052 
133 1 -3.39601 6.80286 11.8904 
136 1 0.320096 8.50721 22.0948 
147 1 0.517068 5.9315 19.8557 
153 1 -4.67767 9.20092 11.9008 
160 1 0.922496 8.43706 18.5167 
1 1 7.83012 4.93858 10.5309 
4 1 9.14248 4.84302 11.0154 
20 1 7.8229 4.96201 9.06215 
42 1 9.45278 5.4529 7.44015 
67 1 9.96048 4.58003 0.776046 
77 1 7.82851 4.93088 0.0917102 
94 1 7.82812 4.94471 1.54595 
96 1 9.16372 4.69054 2.00662 
121 1 4.64845 5.5138 10.6842 
130 1 9.44745 5.46771 3.16512 
134 1 9.95889 4.58843 9.83916 
152 1 9.15987 4.69055 8.6205 
45 1 4.64796 5.50896 22.082 
55 1 4.81964 5.53352 13.0644 
106 1 9.14138 4.82264 21.7565 
137 1 4.81733 5.52935 19.6978 
2 1 7.29319 10.4887 9.06494 
3 1 9.02048 7.58626 5.9953 
6 1 8.54443 6.37867 6.78188 
16 1 2.36301 8.69236 0.853918 
22 1 7.13378 6.20606 8.68721 
26 1 7.08883 8.45224 7.53979 
35 1 7.28223 10.4932 10.5173 
37 1 6.83188 9.20409 11.0281 
39 1 8.24836 8.80415 6.79275 
41 1 6.70494 6.98004 9.8229 
48 1 3.70093 6.34475 0.824429 
61 1 7.25505 10.4935 1.57025 
62 1 8.98229 7.65151 4.50011 
64 1 6.71767 9.1971 1.98687 
68 1 7.3818 6.95396 3.05849 
71 1 4.31249 8.52254 10.7469 
74 1 3.59431 7.80621 9.80813 
81 1 8.50979 6.40399 3.82511 
83 1 6.54149 8.40859 0.798097 
93 1 7.24641 10.4993 0.133023 
97 1 8.29706 8.91348 3.88407 
101 1 2.39528 9.90324 10.6787 
103 1 2.36279 8.69205 9.75948 
117 1 7.09693 6.18353 1.91116 
120 1 7.20304 8.41135 3.07994 
123 1 3.70101 6.34394 9.78975 
129 1 6.70572 6.99026 0.770919 
132 1 6.66023 9.21893 8.6495 
135 1 7.42833 7.01777 7.53368 
141 1 7.22305 6.1965 10.9332 
144 1 6.51571 8.39985 9.81708 
148 1 3.59485 7.80696 0.806393 
7 1 9.16328 6.06222 11.9136 
10 1 3.70535 9.79391 21.6011 
13 1 2.39465 9.90178 22.0849 
15 1 3.02297 8.32509 17.8845 
28 1 3.70637 9.78304 20.1427 
30 1 4.4313 8.54104 19.7791 
34 1 4.33326 6.31091 18.6127 
40 1 7.73547 8.37644 11.9016 
49 1 4.8277 7.73424 20.9145 
50 1 2.0886 9.263 18.5173 
58 1 1.5741 10.1457 11.8505 
59 1 4.14899 7.76488 14.1345 
69 1 3.70505 9.79606 11.1615 
73 1 3.02286 8.32515 14.8821 
75 1 4.99632 6.31903 11.8719 
79 1 7.21926 6.20182 21.8199 
82 1 7.93901 6.91465 20.8824 
86 1 3.70616 9.78117 12.6218 
88 1 2.37358 10.0362 13.0749 
108 1 9.17124 6.03078 20.8346 
112 1 4.43188 8.54263 12.9881 
115 1 4.33447 6.31071 14.153 
124 1 4.82566 7.7333 11.8514 
125 1 2.08684 9.26195 14.2451 
126 1 6.88548 9.21582 21.755 
128 1 7.83594 8.3789 20.8652 
139 1 1.57463 10.1452 20.9128 
140 1 4.1512 7.76536 18.6283 
143 1 7.91831 6.94809 11.877 
146 1 4.31461 8.5228 22.0176 
149 1 4.99124 6.31494 20.8903 
157 1 2.37279 10.0363 19.6888 
ITEM: TIMESTEP
40
ITEM: NUMBER OF ATOMS
163
ITEM: BOX BOUNDS xy xz yz pp pp pp
-6.7755000000000001e+00 1.3552000000000000e+01 -6.7755000000000001e+00
0.0000000000000000e+00 1.1735510246683001e+01 0.0000000000000000e+00
0.0000000000000000e+00 2.2149999999999999e+01 0.0000000000000000e+00
ITEM: ATOMS id type x y z 
8 1 -2.45591 5.4566 9.82324 
87 1 2.95564 4.29462 10.6518 
90 1 2.6196 5.46373 9.75933 
109 1 -2.44998 5.4366 0.783355 
158 1 2.61824 5.4641 0.852129 
161 2 2.69227 0.0642521 9.86732 
162 2 1.62082 1.45111 10.1058 
163 3 2.44262 1.93961 10.1556 
11 1 4.2669 4.27588 20.0829 
14 1 2.87886 4.16769 19.7045 
18 1 1.29184 5.86972 18.6019 
33 1 2.08796 4.21774 20.9181 
43 1 4.27149 4.26828 21.5489 
47 1 3.2409 5.78876 17.8289 
52 1 4.27123 4.28024 12.6765 
76 1 2.40531 4.93808 14.176 
85 1 4.27098 4.27641 11.2063 
89 1 3.23656 5.78982 14.932 
91 1 0.935156 5.03909 11.842 
102 1 2.87816 4.16768 13.0561 
105 1 1.29384 5.87512 14.1623 
114 1 2.08478 4.22209 11.851 
150 1 2.40364 4.94516 18.5885 
156 1 2.95527 4.29737 22.1171 
159 1 0.941569 5.03018 20.9219 
5 1 -4.92397 10.5185 8.61185 
9 1 -3.32558 8.86543 7.4875 
19 1 -1.75241 7.54456 10.5439 
21 1 -2.56358 8.82034 10.9654 
23 1 -3.27722 7.54014 6.81172 
25 1 -4.02754 10.6565 9.84918 
32 1 1.58406 6.38636 0.755573 
36 1 -1.84934 7.61346 9.07588 
38 1 -2.15087 6.26672 8.64108 
54 1 0.337456 8.48226 10.6656 
57 1 1.38687 7.95888 9.80519 
60 1 -1.74231 7.51507 0.072606 
65 1 -3.29317 7.54319 3.79738 
78 1 -1.8173 7.57592 1.54903 
80 1 -2.51017 8.80093 1.81593 
84 1 -4.41064 9.78448 3.10127 
99 1 -2.95464 9.69361 0.781244 
100 1 -2.91478 6.26002 3.15983 
107 1 -4.90081 10.56 1.98115 
110 1 -3.33921 8.85071 3.09546 
111 1 0.577042 5.95784 10.8051 
113 1 1.58574 6.38949 9.85861 
119 1 -4.11089 10.5107 0.767439 
127 1 -2.14395 6.23641 1.97275 
131 1 -2.35407 6.26938 11.0114 
138 1 1.38812 7.9576 0.807973 
142 1 -2.54144 8.83075 8.72649 
145 1 -4.46445 9.75538 7.51574 
151 1 -4.97184 10.3244 11.071 
154 1 -2.92589 9.59873 9.8369 
155 1 -2.9297 6.30095 7.45761 
12 1 2.57046 7.05061 17.1509 
17 1 0.437812 9.29036 20.9052 
24 1 -3.50967 8.34573 11.8756 
27 1 -0.277376 7.20759 21.6178 
29 1 0.581372 5.95429 21.9578 
31 1 1.28196 7.1731 17.9207 
44 1 -0.205561 7.16222 20.1443 
46 1 0.124813 8.48128 19.7101 
51 1 -0.283597 7.21331 11.1395 
53 1 2.5714 7.04946 15.6178 
56 1 1.28051 7.17264 14.8424 
63 1 -2.35698 6.24033 21.7399 
66 1 -3.4073 6.76529 20.8803 
70 1 -0.207213 7.1632 12.6126 
72 1 0.485734 5.91718 12.9051 
92 1 0.914165 8.43993 14.2359 
95 1 -4.97268 10.4274 21.7247 
98 1 -4.6342 9.25611 20.8362 
104 1 0.438833 9.29079 11.8596 
116 1 -2.59704 8.76578 21.8793 
118 1 -3.5993 8.33909 20.9331 
122 1 0.122399 8.48027 13.0471 
133 1 -3.401 6.80646 11.8952 
136 1 0.340753 8.48679 22.0993 
147 1 0.48665 5.91854 19.8608 
153 1 -4.65056 9.17031 11.915 
160 1 0.91591 8.43992 18.5291 
1 1 7.76819 4.92337 10.5301 
4 1 9.11597 4.88294 11.0023 
20 1 7.78203 4.97013 9.03781 
42 1 9.45857 5.46838 7.44122 
67 1 9.92952 4.61884 0.778546 
77 1 7.77229 4.913 0.0809695 
94 1 7.77916 4.95621 1.57077 
96 1 9.10996 4.7187 2.0025 
121 1 4.63913 5.54078 10.6881 
130 1 9.44297 5.48725 3.15989 
134 1 9.92638 4.63418 9.8433 
152 1 9.11762 4.71851 8.62363 
45 1 4.63191 5.5426 22.0744 
55 1 4.81088 5.54988 13.0707 
106 1 9.11178 4.84509 21.7726 
137 1 4.81436 5.5515 19.6947 
2 1 7.29196 10.4481 9.04094 
3 1 9.01465 7.58678 5.98799 
6 1 8.53939 6.38349 6.77732 
16 1 2.38114 8.69289 0.867784 
22 1 7.08956 6.18381 8.69155 
26 1 7.09453 8.41899 7.52259 
35 1 7.31373 10.4388 10.5113 
37 1 6.83951 9.15851 11.0463 
39 1 8.25022 8.80683 6.78547 
41 1 6.67272 6.96017 9.81373 
48 1 3.67442 6.37244 0.864845 
61 1 7.26869 10.4472 1.60427 
62 1 8.97641 7.6551 4.49307 
64 1 6.72438 9.16121 2.00467 
68 1 7.36002 6.95662 3.07886 
71 1 4.34196 8.51723 10.731 
74 1 3.60657 7.8063 9.76962 
81 1 8.50533 6.41603 3.8319 
83 1 6.53818 8.39089 0.782144 
93 1 7.26228 10.456 0.145324 
97 1 8.31547 8.91327 3.88537 
101 1 2.41726 9.88007 10.6967 
103 1 2.38048 8.69606 9.74647 
117 1 7.0423 6.15963 1.91883 
120 1 7.20785 8.38374 3.09282 
123 1 3.67298 6.37236 9.75162 
129 1 6.67343 6.95462 0.779826 
132 1 6.65763 9.19293 8.64116 
135 1 7.4044 7.00513 7.4986 
141 1 7.18394 6.20927 10.9516 
144 1 6.49847 8.39069 9.82027 
148 1 3.6066 7.80698 0.842597 
7 1 9.14357 6.07424 11.9164 
10 1 3.76303 9.81104 21.6075 
13 1 2.4206 9.88153 22.0673 
15 1 3.02727 8.32301 17.8872 
28 1 3.75591 9.7747 20.1263 
30 1 4.48672 8.56374 19.765 
34 1 4.33196 6.33432 18.5897 
40 1 7.72128 8.35211 11.9268 
49 1 4.85657 7.77061 20.9093 
50 1 2.09222 9.24876 18.5211 
58 1 1.60504 10.1055 11.8506 
59 1 4.16171 7.77437 14.1612 
69 1 3.76697 9.81618 11.1566 
73 1 3.02575 8.32583 14.8743 
75 1 5.00257 6.33338 11.861 
79 1 7.18439 6.20357 21.8029 
82 1 7.92994 6.91937 20.844 
86 1 3.75516 9.77595 12.6363 
88 1 2.42173 10.014 13.0671 
108 1 9.15437 6.031 20.8233 
112 1 4.48576 8.56587 13 
115 1 4.33346 6.3358 14.172 
124 1 4.8542 7.7766 11.8541 
125 1 2.0948 9.25049 14.2441 
126 1 6.90084 9.1788 21.7658 
128 1 7.85543 8.3496 20.8246 
139 1 1.60531 10.1052 20.9118 
140 1 4.16222 7.77607 18.6066 
143 1 7.89002 6.93953 11.9153 
146 1 4.34949 8.51793 22.0355 
149 1 4.99641 6.33541 20.9059 
157 1 2.42308 10.0137 19.6964 
ITEM: TIMESTEP
50
ITEM: NUMBER OF ATOMS
163
ITEM: BOX BOUNDS xy xz yz pp pp pp
-6.7755000000000001e+00 1.3552000000000000e+01 -6.7755000000000001e+00
0.0000000000000000e+00 1.1735510246683001e+01 0.0000000000000000e+00
0.0000000000000000e+00 2.2149999999999999e+01 0.0000000000000000e+00
ITEM: ATOMS id type x y z 
8 1 -2.46642 5.46524 9.8312 
87 1 2.94769 4.31206 10.6423 
90 1 2.61315 5.46652 9.75821 
109 1 -2.46157 5.44065 0.776781 
158 1 2.61427 5.46504 0.8528 
161 2 2.71692 0.0578276 9.87025 
162 2 1.61622 1.45453 10.1062 
163 3 2.44436 1.9331 10.1544 
11 1 4.26111 4.28487 20.0958 
14 1 2.86821 4.16901 19.7081 
18 1 1.28725 5.86978 18.6088 
33 1 2.08704 4.21605 20.9155 
43 1 4.264 4.28602 21.5357 
47 1 3.22945 5.79779 17.8301 
52 1 4.26176 4.28649 12.6656 
76 1 2.39642 4.94333 14.1769 
85 1 4.26854 4.28732 11.2263 
89 1 3.22906 5.79815 14.9331 
91 1 0.923659 5.03221 11.8364 
102 1 2.86859 4.17012 13.0559 
105 1 1.28764 5.87069 14.1532 
114 1 2.08505 4.22145 11.8509 
150 1 2.39711 4.94291 18.587 
156 1 2.94716 4.30722 22.1237 
159 1 0.926913 5.0288 20.9266 
5 1 -4.91138 10.5007 8.6064 
9 1 -3.31882 8.86631 7.48594 
19 1 -1.75083 7.55695 10.5473 
21 1 -2.55711 8.82904 10.9726 
23 1 -3.27686 7.54554 6.80802 
25 1 -4.0217 10.6524 9.84741 
32 1 1.58157 6.39577 0.757511 
36 1 -1.84096 7.61035 9.06104 
38 1 -2.14071 6.28758 8.64232 
54 1 0.341836 8.48078 10.6677 
57 1 1.39567 7.94876 9.80058 
60 1 -1.73973 7.51932 0.0727781 
65 1 -3.29681 7.53942 3.79794 
78 1 -1.80646 7.56537 1.5527 
80 1 -2.50475 8.81029 1.83122 
84 1 -4.41557 9.77557 3.10505 
99 1 -2.94533 9.69681 0.763064 
100 1 -2.91686 6.2633 3.16473 
107 1 -4.88585 10.5508 1.98396 
110 1 -3.31161 8.85076 3.08065 
111 1 0.574113 5.95013 10.8086 
113 1 1.58223 6.39764 9.85749 
119 1 -4.10579 10.5091 0.775038 
127 1 -2.13134 6.25342 1.97241 
131 1 -2.35801 6.27434 11.0102 
138 1 1.39519 7.9479 0.811356 
142 1 -2.5287 8.83354 8.71605 
145 1 -4.47246 9.74329 7.51992 
151 1 -4.96589 10.3088 11.0733 
154 1 -2.9187 9.60885 9.8485 
155 1 -2.92773 6.30151 7.45134 
12 1 2.56751 7.05404 17.1499 
17 1 0.446025 9.2815 20.9078 
24 1 -3.49416 8.33855 11.8801 
27 1 -0.278072 7.20562 21.6191 
29 1 0.577963 5.94491 21.9556 
31 1 1.2822 7.17143 17.9153 
44 1 -0.213909 7.1622 20.1361 
46 1 0.117533 8.46875 19.7125 
51 1 -0.285574 7.20833 11.1396 
53 1 2.56693 7.05414 15.6132 
56 1 1.28143 7.1713 14.8479 
63 1 -2.36025 6.24434 21.7432 
66 1 -3.41329 6.77554 20.8766 
70 1 -0.215966 7.16286 12.6218 
72 1 0.477198 5.91459 12.9047 
92 1 0.9161 8.43775 14.2361 
95 1 -4.9661 10.416 21.7165 
98 1 -4.63267 9.25908 20.8369 
104 1 0.446554 9.28242 11.8568 
116 1 -2.59596 8.78078 21.8839 
118 1 -3.59887 8.32869 20.931 
122 1 0.117838 8.46846 13.0497 
133 1 -3.40483 6.81406 11.9001 
136 1 0.343563 8.48013 22.0948 
147 1 0.479222 5.91288 19.8584 
153 1 -4.65997 9.16007 11.9223 
160 1 0.917193 8.43753 18.5264 
1 1 7.74264 4.91005 10.5322 
4 1 9.09037 4.89815 10.9987 
20 1 7.7702 4.97713 9.0501 
42 1 9.44829 5.47128 7.44362 
67 1 9.92062 4.63261 0.785404 
77 1 7.7457 4.89849 0.0849397 
94 1 7.76649 4.96088 1.55233 
96 1 9.09887 4.72613 2.00517 
121 1 4.6236 5.55909 10.6818 
130 1 9.43654 5.49138 3.15739 
134 1 9.92025 4.65081 9.83484 
152 1 9.10865 4.72639 8.6196 
45 1 4.62113 5.55801 22.0819 
55 1 4.81575 5.57416 13.0737 
106 1 9.09031 4.85822 21.7769 
137 1 4.81576 5.57334 19.6898 
2 1 7.29956 10.4402 9.04718 
3 1 9.01695 7.58982 5.98833 
6 1 8.53951 6.38014 6.77104 
16 1 2.38751 8.69331 0.868933 
22 1 7.08056 6.19214 8.66786 
26 1 7.07926 8.42443 7.52039 
35 1 7.31807 10.4206 10.5027 
37 1 6.84483 9.15489 11.0442 
39 1 8.25266 8.79055 6.79501 
41 1 6.66372 6.9568 9.81545 
48 1 3.67452 6.36704 0.866714 
61 1 7.27441 10.4369 1.59649 
62 1 8.97912 7.66486 4.48995 
64 1 6.72248 9.14743 2.00171 
68 1 7.35412 6.94127 3.07828 
71 1 4.34514 8.51578 10.7273 
74 1 3.6136 7.82057 9.76804 
81 1 8.49891 6.41514 3.82903 
83 1 6.53711 8.37577 0.791415 
93 1 7.27092 10.4369 0.155638 
97 1 8.31161 8.91694 3.88391 
101 1 2.44303 9.86715 10.6991 
103 1 2.38732 8.69514 9.74443 
117 1 7.0276 6.15869 1.9361 
120 1 7.20735 8.38267 3.10106 
123 1 3.67383 6.36752 9.74796 
129 1 6.66406 6.95064 0.772849 
132 1 6.65193 9.17976 8.64156 
135 1 7.40236 6.99989 7.5023 
141 1 7.1732 6.20809 10.9487 
144 1 6.49413 8.37885 9.81925 
148 1 3.61429 7.81964 0.84389 
7 1 9.13117 6.08083 11.9191 
10 1 3.78915 9.82678 21.6086 
13 1 2.44392 9.86651 22.0649 
15 1 3.03245 8.31851 17.8794 
28 1 3.76756 9.76822 20.1393 