ITEM: TIMESTEP
0
ITEM: NUMBER OF ATOMS
161
ITEM: BOX BOUNDS xy xz yz pp pp pp
-6.7755000000000001e+00 1.3552000000000000e+01 -6.7755000000000001e+00
0.0000000000000000e+00 1.1735510246683001e+01 0.0000000000000000e+00
0.0000000000000000e+00 2.2149999999999999e+01 0.0000000000000000e+00
ITEM: ATOMS id type x y z 
8 1 -2.486 5.297 9.849 
87 1 3.001 4.231 10.696 
90 1 2.733 5.481 9.824 
109 1 -2.486 5.297 0.765 
158 1 2.733 5.481 0.79 
11 1 4.24 4.139 20.131 
14 1 3.031 4.094 19.728 
18 1 1.299 5.827 18.554 
33 1 2.266 4.151 20.924 
43 1 4.343 3.96 21.647 
47 1 3.32 5.732 17.88 
52 1 4.24 4.139 12.633 
76 1 2.552 4.924 14.209 
85 1 4.343 3.96 11.117 
89 1 3.32 5.732 14.883 
91 1 1.036 5.037 11.84 
102 1 3.031 4.094 13.035 
105 1 1.299 5.827 14.209 
114 1 2.266 4.151 11.84 
150 1 2.552 4.924 18.554 
156 1 3.001 4.231 22.068 
159 1 1.036 5.037 20.924 
5 1 -5.049 10.63 8.653 
9 1 -3.317 8.897 7.479 
19 1 -1.707 7.414 10.572 
21 1 -2.66 8.795 10.993 
23 1 -3.31 7.532 6.805 
25 1 -4.284 10.573 9.849 
32 1 1.503 6.367 0.79 
36 1 -1.869 7.426 9.056 
38 1 -2.209 6.086 8.653 
54 1 0.3 8.576 10.696 
57 1 1.291 8.001 9.824 
60 1 -1.707 7.414 0.042 
65 1 -3.31 7.532 3.808 
78 1 -1.869 7.426 1.558 
80 1 -2.566 8.842 1.961 
84 1 -4.57 9.799 3.135 
99 1 -3.054 9.687 0.765 
100 1 -2.96 6.142 3.135 
107 1 -5.049 10.63 1.961 
110 1 -3.317 8.897 3.135 
111 1 0.642 5.929 10.696 
113 1 1.503 6.367 9.824 
119 1 -4.284 10.573 0.765 
127 1 -2.209 6.086 1.961 
131 1 -2.318 6.148 10.993 
138 1 1.291 8.001 0.79 
142 1 -2.566 8.842 8.653 
145 1 -4.57 9.799 7.479 
151 1 -5.019 10.493 10.993 
154 1 -3.054 9.687 9.849 
155 1 -2.96 6.142 7.479 
161 2 -2.736 9.215 6.606 
12 1 2.53 7.1 17.202 
17 1 0.468 9.427 20.924 
24 1 -3.52 8.357 11.865 
27 1 -0.31 7.31 21.647 
29 1 0.642 5.929 22.068 
31 1 1.292 7.192 17.88 
44 1 -0.148 7.298 20.131 
46 1 0.191 8.638 19.728 
51 1 -0.31 7.31 11.117 
53 1 2.53 7.1 15.561 
56 1 1.292 7.192 14.883 
63 1 -2.318 6.148 21.771 
66 1 -3.309 6.723 20.899 
70 1 -0.148 7.298 12.633 
72 1 0.548 5.882 13.035 
92 1 0.942 8.582 14.209 
95 1 -5.019 10.493 21.771 
98 1 -4.751 9.243 20.899 
104 1 0.468 9.427 11.84 
116 1 -2.66 8.795 21.771 
118 1 -3.52 8.357 20.899 
122 1 0.191 8.638 13.035 
133 1 -3.309 6.723 11.865 
136 1 0.3 8.576 22.068 
147 1 0.548 5.882 19.728 
153 1 -4.751 9.243 11.865 
160 1 0.942 8.582 18.554 
1 1 7.976 4.694 10.572 
4 1 9.274 4.77 10.993 
20 1 8.034 4.861 9.056 
42 1 9.55 5.41 7.479 
67 1 10.043 4.578 0.765 
77 1 7.976 4.694 0.042 
94 1 8.035 4.861 1.558 
96 1 9.278 4.635 1.961 
121 1 4.688 5.417 10.696 
130 1 9.55 5.41 3.135 
134 1 10.043 4.578 9.849 
152 1 9.278 4.635 8.653 
45 1 4.688 5.417 22.068 
55 1 4.788 5.329 13.035 
106 1 9.274 4.77 21.771 
137 1 4.788 5.329 19.728 
2 1 7.294 10.585 9.056 
3 1 9.004 7.624 6.127 
6 1 8.556 6.347 6.805 
16 1 2.314 8.72 0.79 
22 1 7.166 6.156 8.653 
26 1 7.226 8.565 7.479 
35 1 7.191 10.764 10.572 
37 1 6.846 9.307 10.993 
39 1 8.214 8.992 6.805 
41 1 6.677 7.002 9.849 
48 1 3.775 6.213 0.79 
61 1 7.294 10.585 1.558 
62 1 9.004 7.624 4.487 
64 1 6.747 9.395 1.961 
68 1 7.437 6.931 3.135 
71 1 4.29 8.493 10.696 
74 1 3.567 7.818 9.824 
81 1 8.556 6.347 3.808 
83 1 6.47 8.606 0.765 
93 1 7.191 10.764 0.042 
97 1 8.214 8.992 3.808 
101 1 2.261 9.954 10.696 
103 1 2.314 8.72 9.824 
117 1 7.166 6.156 1.961 
120 1 7.226 8.565 3.135 
123 1 3.775 6.213 9.824 
129 1 6.677 7.002 0.765 
132 1 6.747 9.395 8.653 
135 1 7.437 6.931 7.479 
141 1 7.244 6.231 10.993 
144 1 6.47 8.606 9.849 
148 1 3.567 7.818 0.79 
7 1 9.22 6.004 11.865 
10 1 3.558 10.029 21.647 
13 1 2.261 9.954 22.068 
15 1 2.978 8.376 17.88 
28 1 3.5 9.862 20.131 
30 1 4.369 8.568 19.728 
34 1 4.308 6.159 18.554 
40 1 7.76 8.511 11.865 
49 1 4.857 7.722 20.924 
50 1 1.984 9.314 18.554 
58 1 1.491 10.146 11.84 
59 1 4.097 7.793 14.209 
69 1 3.558 10.029 11.117 
73 1 2.978 8.376 14.883 
75 1 5.064 6.118 11.84 
79 1 7.244 6.231 21.771 
82 1 7.967 6.906 20.899 
86 1 3.5 9.862 12.633 
88 1 2.256 10.089 13.035 
108 1 9.22 6.004 20.899 
112 1 4.369 8.568 13.035 
115 1 4.308 6.159 14.209 
124 1 4.857 7.722 11.84 
125 1 1.984 9.314 14.209 
126 1 6.846 9.307 21.771 
128 1 7.76 8.511 20.899 
139 1 1.491 10.146 20.924 
140 1 4.097 7.793 18.554 
143 1 7.967 6.906 11.865 
146 1 4.29 8.493 22.068 
149 1 5.064 6.118 20.924 
157 1 2.256 10.089 19.728 
ITEM: TIMESTEP
10
ITEM: NUMBER OF ATOMS
161
ITEM: BOX BOUNDS xy xz yz pp pp pp
-6.7755000000000001e+00 1.3552000000000000e+01 -6.7755000000000001e+00
0.0000000000000000e+00 1.1735510246683001e+01 0.0000000000000000e+00
0.0000000000000000e+00 2.2149999999999999e+01 0.0000000000000000e+00
ITEM: ATOMS id type x y z 
8 1 -2.40769 5.35268 9.84587 
87 1 2.98228 4.24339 10.639 
90 1 2.6613 5.47621 9.78089 
109 1 -2.40652 5.35217 0.758515 
158 1 2.66246 5.4764 0.832572 
11 1 4.29805 4.16408 20.1597 
14 1 2.91821 4.11962 19.6891 
18 1 1.33584 5.85466 18.5883 
33 1 2.15048 4.20704 20.8955 
43 1 4.32929 4.11161 21.5908 
47 1 3.25265 5.78428 17.8208 
52 1 4.30122 4.15789 12.6085 
76 1 2.43531 4.9213 14.1841 
85 1 4.32791 4.11331 11.1682 
89 1 3.25746 5.78813 14.9394 
91 1 1.00548 5.06464 11.8592 
102 1 2.91308 4.12136 13.0752 
105 1 1.32887 5.85293 14.1715 
114 1 2.14898 4.20887 11.8693 
150 1 2.43107 4.91702 18.5802 
156 1 2.983 4.24479 22.1255 
159 1 1.00528 5.06045 20.9027 
5 1 -4.95457 10.6308 8.62259 
9 1 -3.29534 8.91691 7.4351 
19 1 -1.75813 7.48388 10.5513 
21 1 -2.59211 8.76641 10.8901 
23 1 -3.31633 7.45608 6.80727 
25 1 -4.14244 10.5095 9.79195 
32 1 1.58058 6.34507 0.781276 
36 1 -1.90449 7.51648 9.075 
38 1 -2.15519 6.19126 8.65132 
54 1 0.288479 8.53957 10.6643 
57 1 1.35272 7.99058 9.78885 
60 1 -1.75581 7.48121 0.0586106 
65 1 -3.31733 7.52803 3.78383 
78 1 -1.90277 7.51293 1.55297 
80 1 -2.54008 8.78989 1.83684 
84 1 -4.4665 9.8266 3.09585 
99 1 -3.01998 9.65175 0.780069 
100 1 -2.91954 6.2476 3.17718 
107 1 -4.92592 10.5949 2.00089 
110 1 -3.37099 8.88384 3.1154 
111 1 0.588116 5.95293 10.8256 
113 1 1.57855 6.34438 9.83462 
119 1 -4.16198 10.5117 0.800498 
127 1 -2.1592 6.19428 1.97569 
131 1 -2.30621 6.18793 11.0242 
138 1 1.34332 7.99133 0.819789 
142 1 -2.51265 8.77616 8.81583 
145 1 -4.55963 9.85981 7.49632 
151 1 -5.03914 10.4805 11.0751 
154 1 -3.02125 9.64244 9.82916 
155 1 -2.91402 6.23256 7.42563 
161 2 -2.67957 9.28886 6.57532 
12 1 2.56976 7.07569 17.1388 
17 1 0.388704 9.37672 20.9315 
24 1 -3.59826 8.38019 11.8573 
27 1 -0.26936 7.25385 21.6291 
29 1 0.584975 5.95282 21.9309 
31 1 1.29573 7.17171 17.9163 
44 1 -0.116492 7.21142 20.1363 
46 1 0.139273 8.52903 19.7114 
51 1 -0.272393 7.24401 11.135 
53 1 2.57177 7.07376 15.6217 
56 1 1.29519 7.17234 14.8467 
63 1 -2.31131 6.19591 21.7444 
66 1 -3.36151 6.72737 20.8695 
70 1 -0.115048 7.20892 12.628 
72 1 0.531459 5.9336 12.9232 
92 1 0.90125 8.47273 14.2529 
95 1 -5.01697 10.4689 21.7191 
98 1 -4.66703 9.26326 20.856 
104 1 0.396284 9.37885 11.8382 
116 1 -2.60734 8.76736 21.8962 
118 1 -3.5942 8.38593 20.9108 
122 1 0.139796 8.53193 13.0511 
133 1 -3.36635 6.7251 11.9001 
136 1 0.293199 8.52815 22.0976 
147 1 0.530902 5.93471 19.8485 
153 1 -4.65769 9.2372 11.9397 
160 1 0.90225 8.47629 18.5103 
1 1 7.88592 4.90649 10.5443 
4 1 9.19099 4.77545 11.0442 
20 1 7.88498 4.93895 9.06026 
42 1 9.45045 5.41454 7.42997 
67 1 9.99797 4.53287 0.765323 
77 1 7.88338 4.90767 0.073926 
94 1 7.89232 4.94297 1.55177 
96 1 9.21133 4.64204 2.01382 
121 1 4.70013 5.41591 10.7169 
130 1 9.47397 5.4239 3.17983 
134 1 9.99707 4.53664 9.85175 
152 1 9.21294 4.6352 8.60203 
45 1 4.69914 5.41581 22.0466 
55 1 4.81856 5.48396 13.0533 
106 1 9.18784 4.7722 21.7144 
137 1 4.81825 5.4778 19.7114 
2 1 7.21571 10.5735 9.08124 
3 1 8.97839 7.63101 6.069 
6 1 8.49629 6.36036 6.83236 
16 1 2.33853 8.68515 0.840772 
22 1 7.17101 6.20076 8.72844 
26 1 7.16634 8.43615 7.55704 
35 1 7.16117 10.6199 10.5068 
37 1 6.88237 9.36013 10.9608 
39 1 8.3008 8.92271 6.76958 
41 1 6.74026 7.024 9.82458 
48 1 3.73398 6.35535 0.833124 
61 1 7.23518 10.5719 1.5418 
62 1 8.96436 7.64556 4.55584 
64 1 6.71314 9.23783 1.98285 
68 1 7.40815 6.95534 3.05235 
71 1 4.28024 8.53697 10.7914 
74 1 3.62859 7.78732 9.85165 
81 1 8.52458 6.38992 3.78342 
83 1 6.53586 8.45127 0.798163 
93 1 7.20236 10.6115 0.0915317 
97 1 8.30246 8.94269 3.86265 
101 1 2.34697 9.94249 10.645 
103 1 2.33967 8.69511 9.77968 
117 1 7.16874 6.19832 1.88236 
120 1 7.15898 8.42113 3.04874 
123 1 3.73426 6.35564 9.78081 
129 1 6.74422 7.02369 0.78758 
132 1 6.71683 9.23903 8.62929 
135 1 7.40457 6.94798 7.56505 
141 1 7.25186 6.18235 10.8978 
144 1 6.53474 8.45564 9.81001 
148 1 3.62843 7.78692 0.762699 
7 1 9.1947 6.0305 11.9128 
10 1 3.65774 9.81966 21.6126 
13 1 2.34258 9.95496 22.1267 
15 1 3.01123 8.33644 17.9084 
28 1 3.63835 9.77746 20.1385 
30 1 4.36474 8.52922 19.8062 
34 1 4.37043 6.29798 18.6354 
40 1 7.79868 8.36112 11.9286 
49 1 4.79055 7.70148 20.9018 
50 1 2.06306 9.29903 18.5073 
58 1 1.53669 10.1862 11.8349 
59 1 4.12194 7.7705 14.1284 
69 1 3.64628 9.8174 11.1454 
73 1 3.0105 8.33818 14.8531 
75 1 4.99787 6.27269 11.8788 
79 1 7.25048 6.18361 21.8703 
82 1 7.90764 6.90955 20.925 
86 1 3.64208 9.78037 12.6253 
88 1 2.32309 10.0825 13.0871 
108 1 9.1983 6.0359 20.8495 
112 1 4.36548 8.52599 12.9574 
115 1 4.36586 6.29543 14.1302 
124 1 4.79107 7.70117 11.8622 
125 1 2.06633 9.29883 14.2565 
126 1 6.84644 9.33291 21.8089 
128 1 7.79635 8.36331 20.8382 
139 1 1.53679 10.1911 20.9201 
140 1 4.1225 7.77127 18.6345 
143 1 7.90786 6.90615 11.8389 
146 1 4.28296 8.53407 21.9721 
149 1 4.99719 6.27346 20.8857 
157 1 2.32578 10.0819 19.6778 
ITEM: TIMESTEP
20
ITEM: NUMBER OF ATOMS
161
ITEM: BOX BOUNDS xy xz yz pp pp pp
-6.7755000000000001e+00 1.3552000000000000e+01 -6.7755000000000001e+00
0.0000000000000000e+00 1.1735510246683001e+01 0.0000000000000000e+00
0.0000000000000000e+00 2.2149999999999999e+01 0.0000000000000000e+00
ITEM: ATOMS id type x y z 
8 1 -2.41115 5.36685 9.84127 
87 1 2.97736 4.25755 10.6479 
90 1 2.656 5.46307 9.78586 
109 1 -2.4154 5.36663 0.766706 
158 1 2.65565 5.46251 0.827443 
11 1 4.28922 4.18584 20.1376 
14 1 2.91647 4.13351 19.6895 
18 1 1.32331 5.85914 18.5957 
33 1 2.14219 4.2145 20.9054 
43 1 4.31862 4.14243 21.5936 
47 1 3.26476 5.7956 17.8362 
52 1 4.28959 4.18424 12.6264 
76 1 2.4415 4.93092 14.1788 
85 1 4.31577 4.14506 11.172 
89 1 3.26531 5.797 14.9285 
91 1 0.999788 5.06581 11.854 
102 1 2.91609 4.13391 13.0741 
105 1 1.32135 5.85783 14.1688 
114 1 2.14277 4.21527 11.8581 
150 1 2.44097 4.92893 18.5842 
156 1 2.97753 4.25823 22.1158 
159 1 0.999627 5.06424 20.9094 
5 1 -4.9492 10.6233 8.6242 
9 1 -3.29336 8.92397 7.43118 
19 1 -1.76103 7.49116 10.564 
21 1 -2.60701 8.76317 10.9065 
23 1 -3.31371 7.45622 6.80995 
25 1 -4.16204 10.4894 9.83934 
32 1 1.59052 6.35436 0.757616 
36 1 -1.89442 7.52925 9.06731 
38 1 -2.16112 6.19674 8.64801 
54 1 0.300874 8.52672 10.6671 
57 1 1.35539 7.98026 9.79876 
60 1 -1.75242 7.48463 0.0634886 
65 1 -3.31334 7.54833 3.77134 
78 1 -1.89209 7.51903 1.54867 
80 1 -2.55349 8.78984 1.84428 
84 1 -4.45743 9.80223 3.1034 
99 1 -3.01483 9.65803 0.781802 
100 1 -2.92848 6.2631 3.178 
107 1 -4.93429 10.5939 1.99565 
110 1 -3.34808 8.86486 3.098 
111 1 0.603672 5.96118 10.8167 
113 1 1.59031 6.35472 9.85441 
119 1 -4.15755 10.5064 0.782772 
127 1 -2.16118 6.19981 1.97374 
131 1 -2.31837 6.1983 11.0242 
138 1 1.35625 7.97906 0.816853 
142 1 -2.52578 8.78543 8.80471 
145 1 -4.54744 9.85632 7.50497 
151 1 -5.00647 10.454 11.0332 
154 1 -3.02085 9.63621 9.82872 
155 1 -2.91971 6.2384 7.43194 
161 2 -2.67453 9.29431 6.5772 
12 1 2.56593 7.07547 17.1489 
17 1 0.397935 9.35955 20.9231 
24 1 -3.60149 8.36966 11.8451 
27 1 -0.266856 7.24256 21.6244 
29 1 0.604597 5.96056 21.9466 
31 1 1.29528 7.17298 17.9198 
44 1 -0.127623 7.20767 20.1428 
46 1 0.144185 8.52441 19.7145 
51 1 -0.268155 7.24152 11.137 
53 1 2.56641 7.0754 15.613 
56 1 1.29434 7.17267 14.8432 
63 1 -2.31873 6.1965 21.7441 
66 1 -3.37255 6.74229 20.8713 
70 1 -0.126238 7.20661 12.6199 
72 1 0.531259 5.93178 12.9182 
92 1 0.911579 8.45739 14.2519 
95 1 -5.00035 10.4607 21.7262 
98 1 -4.67809 9.25783 20.8586 
104 1 0.398829 9.35874 11.8406 
116 1 -2.61825 8.76194 21.8914 
118 1 -3.60324 8.37346 20.9258 
122 1 0.143848 8.52362 13.0501 
133 1 -3.37033 6.73477 11.8916 
136 1 0.301677 8.5286 22.0952 
147 1 0.532994 5.93204 19.8458 
153 1 -4.67732 9.25283 11.9187 
160 1 0.911079 8.45896 18.5114 
1 1 7.87528 4.90555 10.5366 
4 1 9.18091 4.78828 11.0238 
20 1 7.8753 4.93929 9.06703 
42 1 9.4489 5.42029 7.4315 
67 1 9.98229 4.54717 0.762216 
77 1 7.87656 4.90306 0.0768717 
94 1 7.88261 4.94355 1.54978 
96 1 9.20218 4.65424 2.00201 
121 1 4.68202 5.44234 10.7174 
130 1 9.46803 5.43562 3.17979 
134 1 9.98205 4.54729 9.85112 
152 1 9.1981 4.64643 8.6149 
45 1 4.68031 5.44297 22.0459 
55 1 4.80993 5.48703 13.0612 
106 1 9.18 4.78639 21.7402 
137 1 4.81012 5.4868 19.7023 
2 1 7.21741 10.5482 9.06693 
3 1 8.9844 7.61317 6.0738 
6 1 8.50047 6.36311 6.82527 
16 1 2.34829 8.68859 0.84117 
22 1 7.15876 6.19714 8.73174 
26 1 7.18722 8.42432 7.55504 
35 1 7.19919 10.6074 10.5071 
37 1 6.87404 9.29554 10.9677 
39 1 8.29756 8.92636 6.78535 
41 1 6.73663 7.02125 9.83054 
48 1 3.71739 6.35659 0.823522 
61 1 7.24178 10.5411 1.55596 
62 1 8.96779 7.64549 4.53966 
64 1 6.72279 9.23549 1.98804 
68 1 7.40113 6.96735 3.05406 
71 1 4.28869 8.52798 10.7821 
74 1 3.61066 7.78678 9.84302 
81 1 8.52171 6.38909 3.78775 
83 1 6.54089 8.45387 0.787434 
93 1 7.21205 10.5886 0.104169 
97 1 8.27367 8.92879 3.84979 
101 1 2.35412 9.93281 10.6627 
103 1 2.34835 8.69029 9.77481 
117 1 7.15791 6.19531 1.88496 
120 1 7.19246 8.42678 3.06019 
123 1 3.71777 6.35729 9.79024 
129 1 6.73854 7.01549 0.783327 
132 1 6.72081 9.23541 8.6267 
135 1 7.39221 6.96637 7.56279 
141 1 7.24282 6.19431 10.9039 
144 1 6.54679 8.45567 9.82725 
148 1 3.61062 7.78714 0.772062 
7 1 9.18625 6.03024 11.9155 
10 1 3.66074 9.82689 21.6132 
13 1 2.35329 9.93344 22.0987 
15 1 3.01281 8.33384 17.9004 
28 1 3.6482 9.7788 20.1417 
30 1 4.37668 8.53006 19.8021 
34 1 4.34227 6.29542 18.6264 
40 1 7.82572 8.35844 11.9132 
49 1 4.7965 7.70973 20.905 
50 1 2.06541 9.28693 18.5091 
58 1 1.55181 10.1756 11.8385 
59 1 4.13135 7.75805 14.1282 
69 1 3.65951 9.81832 11.1518 
73 1 3.01269 8.33499 14.8618 
75 1 4.99533 6.27228 11.8634 
79 1 7.24241 6.19568 21.8592 
82 1 7.92281 6.93354 20.9144 
86 1 3.65182 9.7817 12.6216 
88 1 2.33197 10.0697 13.0769 
108 1 9.18667 6.03406 20.8456 
112 1 4.37747 8.52778 12.96 
115 1 4.34298 6.29541 14.1365 
124 1 4.79663 7.70992 11.8583 
125 1 2.06614 9.28718 14.2538 
126 1 6.85699 9.2883 21.7977 
128 1 7.81886 8.35939 20.8571 
139 1 1.55288 10.1756 20.927 
140 1 4.13122 7.75724 18.6345 
143 1 7.92424 6.93073 11.8494 
146 1 4.29167 8.52397 21.9828 
149 1 4.99481 6.27217 20.9003 
157 1 2.33259 10.0699 19.6866 
ITEM: TIMESTEP
30
ITEM: NUMBER OF ATOMS
161
ITEM: BOX BOUNDS xy xz yz pp pp pp
-6.7755000000000001e+00 1.3552000000000000e+01 -6.7755000000000001e+00
0.0000000000000000e+00 1.1735510246683001e+01 0.0000000000000000e+00
0.0000000000000000e+00 2.2149999999999999e+01 0.0000000000000000e+00
ITEM: ATOMS id type x y z 
8 1 -2.42513 5.39692 9.835 
87 1 2.96712 4.27085 10.6406 
90 1 2.63923 5.44891 9.7863 
109 1 -2.42925 5.39419 0.77234 
158 1 2.63904 5.44785 0.82631 
11 1 4.28245 4.22004 20.1206 
14 1 2.90039 4.14682 19.6966 
18 1 1.30887 5.86007 18.6018 
33 1 2.11762 4.21452 20.905 
43 1 4.29939 4.20111 21.5693 
47 1 3.24819 5.80438 17.8222 
52 1 4.2827 4.21947 12.6444 
76 1 2.43342 4.94233 14.1761 
85 1 4.29813 4.20234 11.197 
89 1 3.24808 5.80486 14.9406 
91 1 0.97821 5.05043 11.8466 
102 1 2.90066 4.14664 13.0667 
105 1 1.30838 5.85956 14.1619 
114 1 2.11791 4.21531 11.8582 
150 1 2.43349 4.94206 18.5873 
156 1 2.96738 4.27043 22.1223 
159 1 0.978143 5.04942 20.9167 
5 1 -4.93833 10.6112 8.62009 
9 1 -3.27272 8.93563 7.41588 
19 1 -1.75576 7.50075 10.5668 
21 1 -2.60985 8.75746 10.9092 
23 1 -3.30214 7.46726 6.81028 
25 1 -4.14566 10.4838 9.83695 
32 1 1.60744 6.38501 0.74689 
36 1 -1.86837 7.55045 9.06376 
38 1 -2.15878 6.22355 8.64554 
54 1 0.316925 8.51192 10.6652 
57 1 1.37056 7.95737 9.80685 
60 1 -1.7459 7.49161 0.0633782 
65 1 -3.30193 7.55604 3.7725 
78 1 -1.85678 7.53008 1.54522 
80 1 -2.54196 8.79132 1.83318 
84 1 -4.45154 9.78405 3.10167 
99 1 -2.99436 9.67458 0.771175 
100 1 -2.93703 6.28064 3.17339 
107 1 -4.91891 10.5789 1.9931 
110 1 -3.32762 8.86371 3.08797 
111 1 0.607297 5.96516 10.8099 
113 1 1.60662 6.38448 9.86656 
119 1 -4.13723 10.5087 0.782608 
127 1 -2.15629 6.22005 1.97764 
131 1 -2.33274 6.21403 11.0237 
138 1 1.37089 7.95715 0.807008 
142 1 -2.53584 8.78059 8.80755 
145 1 -4.52628 9.85 7.51343 
151 1 -4.97749 10.4446 11.0398 
154 1 -3.00116 9.63955 9.83069 
155 1 -2.9331 6.2482 7.43699 
161 2 -2.65705 9.31258 6.57817 
12 1 2.56663 7.07467 17.1506 
17 1 0.41097 9.33095 20.9161 
24 1 -3.6223 8.3371 11.8408 
27 1 -0.271019 7.2308 21.6267 
29 1 0.60785 5.96389 21.9537 
31 1 1.28364 7.16628 17.9159 
44 1 -0.161123 7.19371 20.1431 
46 1 0.139079 8.50343 19.712 
51 1 -0.274176 7.23215 11.1355 
53 1 2.56645 7.07622 15.6128 
56 1 1.28338 7.16599 14.8475 
63 1 -2.3364 6.21166 21.7405 
66 1 -3.38838 6.76701 20.8812 
70 1 -0.160673 7.19228 12.6184 
72 1 0.519787 5.93138 12.9072 
92 1 0.920813 8.44112 14.2479 
95 1 -4.98586 10.4526 21.7177 
98 1 -4.65929 9.26999 20.8625 
104 1 0.410732 9.32924 11.8473 
116 1 -2.62607 8.7613 21.8858 
118 1 -3.62318 8.3404 20.9401 
122 1 0.138873 8.5034 13.0515 
133 1 -3.38883 6.76284 11.8854 
136 1 0.317766 8.5134 22.0993 
147 1 0.520044 5.93182 19.8563 
153 1 -4.65745 9.26694 11.9049 
160 1 0.919552 8.44126 18.5159 
1 1 7.82701 4.9077 10.5342 
4 1 9.15105 4.81641 11.005 
20 1 7.8325 4.93929 9.06962 
42 1 9.43699 5.43128 7.43683 
67 1 9.9674 4.57119 0.771186 
77 1 7.82717 4.90431 0.0806034 
94 1 7.84407 4.9425 1.54746 
96 1 9.17296 4.68093 1.9996 
121 1 4.65501 5.49649 10.6885 
130 1 9.45413 5.45436 3.17561 
134 1 9.96796 4.57057 9.84238 
152 1 9.16411 4.67088 8.61928 
45 1 4.65461 5.49636 22.0749 
55 1 4.81381 5.51339 13.0644 
106 1 9.15135 4.81911 21.7567 
137 1 4.81365 5.51377 19.6993 
2 1 7.22717 10.5039 9.0547 
3 1 8.994 7.59563 6.07769 
6 1 8.49029 6.36514 6.81397 
16 1 2.35823 8.69258 0.850571 
22 1 7.12287 6.18977 8.71838 
26 1 7.20909 8.41433 7.54858 
35 1 7.21979 10.5417 10.5045 
37 1 6.88263 9.23078 10.9976 
39 1 8.31545 8.92799 6.79189 
41 1 6.71635 6.99719 9.8414 
48 1 3.6991 6.34681 0.819363 
61 1 7.25079 10.5065 1.57224 
62 1 8.96566 7.64746 4.53319 
64 1 6.72024 9.21151 1.99102 
68 1 7.38731 6.96 3.05918 
71 1 4.3079 8.51915 10.7583 
74 1 3.59189 7.79912 9.81488 
81 1 8.51252 6.39305 3.8014 
83 1 6.5399 8.42544 0.790165 
93 1 7.23577 10.5225 0.123288 
97 1 8.28524 8.9222 3.86599 
101 1 2.38326 9.90648 10.6821 
103 1 2.35951 8.69043 9.763 
117 1 7.12191 6.18754 1.8999 
120 1 7.20314 8.41652 3.07167 
123 1 3.69903 6.34768 9.79434 
129 1 6.71645 6.9975 0.773322 
132 1 6.71432 9.2162 8.62096 
135 1 7.37719 6.95822 7.55652 
141 1 7.22821 6.20504 10.9299 
144 1 6.54622 8.42948 9.8277 
148 1 3.59194 7.79859 0.799257 
7 1 9.17622 6.02904 11.9265 
10 1 3.7164 9.83729 21.6142 
13 1 2.37973 9.89941 22.0796 
15 1 3.02178 8.32919 17.8843 
28 1 3.68254 9.77572 20.1419 
30 1 4.41249 8.54035 19.7854 
34 1 4.3329 6.30814 18.6166 
40 1 7.83547 8.373 11.8994 
49 1 4.81825 7.72654 20.9153 
50 1 2.08187 9.26704 18.5126 
58 1 1.56822 10.1522 11.846 
59 1 4.14649 7.76342 14.1337 
69 1 3.7063 9.81937 11.1548 
73 1 3.02135 8.32925 14.8768 
75 1 4.99636 6.29983 11.8658 
79 1 7.22793 6.2045 21.8333 
82 1 7.94219 6.92378 20.8883 
86 1 3.69056 9.78149 12.6226 
88 1 2.36223 10.0424 13.0741 
108 1 9.17611 6.03111 20.8376 
112 1 4.41259 8.53792 12.9751 
115 1 4.33222 6.30822 14.1466 
124 1 4.81998 7.72661 11.8487 
125 1 2.08092 9.26781 14.2504 
126 1 6.87704 9.22946 21.7655 
128 1 7.83533 8.37343 20.8683 
139 1 1.56757 10.1522 20.9203 
140 1 4.14498 7.76179 18.628 
143 1 7.94273 6.92401 11.8772 
146 1 4.3108 8.512 22.0074 
149 1 4.99601 6.30138 20.8975 
157 1 2.36415 10.0433 19.6873 
ITEM: TIMESTEP
40
ITEM: NUMBER OF ATOMS
161
ITEM: BOX BOUNDS xy xz yz pp pp pp
-6.7755000000000001e+00 1.3552000000000000e+01 -6.7755000000000001e+00
0.0000000000000000e+00 1.1735510246683001e+01 0.0000000000000000e+00
0.0000000000000000e+00 2.2149999999999999e+01 0.0000000000000000e+00
ITEM: ATOMS id type x y z 
8 1 -2.46727 5.45437 9.83023 
87 1 2.9493 4.30808 10.6429 
90 1 2.60537 5.46606 9.76384 
109 1 -2.46646 5.44966 0.780688 
158 1 2.60586 5.46538 0.850625 
11 1 4.26122 4.29717 20.0958 
14 1 2.86348 4.17232 19.7152 
18 1 1.28779 5.87111 18.6099 
33 1 2.08431 4.21126 20.9141 
43 1 4.25846 4.30745 21.5271 
47 1 3.22726 5.79251 17.8273 
52 1 4.25988 4.29693 12.6669 
76 1 2.39053 4.94335 14.1771 
85 1 4.25842 4.3088 11.2368 
89 1 3.22702 5.79363 14.9359 
91 1 0.917669 5.03187 11.8304 
102 1 2.86302 4.17227 13.0488 
105 1 1.28679 5.87078 14.1531 
114 1 2.08345 4.21185 11.8499 
150 1 2.39007 4.94295 18.5866 
156 1 2.94953 4.30826 22.1197 
159 1 0.917694 5.03124 20.931 
5 1 -4.90738 10.5798 8.63115 
9 1 -3.20894 8.95908 7.39515 
19 1 -1.74059 7.52508 10.5542 
21 1 -2.58619 8.76564 10.902 
23 1 -3.29987 7.45668 6.80833 
25 1 -4.10719 10.4985 9.81103 
32 1 1.5822 6.40164 0.75974 
36 1 -1.80358 7.57895 9.04906 
38 1 -2.14182 6.26507 8.63766 
54 1 0.339481 8.47762 10.6722 
57 1 1.39917 7.9426 9.8041 
60 1 -1.7418 7.52266 0.0631953 
65 1 -3.31008 7.55155 3.77769 
78 1 -1.79381 7.56936 1.55544 
80 1 -2.49197 8.80884 1.83065 
84 1 -4.41048 9.77575 3.10424 
99 1 -2.94043 9.69297 0.757474 
100 1 -2.9334 6.2892 3.15853 
107 1 -4.87915 10.5495 1.97541 
110 1 -3.30679 8.85552 3.07978 
111 1 0.569988 5.93893 10.8116 
113 1 1.58211 6.40379 9.8537 
119 1 -4.09746 10.5116 0.781282 
127 1 -2.12895 6.26611 1.97459 
131 1 -2.36408 6.24924 11.0194 
138 1 1.39849 7.94306 0.809906 
142 1 -2.52202 8.78048 8.81165 
145 1 -4.48368 9.83475 7.50857 
151 1 -4.96375 10.4168 11.0447 
154 1 -2.95689 9.66844 9.84058 
155 1 -2.94172 6.26699 7.45114 
161 2 -2.59413 9.3707 6.56271 
12 1 2.56828 7.04061 17.1456 
17 1 0.447805 9.2736 20.9104 
24 1 -3.60336 8.31468 11.845 
27 1 -0.279765 7.20488 21.6225 
29 1 0.570925 5.93817 21.952 
31 1 1.28637 7.17777 17.9135 
44 1 -0.226702 7.15535 20.1368 
46 1 0.111513 8.45747 19.7127 
51 1 -0.282866 7.20528 11.1393 
53 1 2.56858 7.0421 15.616 
56 1 1.28546 7.17717 14.8497 
63 1 -2.35601 6.24778 21.7495 
66 1 -3.41688 6.7824 20.8795 
70 1 -0.226284 7.15576 12.6281 
72 1 0.476139 5.91439 12.9079 
92 1 0.913503 8.43388 14.2314 
95 1 -4.96549 10.4158 21.7134 
98 1 -4.62313 9.26754 20.8437 
104 1 0.45078 9.27734 11.853 
116 1 -2.58837 8.78119 21.884 
118 1 -3.60433 8.3149 20.9303 
122 1 0.111784 8.45489 13.0513 
133 1 -3.41666 6.77863 11.8877 
136 1 0.336931 8.47733 22.0907 
147 1 0.476402 5.91378 19.8552 
153 1 -4.62404 9.27359 11.9156 
160 1 0.915288 8.43563 18.5315 
1 1 7.72336 4.89388 10.5416 
4 1 9.07776 4.86657 10.9778 
20 1 7.74035 4.94966 9.06972 
42 1 9.4014 5.45386 7.44978 
67 1 9.91511 4.6429 0.787282 
77 1 7.72429 4.89185 0.073325 
94 1 7.75667 4.96015 1.54643 
96 1 9.08959 4.72607 1.99749 
121 1 4.62102 5.56775 10.6747 
130 1 9.42542 5.48599 3.16442 
134 1 9.91725 4.64086 9.82758 
152 1 9.07779 4.71048 8.62555 
45 1 4.62044 5.56712 22.0883 
55 1 4.8218 5.59002 13.0702 
106 1 9.07111 4.86321 21.789 
137 1 4.82099 5.59052 19.695 
2 1 7.2516 10.4316 9.06076 
3 1 8.9964 7.61975 6.09189 
6 1 8.47312 6.35829 6.80184 
16 1 2.38798 8.68879 0.8717 
22 1 7.02379 6.15629 8.68209 
26 1 7.22047 8.37859 7.53002 
35 1 7.26037 10.4252 10.4848 
37 1 6.92005 9.15156 11.0308 
39 1 8.35431 8.92052 6.79536 
41 1 6.65901 6.95219 9.84104 
48 1 3.67532 6.35933 0.871473 
61 1 7.27441 10.4285 1.5901 
62 1 8.96731 7.67794 4.55291 
64 1 6.71421 9.13415 1.99505 
68 1 7.36496 6.94185 3.08388 
71 1 4.35112 8.51536 10.7088 
74 1 3.6175 7.81966 9.76561 
81 1 8.49917 6.40428 3.80806 
83 1 6.53046 8.36286 0.799637 
93 1 7.27696 10.4115 0.164496 
97 1 8.31019 8.92005 3.87151 
101 1 2.46218 9.8529 10.7112 
103 1 2.38677 8.6957 9.74415 
117 1 7.02504 6.1547 1.93441 
120 1 7.20543 8.3803 3.10618 
123 1 3.67568 6.36127 9.74341 
129 1 6.66304 6.9471 0.774231 
132 1 6.70552 9.13631 8.62716 
135 1 7.35583 6.93925 7.53339 
141 1 7.18525 6.20393 10.9863 
144 1 6.52461 8.35449 9.80797 
148 1 3.61908 7.81912 0.84654 
7 1 9.14291 6.02837 11.946 
10 1 3.82809 9.85377 21.6224 
13 1 2.4766 9.85422 22.0433 
15 1 3.03367 8.32138 17.8763 
28 1 3.76741 9.75109 20.1656 
30 1 4.50836 8.57083 19.7521 
34 1 4.33056 6.34396 18.5823 
40 1 7.85694 8.36932 11.9376 
49 1 4.86571 7.78197 20.9141 
50 1 2.10954 9.23794 18.5229 
58 1 1.61595 10.0805 11.8619 
59 1 4.1694 7.78581 14.1591 
69 1 3.81337 9.83286 11.1487 
73 1 3.03273 8.32226 14.8814 
75 1 5.00039 6.36031 11.8706 
79 1 7.18196 6.20703 21.7846 
82 1 7.91776 6.90167 20.8388 
86 1 3.77785 9.76469 12.6191 
88 1 2.44538 9.99752 13.0729 
108 1 9.14688 6.03331 20.8153 
112 1 4.51165 8.56762 13.0108 
115 1 4.32964 6.34387 14.1795 
124 1 4.87215 7.77956 11.8497 
125 1 2.10842 9.2406 14.2387 
126 1 6.91532 9.15393 21.7442 
128 1 7.85615 8.36454 20.8232 
139 1 1.61777 10.0798 20.8959 
140 1 4.16639 7.78295 18.6019 
143 1 7.91975 6.89362 11.9289 
146 1 4.3498 8.52096 22.0524 
149 1 5.00011 6.36017 20.8945 
157 1 2.44236 10.0001 19.6903 
ITEM: TIMESTEP
50
ITEM: NUMBER OF ATOMS
161
ITEM: BOX BOUNDS xy xz yz pp pp pp
-6.7755000000000001e+00 1.3552000000000000e+01 -6.7755000000000001e+00
0.0000000000000000e+00 1.1735510246683001e+01 0.0000000000000000e+00
0.0000000000000000e+00 2.2149999999999999e+01 0.0000000000000000e+00
ITEM: ATOMS id type x y z 
8 1 -2.47211 5.46 9.82548 
87 1 2.94478 4.31507 10.6415 
90 1 2.60616 5.46598 9.75716 
109 1 -2.47084 5.45534 0.78367 
158 1 2.60648 5.46554 0.857094 
11 1 4.2567 4.30617 20.089 
14 1 2.86126 4.17463 19.712 
18 1 1.28348 5.87326 18.6108 
33 1 2.07877 4.21582 20.9172 
43 1 4.25916 4.30728 21.5273 
47 1 3.22529 5.79437 17.8306 
52 1 4.25586 4.3059 12.6746 
76 1 2.38844 4.9429 14.1763 
85 1 4.2592 4.30791 11.236 
89 1 3.22501 5.79527 14.9323 
91 1 0.91547 5.02471 11.834 
102 1 2.86044 4.1745 13.0514 
105 1 1.28292 5.87276 14.1524 
114 1 2.07835 4.21669 11.8461 
150 1 2.38846 4.94276 18.5873 
156 1 2.94503 4.31456 22.1218 
159 1 0.915653 5.02354 20.9282 
5 1 -4.90522 10.5793 8.63064 
9 1 -3.21181 8.95472 7.38615 
19 1 -1.74332 7.53034 10.5494 
21 1 -2.58217 8.77094 10.9045 
23 1 -3.29988 7.46212 6.81387 
25 1 -4.10635 10.4901 9.82775 
32 1 1.57701 6.39814 0.758002 
36 1 -1.80512 7.58563 9.04746 
38 1 -2.14039 6.26472 8.64061 
54 1 0.34742 8.47356 10.671 
57 1 1.39875 7.9464 9.80324 
60 1 -1.73876 7.52494 0.0701466 
65 1 -3.3035 7.55268 3.77548 
78 1 -1.78883 7.57158 1.55489 
80 1 -2.48713 8.81424 1.8292 
84 1 -4.40888 9.77675 3.10458 
99 1 -2.93508 9.69976 0.760299 
100 1 -2.93474 6.28841 3.15901 
107 1 -4.87817 10.5478 1.97878 
110 1 -3.3023 8.85257 3.07826 
111 1 0.568293 5.9426 10.8081 
113 1 1.57645 6.39971 9.85544 
119 1 -4.09641 10.5082 0.774038 
127 1 -2.12977 6.26615 1.97527 
131 1 -2.36782 6.25525 11.0181 
138 1 1.39849 7.94656 0.810803 
142 1 -2.51596 8.78774 8.80564 
145 1 -4.47193 9.84036 7.51223 
151 1 -4.95863 10.4079 11.0381 
154 1 -2.9529 9.66333 9.83538 
155 1 -2.94437 6.26389 7.4513 
161 2 -2.5867 9.37659 6.56391 
12 1 2.56834 7.04582 17.1479 
17 1 0.452206 9.26758 20.9062 
24 1 -3.59478 8.32352 11.8486 
27 1 -0.279909 7.20008 21.6186 
29 1 0.569732 5.94099 21.9551 
31 1 1.28423 7.17314 17.914 
44 1 -0.229884 7.15243 20.1347 
46 1 0.111516 8.45804 19.7145 
51 1 -0.284178 7.20069 11.1434 
53 1 2.56852 7.04785 15.6139 
56 1 1.28324 7.17274 14.8491 
63 1 -2.36545 6.25023 21.7469 
66 1 -3.41651 6.77675 20.8786 
70 1 -0.229832 7.15203 12.6277 
72 1 0.469331 5.90968 12.9045 
92 1 0.916327 8.43599 14.2331 
95 1 -4.96266 10.4095 21.7168 
98 1 -4.62409 9.25982 20.8337 
104 1 0.452776 9.26815 11.8576 
116 1 -2.58783 8.78213 21.8825 
118 1 -3.59618 8.32319 20.931 
122 1 0.111832 8.45739 13.0486 
133 1 -3.41722 6.77163 11.8898 
136 1 0.346688 8.47412 22.0928 
147 1 0.469426 5.90962 19.8587 
153 1 -4.62292 9.26224 11.9285 
160 1 0.917081 8.43672 18.5302 
1 1 7.71526 4.89061 10.543 
4 1 9.07022 4.86586 10.981 
20 1 7.73095 4.94775 9.07236 
42 1 9.40282 5.45533 7.45048 
67 1 9.9054 4.65095 0.788339 
77 1 7.71623 4.89172 0.0739609 
94 1 7.74562 4.95618 1.5464 
96 1 9.0829 4.73074 1.99878 
121 1 4.61431 5.57421 10.6773 
130 1 9.42498 5.49015 3.16246 
134 1 9.90586 4.6485 9.82744 
152 1 9.07021 4.71245 8.62438 
45 1 4.61428 5.57399 22.0865 
55 1 4.81892 5.59116 13.0754 
106 1 9.0675 4.86714 21.7833 
137 1 4.81819 5.59244 19.6895 
2 1 7.24944 10.422 9.04447 
3 1 8.9972 7.61294 6.08798 
6 1 8.47317 6.36288 6.80005 
16 1 2.39721 8.68866 0.868233 
22 1 7.01394 6.15323 8.67759 
26 1 7.22343 8.37662 7.52882 
35 1 7.25762 10.4299 10.4783 
37 1 6.92351 9.14712 11.0194 
39 1 8.35481 8.92236 6.80318 
41 1 6.65491 6.94058 9.8449 
48 1 3.66898 6.36743 0.875995 
61 1 7.27889 10.4188 1.60013 
62 1 8.96601 7.67156 4.54484 
64 1 6.71695 9.13258 2.00079 
68 1 7.35606 6.93555 3.08339 
71 1 4.3609 8.52154 10.7139 
74 1 3.61827 7.82313 9.75998 
81 1 8.49716 6.4074 3.81412 
83 1 6.53189 8.36197 0.791401 
93 1 7.27608 10.4148 0.162188 
97 1 8.31068 8.92259 3.86635 
101 1 2.46738 9.85518 10.7074 
103 1 2.39543 8.69239 9.74391 
117 1 7.01681 6.15365 1.93906 
120 1 7.20613 8.38035 3.10842 
123 1 3.66871 6.36844 9.73772 
129 1 6.65699 6.94036 0.772239 
132 1 6.70994 9.1361 8.62212 
135 1 7.34848 6.93347 7.53353 
141 1 7.17418 6.20165 10.9793 
144 1 6.52801 8.35924 9.82472 
148 1 3.61988 7.82268 0.851547 
7 1 9.1368 6.02833 11.9469 
10 1 3.83105 9.845 21.6242 
13 1 2.47583 9.85588 22.0518 
15 1 3.03607 8.31678 17.8711 
28 1 3.7801 9.75857 20.1572 
30 1 4.51562 8.57086 19.7471 
34 1 4.32993 6.34436 18.5811 
40 1 7.86515 8.35535 11.9511 
49 1 4.87272 7.78664 20.9169 
50 1 2.1104 9.23424 18.5247 
58 1 1.62804 10.0734 11.8635 
59 1 4.17718 7.79061 14.1596 
69 1 3.81915 9.83224 11.1493 
73 1 3.03521 8.3173 14.8871 
75 1 5.00021 6.36186 11.8649 
79 1 7.17365 6.20207 21.7888 
82 1 7.91541 6.9001 20.8346 