 # C1
  
          80  atoms
           1  atom types
 
      0.000000000000      12.991300000000  xlo xhi
      0.000000000000      12.991300000000  ylo yhi
      0.000000000000      12.991300000000  zlo zhi
 
Masses
 
            1   12.01100000             # C
 
Atoms # charge
 
         1    1   0.000000       10.938154948000      10.938154948000      10.938154948000
         2    1   0.000000       10.090992275000      10.090992275000      10.090992275000
         3    1   0.000000       10.708079025000      12.386554985000      10.708079025000
         4    1   0.000000        2.053145052000       2.053145052000      10.938154948000
         5    1   0.000000        2.900307725000       2.900307725000      10.090992275000
         6    1   0.000000        2.283220975000       0.604745015000      10.708079025000
         7    1   0.000000       10.938154948000       2.053145052000       2.053145052000
         8    1   0.000000       10.090992275000       2.900307725000       2.900307725000
         9    1   0.000000       10.708079025000       0.604745015000       2.283220975000
        10    1   0.000000        2.053145052000      10.938154948000       2.053145052000
        11    1   0.000000        2.900307725000      10.090992275000       2.900307725000
        12    1   0.000000        2.283220975000      12.386554985000       2.283220975000
        13    1   0.000000       10.708079025000      10.708079025000      12.386554985000
        14    1   0.000000       10.708079025000       2.283220975000       0.604745015000
        15    1   0.000000        2.283220975000      10.708079025000       0.604745015000
        16    1   0.000000        2.283220975000       2.283220975000      12.386554985000
        17    1   0.000000       12.386554985000      10.708079025000      10.708079025000
        18    1   0.000000        0.604745015000      10.708079025000       2.283220975000
        19    1   0.000000        0.604745015000       2.283220975000      10.708079025000
        20    1   0.000000       12.386554985000       2.283220975000       2.283220975000
        21    1   0.000000        2.053145052000       2.053145052000       2.053145052000
        22    1   0.000000        2.900307725000       2.900307725000       2.900307725000
        23    1   0.000000        0.604745015000       2.283220975000       2.283220975000
        24    1   0.000000       10.938154948000      10.938154948000       2.053145052000
        25    1   0.000000       10.090992275000      10.090992275000       2.900307725000
        26    1   0.000000       12.386554985000      10.708079025000       2.283220975000
        27    1   0.000000       10.938154948000       2.053145052000      10.938154948000
        28    1   0.000000       10.090992275000       2.900307725000      10.090992275000
        29    1   0.000000       12.386554985000       2.283220975000      10.708079025000
        30    1   0.000000        2.053145052000      10.938154948000      10.938154948000
        31    1   0.000000        2.900307725000      10.090992275000      10.090992275000
        32    1   0.000000        0.604745015000      10.708079025000      10.708079025000
        33    1   0.000000        2.283220975000       2.283220975000       0.604745015000
        34    1   0.000000       10.708079025000       2.283220975000      12.386554985000
        35    1   0.000000        2.283220975000      10.708079025000      12.386554985000
        36    1   0.000000       10.708079025000      10.708079025000       0.604745015000
        37    1   0.000000        2.283220975000       0.604745015000       2.283220975000
        38    1   0.000000        2.283220975000      12.386554985000      10.708079025000
        39    1   0.000000       10.708079025000      12.386554985000       2.283220975000
        40    1   0.000000       10.708079025000       0.604745015000      10.708079025000
        41    1   0.000000        4.442504948000       4.442504948000       4.442504948000
        42    1   0.000000        3.595342275000       3.595342275000       3.595342275000
        43    1   0.000000        4.212429025000       5.890904985000       4.212429025000
        44    1   0.000000        8.548795052000       8.548795052000       4.442504948000
        45    1   0.000000        9.395957725000       9.395957725000       3.595342275000
        46    1   0.000000        8.778870975000       7.100395015000       4.212429025000
        47    1   0.000000        4.442504948000       8.548795052000       8.548795052000
        48    1   0.000000        3.595342275000       9.395957725000       9.395957725000
        49    1   0.000000        4.212429025000       7.100395015000       8.778870975000
        50    1   0.000000        8.548795052000       4.442504948000       8.548795052000
        51    1   0.000000        9.395957725000       3.595342275000       9.395957725000
        52    1   0.000000        8.778870975000       5.890904985000       8.778870975000
        53    1   0.000000        4.212429025000       4.212429025000       5.890904985000
        54    1   0.000000        4.212429025000       8.778870975000       7.100395015000
        55    1   0.000000        8.778870975000       4.212429025000       7.100395015000
        56    1   0.000000        8.778870975000       8.778870975000       5.890904985000
        57    1   0.000000        5.890904985000       4.212429025000       4.212429025000
        58    1   0.000000        7.100395015000       4.212429025000       8.778870975000
        59    1   0.000000        7.100395015000       8.778870975000       4.212429025000
        60    1   0.000000        5.890904985000       8.778870975000       8.778870975000
        61    1   0.000000        8.548795052000       8.548795052000       8.548795052000
        62    1   0.000000        9.395957725000       9.395957725000       9.395957725000
        63    1   0.000000        7.100395015000       8.778870975000       8.778870975000
        64    1   0.000000        4.442504948000       4.442504948000       8.548795052000
        65    1   0.000000        3.595342275000       3.595342275000       9.395957725000
        66    1   0.000000        5.890904985000       4.212429025000       8.778870975000
        67    1   0.000000        4.442504948000       8.548795052000       4.442504948000
        68    1   0.000000        3.595342275000       9.395957725000       3.595342275000
        69    1   0.000000        5.890904985000       8.778870975000       4.212429025000
        70    1   0.000000        8.548795052000       4.442504948000       4.442504948000
        71    1   0.000000        9.395957725000       3.595342275000       3.595342275000
        72    1   0.000000        7.100395015000       4.212429025000       4.212429025000
        73    1   0.000000        8.778870975000       8.778870975000       7.100395015000
        74    1   0.000000        4.212429025000       8.778870975000       5.890904985000
        75    1   0.000000        8.778870975000       4.212429025000       5.890904985000
        76    1   0.000000        4.212429025000       4.212429025000       7.100395015000
        77    1   0.000000        8.778870975000       7.100395015000       8.778870975000
        78    1   0.000000        8.778870975000       5.890904985000       4.212429025000
        79    1   0.000000        4.212429025000       5.890904985000       8.778870975000
        80    1   0.000000        4.212429025000       7.100395015000       4.212429025000
