ITEM: TIMESTEP
0
ITEM: NUMBER OF ATOMS
80
ITEM: BOX BOUNDS pp pp pp
0.0000000000000000e+00 1.2991300000000001e+01
0.0000000000000000e+00 1.2991300000000001e+01
0.0000000000000000e+00 1.2991300000000001e+01
ITEM: ATOMS id type x y z 
21 1 2.05315 2.05315 2.05315 
22 1 2.90031 2.90031 2.90031 
23 1 0.604745 2.28322 2.28322 
33 1 2.28322 2.28322 0.604745 
37 1 2.28322 0.604745 2.28322 
41 1 4.4425 4.4425 4.4425 
42 1 3.59534 3.59534 3.59534 
43 1 4.21243 5.8909 4.21243 
53 1 4.21243 4.21243 5.8909 
57 1 5.8909 4.21243 4.21243 
4 1 2.05315 2.05315 10.9382 
5 1 2.90031 2.90031 10.091 
6 1 2.28322 0.604745 10.7081 
16 1 2.28322 2.28322 12.3866 
19 1 0.604745 2.28322 10.7081 
64 1 4.4425 4.4425 8.5488 
65 1 3.59534 3.59534 9.39596 
66 1 5.8909 4.21243 8.77887 
76 1 4.21243 4.21243 7.1004 
79 1 4.21243 5.8909 8.77887 
10 1 2.05315 10.9382 2.05315 
11 1 2.90031 10.091 2.90031 
12 1 2.28322 12.3866 2.28322 
15 1 2.28322 10.7081 0.604745 
18 1 0.604745 10.7081 2.28322 
67 1 4.4425 8.5488 4.4425 
68 1 3.59534 9.39596 3.59534 
69 1 5.8909 8.77887 4.21243 
74 1 4.21243 8.77887 5.8909 
80 1 4.21243 7.1004 4.21243 
30 1 2.05315 10.9382 10.9382 
31 1 2.90031 10.091 10.091 
32 1 0.604745 10.7081 10.7081 
35 1 2.28322 10.7081 12.3866 
38 1 2.28322 12.3866 10.7081 
47 1 4.4425 8.5488 8.5488 
48 1 3.59534 9.39596 9.39596 
49 1 4.21243 7.1004 8.77887 
54 1 4.21243 8.77887 7.1004 
60 1 5.8909 8.77887 8.77887 
7 1 10.9382 2.05315 2.05315 
8 1 10.091 2.90031 2.90031 
9 1 10.7081 0.604745 2.28322 
14 1 10.7081 2.28322 0.604745 
20 1 12.3866 2.28322 2.28322 
70 1 8.5488 4.4425 4.4425 
71 1 9.39596 3.59534 3.59534 
72 1 7.1004 4.21243 4.21243 
75 1 8.77887 4.21243 5.8909 
78 1 8.77887 5.8909 4.21243 
27 1 10.9382 2.05315 10.9382 
28 1 10.091 2.90031 10.091 
29 1 12.3866 2.28322 10.7081 
34 1 10.7081 2.28322 12.3866 
40 1 10.7081 0.604745 10.7081 
50 1 8.5488 4.4425 8.5488 
51 1 9.39596 3.59534 9.39596 
52 1 8.77887 5.8909 8.77887 
55 1 8.77887 4.21243 7.1004 
58 1 7.1004 4.21243 8.77887 
24 1 10.9382 10.9382 2.05315 
25 1 10.091 10.091 2.90031 
26 1 12.3866 10.7081 2.28322 
36 1 10.7081 10.7081 0.604745 
39 1 10.7081 12.3866 2.28322 
44 1 8.5488 8.5488 4.4425 
45 1 9.39596 9.39596 3.59534 
46 1 8.77887 7.1004 4.21243 
56 1 8.77887 8.77887 5.8909 
59 1 7.1004 8.77887 4.21243 
1 1 10.9382 10.9382 10.9382 
2 1 10.091 10.091 10.091 
3 1 10.7081 12.3866 10.7081 
13 1 10.7081 10.7081 12.3866 
17 1 12.3866 10.7081 10.7081 
61 1 8.5488 8.5488 8.5488 
62 1 9.39596 9.39596 9.39596 
63 1 7.1004 8.77887 8.77887 
73 1 8.77887 8.77887 7.1004 
77 1 8.77887 7.1004 8.77887 
ITEM: TIMESTEP
10
ITEM: NUMBER OF ATOMS
80
ITEM: BOX BOUNDS pp pp pp
0.0000000000000000e+00 1.2991300000000001e+01
0.0000000000000000e+00 1.2991300000000001e+01
0.0000000000000000e+00 1.2991300000000001e+01
ITEM: ATOMS id type x y z 
21 1 2.08773 2.08773 2.08644 
22 1 2.90415 2.90415 2.90474 
23 1 0.593249 2.33886 2.33897 
33 1 2.33862 2.33862 0.594123 
37 1 2.33886 0.593249 2.33897 
41 1 4.40818 4.40818 4.40867 
42 1 3.59168 3.59168 3.59053 
43 1 4.15683 5.90219 4.15682 
53 1 4.15682 4.15682 5.90202 
57 1 5.90219 4.15683 4.15682 
4 1 2.08722 2.08722 10.904 
5 1 2.90407 2.90407 10.0865 
6 1 2.33883 0.593573 10.6525 
16 1 2.33881 2.33881 12.398 
19 1 0.593573 2.33883 10.6525 
64 1 4.40833 4.40833 8.58251 
65 1 3.5916 3.5916 9.40058 
66 1 5.90209 4.15681 8.8345 
76 1 4.1569 4.1569 7.08951 
79 1 4.15681 5.90209 8.8345 
10 1 2.08644 10.9042 2.08742 
11 1 2.90462 10.0872 2.90426 
12 1 2.3388 12.3973 2.33867 
15 1 2.33888 10.6525 0.593497 
18 1 0.593768 10.6527 2.33863 
67 1 4.4092 8.58295 4.40831 
68 1 3.59106 9.39972 3.59137 
69 1 5.90191 8.83429 4.15704 
74 1 4.15676 8.83446 5.9021 
80 1 4.15683 7.08935 4.15693 
30 1 2.08694 10.9038 10.9047 
31 1 2.90413 10.0868 10.0869 
32 1 0.594009 10.6526 10.6526 
35 1 2.33866 10.6526 12.3977 
38 1 2.33886 12.3977 10.6524 
47 1 4.40838 8.58309 8.58219 
48 1 3.59159 9.40015 9.4 
49 1 4.1568 7.08922 8.83457 
54 1 4.15702 8.8343 7.08938 
60 1 5.902 8.83438 8.83446 
7 1 10.9042 2.08644 2.08742 
8 1 10.0872 2.90462 2.90426 
9 1 10.6527 0.593768 2.33863 
14 1 10.6525 2.33888 0.593497 
20 1 12.3973 2.3388 2.33867 
70 1 8.58295 4.4092 4.40831 
71 1 9.39972 3.59106 3.59137 
72 1 7.08935 4.15683 4.15693 
75 1 8.83446 4.15676 5.9021 
78 1 8.83429 5.90191 4.15704 
27 1 10.9038 2.08694 10.9047 
28 1 10.0868 2.90413 10.0869 
29 1 12.3977 2.33886 10.6524 
34 1 10.6526 2.33866 12.3977 
40 1 10.6526 0.594008 10.6526 
50 1 8.58309 4.40838 8.58219 
51 1 9.40015 3.59159 9.4 
52 1 8.83438 5.90201 8.83446 
55 1 8.8343 4.15702 7.08938 
58 1 7.08922 4.1568 8.83457 
24 1 10.9043 10.9043 2.08766 
25 1 10.0872 10.0872 2.90484 
26 1 12.3977 10.6525 2.33876 
36 1 10.6525 10.6525 0.593042 
39 1 10.6525 12.3977 2.33876 
44 1 8.58277 8.58277 4.40863 
45 1 9.39974 9.39974 3.59077 
46 1 8.83442 7.08925 4.15684 
56 1 8.83437 8.83437 5.90181 
59 1 7.08925 8.83442 4.15684 
1 1 10.9033 10.9033 10.9053 
2 1 10.0871 10.0872 10.0866 
3 1 10.6524 12.3982 10.6523 
13 1 10.6528 10.6528 12.3969 
17 1 12.3982 10.6524 10.6523 
61 1 8.58322 8.58324 8.58248 
62 1 9.39963 9.39957 9.40077 
63 1 7.08906 8.83449 8.83446 
73 1 8.83444 8.83444 7.08933 
77 1 8.83449 7.08906 8.83446 
ITEM: TIMESTEP
20
ITEM: NUMBER OF ATOMS
80
ITEM: BOX BOUNDS pp pp pp
0.0000000000000000e+00 1.2991300000000001e+01
0.0000000000000000e+00 1.2991300000000001e+01
0.0000000000000000e+00 1.2991300000000001e+01
ITEM: ATOMS id type x y z 
21 1 2.08139 2.08139 2.08071 
22 1 2.90419 2.90419 2.9023 
23 1 0.593196 2.35937 2.35932 
33 1 2.35873 2.35873 0.591817 
37 1 2.35937 0.593198 2.35932 
41 1 4.4143 4.4143 4.41496 
42 1 3.59165 3.59165 3.59308 
43 1 4.13634 5.90266 4.13646 
53 1 4.1368 4.1368 5.90299 
57 1 5.90267 4.13634 4.13646 
4 1 2.08139 2.08138 10.9107 
5 1 2.90408 2.90409 10.0889 
6 1 2.35928 0.593851 10.6319 
16 1 2.3587 2.3587 12.3994 
19 1 0.593897 2.35929 10.6319 
64 1 4.41437 4.41439 8.57633 
65 1 3.59167 3.59166 9.39811 
66 1 5.90202 4.13644 8.85502 
76 1 4.13688 4.13688 7.08836 
79 1 4.13644 5.90208 8.85501 
10 1 2.08088 10.9099 2.08116 
11 1 2.90179 10.0868 2.90428 
12 1 2.35936 12.3981 2.35939 
15 1 2.35917 10.6323 0.592979 
18 1 0.592798 10.6325 2.35891 
67 1 4.41487 8.57701 4.4143 
68 1 3.59395 9.39999 3.59106 
69 1 5.90339 8.85441 4.13678 
74 1 4.13637 8.85482 5.90204 
80 1 4.13633 7.08867 4.13637 
30 1 2.08132 10.9098 10.9107 
31 1 2.90432 10.0869 10.0896 
32 1 0.592941 10.6321 10.6319 
35 1 2.35885 10.6325 12.3991 
38 1 2.35932 12.3974 10.6318 
47 1 4.41434 8.57705 8.57638 
48 1 3.59145 9.39972 9.39787 
49 1 4.13642 7.08929 8.85506 
54 1 4.13668 8.85455 7.08845 
60 1 5.90276 8.85486 8.855 
7 1 10.9099 2.08088 2.08117 
8 1 10.0868 2.90179 2.90427 
9 1 10.6325 0.592797 2.35891 
14 1 10.6322 2.35917 0.593024 
20 1 12.3981 2.35936 2.35939 
70 1 8.577 4.41487 4.41429 
71 1 9.39999 3.59395 3.59106 
72 1 7.08867 4.13633 4.13637 
75 1 8.85483 4.13637 5.90198 
78 1 8.85441 5.90339 4.13678 
27 1 10.9098 2.08124 10.9106 
28 1 10.0869 2.90436 10.0896 
29 1 12.3974 2.35933 10.6318 
34 1 10.6325 2.35886 12.399 
40 1 10.6321 0.592378 10.6319 
50 1 8.57709 4.41444 8.57641 
51 1 9.39971 3.59141 9.39787 
52 1 8.85485 5.90344 8.85498 
55 1 8.85455 4.13667 7.0885 
58 1 7.08933 4.13641 8.85506 
24 1 10.9099 10.9099 2.08065 
25 1 10.0872 10.0872 2.90256 
26 1 12.3978 10.6322 2.35918 
36 1 10.6326 10.6326 0.591561 
39 1 10.6322 12.3978 2.35918 
44 1 8.57694 8.57694 4.41477 
45 1 9.39975 9.39975 3.59308 
46 1 8.85475 7.08864 4.13654 
56 1 8.85448 8.85447 5.90227 
59 1 7.08864 8.85475 4.13654 
1 1 10.9099 10.91 10.9105 
2 1 10.087 10.0869 10.0892 
3 1 10.632 12.3988 10.6319 
13 1 10.6326 10.6326 12.4 
17 1 12.3983 10.632 10.6319 
61 1 8.57699 8.57688 8.57653 
62 1 9.39977 9.39985 9.39798 
63 1 7.08854 8.85488 8.85496 
73 1 8.8545 8.85451 7.08885 
77 1 8.85486 7.08789 8.85495 
ITEM: TIMESTEP
30
ITEM: NUMBER OF ATOMS
80
ITEM: BOX BOUNDS pp pp pp
0.0000000000000000e+00 1.2991300000000001e+01
0.0000000000000000e+00 1.2991300000000001e+01
0.0000000000000000e+00 1.2991300000000001e+01
ITEM: ATOMS id type x y z 
21 1 2.08074 2.08061 2.08044 
22 1 2.90339 2.90374 2.90336 
23 1 0.592923 2.35937 2.35928 
33 1 2.35886 2.35886 0.59299 
37 1 2.35937 0.592923 2.35928 
41 1 4.41491 4.41496 4.41534 
42 1 3.59242 3.59216 3.59194 
43 1 4.13632 5.90271 4.1365 
53 1 4.13669 4.13669 5.90267 
57 1 5.90271 4.13632 4.1365 
4 1 2.08061 2.08059 10.9109 
5 1 2.90354 2.90354 10.0879 
6 1 2.35924 0.592885 10.6319 
16 1 2.35884 2.35884 12.3983 
19 1 0.592886 2.35925 10.6319 
64 1 4.41507 4.41509 8.57606 
65 1 3.59219 3.5922 9.39911 
66 1 5.90277 4.13646 8.855 
76 1 4.13676 4.13676 7.08868 
79 1 4.13647 5.90278 8.855 
10 1 2.0802 10.9106 2.08089 
11 1 2.90299 10.0875 2.90371 
12 1 2.3593 12.3983 2.3594 
15 1 2.35916 10.6322 0.59339 
18 1 0.59262 10.6324 2.35901 
67 1 4.41545 8.57632 4.41467 
68 1 3.59275 9.39935 3.59175 
69 1 5.90304 8.85452 4.13664 
74 1 4.13642 8.85484 5.90221 
80 1 4.13638 7.08861 4.13633 
30 1 2.08064 10.9106 10.9111 
31 1 2.90373 10.0874 10.0885 
32 1 0.592967 10.6321 10.6319 
35 1 2.35896 10.6325 12.3987 
38 1 2.35927 12.3983 10.6319 
47 1 4.41495 8.57631 8.57577 
48 1 3.5921 9.39923 9.39889 
49 1 4.13644 7.08868 8.85497 
54 1 4.13659 8.8546 7.08817 
60 1 5.90266 8.85485 8.85492 
7 1 10.9106 2.0802 2.08089 
8 1 10.0875 2.90299 2.90371 
9 1 10.6324 0.592618 2.35901 
14 1 10.6322 2.35916 0.593387 
20 1 12.3983 2.3593 2.3594 
70 1 8.57632 4.41545 4.41467 
71 1 9.39935 3.59275 3.59175 
72 1 7.08861 4.13638 4.13633 
75 1 8.85484 4.13642 5.90222 
78 1 8.85452 5.90304 4.13664 
27 1 10.9106 2.08062 10.9111 
28 1 10.0874 2.90379 10.0886 
29 1 12.3983 2.35927 10.6319 
34 1 10.6325 2.35895 12.3987 
40 1 10.6321 0.592949 10.6319 
50 1 8.57632 4.41497 8.57577 
51 1 9.39923 3.59202 9.39882 
52 1 8.85486 5.90268 8.85493 
55 1 8.8546 4.13659 7.08818 
58 1 7.08869 4.13644 8.85497 
24 1 10.9103 10.9104 2.0805 
25 1 10.0877 10.0877 2.90349 
26 1 12.3979 10.6321 2.3592 
36 1 10.6324 10.6324 0.592967 
39 1 10.6321 12.3979 2.3592 
44 1 8.57656 8.5766 4.41512 
45 1 9.39928 9.39924 3.59221 
46 1 8.85483 7.089 4.1365 
56 1 8.85464 8.85464 5.90268 
59 1 7.089 8.85483 4.1365 
1 1 10.9107 10.9106 10.9108 
2 1 10.0875 10.0876 10.0883 
3 1 10.6321 12.3984 10.6319 
13 1 10.6325 10.6325 12.3983 
17 1 12.3984 10.6321 10.6319 
61 1 8.57628 8.57632 8.57611 
62 1 9.39929 9.39924 9.39887 
63 1 7.08856 8.85487 8.85496 
73 1 8.85457 8.85457 7.0887 
77 1 8.85487 7.08856 8.85497 
ITEM: TIMESTEP
40
ITEM: NUMBER OF ATOMS
80
ITEM: BOX BOUNDS pp pp pp
0.0000000000000000e+00 1.2991300000000001e+01
0.0000000000000000e+00 1.2991300000000001e+01
0.0000000000000000e+00 1.2991300000000001e+01
ITEM: ATOMS id type x y z 
21 1 2.08034 2.08039 2.0803 
22 1 2.90327 2.90361 2.90351 
23 1 0.592944 2.35938 2.35929 
33 1 2.35895 2.35893 0.592994 
37 1 2.35941 0.592918 2.35931 
41 1 4.41529 4.41533 4.4153 
42 1 3.59253 3.5921 3.59198 
43 1 4.13627 5.9027 4.13646 
53 1 4.1366 4.13661 5.90272 
57 1 5.90267 4.13631 4.13648 
4 1 2.08028 2.08028 10.911 
5 1 2.90347 2.90341 10.0878 
6 1 2.35926 0.592871 10.6319 
16 1 2.35891 2.35892 12.3983 
19 1 0.592861 2.35927 10.6319 
64 1 4.41542 4.41543 8.57604 
65 1 3.59222 3.59221 9.39906 
66 1 5.90277 4.13644 8.85504 
76 1 4.13669 4.13669 7.08867 
79 1 4.13643 5.90279 8.85504 
10 1 2.08006 10.9109 2.08068 
11 1 2.90339 10.0878 2.90353 
12 1 2.3593 12.3983 2.35944 
15 1 2.35917 10.6322 0.593415 
18 1 0.592592 10.6323 2.35913 
67 1 4.41563 8.57603 4.41487 
68 1 3.59229 9.39908 3.59202 
69 1 5.90305 8.85462 4.13653 
74 1 4.13642 8.85487 5.9022 
80 1 4.13637 7.08865 4.13628 
30 1 2.08036 10.9109 10.9114 
31 1 2.90357 10.0877 10.0882 
32 1 0.592983 10.6321 10.6319 
35 1 2.35904 10.6324 12.3987 
38 1 2.35929 12.3983 10.6319 
47 1 4.41531 8.57603 8.57561 
48 1 3.59219 9.39898 9.39914 
49 1 4.13641 7.08872 8.85496 
54 1 4.1365 8.85468 7.08815 
60 1 5.90263 8.85488 8.85491 
7 1 10.9109 2.08005 2.08068 
8 1 10.0878 2.90338 2.90353 
9 1 10.6323 0.592599 2.35913 
14 1 10.6322 2.35916 0.593414 
20 1 12.3983 2.3593 2.35944 
70 1 8.57603 4.41562 4.41488 
71 1 9.39911 3.59232 3.59201 
72 1 7.08859 4.13636 4.13628 
75 1 8.85487 4.13642 5.9022 
78 1 8.85462 5.90301 4.13653 
27 1 10.9109 2.0803 10.9114 
28 1 10.0878 2.90366 10.0882 
29 1 12.3983 2.35929 10.6319 
34 1 10.6324 2.35904 12.3987 
40 1 10.6321 0.592974 10.6319 
50 1 8.57598 4.41527 8.57561 
51 1 9.39908 3.59223 9.39907 
52 1 8.85488 5.90264 8.85491 
55 1 8.85467 4.1365 7.08815 
58 1 7.08871 4.1364 8.85497 
24 1 10.9106 10.9106 2.08047 
25 1 10.0878 10.0877 2.90352 
26 1 12.3979 10.6321 2.35923 
36 1 10.6322 10.6322 0.59294 
39 1 10.632 12.3979 2.35923 
44 1 8.57637 8.57642 4.41525 
45 1 9.39917 9.39925 3.59217 
46 1 8.85491 7.08901 4.13644 
56 1 8.85475 8.85474 5.90271 
59 1 7.08903 8.85489 4.13645 
1 1 10.9109 10.9109 10.9109 
2 1 10.0878 10.0878 10.0879 
3 1 10.632 12.3984 10.6318 
13 1 10.6324 10.6324 12.3982 
17 1 12.3984 10.632 10.6318 
61 1 8.57597 8.57597 8.57607 
62 1 9.39908 9.39909 9.39914 
63 1 7.08856 8.85489 8.855 
73 1 8.85465 8.85466 7.08868 
77 1 8.8549 7.08856 8.855 
ITEM: TIMESTEP
46
ITEM: NUMBER OF ATOMS
80
ITEM: BOX BOUNDS pp pp pp
0.0000000000000000e+00 1.2991300000000001e+01
0.0000000000000000e+00 1.2991300000000001e+01
0.0000000000000000e+00 1.2991300000000001e+01
ITEM: ATOMS id type x y z 
21 1 2.08031 2.08038 2.0803 
22 1 2.90333 2.90357 2.90347 
23 1 0.592949 2.35938 2.35929 
33 1 2.35895 2.35894 0.592984 
37 1 2.35941 0.592924 2.35931 
41 1 4.41533 4.41535 4.4153 
42 1 3.59247 3.59212 3.59202 
43 1 4.13627 5.9027 4.13645 
53 1 4.13659 4.1366 5.90271 
57 1 5.90267 4.1363 4.13648 
4 1 2.08026 2.08025 10.911 
5 1 2.90346 2.90342 10.0878 
6 1 2.35926 0.592878 10.6319 
16 1 2.35892 2.35892 12.3983 
19 1 0.592862 2.35927 10.6319 
64 1 4.41543 4.41543 8.57601 
65 1 3.59223 3.59222 9.39908 
66 1 5.90277 4.13644 8.85505 
76 1 4.13669 4.13668 7.08867 
79 1 4.13643 5.90279 8.85505 
10 1 2.08004 10.9109 2.08068 
11 1 2.90339 10.0878 2.9035 
12 1 2.3593 12.3983 2.35944 
15 1 2.35917 10.6322 0.593412 
18 1 0.592598 10.6323 2.35914 
67 1 4.41563 8.57601 4.41489 
68 1 3.5923 9.3991 3.59203 
69 1 5.90305 8.85463 4.13652 
74 1 4.13642 8.85487 5.90221 
80 1 4.13637 7.08865 4.13627 
30 1 2.08035 10.9109 10.9114 
31 1 2.90354 10.0877 10.0882 
32 1 0.592986 10.6321 10.6319 
35 1 2.35905 10.6324 12.3987 
38 1 2.3593 12.3983 10.6319 
47 1 4.41533 8.57601 8.5756 
48 1 3.5922 9.39899 9.39913 
49 1 4.1364 7.08872 8.85497 
54 1 4.1365 8.85468 7.08815 
60 1 5.90263 8.85489 8.85491 
7 1 10.9109 2.08003 2.08067 
8 1 10.0878 2.90339 2.90351 
9 1 10.6323 0.592604 2.35914 
14 1 10.6322 2.35917 0.593411 
20 1 12.3983 2.3593 2.35944 
70 1 8.576 4.41562 4.41489 
71 1 9.39912 3.59233 3.59202 
72 1 7.0886 4.13636 4.13627 
75 1 8.85487 4.13642 5.90221 
78 1 8.85463 5.90302 4.13652 
27 1 10.9109 2.08031 10.9114 
28 1 10.0877 2.9036 10.0882 
29 1 12.3983 2.35929 10.6319 
34 1 10.6324 2.35904 12.3987 
40 1 10.632 0.592973 10.6319 
50 1 8.57598 4.4153 8.57559 
51 1 9.39907 3.59225 9.3991 
52 1 8.85489 5.90263 8.85491 
55 1 8.85468 4.1365 7.08815 
58 1 7.08871 4.1364 8.85497 
24 1 10.9106 10.9106 2.08046 
25 1 10.0877 10.0877 2.90351 
26 1 12.3979 10.632 2.35924 
36 1 10.6322 10.6322 0.592936 
39 1 10.632 12.3979 2.35924 
44 1 8.57635 8.57641 4.41525 
45 1 9.39921 9.39922 3.59219 
46 1 8.85492 7.08901 4.13643 
56 1 8.85476 8.85475 5.90271 
59 1 7.08903 8.8549 4.13644 
1 1 10.9109 10.911 10.9109 
2 1 10.0878 10.0878 10.0879 
3 1 10.632 12.3983 10.6318 
13 1 10.6324 10.6324 12.3982 
17 1 12.3984 10.632 10.6318 
61 1 8.57594 8.57597 8.57605 
62 1 9.39907 9.39905 9.39918 
63 1 7.08856 8.85489 8.855 
73 1 8.85466 8.85466 7.08869 
77 1 8.8549 7.08856 8.85501 
ITEM: TIMESTEP
47
ITEM: NUMBER OF ATOMS
80
ITEM: BOX BOUNDS pp pp pp
0.0000000000000000e+00 1.2991300000000001e+01
0.0000000000000000e+00 1.2991300000000001e+01
0.0000000000000000e+00 1.2991300000000001e+01
ITEM: ATOMS id type x y z 
21 1 2.08031 2.08038 2.0803 
22 1 2.90333 2.90357 2.90347 
23 1 0.592949 2.35938 2.35929 
33 1 2.35895 2.35894 0.592984 
37 1 2.35941 0.592924 2.35931 
41 1 4.41533 4.41535 4.4153 
42 1 3.59247 3.59212 3.59203 
43 1 4.13627 5.9027 4.13645 
53 1 4.13659 4.1366 5.90271 
57 1 5.90267 4.1363 4.13648 
4 1 2.08026 2.08025 10.911 
5 1 2.90346 2.90342 10.0878 
6 1 2.35926 0.592878 10.6319 
16 1 2.35892 2.35892 12.3983 
19 1 0.592862 2.35927 10.6319 
64 1 4.41543 4.41543 8.57601 
65 1 3.59223 3.59222 9.39908 
66 1 5.90277 4.13644 8.85505 
76 1 4.13669 4.13668 7.08867 
79 1 4.13643 5.90279 8.85505 
10 1 2.08004 10.9109 2.08068 
11 1 2.90339 10.0878 2.90351 
12 1 2.3593 12.3983 2.35944 
15 1 2.35917 10.6322 0.593412 
18 1 0.592598 10.6323 2.35914 
67 1 4.41563 8.57601 4.41489 
68 1 3.5923 9.3991 3.59202 
69 1 5.90305 8.85463 4.13652 
74 1 4.13642 8.85487 5.90221 
80 1 4.13637 7.08865 4.13627 
30 1 2.08035 10.9109 10.9114 
31 1 2.90354 10.0877 10.0882 
32 1 0.592986 10.6321 10.6319 
35 1 2.35905 10.6324 12.3987 
38 1 2.3593 12.3983 10.6319 
47 1 4.41533 8.57601 8.5756 
48 1 3.5922 9.39899 9.39913 
49 1 4.1364 7.08872 8.85497 
54 1 4.1365 8.85468 7.08815 
60 1 5.90263 8.85489 8.85491 
7 1 10.9109 2.08003 2.08067 
8 1 10.0878 2.90339 2.90352 
9 1 10.6323 0.592605 2.35914 
14 1 10.6322 2.35917 0.593411 
20 1 12.3983 2.3593 2.35944 
70 1 8.576 4.41562 4.41489 
71 1 9.39911 3.59232 3.59202 
72 1 7.0886 4.13636 4.13627 
75 1 8.85487 4.13642 5.90221 
78 1 8.85463 5.90302 4.13652 
27 1 10.9109 2.08031 10.9114 
28 1 10.0877 2.90359 10.0882 
29 1 12.3983 2.35929 10.6319 
34 1 10.6324 2.35904 12.3987 
40 1 10.632 0.592973 10.6319 
50 1 8.57598 4.4153 8.57559 
51 1 9.39907 3.59225 9.3991 
52 1 8.85489 5.90263 8.85491 
55 1 8.85468 4.1365 7.08815 
58 1 7.08871 4.1364 8.85497 
24 1 10.9106 10.9106 2.08046 
25 1 10.0877 10.0877 2.90351 
26 1 12.3979 10.632 2.35924 
36 1 10.6322 10.6322 0.592936 
39 1 10.632 12.3979 2.35924 
44 1 8.57635 8.57641 4.41525 
45 1 9.39921 9.39922 3.5922 
46 1 8.85492 7.08901 4.13643 
56 1 8.85476 8.85475 5.90271 
59 1 7.08903 8.8549 4.13644 
1 1 10.9109 10.911 10.9109 
2 1 10.0878 10.0878 10.0879 
3 1 10.632 12.3983 10.6318 
13 1 10.6324 10.6324 12.3982 
17 1 12.3984 10.632 10.6318 
61 1 8.57594 8.57597 8.57605 
62 1 9.39907 9.39905 9.39918 
63 1 7.08856 8.85489 8.855 
73 1 8.85466 8.85466 7.08869 
77 1 8.8549 7.08856 8.85501 
ITEM: TIMESTEP
50
ITEM: NUMBER OF ATOMS
80
ITEM: BOX BOUNDS pp pp pp
-1.9479006622676884e-03 1.2993247900662269e+01
-1.9475254996093472e-03 1.2993247525499610e+01
-1.9486950000000003e-03 1.2993248695000000e+01
ITEM: ATOMS id type x y z 
21 1 2.07898 2.07905 2.07898 
22 1 2.90226 2.90249 2.90239 
23 1 0.591179 2.35814 2.35805 
33 1 2.35771 2.3577 0.591213 
37 1 2.35817 0.591155 2.35807 
41 1 4.41471 4.41472 4.41468 
42 1 3.5916 3.59125 3.59115 
43 1 4.13556 5.90252 4.13575 
53 1 4.13588 4.13589 5.90254 
57 1 5.90249 4.1356 4.13577 
4 1 2.07894 2.07892 10.9123 
5 1 2.90238 2.90235 10.0889 
6 1 2.35802 0.591108 10.6331 
16 1 2.35768 2.35768 12.4001 
19 1 0.591092 2.35803 10.6331 
64 1 4.41481 4.41481 8.57664 
65 1 3.59136 3.59134 9.39995 
66 1 5.90259 4.13573 8.85576 
76 1 4.13598 4.13598 7.08885 
79 1 4.13572 5.90261 8.85576 
10 1 2.07872 10.9122 2.07935 
11 1 2.90231 10.0889 2.90243 
12 1 2.35806 12.4001 2.3582 
15 1 2.35793 10.6334 0.591642 
18 1 0.590828 10.6335 2.3579 
67 1 4.41501 8.57663 4.41427 
68 1 3.59143 9.39997 3.59115 
69 1 5.90287 8.85534 4.13581 
74 1 4.13571 8.85558 5.90203 
80 1 4.13566 7.08882 4.13556 
30 1 2.07903 10.9123 10.9127 
31 1 2.90246 10.0888 10.0892 
32 1 0.591215 10.6333 10.6332 
35 1 2.35781 10.6336 12.4005 
38 1 2.35806 12.4 10.6331 
47 1 4.41471 8.57663 8.57622 
48 1 3.59133 9.39986 9.4 
49 1 4.1357 7.0889 8.85567 
54 1 4.13579 8.85539 7.08833 
60 1 5.90245 8.85559 8.85562 
7 1 10.9122 2.07871 2.07934 
8 1 10.0889 2.90231 2.90244 
9 1 10.6335 0.590835 2.3579 
14 1 10.6334 2.35793 0.59164 
20 1 12.4001 2.35806 2.3582 
70 1 8.57662 4.415 4.41427 
71 1 9.39998 3.59145 3.59115 
72 1 7.08878 4.13565 4.13556 
75 1 8.85558 4.13571 5.90203 
78 1 8.85534 5.90285 4.13581 
27 1 10.9122 2.07899 10.9127 
28 1 10.0888 2.90252 10.0893 
29 1 12.4 2.35805 10.6331 
34 1 10.6336 2.3578 12.4005 
40 1 10.6333 0.591203 10.6332 
50 1 8.57661 4.41468 8.57621 
51 1 9.39994 3.59138 9.39997 
52 1 8.8556 5.90245 8.85562 
55 1 8.85538 4.13579 7.08833 
58 1 7.08889 4.13569 8.85568 
24 1 10.9119 10.9119 2.07913 
25 1 10.0888 10.0888 2.90243 
26 1 12.3997 10.6333 2.358 
36 1 10.6335 10.6335 0.591165 
39 1 10.6333 12.3997 2.358 
44 1 8.57697 8.57703 4.41462 
45 1 9.40009 9.40009 3.59133 
46 1 8.85562 7.08918 4.13572 
56 1 8.85547 8.85546 5.90254 
59 1 7.0892 8.85561 4.13574 
1 1 10.9123 10.9123 10.9123 
2 1 10.0889 10.0889 10.089 
3 1 10.6333 12.4001 10.6331 
13 1 10.6336 10.6336 12.4 
17 1 12.4001 10.6333 10.6331 
61 1 8.57656 8.57659 8.57667 
62 1 9.39994 9.39992 9.40005 
63 1 7.08874 8.8556 8.85571 
73 1 8.85536 8.85537 7.08887 
77 1 8.85561 7.08874 8.85572 
ITEM: TIMESTEP
60
ITEM: NUMBER OF ATOMS
80
ITEM: BOX BOUNDS pp pp pp
-8.4412934751923515e-03 1.2999741293475195e+01
-8.4396878050961126e-03 1.2999739687805096e+01
-8.4443450000000024e-03 1.2999744344999998e+01
ITEM: ATOMS id type x y z 
21 1 2.07457 2.07464 2.07456 
22 1 2.89867 2.8989 2.8988 
23 1 0.585276 2.35401 2.35391 
33 1 2.35358 2.35357 0.585309 
37 1 2.35404 0.585253 2.35393 
41 1 4.41263 4.41264 4.4126 
42 1 3.58869 3.58835 3.58825 
43 1 4.1332 5.90193 4.13339 
53 1 4.13353 4.13354 5.90195 
57 1 5.9019 4.13324 4.13341 
4 1 2.07452 2.07451 10.9167 
5 1 2.89879 2.89876 10.0925 
6 1 2.35389 0.585206 10.6372 
16 1 2.35354 2.35355 12.406 
19 1 0.585189 2.3539 10.6372 
64 1 4.41273 4.41273 8.57872 
65 1 3.58846 3.58844 9.40285 
66 1 5.902 4.13337 8.85811 
76 1 4.13362 4.13362 7.08944 
79 1 4.13336 5.90202 8.85812 
10 1 2.0743 10.9167 2.07494 
11 1 2.89872 10.0925 2.89884 
12 1 2.35393 12.406 2.35406 
15 1 2.35379 10.6375 0.585737 
18 1 0.584925 10.6377 2.35377 
67 1 4.41293 8.57871 4.41219 
68 1 3.58853 9.40287 3.58825 
69 1 5.90228 8.8577 4.13345 
74 1 4.13335 8.85793 5.90144 
80 1 4.1333 7.08941 4.13321 
30 1 2.07462 10.9167 10.9171 
31 1 2.89887 10.0924 10.0928 
32 1 0.585313 10.6374 10.6373 
35 1 2.35367 10.6378 12.4064 
38 1 2.35392 12.4059 10.6373 
47 1 4.41263 8.57871 8.5783 
48 1 3.58843 9.40277 9.40291 
49 1 4.13334 7.08949 8.85803 
54 1 4.13343 8.85775 7.08892 
60 1 5.90186 8.85795 8.85798 
7 1 10.9166 2.0743 2.07493 
8 1 10.0925 2.89872 2.89885 
9 1 10.6377 0.584933 2.35376 
14 1 10.6375 2.35379 0.585736 
20 1 12.406 2.35393 2.35406 
70 1 8.5787 4.41292 4.41219 
71 1 9.40288 3.58855 3.58825 
72 1 7.08937 4.13329 4.1332 
75 1 8.85793 4.13336 5.90144 
78 1 8.85769 5.90226 4.13345 
27 1 10.9166 2.07457 10.9171 
28 1 10.0924 2.89893 10.0929 
29 1 12.4059 2.35392 10.6373 
34 1 10.6378 2.35367 12.4064 
40 1 10.6374 0.585302 10.6373 
50 1 8.57869 4.4126 8.57829 
51 1 9.40284 3.58848 9.40288 
52 1 8.85795 5.90186 8.85798 
55 1 8.85774 4.13343 7.08892 
58 1 7.08948 4.13333 8.85804 
24 1 10.9163 10.9163 2.07472 
25 1 10.0924 10.0924 2.89884 
26 1 12.4056 10.6374 2.35386 
36 1 10.6376 10.6376 0.585261 
39 1 10.6374 12.4056 2.35386 
44 1 8.57905 8.57911 4.41254 
45 1 9.40299 9.403 3.58842 
46 1 8.85798 7.08977 4.13336 
56 1 8.85783 8.85782 5.90194 
59 1 7.0898 8.85797 4.13338 
1 1 10.9167 10.9167 10.9167 
2 1 10.0925 10.0925 10.0926 
3 1 10.6374 12.406 10.6372 
13 1 10.6378 10.6378 12.4059 
17 1 12.406 10.6374 10.6372 
61 1 8.57864 8.57867 8.57875 
62 1 9.40284 9.40282 9.40295 
63 1 7.08933 8.85796 8.85807 
73 1 8.85772 8.85773 7.08946 
77 1 8.85797 7.08933 8.85808 
ITEM: TIMESTEP
70
ITEM: NUMBER OF ATOMS
80
ITEM: BOX BOUNDS pp pp pp
-1.4935321451657510e-02 1.3006235321451660e+01
-1.4932524212930216e-02 1.3006232524212932e+01
-1.4939994999999999e-02 1.3006239994999996e+01
ITEM: ATOMS id type x y z 
21 1 2.07015 2.07022 2.07015 
22 1 2.89507 2.89531 2.89521 
23 1 0.57937 2.34987 2.34978 
33 1 2.34944 2.34943 0.579401 
37 1 2.3499 0.579348 2.3498 
41 1 4.41055 4.41057 4.41052 
42 1 3.58579 3.58545 3.58535 
43 1 4.13085 5.90135 4.13103 
53 1 4.13117 4.13118 5.90136 
57 1 5.90131 4.13088 4.13105 
4 1 2.0701 2.0701 10.9211 
5 1 2.89519 2.89516 10.0961 
6 1 2.34975 0.579301 10.6414 
16 1 2.34941 2.34941 12.4119 
19 1 0.579283 2.34976 10.6414 
64 1 4.41065 4.41065 8.58079 
65 1 3.58556 3.58554 9.40576 
66 1 5.90141 4.13101 8.86047 
76 1 4.13126 4.13126 7.09003 
79 1 4.13101 5.90143 8.86047 
10 1 2.06989 10.9211 2.07052 
11 1 2.89513 10.0961 2.89524 
12 1 2.34979 12.4119 2.34993 
15 1 2.34966 10.6417 0.57983 
18 1 0.579019 10.6418 2.34963 
67 1 4.41085 8.58079 4.41011 
68 1 3.58563 9.40577 3.58535 
69 1 5.90169 8.86005 4.13109 
74 1 4.13099 8.86029 5.90085 
80 1 4.13094 7.09 4.13085 
30 1 2.0702 10.9211 10.9216 
31 1 2.89527 10.096 10.0964 
32 1 0.579407 10.6416 10.6415 
35 1 2.34954 10.6419 12.4123 
38 1 2.34978 12.4118 10.6414 
47 1 4.41055 8.58079 8.58038 
48 1 3.58553 9.40567 9.40581 
49 1 4.13098 7.09008 8.86039 
54 1 4.13107 8.8601 7.08951 
60 1 5.90127 8.86031 8.86034 
7 1 10.9211 2.06988 2.07051 
8 1 10.0961 2.89513 2.89525 
9 1 10.6418 0.579028 2.34963 
14 1 10.6417 2.34966 0.579829 
20 1 12.4119 2.34979 2.34993 
70 1 8.58078 4.41084 4.41011 
71 1 9.40579 3.58565 3.58535 
72 1 7.08996 4.13094 4.13085 
75 1 8.86029 4.131 5.90085 
78 1 8.86005 5.90167 4.13109 
27 1 10.9211 2.07016 10.9216 
28 1 10.096 2.89533 10.0965 
29 1 12.4118 2.34978 10.6414 
34 1 10.6419 2.34953 12.4123 
40 1 10.6416 0.579397 10.6414 
50 1 8.58077 4.41052 8.58037 
51 1 9.40574 3.58557 9.40578 
52 1 8.86031 5.90128 8.86034 
55 1 8.8601 4.13108 7.08951 
58 1 7.09007 4.13097 8.8604 
24 1 10.9207 10.9207 2.0703 
25 1 10.096 10.096 2.89524 
26 1 12.4115 10.6416 2.34972 
36 1 10.6417 10.6418 0.579353 
39 1 10.6416 12.4115 2.34973 
44 1 8.58113 8.58119 4.41046 
45 1 9.40589 9.4059 3.58552 
46 1 8.86034 7.09036 4.13101 
56 1 8.86018 8.86018 5.90136 
59 1 7.09038 8.86032 4.13102 
1 1 10.9211 10.9211 10.9211 
2 1 10.0961 10.0961 10.0962 
3 1 10.6415 12.4119 10.6413 
13 1 10.6419 10.6419 12.4118 
17 1 12.4119 10.6415 10.6413 
61 1 8.58072 8.58075 8.58083 
62 1 9.40574 9.40572 9.40585 
63 1 7.08992 8.86032 8.86043 
73 1 8.86008 8.86008 7.09005 
77 1 8.86032 7.08992 8.86043 
ITEM: TIMESTEP
80
ITEM: NUMBER OF ATOMS
80
ITEM: BOX BOUNDS pp pp pp
-2.1430013175632926e-02 1.3012730013175636e+01
-2.1426072645768346e-02 1.3012726072645769e+01
-2.1435645000000010e-02 1.3012735644999994e+01
ITEM: ATOMS id type x y z 
21 1 2.06573 2.06581 2.06573 
22 1 2.89148 2.89172 2.89161 
23 1 0.57346 2.34574 2.34564 
33 1 2.3453 2.34529 0.57349 
37 1 2.34576 0.573439 2.34566 
41 1 4.40847 4.40849 4.40844 
42 1 3.58289 3.58255 3.58245 
43 1 4.12849 5.90076 4.12867 
53 1 4.12881 4.12882 5.90077 
57 1 5.90073 4.12852 4.12869 
4 1 2.06569 2.06568 10.9255 
5 1 2.8916 2.89157 10.0997 
6 1 2.34561 0.573392 10.6455 
16 1 2.34527 2.34528 12.4178 
19 1 0.573373 2.34563 10.6455 
64 1 4.40857 4.40858 8.58287 
65 1 3.58266 3.58264 9.40866 
66 1 5.90083 4.12866 8.86283 
76 1 4.12891 4.1289 7.09062 
79 1 4.12865 5.90085 8.86283 
10 1 2.06547 10.9255 2.0661 
11 1 2.89154 10.0997 2.89165 
12 1 2.34565 12.4178 2.34579 
15 1 2.34552 10.6458 0.57392 
18 1 0.573108 10.6459 2.34549 
67 1 4.40877 8.58287 4.40803 
68 1 3.58273 9.40867 3.58245 
69 1 5.90111 8.86241 4.12873 
74 1 4.12864 8.86265 5.90026 
80 1 4.12858 7.09059 4.12849 
30 1 2.06578 10.9255 10.926 
31 1 2.89168 10.0996 10.1 
32 1 0.573497 10.6457 10.6456 
35 1 2.3454 10.646 12.4182 
38 1 2.34565 12.4177 10.6456 
47 1 4.40847 8.58286 8.58246 
48 1 3.58263 9.40857 9.40871 
49 1 4.12862 7.09066 8.86275 
54 1 4.12872 8.86246 7.09009 
60 1 5.90069 8.86267 8.8627 
7 1 10.9255 2.06546 2.0661 
8 1 10.0997 2.89154 2.89166 
9 1 10.6459 0.573118 2.34549 
14 1 10.6458 2.34552 0.573919 
20 1 12.4178 2.34566 2.34579 
70 1 8.58286 4.40877 4.40803 
71 1 9.40869 3.58275 3.58244 
72 1 7.09054 4.12858 4.12849 
75 1 8.86265 4.12864 5.90026 
78 1 8.86241 5.90108 4.12873 
27 1 10.9255 2.06574 10.926 
28 1 10.0996 2.89174 10.1001 
29 1 12.4177 2.34565 10.6456 
34 1 10.646 2.3454 12.4182 
40 1 10.6457 0.573488 10.6456 
50 1 8.58284 4.40845 8.58245 
51 1 9.40864 3.58267 9.40868 
52 1 8.86267 5.90069 8.8627 
55 1 8.86246 4.12872 7.09009 
58 1 7.09065 4.12862 8.86275 
24 1 10.9252 10.9251 2.06588 
25 1 10.0996 10.0996 2.89165 
26 1 12.4174 10.6457 2.34559 
36 1 10.6459 10.6459 0.573442 
39 1 10.6457 12.4174 2.34559 
44 1 8.58321 8.58326 4.40839 
45 1 9.40879 9.4088 3.58262 
46 1 8.8627 7.09095 4.12865 
56 1 8.86254 8.86253 5.90077 
59 1 7.09097 8.86268 4.12866 
1 1 10.9255 10.9255 10.9255 
2 1 10.0997 10.0997 10.0998 
3 1 10.6457 12.4178 10.6455 
13 1 10.6461 10.646 12.4177 
17 1 12.4179 10.6457 10.6455 
61 1 8.5828 8.58282 8.58291 
62 1 9.40864 9.40862 9.40875 
63 1 7.0905 8.86267 8.86279 
73 1 8.86244 8.86244 7.09063 
77 1 8.86268 7.0905 8.86279 
ITEM: TIMESTEP
90
ITEM: NUMBER OF ATOMS
80
ITEM: BOX BOUNDS pp pp pp
-2.7925372621706385e-02 1.3019225372621714e+01
-2.7920343829018528e-02 1.3019220343829019e+01
-2.7931294315445054e-02 1.3019231294315437e+01
ITEM: ATOMS id type x y z 
21 1 2.06132 2.06139 2.06131 
22 1 2.88788 2.88812 2.88802 
23 1 0.567545 2.3416 2.3415 
33 1 2.34116 2.34116 0.567575 
37 1 2.34163 0.567525 2.34152 
41 1 4.40639 4.40641 4.40637 
42 1 3.57999 3.57965 3.57955 
43 1 4.12613 5.90018 4.12631 
53 1 4.12645 4.12646 5.90019 
57 1 5.90015 4.12617 4.12634 
4 1 2.06127 2.06126 10.9299 
5 1 2.888 2.88798 10.1033 
6 1 2.34148 0.567478 10.6497 
16 1 2.34113 2.34114 12.4237 
19 1 0.567458 2.34149 10.6497 
64 1 4.4065 4.4065 8.58495 
65 1 3.57976 3.57974 9.41156 
66 1 5.90025 4.1263 8.86519 
76 1 4.12655 4.12655 7.0912 
79 1 4.12629 5.90027 8.86519 
10 1 2.06105 10.9299 2.06168 
11 1 2.88794 10.1033 2.88805 
12 1 2.34152 12.4237 2.34165 
15 1 2.34138 10.6499 0.568005 
18 1 0.567193 10.6501 2.34135 
67 1 4.4067 8.58494 4.40595 
68 1 3.57983 9.41157 3.57955 
69 1 5.90053 8.86477 4.12637 
74 1 4.12628 8.86501 5.89968 
80 1 4.12623 7.09117 4.12613 
30 1 2.06136 10.9299 10.9304 
31 1 2.88808 10.1032 10.1036 
32 1 0.567582 10.6498 10.6497 
35 1 2.34126 10.6502 12.4241 
38 1 2.34151 12.4237 10.6497 
47 1 4.4064 8.58494 8.58454 