ITEM: TIMESTEP
0
ITEM: NUMBER OF ATOMS
201
ITEM: BOX BOUNDS pp pp pp
0.0000000000000000e+00 1.6114000000000001e+01
0.0000000000000000e+00 1.6113000000000000e+01
0.0000000000000000e+00 1.6111999999999998e+01
ITEM: ATOMS id type x y z 
5 1 5.384 5.384 5.384 
65 1 5.66 6.662 2.461 
66 1 5.336 7.323 3.711 
68 1 4.865 6.606 4.866 
79 1 5.364 7.322 1.219 
89 1 6.662 2.461 5.66 
90 1 7.323 3.711 5.336 
92 1 6.606 4.866 4.866 
101 1 7.322 1.219 5.364 
109 1 2.461 5.66 6.662 
110 1 3.71 5.336 7.323 
112 1 4.865 4.866 6.606 
121 1 1.218 5.364 7.322 
129 1 6.662 5.66 2.461 
130 1 7.323 5.336 3.711 
137 1 7.322 5.364 1.219 
141 1 2.461 6.662 5.66 
142 1 3.71 7.323 5.336 
149 1 1.218 7.322 5.364 
153 1 5.66 2.461 6.662 
154 1 5.336 3.711 7.323 
161 1 5.364 1.219 7.322 
7 1 6.662 5.66 13.616 
8 1 7.323 5.336 12.366 
10 1 6.606 4.866 11.211 
21 1 7.322 5.364 14.858 
32 1 1.218 7.322 10.713 
40 1 2.461 6.662 10.417 
41 1 3.71 7.323 10.741 
43 1 4.865 6.606 11.211 
47 1 5.364 1.219 8.755 
55 1 5.66 2.461 9.415 
56 1 5.336 3.711 8.754 
58 1 4.865 4.866 9.471 
64 1 5.629 6.643 16.094 
75 1 5.384 5.384 10.693 
118 1 6.643 5.629 16.094 
168 1 5.66 6.662 13.616 
169 1 5.336 7.323 12.366 
176 1 5.364 7.322 14.858 
182 1 7.322 1.219 10.713 
186 1 6.662 2.461 10.417 
187 1 7.323 3.711 10.741 
191 1 1.218 5.364 8.755 
195 1 2.461 5.66 9.415 
196 1 3.71 5.336 8.754 
9 1 7.322 10.713 1.219 
19 1 6.662 10.417 2.461 
20 1 7.323 10.741 3.711 
22 1 6.606 11.211 4.866 
27 1 1.218 8.755 5.364 
35 1 2.461 9.415 5.66 
36 1 3.71 8.754 5.336 
38 1 4.865 9.471 4.866 
44 1 6.643 16.095 5.63 
50 1 5.66 13.616 6.662 
51 1 5.336 12.366 7.323 
53 1 4.865 11.211 6.606 
62 1 5.364 14.858 7.322 
76 1 5.629 16.095 6.643 
81 1 5.384 10.693 5.384 
167 1 5.364 8.755 1.219 
171 1 5.66 9.415 2.461 
172 1 5.336 8.754 3.711 
180 1 6.662 13.616 5.66 
181 1 7.323 12.366 5.336 
188 1 7.322 14.858 5.364 
194 1 1.218 10.713 7.322 
198 1 2.461 10.417 6.662 
199 1 3.71 10.741 7.323 
17 1 5.384 10.693 10.693 
39 1 6.643 16.095 10.448 
49 1 5.629 9.434 16.095 
73 1 5.364 8.755 14.858 
82 1 5.629 16.095 9.434 
83 1 5.66 9.415 13.616 
84 1 5.336 8.754 12.366 
86 1 4.865 9.471 11.211 
91 1 7.322 14.858 10.713 
99 1 6.662 13.616 10.417 
100 1 7.323 12.366 10.741 
102 1 6.606 11.211 11.211 
113 1 6.643 10.448 16.094 
114 1 2.461 10.417 9.415 
115 1 3.71 10.741 8.754 
117 1 4.865 11.211 9.471 
126 1 1.218 10.713 8.755 
131 1 7.322 10.713 14.858 
135 1 6.662 10.417 13.616 
136 1 7.323 10.741 12.366 
144 1 2.461 9.415 10.417 
145 1 3.71 8.754 10.741 
152 1 1.218 8.755 10.713 
158 1 5.364 14.858 8.755 
162 1 5.66 13.616 9.415 
163 1 5.336 12.366 8.754 
3 1 8.755 5.364 1.219 
13 1 9.415 5.66 2.461 
14 1 8.754 5.336 3.711 
16 1 9.471 4.866 4.866 
24 1 16.095 5.629 6.643 
30 1 13.616 6.662 5.66 
31 1 12.367 7.323 5.336 
33 1 11.212 6.606 4.866 
42 1 14.859 7.322 5.364 
52 1 10.713 1.219 7.322 
60 1 10.417 2.461 6.662 
61 1 10.741 3.711 7.323 
63 1 11.212 4.866 6.606 
87 1 10.693 5.384 5.384 
98 1 16.095 6.643 5.63 
170 1 10.713 7.322 1.219 
174 1 10.417 6.662 2.461 
175 1 10.741 7.323 3.711 
179 1 8.755 1.219 5.364 
183 1 9.415 2.461 5.66 
184 1 8.754 3.711 5.336 
192 1 13.616 5.66 6.662 
193 1 12.367 5.336 7.323 
200 1 14.859 5.364 7.322 
6 1 16.096 5.629 9.434 
23 1 10.693 5.384 10.693 
59 1 10.448 6.643 16.095 
67 1 10.713 7.322 14.858 
77 1 10.417 6.662 13.616 
78 1 10.741 7.323 12.366 
80 1 11.212 6.606 11.211 
93 1 16.096 6.643 10.448 
94 1 9.415 2.461 10.417 
95 1 8.754 3.711 10.741 
97 1 9.471 4.866 11.211 
106 1 8.755 1.219 10.713 
116 1 14.859 5.364 8.755 
123 1 9.434 5.629 16.094 
124 1 13.616 5.66 9.415 
125 1 12.367 5.336 8.754 
127 1 11.212 4.866 9.471 
134 1 8.755 5.364 14.858 
138 1 9.415 5.66 13.616 
139 1 8.754 5.336 12.366 
143 1 14.859 7.322 10.713 
147 1 13.616 6.662 10.417 
148 1 12.367 7.323 10.741 
156 1 10.417 2.461 9.415 
157 1 10.741 3.711 8.754 
164 1 10.713 1.219 8.755 
11 1 10.693 10.693 5.384 
18 1 16.096 10.448 6.643 
29 1 9.434 16.095 5.63 
70 1 10.448 16.095 6.643 
71 1 10.417 9.415 2.461 
72 1 10.741 8.754 3.711 
74 1 11.212 9.471 4.866 
85 1 10.713 8.755 1.219 
96 1 8.755 14.858 5.364 
103 1 16.095 9.434 5.63 
104 1 9.415 13.616 5.66 
105 1 8.754 12.366 5.336 
107 1 9.471 11.211 4.866 
111 1 14.859 10.713 7.322 
119 1 13.616 10.417 6.662 
120 1 12.367 10.741 7.323 
122 1 11.212 11.211 6.606 
132 1 9.415 10.417 2.461 
133 1 8.754 10.741 3.711 
140 1 8.755 10.713 1.219 
146 1 14.859 8.755 5.364 
150 1 13.616 9.415 5.66 
151 1 12.367 8.754 5.336 
155 1 10.713 14.858 7.322 
159 1 10.417 13.616 6.662 
160 1 10.741 12.366 7.323 
1 1 9.415 10.417 13.616 
2 1 8.754 10.741 12.366 
4 1 9.471 11.211 11.211 
12 1 16.096 10.448 9.434 
15 1 8.755 10.713 14.858 
25 1 13.616 9.415 10.417 
26 1 12.367 8.754 10.741 
28 1 11.212 9.471 11.211 
34 1 9.434 16.095 10.448 
37 1 14.859 8.755 10.713 
45 1 10.417 13.616 9.415 
46 1 10.741 12.366 8.754 
48 1 11.212 11.211 9.471 
54 1 10.448 9.434 16.094 
57 1 10.713 14.858 8.755 
69 1 10.693 10.693 10.693 
88 1 10.448 16.095 9.434 
108 1 16.096 9.434 10.448 
128 1 9.434 10.448 16.094 
165 1 10.417 9.415 13.616 
166 1 10.741 8.754 12.366 
173 1 10.713 8.755 14.858 
177 1 9.415 13.616 10.417 
178 1 8.754 12.366 10.741 
185 1 8.755 14.858 10.713 
189 1 13.616 10.417 9.415 
190 1 12.367 10.741 8.754 
197 1 14.859 10.713 8.755 
201 2 10.137 11.271 12.084 
ITEM: TIMESTEP
10
ITEM: NUMBER OF ATOMS
201
ITEM: BOX BOUNDS pp pp pp
0.0000000000000000e+00 1.6114000000000001e+01
0.0000000000000000e+00 1.6113000000000000e+01
0.0000000000000000e+00 1.6111999999999998e+01
ITEM: ATOMS id type x y z 
5 1 5.34778 5.34774 5.34749 
65 1 5.58346 6.59589 2.42043 
66 1 5.37946 7.32853 3.69253 
68 1 4.87543 6.61668 4.87542 
79 1 5.24562 7.31412 1.19803 
89 1 6.59478 2.42163 5.58339 
90 1 7.32715 3.69352 5.37935 
92 1 6.61721 4.87608 4.87539 
101 1 7.30964 1.19952 5.24449 
109 1 2.42084 5.58328 6.5946 
110 1 3.69269 5.37926 7.32756 
112 1 4.87529 4.87591 6.61634 
121 1 1.19912 5.24401 7.3106 
129 1 6.5951 5.58369 2.42088 
130 1 7.32776 5.37925 3.69365 
137 1 7.31171 5.24513 1.19943 
141 1 2.42094 6.5947 5.58327 
142 1 3.69259 7.32743 5.3792 
149 1 1.19914 7.31024 5.24417 
153 1 5.58366 2.42148 6.59437 
154 1 5.37952 3.69327 7.3271 
161 1 5.24429 1.19932 7.31024 
7 1 6.59393 5.58516 13.6561 
8 1 7.32875 5.37898 12.3832 
10 1 6.61731 4.87698 11.2022 
21 1 7.31255 5.24552 14.877 
32 1 1.19948 7.31074 10.832 
40 1 2.42297 6.59716 10.4935 
41 1 3.69293 7.33125 10.6997 
43 1 4.87457 6.6186 11.2012 
47 1 5.24442 1.19856 8.76706 
55 1 5.58321 2.42109 9.48239 
56 1 5.37902 3.69471 8.74996 
58 1 4.87498 4.87582 9.4601 
64 1 5.54255 6.56724 16.0956 
75 1 5.3464 5.34952 10.7302 
118 1 6.56619 5.54279 16.0936 
168 1 5.58459 6.59657 13.6538 
169 1 5.37755 7.32776 12.385 
176 1 5.24524 7.31139 14.8772 
182 1 7.31032 1.19588 10.8316 
186 1 6.59559 2.42038 10.4943 
187 1 7.32696 3.69359 10.6977 
191 1 1.19927 5.24467 8.76708 
195 1 2.42095 5.58448 9.48318 
196 1 3.69347 5.37883 8.74996 
9 1 7.31215 10.8296 1.20184 
19 1 6.59811 10.4919 2.41641 
20 1 7.32717 10.6979 3.69011 
22 1 6.61653 11.2008 4.87564 
27 1 1.19894 8.76759 5.24457 
35 1 2.42112 9.48315 5.5844 
36 1 3.69296 8.7499 5.37892 
38 1 4.87559 9.45938 4.87421 
44 1 6.56629 16.0947 5.54247 
50 1 5.58386 13.6544 6.59573 
51 1 5.37768 12.3836 7.32957 
53 1 4.87458 11.2011 6.61821 
62 1 5.24472 14.8767 7.31202 
76 1 5.54177 16.0945 6.56645 
81 1 5.34733 10.7302 5.34826 
167 1 5.24836 8.76761 1.19865 
171 1 5.58671 9.48291 2.41869 
172 1 5.37926 8.75086 3.69279 
180 1 6.5941 13.6554 5.58412 
181 1 7.32665 12.3825 5.37855 
188 1 7.30922 14.8774 5.24472 
194 1 1.20049 10.8322 7.31083 
198 1 2.42254 10.4934 6.59699 
199 1 3.69293 10.6995 7.33116 
17 1 5.34762 10.7315 10.726 
39 1 6.56804 16.0936 10.5345 
49 1 5.54366 9.50892 16.0965 
73 1 5.24557 8.76541 14.8821 
82 1 5.54361 16.0934 9.51226 
83 1 5.57117 9.46956 13.661 
84 1 5.3785 8.74887 12.3858 
86 1 4.87741 9.46509 11.2011 
91 1 7.31419 14.8728 10.8283 
99 1 6.60439 13.6482 10.4859 
100 1 7.36687 12.3842 10.6708 
102 1 6.60965 11.2258 11.185 
113 1 6.56706 10.5303 16.1009 
114 1 2.4234 10.4914 9.48153 
115 1 3.69273 10.6985 8.75005 
117 1 4.87712 11.2044 9.45995 
126 1 1.20068 10.8313 8.76752 
131 1 7.31018 10.8396 14.8869 
135 1 6.57071 10.4926 13.6676 
136 1 7.24608 10.6557 12.3618 
144 1 2.42373 9.48063 10.492 
145 1 3.69503 8.75156 10.7004 
152 1 1.20063 8.76775 10.8311 
158 1 5.24616 14.8762 8.76834 
162 1 5.59036 13.6547 9.4852 
163 1 5.3795 12.3865 8.74857 
3 1 8.76933 5.24687 1.19747 
13 1 9.48267 5.58578 2.42071 
14 1 8.75038 5.37985 3.69155 
16 1 9.4601 4.87611 4.87552 
24 1 16.0953 5.54142 6.56645 
30 1 13.6558 6.59502 5.58278 
31 1 12.3838 7.32682 5.37877 
33 1 11.2012 6.61737 4.87403 
42 1 14.8781 7.31023 5.24433 
52 1 10.8329 1.19954 7.31063 
60 1 10.4937 2.42101 6.59444 
61 1 10.6973 3.69346 7.32794 
63 1 11.2016 4.87637 6.61593 
87 1 10.7293 5.34792 5.34703 
98 1 16.095 6.56643 5.54207 
170 1 10.8293 7.31141 1.19707 
174 1 10.4928 6.5982 2.41673 
175 1 10.698 7.32729 3.69097 
179 1 8.76679 1.19935 5.24427 
183 1 9.48219 2.42183 5.58308 
184 1 8.7494 3.69367 5.37942 
192 1 13.6562 5.58301 6.59491 
193 1 12.3846 5.37938 7.32847 
200 1 14.8778 5.24426 7.31121 
6 1 16.0955 5.54211 9.51105 
23 1 10.7306 5.35118 10.7314 
59 1 10.5307 6.56847 16.0983 
67 1 10.8301 7.31007 14.8754 
77 1 10.4886 6.59721 13.6525 
78 1 10.7008 7.32962 12.3871 
80 1 11.2021 6.61837 11.2021 
93 1 16.0951 6.56703 10.5353 
94 1 9.48074 2.41928 10.4948 
95 1 8.75168 3.69582 10.6987 
97 1 9.45885 4.87667 11.2031 
106 1 8.76733 1.19597 10.831 
116 1 14.8775 5.24477 8.76761 
123 1 9.51169 5.54596 16.0927 
124 1 13.6556 5.58523 9.48293 
125 1 12.3828 5.37838 8.75129 
127 1 11.2026 4.87636 9.46 
134 1 8.76865 5.24761 14.8778 
138 1 9.48451 5.58858 13.6561 
139 1 8.75202 5.37913 12.3838 
143 1 14.8773 7.31011 10.832 
147 1 13.6528 6.59791 10.4933 
148 1 12.3823 7.33293 10.7017 
156 1 10.4941 2.42167 9.48168 
157 1 10.6987 3.69582 8.75181 
164 1 10.8319 1.19712 8.76855 
11 1 10.731 10.73 5.34602 
18 1 16.096 10.5354 6.56673 
29 1 9.51045 16.0954 5.54185 
70 1 10.5361 16.0936 6.5671 
71 1 10.4906 9.4816 2.41741 
72 1 10.6967 8.75111 3.68864 
74 1 11.2012 9.45822 4.87276 
85 1 10.8295 8.76114 1.20525 
96 1 8.7667 14.8775 5.24412 
103 1 16.0958 9.51035 5.54228 
104 1 9.48235 13.6551 5.58321 
105 1 8.7501 12.3836 5.37956 
107 1 9.4573 11.1998 4.87197 
111 1 14.8786 10.8333 7.31089 
119 1 13.6573 10.4941 6.59421 
120 1 12.3847 10.6964 7.32804 
122 1 11.202 11.2002 6.61452 
132 1 9.48207 10.49 2.41955 
133 1 8.7505 10.6975 3.68855 
140 1 8.76474 10.8289 1.19698 
146 1 14.8786 8.76699 5.24429 
150 1 13.6567 9.48251 5.5828 
151 1 12.383 8.74976 5.37916 
155 1 10.8323 14.8771 7.31163 
159 1 10.4938 13.6588 6.594 
160 1 10.6965 12.3852 7.32703 
1 1 9.43919 10.4706 13.6462 
2 1 8.67483 10.5626 12.3706 
4 1 9.5159 11.2364 11.3286 
12 1 16.0966 10.535 9.51053 
15 1 8.76704 10.8334 14.8794 
25 1 13.6529 9.47785 10.4968 
26 1 12.3926 8.74373 10.6979 
28 1 11.1919 9.45905 11.1841 
34 1 9.50518 16.087 10.5346 
37 1 14.8779 8.76635 10.8318 
45 1 10.4869 13.6584 9.48664 
46 1 10.6907 12.4134 8.74261 
48 1 11.1929 11.2023 9.43402 
54 1 10.5334 9.51099 16.099 
57 1 10.8287 14.8762 8.76966 
69 1 10.6459 10.6189 10.5897 
88 1 10.5322 16.0947 9.51243 
108 1 16.0958 9.5095 10.5354 
128 1 9.50856 10.5341 16.0944 
165 1 10.492 9.48094 13.6529 
166 1 10.6948 8.74835 12.3945 
173 1 10.8314 8.76997 14.8738 
177 1 9.46937 13.6278 10.5088 
178 1 8.77017 12.3494 10.7099 
185 1 8.76706 14.8709 10.8261 
189 1 13.6563 10.4929 9.48315 
190 1 12.4009 10.6923 8.74135 
197 1 14.8799 10.8321 8.76731 
201 2 10.3405 11.5545 12.187 
ITEM: TIMESTEP
20
ITEM: NUMBER OF ATOMS
201
ITEM: BOX BOUNDS pp pp pp
0.0000000000000000e+00 1.6114000000000001e+01
0.0000000000000000e+00 1.6113000000000000e+01
0.0000000000000000e+00 1.6111999999999998e+01
ITEM: ATOMS id type x y z 
5 1 5.3548 5.35543 5.35438 
65 1 5.58488 6.60023 2.42071 
66 1 5.3715 7.32708 3.68948 
68 1 4.87102 6.61699 4.86966 
79 1 5.23987 7.31005 1.19821 
89 1 6.59911 2.42148 5.58341 
90 1 7.32606 3.69103 5.37191 
92 1 6.61658 4.87172 4.87043 
101 1 7.30949 1.19829 5.23821 
109 1 2.4207 5.58341 6.59912 
110 1 3.6901 5.37174 7.32636 
112 1 4.8707 4.87118 6.61594 
121 1 1.19799 5.23792 7.31028 
129 1 6.59977 5.58487 2.42049 
130 1 7.32634 5.37203 3.68934 
137 1 7.31037 5.23981 1.19834 
141 1 2.42113 6.59934 5.58334 
142 1 3.69026 7.32642 5.37141 
149 1 1.19797 7.30997 5.23811 
153 1 5.58338 2.42123 6.59936 
154 1 5.37201 3.69074 7.32639 
161 1 5.23814 1.19832 7.31014 
7 1 6.59968 5.58535 13.6558 
8 1 7.32689 5.37149 12.3867 
10 1 6.61655 4.87143 11.2063 
21 1 7.31029 5.23994 14.8783 
32 1 1.1981 7.31023 10.8379 
40 1 2.4222 6.60167 10.4932 
41 1 3.69044 7.32893 10.7072 
43 1 4.87047 6.61772 11.206 
47 1 5.23865 1.19788 8.76807 
55 1 5.58404 2.42137 9.47796 
56 1 5.37175 3.691 8.75148 
58 1 4.87065 4.87126 9.46126 
64 1 5.53803 6.56461 16.0956 
75 1 5.35505 5.35567 10.7227 
118 1 6.56576 5.53732 16.0943 
168 1 5.58499 6.60057 13.6548 
169 1 5.37008 7.32659 12.387 
176 1 5.23904 7.30687 14.8791 
182 1 7.30971 1.19625 10.8378 
186 1 6.60047 2.42076 10.4937 
187 1 7.32652 3.69099 10.7057 
191 1 1.19819 5.23875 8.76792 
195 1 2.42107 5.58469 9.47831 
196 1 3.6903 5.37166 8.75137 
9 1 7.31047 10.8372 1.19953 
19 1 6.60086 10.492 2.42068 
20 1 7.32597 10.7061 3.68997 
22 1 6.61562 11.2052 4.87053 
27 1 1.19826 8.76799 5.23863 
35 1 2.42139 9.47825 5.58449 
36 1 3.69089 8.75136 5.37117 
38 1 4.87089 9.46127 4.87025 
44 1 6.56476 16.0946 5.53669 
50 1 5.58401 13.6549 6.60032 
51 1 5.36988 12.3861 7.32696 
53 1 4.87076 11.2055 6.61661 
62 1 5.2388 14.8776 7.31148 
76 1 5.53591 16.0942 6.56563 
81 1 5.35483 10.722 5.35528 
167 1 5.24053 8.76639 1.19908 
171 1 5.5858 9.47757 2.42114 
172 1 5.37169 8.75116 3.69051 
180 1 6.59928 13.6548 5.58402 
181 1 7.32626 12.3852 5.37108 
188 1 7.30906 14.878 5.23858 
194 1 1.19891 10.8382 7.31051 
198 1 2.4221 10.493 6.60122 
199 1 3.69065 10.7071 7.32813 
17 1 5.35568 10.7267 10.7179 
39 1 6.5678 16.0909 10.5407 
49 1 5.53761 9.51142 16.0967 
73 1 5.23646 8.76303 14.8847 
82 1 5.53762 16.094 9.51315 
83 1 5.5736 9.47057 13.6598 
84 1 5.36838 8.75065 12.3853 
86 1 4.87337 9.46639 11.2067 
91 1 7.31261 14.8714 10.8329 
99 1 6.61891 13.6424 10.4817 
100 1 7.36849 12.3784 10.6827 
102 1 6.60601 11.2313 11.1892 
113 1 6.56543 10.5393 16.0964 
114 1 2.42245 10.4916 9.47722 
115 1 3.69131 10.7066 8.75147 
117 1 4.87102 11.2086 9.45954 
126 1 1.19917 10.8373 8.76774 
131 1 7.30756 10.843 14.8779 
135 1 6.57425 10.4961 13.6671 
136 1 7.26027 10.6547 12.3652 
144 1 2.42281 9.47651 10.4924 
145 1 3.69426 8.75406 10.7086 
152 1 1.19909 8.76757 10.8373 
158 1 5.24038 14.8759 8.76993 
162 1 5.59213 13.6539 9.48093 
163 1 5.37169 12.3888 8.75068 
3 1 8.76741 5.24028 1.19773 
13 1 9.47734 5.58504 2.42047 
14 1 8.75107 5.37222 3.6895 
16 1 9.46062 4.87169 4.87038 
24 1 16.0953 5.53594 6.56521 
30 1 13.6556 6.59917 5.58342 
31 1 12.3863 7.32646 5.37116 
33 1 11.206 6.61649 4.86972 
42 1 14.8788 7.30976 5.23819 
52 1 10.8387 1.19843 7.3108 
60 1 10.4936 2.4213 6.59974 
61 1 10.7052 3.69092 7.32715 
63 1 11.2063 4.87127 6.616 
87 1 10.7225 5.35539 5.35453 
98 1 16.0954 6.56489 5.53653 
170 1 10.8378 7.30946 1.19789 
174 1 10.492 6.60011 2.42022 
175 1 10.7057 7.32653 3.68925 
179 1 8.76755 1.19838 5.23824 
183 1 9.47804 2.42163 5.58366 
184 1 8.75107 3.69102 5.37184 
192 1 13.6561 5.58361 6.59939 
193 1 12.3868 5.3715 7.32693 
200 1 14.8786 5.23821 7.31067 
6 1 16.0955 5.53669 9.51247 
23 1 10.7217 5.35654 10.7228 
59 1 10.5383 6.56611 16.0936 
67 1 10.8369 7.3131 14.8775 
77 1 10.4914 6.60165 13.6559 
78 1 10.707 7.32734 12.3879 
80 1 11.2035 6.6159 11.2073 
93 1 16.0958 6.56553 10.5406 
94 1 9.47632 2.42021 10.4937 
95 1 8.75184 3.69119 10.706 
97 1 9.46046 4.87124 11.2069 
106 1 8.76804 1.19457 10.8369 
116 1 14.8788 5.23888 8.76812 
123 1 9.51141 5.53774 16.0937 
124 1 13.6558 5.58481 9.47776 
125 1 12.3861 5.3715 8.75187 
127 1 11.2067 4.87132 9.46142 
134 1 8.76668 5.24033 14.8787 
138 1 9.47759 5.58569 13.6556 
139 1 8.75116 5.37167 12.3855 
143 1 14.8794 7.30918 10.8383 
147 1 13.6579 6.59912 10.4926 
148 1 12.3867 7.32212 10.7076 
156 1 10.4928 2.42163 9.47762 
157 1 10.7058 3.69189 8.75235 
164 1 10.8376 1.19806 8.76833 
11 1 10.7218 10.722 5.3528 
18 1 16.0964 10.5407 6.56536 
29 1 9.51236 16.095 5.53676 
70 1 10.5411 16.0946 6.56557 
71 1 10.4919 9.47772 2.42064 
72 1 10.705 8.75115 3.68898 
74 1 11.2062 9.46052 4.86944 
85 1 10.8377 8.76607 1.19983 
96 1 8.76692 14.8787 5.23801 
103 1 16.0957 9.51208 5.5368 
104 1 9.47695 13.655 5.58242 
105 1 8.75094 12.3851 5.37109 
107 1 9.46009 11.2053 4.86917 
111 1 14.8803 10.8393 7.30997 
119 1 13.6615 10.493 6.59586 
120 1 12.388 10.7034 7.31728 
122 1 11.2042 11.2048 6.61209 
132 1 9.47737 10.4918 2.42062 
133 1 8.75029 10.7058 3.68877 
140 1 8.76821 10.8375 1.19583 
146 1 14.8796 8.76749 5.23816 
150 1 13.656 9.47714 5.58244 
151 1 12.3858 8.75109 5.37115 
155 1 10.8385 14.879 7.3121 
159 1 10.4931 13.6612 6.59564 
160 1 10.7043 12.389 7.31938 
1 1 9.42831 10.457 13.6467 
2 1 8.66337 10.5712 12.3847 
4 1 9.52546 11.2748 11.3816 
12 1 16.0973 10.5399 9.51266 
15 1 8.76086 10.836 14.8822 
25 1 13.6604 9.47831 10.4975 
26 1 12.402 8.7407 10.7029 
28 1 11.1855 9.43658 11.1785 
34 1 9.50638 16.0866 10.5404 
37 1 14.8817 8.76573 10.8389 
45 1 10.4821 13.6649 9.48966 
46 1 10.6981 12.4206 8.7397 
48 1 11.1886 11.1951 9.41108 
54 1 10.5393 9.51259 16.0947 
57 1 10.8335 14.8775 8.77021 
69 1 10.6489 10.5926 10.5692 
88 1 10.5377 16.0952 9.51417 
108 1 16.0965 9.51162 10.5402 
128 1 9.50955 10.5418 16.0874 
165 1 10.4897 9.47973 13.6592 
166 1 10.7049 8.75039 12.4029 
173 1 10.8377 8.77205 14.8749 
177 1 9.46758 13.6311 10.5084 
178 1 8.77114 12.3613 10.7341 
185 1 8.76751 14.8677 10.8314 
189 1 13.6626 10.4944 9.48113 
190 1 12.4096 10.6987 8.73535 
197 1 14.8826 10.8386 8.76697 
201 2 10.3129 11.603 12.1816 
ITEM: TIMESTEP
30
ITEM: NUMBER OF ATOMS
201
ITEM: BOX BOUNDS pp pp pp
0.0000000000000000e+00 1.6114000000000001e+01
0.0000000000000000e+00 1.6113000000000000e+01
0.0000000000000000e+00 1.6111999999999998e+01
ITEM: ATOMS id type x y z 
5 1 5.37397 5.37444 5.37403 
65 1 5.58973 6.60701 2.41621 
66 1 5.34473 7.3284 3.68393 
68 1 4.86225 6.60883 4.86252 
79 1 5.22274 7.30958 1.19331 
89 1 6.60623 2.41567 5.58989 
90 1 7.32734 3.68363 5.34535 
92 1 6.60829 4.86275 4.86299 
101 1 7.30882 1.19304 5.22315 
109 1 2.41518 5.58997 6.6061 
110 1 3.68303 5.34533 7.32719 
112 1 4.86234 4.86277 6.60865 
121 1 1.19317 5.2227 7.30901 
129 1 6.60637 5.58989 2.416 
130 1 7.32752 5.34559 3.68414 
137 1 7.3098 5.22182 1.19356 
141 1 2.41532 6.60652 5.58983 
142 1 3.68291 7.32766 5.34435 
149 1 1.19314 7.30908 5.22306 
153 1 5.58968 2.41528 6.6067 
154 1 5.34552 3.68368 7.3275 
161 1 5.22301 1.19266 7.31064 
7 1 6.60547 5.59228 13.6604 
8 1 7.32605 5.34529 12.3926 
10 1 6.60756 4.86236 11.2133 
21 1 7.30831 5.22269 14.8821 
32 1 1.19582 7.30898 10.8544 
40 1 2.41869 6.60822 10.4862 
41 1 3.68491 7.32988 10.7343 
43 1 4.86315 6.60852 11.2133 
47 1 5.22427 1.19231 8.76954 
55 1 5.59114 2.41505 9.47141 
56 1 5.34556 3.68363 8.75103 
58 1 4.86254 4.86269 9.46922 
64 1 5.52291 6.55415 16.0957 
75 1 5.37428 5.3757 10.7031 
118 1 6.55574 5.52224 16.0942 
168 1 5.59021 6.60754 13.6599 
169 1 5.34289 7.32836 12.3934 
176 1 5.22136 7.30467 14.8841 
182 1 7.30762 1.18872 10.8532 
186 1 6.60767 2.41357 10.4871 
187 1 7.32626 3.68233 10.7328 
191 1 1.19478 5.22289 8.76794 
195 1 2.41611 5.59165 9.4715 
196 1 3.68356 5.34571 8.75067 
9 1 7.31003 10.8526 1.19231 
19 1 6.60708 10.4858 2.41546 
20 1 7.32613 10.7327 3.68314 
22 1 6.60716 11.2132 4.86277 
27 1 1.1946 8.76749 5.22318 
35 1 2.41596 9.4705 5.59072 
36 1 3.68349 8.75048 5.3448 
38 1 4.86253 9.46962 4.86277 
44 1 6.55514 16.095 5.52497 
50 1 5.59078 13.6624 6.60703 
51 1 5.3431 12.3943 7.32586 
53 1 4.86363 11.2136 6.6072 
62 1 5.22458 14.8827 7.31419 
76 1 5.52366 16.0933 6.55857 
81 1 5.37454 10.7023 5.37486 
167 1 5.22421 8.76773 1.19584 
171 1 5.5923 9.4709 2.41608 
172 1 5.34495 8.75127 3.68363 
180 1 6.60592 13.6607 5.59084 
181 1 7.32584 12.3926 5.34485 
188 1 7.30693 14.8835 5.22285 
194 1 1.19529 10.8544 7.30924 
198 1 2.41619 10.4855 6.60585 
199 1 3.68362 10.7334 7.32556 
17 1 5.36935 10.7116 10.6997 
39 1 6.55945 16.0879 10.5524 
49 1 5.52515 9.52072 16.0972 
73 1 5.21694 8.76071 14.8919 
82 1 5.5262 16.0926 9.52206 
83 1 5.57237 9.46439 13.6672 
84 1 5.33746 8.75017 12.3923 
86 1 4.86363 9.4767 11.215 
91 1 7.30884 14.8692 10.843 
99 1 6.64637 13.6319 10.4594 
100 1 7.38141 12.3689 10.7214 
102 1 6.59397 11.2333 11.2009 
113 1 6.55334 10.5555 16.0935 
114 1 2.41687 10.4846 9.47158 
115 1 3.68075 10.7325 8.74635 
117 1 4.85992 11.2174 9.46359 
126 1 1.19646 10.8543 8.7675 
131 1 7.29051 10.8588 14.8733 
135 1 6.56967 10.496 13.6626 
136 1 7.26803 10.6571 12.3644 
144 1 2.41911 9.47058 10.4871 
145 1 3.6878 8.7521 10.735 
152 1 1.19721 8.76754 10.8546 
158 1 5.22715 14.8797 8.77205 
162 1 5.60746 13.6572 9.47407 
163 1 5.34483 12.3952 8.74647 
3 1 8.76931 5.22263 1.19372 
13 1 9.47112 5.59078 2.41572 
14 1 8.75074 5.34542 3.68359 
16 1 9.46907 4.86286 4.86288 
24 1 16.0959 5.52378 6.55616 
30 1 13.6617 6.60578 5.59038 
31 1 12.3936 7.32584 5.3445 
33 1 11.2138 6.60782 4.86228 
42 1 14.8842 7.30684 5.22248 
52 1 10.8541 1.19482 7.3103 
60 1 10.4864 2.41611 6.60675 
61 1 10.7322 3.6838 7.32723 
63 1 11.2138 4.86286 6.60786 
87 1 10.7031 5.37427 5.37444 
98 1 16.0961 6.55597 5.52395 
170 1 10.8541 7.30997 1.19446 
174 1 10.4871 6.60636 2.41531 
175 1 10.7323 7.32611 3.68302 
179 1 8.76792 1.19426 5.22324 
183 1 9.47116 2.41595 5.59069 
184 1 8.75043 3.68368 5.34532 
192 1 13.6616 5.59049 6.606 
193 1 12.3934 5.34483 7.32625 
200 1 14.884 5.22253 7.30744 
6 1 16.0969 5.52181 9.52066 
23 1 10.7 5.3734 10.7019 
59 1 10.5532 6.55612 16.0953 
67 1 10.8556 7.3116 14.8856 
77 1 10.4869 6.60529 13.6659 
78 1 10.729 7.33415 12.3975 
80 1 11.2096 6.60841 11.2178 
93 1 16.0994 6.55392 10.5538 
94 1 9.46935 2.41202 10.4872 
95 1 8.74913 3.6802 10.7323 
97 1 9.4662 4.86004 11.2145 
106 1 8.76617 1.18986 10.8528 
116 1 14.8862 5.22098 8.76586 
123 1 9.52084 5.52382 16.0941 
124 1 13.663 5.58556 9.46834 
125 1 12.3929 5.34569 8.74902 
127 1 11.2146 4.86148 9.46787 
134 1 8.76734 5.22217 14.8834 
138 1 9.46983 5.58957 13.6616 
139 1 8.74913 5.34568 12.3935 
143 1 14.8887 7.30801 10.8573 
147 1 13.6715 6.59643 10.4901 
148 1 12.398 7.31522 10.7295 
156 1 10.4851 2.41599 9.47232 
157 1 10.7313 3.68263 8.74987 
164 1 10.8532 1.19509 8.76878 
11 1 10.7003 10.7012 5.3715 
18 1 16.0999 10.5533 6.55376 
29 1 9.52105 16.0959 5.52361 
70 1 10.5532 16.0972 6.55634 
71 1 10.4851 9.47173 2.41565 
72 1 10.7315 8.74866 3.68162 
74 1 11.215 9.46663 4.86026 
85 1 10.8539 8.76869 1.19391 
96 1 8.76548 14.886 5.22072 
103 1 16.0972 9.52049 5.52229 
104 1 9.46868 13.6629 5.58418 
105 1 8.74827 12.3936 5.34401 
107 1 9.46558 11.2146 4.85925 
111 1 14.8896 10.8572 7.30854 
119 1 13.6745 10.4897 6.59356 
120 1 12.3991 10.7273 7.31129 
122 1 11.2114 11.219 6.60598 
132 1 9.47078 10.4863 2.41363 
133 1 8.748 10.7323 3.68031 
140 1 8.769 10.8558 1.19162 
146 1 14.8876 8.76491 5.22013 
150 1 13.6643 9.46788 5.58313 
151 1 12.3936 8.74863 5.34421 
155 1 10.8544 14.8869 7.31223 
159 1 10.4891 13.6716 6.59717 
160 1 10.7296 12.4028 7.3232 
1 1 9.40507 10.4216 13.6608 
2 1 8.67349 10.5933 12.3927 
4 1 9.59063 11.3017 11.4336 
12 1 16.0989 10.555 9.52191 
15 1 8.74907 10.8397 14.8847 
25 1 13.6638 9.47478 10.4951 
26 1 12.4051 8.73913 10.7241 
28 1 11.1594 9.41356 11.1396 
34 1 9.51547 16.0882 10.5539 
37 1 14.8873 8.76888 10.8583 
45 1 10.4797 13.6619 9.47981 
46 1 10.7326 12.408 8.74909 
48 1 11.155 11.1526 9.40078 
54 1 10.5532 9.52596 16.0954 
57 1 10.8463 14.8827 8.77277 
69 1 10.6143 10.5799 10.5691 
88 1 10.5515 16.097 9.52289 
108 1 16.0992 9.52123 10.5555 
128 1 9.51701 10.5591 16.0883 
165 1 10.4875 9.47284 13.6602 
166 1 10.7422 8.76054 12.3954 
173 1 10.8606 8.77385 14.8846 
177 1 9.47121 13.643 10.5116 
178 1 8.7789 12.3837 10.804 
185 1 8.76676 14.8743 10.8495 
189 1 13.6612 10.4948 9.47157 
190 1 12.4035 10.728 8.73549 
197 1 14.8873 10.857 8.76921 
201 2 10.3157 11.7723 12.1847 
ITEM: TIMESTEP
40
ITEM: NUMBER OF ATOMS
201
ITEM: BOX BOUNDS pp pp pp
0.0000000000000000e+00 1.6114000000000001e+01
0.0000000000000000e+00 1.6113000000000000e+01
0.0000000000000000e+00 1.6111999999999998e+01
ITEM: ATOMS id type x y z 
5 1 5.3755 5.37506 5.37579 
65 1 5.59609 6.60761 2.41411 
66 1 5.3277 7.3265 3.67765 
68 1 4.86388 6.60666 4.86307 
79 1 5.22139 7.30593 1.19196 
89 1 6.60825 2.41305 5.59532 
90 1 7.32575 3.67759 5.32807 
92 1 6.60704 4.86362 4.86327 
101 1 7.3077 1.19027 5.22258 
109 1 2.41334 5.59368 6.60903 
110 1 3.678 5.32815 7.32665 
112 1 4.86349 4.86266 6.6071 
121 1 1.191 5.22098 7.30952 
129 1 6.60904 5.59521 2.41308 
130 1 7.32618 5.3283 3.67764 
137 1 7.30925 5.22104 1.19216 
141 1 2.41347 6.60817 5.59397 
142 1 3.67788 7.32631 5.32733 
149 1 1.19074 7.30793 5.2206 
153 1 5.59442 2.41255 6.61004 
154 1 5.32812 3.67741 7.32749 
161 1 5.22245 1.19045 7.31129 
7 1 6.60851 5.59431 13.6637 
8 1 7.32712 5.33044 12.3987 
10 1 6.60768 4.86172 11.2135 
21 1 7.31 5.22063 14.8871 
32 1 1.19073 7.30953 10.8555 
40 1 2.41502 6.61018 10.4835 
41 1 3.67966 7.32897 10.7496 
43 1 4.86474 6.60783 11.2124 
47 1 5.22307 1.18814 8.76936 
55 1 5.5942 2.41165 9.46747 
56 1 5.32883 3.67657 8.74937 
58 1 4.86296 4.86199 9.46841 
64 1 5.51715 6.54686 16.097 
75 1 5.37462 5.37407 10.7004 
118 1 6.55054 5.51555 16.096 
168 1 5.59167 6.61 13.6645 
169 1 5.32629 7.32806 12.3997 
176 1 5.21801 7.30404 14.8892 
182 1 7.30584 1.18157 10.8554 
186 1 6.60822 2.40769 10.4843 
187 1 7.32424 3.67383 10.7486 
191 1 1.19064 5.22114 8.76835 
195 1 2.4138 5.59439 9.46746 
196 1 3.67827 5.32877 8.74882 
9 1 7.30985 10.8571 1.1857 
19 1 6.60958 10.4839 2.41069 
20 1 7.32535 10.7482 3.67689 
22 1 6.60815 11.2146 4.86305 
27 1 1.18994 8.76718 5.21975 
35 1 2.41299 9.46681 5.59207 
36 1 3.67801 8.74837 5.32817 
38 1 4.8629 9.46899 4.86304 
44 1 6.54892 16.0956 5.51993 
50 1 5.59417 13.6676 6.60898 
51 1 5.32699 12.4011 7.3232 
53 1 4.86352 11.2134 6.60497 
62 1 5.22333 14.8872 7.31545 
76 1 5.51822 16.0945 6.5542 
81 1 5.37449 10.7009 5.37421 
167 1 5.22158 8.76467 1.19265 
171 1 5.59342 9.46715 2.41401 
172 1 5.32879 8.74843 3.67856 
180 1 6.60875 13.6654 5.59262 
181 1 7.32691 12.4002 5.32983 
188 1 7.3084 14.8886 5.22083 
194 1 1.1897 10.8561 7.31013 
198 1 2.41174 10.4837 6.60679 
199 1 3.67707 10.7484 7.32385 
17 1 5.36668 10.7147 10.7022 
39 1 6.55478 16.0827 10.5584 
49 1 5.51568 9.52604 16.0969 
73 1 5.21235 8.76114 14.8945 
82 1 5.52049 16.092 9.52846 
83 1 5.56918 9.46615 13.6699 
84 1 5.31849 8.75045 12.3991 
86 1 4.86267 9.47803 11.2144 
91 1 7.31728 14.8716 10.8384 
99 1 6.6537 13.6354 10.4516 
100 1 7.37949 12.3725 10.7383 
102 1 6.60643 11.2201 11.1996 
113 1 6.5431 10.5643 16.0914 
114 1 2.41102 10.4825 9.46751 
115 1 3.67358 10.7482 8.74548 
117 1 4.85805 11.2167 9.46499 
126 1 1.18721 10.8552 8.76938 
131 1 7.28501 10.8629 14.8731 
135 1 6.57884 10.4835 13.6589 
136 1 7.28994 10.6611 12.3675 
144 1 2.41331 9.46771 10.4853 
145 1 3.68043 8.75282 10.7495 
152 1 1.18882 8.76883 10.8561 
158 1 5.22743 14.8822 8.77349 
162 1 5.6182 13.6578 9.46545 
163 1 5.3287 12.3978 8.74426 
3 1 8.76731 5.22115 1.18909 
13 1 9.46695 5.59196 2.41243 
14 1 8.74837 5.32921 3.67709 
16 1 9.46794 4.86243 4.86238 
24 1 16.097 5.51618 6.55033 
30 1 13.6654 6.6083 5.59214 
31 1 12.4006 7.32761 5.33001 
33 1 11.215 6.60798 4.86313 
42 1 14.8887 7.30787 5.21936 
52 1 10.8557 1.18957 7.3108 
60 1 10.4838 2.41214 6.60835 
61 1 10.7469 3.67718 7.32672 
63 1 11.2146 4.8633 6.60819 
87 1 10.7005 5.37356 5.37441 
98 1 16.0967 6.5488 5.517 
170 1 10.8558 7.31135 1.18775 
174 1 10.4843 6.60849 2.4108 
175 1 10.7473 7.32513 3.67649 
179 1 8.76648 1.18984 5.22137 
183 1 9.4669 2.41273 5.59276 
184 1 8.74816 3.67759 5.32892 
192 1 13.6652 5.5921 6.60882 
193 1 12.4003 5.33058 7.32774 
200 1 14.8886 5.21986 7.3091 
6 1 16.0965 5.51854 9.52731 
23 1 10.7018 5.381 10.7055 
59 1 10.5575 6.55239 16.093 
67 1 10.8564 7.3155 14.8887 
77 1 10.4813 6.61344 13.6695 
78 1 10.7507 7.33456 12.404 
80 1 11.2122 6.60901 11.2168 
93 1 16.0967 6.55122 10.5587 
94 1 9.4658 2.40774 10.4856 
95 1 8.74901 3.67487 10.7498 
97 1 9.46596 4.86217 11.2143 
106 1 8.76497 1.18437 10.8554 
116 1 14.8897 5.21931 8.76781 
123 1 9.52684 5.51915 16.0936 
124 1 13.6689 5.59134 9.46971 
125 1 12.402 5.32793 8.7522 
127 1 11.2144 4.86486 9.46873 
134 1 8.76919 5.22206 14.8861 
138 1 9.47111 5.59771 13.666 
139 1 8.75119 5.32874 12.4013 
143 1 14.8907 7.31261 10.8555 
147 1 13.6763 6.60025 10.4877 
148 1 12.408 7.31856 10.7481 
156 1 10.4831 2.41082 9.46941 
157 1 10.7482 3.67783 8.75225 
164 1 10.8552 1.18698 8.77015 
11 1 10.7019 10.7044 5.37801 
18 1 16.0969 10.559 6.55044 
29 1 9.5267 16.0953 5.51912 
70 1 10.5581 16.0956 6.5521 
71 1 10.4828 9.46886 2.41045 
72 1 10.7478 8.75145 3.67645 
74 1 11.2147 9.46754 4.86369 
85 1 10.8544 8.771 1.18564 
96 1 8.76686 14.8888 5.21928 
103 1 16.0963 9.5273 5.51778 
104 1 9.46997 13.6678 5.59028 
105 1 8.75036 12.4027 5.32662 
107 1 9.4656 11.2149 4.86219 
111 1 14.8905 10.8555 7.31248 
119 1 13.6767 10.4869 6.59834 
120 1 12.4077 10.7483 7.31732 
122 1 11.215 11.2207 6.60568 
132 1 9.46765 10.4856 2.4085 
133 1 8.75028 10.749 3.67456 
140 1 8.76942 10.8593 1.18442 
146 1 14.8904 8.76657 5.21769 
150 1 13.6697 9.4697 5.58902 
151 1 12.4027 8.75158 5.32649 
155 1 10.852 14.8892 7.31516 
159 1 10.4846 13.673 6.60405 
160 1 10.7506 12.4091 7.32832 
1 1 9.40661 10.4098 13.6652 
2 1 8.69662 10.6139 12.3923 
4 1 9.61683 11.3566 11.4793 
12 1 16.0911 10.5577 9.5261 
15 1 8.74058 10.8255 14.8862 
25 1 13.6568 9.46752 10.4851 
26 1 12.3988 8.73791 10.7222 
28 1 11.1512 9.417 11.1315 
34 1 9.52292 16.0881 10.5577 
37 1 14.8826 8.77033 10.853 
45 1 10.4791 13.6551 9.47755 