ITEM: TIMESTEP
0
ITEM: NUMBER OF ATOMS
131
ITEM: BOX BOUNDS xy xz yz pp pp pp
0.0000000000000000e+00 2.3654499999999999e+01 7.8845000000000001e+00
0.0000000000000000e+00 1.3658086643083999e+01 0.0000000000000000e+00
0.0000000000000000e+00 2.5747000000000000e+01 0.0000000000000000e+00
ITEM: ATOMS id type x y z 
18 1 10.522 6.683 2.644 
28 1 5.247 4.273 12.803 
31 1 9.65 6.514 0.446 
62 1 9.171 5.15 12.405 
91 1 9.65 6.514 11.889 
92 1 10.81 6.18 11.007 
106 1 10.522 6.683 9.691 
127 1 10.81 6.18 1.328 
4 1 4.402 5.735 13.319 
5 1 3.307 5.568 14.201 
43 1 4.549 6.796 15.517 
52 1 9.172 5.15 25.677 
66 1 4.402 5.735 24.762 
67 1 5.003 6.76 23.881 
88 1 5.247 4.273 25.278 
107 1 3.307 5.568 23.881 
116 1 4.549 6.796 22.565 
117 1 5.003 6.76 14.201 
11 1 11.272 7.494 3.321 
12 1 10.477 8.871 4.018 
14 1 9.018 11.397 0.446 
15 1 10.114 11.565 1.328 
16 1 8.412 9.024 0.654 
19 1 10.477 8.871 5.569 
29 1 10.927 10.156 3.321 
32 1 8.77 7.648 1.328 
35 1 12.036 9.594 2.644 
45 1 9.231 8.963 3.321 
47 1 12.762 8.702 0.446 
49 1 11.224 11 0.654 
51 1 8.872 10.337 2.644 
53 1 11.272 7.494 9.014 
54 1 10.477 8.871 8.317 
56 1 9.018 11.397 11.889 
57 1 8.418 10.372 11.007 
58 1 11.224 11 11.681 
60 1 12.255 7.901 9.691 
61 1 10.477 8.871 6.766 
73 1 9.231 8.963 9.014 
75 1 12.762 8.702 11.889 
76 1 12.202 10.061 11.007 
79 1 9.224 7.617 9.691 
80 1 8.174 12.859 12.405 
89 1 10.927 10.156 9.014 
93 1 8.412 9.024 11.681 
95 1 9.951 11.095 9.691 
105 1 10.114 11.565 11.007 
109 1 8.77 7.648 11.007 
110 1 12.036 9.594 9.691 
114 1 8.872 10.337 9.691 
119 1 8.418 10.372 1.328 
120 1 12.255 7.901 2.644 
123 1 12.202 10.061 1.328 
124 1 9.224 7.617 2.644 
128 1 9.951 11.095 2.644 
6 1 5.009 8.108 13.527 
13 1 9.663 10.28 25.128 
17 1 9.204 8.965 25.162 
30 1 10.016 7.556 25.128 
34 1 11.289 7.464 25.162 
36 1 8.174 12.859 25.677 
46 1 11.752 8.777 25.128 
50 1 10.937 10.184 25.162 
55 1 9.663 10.28 12.954 
59 1 10.937 10.184 12.919 
74 1 11.752 8.777 12.954 
78 1 11.289 7.464 12.919 
90 1 10.016 7.556 12.954 
94 1 9.204 8.965 12.919 
101 1 5.009 8.108 24.555 
33 1 11.795 6.589 0.654 
77 1 11.795 6.589 11.681 
41 1 17.967 6.132 13.527 
68 1 17.967 6.132 24.554 
103 1 19.24 6.037 22.565 
126 1 19.24 6.037 15.517 
3 1 19.528 6.852 12.254 
7 1 19.987 8.167 12.289 
10 1 15.106 8.528 12.804 
22 1 19.175 9.576 12.254 
26 1 17.902 9.668 12.289 
38 1 17.439 8.356 12.254 
42 1 18.254 6.949 12.289 
44 1 20.019 11.982 12.804 
48 1 12.546 7.4 1.328 
65 1 19.528 6.852 0.081 
69 1 18.254 6.949 0.046 
82 1 17.439 8.356 0.081 
86 1 17.902 9.668 0.046 
96 1 14.084 8.604 12.405 
98 1 19.175 9.576 0.081 
102 1 19.987 8.167 0.046 
113 1 12.546 7.4 11.007 
1 1 17.919 9.638 16.194 
2 1 18.714 8.261 16.892 
8 1 18.669 10.449 15.517 
9 1 18.714 8.261 18.442 
20 1 14.084 8.604 25.677 
21 1 18.264 6.977 16.194 
23 1 19.541 10.618 13.32 
24 1 20.421 9.484 14.201 
25 1 17.396 10.544 13.527 
27 1 17.155 7.538 15.517 
37 1 19.96 8.169 16.194 
39 1 16.429 8.43 13.319 
40 1 16.644 9.732 14.201 
63 1 17.919 9.638 21.888 
64 1 18.714 8.261 21.19 
70 1 16.936 9.231 22.565 
71 1 18.714 8.261 19.64 
72 1 20.019 11.982 25.278 
81 1 19.96 8.169 21.888 
83 1 16.429 8.43 24.762 
84 1 16.989 7.071 23.881 
85 1 17.396 10.544 24.555 
87 1 19.967 9.515 22.565 
97 1 18.263 6.977 21.888 
99 1 19.541 10.618 24.762 
100 1 18.38 10.953 23.881 
104 1 15.106 8.528 25.278 
108 1 18.669 10.449 22.565 
111 1 20.421 9.484 23.881 
112 1 17.155 7.538 22.565 
115 1 16.644 9.732 23.881 
118 1 16.936 9.231 15.517 
121 1 16.989 7.071 14.201 
122 1 19.967 9.515 15.517 
125 1 18.38 10.953 14.201 
129 2 15.106 8.528 14.154 
130 2 14.081 8.134 15.195 
131 3 14.865 8.08 15.77 
ITEM: TIMESTEP
10
ITEM: NUMBER OF ATOMS
131
ITEM: BOX BOUNDS xy xz yz pp pp pp
0.0000000000000000e+00 2.3654499999999999e+01 7.8845000000000001e+00
0.0000000000000000e+00 1.3658086643083999e+01 0.0000000000000000e+00
0.0000000000000000e+00 2.5747000000000000e+01 0.0000000000000000e+00
ITEM: ATOMS id type x y z 
18 1 10.4092 6.74348 2.63306 
28 1 5.17674 4.4134 12.8451 
31 1 9.47984 6.50574 0.410157 
62 1 9.15801 5.22744 12.3838 
91 1 9.47844 6.50271 11.9245 
92 1 10.8231 6.16842 10.9778 
106 1 10.4102 6.7451 9.70312 
127 1 10.831 6.17474 1.35554 
4 1 4.43702 5.76576 13.2769 
5 1 3.22181 5.58264 14.1973 
43 1 4.5774 6.92054 15.5022 
52 1 9.15971 5.23035 25.6994 
66 1 4.42801 5.76149 24.8121 
67 1 5.06421 6.87536 23.8966 
88 1 5.17656 4.41402 25.2357 
107 1 3.22541 5.59021 23.8833 
116 1 4.56659 6.91865 22.5747 
117 1 5.05128 6.86933 14.1798 
11 1 11.3318 7.54482 3.32811 
12 1 10.4811 8.85288 4.08531 
14 1 8.98746 11.3633 0.404465 
15 1 10.2062 11.5457 1.32107 
16 1 8.45407 8.94661 0.712229 
19 1 10.4743 8.87043 5.55963 
29 1 10.9609 10.1484 3.3237 
32 1 8.75635 7.72644 1.29727 
35 1 12.0264 9.57172 2.57994 
45 1 9.22651 8.96324 3.26652 
47 1 12.7316 8.76669 0.530832 
49 1 11.2829 10.9314 0.687084 
51 1 8.84761 10.2098 2.62667 
53 1 11.3273 7.54392 9.00199 
54 1 10.488 8.85318 8.24597 
56 1 8.99996 11.3821 11.9471 
57 1 8.32842 10.2578 11.024 
58 1 11.2867 10.931 11.6524 
60 1 12.2428 8.01288 9.6144 
61 1 10.4744 8.87046 6.77474 
73 1 9.22222 8.96092 9.06252 
75 1 12.7756 8.7913 11.8256 
76 1 12.2052 10.0487 11.0066 
79 1 9.22913 7.63813 9.75921 
80 1 8.24645 12.7149 12.3614 
89 1 10.9617 10.1494 9.01222 
93 1 8.44902 8.92337 11.6324 
95 1 10.0173 11.0859 9.68122 
105 1 10.2088 11.5543 11.014 
109 1 8.7554 7.72208 11.0373 
110 1 12.026 9.57219 9.7561 
114 1 8.85145 10.2164 9.68494 
119 1 8.36673 10.2517 1.3081 
120 1 12.2497 8.00212 2.69165 
123 1 12.2083 10.0492 1.32966 
124 1 9.22724 7.6459 2.57684 
128 1 10.0104 11.0829 2.64813 
6 1 4.98021 8.17617 13.5652 
13 1 9.57432 10.3448 25.1251 
17 1 9.23017 8.95203 25.178 
30 1 9.97657 7.6551 25.1194 
34 1 11.2945 7.46235 25.1188 
36 1 8.24435 12.7184 25.7196 
46 1 11.7026 8.8001 25.1061 
50 1 10.9523 10.12 25.1632 
55 1 9.58514 10.3433 12.9597 
59 1 10.9638 10.1258 12.9122 
74 1 11.6985 8.8091 12.9791 
78 1 11.2937 7.46115 12.9652 
90 1 9.97449 7.6552 12.9637 
94 1 9.22066 8.94546 12.9131 
101 1 4.97172 8.18271 24.5105 
33 1 11.7621 6.55939 0.675833 
77 1 11.7443 6.53887 11.6728 
41 1 17.904 6.2101 13.5449 
68 1 17.9006 6.20589 24.5341 
103 1 19.1766 6.05224 22.5613 
126 1 19.1717 6.05521 15.5256 
3 1 19.6093 6.78915 12.2604 
7 1 19.9645 8.16517 12.2922 
10 1 15.0906 8.48788 12.9187 
22 1 19.2195 9.46065 12.2583 
26 1 17.896 9.67387 12.2232 
38 1 17.5073 8.34493 12.2137 
42 1 18.2508 6.99287 12.2934 
44 1 20.0331 11.9186 12.8183 
48 1 12.581 7.50361 1.37262 
65 1 19.5894 6.78613 0.0810754 
69 1 18.244 7.03531 0.0288984 
82 1 17.5023 8.31909 0.0867902 
86 1 17.8865 9.65331 0.0909239 
96 1 14.0292 8.65478 12.3567 
98 1 19.2132 9.47714 0.0937208 
102 1 19.9656 8.16899 0.0348806 
113 1 12.6146 7.48316 10.9544 
1 1 18.0202 9.61249 16.2624 
2 1 18.6976 8.28429 16.9504 
8 1 18.7627 10.434 15.4894 
9 1 18.7156 8.26095 18.4398 
20 1 14.0371 8.64866 25.7086 
21 1 18.2422 6.98058 16.1929 
23 1 19.7109 10.6459 13.301 
24 1 20.4274 9.42027 14.151 
25 1 17.4495 10.6008 13.538 
27 1 17.1532 7.58992 15.4603 
37 1 19.9623 8.13383 16.158 
39 1 16.5461 8.34225 13.3878 
40 1 16.6094 9.60362 14.2522 
63 1 17.8551 9.58524 21.8783 
64 1 18.7056 8.27539 21.1238 
70 1 16.9433 9.12685 22.5099 
71 1 18.7169 8.26144 19.6515 
72 1 20.0322 11.9067 25.2574 
81 1 19.9628 8.1642 21.9358 
83 1 16.4691 8.35652 24.6891 
84 1 16.9872 7.09254 23.8807 
85 1 17.4304 10.5795 24.5354 
87 1 19.9675 9.48843 22.6241 
97 1 18.2325 6.98659 21.8916 
99 1 19.7076 10.6386 24.7968 
100 1 18.3591 10.9613 23.8556 
104 1 15.1539 8.4826 25.2473 
108 1 18.7766 10.3942 22.5705 
111 1 20.4426 9.41313 23.9187 
112 1 17.1674 7.55546 22.6324 
115 1 16.6026 9.62973 23.8361 
118 1 16.889 9.06153 15.4865 
121 1 16.9799 7.1062 14.1766 
122 1 19.9174 9.50291 15.4861 
125 1 18.3706 10.9607 14.2379 
129 2 14.9739 8.50669 14.1526 
130 2 14.0816 8.13346 15.1997 
131 3 14.8479 8.07693 15.7768 
ITEM: TIMESTEP
20
ITEM: NUMBER OF ATOMS
131
ITEM: BOX BOUNDS xy xz yz pp pp pp
0.0000000000000000e+00 2.3654499999999999e+01 7.8845000000000001e+00
0.0000000000000000e+00 1.3658086643083999e+01 0.0000000000000000e+00
0.0000000000000000e+00 2.5747000000000000e+01 0.0000000000000000e+00
ITEM: ATOMS id type x y z 
18 1 10.3847 6.76365 2.6403 
28 1 5.13659 4.50474 12.8705 
31 1 9.43538 6.52939 0.412689 
62 1 9.12751 5.25945 12.3801 
91 1 9.43788 6.52978 11.9228 
92 1 10.8127 6.18883 10.9769 
106 1 10.3853 6.76326 9.69767 
127 1 10.8128 6.18654 1.36075 
4 1 4.44164 5.78989 13.2784 
5 1 3.19657 5.62623 14.1983 
43 1 4.56837 6.93708 15.4873 
52 1 9.12877 5.25921 25.7022 
66 1 4.43794 5.79368 24.8141 
67 1 5.06616 6.92176 23.8966 
88 1 5.13287 4.51102 25.2099 
107 1 3.19408 5.62293 23.8737 
116 1 4.55898 6.94536 22.5938 
117 1 5.06165 6.92774 14.1779 
11 1 11.3276 7.57181 3.35006 
12 1 10.4802 8.85681 4.09083 
14 1 8.98562 11.3394 0.39693 
15 1 10.2247 11.5076 1.33415 
16 1 8.41642 8.93778 0.70894 
19 1 10.4707 8.86979 5.55861 
29 1 10.9518 10.1415 3.34225 
32 1 8.72557 7.68578 1.28331 
35 1 12.0475 9.60311 2.59109 
45 1 9.22439 8.94127 3.26715 
47 1 12.689 8.79181 0.540267 
49 1 11.3176 10.9236 0.665509 
51 1 8.85997 10.187 2.61369 
53 1 11.3268 7.57272 8.98378 
54 1 10.4818 8.85711 8.24244 
56 1 8.98174 11.3483 11.935 
57 1 8.35556 10.2005 11.0109 
58 1 11.3087 10.9348 11.6602 
60 1 12.2634 8.01705 9.62009 
61 1 10.4708 8.87027 6.77747 
73 1 9.22142 8.94147 9.07144 
75 1 12.7392 8.78533 11.8125 
76 1 12.2482 10.0504 11.0111 
79 1 9.22233 7.65805 9.76505 
80 1 8.28532 12.6285 12.3395 
89 1 10.9614 10.1381 8.9934 
93 1 8.4126 8.93672 11.6206 
95 1 10.024 11.0724 9.69829 
105 1 10.24 11.4967 10.999 
109 1 8.72607 7.68821 11.0526 
110 1 12.0423 9.59765 9.7436 
114 1 8.85546 10.1816 9.72275 
119 1 8.35432 10.2117 1.31632 
120 1 12.2609 8.01763 2.71674 
123 1 12.2435 10.0553 1.32847 
124 1 9.22368 7.65508 2.57202 
128 1 10.0263 11.0633 2.64482 
6 1 4.99715 8.21265 13.5852 
13 1 9.59271 10.3119 25.1092 
17 1 9.20454 8.96067 25.1504 
30 1 9.94221 7.67935 25.1026 
34 1 11.2954 7.48699 25.1157 
36 1 8.28835 12.6204 25.7463 
46 1 11.6921 8.82415 25.1224 
50 1 10.9651 10.1163 25.1602 
55 1 9.59726 10.3052 12.9775 
59 1 10.975 10.0873 12.9268 
74 1 11.6885 8.82076 12.9369 
78 1 11.302 7.51597 12.9635 
90 1 9.94511 7.6853 12.9777 
94 1 9.21121 8.95989 12.9346 
101 1 5.00412 8.19616 24.4982 
33 1 11.7446 6.58681 0.677866 
77 1 11.7419 6.58198 11.6485 
41 1 17.8765 6.20866 13.5359 
68 1 17.8747 6.20565 24.5451 
103 1 19.1652 6.07178 22.5642 
126 1 19.1439 6.07288 15.5286 
3 1 19.6088 6.81037 12.2441 
7 1 19.9819 8.16749 12.2712 
10 1 15.0268 8.46553 13.0004 
22 1 19.2504 9.45419 12.2505 
26 1 17.9156 9.66567 12.2373 
38 1 17.5169 8.316 12.2008 
42 1 18.2458 7.00653 12.2721 
44 1 20.0644 11.8804 12.8243 
48 1 12.5716 7.54448 1.37643 
65 1 19.5991 6.82344 0.0933515 
69 1 18.2379 7.01375 0.0457922 
82 1 17.4995 8.31833 0.093676 
86 1 17.9091 9.64242 0.0782595 
96 1 14.0135 8.6737 12.3265 
98 1 19.2401 9.45369 0.109186 
102 1 19.9782 8.16567 0.0586642 
113 1 12.5719 7.54893 10.9573 
1 1 18.0484 9.56627 16.2654 
2 1 18.6971 8.27961 16.9522 
8 1 18.8065 10.4455 15.5423 
9 1 18.7168 8.26217 18.4397 
20 1 14.036 8.66557 25.7146 
21 1 18.2342 6.98387 16.1983 
23 1 19.7722 10.5986 13.2924 
24 1 20.4353 9.43178 14.1423 
25 1 17.4487 10.5472 13.516 
27 1 17.1495 7.56381 15.4802 
37 1 19.9786 8.16725 16.1453 
39 1 16.5884 8.3214 13.3829 
40 1 16.6464 9.58721 14.2455 
63 1 17.862 9.5587 21.857 
64 1 18.7085 8.27648 21.1317 
70 1 16.9334 9.10393 22.4796 
71 1 18.7203 8.26091 19.6542 
72 1 20.0618 11.8717 25.2522 
81 1 19.9671 8.19087 21.9447 
83 1 16.5005 8.33475 24.6742 
84 1 16.9434 7.07536 23.8699 
85 1 17.4559 10.5497 24.5419 
87 1 19.9689 9.47556 22.643 
97 1 18.2341 6.99153 21.873 
99 1 19.7508 10.6055 24.7934 
100 1 18.3809 10.9487 23.8509 
104 1 15.1499 8.46433 25.2431 
108 1 18.8074 10.3682 22.5692 
111 1 20.4627 9.44371 23.9283 
112 1 17.151 7.53286 22.6173 
115 1 16.6069 9.59575 23.8315 
118 1 16.9106 9.05323 15.5363 
121 1 16.952 7.07302 14.1827 
122 1 19.9296 9.47122 15.4769 
125 1 18.375 10.9886 14.2057 
129 2 14.9395 8.49137 14.102 
130 2 14.0706 8.13047 15.2097 
131 3 14.8289 8.06927 15.7895 
ITEM: TIMESTEP
30
ITEM: NUMBER OF ATOMS
131
ITEM: BOX BOUNDS xy xz yz pp pp pp
0.0000000000000000e+00 2.3654499999999999e+01 7.8845000000000001e+00
0.0000000000000000e+00 1.3658086643083999e+01 0.0000000000000000e+00
0.0000000000000000e+00 2.5747000000000000e+01 0.0000000000000000e+00
ITEM: ATOMS id type x y z 
18 1 10.3706 6.79514 2.64672 
28 1 5.08456 4.63337 12.9056 
31 1 9.36954 6.571 0.409744 
62 1 9.06656 5.29882 12.3789 
91 1 9.3758 6.57403 11.9267 
92 1 10.7794 6.2178 10.9692 
106 1 10.3669 6.79721 9.68397 
127 1 10.786 6.22199 1.36969 
4 1 4.44857 5.83248 13.2862 
5 1 3.14295 5.68893 14.1998 
43 1 4.55993 6.95097 15.4635 
52 1 9.06643 5.29048 25.7016 
66 1 4.44175 5.83337 24.8033 
67 1 5.08916 7.00017 23.8911 
88 1 5.07921 4.64135 25.1771 
107 1 3.13407 5.687 23.8747 
116 1 4.55461 6.97418 22.6145 
117 1 5.08552 7.00425 14.1899 
11 1 11.3241 7.60469 3.37196 
12 1 10.4894 8.84435 4.10587 
14 1 8.98081 11.2985 0.403562 
15 1 10.2811 11.4405 1.33244 
16 1 8.36485 8.90255 0.699604 
19 1 10.4644 8.86844 5.55832 
29 1 10.9512 10.125 3.35426 
32 1 8.65648 7.65327 1.266 
35 1 12.0709 9.63576 2.62227 
45 1 9.2243 8.92881 3.26865 
47 1 12.6649 8.82776 0.554704 
49 1 11.3582 10.9101 0.654093 
51 1 8.86961 10.1559 2.59585 
53 1 11.3217 7.60577 8.96075 
54 1 10.4933 8.84486 8.22963 
56 1 8.96945 11.3039 11.9312 
57 1 8.34056 10.1327 11.0157 
58 1 11.3635 10.9076 11.6764 
60 1 12.2727 8.05823 9.57715 
61 1 10.4645 8.86971 6.77766 
73 1 9.22382 8.9283 9.0688 
75 1 12.743 8.82474 11.7614 
76 1 12.3067 10.0819 11.0036 
79 1 9.20286 7.65732 9.7838 
80 1 8.34302 12.4915 12.3045 
89 1 10.9515 10.1232 8.98338 
93 1 8.36231 8.89959 11.6312 
95 1 10.0421 11.0422 9.6875 
105 1 10.2932 11.4285 10.999 
109 1 8.65628 7.65297 11.0721 
110 1 12.067 9.63325 9.71884 
114 1 8.86969 10.1541 9.73659 
119 1 8.33604 10.1338 1.3216 
120 1 12.2715 8.05972 2.75212 
123 1 12.2988 10.0889 1.33959 
124 1 9.20311 7.65534 2.55342 
128 1 10.0449 11.0388 2.64674 
6 1 5.03913 8.24494 13.5752 
13 1 9.58929 10.2957 25.056 
17 1 9.19331 8.97106 25.1228 
30 1 9.924 7.71102 25.067 
34 1 11.2614 7.50278 25.1237 
36 1 8.34413 12.4864 25.7813 
46 1 11.6937 8.82507 25.1221 
50 1 10.9512 10.117 25.1506 
55 1 9.59561 10.2945 13.0203 
59 1 10.9508 10.1123 12.9369 
74 1 11.6564 8.8075 12.9473 
78 1 11.2837 7.48893 12.9681 
90 1 9.95938 7.74507 13.0097 
94 1 9.18398 8.97679 12.9646 
101 1 5.05641 8.22963 24.5058 
33 1 11.7067 6.63971 0.689187 
77 1 11.7098 6.63053 11.6338 
41 1 17.8378 6.21798 13.5175 
68 1 17.8331 6.22386 24.5523 
103 1 19.1456 6.09064 22.5653 
126 1 19.1282 6.08987 15.5199 
3 1 19.615 6.83262 12.1898 
7 1 20.0029 8.16587 12.243 
10 1 14.9343 8.43062 13.0737 
22 1 19.2835 9.43444 12.2066 
26 1 17.9465 9.64061 12.2329 
38 1 17.5212 8.30087 12.1799 
42 1 18.2508 7.01669 12.2483 
44 1 20.1321 11.8485 12.824 
48 1 12.5453 7.60626 1.39278 
65 1 19.6041 6.84197 0.142764 
69 1 18.2365 7.01693 0.0610287 
82 1 17.5005 8.3063 0.0939331 
86 1 17.9371 9.62555 0.068843 
96 1 14.0236 8.70754 12.3 
98 1 19.269 9.42529 0.145292 
102 1 19.9919 8.16753 0.0914636 
113 1 12.5543 7.61093 10.942 
1 1 18.0822 9.55717 16.2855 
2 1 18.7152 8.26734 16.9714 
8 1 18.8423 10.4615 15.5136 
9 1 18.72 8.26226 18.4323 
20 1 14.0543 8.68641 25.7153 
21 1 18.2379 7.00614 16.2284 
23 1 19.8495 10.5553 13.2803 
24 1 20.4884 9.47107 14.1484 
25 1 17.5022 10.508 13.5251 
27 1 17.1176 7.54612 15.4965 
37 1 19.9756 8.15849 16.1614 
39 1 16.6171 8.28774 13.3961 
40 1 16.6937 9.50549 14.2634 
63 1 17.8647 9.5289 21.8376 
64 1 18.6968 8.29252 21.1227 
70 1 16.9161 9.07427 22.4571 
71 1 18.7256 8.26202 19.6512 
72 1 20.1231 11.8351 25.2509 
81 1 19.9704 8.20176 21.9471 
83 1 16.5255 8.30531 24.6547 
84 1 16.8891 7.03899 23.8667 
85 1 17.4875 10.4909 24.519 
87 1 19.9876 9.47751 22.6574 
97 1 18.243 7.00618 21.8553 
99 1 19.8153 10.5616 24.8016 
100 1 18.4054 10.9116 23.842 
104 1 15.131 8.44384 25.2426 
108 1 18.8207 10.3382 22.5664 
111 1 20.5343 9.48035 23.9485 
112 1 17.1196 7.4955 22.5897 
115 1 16.6486 9.5292 23.8156 
118 1 16.937 9.01643 15.5587 
121 1 16.9051 7.03768 14.1891 
122 1 19.9351 9.48677 15.4793 
125 1 18.3882 10.9636 14.2272 
129 2 14.8778 8.46655 14.0813 
130 2 14.0482 8.12511 15.2274 
131 3 14.7991 8.05651 15.8121 
ITEM: TIMESTEP
40
ITEM: NUMBER OF ATOMS
131
ITEM: BOX BOUNDS xy xz yz pp pp pp
0.0000000000000000e+00 2.3654499999999999e+01 7.8845000000000001e+00
0.0000000000000000e+00 1.3658086643083999e+01 0.0000000000000000e+00
0.0000000000000000e+00 2.5747000000000000e+01 0.0000000000000000e+00
ITEM: ATOMS id type x y z 
18 1 10.3709 6.802 2.64615 
28 1 5.09301 4.63033 12.9049 
31 1 9.36918 6.57262 0.401502 
62 1 9.04062 5.3001 12.3819 
91 1 9.3783 6.58211 11.9388 
92 1 10.7663 6.23478 10.9689 
106 1 10.3695 6.80239 9.68923 
127 1 10.769 6.23762 1.36584 
4 1 4.43453 5.86663 13.2909 
5 1 3.14331 5.69344 14.1972 
43 1 4.55952 6.95216 15.4681 
52 1 9.04149 5.29594 25.7017 
66 1 4.42488 5.86869 24.7937 
67 1 5.08362 7.00265 23.8957 
88 1 5.08898 4.63497 25.1793 
107 1 3.13878 5.69556 23.8833 
116 1 4.55793 6.97198 22.613 
117 1 5.08076 7.00305 14.1854 
11 1 11.3283 7.59891 3.37318 
12 1 10.4917 8.8324 4.10193 
14 1 8.99786 11.26 0.411421 
15 1 10.28 11.4345 1.32554 
16 1 8.35783 8.88668 0.67753 
19 1 10.4627 8.86691 5.55802 
29 1 10.9521 10.124 3.34661 
32 1 8.63855 7.65206 1.27539 
35 1 12.0802 9.64399 2.62898 
45 1 9.22949 8.92717 3.26382 
47 1 12.6908 8.84299 0.545997 
49 1 11.3662 10.8981 0.652194 
51 1 8.86332 10.1582 2.59884 
53 1 11.3258 7.59832 8.95774 
54 1 10.4919 8.83284 8.23348 
56 1 8.99555 11.2629 11.9236 
57 1 8.34187 10.1294 11.0202 
58 1 11.3696 10.8909 11.6857 
60 1 12.2696 8.06931 9.57906 
61 1 10.4631 8.86786 6.77692 
73 1 9.22971 8.92689 9.07161 
75 1 12.7448 8.8389 11.772 
76 1 12.3165 10.0926 10.9942 
79 1 9.18586 7.65546 9.79024 
80 1 8.33208 12.4999 12.3068 
89 1 10.9523 10.1249 8.9904 
93 1 8.35652 8.88639 11.6588 
95 1 10.0427 11.0352 9.68527 
105 1 10.2843 11.4261 11.0095 
109 1 8.63911 7.65291 11.0621 
110 1 12.0775 9.64227 9.70987 
114 1 8.86293 10.158 9.73611 
119 1 8.33982 10.1299 1.31411 
120 1 12.2711 8.07119 2.75133 
123 1 12.3077 10.0958 1.34391 
124 1 9.18617 7.65489 2.54568 
128 1 10.043 11.0338 2.64882 
6 1 5.04545 8.25448 13.5586 
13 1 9.5805 10.3095 25.0507 
17 1 9.1871 8.97045 25.1305 
30 1 9.92274 7.70316 25.0595 
34 1 11.2601 7.50252 25.1234 
36 1 8.33232 12.4967 25.778 
46 1 11.6881 8.82207 25.1207 
50 1 10.9488 10.1055 25.1514 
55 1 9.58057 10.3141 13.0253 
59 1 10.9528 10.0965 12.9287 
74 1 11.689 8.81783 12.9381 
78 1 11.2731 7.49788 12.9539 
90 1 9.93729 7.71796 13.0135 
94 1 9.18849 8.97131 12.9547 
101 1 5.06228 8.24545 24.5326 
33 1 11.7024 6.65591 0.697845 
77 1 11.702 6.65487 11.6323 
41 1 17.8359 6.23064 13.5068 
68 1 17.824 6.23415 24.556 
103 1 19.1497 6.09938 22.5616 
126 1 19.1324 6.10393 15.5168 
3 1 19.6228 6.82029 12.1766 
7 1 20.0087 8.1662 12.251 
10 1 14.9607 8.42289 13.0408 
22 1 19.2848 9.43786 12.2006 
26 1 17.9486 9.63973 12.2227 
38 1 17.5219 8.31236 12.1935 
42 1 18.2574 7.02082 12.254 
44 1 20.157 11.841 12.827 
48 1 12.5343 7.61211 1.4002 
65 1 19.611 6.82378 0.155106 
69 1 18.2425 7.02724 0.0569194 
82 1 17.5055 8.31006 0.0914243 
86 1 17.9309 9.62922 0.0832992 
96 1 14.0227 8.71685 12.3045 
98 1 19.27 9.43053 0.153677 
102 1 20.0051 8.16306 0.0787891 
113 1 12.5406 7.60455 10.9255 
1 1 18.0645 9.56261 16.2988 
2 1 18.7257 8.27538 16.9521 
8 1 18.8308 10.4379 15.5177 
9 1 18.7263 8.26076 18.4201 
20 1 14.0515 8.68717 25.7161 
21 1 18.2316 7.01309 16.2429 
23 1 19.8459 10.5526 13.2683 
24 1 20.5075 9.47911 14.1504 
25 1 17.5096 10.4952 13.5374 
27 1 17.1124 7.52805 15.5008 
37 1 19.9708 8.16588 16.1836 
39 1 16.5776 8.27674 13.383 
40 1 16.705 9.49504 14.2531 
63 1 17.8633 9.53134 21.8364 
64 1 18.7009 8.29912 21.115 
70 1 16.9176 9.06163 22.4578 
71 1 18.7238 8.26571 19.6367 
72 1 20.1489 11.8356 25.2531 
81 1 19.961 8.20715 21.9464 
83 1 16.4972 8.28862 24.6627 
84 1 16.8814 7.03424 23.8655 
85 1 17.488 10.4793 24.5067 
87 1 20.0049 9.47815 22.666 
97 1 18.2377 7.01003 21.8618 
99 1 19.8206 10.5598 24.8087 
100 1 18.4204 10.8974 23.8424 
104 1 15.1368 8.4445 25.24 
108 1 18.8203 10.33 22.5638 
111 1 20.5534 9.4796 23.9353 
112 1 17.11 7.48795 22.5804 
115 1 16.6578 9.51959 23.8088 
118 1 16.9539 9.01337 15.5609 
121 1 16.8993 7.04179 14.1893 
122 1 19.9762 9.49342 15.4686 
125 1 18.4082 10.9464 14.2307 
129 2 14.8583 8.4617 14.1391 
130 2 14.0377 8.12331 15.2339 
131 3 14.7904 8.05219 15.8242 
ITEM: TIMESTEP
50
ITEM: NUMBER OF ATOMS
131
ITEM: BOX BOUNDS xy xz yz pp pp pp
0.0000000000000000e+00 2.3654499999999999e+01 7.8845000000000001e+00
0.0000000000000000e+00 1.3658086643083999e+01 0.0000000000000000e+00
0.0000000000000000e+00 2.5747000000000000e+01 0.0000000000000000e+00
ITEM: ATOMS id type x y z 
18 1 10.3617 6.81318 2.64692 
28 1 5.0972 4.64079 12.9088 
31 1 9.35851 6.57968 0.397408 
62 1 9.00558 5.30224 12.3863 
91 1 9.36178 6.58512 11.9421 
92 1 10.751 6.25295 10.9735 
106 1 10.3603 6.81304 9.68811 
127 1 10.7516 6.25519 1.36099 
4 1 4.42643 5.88459 13.2874 
5 1 3.14129 5.70643 14.1943 
43 1 4.56294 6.96179 15.4714 
52 1 9.00628 5.30005 25.6996 
66 1 4.41918 5.88747 24.7966 
67 1 5.08072 7.01608 23.8996 
88 1 5.09334 4.64388 25.1763 
107 1 3.13602 5.70773 23.8845 
116 1 4.56 6.97986 22.6119 
117 1 5.07788 7.0146 14.1856 
11 1 11.3298 7.60069 3.37623 
12 1 10.4933 8.82909 4.09902 
14 1 9.00275 11.2435 0.40989 
15 1 10.2832 11.4238 1.32282 
16 1 8.3431 8.87538 0.668048 
19 1 10.461 8.86403 5.55824 
29 1 10.9544 10.1175 3.34683 
32 1 8.61971 7.64407 1.27078 
35 1 12.0929 9.6548 2.63508 
45 1 9.22921 8.92441 3.2618 
47 1 12.694 8.85458 0.547552 
49 1 11.3713 10.8886 0.651043 
51 1 8.85979 10.1543 2.59804 
53 1 11.3255 7.59981 8.95312 
54 1 10.4932 8.82941 8.2356 
56 1 9.00399 11.2443 11.9241 
57 1 8.34192 10.1169 11.0258 
58 1 11.3772 10.8819 11.6838 
60 1 12.2668 8.08015 9.57221 
61 1 10.4611 8.86457 6.77612 
73 1 9.22879 8.92467 9.07425 
75 1 12.7597 8.8477 11.7676 
76 1 12.3298 10.102 10.9833 
79 1 9.17096 7.65251 9.79209 
80 1 8.32926 12.4885 12.3029 
89 1 10.9544 10.1189 8.98939 
93 1 8.34201 8.87645 11.6684 
95 1 10.0411 11.0249 9.68906 
105 1 10.2851 11.4187 11.0144 
109 1 8.62057 7.64752 11.0645 
110 1 12.0912 9.6544 9.70219 
114 1 8.85967 10.1543 9.73677 
119 1 8.34116 10.1167 1.30937 
120 1 12.2698 8.08354 2.75719 
123 1 12.3231 10.1051 1.35047 
124 1 9.17154 7.65168 2.54399 
128 1 10.0413 11.0248 2.64658 
6 1 5.05867 8.26354 13.5515 
13 1 9.57587 10.3068 25.0447 
17 1 9.18332 8.96545 25.1273 
30 1 9.91784 7.70192 25.0508 
34 1 11.2583 7.50283 25.1217 
36 1 8.32827 12.4872 25.7809 
46 1 11.6849 8.82029 25.1201 
50 1 10.9456 10.1002 25.15 
55 1 9.58228 10.3054 13.0348 
59 1 10.9523 10.0914 12.9281 
74 1 11.6985 8.82085 12.9354 
78 1 11.2666 7.51293 12.9514 
90 1 9.92649 7.70711 13.0255 
94 1 9.18515 8.96599 12.9556 
101 1 5.07796 8.25627 24.5411 
33 1 11.6951 6.67145 0.703105 
77 1 11.6951 6.67129 11.6256 
41 1 17.8308 6.23866 13.5034 
68 1 17.8195 6.24381 24.558 
103 1 19.1491 6.11113 22.563 
126 1 19.1316 6.11295 15.5165 
3 1 19.6284 6.82363 12.1652 
7 1 20.0156 8.16779 12.2489 
10 1 14.9569 8.41551 13.0526 
22 1 19.2907 9.44074 12.1952 
26 1 17.9515 9.64229 12.2208 
38 1 17.5244 8.31403 12.1986 
42 1 18.2619 7.02848 12.2522 
44 1 20.1907 11.8336 12.8284 
48 1 12.5283 7.62889 1.40272 
65 1 19.6158 6.82559 0.162711 
69 1 18.2462 7.0318 0.0571484 
82 1 17.5059 8.31221 0.0882616 
86 1 17.9343 9.63014 0.0843299 
96 1 14.0268 8.72227 12.3049 
98 1 19.2725 9.43035 0.160664 
102 1 20.0075 8.16807 0.0819252 
113 1 12.5384 7.62309 10.9229 
1 1 18.0713 9.55756 16.3014 
2 1 18.7243 8.28381 16.9466 
8 1 18.8462 10.4271 15.5219 
9 1 18.7304 8.26101 18.4169 
20 1 14.0523 8.69137 25.7162 
21 1 18.2393 7.01673 16.2481 
23 1 19.8505 10.542 13.2642 
24 1 20.5235 9.48967 14.1422 
25 1 17.5215 10.4798 13.5371 
27 1 17.1011 7.51571 15.5076 
37 1 19.9808 8.17 16.1859 
39 1 16.5544 8.26755 13.372 
40 1 16.7124 9.47916 14.2544 
63 1 17.8647 9.52506 21.8319 
64 1 18.7002 8.29979 21.1128 
70 1 16.9211 9.04819 22.4521 
71 1 18.7252 8.26922 19.6322 
72 1 20.1842 11.8322 25.2555 
81 1 19.9624 8.21075 21.9453 
83 1 16.4962 8.27769 24.6629 
84 1 16.867 7.02597 23.859 
85 1 17.4969 10.4624 24.5037 
87 1 20.0193 9.48172 22.667 
97 1 18.2342 7.01636 21.8587 
99 1 19.8315 10.5521 24.8127 
100 1 18.4362 10.8779 23.8472 
104 1 15.1375 8.44086 25.2394 
108 1 18.829 10.3183 22.5632 
111 1 20.5713 9.48794 23.9401 
112 1 17.0953 7.47811 22.5749 
115 1 16.6634 9.50251 23.8067 
118 1 16.9583 8.99941 15.5535 
121 1 16.892 7.04195 14.1889 
122 1 19.9918 9.49885 15.474 
125 1 18.4297 10.9289 14.2244 
129 2 14.8348 8.45521 14.1493 
130 2 14.0264 8.1205 15.2455 
131 3 14.7751 8.04577 15.8452 
ITEM: TIMESTEP
60
ITEM: NUMBER OF ATOMS
131
ITEM: BOX BOUNDS xy xz yz pp pp pp
0.0000000000000000e+00 2.3654499999999999e+01 7.8845000000000001e+00
0.0000000000000000e+00 1.3658086643083999e+01 0.0000000000000000e+00
0.0000000000000000e+00 2.5747000000000000e+01 0.0000000000000000e+00
ITEM: ATOMS id type x y z 
18 1 10.3494 6.82796 2.64491 
28 1 5.1024 4.6613 12.9161 
31 1 9.33897 6.58361 0.389217 
62 1 8.94949 5.31203 12.3915 
91 1 9.34244 6.58676 11.951 
92 1 10.7249 6.27731 10.9818 
106 1 10.3465 6.82406 9.68704 
127 1 10.7316 6.28257 1.35308 
4 1 4.42375 5.90035 13.2807 
5 1 3.13784 5.72364 14.1905 
43 1 4.5721 6.9673 15.4707 
52 1 8.94926 5.3093 25.6957 
66 1 4.41686 5.90195 24.8004 
67 1 5.08477 7.03318 23.9051 
88 1 5.09792 4.6641 25.1697 
107 1 3.13482 5.72735 23.8885 
116 1 4.5678 6.9869 22.6167 
117 1 5.08228 7.03226 14.1813 
11 1 11.3283 7.60473 3.37703 
12 1 10.4934 8.82282 4.09854 
14 1 9.00218 11.2285 0.406003 
15 1 10.2874 11.4078 1.31887 
16 1 8.32539 8.86278 0.656287 
19 1 10.4582 8.85861 5.55807 
29 1 10.9572 10.1126 3.344 
32 1 8.59356 7.63451 1.26727 
35 1 12.1084 9.66791 2.6447 
45 1 9.2253 8.9197 3.25836 
47 1 12.6971 8.87077 0.547675 
49 1 11.3778 10.8775 0.650795 
51 1 8.85336 10.1464 2.59169 
53 1 11.3234 7.60435 8.949 
54 1 10.4934 8.82532 8.23437 
56 1 9.00837 11.2284 11.9296 
57 1 8.33677 10.1009 11.0326 
58 1 11.3854 10.8739 11.6793 
60 1 12.2667 8.09672 9.56432 
61 1 10.4578 8.85907 6.77592 
73 1 9.22493 8.92169 9.07555 
75 1 12.7714 8.86623 11.7626 
76 1 12.3505 10.1117 10.973 
79 1 9.14692 7.65216 9.79446 
80 1 8.32635 12.4659 12.2962 
89 1 10.9543 10.1113 8.99077 
93 1 8.32432 8.86461 11.6815 
95 1 10.0408 11.0151 9.69515 
105 1 10.2893 11.4025 11.0186 
109 1 8.59197 7.63627 11.0684 
110 1 12.1063 9.66849 9.68721 
114 1 8.85172 10.1473 9.74402 
119 1 8.33744 10.0984 1.3034 
120 1 12.2697 8.09997 2.7639 
123 1 12.3414 10.1178 1.35703 
124 1 9.14952 7.6513 2.54118 
128 1 10.039 11.0122 2.64252 
6 1 5.0739 8.27539 13.5412 
13 1 9.56964 10.2982 25.0361 
17 1 9.17685 8.9585 25.1199 
30 1 9.91391 7.69975 25.0402 
34 1 11.2555 7.5011 25.1181 
36 1 8.32293 12.4682 25.7867 
46 1 11.683 8.8179 25.1217 
50 1 10.9398 10.0933 25.1473 
55 1 9.57707 10.2976 13.044 
59 1 10.9497 10.0781 12.9315 
74 1 11.7001 8.82096 12.9238 
78 1 11.2688 7.51547 12.9513 
90 1 9.92092 7.70491 13.0379 
94 1 9.18533 8.96095 12.9624 
101 1 5.09763 8.26941 24.5531 
33 1 11.68 6.69288 0.712353 
77 1 11.6873 6.69654 11.6164 
41 1 17.8272 6.25019 13.4981 
68 1 17.8119 6.25236 24.5547 
103 1 19.1483 6.12154 22.5669 
126 1 19.1393 6.12059 15.5133 
3 1 19.6349 6.83302 12.1533 
7 1 20.0294 8.17402 12.2427 
10 1 14.9365 8.40382 13.0755 
22 1 19.2975 9.44512 12.1866 
26 1 17.9549 9.64662 12.2148 
38 1 17.5283 8.31952 12.1973 
42 1 18.2675 7.03624 12.2471 
44 1 20.2407 11.8116 12.8317 
48 1 12.5185 7.65006 1.40691 
65 1 19.622 6.83205 0.17226 
69 1 18.2533 7.04414 0.0625773 
82 1 17.507 8.31245 0.0847717 
86 1 17.9351 9.63046 0.0918676 
96 1 14.0363 8.73133 12.3045 
98 1 19.2792 9.43472 0.169331 
102 1 20.0114 8.17243 0.0911478 
113 1 12.5333 7.64322 10.9144 
1 1 18.0816 9.55868 16.2843 
2 1 18.7333 8.28834 16.9453 
8 1 18.8642 10.4287 15.5184 
9 1 18.7361 8.26459 18.4166 
20 1 14.0616 8.69532 25.7132 
21 1 18.2464 7.02233 16.2442 
23 1 19.8618 10.5351 13.2593 
24 1 20.5431 9.49986 14.146 
25 1 17.5494 10.4627 13.5514 
27 1 17.0905 7.49826 15.5156 
37 1 19.9901 8.17313 16.1877 
39 1 16.5424 8.25846 13.3651 
40 1 16.7232 9.46177 14.2512 
63 1 17.8675 9.51798 21.8292 
64 1 18.6962 8.30664 21.1109 
70 1 16.9225 9.03186 22.445 
71 1 18.7281 8.27327 19.6311 
72 1 20.2404 11.8204 25.2586 
81 1 19.9618 8.21224 21.9435 
83 1 16.4951 8.25904 24.6618 
84 1 16.8495 7.01687 23.8525 
85 1 17.5014 10.4375 24.5017 
87 1 20.0418 9.48421 22.6688 
97 1 18.2362 7.02732 21.8605 
99 1 19.851 10.5492 24.8211 
100 1 18.4665 10.8556 23.851 
104 1 15.1288 8.4371 25.2426 
108 1 18.8416 10.3033 22.5614 
111 1 20.5973 9.50077 23.9437 
112 1 17.0792 7.4618 22.5651 
115 1 16.6724 9.4822 23.8008 
118 1 16.9743 8.98129 15.5466 
121 1 16.8797 7.03812 14.19 
122 1 20.0032 9.50211 15.4775 
125 1 18.4541 10.8984 14.203 
129 2 14.7946 8.44384 14.172 
130 2 14.0065 8.11483 15.2691 
131 3 14.7493 8.03797 15.8738 
ITEM: TIMESTEP
70
ITEM: NUMBER OF ATOMS
131
ITEM: BOX BOUNDS xy xz yz pp pp pp
0.0000000000000000e+00 2.3654499999999999e+01 7.8845000000000001e+00
0.0000000000000000e+00 1.3658086643083999e+01 0.0000000000000000e+00
0.0000000000000000e+00 2.5747000000000000e+01 0.0000000000000000e+00
ITEM: ATOMS id type x y z 
18 1 10.3114 6.87244 2.64173 
28 1 5.12088 4.72134 12.9373 
31 1 9.27834 6.59646 0.365085 
62 1 8.77791 5.34886 12.4063 
91 1 9.28342 6.59954 11.9731 
92 1 10.6508 6.3593 11.0035 
106 1 10.3066 6.86978 9.6917 
127 1 10.6576 6.35592 1.33325 
4 1 4.42032 5.95149 13.2644 
5 1 3.13019 5.77421 14.1766 
43 1 4.60372 6.98399 15.4608 
52 1 8.77427 5.3434 25.6843 
66 1 4.41947 5.95247 24.814 
67 1 5.09511 7.0906 23.924 
88 1 5.11602 4.72082 25.1515 
107 1 3.12464 5.77763 23.8987 
116 1 4.58676 7.01321 22.6318 
117 1 5.09286 7.08081 14.1681 
11 1 11.3245 7.62001 3.376 