ITEM: TIMESTEP
0
ITEM: NUMBER OF ATOMS
163
ITEM: BOX BOUNDS xy xz yz pp pp pp
-6.7755000000000001e+00 1.3552000000000000e+01 -6.7755000000000001e+00
0.0000000000000000e+00 1.1735510246683001e+01 0.0000000000000000e+00
0.0000000000000000e+00 2.2149999999999999e+01 0.0000000000000000e+00
ITEM: ATOMS id type x y z 
8 1 -2.486 5.297 9.849 
87 1 3.001 4.231 10.696 
90 1 2.733 5.481 9.824 
109 1 -2.486 5.297 0.765 
158 1 2.733 5.481 0.79 
11 1 4.24 4.139 20.131 
14 1 3.031 4.094 19.728 
18 1 1.299 5.827 18.554 
33 1 2.266 4.151 20.924 
43 1 4.343 3.96 21.647 
47 1 3.32 5.732 17.88 
52 1 4.24 4.139 12.633 
76 1 2.552 4.924 14.209 
85 1 4.343 3.96 11.117 
89 1 3.32 5.732 14.883 
91 1 1.036 5.037 11.84 
102 1 3.031 4.094 13.035 
105 1 1.299 5.827 14.209 
114 1 2.266 4.151 11.84 
150 1 2.552 4.924 18.554 
156 1 3.001 4.231 22.068 
159 1 1.036 5.037 20.924 
5 1 -5.049 10.63 8.653 
9 1 -3.317 8.897 7.479 
19 1 -1.707 7.414 10.572 
21 1 -2.66 8.795 10.993 
23 1 -3.31 7.532 6.805 
25 1 -4.284 10.573 9.849 
32 1 1.503 6.367 0.79 
36 1 -1.869 7.426 9.056 
38 1 -2.209 6.086 8.653 
54 1 0.3 8.576 10.696 
57 1 1.291 8.001 9.824 
60 1 -1.707 7.414 0.042 
65 1 -3.31 7.532 3.808 
78 1 -1.869 7.426 1.558 
80 1 -2.566 8.842 1.961 
84 1 -4.57 9.799 3.135 
99 1 -3.054 9.687 0.765 
100 1 -2.96 6.142 3.135 
107 1 -5.049 10.63 1.961 
110 1 -3.317 8.897 3.135 
111 1 0.642 5.929 10.696 
113 1 1.503 6.367 9.824 
119 1 -4.284 10.573 0.765 
127 1 -2.209 6.086 1.961 
131 1 -2.318 6.148 10.993 
138 1 1.291 8.001 0.79 
142 1 -2.566 8.842 8.653 
145 1 -4.57 9.799 7.479 
151 1 -5.019 10.493 10.993 
154 1 -3.054 9.687 9.849 
155 1 -2.96 6.142 7.479 
12 1 2.53 7.1 17.202 
17 1 0.468 9.427 20.924 
24 1 -3.52 8.357 11.865 
27 1 -0.31 7.31 21.647 
29 1 0.642 5.929 22.068 
31 1 1.292 7.192 17.88 
44 1 -0.148 7.298 20.131 
46 1 0.191 8.638 19.728 
51 1 -0.31 7.31 11.117 
53 1 2.53 7.1 15.561 
56 1 1.292 7.192 14.883 
63 1 -2.318 6.148 21.771 
66 1 -3.309 6.723 20.899 
70 1 -0.148 7.298 12.633 
72 1 0.548 5.882 13.035 
92 1 0.942 8.582 14.209 
95 1 -5.019 10.493 21.771 
98 1 -4.751 9.243 20.899 
104 1 0.468 9.427 11.84 
116 1 -2.66 8.795 21.771 
118 1 -3.52 8.357 20.899 
122 1 0.191 8.638 13.035 
133 1 -3.309 6.723 11.865 
136 1 0.3 8.576 22.068 
147 1 0.548 5.882 19.728 
153 1 -4.751 9.243 11.865 
160 1 0.942 8.582 18.554 
1 1 7.976 4.694 10.572 
4 1 9.274 4.77 10.993 
20 1 8.034 4.861 9.056 
42 1 9.55 5.41 7.479 
67 1 10.043 4.578 0.765 
77 1 7.976 4.694 0.042 
94 1 8.035 4.861 1.558 
96 1 9.278 4.635 1.961 
121 1 4.688 5.417 10.696 
130 1 9.55 5.41 3.135 
134 1 10.043 4.578 9.849 
152 1 9.278 4.635 8.653 
45 1 4.688 5.417 22.068 
55 1 4.788 5.329 13.035 
106 1 9.274 4.77 21.771 
137 1 4.788 5.329 19.728 
161 2 6.056 4.853 13.198 
162 2 6.93 3.653 12.984 
163 3 7.709 4.211 13.157 
2 1 7.294 10.585 9.056 
3 1 9.004 7.624 6.127 
6 1 8.556 6.347 6.805 
16 1 2.314 8.72 0.79 
22 1 7.166 6.156 8.653 
26 1 7.226 8.565 7.479 
35 1 7.191 10.764 10.572 
37 1 6.846 9.307 10.993 
39 1 8.214 8.992 6.805 
41 1 6.677 7.002 9.849 
48 1 3.775 6.213 0.79 
61 1 7.294 10.585 1.558 
62 1 9.004 7.624 4.487 
64 1 6.747 9.395 1.961 
68 1 7.437 6.931 3.135 
71 1 4.29 8.493 10.696 
74 1 3.567 7.818 9.824 
81 1 8.556 6.347 3.808 
83 1 6.47 8.606 0.765 
93 1 7.191 10.764 0.042 
97 1 8.214 8.992 3.808 
101 1 2.261 9.954 10.696 
103 1 2.314 8.72 9.824 
117 1 7.166 6.156 1.961 
120 1 7.226 8.565 3.135 
123 1 3.775 6.213 9.824 
129 1 6.677 7.002 0.765 
132 1 6.747 9.395 8.653 
135 1 7.437 6.931 7.479 
141 1 7.244 6.231 10.993 
144 1 6.47 8.606 9.849 
148 1 3.567 7.818 0.79 
7 1 9.22 6.004 11.865 
10 1 3.558 10.029 21.647 
13 1 2.261 9.954 22.068 
15 1 2.978 8.376 17.88 
28 1 3.5 9.862 20.131 
30 1 4.369 8.568 19.728 
34 1 4.308 6.159 18.554 
40 1 7.76 8.511 11.865 
49 1 4.857 7.722 20.924 
50 1 1.984 9.314 18.554 
58 1 1.491 10.146 11.84 
59 1 4.097 7.793 14.209 
69 1 3.558 10.029 11.117 
73 1 2.978 8.376 14.883 
75 1 5.064 6.118 11.84 
79 1 7.244 6.231 21.771 
82 1 7.967 6.906 20.899 
86 1 3.5 9.862 12.633 
88 1 2.256 10.089 13.035 
108 1 9.22 6.004 20.899 
112 1 4.369 8.568 13.035 
115 1 4.308 6.159 14.209 
124 1 4.857 7.722 11.84 
125 1 1.984 9.314 14.209 
126 1 6.846 9.307 21.771 
128 1 7.76 8.511 20.899 
139 1 1.491 10.146 20.924 
140 1 4.097 7.793 18.554 
143 1 7.967 6.906 11.865 
146 1 4.29 8.493 22.068 
149 1 5.064 6.118 20.924 
157 1 2.256 10.089 19.728 
ITEM: TIMESTEP
10
ITEM: NUMBER OF ATOMS
163
ITEM: BOX BOUNDS xy xz yz pp pp pp
-6.7755000000000001e+00 1.3552000000000000e+01 -6.7755000000000001e+00
0.0000000000000000e+00 1.1735510246683001e+01 0.0000000000000000e+00
0.0000000000000000e+00 2.2149999999999999e+01 0.0000000000000000e+00
ITEM: ATOMS id type x y z 
8 1 -2.41025 5.35145 9.84226 
87 1 2.96837 4.25362 10.6382 
90 1 2.66811 5.47346 9.78628 
109 1 -2.41214 5.3532 0.773312 
158 1 2.65862 5.47378 0.835995 
11 1 4.2944 4.175 20.136 
14 1 2.91863 4.13236 19.6931 
18 1 1.32854 5.86472 18.5859 
33 1 2.14552 4.22708 20.8971 
43 1 4.32847 4.11733 21.5836 
47 1 3.26773 5.79252 17.8449 
52 1 4.23824 4.11261 12.582 
76 1 2.45081 4.93663 14.1828 
85 1 4.3174 4.09621 11.1637 
89 1 3.26595 5.80238 14.9466 
91 1 0.999329 5.06618 11.8579 
102 1 2.91686 4.11535 13.0769 
105 1 1.33039 5.84995 14.1654 
114 1 2.14863 4.22807 11.8496 
150 1 2.43761 4.92926 18.5821 
156 1 2.99061 4.26183 22.1192 
159 1 1.0019 5.06728 20.9094 
5 1 -4.93957 10.6036 8.61755 
9 1 -3.34584 8.86411 7.52575 
19 1 -1.72986 7.47762 10.5509 
21 1 -2.58277 8.7749 10.8472 
23 1 -3.31242 7.54859 6.85035 
25 1 -4.16657 10.5024 9.81898 
32 1 1.57173 6.35503 0.778585 
36 1 -1.89172 7.51334 9.05506 
38 1 -2.16033 6.19028 8.63981 
54 1 0.304159 8.51836 10.6711 
57 1 1.2905 7.94936 9.79396 
60 1 -1.75226 7.51505 0.061398 
65 1 -3.31521 7.53189 3.77002 
78 1 -1.91039 7.52767 1.55071 
80 1 -2.55943 8.78598 1.88738 
84 1 -4.4656 9.80293 3.10723 
99 1 -3.00922 9.63716 0.783349 
100 1 -2.92621 6.25256 3.17611 
107 1 -4.93134 10.5964 1.99294 
110 1 -3.33427 8.87375 3.09805 
111 1 0.587667 5.9556 10.8134 
113 1 1.55878 6.34982 9.83095 
119 1 -4.15001 10.48 0.802736 
127 1 -2.15893 6.20261 1.96736 
131 1 -2.31844 6.20907 11.0221 
138 1 1.29443 7.94811 0.818963 
142 1 -2.57606 8.79277 8.77739 
145 1 -4.44935 9.79788 7.50328 
151 1 -5.02453 10.4604 11.0498 
154 1 -3.01618 9.67655 9.80283 
155 1 -2.9261 6.25033 7.4374 
12 1 2.56311 7.05788 17.1083 
17 1 0.393616 9.36895 20.9203 
24 1 -3.60226 8.36602 11.8792 
27 1 -0.271766 7.23355 21.6276 
29 1 0.59265 5.95785 21.9376 
31 1 1.30424 7.17673 17.9281 
44 1 -0.11693 7.21728 20.1475 
46 1 0.140102 8.52523 19.7189 
51 1 -0.276391 7.23393 11.1371 
53 1 2.56612 7.0894 15.6136 
56 1 1.32094 7.18993 14.8689 
63 1 -2.31745 6.21061 21.7438 
66 1 -3.31163 6.76009 20.8665 
70 1 -0.115722 7.20845 12.6233 
72 1 0.534185 5.92645 12.9281 
92 1 0.904115 8.48626 14.2477 
95 1 -5.01935 10.4552 21.7123 
98 1 -4.68448 9.26021 20.8455 
104 1 0.395754 9.36918 11.8419 
116 1 -2.61132 8.7589 21.8644 
118 1 -3.5723 8.37819 20.9002 
122 1 0.135376 8.52608 13.0419 
133 1 -3.31644 6.76387 11.9002 
136 1 0.302944 8.51275 22.0937 
147 1 0.538809 5.92901 19.8368 
153 1 -4.68618 9.25118 11.9244 
160 1 0.91173 8.46716 18.5112 
1 1 7.87716 4.93666 10.5223 
4 1 9.18504 4.76866 11.0671 
20 1 7.88064 4.93686 9.07618 
42 1 9.47575 5.42005 7.43246 
67 1 10.0026 4.54656 0.767517 
77 1 7.88003 4.93907 0.0919541 
94 1 7.87995 4.94345 1.53741 
96 1 9.21567 4.63636 1.99982 
121 1 4.69635 5.42177 10.729 
130 1 9.48065 5.42164 3.17708 
134 1 10.005 4.54367 9.84353 
152 1 9.21426 4.63566 8.61542 
45 1 4.66622 5.41378 22.0361 
55 1 4.95907 5.40788 13.1126 
106 1 9.18445 4.76923 21.6995 
137 1 4.81145 5.4802 19.7115 
161 2 5.9947 4.89913 13.2157 
162 2 6.94404 3.64064 12.9854 
163 3 7.69525 4.2124 13.1576 
2 1 7.23936 10.5478 9.06598 
3 1 8.96654 7.66239 6.05884 
6 1 8.53351 6.39833 6.82687 
16 1 2.39903 8.72629 0.819449 
22 1 7.15434 6.197 8.72119 
26 1 7.18107 8.43427 7.54764 
35 1 7.19973 10.613 10.4997 
37 1 6.87364 9.32341 10.9656 
39 1 8.27191 8.92829 6.77178 
41 1 6.74187 7.02138 9.83884 
48 1 3.7322 6.36081 0.835296 
61 1 7.2421 10.5489 1.54857 
62 1 8.96987 7.6701 4.55318 
64 1 6.71432 9.24805 1.9857 
68 1 7.40118 6.96853 3.05203 
71 1 4.28511 8.57257 10.7721 
74 1 3.61089 7.81069 9.83775 
81 1 8.5286 6.39051 3.78827 
83 1 6.54336 8.45652 0.790779 
93 1 7.19474 10.6183 0.117225 
97 1 8.26901 8.93036 3.84392 
101 1 2.35307 9.95521 10.6241 
103 1 2.39575 8.72308 9.7876 
117 1 7.15971 6.19561 1.89532 
120 1 7.1749 8.43047 3.0675 
123 1 3.74299 6.36085 9.78213 
129 1 6.73842 7.01832 0.780044 
132 1 6.71682 9.24457 8.63067 
135 1 7.40396 6.97139 7.55762 
141 1 7.25793 6.17232 10.8898 
144 1 6.54609 8.45208 9.82345 
148 1 3.61512 7.80822 0.770402 
7 1 9.13847 6.00511 11.8984 
10 1 3.64944 9.79161 21.5977 
13 1 2.35871 9.94075 22.1361 
15 1 3.00195 8.32948 17.9084 
28 1 3.65143 9.77636 20.151 
30 1 4.37297 8.5267 19.8014 
34 1 4.35445 6.29098 18.6288 
40 1 7.8033 8.36039 11.9175 
49 1 4.7899 7.70584 20.9096 
50 1 2.05798 9.29625 18.5081 
58 1 1.53002 10.1776 11.8438 
59 1 4.13013 7.75806 14.1399 
69 1 3.64727 9.78913 11.162 
73 1 2.97315 8.30068 14.8782 
75 1 4.98285 6.28733 11.8196 
79 1 7.24775 6.16661 21.8655 
82 1 7.91808 6.90037 20.9149 
86 1 3.65643 9.78432 12.6178 
88 1 2.31372 10.0872 13.0783 
108 1 9.13467 6.00296 20.8647 
112 1 4.3724 8.53707 12.9771 
115 1 4.33532 6.30785 14.1646 
124 1 4.80656 7.71464 11.8479 
125 1 2.06398 9.30313 14.2528 
126 1 6.87482 9.33276 21.7969 
128 1 7.79882 8.36029 20.84 
139 1 1.53159 10.1795 20.9277 
140 1 4.12933 7.75643 18.6389 
143 1 7.91608 6.9156 11.8483 
146 1 4.2879 8.54782 21.9662 
149 1 4.98898 6.27271 20.8975 
157 1 2.32432 10.0857 19.6895 
ITEM: TIMESTEP
20
ITEM: NUMBER OF ATOMS
163
ITEM: BOX BOUNDS xy xz yz pp pp pp
-6.7755000000000001e+00 1.3552000000000000e+01 -6.7755000000000001e+00
0.0000000000000000e+00 1.1735510246683001e+01 0.0000000000000000e+00
0.0000000000000000e+00 2.2149999999999999e+01 0.0000000000000000e+00
ITEM: ATOMS id type x y z 
8 1 -2.42498 5.37924 9.84681 
87 1 2.96747 4.26165 10.6345 
90 1 2.66474 5.47787 9.78217 
109 1 -2.42315 5.38583 0.77342 
158 1 2.65892 5.47161 0.829366 
11 1 4.2877 4.19559 20.1243 
14 1 2.91234 4.14113 19.6915 
18 1 1.31371 5.86137 18.5969 
33 1 2.13901 4.2222 20.9081 
43 1 4.31005 4.15744 21.5772 
47 1 3.26187 5.80589 17.8381 
52 1 4.24285 4.14543 12.5948 
76 1 2.44117 4.95072 14.175 
85 1 4.30423 4.14261 11.1786 
89 1 3.26541 5.80902 14.9493 
91 1 0.986495 5.05427 11.852 
102 1 2.90228 4.13157 13.0772 
105 1 1.33089 5.86169 14.1645 
114 1 2.13569 4.22564 11.8481 
150 1 2.4428 4.93852 18.5828 
156 1 2.97333 4.26883 22.1183 
159 1 0.987258 5.05814 20.9117 
5 1 -4.92981 10.5832 8.61747 
9 1 -3.33483 8.86481 7.51706 
19 1 -1.73281 7.50582 10.5365 
21 1 -2.61503 8.77107 10.8765 
23 1 -3.30534 7.54838 6.84285 
25 1 -4.16057 10.4982 9.83166 
32 1 1.58446 6.38091 0.765197 
36 1 -1.87549 7.51913 9.06922 
38 1 -2.15846 6.20128 8.63988 
54 1 0.311384 8.50834 10.6655 
57 1 1.30134 7.92317 9.79789 
60 1 -1.75009 7.53242 0.0658639 
65 1 -3.30624 7.53514 3.77994 
78 1 -1.89555 7.54672 1.5542 
80 1 -2.55332 8.79173 1.88896 
84 1 -4.47194 9.80031 3.10217 
99 1 -2.99336 9.61608 0.78023 
100 1 -2.93247 6.26524 3.16941 
107 1 -4.91895 10.5822 1.99207 
110 1 -3.32574 8.87587 3.1053 
111 1 0.594398 5.95544 10.8168 
113 1 1.5824 6.37814 9.84526 
119 1 -4.14101 10.4639 0.780921 
127 1 -2.16467 6.2122 1.96668 
131 1 -2.33064 6.21765 11.0261 
138 1 1.30342 7.92083 0.816785 
142 1 -2.55069 8.78632 8.76813 
145 1 -4.46142 9.79552 7.51451 
151 1 -4.99594 10.4512 11.0417 
154 1 -3.00632 9.66953 9.84322 
155 1 -2.9408 6.26524 7.43779 
12 1 2.56445 7.07366 17.1007 
17 1 0.406868 9.34405 20.9213 
24 1 -3.59822 8.34614 11.8423 
27 1 -0.288647 7.22127 21.6187 
29 1 0.597949 5.9558 21.9465 
31 1 1.29648 7.17129 17.9167 
44 1 -0.140365 7.20224 20.1438 
46 1 0.143939 8.52257 19.715 
51 1 -0.285541 7.22041 11.15 
53 1 2.54749 7.08597 15.6077 
56 1 1.30132 7.17471 14.8714 
63 1 -2.32714 6.22642 21.7437 
66 1 -3.31526 6.77912 20.8723 
70 1 -0.136708 7.19451 12.622 
72 1 0.531639 5.93233 12.9163 
92 1 0.915882 8.47299 14.2454 
95 1 -4.98437 10.4492 21.7304 
98 1 -4.69393 9.25911 20.8512 
104 1 0.407871 9.34467 11.8405 
116 1 -2.62148 8.76887 21.8348 
118 1 -3.59214 8.35619 20.9064 
122 1 0.141372 8.52161 13.0479 
133 1 -3.32063 6.80057 11.8889 
136 1 0.311385 8.5062 22.0992 
147 1 0.530338 5.93364 19.8486 
153 1 -4.68188 9.25165 11.9118 
160 1 0.920318 8.45354 18.5149 
1 1 7.85243 4.9294 10.5193 
4 1 9.16926 4.79256 11.05 
20 1 7.86465 4.94055 9.06115 
42 1 9.46174 5.44096 7.4428 
67 1 9.97924 4.56696 0.76607 
77 1 7.85855 4.93454 0.0928786 
94 1 7.86534 4.94227 1.54948 
96 1 9.19973 4.66369 1.98967 
121 1 4.6655 5.47499 10.7268 
130 1 9.46003 5.4402 3.1734 
134 1 9.98418 4.56401 9.84169 
152 1 9.20068 4.66559 8.6201 
45 1 4.66125 5.46726 22.0604 
55 1 4.96704 5.42801 13.1 
106 1 9.16599 4.79693 21.7205 
137 1 4.81231 5.49572 19.7004 
161 2 5.98897 4.91661 13.2272 
162 2 6.94683 3.63561 12.9857 
163 3 7.69562 4.21233 13.1588 
2 1 7.2465 10.5233 9.04246 
3 1 8.97099 7.65296 6.07362 
6 1 8.52494 6.39148 6.82333 
16 1 2.42557 8.72448 0.820363 
22 1 7.13723 6.19673 8.71918 
26 1 7.19063 8.43028 7.55118 
35 1 7.21951 10.5685 10.4981 
37 1 6.87516 9.2625 10.9812 
39 1 8.27146 8.92621 6.76188 
41 1 6.73391 7.00678 9.83388 
48 1 3.69364 6.35557 0.818064 
61 1 7.24608 10.5226 1.57132 
62 1 8.96872 7.64848 4.54165 
64 1 6.7212 9.225 1.98658 
68 1 7.39981 6.96534 3.05679 
71 1 4.30609 8.55554 10.7716 
74 1 3.59597 7.8191 9.81753 
81 1 8.52378 6.39367 3.78815 
83 1 6.55442 8.44561 0.784547 
93 1 7.21621 10.578 0.113127 
97 1 8.27545 8.92792 3.8475 
101 1 2.36558 9.9269 10.6424 
103 1 2.42047 8.72866 9.79261 
117 1 7.13883 6.20046 1.8907 
120 1 7.18795 8.4281 3.06253 
123 1 3.69388 6.36559 9.79475 
129 1 6.73517 7.00831 0.779192 
132 1 6.72394 9.22678 8.62775 
135 1 7.39886 6.96729 7.55798 
141 1 7.23773 6.18809 10.9036 
144 1 6.5534 8.44928 9.82854 
148 1 3.59728 7.81321 0.796295 
7 1 9.10833 6.007 11.8971 
10 1 3.68109 9.79389 21.5963 
13 1 2.36998 9.92276 22.1202 
15 1 3.01009 8.32186 17.9018 
28 1 3.67238 9.78213 20.1397 
30 1 4.3911 8.52833 19.7919 
34 1 4.33803 6.29734 18.6219 
40 1 7.84301 8.36224 11.8989 
49 1 4.80556 7.71886 20.9077 
50 1 2.07473 9.27859 18.5108 
58 1 1.55502 10.1579 11.8411 
59 1 4.13643 7.74206 14.128 
69 1 3.67476 9.78885 11.1678 
73 1 3.01295 8.32553 14.8917 
75 1 4.96961 6.29215 11.8303 
79 1 7.22785 6.18652 21.8615 
82 1 7.93762 6.90948 20.8939 
86 1 3.66929 9.7777 12.6287 
88 1 2.33163 10.0559 13.0767 
108 1 9.10846 5.99646 20.868 
112 1 4.39483 8.52634 12.9784 
115 1 4.32813 6.32808 14.1615 
124 1 4.8073 7.7043 11.8465 
125 1 2.0606 9.27765 14.2371 
126 1 6.87415 9.26164 21.7858 
128 1 7.84108 8.36055 20.8628 
139 1 1.55248 10.159 20.9253 
140 1 4.13026 7.75887 18.6333 
143 1 7.94026 6.91146 11.8695 
146 1 4.30366 8.54314 21.9807 
149 1 4.98727 6.27883 20.9036 
157 1 2.33335 10.0618 19.6976 
ITEM: TIMESTEP
30
ITEM: NUMBER OF ATOMS
163
ITEM: BOX BOUNDS xy xz yz pp pp pp
-6.7755000000000001e+00 1.3552000000000000e+01 -6.7755000000000001e+00
0.0000000000000000e+00 1.1735510246683001e+01 0.0000000000000000e+00
0.0000000000000000e+00 2.2149999999999999e+01 0.0000000000000000e+00
ITEM: ATOMS id type x y z 
8 1 -2.43629 5.40867 9.85172 
87 1 2.96116 4.27805 10.6276 
90 1 2.63652 5.47294 9.77882 
109 1 -2.43748 5.41733 0.770495 
158 1 2.63672 5.46581 0.826117 
11 1 4.28137 4.2242 20.1196 
14 1 2.89799 4.15292 19.6963 
18 1 1.3037 5.86482 18.6017 
33 1 2.11962 4.21935 20.9058 
43 1 4.29223 4.21467 21.5645 
47 1 3.24395 5.81592 17.825 
52 1 4.23553 4.17633 12.6069 
76 1 2.43345 4.95534 14.1743 
85 1 4.2861 4.19172 11.2021 
89 1 3.25745 5.82043 14.9524 
91 1 0.966348 5.04083 11.8476 
102 1 2.89445 4.1442 13.0657 
105 1 1.32618 5.86851 14.162 
114 1 2.11659 4.22101 11.8417 
150 1 2.43679 4.94945 18.583 
156 1 2.96478 4.27718 22.1234 
159 1 0.970404 5.04719 20.9178 
5 1 -4.91623 10.5758 8.62213 
9 1 -3.32601 8.86236 7.52321 
19 1 -1.72021 7.51827 10.5342 
21 1 -2.60805 8.77896 10.8775 
23 1 -3.29851 7.55553 6.8391 
25 1 -4.14107 10.5046 9.83469 
32 1 1.58102 6.39326 0.757397 
36 1 -1.84715 7.5341 9.05691 
38 1 -2.15523 6.21777 8.63632 
54 1 0.314652 8.48387 10.6659 
57 1 1.30697 7.91029 9.78998 
60 1 -1.74496 7.5611 0.0694167 
65 1 -3.29822 7.5415 3.78977 
78 1 -1.8718 7.56665 1.55722 
80 1 -2.53839 8.79719 1.90356 
84 1 -4.46344 9.79286 3.10657 
99 1 -2.97561 9.60355 0.769479 
100 1 -2.93817 6.28146 3.16832 
107 1 -4.90528 10.5703 1.98451 
110 1 -3.31249 8.87732 3.11795 
111 1 0.589997 5.94592 10.8125 
113 1 1.57754 6.39405 9.85368 
119 1 -4.11523 10.4497 0.782617 
127 1 -2.16103 6.23566 1.96772 
131 1 -2.33158 6.24255 11.0212 
138 1 1.31001 7.90949 0.824133 
142 1 -2.53882 8.79054 8.77932 
145 1 -4.4479 9.78252 7.51071 
151 1 -4.98447 10.447 11.0482 
154 1 -2.98738 9.67932 9.84335 
155 1 -2.93999 6.28021 7.44401 
12 1 2.55629 7.08225 17.0914 
17 1 0.421137 9.31455 20.9227 
24 1 -3.59625 8.33458 11.8358 
27 1 -0.304544 7.20834 21.611 
29 1 0.588334 5.94844 21.9493 
31 1 1.28934 7.16239 17.9094 
44 1 -0.172898 7.19151 20.1382 
46 1 0.143481 8.50502 19.7128 
51 1 -0.299739 7.20517 11.1577 
53 1 2.54776 7.09856 15.5976 
56 1 1.29216 7.1744 14.8866 
63 1 -2.33174 6.25329 21.7459 
66 1 -3.32215 6.7901 20.8634 
70 1 -0.167479 7.18323 12.6324 
72 1 0.524127 5.93007 12.9108 
92 1 0.910681 8.45628 14.2463 
95 1 -4.97173 10.4399 21.7284 
98 1 -4.67195 9.2648 20.851 
104 1 0.420445 9.3165 11.8365 
116 1 -2.61124 8.77876 21.8071 
118 1 -3.59784 8.34077 20.9002 
122 1 0.135859 8.50483 13.0465 
133 1 -3.32447 6.81753 11.898 
136 1 0.315304 8.48035 22.0974 
147 1 0.518658 5.93082 19.8532 
153 1 -4.65122 9.2589 11.9044 
160 1 0.928717 8.43194 18.5175 
1 1 7.81006 4.92544 10.5132 
4 1 9.13295 4.81422 11.0322 
20 1 7.83048 4.93943 9.05706 
42 1 9.45013 5.45593 7.44217 
67 1 9.96697 4.59208 0.767365 
77 1 7.81326 4.93196 0.0991077 
94 1 7.83058 4.94017 1.55459 
96 1 9.1752 4.68748 1.98769 
121 1 4.64073 5.52039 10.7045 
130 1 9.44993 5.4554 3.17057 
134 1 9.96443 4.58611 9.84603 
152 1 9.17482 4.68698 8.62489 
45 1 4.64644 5.50762 22.0815 
55 1 4.98217 5.44678 13.1114 
106 1 9.13327 4.81178 21.7355 
137 1 4.81479 5.5186 19.6981 
161 2 5.98801 4.93983 13.2446 
162 2 6.95141 3.6284 12.9863 
163 3 7.69535 4.21189 13.1607 
2 1 7.25076 10.5045 9.04251 
3 1 8.97076 7.65144 6.07724 
6 1 8.51511 6.39495 6.81285 
16 1 2.44291 8.72644 0.829336 
22 1 7.11043 6.18521 8.70618 
26 1 7.2 8.41502 7.53806 
35 1 7.24097 10.5088 10.487 
37 1 6.88296 9.22219 11.001 
39 1 8.28497 8.92172 6.74919 
41 1 6.71073 6.9942 9.83702 
48 1 3.67927 6.35892 0.812642 
61 1 7.25823 10.496 1.56806 
62 1 8.97229 7.64144 4.53796 
64 1 6.71832 9.20771 1.99007 
68 1 7.38423 6.95936 3.06199 
71 1 4.3276 8.54747 10.7593 
74 1 3.60542 7.83954 9.78801 
81 1 8.51155 6.39063 3.80058 
83 1 6.55022 8.42473 0.787266 
93 1 7.23859 10.521 0.127623 
97 1 8.28454 8.92354 3.86023 
101 1 2.40001 9.91143 10.6575 
103 1 2.43413 8.73478 9.78294 
117 1 7.11147 6.18734 1.9051 
120 1 7.1998 8.41694 3.07492 
123 1 3.67608 6.37066 9.79285 
129 1 6.71029 6.99565 0.774707 
132 1 6.71731 9.20431 8.62134 
135 1 7.38591 6.96064 7.55153 
141 1 7.21459 6.1879 10.9203 
144 1 6.54997 8.42279 9.82739 
148 1 3.60515 7.82928 0.820848 
7 1 9.09371 5.99709 11.904 
10 1 3.72475 9.79573 21.5909 
13 1 2.40412 9.90667 22.1055 
15 1 3.02109 8.32151 17.8873 
28 1 3.7041 9.78592 20.1328 
30 1 4.41964 8.53759 19.783 
34 1 4.32991 6.30514 18.6116 
40 1 7.85083 8.36592 11.8957 
49 1 4.82627 7.73276 20.9106 
50 1 2.08835 9.26035 18.5153 
58 1 1.57184 10.1347 11.8433 
59 1 4.13865 7.74056 14.1341 
69 1 3.72035 9.78864 11.1759 
73 1 3.02188 8.32308 14.9136 
75 1 4.96473 6.30976 11.8416 
79 1 7.21315 6.18751 21.8397 
82 1 7.93246 6.89632 20.8668 
86 1 3.70235 9.76821 12.6329 
88 1 2.359 10.0313 13.0723 
108 1 9.09462 5.99202 20.8563 
112 1 4.42917 8.53089 12.9884 
115 1 4.32252 6.33469 14.1648 
124 1 4.81961 7.70804 11.8479 
125 1 2.08368 9.25467 14.2394 
126 1 6.88911 9.2219 21.7649 
128 1 7.8526 8.36312 20.8701 
139 1 1.57059 10.1342 20.9221 
140 1 4.14252 7.7663 18.6269 
143 1 7.93216 6.88948 11.8989 
146 1 4.32162 8.53826 21.9969 
149 1 4.9884 6.30215 20.898 
157 1 2.35913 10.0337 19.6999 
ITEM: TIMESTEP
40
ITEM: NUMBER OF ATOMS
163
ITEM: BOX BOUNDS xy xz yz pp pp pp
-6.7755000000000001e+00 1.3552000000000000e+01 -6.7755000000000001e+00
0.0000000000000000e+00 1.1735510246683001e+01 0.0000000000000000e+00
0.0000000000000000e+00 2.2149999999999999e+01 0.0000000000000000e+00
ITEM: ATOMS id type x y z 
8 1 -2.47447 5.45659 9.84998 
87 1 2.94212 4.31987 10.6244 
90 1 2.58944 5.48931 9.76063 
109 1 -2.4732 5.47956 0.770817 
158 1 2.59108 5.47613 0.830993 
11 1 4.26545 4.28088 20.1045 
14 1 2.87271 4.17983 19.7097 
18 1 1.28644 5.86353 18.6041 
33 1 2.08865 4.21618 20.9081 
43 1 4.25758 4.30364 21.5414 
47 1 3.22347 5.82356 17.8154 
52 1 4.21703 4.23203 12.6235 
76 1 2.41357 4.96511 14.1777 
85 1 4.25592 4.28208 11.2307 
89 1 3.2409 5.81352 14.9503 
91 1 0.91988 5.01869 11.8359 
102 1 2.87026 4.16973 13.0465 
105 1 1.3051 5.87502 14.1545 
114 1 2.08242 4.21047 11.8266 
150 1 2.40803 4.96024 18.5813 
156 1 2.94384 4.30865 22.1271 
159 1 0.928586 5.03244 20.9242 
5 1 -4.89222 10.5546 8.63731 
9 1 -3.30856 8.85702 7.53431 
19 1 -1.71276 7.55848 10.5174 
21 1 -2.57258 8.79746 10.8694 
23 1 -3.29846 7.54924 6.8389 
25 1 -4.1092 10.5197 9.83247 
32 1 1.56331 6.39302 0.760494 
36 1 -1.78966 7.55779 9.03839 
38 1 -2.13693 6.25747 8.64402 
54 1 0.335224 8.43968 10.6668 
57 1 1.32873 7.92378 9.77172 
60 1 -1.75017 7.61999 0.0660463 
65 1 -3.29898 7.53458 3.79895 
78 1 -1.82996 7.60913 1.57674 
80 1 -2.49842 8.81659 1.92313 
84 1 -4.42765 9.78538 3.12126 
99 1 -2.93495 9.58982 0.761941 
100 1 -2.93757 6.29612 3.16022 
107 1 -4.8702 10.537 1.97019 
110 1 -3.28749 8.88155 3.14274 
111 1 0.548758 5.92624 10.8207 
113 1 1.55685 6.40099 9.84878 
119 1 -4.0812 10.434 0.790464 
127 1 -2.14888 6.28385 1.96466 
131 1 -2.35828 6.2864 11.0241 
138 1 1.33383 7.91644 0.837955 
142 1 -2.50879 8.81049 8.77963 
145 1 -4.41987 9.78104 7.51213 
151 1 -4.96832 10.423 11.0555 
154 1 -2.94417 9.70426 9.84706 
155 1 -2.93857 6.28965 7.45037 
12 1 2.55316 7.07456 17.092 
17 1 0.461238 9.26203 20.9199 
24 1 -3.5861 8.33414 11.8327 
27 1 -0.311337 7.16878 21.5993 
29 1 0.542067 5.93346 21.9484 
31 1 1.28342 7.16264 17.8973 
44 1 -0.229935 7.16151 20.1194 
46 1 0.130236 8.46231 19.7157 
51 1 -0.301944 7.16467 11.1739 
53 1 2.54969 7.10664 15.5838 
56 1 1.27977 7.18255 14.8974 
63 1 -2.35795 6.30418 21.7469 
66 1 -3.34911 6.78581 20.8394 
70 1 -0.225403 7.15734 12.6534 
72 1 0.500525 5.91754 12.9175 
92 1 0.900641 8.44867 14.2438 
95 1 -4.94684 10.4087 21.7155 
98 1 -4.62454 9.26222 20.8363 
104 1 0.457617 9.26666 11.8398 
116 1 -2.56733 8.79241 21.7836 
118 1 -3.58866 8.33167 20.8688 
122 1 0.119541 8.46437 13.0427 
133 1 -3.34926 6.80299 11.9166 
136 1 0.33652 8.43307 22.0973 
147 1 0.481918 5.91403 19.8509 
153 1 -4.61037 9.25782 11.9109 
160 1 0.932445 8.41619 18.5264 
1 1 7.72209 4.91923 10.5099 
4 1 9.06049 4.84863 11.0084 
20 1 7.76022 4.93938 9.05468 
42 1 9.43641 5.47722 7.45274 
67 1 9.92907 4.6576 0.773109 
77 1 7.72744 4.91661 0.102227 
94 1 7.76075 4.94216 1.55888 
96 1 9.11806 4.7269 1.98119 
121 1 4.6091 5.58216 10.681 
130 1 9.43628 5.47828 3.15961 
134 1 9.92268 4.65141 9.84296 
152 1 9.11746 4.72562 8.63078 
45 1 4.61227 5.57086 22.0968 
55 1 5.00659 5.4833 13.1286 
106 1 9.06576 4.84448 21.7563 
137 1 4.81265 5.56984 19.6936 
161 2 6.00842 4.98392 13.2881 
162 2 6.96272 3.61187 12.9881 
163 3 7.69396 4.20951 13.1655 
2 1 7.26817 10.4423 9.02969 
3 1 8.96653 7.66562 6.07262 
6 1 8.50399 6.4025 6.80881 
16 1 2.45666 8.72517 0.851268 
22 1 7.03869 6.16582 8.67673 
26 1 7.20648 8.39052 7.51248 
35 1 7.27643 10.4187 10.4706 
37 1 6.92328 9.15289 11.0245 
39 1 8.30596 8.92316 6.74908 
41 1 6.66583 6.95193 9.83764 
48 1 3.65355 6.38469 0.835082 
61 1 7.28181 10.4422 1.57407 
62 1 8.96194 7.65745 4.54352 
64 1 6.72176 9.15792 1.99284 
68 1 7.3631 6.94356 3.08329 
71 1 4.36511 8.53627 10.7301 
74 1 3.63247 7.86126 9.74789 
81 1 8.50024 6.39345 3.80543 
83 1 6.53372 8.37596 0.802332 
93 1 7.28674 10.4255 0.142949 
97 1 8.3007 8.92163 3.86592 
101 1 2.47382 9.87834 10.681 
103 1 2.44761 8.73681 9.75937 
117 1 7.03824 6.16599 1.93398 
120 1 7.20136 8.39091 3.09707 
123 1 3.63803 6.40026 9.76871 
129 1 6.66662 6.9531 0.775125 
132 1 6.7153 9.15392 8.61907 
135 1 7.36231 6.9422 7.53054 
141 1 7.16588 6.17881 10.9563 
144 1 6.53824 8.37733 9.81475 
148 1 3.63984 7.84979 0.850453 
7 1 9.08237 6.00068 11.9263 
10 1 3.81068 9.81134 21.5876 
13 1 2.47558 9.87289 22.0872 
15 1 3.03279 8.31601 17.8682 
28 1 3.77508 9.78527 20.1252 
30 1 4.48998 8.55889 19.7514 
34 1 4.32485 6.33263 18.584 
40 1 7.88605 8.33813 11.9119 
49 1 4.86967 7.77146 20.9106 
50 1 2.10912 9.23267 18.5237 
58 1 1.61423 10.0708 11.854 
59 1 4.17201 7.77061 14.155 
69 1 3.80942 9.79556 11.1773 
73 1 3.02605 8.32488 14.9466 
75 1 4.95751 6.33901 11.843 
79 1 7.17934 6.18667 21.8073 
82 1 7.90106 6.87282 20.8378 
86 1 3.77918 9.75464 12.6441 
88 1 2.41862 9.9782 13.0656 
108 1 9.07712 5.99025 20.832 
112 1 4.50317 8.54712 13.0156 
115 1 4.32072 6.33987 14.1921 
124 1 4.85609 7.7343 11.8537 
125 1 2.10121 9.2268 14.234 
126 1 6.92438 9.15912 21.7374 
128 1 7.86906 8.34536 20.8548 
139 1 1.61208 10.0707 20.914 
140 1 4.16772 7.77943 18.6057 
143 1 7.89282 6.86983 11.9247 
146 1 4.36168 8.54077 22.0263 
149 1 4.99811 6.34902 20.8916 
157 1 2.4197 9.9894 19.704 
ITEM: TIMESTEP
50
ITEM: NUMBER OF ATOMS
163
ITEM: BOX BOUNDS xy xz yz pp pp pp
-6.7755000000000001e+00 1.3552000000000000e+01 -6.7755000000000001e+00
0.0000000000000000e+00 1.1735510246683001e+01 0.0000000000000000e+00
0.0000000000000000e+00 2.2149999999999999e+01 0.0000000000000000e+00
ITEM: ATOMS id type x y z 
8 1 -2.4845 5.47719 9.84482 
87 1 2.93275 4.33011 10.6232 
90 1 2.60262 5.49518 9.74892 
109 1 -2.4851 5.49837 0.776397 
158 1 2.6034 5.4812 0.850136 
11 1 4.25576 4.29965 20.0952 
14 1 2.86509 4.18408 19.7066 
18 1 1.27785 5.87348 18.6022 
33 1 2.08265 4.22065 20.9137 
43 1 4.25543 4.30589 21.5368 
47 1 3.22185 5.81633 17.8228 
52 1 4.21549 4.26168 12.6318 
76 1 2.39914 4.96188 14.1703 
85 1 4.24603 4.29192 11.2269 
89 1 3.24337 5.81963 14.9442 
91 1 0.905979 5.01135 11.8408 
102 1 2.85919 4.177 13.0482 
105 1 1.30493 5.8807 14.1609 
114 1 2.07431 4.21462 11.826 
150 1 2.40118 4.95785 18.5806 
156 1 2.93829 4.31865 22.1237 
159 1 0.913138 5.02089 20.9235 
5 1 -4.88321 10.5513 8.63533 
9 1 -3.30197 8.85296 7.5286 
19 1 -1.71551 7.56258 10.5138 
21 1 -2.56039 8.80743 10.8699 
23 1 -3.29946 7.55273 6.83838 
25 1 -4.10049 10.5105 9.84233 
32 1 1.53994 6.40338 0.763882 
36 1 -1.78207 7.57615 9.04339 
38 1 -2.13643 6.25801 8.63995 
54 1 0.344989 8.43656 10.6682 
57 1 1.3276 7.90888 9.7736 
60 1 -1.74645 7.62038 0.0784931 
65 1 -3.29948 7.53789 3.80239 
78 1 -1.8164 7.62256 1.56994 
80 1 -2.48945 8.82804 1.93053 
84 1 -4.42227 9.79355 3.12277 
99 1 -2.92067 9.59584 0.764287 
100 1 -2.93484 6.2933 3.15707 
107 1 -4.86192 10.5318 1.977 
110 1 -3.27735 8.8752 3.14494 
111 1 0.541029 5.92382 10.8175 
113 1 1.53146 6.40905 9.84406 
119 1 -4.07736 10.4244 0.772812 
127 1 -2.14812 6.28933 1.96578 
131 1 -2.36592 6.2906 11.0232 
138 1 1.33392 7.90147 0.837492 
142 1 -2.48681 8.81956 8.77481 
145 1 -4.41504 9.78173 7.51204 
151 1 -4.95781 10.4034 11.0531 
154 1 -2.93422 9.70927 9.84843 
155 1 -2.93227 6.28509 7.45791 
12 1 2.55901 7.06369 17.0883 
17 1 0.469797 9.2428 20.9173 
24 1 -3.55971 8.3234 11.843 
27 1 -0.314547 7.16657 21.5912 
29 1 0.53692 5.92722 21.9459 
31 1 1.28516 7.16263 17.9043 
44 1 -0.241414 7.14897 20.122 
46 1 0.126652 8.45953 19.7131 
51 1 -0.305512 7.16387 11.1812 
53 1 2.55239 7.08671 15.5887 
56 1 1.28631 7.18402 14.8913 
63 1 -2.37126 6.3117 21.7429 
66 1 -3.35037 6.7942 20.8377 
70 1 -0.234288 7.14328 12.6499 
72 1 0.484765 5.90709 12.9143 
92 1 0.895864 8.45563 14.2389 
95 1 -4.93849 10.3934 21.7217 
98 1 -4.63988 9.25199 20.8064 
104 1 0.466646 9.24908 11.8451 
116 1 -2.57193 8.79901 21.7795 
118 1 -3.55837 8.32856 20.8572 
122 1 0.116163 8.4638 13.0464 
133 1 -3.34939 6.82506 11.9126 
136 1 0.346655 8.431 22.0963 
147 1 0.467994 5.90426 19.8491 
153 1 -4.62237 9.24212 11.9267 
160 1 0.926602 8.42273 18.5298 
1 1 7.69862 4.89583 10.5138 
4 1 9.05512 4.85904 11.0125 
20 1 7.74019 4.94505 9.04602 
42 1 9.42979 5.48526 7.45572 
67 1 9.90694 4.67749 0.770711 
77 1 7.70277 4.89387 0.0982926 
94 1 7.74218 4.94592 1.56364 
96 1 9.09795 4.73523 1.98364 
121 1 4.59823 5.59406 10.6842 
130 1 9.43132 5.48459 3.1564 
134 1 9.89807 4.66774 9.84411 
152 1 9.09549 4.7336 8.62912 
45 1 4.60181 5.58423 22.0873 
55 1 5.00095 5.49095 13.1347 
106 1 9.05873 4.85313 21.7534 
137 1 4.8124 5.5845 19.6869 
161 2 6.01182 5.0019 13.3038 
162 2 6.96676 3.60499 12.9891 
163 3 7.69445 4.20772 13.1678 
2 1 7.2772 10.4245 9.022 
3 1 8.96683 7.66764 6.08051 
6 1 8.5011 6.40323 6.80498 
16 1 2.47934 8.73097 0.857318 
22 1 7.01808 6.15336 8.66409 
26 1 7.20285 8.3857 7.5086 
35 1 7.27631 10.4201 10.4619 
37 1 6.93186 9.14107 11.0136 
39 1 8.30613 8.92776 6.75523 
41 1 6.64803 6.94163 9.83339 
48 1 3.63433 6.39053 0.852632 
61 1 7.29141 10.4229 1.59187 
62 1 8.96061 7.65359 4.54236 
64 1 6.72291 9.14571 1.99968 
68 1 7.35141 6.93505 3.08531 
71 1 4.38343 8.53347 10.7345 
74 1 3.62712 7.8688 9.74063 
81 1 8.49778 6.39685 3.80964 
83 1 6.53803 8.37207 0.785095 
93 1 7.28468 10.4287 0.151257 
97 1 8.30705 8.9254 3.8568 
101 1 2.4776 9.8654 10.68 
103 1 2.46886 8.74342 9.75335 
117 1 7.01692 6.15609 1.94672 
120 1 7.20362 8.38535 3.10267 
123 1 3.6267 6.40369 9.75116 
129 1 6.65174 6.9424 0.778071 
132 1 6.7174 9.14026 8.61387 
135 1 7.35263 6.93416 7.52645 
141 1 7.13594 6.18051 10.956 
144 1 6.53996 8.36764 9.82367 
148 1 3.63172 7.86051 0.860876 
7 1 9.05538 5.99423 11.9313 
10 1 3.8398 9.83836 21.5899 
13 1 2.47927 9.86389 22.0869 
15 1 3.03338 8.30927 17.8696 
28 1 3.79322 9.77942 20.1214 