LAMMPS (3 Mar 2020)
Reading data file ...
  triclinic box = (0 0 0) to (13.552 11.7355 22.15) with tilt (-6.7755 0 0)
  2 by 2 by 2 MPI processor grid
  reading atoms ...
  163 atoms
  read_data CPU = 0.195 secs
WARNING: Using 'neigh_modify every 1 delay 0 check yes' setting during minimization (../min.cpp:190)
WARNING: Total cutoff < 2*bond cutoff. May need to use an increased neighbor list skin. (../pair_reaxc.cpp:413)
Neighbor list info ...
  update every 1 steps, delay 0 steps, check yes
  max neighbors/atom: 2000, page size: 100000
  master list distance cutoff = 9.5
  ghost atom cutoff = 9.5
  binsize = 4.75, bins = 5 3 5
  2 neighbor lists, perpetual/occasional/extra = 2 0 0
  (1) pair reax/c, perpetual
      attributes: half, newton off, ghost
      pair build: half/bin/newtoff/ghost
      stencil: half/ghost/bin/3d/newtoff
      bin: standard
  (2) fix qeq/reax, perpetual, copy from (1)
      attributes: half, newton off, ghost
      pair build: copy
      stencil: none
      bin: none
Setting up cg style minimization ...
  Unit style    : real
  Current step  : 0
Per MPI rank memory allocation (min/avg/max) = 22.53 | 23.58 | 24.57 Mbytes
Step Temp E_pair E_mol TotEng Press 
       0            0   -25604.471            0   -25604.471    81459.529 
     284            0   -29282.721            0   -29282.721    34285.261 
Loop time of 16.6087 on 8 procs for 284 steps with 163 atoms

99.4% CPU use with 8 MPI tasks x no OpenMP threads

Minimization stats:
  Stopping criterion = energy tolerance
  Energy initial, next-to-last, final = 
        -25604.4712753     -29282.7214571     -29282.7214933
  Force two-norm initial, final = 4568.42 59.2159
  Force max component initial, final = 529.064 16.1906
  Final line search alpha, max atom move = 0.00213462 0.0345609
  Iterations, force evaluations = 284 2006

MPI task timing breakdown:
Section |  min time  |  avg time  |  max time  |%varavg| %total
---------------------------------------------------------------
Pair    | 10.712     | 11.75      | 12.594     |  21.8 | 70.75
Neigh   | 0          | 0          | 0          |   0.0 |  0.00
Comm    | 0.12149    | 0.95527    | 1.9843     |  76.2 |  5.75
Output  | 0.0010317  | 0.0012961  | 0.0018258  |   0.7 |  0.01
Modify  | 3.8697     | 3.8776     | 3.8866     |   0.3 | 23.35
Other   |            | 0.02441    |            |       |  0.15

Nlocal:    20.375 ave 32 max 5 min
Histogram: 2 0 1 0 1 0 0 0 1 3
Nghost:    852.125 ave 899 max 795 min
Histogram: 1 1 2 0 0 0 0 0 2 2
Neighs:    2838.62 ave 4374 max 768 min
Histogram: 2 0 1 0 1 0 0 0 1 3

Total # of neighbors = 22709
Ave neighs/atom = 139.319
Neighbor list builds = 0
Dangerous builds = 0
WARNING: Using 'neigh_modify every 1 delay 0 check yes' setting during minimization (../min.cpp:190)
WARNING: Total cutoff < 2*bond cutoff. May need to use an increased neighbor list skin. (../pair_reaxc.cpp:413)
Setting up cg style minimization ...
  Unit style    : real
  Current step  : 284
Per MPI rank memory allocation (min/avg/max) = 22.53 | 23.58 | 24.57 Mbytes
Step Temp E_pair E_mol TotEng Press 
     284            0   -29282.721            0   -29282.721    34285.261 
     387            0   -29298.157            0   -29298.157    33326.477 
Loop time of 6.54865 on 8 procs for 103 steps with 163 atoms

99.4% CPU use with 8 MPI tasks x no OpenMP threads

Minimization stats:
  Stopping criterion = energy tolerance
  Energy initial, next-to-last, final = 
        -29282.7214933     -29298.1563718     -29298.1565443
  Force two-norm initial, final = 59.2159 36.6339
  Force max component initial, final = 16.1906 8.44319
  Final line search alpha, max atom move = 0.00018325 0.00154722
  Iterations, force evaluations = 103 775

MPI task timing breakdown:
Section |  min time  |  avg time  |  max time  |%varavg| %total
---------------------------------------------------------------
Pair    | 4.2572     | 4.6695     | 5.0241     |  13.8 | 71.31
Neigh   | 0          | 0          | 0          |   0.0 |  0.00
Comm    | 0.053271   | 0.40705    | 0.81579    |  46.4 |  6.22
Output  | 0.00037447 | 0.00045578 | 0.00062933 |   0.0 |  0.01
Modify  | 1.4591     | 1.4624     | 1.4659     |   0.2 | 22.33
Other   |            | 0.00922    |            |       |  0.14

Nlocal:    20.375 ave 32 max 6 min
Histogram: 2 0 1 1 0 0 0 0 0 4
Nghost:    884.125 ave 938 max 826 min
Histogram: 1 1 2 0 0 0 0 1 1 2
Neighs:    2826.12 ave 4330 max 909 min
Histogram: 2 0 1 1 0 0 0 0 0 4

Total # of neighbors = 22609
Ave neighs/atom = 138.706
Neighbor list builds = 0
Dangerous builds = 0
WARNING: Using 'neigh_modify every 1 delay 0 check yes' setting during minimization (../min.cpp:190)
WARNING: Total cutoff < 2*bond cutoff. May need to use an increased neighbor list skin. (../pair_reaxc.cpp:413)
Setting up cg style minimization ...
  Unit style    : real
  Current step  : 387
WARNING: Energy due to 3 extra global DOFs will be included in minimizer energies
Per MPI rank memory allocation (min/avg/max) = 22.53 | 23.58 | 24.57 Mbytes
Step Temp E_pair E_mol TotEng Press Volume 
     387            0   -29298.157            0   -29298.157    33326.477    3522.7279 
     441            0   -29307.371            0   -29307.371    5545.1635    3527.3536 
Loop time of 0.705562 on 8 procs for 54 steps with 163 atoms

99.3% CPU use with 8 MPI tasks x no OpenMP threads

Minimization stats:
  Stopping criterion = energy tolerance
  Energy initial, next-to-last, final = 
        -29298.1565443     -29307.3705027     -29307.3705027
  Force two-norm initial, final = 3719.67 675.562
  Force max component initial, final = 3118.68 491.403
  Final line search alpha, max atom move = 2.98001e-14 1.46439e-11
  Iterations, force evaluations = 54 95

MPI task timing breakdown:
Section |  min time  |  avg time  |  max time  |%varavg| %total
---------------------------------------------------------------
Pair    | 0.52667    | 0.5683     | 0.60214    |   3.9 | 80.55
Neigh   | 0          | 0          | 0          |   0.0 |  0.00
Comm    | 0.0053199  | 0.039098   | 0.080301   |  14.9 |  5.54
Output  | 0.00020923 | 0.00025009 | 0.00033347 |   0.0 |  0.04
Modify  | 0.094578   | 0.09493    | 0.095366   |   0.1 | 13.45
Other   |            | 0.002989   |            |       |  0.42

Nlocal:    20.375 ave 32 max 6 min
Histogram: 2 0 1 1 0 0 0 0 0 4
Nghost:    882.875 ave 946 max 816 min
Histogram: 1 1 1 1 0 0 1 0 2 1
Neighs:    2819.38 ave 4315 max 910 min
Histogram: 2 0 1 1 0 0 0 0 0 4

Total # of neighbors = 22555
Ave neighs/atom = 138.374
Neighbor list builds = 0
Dangerous builds = 0
WARNING: Using 'neigh_modify every 1 delay 0 check yes' setting during minimization (../min.cpp:190)
WARNING: Total cutoff < 2*bond cutoff. May need to use an increased neighbor list skin. (../pair_reaxc.cpp:413)
Setting up cg style minimization ...
  Unit style    : real
  Current step  : 441
Per MPI rank memory allocation (min/avg/max) = 22.53 | 23.58 | 24.57 Mbytes
Step Temp E_pair E_mol TotEng Press 
     441            0   -29307.371            0   -29307.371    5545.1635 
     513            0   -29310.835            0   -29310.835    32327.071 
Loop time of 4.91152 on 8 procs for 72 steps with 163 atoms

99.4% CPU use with 8 MPI tasks x no OpenMP threads

Minimization stats:
  Stopping criterion = energy tolerance
  Energy initial, next-to-last, final = 
        -29307.3705027     -29310.8354088     -29310.8354535
  Force two-norm initial, final = 350.875 18.7495
  Force max component initial, final = 42.8225 3.25735
  Final line search alpha, max atom move = 0.000167905 0.000546924
  Iterations, force evaluations = 72 594

MPI task timing breakdown:
Section |  min time  |  avg time  |  max time  |%varavg| %total
---------------------------------------------------------------
Pair    | 3.275      | 3.544      | 3.7818     |  10.4 | 72.16
Neigh   | 0          | 0          | 0          |   0.0 |  0.00
Comm    | 0.027105   | 0.26494    | 0.53392    |  37.8 |  5.39
Output  | 0.00026167 | 0.0003203  | 0.00044902 |   0.0 |  0.01
Modify  | 1.0932     | 1.0955     | 1.098      |   0.2 | 22.31
Other   |            | 0.006748   |            |       |  0.14

Nlocal:    20.375 ave 32 max 6 min
Histogram: 2 0 1 1 0 0 0 0 0 4
Nghost:    882.875 ave 946 max 816 min
Histogram: 1 1 1 1 0 0 0 1 2 1
Neighs:    2816.62 ave 4311 max 910 min
Histogram: 2 0 1 1 0 0 0 0 0 4

Total # of neighbors = 22533
Ave neighs/atom = 138.239
Neighbor list builds = 0
Dangerous builds = 0
WARNING: Using 'neigh_modify every 1 delay 0 check yes' setting during minimization (../min.cpp:190)
WARNING: Total cutoff < 2*bond cutoff. May need to use an increased neighbor list skin. (../pair_reaxc.cpp:413)
Setting up cg style minimization ...
  Unit style    : real
  Current step  : 513
WARNING: Energy due to 3 extra global DOFs will be included in minimizer energies
Per MPI rank memory allocation (min/avg/max) = 22.53 | 23.58 | 24.57 Mbytes
Step Temp E_pair E_mol TotEng Press Volume 
     513            0   -29310.835            0   -29310.835    32327.071    3527.3536 
     578            0   -29316.083            0   -29316.083   -4768.2575    3530.5289 
Loop time of 1.996 on 8 procs for 65 steps with 163 atoms

99.4% CPU use with 8 MPI tasks x no OpenMP threads

Minimization stats:
  Stopping criterion = linesearch alpha is zero
  Energy initial, next-to-last, final = 
        -29310.8354535     -29316.0830151     -29316.0830151
  Force two-norm initial, final = 3616.91 738.478
  Force max component initial, final = 3061.4 576.457
  Final line search alpha, max atom move = 2.26128e-14 1.30353e-11
  Iterations, force evaluations = 65 269

MPI task timing breakdown:
Section |  min time  |  avg time  |  max time  |%varavg| %total
---------------------------------------------------------------
Pair    | 1.4803     | 1.5998     | 1.7042     |   7.0 | 80.15
Neigh   | 0          | 0          | 0          |   0.0 |  0.00
Comm    | 0.013584   | 0.1179     | 0.23767    |  25.7 |  5.91
Output  | 0.00021142 | 0.00025301 | 0.00034191 |   0.0 |  0.01
Modify  | 0.26968    | 0.2707     | 0.27192    |   0.2 | 13.56
Other   |            | 0.007391   |            |       |  0.37

Nlocal:    20.375 ave 33 max 6 min
Histogram: 2 0 2 0 0 0 0 0 2 2
Nghost:    882.875 ave 947 max 816 min
Histogram: 1 1 1 1 0 0 0 1 2 1
Neighs:    2817.88 ave 4443 max 911 min
Histogram: 2 0 1 1 0 0 0 0 1 3

Total # of neighbors = 22543
Ave neighs/atom = 138.301
Neighbor list builds = 0
Dangerous builds = 0
WARNING: Using 'neigh_modify every 1 delay 0 check yes' setting during minimization (../min.cpp:190)
WARNING: Total cutoff < 2*bond cutoff. May need to use an increased neighbor list skin. (../pair_reaxc.cpp:413)
Setting up cg style minimization ...
  Unit style    : real
  Current step  : 578
Per MPI rank memory allocation (min/avg/max) = 22.53 | 23.58 | 24.57 Mbytes
Step Temp E_pair E_mol TotEng Press 
     578            0   -29316.083            0   -29316.083   -4768.2575 
     624            0   -29318.381            0   -29318.381    32051.517 
Loop time of 3.14138 on 8 procs for 46 steps with 163 atoms

99.3% CPU use with 8 MPI tasks x no OpenMP threads

Minimization stats:
  Stopping criterion = energy tolerance
  Energy initial, next-to-last, final = 
        -29316.0830151     -29318.3813182     -29318.3813299
  Force two-norm initial, final = 368.468 40.1686
  Force max component initial, final = 43.002 6.83011
  Final line search alpha, max atom move = 0.00290847 0.0198652
  Iterations, force evaluations = 46 376

MPI task timing breakdown:
Section |  min time  |  avg time  |  max time  |%varavg| %total
---------------------------------------------------------------
Pair    | 2.0776     | 2.2511     | 2.4013     |   8.5 | 71.66
Neigh   | 0          | 0          | 0          |   0.0 |  0.00
Comm    | 0.025734   | 0.17607    | 0.34979    |  30.2 |  5.60
Output  | 0.00018698 | 0.00022545 | 0.00031321 |   0.0 |  0.01
Modify  | 0.70837    | 0.70986    | 0.7115     |   0.1 | 22.60
Other   |            | 0.004131   |            |       |  0.13

Nlocal:    20.375 ave 33 max 6 min
Histogram: 2 0 2 0 0 0 0 0 2 2
Nghost:    882.875 ave 947 max 816 min
Histogram: 1 1 1 1 0 0 0 1 2 1
Neighs:    2816.38 ave 4440 max 909 min
Histogram: 2 0 1 1 0 0 0 0 1 3

Total # of neighbors = 22531
Ave neighs/atom = 138.227
Neighbor list builds = 0
Dangerous builds = 0
WARNING: Total cutoff < 2*bond cutoff. May need to use an increased neighbor list skin. (../pair_reaxc.cpp:413)
Setting up Verlet run ...
  Unit style    : real
  Current step  : 0
  Time step     : 0.25
Per MPI rank memory allocation (min/avg/max) = 21.42 | 22.47 | 23.46 Mbytes
Step Temp TotEng KinEng PotEng Press 
       0          300   -29173.514    144.86737   -29318.381    33927.218 
     200    300.88859   -29203.897    145.29646   -29349.194    57475.389 
     400     362.8608   -29206.831     175.2223   -29382.053   -20117.854 
     600    274.74914   -29245.566    132.67395   -29378.239   -3643.8112 
     800    305.90586   -29235.228    147.71925   -29382.947   -16237.049 
    1000     320.9929   -29202.687    155.00466   -29357.691    35303.846 
    1200    270.65616   -29224.155    130.69748   -29354.852    17847.325 
    1400    298.09505   -29213.116    143.94749   -29357.063   -8528.3601 
    1600    278.06364    -29205.76    134.27449   -29340.034    -9992.249 
    1800    316.71844   -29176.564    152.94056   -29329.504   -13781.422 
    2000    314.17609   -29174.298    151.71288   -29326.011    22131.677 
    2200    301.69036   -29204.495    145.68363   -29350.178     17421.99 
    2400    299.43584    -29184.47    144.59494   -29329.065    -20505.41 
    2600    309.01189   -29148.731    149.21913    -29297.95    11211.834 
    2800    312.78525   -29157.948    151.04125   -29308.989   -10757.337 
    3000    278.63366   -29180.655    134.54975   -29315.205    679.61025 
    3200    284.96914   -29180.309     137.6091   -29317.918    4869.9579 
    3400     301.7222   -29147.135      145.699   -29292.834    -751.9605 
    3600    299.67429   -29163.865    144.71009   -29308.575    21399.586 
    3800    273.23876   -29190.703     131.9446   -29322.648    28935.294 
    4000    246.18141   -29222.206    118.87884   -29341.085    1429.4425 
    4200    292.06249   -29179.892    141.03441   -29320.926   -22333.906 
    4400    322.06458    -29166.56    155.52216   -29322.083    14629.094 
    4600    302.78697    -29199.25    146.21317   -29345.464    28052.689 
    4800    284.47152   -29190.518     137.3688   -29327.887   -5530.9433 
    5000    313.05755   -29169.624    151.17274   -29320.797    4645.6041 
    5200    297.35697   -29197.479    143.59107    -29341.07   -13267.336 
    5400    282.89576   -29215.725    136.60788   -29352.333    34113.851 
    5600    325.84169   -29206.067    157.34609   -29363.413   -8471.3135 
    5800    321.72557   -29199.984    155.35846   -29355.343   -1972.3129 
    6000    300.57941    -29226.96    145.14716   -29372.107    24097.202 
    6200    300.82178   -29236.237     145.2642   -29381.501    13158.505 
    6400    291.73134   -29251.234     140.8745   -29392.109   -19992.885 
    6600    299.51325   -29227.559    144.63232   -29372.191   -18160.728 
    6800    294.80393   -29232.642    142.35823   -29375.001    -8597.612 
    7000    312.55175   -29214.466     150.9285   -29365.395   -25768.054 
    7200    290.15088   -29193.189    140.11131     -29333.3    3188.7129 
    7400    297.75523   -29193.735    143.78339   -29337.518    19169.749 
    7600    288.71816   -29222.004    139.41946   -29361.424   -18105.447 
    7800    315.93932   -29206.242    152.56432   -29358.807    9826.9926 
    8000    282.95021   -29226.651    136.63417   -29363.285   -32168.637 
    8200    328.37712   -29218.816    158.57043   -29377.387    24422.475 
    8400     302.5506   -29225.785    146.09903   -29371.884    32314.767 
    8600    272.13114   -29222.626    131.40974   -29354.035   -36829.825 
    8800    322.25175   -29199.742    155.61255   -29355.354   -5747.8943 
    9000    285.98371   -29227.942    138.09903   -29366.041   -16465.424 
    9200    286.69785   -29219.772    138.44388   -29358.216   -9565.2536 
    9400    305.38002   -29208.245    147.46533    -29355.71   -10564.085 
    9600    319.24098   -29197.581    154.15867   -29351.739    4824.6051 
    9800    268.63433   -29216.338    129.72116   -29346.059   -21110.331 
   10000    327.43868   -29193.608    158.11727   -29351.726    15642.765 
   10200    318.84814   -29201.916    153.96897   -29355.885    17263.272 
   10400    263.25959    -29215.98    127.12575   -29343.105   -28857.733 
   10600    307.61749   -29188.802    148.54579   -29337.347    14514.106 
   10800    309.22816   -29201.126    149.32356    -29350.45    -5019.712 
   11000    270.86169   -29211.098    130.79673   -29341.894    21996.023 
   11200    288.36513   -29204.976    139.24899   -29344.225   -11201.909 
   11400    311.86639   -29202.442    150.59754   -29353.039    5442.3796 
   11600    329.52652   -29174.793    159.12547   -29333.919   -43226.901 
   11800    301.19463   -29207.091    145.44424   -29352.535   -5400.9308 
   12000    306.51444   -29203.607    148.01313   -29351.621    10988.553 
   12200    292.86994   -29209.954    141.42433   -29351.378   -879.48308 
   12400    302.70548   -29185.825    146.17382   -29331.999   -5341.9803 
   12600     326.9448   -29193.013    157.87878   -29350.891    6598.8117 
   12800    278.52435   -29212.243    134.49697    -29346.74   -20439.493 
   13000     326.8288   -29191.762    157.82276   -29349.585     3510.775 
   13200    276.41795   -29199.571     133.4798   -29333.051    7457.6053 
   13400    251.70649   -29215.605    121.54686   -29337.151    1417.5559 
   13600    314.24734   -29196.279    151.74728   -29348.026    2092.1853 
   13800    287.24258   -29194.547    138.70692   -29333.254   -77.846464 
   14000    272.22861   -29216.165    131.45681   -29347.621    36450.227 
   14200    322.34585   -29185.008    155.65798   -29340.666   -21206.555 
   14400    323.73139   -29198.248    156.32705   -29354.575    22455.392 
   14600    306.52617    -29197.32     148.0188   -29345.339   -18042.506 
   14800    303.20671   -29186.066    146.41586   -29332.482   -2892.1704 
   15000     280.7336   -29215.939    135.56379   -29351.503   -11825.575 
   15200    309.75803   -29198.441    149.57944   -29348.021     4735.213 
   15400    313.11416    -29192.41    151.20008    -29343.61   -32893.853 
   15600     284.1094   -29210.807    137.19394   -29348.001   -17666.413 
   15800     266.7606   -29236.621    128.81635   -29365.437   -7502.6111 
   16000    290.55912   -29218.691    140.30845       -29359   -499.25294 
   16200     322.7917   -29199.644    155.87328   -29355.517    3627.0139 
   16400    280.83677   -29226.877    135.61361   -29362.491   -13143.445 
   16600    322.09656   -29203.331     155.5376   -29358.869    19005.727 
   16800     307.6618   -29201.579    148.56718   -29350.146    2371.2422 
   17000    278.38253   -29221.316    134.42848   -29355.745    5100.4594 
   17200     325.3463   -29190.855    157.10688   -29347.962   -27902.624 
   17400    309.53327   -29207.204     149.4709   -29356.675    955.62563 
   17600    297.63519   -29210.174    143.72542   -29353.899   -13690.824 
   17800    299.40967   -29204.256     144.5823   -29348.838    15119.698 
   18000    259.11375   -29231.338    125.12376   -29356.462   -26504.811 
   18200    304.87413   -29201.635    147.22104   -29348.856   -41070.341 
   18400    289.02091   -29209.083    139.56566   -29348.649   -21335.905 
   18600    289.26432   -29203.252    139.68321   -29342.935    21612.249 
   18800    306.12747   -29201.032    147.82627   -29348.859   -3984.8488 
   19000    286.56625   -29222.272    138.38033   -29360.653   -8891.1025 
   19200    313.44646   -29189.997    151.36055   -29341.358   -29476.679 
   19400    299.25256   -29216.391    144.50644   -29360.897   -6783.1761 
   19600    312.99119   -29200.414     151.1407   -29351.555   -3745.2957 
   19800    302.74854   -29196.637    146.19462   -29342.832   -20186.203 
   20000    289.63793   -29216.363    139.86362   -29356.226    11022.095 
   20200    331.25725   -29185.912    159.96122   -29345.874   -22355.372 
   20400    308.02437   -29201.262    148.74226   -29350.004    1814.6902 
   20600    303.57007   -29215.646    146.59132   -29362.238   -16446.145 
   20800    293.08499   -29188.432    141.52817    -29329.96    7371.3147 
   21000    319.18854   -29195.455    154.13334   -29349.588    23569.661 
   21200    278.60015   -29213.565    134.53357   -29348.098   -27464.729 
   21400    296.19362   -29182.795     143.0293   -29325.825    4324.2511 
   21600    315.45017   -29189.905    152.32812   -29342.233    -25912.62 
   21800    325.73456    -29200.81    157.29436   -29358.104   -2897.6826 
   22000    268.34045   -29226.279    129.57925   -29355.858   -4378.2666 
   22200    312.13675    -29198.79     150.7281   -29349.518    13229.932 
   22400    313.51776   -29187.927    151.39497   -29339.322   -19800.402 
   22600    284.35129   -29217.721    137.31075   -29355.032   -2353.3303 
   22800    317.23455   -29199.593    153.18978   -29352.783   -17464.321 
   23000    302.23298   -29192.112    145.94565   -29338.058    6226.4103 
   23200    276.76532   -29220.989    133.64754   -29354.636   -23079.107 
   23400    323.00462   -29197.699     155.9761   -29353.675    3070.5414 
   23600    307.99598   -29190.995    148.72856   -29339.723    10472.432 
   23800    254.18376   -29219.624    122.74311   -29342.367    18150.737 
   24000    326.49816    -29197.58     157.6631   -29355.243    1355.2189 
   24200    315.61206    -29195.61     152.4063   -29348.016   -9157.4488 
   24400    275.39146    -29215.26    132.98412   -29348.244    -32.19297 
   24600    294.76854   -29201.125    142.34114   -29343.466   -11983.619 
   24800    325.03449    -29185.64    156.95631   -29342.596    2504.4552 
   25000     266.9099   -29214.223    128.88845   -29343.112    6184.2164 
   25200    318.70408   -29201.783    153.89941   -29355.682    47333.624 
   25400    296.27378   -29189.905    143.06801   -29332.973   -19528.388 
   25600    319.60051   -29177.505    154.33228   -29331.837    11207.097 
   25800    290.88727   -29204.134    140.46691   -29344.601   -16517.462 
   26000    306.35019   -29207.886    147.93382    -29355.82   -20406.227 
   26200    302.75791   -29174.151    146.19914    -29320.35    9146.0587 
   26400    309.97363   -29198.499    149.68354   -29348.182    2975.3224 
   26600    305.06647   -29206.263    147.31392   -29353.577    4867.1794 
   26800    311.65428   -29198.276    150.49512   -29348.771   -3551.0263 
   27000    278.97229   -29202.897    134.71327    -29337.61   -12103.858 
   27200    318.93483   -29206.761    154.01083   -29360.772   -11973.266 
   27400    283.44092   -29198.287    136.87114   -29335.158    4517.2543 
   27600    318.44198   -29193.801    153.77284   -29347.574   -7839.2395 
   27800    268.39943   -29222.203    129.60773    -29351.81   -14304.077 
   28000    280.76372   -29195.281    135.57834    -29330.86    42368.033 
   28200    296.93033   -29196.766    143.38505   -29340.151    1178.7363 
   28400    286.21639   -29215.704    138.21138   -29353.915    22306.603 
   28600    304.95455    -29211.19    147.25988    -29358.45   -77.599053 
   28800    299.76802   -29194.076    144.75535   -29338.832   -18233.447 
   29000    288.76229   -29220.447    139.44078   -29359.887    33529.556 
   29200    273.64925   -29230.458    132.14282   -29362.601   -5206.6053 
   29400    269.70251   -29249.773    130.23698    -29380.01   -56203.142 
   29600    287.11884   -29217.095    138.64717   -29355.742    46641.852 
   29800    301.36736    -29228.47    145.52765   -29373.998   -16623.233 
   30000    289.77416   -29238.164     139.9294   -29378.093    24931.945 
   30200    317.89623   -29208.008     153.5093   -29361.517   -7698.0024 
   30400     271.4876   -29233.158    131.09898   -29364.257    24518.778 
   30600    325.97519   -29209.272    157.41056   -29366.683    13425.976 
   30800    325.75245   -29208.498      157.303   -29365.801    -42744.38 
   31000    285.45005   -29228.034    137.84132   -29365.876    -39143.17 
   31200    296.68203   -29230.728    143.26515   -29373.993    24136.841 
   31400    305.88126   -29199.585    147.70738   -29347.292    10264.594 
   31600    292.84319   -29224.356    141.41141   -29365.768    23588.641 
   31800    290.43339    -29218.46    140.24774   -29358.708   -12939.083 
   32000    298.61611   -29211.652     144.1991   -29355.852   -18537.211 
   32200    303.69114   -29214.619    146.64979   -29361.269   -5893.5856 
   32400    335.80065   -29199.121    162.15519   -29361.276    6511.0566 
   32600     277.6937   -29228.138    134.09585   -29362.234    13682.068 
   32800    324.06011   -29205.686    156.48578   -29362.172   -14364.774 
   33000    288.31756   -29212.946    139.22602   -29352.172   -6629.8469 
   33200    297.91064   -29215.912    143.85844    -29359.77   -27940.221 
   33400    337.59535   -29186.898    163.02183    -29349.92    21051.877 
   33600    304.38097   -29211.829     146.9829   -29358.812     -39985.2 
   33800    288.93105   -29209.696    139.52227   -29349.218     34321.37 
   34000    293.23982   -29187.144    141.60294   -29328.747   -3336.0099 
   34200     327.8726   -29204.063     158.3268    -29362.39   -17641.091 
   34400    293.78638   -29215.367    141.86686   -29357.234    894.20904 
   34600    332.87491   -29192.958    160.74238     -29353.7   -27830.914 
   34800    293.94319   -29218.513    141.94259   -29360.456   -17232.562 
   35000    309.01102   -29212.371    149.21871    -29361.59   -21895.787 
   35200    346.72841   -29188.905    167.43211   -29356.337    49068.115 
   35400    279.14223   -29227.573    134.79534   -29362.368     6540.543 
   35600    311.24098   -29204.677    150.29554   -29354.972    10233.771 
   35800    309.06912   -29192.083    149.24677    -29341.33    39077.356 
   36000    275.95083   -29225.405    133.25424   -29358.659   -13344.512 
   36200    287.86579   -29207.097    139.00787   -29346.105   -24923.039 
   36400    302.40636   -29199.262    146.02938   -29345.291    21173.288 
   36600    296.66119   -29219.725    143.25509    -29362.98   -12291.003 
   36800    290.94179   -29212.991    140.49324   -29353.485    24068.491 
   37000     296.2955   -29212.443     143.0785   -29355.521   -37798.813 
   37200    317.00487   -29204.168    153.07887   -29357.247    54604.254 
   37400    319.64801   -29201.736    154.35522   -29356.091   -23206.651 
   37600    305.32917   -29222.081    147.44078   -29369.522   -43978.543 
   37800    313.52488   -29199.167    151.39841   -29350.566   -15625.445 
   38000    317.04937   -29210.967    153.10036   -29364.067    -6840.932 
   38200    293.11623   -29206.777    141.54325   -29348.321   -29665.146 
   38400     360.8157   -29169.736    174.23474   -29343.971    11498.177 
   38600    310.55675   -29190.392    149.96513   -29340.357    6579.1699 
   38800     298.8243   -29197.343    144.29963   -29341.642   -1583.8846 
   39000    318.40594   -29186.801    153.75543   -29340.556    1515.9447 
   39200    332.84777   -29178.928    160.72927   -29339.657    25648.453 
   39400    305.40835   -29206.515    147.47901   -29353.994    3378.1131 
   39600    300.78145   -29186.663    145.24472   -29331.908   -14932.309 
   39800    279.71204   -29204.082    135.07049   -29339.152    45056.211 
   40000     280.9933   -29210.468     135.6892   -29346.157   -2642.9285 
   40200    306.00926   -29188.506    147.76919   -29336.275    25225.733 
   40400    272.91437   -29224.148    131.78795   -29355.936   -6062.1763 
   40600    312.86018   -29195.904    151.07744   -29346.981   -37327.276 
   40800    283.94788   -29206.962    137.11594   -29344.078   -31218.824 
   41000     249.0138   -29246.153    120.24658     -29366.4    16781.393 
   41200    278.44478   -29218.279    134.45854   -29352.738   -28650.767 
   41400    314.25067   -29198.588    151.74889   -29350.337    20212.434 
   41600    275.27679   -29220.498    132.92875   -29353.426   -9531.1048 
   41800    282.86698   -29208.855    136.59398   -29345.449    28534.889 
   42000     313.2031   -29200.394    151.24303   -29351.637   -15552.322 
   42200    307.22221   -29214.008    148.35491   -29362.363   -16245.006 
   42400    320.69057   -29189.779    154.85866   -29344.638   -15379.461 
   42600     303.8397   -29211.098    146.72152    -29357.82    16414.826 
   42800    297.89957   -29217.087    143.85309    -29360.94    14399.947 
   43000    326.23604   -29197.908    157.53652   -29355.445     4489.805 
   43200    329.44265   -29190.392    159.08497   -29349.477   -9455.1528 
   43400    289.30754   -29218.032    139.70407   -29357.736    28466.605 
   43600     305.6688   -29189.385    147.60478   -29336.989   -31233.244 
   43800    312.48504   -29196.201    150.89628   -29347.098   -66039.707 
   44000    296.94619   -29210.195    143.39271   -29353.587   -2217.5641 
   44200    265.74297   -29241.174    128.32495   -29369.499    25045.744 
   44400    290.96524    -29214.77    140.50456   -29355.274    22435.452 
   44600    297.04186   -29216.264    143.43891   -29359.703   -45903.535 
   44800    284.43164   -29234.505    137.34954   -29371.854    2541.0852 
   45000    330.18274   -29199.394    159.44235   -29358.837    22546.204 
   45200    284.71958   -29221.787    137.48859   -29359.276   -7561.0694 
   45400     324.6741   -29205.874    156.78227   -29362.656    18834.862 
   45600    329.09279   -29200.278    158.91602   -29359.194   -5290.8531 
   45800    307.77097   -29221.078     148.6199   -29369.698    9671.2287 
   46000     319.2048   -29198.287     154.1412   -29352.429   -18171.666 
   46200    312.01964   -29197.705    150.67155   -29348.377    4090.2839 
   46400     316.5569   -29214.859    152.86255   -29367.722    17339.189 
   46600    272.27372    -29215.67    131.47859   -29347.148    21180.151 
   46800    323.82748   -29192.349    156.37345   -29348.723    18191.853 
   47000    262.67471   -29224.943    126.84331   -29351.786   -604.03095 
   47200    306.60231    -29211.21    148.05557   -29359.266    11812.382 
   47400    332.43025   -29183.451    160.52765   -29343.979    21107.847 
   47600    285.56635   -29220.863    137.89749    -29358.76   -20713.676 
   47800    316.07232   -29213.044    152.62855   -29365.673   -23138.861 
   48000    304.69793   -29197.207    147.13596   -29344.343    3935.5816 
   48200    297.79733   -29229.013    143.80372   -29372.817   -7950.1886 
   48400    314.78568   -29205.172    152.00724    -29357.18   -24391.343 
   48600    290.17513   -29224.336    140.12303   -29364.459   -25484.929 
   48800    301.50014   -29221.317    145.59177   -29366.908    -21071.66 
   49000    331.09456   -29205.861    159.88266   -29365.744    15359.799 
   49200    245.97163   -29237.323    118.77754     -29356.1     18040.68 
   49400    284.64987   -29226.438    137.45493   -29363.893    18950.883 
   49600    310.88672   -29195.098    150.12447   -29345.222   -36041.936 
   49800    286.61508   -29186.033    138.40391   -29324.437    32104.812 
   50000    287.68496    -29197.16    138.92054   -29336.081   -16644.736 
   50200    277.76487   -29211.432    134.13022   -29345.562    84587.622 
   50400    315.88806   -29182.941    152.53958    -29335.48   -13264.153 
   50600     280.6017   -29197.375     135.5001   -29332.875    44300.406 
   50800    295.04379   -29204.123    142.47406   -29346.597    42835.474 
   51000    319.72729   -29187.907    154.39351   -29342.301    28845.854 
   51200    331.37042   -29168.275    160.01587   -29328.291   -49814.243 
   51400    288.58281   -29207.022    139.35411   -29346.376   -9273.1977 
   51600    298.83908   -29200.604    144.30677   -29344.911    548.93363 
   51800    318.81429   -29173.815    153.95263   -29327.768   -25555.847 
   52000    256.38172   -29214.322    123.80448   -29338.126   -36116.532 
   52200    321.28892   -29195.197     155.1476   -29350.344   -6307.9136 
   52400    282.52638   -29202.074    136.42951   -29338.503   -25471.342 
   52600    287.72406    -29219.35    138.93942    -29358.29    7464.9019 
   52800    295.41413   -29198.871    142.65289   -29341.524    1296.9155 
   53000    286.43449   -29208.844     138.3167   -29347.161    16811.069 
   53200    292.60194   -29228.969    141.29491   -29370.264   -27318.155 
   53400    327.11725   -29200.505    157.96205   -29358.467    7689.3601 
   53600    303.25999   -29209.414    146.44159   -29355.855    24682.512 
   53800    268.52227   -29238.586    129.66705   -29368.253   -10228.524 
   54000    322.46168   -29209.312    155.71392   -29365.026    -18318.82 
   54200    307.21003   -29207.656    148.34903   -29356.005   -27803.297 
   54400    272.20975   -29231.811     131.4477   -29363.259    10716.557 
   54600    311.32457   -29209.264    150.33591     -29359.6   -874.94679 
   54800    320.81625   -29207.626    154.91935   -29362.546   -4489.1259 
   55000    302.14052   -29231.039    145.90101    -29376.94   -10531.847 
   55200    311.27775   -29206.813    150.31329   -29357.127    30989.165 
   55400    303.80701   -29207.539    146.70574   -29354.245   -6863.9111 
   55600    294.46076   -29226.031    142.19252   -29368.224    27654.718 
   55800    353.84331   -29191.173    170.86783   -29362.041   -31550.841 
   56000    304.60384   -29211.983    147.09052   -29359.073    5644.2904 
   56200    287.06415   -29229.081    138.62076   -29367.702   -25179.271 
   56400      286.815   -29209.766    138.50045   -29348.267    14514.028 
   56600    289.77795   -29202.607    139.93123   -29342.538    10871.385 
   56800    281.69223   -29231.163    136.02671    -29367.19    20221.604 
   57000    305.75997   -29192.824    147.64881   -29340.473    9803.1951 
   57200    279.82127   -29212.872    135.12323   -29347.995   -13626.933 
   57400    309.58816   -29194.158    149.49741   -29343.655   -14324.061 
   57600    306.63223   -29194.076    148.07002   -29342.146    43249.411 
   57800    311.13984   -29203.978     150.2467   -29354.225    15377.533 
   58000    298.57111    -29199.16    144.17737   -29343.338    11614.686 
   58200    316.81955   -29167.805    152.98938   -29320.794    6458.9231 
   58400    312.87937   -29198.956     151.0867   -29350.043   -4871.3017 
   58600    295.57489    -29211.46    142.73052    -29354.19    32425.828 
   58800    333.35471   -29190.374    160.97406   -29351.348   -1732.9653 
   59000    303.71089   -29200.026    146.65932   -29346.685   -3571.5874 
   59200    280.49481    -29215.39    135.44848   -29350.838    26213.471 
   59400     290.3974   -29195.265    140.23036   -29335.495   -34294.153 
   59600    301.48212    -29193.27    145.58307   -29338.853   -6143.0549 
   59800    276.94047   -29221.993    133.73213   -29355.725   -17582.675 
   60000    261.28121   -29220.838     126.1704   -29347.009    33143.034 
   60200    331.97379   -29198.372    160.30723   -29358.679      18011.3 
   60400    294.02949   -29210.603    141.98426   -29352.588   -21182.242 
   60600    276.17053   -29223.258    133.36033   -29356.618   -5702.7417 
   60800    265.98612   -29198.872    128.44236   -29327.315     -49746.6 
   61000    310.37363   -29190.802     149.8767   -29340.678   -9502.7846 
   61200    275.08613   -29222.269    132.83668   -29355.106     3068.209 
   61400    281.38892    -29200.17    135.88024    -29336.05   -74177.807 
   61600    298.14929   -29191.969    143.97368   -29335.942    16774.916 
   61800    272.94507   -29219.111    131.80278   -29350.913    2789.1638 
   62000     292.0295   -29208.221    141.01848    -29349.24   -24193.343 
   62200    318.00434   -29197.201    153.56151   -29350.763    15079.977 
   62400     304.5934   -29201.212    147.08548   -29348.298   -13499.037 
   62600    282.99095   -29217.884    136.65385   -29354.537    4425.2325 
   62800    312.76738    -29191.99    151.03263   -29343.022   -2562.2805 
   63000    316.69693   -29200.493    152.93017   -29353.424    30369.686 
   63200    307.30691   -29209.797    148.39581   -29358.193    346.58179 
   63400    306.10008   -29194.089    147.81304   -29341.902   -21492.215 
   63600    314.12472   -29198.652    151.68807    -29350.34    36288.266 
   63800     307.4487   -29219.095    148.46428   -29367.559    4336.7727 
   64000    324.48703   -29196.528    156.69194    -29353.22   -18580.738 
   64200    314.44646   -29209.811    151.84344   -29361.654    18713.935 
   64400     289.2604   -29220.771    139.68131   -29360.452   -46360.307 
   64600    341.27436   -29197.034     164.7984   -29361.833    14641.846 
   64800    285.55615   -29206.522    137.89256   -29344.414   -5674.3409 
   65000    283.21477    -29217.76    136.76193   -29354.522   -13177.338 
   65200    336.24003    -29195.43    162.36736   -29357.797   -2051.4679 
   65400    290.38814   -29213.897    140.22589   -29354.123   -42989.293 
   65600    273.22549   -29216.652    131.93819    -29348.59    1012.2588 
   65800    286.33344   -29218.694    138.26791   -29356.962   -12904.425 
   66000     339.2942   -29194.742    163.84219   -29358.584   -13275.997 
   66200    292.80769   -29221.097    141.39426   -29362.491   -1642.1309 
   66400    259.10008   -29219.826    125.11716   -29344.943    277.97258 
   66600    300.91949   -29199.742    145.31138   -29345.053   -59380.422 
   66800    289.60151   -29220.196    139.84603   -29360.042    3345.4482 
   67000     297.8874   -29225.306    143.84721   -29369.154    29164.142 
   67200    288.78097   -29199.383    139.44979   -29338.833    15711.459 
   67400    336.04139   -29211.643    162.27144   -29373.914    1945.7935 
   67600    306.12858   -29221.235     147.8268   -29369.062    17592.481 
   67800    254.62874   -29212.392    122.95799    -29335.35   -16642.948 
   68000    326.18188   -29192.746    157.51037   -29350.256   -6800.3737 
   68200    281.69963    -29226.89    136.03028    -29362.92   -2746.5693 
   68400    294.83772   -29203.172    142.37455   -29345.546   -42228.366 
   68600    282.08443   -29198.856     136.2161   -29335.073    17407.791 
   68800    308.14207   -29211.501     148.7991     -29360.3   -9305.0116 
   69000    322.65003   -29175.551    155.80487   -29331.356   -10422.483 
   69200    318.82082   -29197.016    153.95578   -29350.971    37232.389 
   69400    277.63537   -29205.898    134.06769   -29339.966   -10313.626 
   69600    340.11121   -29169.355    164.23672   -29333.591   -11311.375 
   69800    290.29664   -29194.613     140.1817   -29334.795    -30558.97 
   70000    278.96792   -29200.388    134.71116     -29335.1    40440.259 
   70200    337.82051   -29164.754    163.13056   -29327.885    20418.479 
   70400    301.26207   -29192.486    145.47681   -29337.963   -26853.168 
   70600    286.07877   -29204.071    138.14493   -29342.216   -17683.939 
   70800    298.41308   -29197.399    144.10106     -29341.5   -8584.8389 
   71000    302.75023   -29179.956    146.19543   -29326.151   -21764.302 
   71200    269.00151   -29199.362    129.89847    -29329.26   -38300.164 
   71400    333.77749   -29210.288    161.17822   -29371.466    1214.0009 
   71600     330.6694    -29178.54    159.67735   -29338.218   -180.50321 
   71800    280.04673   -29190.994    135.23211   -29326.227    30570.965 
   72000    297.90371   -29205.963    143.85509   -29349.818    2990.0676 
   72200    277.29312   -29223.166    133.90242   -29357.069    25776.838 
   72400    296.37087   -29192.543     143.1149   -29335.658   -14541.872 
   72600    291.88879   -29199.287    140.95054   -29340.238   -22893.811 
   72800    269.89477   -29217.667    130.32982   -29347.997    35794.106 
   73000    277.58736   -29194.257     134.0445   -29328.302   -14172.188 
   73200    296.42059    -29194.83     143.1389   -29337.969   -11324.678 
   73400    289.79506   -29219.737    139.93949   -29359.676    13401.695 
   73600    301.25162   -29194.512    145.47176   -29339.983   -1537.0977 
   73800    303.00819   -29194.599       146.32   -29340.919   -11829.321 
   74000    283.80204   -29228.286    137.04551   -29365.332   -16608.509 
   74200    285.98407   -29215.143     138.0992   -29353.242    4703.4708 
   74400    318.17781   -29200.746    153.64528   -29354.392    17425.379 
   74600    284.57328   -29221.641    137.41794   -29359.059   -29046.601 
   74800    281.44733   -29220.286    135.90845   -29356.194    25891.717 
   75000    315.39067   -29199.752    152.29939   -29352.051   -38677.793 
   75200    277.61496   -29224.676    134.05783   -29358.734    9969.0128 
   75400    303.78819    -29205.98    146.69665   -29352.676   -26184.532 
   75600    332.71387   -29201.248    160.66461   -29361.912    66745.756 
   75800    287.28136   -29220.719    138.72565   -29359.444    5622.7493 
   76000    300.54375   -29200.145    145.12994   -29345.275   -56034.507 
   76200    285.82438   -29207.358    138.02208    -29345.38    280.28253 
   76400    298.15097   -29225.853    143.97449   -29369.828   -10004.182 
   76600    304.25133   -29217.076     146.9203   -29363.996   -3430.6247 
   76800    308.91407   -29198.928     149.1719     -29348.1    1855.4372 
   77000    256.47625   -29229.236    123.85013   -29353.087    3127.9338 
   77200    289.23644   -29221.924    139.66974   -29361.594    1004.2361 
   77400     317.9548   -29210.424    153.53758   -29363.962   -3505.5735 
   77600    297.92733   -29189.453     143.8665    -29333.32   -8277.9512 
   77800    280.86311   -29222.636    135.62633   -29358.262    9640.4971 
   78000    293.39372   -29201.184    141.67725   -29342.862   -4207.7223 
   78200    311.27791   -29200.508    150.31337   -29350.821    35846.184 
   78400    309.72674    -29212.78    149.56433   -29362.344   -10440.898 
   78600    304.81244    -29212.31    147.19125   -29359.501   -46446.544 
   78800    327.07292   -29188.505    157.94065   -29346.446     10831.52 
   79000    287.17591   -29220.474    138.67473   -29359.148      4231.06 
   79200    294.01316   -29204.601    141.97638   -29346.577   -19164.808 
   79400     298.7616   -29196.469    144.26935   -29340.739   -1199.9352 
   79600    261.62172   -29224.874    126.33484   -29351.209    33396.196 
   79800    283.91439   -29212.856    137.09977   -29349.955    10343.123 
   80000    294.70174   -29201.755    142.30888   -29344.063    46341.484 
   80200     304.1669   -29188.998    146.87953   -29335.878   -5815.0135 
   80400    307.96801   -29193.856    148.71505   -29342.571    3815.9393 
   80600     289.2652    -29213.13    139.68363   -29352.814    22057.735 
   80800    329.52045   -29175.811    159.12254   -29334.934    5231.3265 
   81000     286.3888   -29188.133    138.29464   -29326.427   -11771.569 
   81200    290.64976   -29204.288    140.35222    -29344.64    -12545.45 
   81400    265.03336   -29228.131    127.98228   -29356.113    15169.112 
   81600     288.3645   -29190.632    139.24869   -29329.881    5835.4962 
   81800    304.37346   -29180.891    146.97927    -29327.87   -25266.912 
   82000    303.35442   -29210.175    146.48719   -29356.662   -39378.849 
   82200     304.5927   -29197.771    147.08514   -29344.856   -29404.269 
   82400    282.83435   -29190.664    136.57823   -29327.243    6536.2527 
   82600    288.81551   -29211.756    139.46648   -29351.222   -45381.898 
   82800    323.85247    -29185.72    156.38552   -29342.106    787.55335 
   83000    294.06179   -29182.138    141.99986   -29324.137    8854.8749 
   83200    273.98035   -29204.562    132.30271   -29336.864    15394.054 
   83400     312.8602    -29191.71    151.07745   -29342.788   -11868.256 
   83600    294.49538   -29189.732    142.20923   -29331.941   -1827.2603 
   83800    263.04191   -29213.355    127.02063   -29340.376   -118.03222 
   84000     313.7104   -29190.772      151.488    -29342.26   -36649.779 
   84200     322.7171   -29181.771    155.83726   -29337.608    9048.5348 
   84400    313.21726   -29195.772    151.24986   -29347.022   -8365.8216 
   84600    274.47775   -29199.615     132.5429   -29332.158    32328.964 
   84800    310.01879   -29179.555    149.70536   -29329.261     40329.91 
   85000    307.42121   -29203.209    148.45101    -29351.66   -13191.714 
   85200    297.89425    -29208.74    143.85052   -29352.591   -24775.691 
   85400    301.48578   -29173.771    145.58484   -29319.356    16687.079 
   85600    312.66007   -29186.324    150.98081   -29337.305    11108.918 
   85800    305.35497   -29206.494    147.45324   -29353.947   -30021.225 
   86000     280.0705   -29214.805    135.24359   -29350.049   -368.17696 
   86200    318.76971   -29194.678     153.9311   -29348.609   -20297.776 
   86400    300.37263   -29220.714    145.04731   -29365.761   -59320.529 
   86600    285.00881   -29215.883    137.62825   -29353.511    9401.2253 
   86800    301.50021   -29189.927    145.59181   -29335.518    31679.248 
   87000    288.16242   -29217.756    139.15111   -29356.907   -38624.498 
   87200    301.58838   -29217.031    145.63439   -29362.665   -13974.769 
   87400    322.75216   -29191.255    155.85419   -29347.109    6762.3163 
   87600    307.79367   -29217.488    148.63086   -29366.119   -17885.311 
   87800    301.25878   -29206.903    145.47522   -29352.378   -31595.325 
   88000    319.59259     -29191.3    154.32846   -29345.629    29005.919 
   88200    320.67206   -29223.814    154.84973   -29378.664   -6726.9017 
   88400    318.86149   -29200.867    153.97542   -29354.842    40885.086 
   88600    307.88067   -29198.719    148.67288   -29347.392    9246.4168 
   88800    293.10509   -29225.537    141.53788   -29367.075    9525.9246 
   89000    329.31835   -29201.275    159.02494     -29360.3    26400.014 
   89200    288.58645   -29201.407    139.35586   -29340.763   -11539.928 
   89400    311.28018   -29210.024    150.31447   -29360.339   -11757.625 
   89600    307.24726   -29210.181    148.36701   -29358.548    26293.937 
   89800    297.60553   -29205.647     143.7111   -29349.358   -472.27073 
   90000    321.96364   -29203.078    155.47342   -29358.551    25585.165 
   90200    290.26369   -29228.649    140.16579   -29368.815   -8423.7326 
   90400     296.7671   -29197.168    143.30623   -29340.474    6285.3129 
   90600    285.73675   -29204.165    137.97977   -29342.144    17736.932 
   90800    303.93981   -29225.391    146.76987   -29372.161   -2558.6873 
   91000    302.36496   -29192.729    146.00939   -29338.738     14212.11 
   91200    303.18916   -29190.259    146.40739   -29336.667    36644.391 
   91400    289.71144   -29216.017    139.89911   -29355.917   -3057.7752 
   91600    291.21278   -29189.988     140.6241   -29330.612    61899.322 
   91800    310.08794   -29194.322    149.73875   -29344.061    24003.757 
   92000     311.4108   -29209.417    150.37754   -29359.795    36245.707 
   92200    282.83191   -29196.166    136.57705   -29332.743    9201.4713 
   92400    294.71317   -29190.648    142.31441   -29332.962    -35588.97 
   92600     299.4298   -29220.652    144.59202   -29365.244    31349.532 
   92800    272.60088   -29204.996    131.63657   -29336.633    29614.729 
   93000    308.04288   -29199.466    148.75121   -29348.218   -6829.2422 
   93200    293.64636   -29207.294    141.79925   -29349.094    24133.884 
   93400    282.40306   -29215.961    136.36996   -29352.331   -3745.6198 
   93600    307.86832   -29188.221    148.66691   -29336.888   -18270.026 
   93800    296.05586   -29192.097    142.96278    -29335.06    -28692.78 
   94000    279.77608   -29219.872    135.10141   -29354.973   -18081.027 
   94200    308.90815   -29190.835    149.16904   -29340.004    13330.066 
   94400    318.90607   -29197.942    153.99695   -29351.938    32767.826 
   94600    280.22369   -29224.721    135.31756   -29360.038   -12277.433 
   94800    261.62624   -29239.132    126.33702   -29365.469   -13264.803 
   95000    289.03898   -29208.117    139.57439   -29347.691   -18061.697 
   95200    330.05905   -29192.622    159.38262   -29352.005    49890.169 
   95400    284.27757   -29220.998    137.27515   -29358.273    16766.413 
   95600    311.80926   -29214.751    150.56995    -29365.32   -2024.6604 
   95800    331.03327   -29197.187    159.85306    -29357.04    12259.413 
   96000    292.43628   -29213.816    141.21492   -29355.031   -15123.207 
   96200    282.86612   -29219.438    136.59357   -29356.031   -6688.5331 
   96400    326.46794   -29197.542     157.6485    -29355.19    45284.561 
   96600    306.92749   -29222.651    148.21259   -29370.863   -7854.1071 
   96800    287.47252   -29210.403    138.81796   -29349.221   -25441.399 
   97000    348.11156   -29178.154    168.10002   -29346.254    32542.134 
   97200    298.13381   -29212.735     143.9662   -29356.701   -38462.942 
   97400    303.51609   -29214.681    146.56526   -29361.246   -33550.229 
   97600    308.89921   -29194.651    149.16472   -29343.816    4743.3769 
   97800    299.55609   -29226.391    144.65301   -29371.044    44634.409 
   98000    302.97787   -29212.578    146.30536   -29358.884   -47867.163 
   98200    297.94256   -29208.969    143.87385   -29352.843    35007.391 
   98400    293.56822     -29226.4    141.76152   -29368.162   -9430.5042 
   98600    319.63891   -29201.187    154.35083   -29355.537    3067.4978 
   98800    279.16199   -29228.086    134.80488   -29362.891   -21033.348 
   99000     274.0325   -29220.882    132.32789    -29353.21    31799.751 
   99200    300.72846   -29197.485    145.21913   -29342.704   -8664.4267 
   99400     292.1284   -29213.538    141.06624   -29354.605    19258.882 
   99600    260.62081   -29223.962     125.8515   -29349.814   -2006.5681 
   99800    308.57444   -29200.222    149.00789    -29349.23    22959.288 
  100000    291.24725   -29211.875    140.64074   -29352.516    2986.5508 
  100200    272.77403   -29231.456    131.72019   -29363.176   -7907.5399 
  100400    264.38176   -29206.361    127.66763   -29334.029     6707.378 
  100600    330.30559   -29188.145    159.50167   -29347.647    2187.7429 
  100800    299.38565   -29224.418    144.57071   -29368.989   -21371.324 
  101000    283.66572   -29205.713    136.97969   -29342.693   -20460.327 
  101200    306.30921   -29196.887    147.91403   -29344.801    30595.269 
  101400    277.43747   -29211.934    133.97212   -29345.906   -13643.157 
  101600    299.18842   -29195.498    144.47546   -29339.974   -601.99543 
  101800    315.22469   -29191.946    152.21924   -29344.165    44749.112 
  102000     281.9739   -29219.688    136.16272    -29355.85   -33209.073 
  102200    300.74965   -29193.582    145.22937   -29338.811   -99.600021 
  102400    304.68137   -29197.912    147.12796    -29345.04   -28389.565 
  102600    306.58548   -29202.288    148.04744   -29350.335    42108.063 
  102800    318.42818   -29180.595    153.76618   -29334.361    14420.229 
  103000    326.19663   -29188.599    157.51749   -29346.116   -107.41899 
  103200    278.04935   -29207.106    134.26759   -29341.373   -7777.5873 
  103400    291.36367   -29193.104    140.69696   -29333.801    5773.4842 
  103600     306.2272   -29192.161    147.87443   -29340.035    11132.042 
  103800    293.96589   -29208.572    141.95355   -29350.526    18074.246 
  104000    282.19616   -29220.367    136.27005   -29356.637    7785.0672 
  104200    320.88892   -29186.697    154.95444   -29341.652    12106.064 
  104400    289.52857     -29209.5    139.81081   -29349.311   -61275.968 
  104600    275.63174   -29207.529    133.10015    -29340.63   -16252.073 
  104800    334.92611   -29196.835    161.73288   -29358.568   -15406.762 
  105000     268.8653   -29213.444     129.8327   -29343.277   -22000.962 
  105200     293.0381   -29215.144    141.50553    -29356.65   -13631.025 
  105400    316.28882   -29190.766     152.7331   -29343.499   -11731.689 
  105600    313.75043   -29207.786    151.50733   -29359.294    33667.274 
  105800    281.60671    -29221.03    135.98541   -29357.015    33939.068 
  106000    312.24203   -29194.598    150.77894   -29345.377    28820.362 
  106200    289.82497     -29208.7    139.95394   -29348.654    5737.0458 
  106400    295.15883   -29217.442    142.52961   -29359.972   -17920.098 
  106600    304.48136   -29188.778    147.03138   -29335.809   -10798.996 
  106800    295.63783   -29199.453    142.76092   -29342.214    25966.918 
  107000    299.57533   -29215.587     144.6623   -29360.249    4065.4175 
  107200    312.39816   -29200.089    150.85433   -29350.943   -34112.032 
  107400     318.1308   -29199.469    153.62257   -29353.091    14409.212 
  107600    293.35042   -29233.202    141.65634   -29374.858    16262.226 
  107800    298.07244   -29203.783    143.93656    -29347.72   -23489.371 
  108000    294.11985   -29193.255     142.0279   -29335.283   -17523.557 
  108200    290.94432   -29218.011    140.49446   -29358.505    5377.7962 
  108400    305.29225   -29198.522    147.42295   -29345.945   -19243.745 
  108600    306.42615   -29193.574     147.9705   -29341.544   -18423.616 
  108800    279.47522   -29211.742    134.95613   -29346.698    13639.713 
  109000    285.00394   -29203.162     137.6259   -29340.788   -18367.992 
  109200    327.56168   -29192.088    158.17666   -29350.264    14891.591 
  109400    293.01449   -29216.641    141.49413   -29358.136   -31625.445 
  109600    289.90128   -29202.068    139.99078   -29342.059    7887.1664 
  109800    311.94579   -29187.725    150.63589   -29338.361    315.06219 
  110000    310.30679   -29197.745    149.84442   -29347.589    7919.1725 
  110200    276.00933   -29216.724    133.28249   -29350.006    5918.6025 
  110400    332.43582   -29184.232    160.53034   -29344.763    9220.0889 
  110600    303.64465   -29204.077    146.62734   -29350.704   -28757.291 
  110800    300.90134   -29215.098    145.30262   -29360.401   -23815.573 
  111000    298.27012   -29216.324    144.03203   -29360.356    46252.808 
  111200    315.82718   -29192.235    152.51017   -29344.745   -14985.075 
  111400    283.98747   -29225.354    137.13506   -29362.489    43707.934 
  111600     287.5925   -29215.212    138.87589   -29354.088    15577.621 
  111800    309.10083   -29197.268    149.26208   -29346.531    25954.319 
  112000    281.52103   -29214.968    135.94403   -29350.913   -27379.413 
  112200     306.0609    -29214.11    147.79412   -29361.904   -14142.503 
  112400    318.06937   -29192.911    153.59291   -29346.504    38031.462 
  112600    270.41393   -29230.178    130.58051   -29360.759    32360.065 
  112800    294.10531   -29209.524    142.02088   -29351.545   -408.81331 
  113000    321.07304   -29205.588    155.04335   -29360.632   -29539.934 
  113200    270.09066   -29232.888    130.42441   -29363.312   -20007.862 
  113400    264.90974   -29211.618    127.92259   -29339.541    27235.675 
  113600     292.5934   -29207.845    141.29079   -29349.135   -38884.113 
  113800    315.33707   -29197.594     152.2735   -29349.868    44926.278 
  114000    315.23905    -29203.19    152.22617   -29355.416   -12302.225 
  114200    294.75101   -29220.719    142.33268   -29363.052    7021.7588 
  114400    329.55987   -29182.115    159.14157   -29341.257    32928.286 
  114600    283.28929   -29209.999    136.79792   -29346.797    16828.595 
  114800     292.0959   -29208.977    141.05055   -29350.027    5929.5334 
  115000    329.16081   -29174.509    158.94887   -29333.458   -24521.257 
  115200    324.77358   -29200.688    156.83031   -29357.518    15373.694 
  115400    309.13596   -29203.708    149.27904   -29352.987     13240.76 
  115600    309.46737   -29180.328    149.43908   -29329.767    64727.346 
  115800    296.28323   -29203.653    143.07257   -29346.725    25436.672 
  116000    293.75562   -29206.612    141.85201   -29348.464    73316.229 
  116200    314.58268   -29187.168    151.90922   -29339.077   -11497.634 
  116400    310.35856   -29199.705    149.86942   -29349.574    3572.6845 
  116600    256.07732   -29228.913    123.65749   -29352.571   -25034.449 
  116800    270.60688   -29202.738    130.67369   -29333.412    7578.9269 
  117000    297.93575   -29185.769    143.87056    -29329.64    38594.544 
  117200    306.36108   -29190.246    147.93908   -29338.185    21561.922 
  117400    288.86597   -29208.059    139.49084    -29347.55    16247.954 
  117600     322.4539   -29186.106    155.71016   -29341.816    17911.001 
  117800    313.23563   -29193.089    151.25874   -29344.348   -4275.3584 
  118000    281.78405   -29194.736    136.07104   -29330.807    45577.557 
  118200    301.23134   -29203.616    145.46197   -29349.078   -11416.477 
  118400    290.50002   -29204.528    140.27991   -29344.808   -7456.4335 
  118600    319.49827   -29179.091    154.28291   -29333.374     48086.83 
  118800    292.24074   -29202.012    141.12049   -29343.132    27639.573 
  119000    285.52025   -29218.231    137.87522   -29356.106    11552.237 
  119200    283.65946    -29190.66    136.97666   -29327.637    17981.376 
  119400    304.62865   -29188.461     147.1025   -29335.563   -33646.193 
  119600    295.28952     -29218.2    142.59272   -29360.793   -14880.546 
  119800    307.73396   -29194.721    148.60203   -29343.324   -26913.078 
  120000    324.20052   -29194.647    156.55359   -29351.201    19699.967 
  120200    286.22877   -29231.848    138.21736   -29370.065   -20436.876 
  120400    276.24331   -29208.908    133.39547   -29342.304   -15429.867 
  120600    304.98384   -29201.009    147.27402   -29348.283    -14587.22 
  120800    272.16044   -29216.846    131.42389    -29348.27    19871.697 
  121000    280.80483   -29211.236    135.59819   -29346.834    43520.195 
  121200    298.28242   -29193.164    144.03797   -29337.202   -22567.146 
  121400    297.48855   -29208.414    143.65461   -29352.068    1329.9411 
  121600    291.64069   -29233.474    140.83073   -29374.305   -13142.959 
  121800    317.10022   -29207.438    153.12492   -29360.563   -2453.4927 
  122000    310.33299   -29208.217    149.85708   -29358.074   -49011.383 
  122200    283.55804   -29237.195    136.92769   -29374.123   -2928.6291 
  122400    291.57362   -29209.888    140.79834   -29350.686   -7491.8104 
  122600    321.96147   -29208.406    155.47237   -29363.878   -33222.732 
  122800    273.17831   -29236.349    131.91541   -29368.265   -23776.956 
  123000    288.03834   -29226.056    139.09119   -29365.147   -1898.6889 
  123200    315.32821   -29202.133    152.26923   -29354.403    7406.3818 
  123400     281.4947   -29229.665    135.93132   -29365.596    11169.128 
  123600    298.47727   -29216.197    144.13205   -29360.329    12378.757 
  123800    301.79455   -29203.034    145.73394   -29348.768    45287.815 
  124000    286.20891   -29225.642    138.20777   -29363.849   -5948.7865 
  124200    308.12544   -29205.016    148.79107   -29353.808   -4071.3902 
  124400    301.75158   -29205.653    145.71319   -29351.366    34633.601 
  124600    287.98625   -29217.632    139.06603   -29356.698    7249.6846 
  124800    337.12877   -29182.808    162.79653   -29345.605    27333.155 
  125000    293.87873   -29211.761    141.91146   -29353.673   -3193.4897 
  125200     286.8676   -29210.051    138.52585   -29348.577    18953.458 
  125400    313.35155   -29211.165    151.31472   -29362.479    1156.7453 
  125600    303.29626   -29209.166     146.4591   -29355.625    -371.3977 
  125800    282.89372   -29204.331     136.6069   -29340.938    34539.151 
  126000     296.9768   -29216.217    143.40749   -29359.624    47556.354 
  126200    309.35331   -29206.043      149.384   -29355.427   -13543.051 
  126400    317.00552   -29187.981    153.07919   -29341.061   -35657.514 
  126600    286.58606   -29201.347     138.3899   -29339.736    -45299.51 
  126800    289.93713   -29215.287     140.0081   -29355.295    3071.4754 
  127000    306.60831   -29187.586    148.05847   -29335.645    23079.384 
  127200    283.67577   -29204.157    136.98454   -29341.141    10776.599 
  127400    266.59006   -29232.411      128.734   -29361.145    69949.908 
  127600    293.11273    -29208.51    141.54157   -29350.052   -2648.3088 
  127800    295.37565   -29187.558    142.63431   -29330.192   -25821.379 
  128000    306.08666   -29208.205    147.80657   -29356.011     20358.51 
  128200    311.00549   -29214.029    150.18182    -29364.21    6093.8889 
  128400    320.72623   -29193.444    154.87588    -29348.32    33493.877 
  128600    301.96303   -29221.652     145.8153   -29367.467   -8690.1551 
  128800    312.69922   -29215.487    150.99971   -29366.487    -14263.81 
  129000     276.5952   -29198.355    133.56539    -29331.92    60302.197 
  129200    320.38072   -29210.779    154.70904   -29365.488    18153.022 
  129400    243.98569   -29242.433    117.81855   -29360.252    4234.2528 
  129600    282.25836   -29222.889    136.30009   -29359.189   -37206.585 
  129800    317.02864    -29201.29    153.09035    -29354.38   -58975.219 
  130000    317.32457   -29197.138    153.23325   -29350.371    14541.122 
  130200    282.97432   -29220.603    136.64582   -29357.249     13048.73 
  130400    323.25178    -29189.76    156.09545   -29345.856   -5398.2409 
  130600    290.36211   -29204.491    140.21332   -29344.704   -14571.835 
  130800    294.64463   -29212.012    142.28131   -29354.294      8032.02 
  131000    275.32712   -29201.909    132.95305   -29334.862    38486.247 
  131200    307.20623   -29198.671    148.34719   -29347.019     40444.02 
  131400    302.16406   -29207.937    145.91238   -29353.849   -4811.2372 
  131600    281.04763    -29214.26    135.71544   -29349.975    -2939.863 
  131800    335.30529   -29197.296    161.91598   -29359.212   -885.33713 
  132000    295.47882    -29198.18    142.68413   -29340.865   -17902.632 
  132200    294.90027   -29221.327    142.40475   -29363.731   -11361.298 
  132400    324.29824   -29186.736    156.60078   -29343.337    16217.464 
  132600    274.09344   -29201.145    132.35732   -29333.503   -46194.166 
  132800     287.5568    -29214.67    138.85866   -29353.529   -8073.1394 
  133000    289.13558   -29196.901    139.62104   -29336.522    27009.325 
  133200    310.13371   -29193.301    149.76085   -29343.062    10867.874 
  133400    292.87996   -29217.544    141.42917   -29358.973   -36359.305 
  133600    325.96462     -29182.4    157.40546   -29339.805   -10837.336 
  133800    291.42952   -29204.849    140.72876   -29345.578     34454.75 
  134000    290.06692   -29209.785    140.07077   -29349.856   -13385.669 
  134200    322.38573   -29182.907    155.67724   -29338.584    27180.562 
  134400     292.3155   -29215.559    141.15659   -29356.715   -47113.226 
  134600    314.10668   -29207.688    151.67936   -29359.367   -8586.6713 
  134800    314.34499    -29175.22    151.79444   -29327.015    33406.256 
  135000    289.80081   -29205.323    139.94227   -29345.265    43845.598 
  135200    289.65226   -29220.483    139.87053   -29360.353     5834.316 
  135400    306.06922   -29202.363    147.79814   -29350.161   -19567.495 
  135600    300.49068    -29194.94    145.10431   -29340.044   -540.10804 
  135800    254.26507   -29225.612    122.78237   -29348.394    10725.331 
  136000    293.58917   -29205.859    141.77164   -29347.631    36951.312 
  136200    311.84852   -29196.185    150.58892   -29346.774    15827.938 
  136400    271.96977    -29229.71    131.33182   -29361.042   -963.89063 
  136600    285.42171   -29204.219    137.82764   -29342.047    12130.208 
  136800    267.86546    -29194.39    129.34988    -29323.74    35238.152 
  137000    296.46835   -29228.102    143.16197   -29371.264    6910.6522 
  137200    314.57257   -29202.786    151.90433    -29354.69    2906.2226 
  137400    315.98096   -29198.061    152.58443   -29350.646   -39026.118 
  137600    293.00419   -29210.787    141.48915   -29352.276   -32375.243 
  137800    306.52484   -29208.425    148.01816   -29356.444    24881.219 
  138000     318.8758   -29185.723    153.98233   -29339.705    342.54269 
  138200    288.29013   -29207.694    139.21278   -29346.907    54011.728 
  138400    298.88521    -29216.25    144.32904   -29360.579   -16554.023 
  138600    293.29998   -29194.974    141.63199   -29336.606   -11228.164 
  138800    293.75869   -29189.731     141.8535   -29331.584   -30831.403 
  139000    303.85789   -29218.137    146.73031   -29364.867    3327.9617 
  139200    300.84127   -29189.979    145.27361   -29335.253    -4743.503 
  139400    291.74508   -29198.494    140.88114   -29339.375    14840.092 
  139600    307.29216   -29210.559    148.38869   -29358.948   -33288.635 
  139800    325.53692   -29182.214    157.19892   -29339.413    29466.586 
  140000    293.68455   -29189.744    141.81769   -29331.561    11732.522 
  140200    301.00243   -29205.853    145.35143   -29351.204   -23807.375 
  140400    289.43978   -29201.197    139.76793   -29340.965    7073.3853 
  140600    301.93239   -29199.389     145.8005   -29345.189   -7476.4068 
  140800    316.70531   -29194.766    152.93422     -29347.7   -18620.229 
  141000    324.12991   -29172.638    156.51949   -29329.157   -34725.702 
  141200    286.13697    -29205.48    138.17303   -29343.653    16079.165 
  141400    312.76065   -29205.205    151.02938   -29356.235    409.17044 
  141600    322.66107   -29177.661     155.8102   -29333.471     22750.71 
  141800     299.2526   -29209.576    144.50645   -29354.083    16957.027 
  142000    317.68874   -29211.725     153.4091   -29365.134    -9735.119 
  142200     312.3046   -29196.027    150.80915   -29346.836    987.18705 
  142400    311.42036   -29202.874    150.38216   -29353.256    25731.822 
  142600    286.28213   -29222.909    138.24313   -29361.152    9212.3579 
  142800     333.7329   -29194.049    161.15669   -29355.206   -6144.0143 
  143000    318.89351   -29190.788    153.99088   -29344.779   -23351.476 
  143200    307.65821   -29216.411    148.56545   -29364.976   -36586.832 
  143400    268.54709   -29236.979    129.67903   -29366.658   -23631.869 
  143600    311.97107   -29208.902    150.64809    -29359.55   -13635.224 
  143800    300.75416   -29214.988    145.23155    -29360.22    40686.789 
  144000    304.74839   -29232.955    147.16033   -29380.115     6578.014 
  144200    319.34046   -29192.267    154.20671   -29346.473    -6694.601 
  144400    288.45208   -29219.619    139.29098    -29358.91     -32475.4 
  144600    289.35251   -29211.286    139.72579   -29351.012    6991.1974 
  144800    296.89667   -29194.177     143.3688   -29337.546   -31402.509 
  145000    306.92252   -29212.057    148.21019   -29360.268   -2798.4899 
  145200     292.1529   -29208.365    141.07807   -29349.444    4312.4788 
  145400    309.94819   -29193.015    149.67126   -29342.686   -16859.549 
  145600    311.83607   -29213.294     150.5829   -29363.877   -8879.3091 
  145800    292.97209   -29215.199    141.47365   -29356.672   -3879.9781 
  146000    302.09992   -29194.736     145.8814   -29340.617    4980.0715 
  146200    302.53471   -29207.031    146.09136   -29353.122   -33407.154 
  146400     289.3887   -29221.133    139.74326   -29360.877   -17007.722 
  146600    279.57074   -29228.075    135.00226   -29363.077    8761.4524 
  146800     335.4619   -29197.447    161.99161   -29359.438    13035.701 
  147000    291.65627   -29222.674    140.83826   -29363.512    67803.657 
  147200    293.56332   -29193.239    141.75915   -29334.998   -7851.8358 
  147400    295.25953   -29203.879    142.57824   -29346.457    7128.5969 
  147600    271.68424   -29212.292    131.19394   -29343.486   -23121.683 
  147800    311.46228   -29184.226     150.4024   -29334.629    14891.101 
  148000    284.68914    -29213.78    137.47389   -29351.253    21378.282 
  148200    299.82574    -29203.49    144.78322   -29348.273   -5005.0307 
  148400    319.02754   -29188.159     154.0556   -29342.215   -21395.946 
  148600    299.13474   -29224.543    144.44954   -29368.992   -10650.248 
  148800    291.39506   -29199.894    140.71212   -29340.607    6962.1769 
  149000    306.92211   -29198.052    148.20999   -29346.262   -28959.933 
  149200    287.37748   -29209.901    138.77207   -29348.673   -7121.3379 
  149400    300.13001   -29184.487    144.93015   -29329.417    -26099.13 
  149600    311.35004   -29183.862     150.3482    -29334.21   -37082.408 
  149800    294.09456   -29207.708    142.01568   -29349.724     38987.83 
  150000    294.74773   -29197.443    142.33109   -29339.775   -9262.2926 
  150200    308.55996   -29183.588     149.0009   -29332.589   -12169.351 
  150400    274.47496   -29213.731    132.54155   -29346.273    36781.555 
  150600    302.44211   -29197.051    146.04664   -29343.098    13371.421 
  150800    327.54184   -29172.992    158.16708   -29331.159   -10631.256 
  151000    303.53211   -29203.632    146.57299   -29350.205    10513.268 
  151200     274.3796   -29218.393     132.4955   -29350.889   -19291.704 
  151400    326.29082   -29186.308    157.56297   -29343.871   -17068.259 
  151600    273.08222   -29222.789    131.86901   -29354.658    5724.7338 
  151800    311.63245   -29202.602    150.48457   -29353.087   -1804.6331 
  152000    290.38642   -29196.753    140.22506   -29336.978   -8851.1922 
  152200    276.06617   -29230.176    133.30993   -29363.486    144.18305 
  152400    299.64021   -29207.623    144.69363   -29352.317   -10681.502 
  152600    300.76226   -29196.806    145.23545   -29342.041    33071.313 
  152800    286.64893    -29220.35    138.42025   -29358.771    12.311523 
  153000    284.75057   -29220.769    137.50355   -29358.273   -13286.872 
  153200    292.73525   -29201.297    141.35929   -29342.656    12456.654 
  153400    318.68964   -29183.123    153.89243   -29337.015    37918.769 
  153600    306.50339   -29184.732     148.0078    -29332.74   -14996.543 
  153800     303.9368   -29208.161    146.76841   -29354.929    5745.8287 
  154000    278.06531   -29209.021     134.2753   -29343.297   -3703.6753 
  154200    331.18173   -29182.781    159.92475   -29342.706    18074.783 
  154400    295.58086   -29216.406     142.7334    -29359.14    16202.194 
  154600    308.60083   -29211.654    149.02063   -29360.675    10479.893 
  154800    327.89373   -29188.202      158.337   -29346.539   -13632.397 
  155000    279.70604   -29230.003    135.06759    -29365.07    -14582.63 
  155200    302.20093   -29204.286    145.93018   -29350.216    20708.666 
  155400    296.11404   -29193.734    142.99087   -29336.725    14884.076 
  155600     280.8795   -29223.617    135.63425   -29359.251   -2106.6872 
  155800    273.93783   -29210.831    132.28218   -29343.113    29460.944 
  156000    318.52419   -29199.355    153.81254   -29353.168   -5527.6079 
  156200    310.19867   -29208.741    149.79222   -29358.533    3466.0896 
  156400    283.70099    -29222.42    136.99672   -29359.417    26574.294 
  156600     298.6232   -29189.388    144.20252    -29333.59    48541.018 
  156800    302.35304   -29203.094    146.00363   -29349.097   -14564.984 
  157000    278.99598   -29207.686    134.72471   -29342.411   -4256.6675 
  157200    311.92795   -29204.248    150.62727   -29354.875    14443.461 
  157400    276.94948    -29199.76    133.73648   -29333.497   -91318.958 
  157600     313.7753    -29184.28    151.51934   -29335.799   -12417.709 
  157800    261.34254   -29214.724    126.20002   -29340.924    14708.531 
  158000    304.23808    -29198.94     146.9139   -29345.854   -2857.9651 
  158200    289.26816   -29193.513    139.68506   -29333.198   -15704.498 
  158400    303.92812   -29205.465    146.76422   -29352.229   -21495.438 
  158600      286.581   -29226.452    138.38745   -29364.839   -8561.3802 
  158800    313.23695   -29193.918    151.25938   -29345.177   -67762.313 
  159000    296.48426   -29199.292    143.16965   -29342.462    10479.203 
  159200    271.21544    -29233.51    130.96756   -29364.477    10136.625 
  159400    305.94091   -29199.644    147.73618   -29347.381    51032.348 
  159600    291.41788   -29203.389    140.72314   -29344.112    15769.418 
  159800    267.47724   -29213.849    129.16241   -29343.012    43325.979 
  160000    314.66505   -29185.288    151.94899   -29337.237    637.67713 
  160200    292.99367   -29213.213    141.48407   -29354.698     16167.74 
  160400     284.6952   -29211.342    137.47682   -29348.819    17031.442 
  160600     289.4137   -29194.151    139.75534   -29333.906     32146.91 
  160800    317.60992   -29174.486    153.37105   -29327.857    13625.469 
  161000    270.09209   -29210.545     130.4251    -29340.97   -52096.947 
  161200    289.54585   -29215.805    139.81915   -29355.624    13765.876 
  161400    291.05567   -29207.377    140.54823   -29347.925   -29139.199 
  161600    326.08021   -29191.354    157.46127   -29348.815    23257.331 
  161800    276.49095   -29224.769    133.51505   -29358.284    3586.2552 
  162000    314.62285   -29208.296    151.92861   -29360.225   -28989.419 
  162200    321.05855    -29203.27    155.03636   -29358.307    -3972.345 
  162400    261.04524    -29235.24    126.05646   -29361.296   -31225.946 
  162600     300.0309   -29203.238    144.88229    -29348.12    -35439.19 
  162800    313.30616   -29202.874     151.2928   -29354.167    18144.816 
  163000    278.73503   -29230.526     134.5987   -29365.125    13471.812 
  163200    305.57126   -29196.987    147.55768   -29344.545    21614.108 
  163400     295.7304   -29206.282    142.80561   -29349.088   -13616.387 
  163600    282.97696   -29230.356    136.64709   -29367.003   -19790.244 
  163800    313.50589   -29202.793    151.38925   -29354.183    21461.995 
  164000    304.56827   -29201.927    147.07334       -29349    22573.752 
  164200     288.3454   -29226.613    139.23947   -29365.853   -13561.281 
  164400    336.56493   -29191.197    162.52425   -29353.721    -12450.05 
  164600    305.24551   -29212.069    147.40038   -29359.469    1852.9196 
  164800    311.57562    -29203.15    150.45713   -29353.607   -25789.776 
  165000    310.88386   -29194.091    150.12309   -29344.214    3974.8356 
  165200    275.07541   -29212.609     132.8315   -29345.441    -30475.71 
  165400    314.99363   -29184.573    152.10766    -29336.68   -2992.6388 
  165600    344.99634   -29193.598    166.59571   -29360.194   -562.08338 
  165800    284.99589   -29210.131    137.62202   -29347.753    40265.976 
  166000    283.29181   -29224.146    136.79913   -29360.945    4185.6059 
  166200    293.29723   -29227.971    141.63066   -29369.602    22616.183 
  166400     341.2604   -29199.983    164.79165   -29364.774   -5840.7894 
  166600    290.00353    -29219.41    140.04016    -29359.45    22225.265 
  166800    252.02439   -29253.419    121.70037   -29375.119   -18728.011 
  167000    319.41402     -29220.4    154.24223   -29374.642   -32451.559 
  167200    307.46701   -29202.744    148.47312   -29351.217    23444.187 
  167400    278.37187   -29233.535    134.42334   -29367.958    17576.434 
  167600    299.85368   -29221.743    144.79671    -29366.54   -27598.736 
  167800     295.1561   -29213.897    142.52829   -29356.425   -116.95705 
  168000    315.85281   -29216.318    152.52255    -29368.84    -19308.43 
  168200    263.23039   -29229.365    127.11165   -29356.477   -10702.448 
  168400    290.67964   -29207.425    140.36665   -29347.792   -16767.409 
  168600    309.62396   -29203.746    149.51469   -29353.261    59444.087 
  168800    275.18505   -29216.136    132.88445    -29349.02    20739.326 
  169000    298.41022   -29210.342    144.09968   -29354.442    5100.5328 
  169200    297.09854   -29208.269    143.46628   -29351.736   -12218.568 
  169400    290.50132   -29207.898    140.28054   -29348.178   -44939.994 
  169600    299.44195    -29201.47    144.59789   -29346.068   -11305.686 
  169800    276.11872    -29225.39    133.33531   -29358.726    4712.2824 
  170000    290.90102   -29205.708    140.47355   -29346.182   -33287.628 
  170200    292.37334   -29201.761    141.18452   -29342.945   -18240.626 
  170400    289.21617   -29223.752    139.65995   -29363.412   -8953.3019 
  170600    321.48034   -29190.699    155.24004   -29345.939   -12036.973 
  170800    304.96277   -29209.642    147.26385   -29356.906    43807.073 
  171000    292.82439   -29220.246    141.40233   -29361.649   -35205.644 
  171200    315.88041   -29188.625    152.53588   -29341.161    63.535377 
  171400    295.99404   -29217.635    142.93292   -29360.568   -19448.339 
  171600    313.32815    -29209.92    151.30341   -29361.224    11997.895 
  171800    331.00394   -29192.037     159.8389   -29351.876   -23762.409 
  172000    296.04539   -29227.687    142.95772   -29370.645   -15020.283 
  172200    297.26478   -29205.665    143.54655   -29349.212     2665.641 
  172400    321.49452   -29196.243    155.24688    -29351.49   -3397.3274 
  172600    253.47873    -29230.75    122.40266   -29353.152   -2956.9221 
  172800    337.74625   -29209.051     163.0947   -29372.146   -27515.614 
  173000    293.68599   -29201.245    141.81839   -29343.063   -16938.395 
  173200    256.65571   -29230.234    123.93679   -29354.171   -1554.9152 
  173400    262.72362   -29215.177    126.86693   -29342.044   -13301.978 
  173600    308.58059   -29204.439    149.01086   -29353.449    27203.217 
  173800     309.7054   -29217.153    149.55402   -29366.707    6649.9833 
  174000    308.03278   -29221.672    148.74633   -29370.419   -4314.3236 
  174200    330.75316    -29192.25     159.7178   -29351.967   -12417.521 
  174400    267.06259   -29215.779    128.96218   -29344.741   -5495.2798 
  174600    269.53834   -29245.094     130.1577   -29375.252   -30156.724 
  174800    268.57323   -29219.775    129.69166   -29349.466   -41583.905 
  175000     296.0638   -29196.103    142.96661   -29339.069    25429.992 
  175200    310.85224   -29196.543    150.10782    -29346.65    27056.291 
  175400     258.1082   -29224.265    124.63818   -29348.903   -20261.091 
  175600    296.89834   -29200.208     143.3696   -29343.578     31060.45 
  175800    318.77242   -29200.149    153.93241   -29354.082   -24587.189 
  176000    272.46988   -29230.199    131.57331   -29361.773   -12542.702 
  176200    278.41843   -29229.527    134.44582   -29363.973   -13801.898 
  176400    318.21686   -29202.796    153.66413    -29356.46    33004.057 
  176600    285.49128    -29208.86    137.86123   -29346.721    8210.6523 
  176800    278.51715    -29227.88    134.49349   -29362.374   -36785.754 
  177000      293.173   -29209.599    141.57067    -29351.17   -47842.729 
  177200    313.39725   -29219.091    151.33678   -29370.428    22405.457 
  177400    263.27322   -29226.485    127.13233   -29353.618   -7578.7867 
  177600    293.75171   -29201.596    141.85012   -29343.446     -38382.2 
  177800    275.06057   -29220.922    132.82434   -29353.747   -79939.693 
  178000    280.85312   -29213.644    135.62151   -29349.266   -13358.546 
  178200    303.47165   -29198.267     146.5438   -29344.811   -3130.1551 
  178400    282.97604   -29221.692    136.64665   -29358.339   -17320.515 
  178600    300.62708   -29187.674    145.17018   -29332.844    10325.596 
  178800    324.95118   -29203.307    156.91607   -29360.223   -14486.585 
  179000    283.07368   -29217.951     136.6938   -29354.645    34203.089 
  179200    297.34257   -29184.174    143.58412   -29327.758    25030.198 
[...]
  950000    295.29127   -29209.135    142.59356   -29351.729    12875.849 
  950200    318.24796    -29193.48    153.67915   -29347.159   -26759.029 
  950400    288.61387     -29229.3    139.36911   -29368.669    2756.7569 
  950600    311.40876   -29206.242    150.37656   -29356.618    10058.264 
  950800    318.91805   -29214.165    154.00273   -29368.168    4170.2892 
  951000    296.07182   -29222.008    142.97048   -29364.978   -46888.208 
  951200    313.44465   -29208.361    151.35967   -29359.721    242.63225 
  951400    267.97766   -29231.683    129.40406   -29361.087    13530.885 
  951600    304.39533    -29231.23    146.98983    -29378.22   -16639.828 
  951800    325.83276   -29206.284    157.34178   -29363.625    21489.484 
  952000    305.04893   -29225.993    147.30545   -29373.298   -3516.7446 
  952200    287.72916   -29229.526    138.94189   -29368.468   -20765.112 
  952400    358.33169   -29195.839    173.03523   -29368.875    8614.7431 
  952600    326.74815     -29204.1    157.78382   -29361.884   -30303.101 
  952800    278.96617   -29230.902    134.71032   -29365.613   -31851.392 
  953000    317.29036   -29209.938    153.21673   -29363.155   -184.20224 
  953200    306.21646   -29203.339    147.86924   -29351.208   -8283.7593 
  953400    308.46349   -29216.505    148.95431    -29365.46   -2367.1765 
  953600    289.10104   -29216.648    139.60436   -29356.253    17242.023 
  953800     345.4521   -29186.584    166.81579     -29353.4    38177.523 
  954000    314.76976    -29218.84    151.99956    -29370.84    35103.374 
  954200    283.40169    -29221.42    136.85219   -29358.273   -12599.057 
  954400    329.68199   -29209.491    159.20054   -29368.691   -3602.6938 
  954600     295.6195   -29227.415    142.75206   -29370.167    -13364.71 
  954800    281.83007   -29229.025    136.09327   -29365.118   -30805.851 
  955000    311.92376   -29207.161    150.62525   -29357.786    -37233.96 
  955200    286.63782   -29231.459    138.41489   -29369.874    31096.569 
  955400    284.18238   -29217.662    137.22918   -29354.891    28826.299 
  955600    301.32451   -29206.427    145.50696   -29351.934    28550.488 
  955800    310.87125   -29228.688      150.117   -29378.805   -14493.074 
  956000    282.26518   -29215.996    136.30338   -29352.299    39965.239 
  956200    314.43012    -29203.96    151.83555   -29355.796    22941.709 
  956400    273.85716   -29221.176    132.24322   -29353.419    9637.2419 
  956600    322.22127    -29222.27    155.59783   -29377.867   -2808.3161 
  956800    283.07141   -29216.788     136.6927   -29353.481   -36812.982 
  957000    349.11161   -29183.468    168.58293   -29352.051    54874.327 
  957200    293.40998   -29220.648    141.68511   -29362.333    14851.738 
  957400    288.44706   -29229.469    139.28856   -29368.758   -13507.175 
  957600    319.95007   -29198.375    154.50108   -29352.876    30072.089 
  957800    294.06804   -29227.373    142.00288   -29369.376    20292.504 
  958000    292.95599   -29231.624    141.46588    -29373.09   -28332.899 
  958200    350.47731   -29209.055    169.24242   -29378.297   -18850.889 
  958400    293.11601   -29220.499    141.54315   -29362.042    -51018.71 
  958600    284.73034   -29237.272    137.49378   -29374.766   -4570.8985 
  958800       302.11   -29203.598    145.88627   -29349.484   -8826.9417 
  959000    316.91175   -29209.521     153.0339   -29362.555    48052.031 
  959200    288.62751   -29231.429    139.37569   -29370.804    25252.626 
  959400    275.40381    -29225.39    132.99009    -29358.38    21867.008 
  959600    305.50273   -29201.774    147.52459   -29349.299   -36171.836 
  959800      283.772   -29230.419    137.03101    -29367.45    24628.185 
  960000    311.37073   -29221.841    150.35819     -29372.2    -2516.358 
  960200    308.50304   -29215.236    148.97341   -29364.209   -62089.118 
  960400     290.1801   -29221.556    140.12543   -29361.682   -18377.336 
  960600    259.92627   -29247.506    125.51612   -29373.022   -20656.496 
  960800    279.76277   -29224.464    135.09499   -29359.559    -3500.371 
  961000    288.65827   -29219.883    139.39055   -29359.273     -3893.77 
  961200    272.44588   -29239.237    131.56173   -29370.799    3396.5868 
  961400    287.44851   -29218.593    138.80636   -29357.399    35136.903 
  961600    297.39241    -29214.05    143.60819   -29357.659    24977.547 
  961800    287.53576   -29240.306     138.8485   -29379.154   -14339.445 
  962000     290.5224   -29234.427    140.29072   -29374.718   -7540.5974 
  962200    298.26875   -29207.524    144.03136   -29351.555   -40990.899 
  962400    317.65988   -29214.956    153.39517   -29368.351    -1618.723 
  962600    263.71093   -29232.315    127.34369   -29359.659   -2486.8923 
  962800    319.59166   -29196.867    154.32801   -29351.195   -2564.5667 
  963000    328.38178   -29219.874    158.57268   -29378.447   -20183.743 
  963200     283.8559    -29223.26    137.07152   -29360.332    88.480245 
  963400     337.7921   -29193.399    163.11684   -29356.515   -6181.2449 
  963600    319.24849   -29220.671    154.16229   -29374.833   -31230.061 
  963800    308.62942   -29218.875    149.03444   -29367.909   -30312.407 
  964000    304.46982   -29210.145    147.02581   -29357.171    32843.541 
  964200    287.56523   -29223.866    138.86273   -29362.728   -44669.571 
  964400     274.2327   -29239.494    132.42457   -29371.919    19993.341 
  964600    316.88767   -29202.592    153.02228   -29355.614   -24972.094 
  964800    326.77582   -29224.733    157.79718    -29382.53    9302.4225 
  965000    296.54793   -29234.144    143.20039   -29377.345   -5625.4379 
  965200    290.35007   -29222.219     140.2075   -29362.427   -1558.4326 
  965400    331.72531   -29214.334    160.18724   -29374.521    14960.479 
  965600    280.71448   -29245.333    135.55456   -29380.887   -10227.921 
  965800    284.06902   -29219.164    137.17444   -29356.339    4157.0193 
  966000    342.62455   -29219.896    165.45039   -29385.346   -13622.187 
  966200    278.36591   -29249.442    134.42046   -29383.862    11752.188 
  966400    320.51364    -29214.45    154.77323   -29369.223    22491.669 
  966600    310.24105   -29221.499    149.81268   -29371.312    22192.482 
  966800    260.79706   -29240.045    125.93661   -29365.982   -2500.3778 
  967000    342.16147   -29200.598    165.22677   -29365.824    24526.982 
  967200    288.95404   -29221.857    139.53337    -29361.39   -61330.531 
  967400    300.15384   -29229.988    144.94166   -29374.929    -32573.26 
  967600    324.41435   -29196.098    156.65684   -29352.755    4305.2621 
  967800    311.66351   -29221.678    150.49958   -29372.177   -5864.4461 
  968000    303.01318   -29222.776    146.32241   -29369.098    8740.7801 
  968200    320.17486   -29197.655    154.60963   -29352.265   -34681.509 
  968400     328.7185   -29224.644    158.73528   -29383.379    30411.336 
  968600    286.50183   -29227.372    138.34922   -29365.721    -24635.35 
  968800    314.39463   -29198.594    151.81841   -29350.413   -6104.5101 
  969000    315.55419   -29210.205    152.37835   -29362.583   -15068.703 
  969200    272.29776    -29224.56     131.4902    -29356.05   -44885.236 
  969400    314.04988   -29195.899    151.65193   -29347.551     14022.28 
  969600    273.76914   -29217.258    132.20071   -29349.459    1680.6665 
  969800    275.30178   -29227.245    132.94082   -29360.186   -36904.703 
  970000    325.94649    -29198.08     157.3967   -29355.477   -4251.5261 
  970200    320.58107   -29201.365    154.80578   -29356.171    24675.684 
  970400    304.06335   -29221.654    146.82953   -29368.484   -17785.085 
  970600    264.86709   -29229.342    127.90199   -29357.244   -36652.814 
  970800    318.38361   -29197.298    153.74465   -29351.043   -39598.635 
  971000    299.41115   -29222.436    144.58302   -29367.019   -20782.729 
  971200    298.35269   -29224.719     144.0719   -29368.791    22348.539 
  971400    317.53119   -29206.698    153.33303   -29360.031   -15319.438 
  971600    321.53984   -29185.652    155.26877    -29340.92   -22740.376 
  971800     321.4454   -29217.719    155.22316   -29372.942   -4280.1258 
  972000     290.1821   -29221.681    140.12639   -29361.807    3142.1955 
  972200    296.67861   -29207.892     143.2635   -29351.156   -338.60976 
  972400    313.75115    -29209.75    151.50768   -29361.258   -351.10924 
  972600    276.06389    -29234.95    133.30883   -29368.259    41627.245 
  972800     312.8414   -29212.969    151.06837   -29364.038   -36580.266 
  973000    335.82982   -29197.952    162.16927   -29360.122   -16786.553 
  973200    300.38706   -29223.848    145.05428   -29368.902    16770.996 
  973400    287.57401   -29232.777    138.86697   -29371.644   -33772.112 
  973600      315.517   -29198.587    152.36039   -29350.947    22547.323 
  973800    295.24095   -29230.367    142.56926   -29372.936   -38454.888 
  974000    289.88186   -29225.734    139.98141   -29365.715   -19060.284 
  974200    311.08862   -29196.849    150.22197   -29347.071    6048.8221 
  974400    264.60465   -29236.765    127.77526    -29364.54    26306.296 
  974600    314.77135   -29220.602    152.00032   -29372.602    13561.899 
  974800    307.16229    -29210.92    148.32598   -29359.246   -23980.076 
  975000    254.80494   -29248.306    123.04307    -29371.35    49185.551 
  975200    298.30994   -29223.632    144.05125   -29367.684   -9654.7512 
  975400    305.12329   -29217.161    147.34136   -29364.503   -22707.993 
  975600    303.09002   -29215.915    146.35951   -29362.275    19211.951 
  975800    320.88519   -29201.511    154.95264   -29356.464   -43801.586 
  976000    290.06004   -29225.847    140.06745   -29365.914   -8785.5912 
  976200    291.29595   -29229.483    140.66426   -29370.147    7806.7257 
  976400    317.21087   -29204.831    153.17835   -29358.009   -26295.378 
  976600    270.90818   -29241.401    130.81918    -29372.22   -6011.7155 
  976800    306.28271   -29225.516    147.90123   -29373.418   -12280.287 
  977000    322.65326   -29206.576    155.80643   -29362.382    18848.404 
  977200    248.66668   -29241.609    120.07896   -29361.688   -14915.851 
  977400    298.03608   -29227.311    143.91901    -29371.23   -20551.794 
  977600    324.69363   -29204.818    156.79171    -29361.61   -48114.223 
  977800     280.4994   -29236.084     135.4507   -29371.535   -9028.7164 
  978000    286.15116   -29227.532    138.17989   -29365.712     25722.21 
  978200    331.40486   -29209.623     160.0325   -29369.655     34270.27 
  978400    288.62063   -29236.786    139.37237   -29376.159    69121.707 
  978600    257.78886   -29236.349    124.48398   -29360.833    11701.458 
  978800    293.70721    -29208.99    141.82863   -29350.818   -26955.547 
  979000    297.20682   -29211.646    143.51857   -29355.164    25165.184 
  979200    273.29218   -29237.399    131.97039   -29369.369   -19168.278 
  979400    327.65946   -29211.336    158.22388    -29369.56    20165.516 
  979600    309.86475   -29217.021    149.63097   -29366.652   -14563.779 
  979800    307.41981   -29233.498    148.45033   -29381.949    30402.401 
  980000    269.65175    -29244.48    130.21247   -29374.693    2581.7249 
  980200    295.61609   -29212.395    142.75042   -29355.146   -23553.141 
  980400    321.26445   -29221.812    155.13578   -29376.948    46319.694 
  980600    283.50246   -29244.956    136.90085   -29381.857    19327.988 
  980800    300.32558   -29225.151    145.02459   -29370.176   -11097.989 
  981000    292.43615   -29220.626    141.21485   -29361.841   -43695.856 
  981200    262.18686   -29244.215    126.60774   -29370.823   -31808.467 
  981400    310.90371    -29222.53    150.13268   -29372.663    7810.2995 
  981600    312.75357   -29213.564    151.02595    -29364.59    34624.862 
  981800    278.87311   -29244.307    134.66538   -29378.972    27717.643 
  982000    283.09844   -29236.644    136.70576    -29373.35    16281.068 
  982200    310.62781     -29221.6    149.99944   -29371.599    37645.946 
  982400     272.7394   -29245.658    131.70346   -29377.362   -15595.149 
  982600    304.07009    -29238.54    146.83278   -29385.373    7166.5363 
  982800     294.2141   -29226.962    142.07341   -29369.035    11.738778 
  983000    293.80177   -29213.365     141.8743   -29355.239   -27152.873 
  983200    304.27232   -29192.825    146.93044   -29339.756   -28211.028 
  983400    303.22889   -29227.758    146.42657   -29374.185   -13674.234 
  983600    292.87411   -29216.715    141.42634   -29358.141    22702.206 
  983800    317.24459   -29193.242    153.19463   -29346.436   -18044.006 
  984000    291.05191   -29229.994    140.54642    -29370.54    33125.402 
  984200    312.15382    -29204.01    150.73634   -29354.747   -25630.377 
  984400    290.27645   -29211.005    140.17195   -29351.177    10185.698 
  984600    288.16011    -29234.01    139.14999    -29373.16    13881.944 
  984800    279.89094   -29220.407    135.15688   -29355.564   -45684.727 
  985000    338.53471    -29214.28    163.47544   -29377.755   -15559.143 
  985200    299.11355   -29215.406    144.43931   -29359.846   -17266.501 
  985400     288.1555   -29219.268    139.14776   -29358.416    13682.071 
  985600    326.57413   -29202.938    157.69978   -29360.638    38213.115 
  985800    288.92138   -29225.595     139.5176   -29365.112    9282.3042 
  986000    293.70843   -29233.486    141.82922   -29375.315   -11092.766 
  986200    338.03216   -29200.958    163.23277   -29364.191     25002.69 
  986400    289.99165     -29216.1    140.03443   -29356.134   -16888.278 
  986600    297.54718   -29221.089    143.68292   -29364.772    3523.4937 
  986800    283.19687   -29217.023    136.75329   -29353.776   -8775.7872 
  987000    293.82445   -29221.531    141.88525   -29363.416   -46583.983 
  987200    283.82385   -29235.021    137.05605   -29372.077    353.62657 
  987400    304.83222   -29217.318     147.2008   -29364.518     20998.93 
  987600     303.8564     -29202.6    146.72959    -29349.33   -13623.113 
  987800    273.14769   -29231.873    131.90062   -29363.774    26258.462 
  988000    295.14558   -29220.848    142.52321   -29363.372    17002.664 
  988200    291.17788   -29220.372    140.60724   -29360.979     24416.54 
  988400    288.36918   -29247.276    139.25095   -29386.527   -783.57615 
  988600    316.25404   -29219.192     152.7163   -29371.909   -21848.634 
  988800    298.75375   -29218.867    144.26557   -29363.133    22206.606 
  989000    288.65392   -29234.174    139.38845   -29373.563    337.44431 
  989200     292.9222    -29236.92    141.44956    -29378.37     6262.484 
  989400    325.58914   -29207.894    157.22414   -29365.118    17234.845 
  989600    307.00156   -29236.813    148.24836   -29385.062    -41842.48 
  989800    288.07037   -29229.276    139.10666   -29368.383   -12266.164 
  990000    288.86137   -29209.594    139.48862   -29349.082   -58585.309 
  990200     323.3801   -29172.648    156.15741   -29328.806   -16023.934 
  990400    285.39142   -29207.124    137.81301   -29344.937    43296.299 
  990600    308.13286   -29227.965    148.79466   -29376.759     13002.67 
  990800    281.26435   -29227.733    135.82009   -29363.554    3136.7996 
  991000    318.26432   -29203.863    153.68705    -29357.55    46559.742 
  991200    286.06499   -29230.392    138.13827   -29368.531    18141.094 
  991400    286.69856   -29221.619    138.44422   -29360.064   -5590.7097 
  991600    321.79128   -29213.596    155.39019   -29368.986   -38292.884 
  991800    285.64098   -29243.033    137.93352   -29380.966   -12582.436 
  992000    316.65447   -29213.951    152.90966   -29366.861   -4207.7845 
  992200    266.94852   -29230.134     128.9071   -29359.041    22843.942 
  992400    278.86709   -29245.569    134.66247   -29380.232   -33504.096 
  992600    308.34123   -29221.449    148.89527   -29370.344    23433.757 
  992800    321.22068   -29213.419    155.11465   -29368.534    3942.9599 
  993000    279.89291   -29236.186    135.15783   -29371.344    17216.205 
  993200    340.34233   -29209.424    164.34833   -29373.773   -19640.855 
  993400    294.62502   -29210.454    142.27184   -29352.725    8011.6038 
  993600    270.09768   -29241.738     130.4278   -29372.166   -20524.029 
  993800    277.65221   -29241.799    134.07582   -29375.875   -34573.092 
  994000    297.27748   -29222.884    143.55269   -29366.437    35375.141 
  994200    314.72821   -29210.886    151.97949   -29362.865    14505.651 
  994400    275.79512   -29239.969    133.17904   -29373.148   -32650.127 
  994600    299.23802   -29218.227    144.49941   -29362.726    13155.591 
  994800    320.64865   -29223.404    154.83842   -29378.242   -30989.858 
  995000    259.35539   -29246.442    125.24044   -29371.683   -1883.6867 
  995200    283.65967   -29246.644    136.97676   -29383.621   -21079.977 
  995400    289.11478   -29219.799    139.61099    -29359.41   -637.08822 
  995600    306.72918   -29215.531    148.11683   -29363.648   -11788.518 
  995800    288.82799   -29246.481     139.4725   -29385.954   -5806.6362 
  996000    307.97605   -29229.567    148.71893   -29378.286    17974.446 
  996200    311.69542    -29222.92    150.51498   -29373.435    14270.193 
  996400    283.64808   -29226.024    136.97117   -29362.995    25400.841 
  996600    320.49452   -29194.159    154.76399   -29348.923   -473.63982 
  996800    316.40255   -29216.744    152.78802   -29369.532   -8528.0001 
  997000    292.14544    -29224.79    141.07447   -29365.864    25485.062 
  997200     309.5811   -29218.001      149.494   -29367.495    990.56877 
  997400    309.52174   -29212.868    149.46533   -29362.334    3671.8298 
  997600      290.371   -29235.115    140.21761   -29375.332    14572.124 
  997800    307.01401   -29214.055    148.25437   -29362.309   -76775.946 
  998000    310.72858   -29213.847     150.0481   -29363.895   -4661.4428 
  998200    283.61298   -29233.563    136.95422   -29370.517    61387.377 
  998400    307.78913   -29227.297    148.62867   -29375.926    15699.054 
  998600    289.62207   -29206.644    139.85596     -29346.5   -34108.684 
  998800    336.70572   -29192.405    162.59224   -29354.997   -53198.623 
  999000     297.3919    -29220.55    143.60794   -29364.158   -16374.171 
  999200    287.56257   -29228.569    138.86144   -29367.431    52999.516 
  999400    334.06007    -29194.24    161.31468   -29355.554   -14210.792 
  999600    294.54703   -29217.477    142.23418   -29359.712   -33097.088 
  999800    321.66923   -29216.149    155.33125    -29371.48    -11009.98 
 1000000    327.55827   -29189.908    158.17501   -29348.083   -9578.0481 
Loop time of 6658.6 on 8 procs for 1000000 steps with 163 atoms

Performance: 3.244 ns/day, 7.398 hours/ns, 150.182 timesteps/s
98.6% CPU use with 8 MPI tasks x no OpenMP threads

MPI task timing breakdown:
Section |  min time  |  avg time  |  max time  |%varavg| %total
---------------------------------------------------------------
Pair    | 4907.5     | 5072.7     | 5188.4     | 120.5 | 76.18
Neigh   | 3.658      | 3.6861     | 3.7335     |   1.2 |  0.06
Comm    | 140.8      | 254.32     | 417.57     | 532.4 |  3.82
Output  | 0.15398    | 0.16293    | 0.21944    |   5.3 |  0.00
Modify  | 1319.3     | 1320.6     | 1321.7     |   2.1 | 19.83
Other   |            | 7.145      |            |       |  0.11

Nlocal:    20.375 ave 33 max 8 min
Histogram: 1 0 1 0 2 0 3 0 0 1
Nghost:    772.125 ave 782 max 765 min
Histogram: 2 2 0 1 0 0 0 1 1 1
Neighs:    2294.75 ave 3565 max 952 min
Histogram: 1 0 1 0 2 0 2 1 0 1

Total # of neighbors = 18358
Ave neighs/atom = 112.626
Neighbor list builds = 3719
Dangerous builds = 0

Please see the log.cite file for references relevant to this simulation

Total wall time: 1:51:32
