ITEM: TIMESTEP
0
ITEM: NUMBER OF ATOMS
144
ITEM: BOX BOUNDS pp pp pp
0.0000000000000000e+00 2.1070900000000002e+01
0.0000000000000000e+00 2.1070900000000002e+01
0.0000000000000000e+00 2.1070900000000002e+01
ITEM: ATOMS id type x y z 
16 1 1.95011 12.4856 12.4856 
32 1 0.393815 10.9293 10.9293 
64 1 4.59388 12.1754 12.1754 
68 1 1.63995 15.1293 12.1754 
78 1 1.63995 12.1754 15.1293 
112 1 3.38989 12.2704 12.2704 
116 1 1.73498 13.9253 12.2704 
126 1 1.73498 12.2704 13.9253 
144 1 1.09864 11.6341 11.6341 
9 1 8.58534 12.4856 12.4856 
25 1 10.1416 10.9293 10.9293 
57 1 5.94157 12.1754 12.1754 
65 1 8.8955 15.1293 12.1754 
73 1 8.8955 12.1754 15.1293 
105 1 7.14556 12.2704 12.2704 
113 1 8.80047 13.9253 12.2704 
121 1 8.80047 12.2704 13.9253 
137 1 9.43681 11.6341 11.6341 
11 1 1.95011 19.1208 12.4856 
27 1 0.393815 20.6771 10.9293 
59 1 4.59388 19.431 12.1754 
69 1 1.63995 16.477 12.1754 
79 1 1.63995 19.431 15.1293 
107 1 3.38989 19.3359 12.2704 
117 1 1.73498 17.681 12.2704 
127 1 1.73498 19.3359 13.9253 
139 1 1.09864 19.9723 11.6341 
14 1 8.58534 19.1208 12.4856 
30 1 10.1416 20.6771 10.9293 
62 1 5.94157 19.431 12.1754 
72 1 8.8955 16.477 12.1754 
76 1 8.8955 19.431 15.1293 
110 1 7.14556 19.3359 12.2704 
120 1 8.80047 17.681 12.2704 
124 1 8.80047 19.3359 13.9253 
142 1 9.43681 19.9723 11.6341 
13 1 1.95011 12.4856 19.1208 
29 1 0.393815 10.9293 20.6771 
61 1 4.59388 12.1754 19.431 
71 1 1.63995 15.1293 19.431 
75 1 1.63995 12.1754 16.477 
109 1 3.38989 12.2704 19.3359 
119 1 1.73498 13.9253 19.3359 
123 1 1.73498 12.2704 17.681 
141 1 1.09864 11.6341 19.9723 
12 1 8.58534 12.4856 19.1208 
28 1 10.1416 10.9293 20.6771 
60 1 5.94157 12.1754 19.431 
70 1 8.8955 15.1293 19.431 
80 1 8.8955 12.1754 16.477 
108 1 7.14556 12.2704 19.3359 
118 1 8.80047 13.9253 19.3359 
128 1 8.80047 12.2704 17.681 
140 1 9.43681 11.6341 19.9723 
10 1 1.95011 19.1208 19.1208 
26 1 0.393815 20.6771 20.6771 
58 1 4.59388 19.431 19.431 
66 1 1.63995 16.477 19.431 
74 1 1.63995 19.431 16.477 
106 1 3.38989 19.3359 19.3359 
114 1 1.73498 17.681 19.3359 
122 1 1.73498 19.3359 17.681 
138 1 1.09864 19.9723 19.9723 
15 1 8.58534 19.1208 19.1208 
31 1 10.1416 20.6771 20.6771 
63 1 5.94157 19.431 19.431 
67 1 8.8955 16.477 19.431 
77 1 8.8955 19.431 16.477 
111 1 7.14556 19.3359 19.3359 
115 1 8.80047 17.681 19.3359 
125 1 8.80047 19.3359 17.681 
143 1 9.43681 19.9723 19.9723 
8 1 12.4856 1.95011 1.95011 
24 1 10.9293 0.393815 0.393815 
40 1 15.1293 1.63995 1.63995 
44 1 12.1754 4.59388 1.63995 
54 1 12.1754 1.63995 4.59388 
88 1 13.9253 1.73498 1.73498 
92 1 12.2704 3.38989 1.73498 
102 1 12.2704 1.73498 3.38989 
136 1 11.6341 1.09864 1.09864 
1 1 19.1208 1.95011 1.95011 
17 1 20.6771 0.393815 0.393815 
33 1 16.477 1.63995 1.63995 
41 1 19.431 4.59388 1.63995 
49 1 19.431 1.63995 4.59388 
81 1 17.681 1.73498 1.73498 
89 1 19.3359 3.38989 1.73498 
97 1 19.3359 1.73498 3.38989 
129 1 19.9723 1.09864 1.09864 
3 1 12.4856 8.58534 1.95011 
19 1 10.9293 10.1416 0.393815 
35 1 15.1293 8.8955 1.63995 
45 1 12.1754 5.94157 1.63995 
55 1 12.1754 8.8955 4.59388 
83 1 13.9253 8.80047 1.73498 
93 1 12.2704 7.14556 1.73498 
103 1 12.2704 8.80047 3.38989 
131 1 11.6341 9.43681 1.09864 
6 1 19.1208 8.58534 1.95011 
22 1 20.6771 10.1416 0.393815 
38 1 16.477 8.8955 1.63995 
48 1 19.431 5.94157 1.63995 
52 1 19.431 8.8955 4.59388 
86 1 17.681 8.80047 1.73498 
96 1 19.3359 7.14556 1.73498 
100 1 19.3359 8.80047 3.38989 
134 1 19.9723 9.43681 1.09864 
5 1 12.4856 1.95011 8.58534 
21 1 10.9293 0.393815 10.1416 
37 1 15.1293 1.63995 8.8955 
47 1 12.1754 4.59388 8.8955 
51 1 12.1754 1.63995 5.94157 
85 1 13.9253 1.73498 8.80047 
95 1 12.2704 3.38989 8.80047 
99 1 12.2704 1.73498 7.14556 
133 1 11.6341 1.09864 9.43681 
4 1 19.1208 1.95011 8.58534 
20 1 20.6771 0.393815 10.1416 
36 1 16.477 1.63995 8.8955 
46 1 19.431 4.59388 8.8955 
56 1 19.431 1.63995 5.94157 
84 1 17.681 1.73498 8.80047 
94 1 19.3359 3.38989 8.80047 
104 1 19.3359 1.73498 7.14556 
132 1 19.9723 1.09864 9.43681 
2 1 12.4856 8.58534 8.58534 
18 1 10.9293 10.1416 10.1416 
34 1 15.1293 8.8955 8.8955 
42 1 12.1754 5.94157 8.8955 
50 1 12.1754 8.8955 5.94157 
82 1 13.9253 8.80047 8.80047 
90 1 12.2704 7.14556 8.80047 
98 1 12.2704 8.80047 7.14556 
130 1 11.6341 9.43681 9.43681 
7 1 19.1208 8.58534 8.58534 
23 1 20.6771 10.1416 10.1416 
39 1 16.477 8.8955 8.8955 
43 1 19.431 5.94157 8.8955 
53 1 19.431 8.8955 5.94157 
87 1 17.681 8.80047 8.80047 
91 1 19.3359 7.14556 8.80047 
101 1 19.3359 8.80047 7.14556 
135 1 19.9723 9.43681 9.43681 
ITEM: TIMESTEP
10
ITEM: NUMBER OF ATOMS
144
ITEM: BOX BOUNDS pp pp pp
0.0000000000000000e+00 2.1070900000000002e+01
0.0000000000000000e+00 2.1070900000000002e+01
0.0000000000000000e+00 2.1070900000000002e+01
ITEM: ATOMS id type x y z 
16 1 1.93571 12.4713 12.4712 
32 1 0.397883 10.9335 10.9334 
64 1 4.5698 12.1502 12.1502 
68 1 1.61469 15.1053 12.1501 
78 1 1.6147 12.1501 15.1052 
112 1 3.37613 12.2399 12.2399 
116 1 1.70433 13.9116 12.2398 
126 1 1.70432 12.2398 13.9116 
144 1 1.09269 11.6273 11.6275 
9 1 8.59952 12.4712 12.4712 
25 1 10.1374 10.9333 10.9331 
57 1 5.96552 12.1501 12.1501 
65 1 8.92073 15.105 12.1502 
73 1 8.92072 12.1502 15.1051 
105 1 7.15926 12.2398 12.2398 
113 1 8.83113 13.9121 12.2397 
121 1 8.83105 12.2399 13.912 
137 1 9.4437 11.6277 11.6283 
11 1 1.93518 19.1343 12.4711 
27 1 0.397422 20.6719 10.9332 
59 1 4.56938 19.4562 12.1502 
69 1 1.6147 16.5012 12.1502 
79 1 1.61474 19.4562 15.1049 
107 1 3.37663 19.3666 12.2397 
117 1 1.70442 17.6947 12.2398 
127 1 1.70448 19.3664 13.9118 
139 1 1.09313 19.9806 11.6285 
14 1 8.59958 19.1352 12.4713 
30 1 10.1375 20.673 10.9335 
62 1 5.96568 19.4562 12.1501 
72 1 8.92074 16.5011 12.1502 
76 1 8.92077 19.4562 15.1053 
110 1 7.15929 19.3666 12.2399 
120 1 8.83099 17.6946 12.2399 
124 1 8.83104 19.3666 13.9116 
142 1 9.44341 19.9782 11.6273 
13 1 1.93523 12.4711 19.1343 
29 1 0.397442 10.9332 20.672 
61 1 4.56941 12.1502 19.4562 
71 1 1.61474 15.1049 19.4562 
75 1 1.6147 12.1502 16.5012 
109 1 3.3766 12.2397 19.3666 
119 1 1.70448 13.9118 19.3664 
123 1 1.70442 12.2398 17.6947 
141 1 1.09309 11.6285 19.9805 
12 1 8.59955 12.4713 19.1352 
28 1 10.1374 10.9335 20.673 
60 1 5.96573 12.1501 19.4562 
70 1 8.92076 15.1052 19.4562 
80 1 8.92073 12.1502 16.5011 
108 1 7.15923 12.2399 19.3666 
118 1 8.83105 13.9116 19.3666 
128 1 8.83101 12.2399 17.6945 
140 1 9.44346 11.6274 19.9782 
10 1 1.93572 19.135 19.135 
26 1 0.397825 20.673 20.673 
58 1 4.56976 19.4562 19.4562 
66 1 1.61469 16.501 19.4562 
74 1 1.61469 19.4562 16.501 
106 1 3.3766 19.3665 19.3665 
114 1 1.70434 17.6947 19.3665 
122 1 1.70434 19.3665 17.6947 
138 1 1.09267 19.9789 19.9788 
15 1 8.59975 19.1349 19.1351 
31 1 10.1376 20.6727 20.673 
63 1 5.96609 19.4561 19.4561 
67 1 8.92073 16.5013 19.4562 
77 1 8.92071 19.4562 16.5015 
111 1 7.15857 19.3665 19.3665 
115 1 8.8311 17.6946 19.3665 
125 1 8.83111 19.3665 17.6945 
143 1 9.44275 19.9792 19.9787 
8 1 12.4711 1.93603 1.9358 
24 1 10.9333 0.398199 0.397918 
40 1 15.1047 1.61478 1.61478 
44 1 12.1502 4.56957 1.61471 
54 1 12.1502 1.61474 4.56942 
88 1 13.9124 1.70439 1.70439 
92 1 12.2398 3.37627 1.70441 
102 1 12.2398 1.70438 3.37645 
136 1 11.6282 1.0917 1.0922 
1 1 19.1352 1.93582 1.93582 
17 1 20.6731 0.397952 0.397941 
33 1 16.501 1.61472 1.61472 
41 1 19.4562 4.56998 1.61466 
49 1 19.4562 1.61466 4.56997 
81 1 17.6944 1.7044 1.7044 
89 1 19.3666 3.37614 1.70438 
97 1 19.3666 1.70438 3.37614 
129 1 19.9782 1.09203 1.09206 
3 1 12.4713 8.59959 1.93573 
19 1 10.9335 10.1374 0.397894 
35 1 15.1052 8.92076 1.6147 
45 1 12.1501 5.96573 1.6147 
55 1 12.1502 8.92073 4.56979 
83 1 13.9117 8.83106 1.70433 
93 1 12.2398 7.15926 1.70434 
103 1 12.2399 8.83101 3.37641 
131 1 11.6274 9.44348 1.09265 
6 1 19.1342 8.5998 1.93508 
22 1 20.6719 10.1378 0.397439 
38 1 16.5013 8.92072 1.61469 
48 1 19.4561 5.96595 1.61471 
52 1 19.4562 8.92071 4.56955 
86 1 17.6947 8.83112 1.70443 
96 1 19.3664 7.15921 1.70451 
100 1 19.3666 8.83118 3.37657 
134 1 19.9807 9.44224 1.09306 
5 1 12.4713 1.9357 8.59965 
21 1 10.9335 0.397883 10.1375 
37 1 15.1053 1.61469 8.92077 
47 1 12.1502 4.56979 8.92074 
51 1 12.1501 1.6147 5.96569 
85 1 13.9116 1.70433 8.83105 
95 1 12.2399 3.37612 8.83099 
99 1 12.2398 1.70433 7.15924 
133 1 11.6273 1.09269 9.44338 
4 1 19.1343 1.93518 8.59978 
20 1 20.6719 0.397426 10.1377 
36 1 16.5012 1.6147 8.92073 
46 1 19.4562 4.56939 8.9207 
56 1 19.4561 1.61473 5.96601 
84 1 17.6947 1.70442 8.83111 
94 1 19.3666 3.37664 8.83116 
104 1 19.3664 1.70449 7.15914 
132 1 19.9806 1.09312 9.44237 
2 1 12.4712 8.59953 8.59969 
18 1 10.9333 10.1374 10.1378 
34 1 15.105 8.92074 8.92071 
42 1 12.1501 5.96552 8.92077 
50 1 12.1502 8.92072 5.96582 
82 1 13.9121 8.83113 8.83116 
90 1 12.2398 7.15926 8.83112 
98 1 12.2399 8.83105 7.15888 
130 1 11.6277 9.44369 9.44256 
7 1 19.1352 8.59959 8.59948 
23 1 20.673 10.1375 10.1374 
39 1 16.5011 8.92074 8.92074 
43 1 19.4562 5.96569 8.92076 
53 1 19.4562 8.92076 5.96566 
87 1 17.6946 8.83099 8.831 
91 1 19.3666 7.15929 8.83104 
101 1 19.3666 8.83103 7.15935 
135 1 19.9782 9.4434 9.44359 
ITEM: TIMESTEP
20
ITEM: NUMBER OF ATOMS
144
ITEM: BOX BOUNDS pp pp pp
0.0000000000000000e+00 2.1070900000000002e+01
0.0000000000000000e+00 2.1070900000000002e+01
0.0000000000000000e+00 2.1070900000000002e+01
ITEM: ATOMS id type x y z 
16 1 1.95795 12.5056 12.4953 
32 1 0.402182 10.9554 10.9247 
64 1 4.52154 11.943 11.9438 
68 1 1.40855 15.0643 11.9444 
78 1 1.40871 11.9438 15.0578 
112 1 3.3485 12.0933 12.0925 
116 1 1.55508 13.8924 12.091 
126 1 1.55749 12.0941 13.8848 
144 1 1.10558 11.6052 11.6609 
9 1 8.57277 12.4922 12.4992 
25 1 10.1171 10.9283 10.9421 
57 1 5.9997 11.9425 11.942 
65 1 9.12759 15.0588 11.9436 
73 1 9.12708 11.9445 15.0635 
105 1 7.19294 12.0903 12.0901 
113 1 8.97838 13.8854 12.0916 
121 1 8.97821 12.0919 13.8936 
137 1 9.46105 11.6563 11.6378 
11 1 1.9584 19.1087 12.4931 
27 1 0.408898 20.6633 10.9414 
59 1 4.52957 19.6621 11.9433 
69 1 1.40867 16.5444 11.9436 
79 1 1.40811 19.6621 15.0621 
107 1 3.35413 19.5145 12.0927 
117 1 1.55586 17.7166 12.0923 
127 1 1.5559 19.515 13.8897 
139 1 1.09835 19.9683 11.636 
14 1 8.57203 19.1057 12.4973 
30 1 10.1337 20.6643 10.9411 
62 1 6.00881 19.663 11.9435 
72 1 9.12645 16.5502 11.9442 
76 1 9.12715 19.6629 15.0618 
110 1 7.19051 19.5132 12.0933 
120 1 8.97739 17.7225 12.0935 
124 1 8.97815 19.5137 13.8808 
142 1 9.43114 19.9705 11.634 
13 1 1.96105 12.4925 19.1119 
29 1 0.410044 10.9406 20.6621 
61 1 4.52888 11.9436 19.6619 
71 1 1.40815 15.0628 19.6622 
75 1 1.40858 11.9437 16.5434 
109 1 3.35806 12.0926 19.5145 
119 1 1.55587 13.8893 19.515 
123 1 1.55522 12.0916 17.7161 
141 1 1.09734 11.6379 19.9709 
12 1 8.57214 12.4974 19.1088 
28 1 10.128 10.9435 20.6622 
60 1 6.01145 11.9444 19.6623 
70 1 9.12698 15.0637 19.6627 
80 1 9.12642 11.9443 16.5454 
108 1 7.1833 12.0926 19.5135 
118 1 8.97798 13.8881 19.5136 
128 1 8.97752 12.093 17.7177 
140 1 9.43496 11.6347 19.9691 
10 1 1.96009 19.1072 19.1063 
26 1 0.408153 20.6639 20.6638 
58 1 4.51964 19.6626 19.6627 
66 1 1.40846 16.547 19.6625 
74 1 1.40867 19.6623 16.5492 
106 1 3.34926 19.5133 19.5133 
114 1 1.55693 17.7225 19.5137 
122 1 1.55692 19.5137 17.7215 
138 1 1.09926 19.9729 19.973 
15 1 8.57909 19.1052 19.1183 
31 1 10.1262 20.6457 20.6737 
63 1 6.00845 19.6634 19.6628 
67 1 9.12715 16.5385 19.662 
77 1 9.12747 19.6629 16.5468 
111 1 7.18841 19.5136 19.514 
115 1 8.98072 17.7094 19.5165 
125 1 8.97864 19.5141 17.7215 
143 1 9.43056 20.0007 19.9479 
8 1 12.488 1.96693 1.95137 
24 1 10.9512 0.432131 0.403195 
40 1 15.0633 1.40347 1.40412 
44 1 11.9437 4.53122 1.40893 
54 1 11.9439 1.40852 4.51436 
88 1 13.8818 1.55648 1.55566 
92 1 12.0866 3.36807 1.55344 
102 1 12.0883 1.55593 3.35921 
136 1 11.6301 1.06032 1.11547 
1 1 19.1234 1.96833 1.96734 
17 1 20.6688 0.401168 0.401043 
33 1 16.5493 1.40882 1.4087 
41 1 19.6632 4.52454 1.40796 
49 1 19.6633 1.40787 4.52464 
81 1 17.7226 1.55495 1.55502 
89 1 19.5135 3.34634 1.55673 
97 1 19.5135 1.55666 3.34499 
129 1 19.9681 1.10018 1.10047 
3 1 12.4975 8.57413 1.96167 
19 1 10.9458 10.1301 0.408588 
35 1 15.0622 9.12656 1.40865 
45 1 11.9443 6.01019 1.40848 
55 1 11.9442 9.12644 4.52667 
83 1 13.8908 8.97895 1.5567 
93 1 12.0924 7.18057 1.55724 
103 1 12.0928 8.97803 3.35357 
131 1 11.6301 9.43154 1.1016 
6 1 19.1094 8.57859 1.95901 
22 1 20.6699 10.122 0.406281 
38 1 16.5472 9.12713 1.40895 
48 1 19.6625 6.0034 1.40763 
52 1 19.6621 9.12809 4.53015 
86 1 17.7144 8.97803 1.55625 
96 1 19.5163 7.18435 1.55508 
100 1 19.5149 8.97765 3.3519 
134 1 19.9569 9.44958 1.10187 
5 1 12.5073 1.95917 8.5801 
21 1 10.9563 0.402095 10.146 
37 1 15.064 1.40865 9.12656 
47 1 11.9431 4.52038 9.12707 
51 1 11.9429 1.40767 6.01541 
85 1 13.8926 1.55496 8.97971 
95 1 12.0933 3.34909 8.97819 
99 1 12.094 1.55733 7.19382 
133 1 11.6039 1.10614 9.40932 
4 1 19.1077 1.95925 8.58041 
20 1 20.6635 0.408676 10.1303 
36 1 16.5447 1.40875 9.1272 
46 1 19.6621 4.52798 9.1276 
56 1 19.6625 1.4078 6.00787 
84 1 17.716 1.55578 8.9785 
94 1 19.5146 3.35448 8.97811 
104 1 19.515 1.55572 7.18648 
132 1 19.9685 1.09816 9.43402 
2 1 12.4923 8.57275 8.57184 
18 1 10.9279 10.1163 10.1291 
34 1 15.0577 9.12757 9.12718 
42 1 11.9425 5.99927 9.12892 
50 1 11.9445 9.12708 6.00746 
82 1 13.8858 8.97834 8.97926 
90 1 12.0902 7.19297 8.98091 
98 1 12.0919 8.97817 7.17739 
130 1 11.6571 9.46252 9.43253 
7 1 19.1066 8.57329 8.56977 
23 1 20.6668 10.1417 10.1207 
39 1 16.5515 9.12619 9.12676 
43 1 19.6626 6.01401 9.12709 
53 1 19.6632 9.12722 6.00761 
87 1 17.7224 8.9773 8.97716 
91 1 19.5125 7.19115 8.9769 
101 1 19.5146 8.97895 7.18506 
135 1 19.9664 9.41704 9.45501 
ITEM: TIMESTEP
30
ITEM: NUMBER OF ATOMS
144
ITEM: BOX BOUNDS pp pp pp
0.0000000000000000e+00 2.1070900000000002e+01
0.0000000000000000e+00 2.1070900000000002e+01
0.0000000000000000e+00 2.1070900000000002e+01
ITEM: ATOMS id type x y z 
16 1 1.91176 12.4474 12.45 
32 1 0.40209 10.9408 10.9258 
64 1 4.51814 11.8383 11.8382 
68 1 1.30213 15.054 11.8375 
78 1 1.30302 11.8382 15.0534 
112 1 3.35832 12.0625 12.0594 
116 1 1.52182 13.8932 12.0581 
126 1 1.52581 12.065 13.8941 
144 1 1.08806 11.6133 11.6412 
9 1 8.61598 12.4603 12.4608 
25 1 10.1279 10.925 10.9393 
57 1 6.01327 11.837 11.8365 
65 1 9.23273 15.0558 11.8364 
73 1 9.23344 11.8368 15.0571 
105 1 7.17229 12.058 12.0606 
113 1 9.00715 13.8986 12.066 
121 1 9.00753 12.0627 13.8981 
137 1 9.45486 11.6418 11.6283 
11 1 1.92914 19.1406 12.4648 
27 1 0.398934 20.6715 10.9329 
59 1 4.52289 19.7699 11.8369 
69 1 1.30119 16.5479 11.837 
79 1 1.30086 19.7702 15.0565 
107 1 3.36461 19.5415 12.0633 
117 1 1.52751 17.7058 12.063 
127 1 1.52751 19.5417 13.8985 
139 1 1.09475 19.9755 11.6293 
14 1 8.62104 19.156 12.4493 
30 1 10.1459 20.6723 10.9374 
62 1 6.01643 19.7695 11.8371 
72 1 9.23357 16.5493 11.8375 
76 1 9.23309 19.7692 15.058 
110 1 7.17587 19.5466 12.0591 
120 1 9.01113 17.7101 12.0593 
124 1 9.01193 19.5472 13.8972 
142 1 9.4445 19.9813 11.6248 
13 1 1.92823 12.4636 19.1421 
29 1 0.403645 10.9316 20.6693 
61 1 4.52216 11.8368 19.7697 
71 1 1.30066 15.056 19.7697 
75 1 1.30108 11.8367 16.5459 
109 1 3.36396 12.0641 19.5418 
119 1 1.52875 13.898 19.5426 
123 1 1.528 12.0626 17.7044 
141 1 1.0953 11.6301 19.9777 
12 1 8.60597 12.4662 19.1402 
28 1 10.1383 10.9339 20.6714 
60 1 6.01499 11.8356 19.7704 
70 1 9.23403 15.0584 19.7695 
80 1 9.23436 11.8365 16.5493 
108 1 7.1725 12.0633 19.5434 
118 1 9.00661 13.8996 19.5425 
128 1 9.00635 12.0643 17.707 
140 1 9.44163 11.6301 19.9754 
10 1 1.92548 19.1451 19.1447 
26 1 0.389429 20.6829 20.683 
58 1 4.52308 19.7708 19.7703 
66 1 1.3001 16.5484 19.7707 
74 1 1.30003 19.7708 16.5491 
106 1 3.3641 19.5453 19.5452 
114 1 1.52428 17.7076 19.5455 
122 1 1.52437 19.5456 17.7082 
138 1 1.09176 19.9803 19.98 
15 1 8.61702 19.1487 19.1507 
31 1 10.1332 20.6772 20.6704 
63 1 6.01646 19.7696 19.7684 
67 1 9.23413 16.5523 19.7696 
77 1 9.23247 19.7693 16.5509 
111 1 7.17481 19.5399 19.5454 
115 1 9.01133 17.7107 19.5469 
125 1 9.00857 19.5388 17.7093 
143 1 9.44496 19.9883 19.9656 
8 1 12.4583 1.91783 1.92068 
24 1 10.9415 0.398986 0.404423 
40 1 15.0552 1.30172 1.30241 
44 1 11.8366 4.52003 1.3027 
54 1 11.838 1.30394 4.52017 
88 1 13.8959 1.52999 1.52465 
92 1 12.0588 3.35846 1.52461 
102 1 12.0619 1.53266 3.36096 
136 1 11.6272 1.08316 1.10791 
1 1 19.1597 1.90468 1.90451 
17 1 20.6585 0.409611 0.410614 
33 1 16.5493 1.30421 1.30521 
41 1 19.7683 4.5182 1.30166 
49 1 19.7681 1.30163 4.51891 
81 1 17.709 1.52577 1.52491 
89 1 19.5504 3.35694 1.5227 
97 1 19.5505 1.52327 3.35774 
129 1 19.9736 1.09688 1.09535 
3 1 12.4652 8.60142 1.93013 
19 1 10.932 10.14 0.399185 
35 1 15.0567 9.23479 1.30127 
45 1 11.8376 6.01462 1.30196 
55 1 11.8372 9.23454 4.52163 
83 1 13.8991 9.00634 1.52834 
93 1 12.0647 7.16987 1.52924 
103 1 12.064 9.00572 3.36378 
131 1 11.6295 9.43748 1.09449 
6 1 19.1389 8.60776 1.92931 
22 1 20.6762 10.1378 0.398387 
38 1 16.5494 9.23434 1.30024 
48 1 19.7696 6.01356 1.30142 
52 1 19.7701 9.23325 4.5233 
86 1 17.7071 9.00672 1.52934 
96 1 19.5435 7.17097 1.52653 
100 1 19.542 9.00816 3.36532 
134 1 19.9663 9.44732 1.09096 
5 1 12.4457 1.90977 8.62261 
21 1 10.94 0.403541 10.1381 
37 1 15.0539 1.30191 9.23258 
47 1 11.8381 4.51836 9.23199 
51 1 11.8396 1.30355 6.01431 
85 1 13.8929 1.52259 9.01451 
95 1 12.0633 3.35805 9.01324 
99 1 12.0648 1.5252 7.17304 
133 1 11.6148 1.08986 9.42971 
4 1 19.1401 1.92879 8.60767 
20 1 20.6719 0.398626 10.1383 
36 1 16.5477 1.30106 9.23352 
46 1 19.77 4.52457 9.23366 
56 1 19.7696 1.30122 6.01347 
84 1 17.7059 1.52789 9.00844 
94 1 19.5412 3.36627 9.00863 
104 1 19.5419 1.52691 7.17105 
132 1 19.9751 1.09439 9.44227 
2 1 12.4603 8.61533 8.61002 
18 1 10.9253 10.1277 10.1317 
34 1 15.0564 9.23251 9.23455 
42 1 11.8372 6.01408 9.23422 
50 1 11.8369 9.23336 6.01406 
82 1 13.899 9.00698 9.00473 
90 1 12.0583 7.17238 9.00995 
98 1 12.0626 9.00721 7.17284 
130 1 11.6425 9.45546 9.4422 
7 1 19.1573 8.62313 8.62557 
23 1 20.6678 10.1458 10.1297 
39 1 16.5498 9.23296 9.23312 
43 1 19.7689 6.01767 9.23342 
53 1 19.7697 9.23418 6.01695 
87 1 17.7106 9.01165 9.01023 
91 1 19.5457 7.17724 9.00958 
101 1 19.5486 9.01357 7.17756 
135 1 19.9825 9.43465 9.4535 
ITEM: TIMESTEP
40
ITEM: NUMBER OF ATOMS
144
ITEM: BOX BOUNDS pp pp pp
0.0000000000000000e+00 2.1070900000000002e+01
0.0000000000000000e+00 2.1070900000000002e+01
0.0000000000000000e+00 2.1070900000000002e+01
ITEM: ATOMS id type x y z 
16 1 1.91932 12.4522 12.4558 
32 1 0.399363 10.9351 10.9338 
64 1 4.51942 11.8345 11.8325 
68 1 1.29557 15.0518 11.8311 
78 1 1.29658 11.8338 15.0546 
112 1 3.36472 12.0679 12.0676 
116 1 1.53038 13.8973 12.0664 
126 1 1.53356 12.0695 13.8999 
144 1 1.0899 11.6268 11.6287 
9 1 8.61175 12.464 12.4612 
25 1 10.1346 10.9316 10.9364 
57 1 6.01465 11.8318 11.8326 
65 1 9.23774 15.0576 11.8333 
73 1 9.23922 11.8307 15.0552 
105 1 7.16846 12.069 12.0696 
113 1 8.99889 13.9044 12.0721 
121 1 9.00014 12.0707 13.9022 
137 1 9.44086 11.6295 11.6278 
11 1 1.92993 19.1404 12.4646 
27 1 0.398037 20.6725 10.9338 
59 1 4.52287 19.7741 11.8321 
69 1 1.29645 16.5468 11.8321 
79 1 1.29487 19.7754 15.0568 
107 1 3.37078 19.5333 12.0722 
117 1 1.53664 17.6994 12.0718 
127 1 1.53663 19.5337 13.9042 
139 1 1.09788 19.9722 11.6293 
14 1 8.61595 19.1509 12.4548 
30 1 10.1413 20.6733 10.9377 
62 1 6.01789 19.7751 11.8312 
72 1 9.23853 16.5529 11.8317 
76 1 9.23829 19.7742 15.0553 
110 1 7.17209 19.539 12.0675 
120 1 9.00281 17.7067 12.0678 
124 1 9.00256 19.5388 13.9003 
142 1 9.44931 19.9782 11.6305 
13 1 1.92352 12.458 19.1444 
29 1 0.41579 10.945 20.6574 
61 1 4.52048 11.8313 19.7752 
71 1 1.2956 15.0568 19.7754 
75 1 1.29655 11.8319 16.5474 
109 1 3.36836 12.0714 19.5341 
119 1 1.53531 13.9035 19.5348 
123 1 1.53567 12.0706 17.701 
141 1 1.10445 11.6358 19.9702 
12 1 8.61182 12.4602 19.147 
28 1 10.1237 10.9485 20.6574 
60 1 6.01518 11.8299 19.7763 
70 1 9.23913 15.0571 19.7749 
80 1 9.23943 11.8309 16.5493 
108 1 7.16716 12.0715 19.5352 
118 1 8.99875 13.9059 19.5343 
128 1 8.99888 12.0723 17.7016 
140 1 9.43401 11.6385 19.9671 
10 1 1.92996 19.1415 19.1417 
26 1 0.393253 20.6792 20.6792 
58 1 4.52219 19.776 19.7756 
66 1 1.2936 16.55 19.7766 
74 1 1.29352 19.7769 16.5502 
106 1 3.37023 19.5359 19.5352 
114 1 1.5349 17.702 19.5357 
122 1 1.53485 19.536 17.702 
138 1 1.0949 19.977 19.9774 
15 1 8.61383 19.148 19.1455 
31 1 10.1379 20.6814 20.6659 
63 1 6.01576 19.7731 19.7753 
67 1 9.24097 16.5531 19.777 
77 1 9.23782 19.7718 16.5476 
111 1 7.16987 19.5354 19.5361 
115 1 9.00351 17.7065 19.5382 
125 1 9.00014 19.5343 17.702 
143 1 9.44213 19.9818 19.974 
8 1 12.4592 1.92063 1.92534 
24 1 10.9374 0.394371 0.409226 
40 1 15.0554 1.29874 1.29662 
44 1 11.8294 4.51452 1.29457 
54 1 11.8326 1.29991 4.52032 
88 1 13.9029 1.5341 1.53346 
92 1 12.0674 3.36301 1.53332 
102 1 12.0703 1.5375 3.36782 
136 1 11.6277 1.08936 1.09766 
1 1 19.1473 1.91688 1.91721 
17 1 20.6575 0.410699 0.410355 
33 1 16.5509 1.29881 1.29879 
41 1 19.7757 4.51647 1.29517 
49 1 19.7751 1.29578 4.51836 
81 1 17.7063 1.53204 1.53265 
89 1 19.5418 3.36246 1.52987 
97 1 19.5419 1.53009 3.36368 
129 1 19.9703 1.0994 1.1001 
3 1 12.4719 8.59562 1.93884 
19 1 10.9301 10.139 0.398117 
35 1 15.0552 9.2426 1.29272 
45 1 11.83 6.01081 1.29473 
55 1 11.8296 9.24098 4.52301 
83 1 13.9062 8.99592 1.53871 
93 1 12.0745 7.16122 1.53898 
103 1 12.0743 8.99597 3.37308 
131 1 11.6321 9.43976 1.09496 
6 1 19.1329 8.59774 1.93821 
22 1 20.6724 10.1417 0.39466 
38 1 16.5499 9.24249 1.29291 
48 1 19.7753 6.01308 1.29564 
52 1 19.7752 9.23938 4.52581 
86 1 17.7 8.99656 1.53919 
96 1 19.5322 7.16398 1.53795 
100 1 19.5323 8.99736 3.37402 
134 1 19.9758 9.44185 1.09427 
5 1 12.4525 1.91856 8.61357 
21 1 10.9334 0.400712 10.1322 
37 1 15.0516 1.29597 9.23983 
47 1 11.835 4.51862 9.23855 
51 1 11.835 1.29791 6.01614 
85 1 13.897 1.53009 9.00471 
95 1 12.0678 3.36442 9.00349 
99 1 12.0703 1.53353 7.17084 
133 1 11.626 1.09128 9.44017 
4 1 19.1392 1.93108 8.60523 
20 1 20.6729 0.397535 10.1402 
36 1 16.5472 1.29681 9.23836 
46 1 19.7738 4.52319 9.23871 
56 1 19.7732 1.29688 6.01409 
84 1 17.6995 1.53694 8.99881 
94 1 19.5329 3.37062 8.99859 
104 1 19.5329 1.53704 7.16617 
132 1 19.9734 1.09661 9.43818 
2 1 12.4639 8.61061 8.61025 
18 1 10.932 10.1347 10.1343 
34 1 15.0577 9.23759 9.23754 
42 1 11.832 6.01534 9.23792 
50 1 11.8303 9.23971 6.0167 
82 1 13.9044 8.99863 8.99869 
90 1 12.0692 7.16883 9.00095 
98 1 12.0711 9 7.16989 
130 1 11.63 9.44104 9.44328 
7 1 19.1512 8.61527 8.61961 
23 1 20.6711 10.1389 10.1337 
39 1 16.5526 9.23885 9.23844 
43 1 19.7747 6.01694 9.23858 
53 1 19.7758 9.24031 6.01963 
87 1 17.7069 9.0034 9.00401 
91 1 19.5384 7.17155 9.00326 
101 1 19.5402 9.00476 7.17425 
135 1 19.9795 9.44594 9.44255 
ITEM: TIMESTEP
50
ITEM: NUMBER OF ATOMS
144
ITEM: BOX BOUNDS pp pp pp
0.0000000000000000e+00 2.1070900000000002e+01
0.0000000000000000e+00 2.1070900000000002e+01
0.0000000000000000e+00 2.1070900000000002e+01
ITEM: ATOMS id type x y z 
16 1 1.92368 12.4577 12.4595 
32 1 0.398481 10.9352 10.9351 
64 1 4.52178 11.8326 11.8311 
68 1 1.29374 15.0539 11.8294 
78 1 1.29506 11.8319 15.0559 
112 1 3.36706 12.0693 12.069 
116 1 1.532 13.8996 12.068 
126 1 1.53432 12.0702 13.9017 
144 1 1.09233 11.6273 11.627 
9 1 8.60601 12.4647 12.4646 
25 1 10.1325 10.9323 10.9374 
57 1 6.01278 11.8308 11.8314 
65 1 9.23889 15.0597 11.832 
73 1 9.24051 11.8293 15.0568 
105 1 7.16611 12.0715 12.0713 
113 1 8.99792 13.9067 12.0732 
121 1 8.99905 12.0723 13.9041 
137 1 9.44102 11.6322 11.629 
11 1 1.93257 19.1373 12.4658 
27 1 0.409023 20.6613 10.9425 
59 1 4.52536 19.7753 11.831 
69 1 1.29529 16.5444 11.831 
79 1 1.29352 19.7768 15.0578 
107 1 3.3733 19.5311 12.0741 
117 1 1.53897 17.6967 12.0738 
127 1 1.53854 19.5317 13.9066 
139 1 1.0983 19.9722 11.634 
14 1 8.61182 19.1472 12.4601 
30 1 10.1418 20.6729 10.9385 
62 1 6.01604 19.7767 11.8297 
72 1 9.24004 16.5508 11.8301 
76 1 9.23972 19.7758 15.0563 
110 1 7.17013 19.5378 12.0685 
120 1 9.00173 17.7049 12.0692 
124 1 9.00145 19.537 13.9019 
142 1 9.44703 19.9781 11.6289 
13 1 1.93027 12.465 19.1399 
29 1 0.41319 10.9428 20.6616 
61 1 4.52279 11.8298 19.7764 
71 1 1.29397 15.0576 19.7766 
75 1 1.29512 11.8307 16.5463 
109 1 3.37026 12.072 19.5335 
119 1 1.5361 13.9053 19.5341 
123 1 1.5365 12.0715 17.6995 
141 1 1.10093 11.6331 19.9697 
12 1 8.60604 12.4673 19.1398 
28 1 10.1279 10.9458 20.66 
60 1 6.01339 11.8291 19.7774 
70 1 9.24015 15.06 19.7761 
80 1 9.24037 11.8299 16.5473 
108 1 7.16569 12.0719 19.5347 
118 1 8.99827 13.9074 19.5336 
128 1 8.99845 12.0727 17.6999 
140 1 9.43459 11.635 19.9712 
10 1 1.93335 19.1384 19.1377 
26 1 0.394491 20.6778 20.6773 
58 1 4.52395 19.7771 19.777 
66 1 1.29237 16.5485 19.778 
74 1 1.29209 19.7783 16.5485 
106 1 3.37167 19.534 19.5336 
114 1 1.53661 17.7004 19.5342 
122 1 1.53655 19.5344 17.7004 
138 1 1.09558 19.9765 19.9777 
15 1 8.60829 19.1432 19.1409 
31 1 10.1378 20.6807 20.6669 
63 1 6.01484 19.7748 19.7766 
67 1 9.2425 16.5509 19.7784 
77 1 9.23908 19.7733 16.5464 
111 1 7.16771 19.534 19.5348 
115 1 9.00215 17.704 19.5368 
125 1 8.99881 19.5329 17.7001 
143 1 9.4424 19.9816 19.9736 
8 1 12.4624 1.92393 1.92781 
24 1 10.9383 0.395595 0.4096 
40 1 15.0574 1.29706 1.29504 
44 1 11.8273 4.51758 1.29262 
54 1 11.8312 1.29853 4.5231 
88 1 13.9034 1.53545 1.53531 
92 1 12.0687 3.36466 1.53426 
102 1 12.0718 1.53773 3.36946 
136 1 11.6289 1.09133 1.09838 
1 1 19.1456 1.92287 1.92451 
17 1 20.6568 0.410309 0.41178 
33 1 16.5484 1.29642 1.29612 
41 1 19.7785 4.51925 1.29302 
49 1 19.778 1.29369 4.52002 
81 1 17.7029 1.53343 1.53402 
89 1 19.5392 3.36538 1.53121 
97 1 19.539 1.53134 3.36578 
129 1 19.9716 1.09996 1.09751 
3 1 12.4717 8.59718 1.93677 
19 1 10.9322 10.139 0.397433 
35 1 15.0576 9.24388 1.2913 
45 1 11.8291 6.00877 1.29364 
55 1 11.8285 9.24202 4.52485 
83 1 13.9076 8.99498 1.53972 
93 1 12.0754 7.15943 1.54033 
103 1 12.0752 8.9946 3.37421 
131 1 11.6299 9.438 1.09733 
6 1 19.1346 8.60012 1.93797 
22 1 20.6717 10.1414 0.396352 
38 1 16.5482 9.24376 1.29164 
48 1 19.7761 6.01068 1.2944 
52 1 19.7761 9.24057 4.52714 
86 1 17.6983 8.99578 1.54017 
96 1 19.531 7.16183 1.53999 
100 1 19.5309 8.99545 3.3756 
134 1 19.9751 9.43875 1.09449 
5 1 12.4577 1.92411 8.61143 
21 1 10.9338 0.400768 10.1327 
37 1 15.053 1.29377 9.24183 
47 1 11.8329 4.52134 9.23995 
51 1 11.8331 1.29638 6.01411 
85 1 13.8989 1.53181 9.00296 
95 1 12.0694 3.36668 9.00188 
99 1 12.0709 1.53451 7.16848 
133 1 11.626 1.0916 9.43972 
4 1 19.1309 1.93927 8.59681 
20 1 20.6717 0.399288 10.1373 
36 1 16.5441 1.29513 9.24037 
46 1 19.7757 4.52531 9.24057 
56 1 19.7752 1.29501 6.01071 
84 1 17.6957 1.53964 8.99593 
94 1 19.5303 3.37381 8.99581 
104 1 19.5302 1.53972 7.16228 
132 1 19.9714 1.09762 9.43935 
2 1 12.4662 8.60648 8.60786 
18 1 10.9348 10.1334 10.1345 
34 1 15.0598 9.23895 9.23869 
42 1 11.8309 6.01261 9.23923 
50 1 11.8286 9.24152 6.01548 
82 1 13.9067 8.99758 8.99787 
90 1 12.0715 7.16589 8.99954 
98 1 12.0724 8.99895 7.16775 
130 1 11.6289 9.43964 9.44006 
7 1 19.147 8.6121 8.61426 
23 1 20.6709 10.1387 10.134 
39 1 16.5507 9.24057 9.24029 
43 1 19.7766 6.01592 9.24063 
53 1 19.7777 9.24219 6.01784 
87 1 17.7051 9.00208 9.00291 
91 1 19.5374 7.17011 9.0025 
101 1 19.5387 9.00325 7.17187 
135 1 19.9794 9.44555 9.44183 
ITEM: TIMESTEP
60
ITEM: NUMBER OF ATOMS
144
ITEM: BOX BOUNDS pp pp pp
0.0000000000000000e+00 2.1070900000000002e+01
0.0000000000000000e+00 2.1070900000000002e+01
0.0000000000000000e+00 2.1070900000000002e+01
ITEM: ATOMS id type x y z 
16 1 1.92735 12.4619 12.4628 
32 1 0.399346 10.9363 10.936 
64 1 4.52199 11.83 11.8291 
68 1 1.29141 15.0547 11.8274 
78 1 1.29304 11.8297 15.0563 
112 1 3.36846 12.071 12.0706 
116 1 1.53391 13.9015 12.0694 
126 1 1.53563 12.0713 13.903 
144 1 1.09458 11.6288 11.6286 
9 1 8.59998 12.4723 12.4703 
25 1 10.136 10.9313 10.9336 
57 1 6.01177 11.8291 11.8293 
65 1 9.24077 15.0606 11.8301 
73 1 9.24266 11.8275 15.0576 
105 1 7.16387 12.0738 12.0736 
113 1 8.99593 13.9085 12.0749 
121 1 8.99706 12.0738 13.9061 
137 1 9.43735 11.6323 11.6328 
11 1 1.93495 19.1352 12.4688 
27 1 0.409312 20.661 10.944 
59 1 4.52557 19.7763 11.8298 
69 1 1.29414 16.5443 11.8297 
79 1 1.29222 19.7781 15.0581 
107 1 3.37406 19.5299 12.0752 
117 1 1.54021 17.696 12.0751 
127 1 1.5394 19.5307 13.9076 
139 1 1.10125 19.9693 11.6349 
14 1 8.60771 19.1431 12.4638 
30 1 10.1412 20.6721 10.9386 
62 1 6.01525 19.7788 11.8277 
72 1 9.24216 16.5502 11.8282 
76 1 9.242 19.7778 15.0559 
110 1 7.16832 19.5364 12.07 
120 1 9.00017 17.7033 12.0706 
124 1 8.99979 19.5354 13.9031 
142 1 9.44466 19.9769 11.6306 
13 1 1.93282 12.4678 19.1372 
29 1 0.412848 10.9433 20.6607 
61 1 4.5234 11.8279 19.7783 
71 1 1.29188 15.058 19.7786 
75 1 1.29324 11.829 16.5459 
109 1 3.37176 12.0732 19.5322 
119 1 1.53734 13.9069 19.5328 
123 1 1.53791 12.0731 17.6981 
141 1 1.10189 11.6343 19.9697 
12 1 8.60248 12.4692 19.1374 
28 1 10.1263 10.9458 20.66 
60 1 6.0129 11.8273 19.7791 
70 1 9.24216 15.0599 19.7781 
80 1 9.24225 11.828 16.5472 
108 1 7.16444 12.0733 19.5334 
118 1 8.99691 13.9085 19.5324 
128 1 8.99712 12.074 17.6988 
140 1 9.43598 11.6368 19.9702 
10 1 1.93665 19.135 19.1352 
26 1 0.396487 20.6755 20.6764 
58 1 4.52359 19.7786 19.7788 
66 1 1.29096 16.5481 19.7795 
74 1 1.29058 19.7799 16.5478 
106 1 3.37309 19.5324 19.5321 
114 1 1.5381 17.6987 19.5328 
122 1 1.53792 19.5331 17.6984 
138 1 1.09475 19.9771 19.976 
15 1 8.60075 19.1358 19.1336 
31 1 10.1391 20.6813 20.669 
63 1 6.0138 19.7774 19.779 
67 1 9.24494 16.5497 19.7807 
77 1 9.24137 19.7757 16.5455 
111 1 7.1647 19.5322 19.5328 
115 1 9.00008 17.7011 19.5348 
125 1 8.99665 19.5309 17.6975 
143 1 9.44044 19.9793 19.9711 
8 1 12.463 1.92591 1.92862 
24 1 10.9439 0.403085 0.414965 
40 1 15.0575 1.29532 1.29364 
44 1 11.8256 4.51805 1.29078 
54 1 11.8299 1.29664 4.52385 
88 1 13.906 1.53644 1.53632 
92 1 12.0695 3.36746 1.5348 
102 1 12.0728 1.53841 3.37115 
136 1 11.6341 1.09457 1.10299 