ITEM: TIMESTEP
0
ITEM: NUMBER OF ATOMS
51
ITEM: BOX BOUNDS pp pp pp
0.0000000000000000e+00 1.1000000000000000e+01
0.0000000000000000e+00 1.1002000000000001e+01
0.0000000000000000e+00 1.1000000000000000e+01
ITEM: ATOMS id type x y z 
10 1 4.603 4.603 4.603 
11 1 3.085 3.085 3.085 
12 1 3.796 3.796 3.796 
46 1 0.726 0.725 0.725 
47 1 2.26 2.259 2.26 
48 1 1.551 1.55 1.55 
19 1 4.546 4.545 6.226 
20 1 3.013 3.013 7.764 
21 1 3.721 3.721 7.053 
31 1 0.668 0.667 10.103 
32 1 2.187 2.187 8.589 
33 1 1.476 1.475 9.298 
16 1 4.546 6.225 4.546 
17 1 3.013 7.765 3.013 
18 1 3.721 7.053 3.722 
25 1 0.668 10.103 0.668 
26 1 2.188 8.589 2.188 
27 1 1.476 9.298 1.476 
4 1 4.608 6.169 6.169 
5 1 3.086 7.684 7.684 
6 1 3.799 6.974 6.974 
37 1 0.729 10.046 10.046 
38 1 2.259 8.509 8.508 
39 1 1.552 9.219 9.219 
13 1 6.225 4.546 4.546 
14 1 7.764 3.013 3.013 
15 1 7.053 3.721 3.722 
28 1 10.102 0.667 0.668 
29 1 8.589 2.187 2.188 
30 1 9.298 1.475 1.476 
49 2 8.048 2.352 4.161 
50 2 8.996 2.465 5.323 
51 3 9.869 2.413 4.878 
1 1 6.168 4.608 6.169 
2 1 7.684 3.086 7.684 
3 1 6.974 3.799 6.974 
40 1 10.045 0.728 10.046 
41 1 8.508 2.259 8.508 
42 1 9.218 1.551 9.218 
7 1 6.169 6.169 4.608 
8 1 7.684 7.684 3.086 
9 1 6.974 6.974 3.799 
43 1 10.046 10.047 0.729 
44 1 8.508 8.509 2.259 
45 1 9.219 9.219 1.552 
22 1 6.229 6.229 6.229 
23 1 7.764 7.765 7.765 
24 1 7.055 7.056 7.055 
34 1 10.108 10.108 10.107 
35 1 8.59 8.59 8.59 
36 1 9.301 9.301 9.3 
ITEM: TIMESTEP
10
ITEM: NUMBER OF ATOMS
51
ITEM: BOX BOUNDS pp pp pp
0.0000000000000000e+00 1.1000000000000000e+01
0.0000000000000000e+00 1.1002000000000001e+01
0.0000000000000000e+00 1.1000000000000000e+01
ITEM: ATOMS id type x y z 
10 1 4.58747 4.60826 4.60721 
11 1 3.08748 3.08463 3.08483 
12 1 3.79334 3.80076 3.80091 
46 1 0.731409 0.727377 0.727408 
47 1 2.26349 2.26258 2.26336 
48 1 1.55262 1.55252 1.55266 
19 1 4.549 4.5428 6.22383 
20 1 3.01032 3.01072 7.76685 
21 1 3.72045 3.71934 7.05334 
31 1 0.668701 0.665001 10.1014 
32 1 2.18502 2.18646 8.59069 
33 1 1.47663 1.47305 9.29707 
16 1 4.54861 6.22319 4.54354 
17 1 3.01198 7.76573 3.01267 
18 1 3.72003 7.05383 3.71966 
25 1 0.668917 10.1013 0.665586 
26 1 2.1868 8.59021 2.18817 
27 1 1.47574 9.29828 1.47308 
4 1 4.60809 6.16927 6.16837 
5 1 3.08729 7.6834 7.68319 
6 1 3.79914 6.97256 6.97284 
37 1 0.729533 10.0461 10.0458 
38 1 2.26198 8.50674 8.50581 
39 1 1.55161 9.21866 9.21871 
13 1 6.24456 4.52359 4.51713 
14 1 7.76856 2.99553 3.13423 
15 1 7.02477 3.75094 3.73158 
28 1 10.1296 0.639949 0.643234 
29 1 8.5928 2.17829 2.16133 
30 1 9.30365 1.46657 1.45728 
49 2 8.03233 2.38552 4.09886 
50 2 9.01122 2.4632 5.32678 
51 3 9.85918 2.41335 4.88051 
1 1 6.16367 4.61235 6.18433 
2 1 7.68468 3.08493 7.6835 
3 1 6.96816 3.8042 6.97747 
40 1 10.0432 0.729311 10.0409 
41 1 8.50613 2.26061 8.50624 
42 1 9.21697 1.55369 9.21713 
7 1 6.16376 6.18404 4.61274 
8 1 7.68489 7.68184 3.08555 
9 1 6.96938 6.97748 3.80263 
43 1 10.0443 10.0419 0.731547 
44 1 8.50606 8.50647 2.26164 
45 1 9.2169 9.21824 1.55372 
22 1 6.23141 6.22582 6.22592 
23 1 7.76454 7.76592 7.76597 
24 1 7.05668 7.05643 7.05535 
34 1 10.1097 10.1068 10.1051 
35 1 8.58992 8.59128 8.59112 
36 1 9.30234 9.30002 9.29927 
ITEM: TIMESTEP
20
ITEM: NUMBER OF ATOMS
51
ITEM: BOX BOUNDS pp pp pp
0.0000000000000000e+00 1.1000000000000000e+01
0.0000000000000000e+00 1.1002000000000001e+01
0.0000000000000000e+00 1.1000000000000000e+01
ITEM: ATOMS id type x y z 
10 1 4.58506 4.61003 4.60961 
11 1 3.08872 3.08572 3.08623 
12 1 3.79031 3.80196 3.80179 
46 1 0.738714 0.72648 0.726618 
47 1 2.26425 2.26507 2.26574 
48 1 1.55631 1.55315 1.55343 
19 1 4.54917 4.54074 6.2246 
20 1 3.009 3.01115 7.76706 
21 1 3.72128 3.71664 7.05437 
31 1 0.671508 0.662387 10.1005 
32 1 2.18659 2.1863 8.58994 
33 1 1.47343 1.47235 9.29846 
16 1 4.54663 6.22498 4.54174 
17 1 3.00989 7.76727 3.0115 
18 1 3.72022 7.05441 3.71799 
25 1 0.671689 10.1008 0.663151 
26 1 2.18729 8.59129 2.18711 
27 1 1.47341 9.29754 1.47276 
4 1 4.60793 6.16811 6.16914 
5 1 3.0882 7.68245 7.68371 
6 1 3.79923 6.97242 6.96985 
37 1 0.730652 10.044 10.0444 
38 1 2.26228 8.50568 8.50544 
39 1 1.55409 9.2181 9.21702 
13 1 6.23623 4.53402 4.51523 
14 1 7.76914 2.98181 3.17745 
15 1 7.01852 3.7607 3.73335 
28 1 10.1375 0.632484 0.633883 
29 1 8.59355 2.1804 2.14855 
30 1 9.30512 1.46662 1.44961 
49 2 8.0288 2.39072 4.08831 
50 2 9.01519 2.46209 5.33188 
51 3 9.85972 2.41327 4.87975 
1 1 6.16041 4.61419 6.18699 
2 1 7.68216 3.08714 7.6821 
3 1 6.9673 3.8048 6.98103 
40 1 10.0445 0.72828 10.0329 
41 1 8.50329 2.26411 8.50489 
42 1 9.21602 1.55408 9.21341 
7 1 6.16182 6.18636 4.61362 
8 1 7.68386 7.68082 3.08627 
9 1 6.96838 6.98065 3.8039 
43 1 10.0452 10.0344 0.730653 
44 1 8.50358 8.50547 2.26429 
45 1 9.21643 9.21451 1.55473 
22 1 6.23459 6.22526 6.22622 
23 1 7.76558 7.76719 7.76648 
24 1 7.05739 7.05612 7.05656 
34 1 10.1118 10.104 10.1035 
35 1 8.58955 8.58976 8.5909 
36 1 9.3034 9.30271 9.29933 
ITEM: TIMESTEP
30
ITEM: NUMBER OF ATOMS
51
ITEM: BOX BOUNDS pp pp pp
0.0000000000000000e+00 1.1000000000000000e+01
0.0000000000000000e+00 1.1002000000000001e+01
0.0000000000000000e+00 1.1000000000000000e+01
ITEM: ATOMS id type x y z 
10 1 4.58045 4.61445 4.61328 
11 1 3.08638 3.08755 3.08878 
12 1 3.78683 3.80388 3.80296 
46 1 0.744562 0.723458 0.723399 
47 1 2.26341 2.26634 2.26709 
48 1 1.56188 1.55235 1.55258 
19 1 4.5493 4.53646 6.22791 
20 1 3.00709 3.00921 7.76747 
21 1 3.71918 3.71407 7.05913 
31 1 0.672026 0.659827 10.1006 
32 1 2.18549 2.1851 8.59076 
33 1 1.47325 1.46897 9.2989 
16 1 4.5381 6.23273 4.5437 
17 1 3.00685 7.76983 3.00819 
18 1 3.71662 7.05834 3.71593 
25 1 0.672802 10.0994 0.660658 
26 1 2.18509 8.59199 2.18416 
27 1 1.47284 9.30054 1.46993 
4 1 4.60666 6.16766 6.16633 
5 1 3.08866 7.68105 7.68163 
6 1 3.80234 6.97139 6.96932 
37 1 0.734444 10.0388 10.0396 
38 1 2.26536 8.50199 8.50261 
39 1 1.55892 9.21513 9.21367 
13 1 6.22248 4.55492 4.50655 
14 1 7.76763 2.96722 3.21519 
15 1 7.0148 3.77016 3.72974 
28 1 10.1432 0.627862 0.620959 
29 1 8.59651 2.18225 2.13345 
30 1 9.30322 1.47338 1.42911 
49 2 8.03663 2.36901 4.10825 
50 2 9.0253 2.45913 5.34529 
51 3 9.86173 2.41299 4.8778 
1 1 6.15335 4.61998 6.19343 
2 1 7.67711 3.09119 7.68384 
3 1 6.96373 3.80832 6.98266 
40 1 10.0482 0.724043 10.0253 
41 1 8.50377 2.26417 8.50799 
42 1 9.2162 1.55444 9.20625 
7 1 6.15824 6.1917 4.61553 
8 1 7.68231 7.68383 3.08842 
9 1 6.96684 6.98387 3.80417 
43 1 10.0484 10.0285 0.726954 
44 1 8.50321 8.50686 2.26534 
45 1 9.2182 9.2096 1.55335 
22 1 6.23782 6.22463 6.23052 
23 1 7.76768 7.76882 7.76808 
24 1 7.05986 7.05762 7.05887 
34 1 10.1149 10.1038 10.1016 
35 1 8.59017 8.59045 8.59058 
36 1 9.30494 9.30175 9.30021 
ITEM: TIMESTEP
40
ITEM: NUMBER OF ATOMS
51
ITEM: BOX BOUNDS pp pp pp
0.0000000000000000e+00 1.1000000000000000e+01
0.0000000000000000e+00 1.1002000000000001e+01
0.0000000000000000e+00 1.1000000000000000e+01
ITEM: ATOMS id type x y z 
10 1 4.5759 4.61719 4.61291 
11 1 3.08418 3.09042 3.09105 
12 1 3.78591 3.80736 3.80724 
46 1 0.746781 0.723581 0.722307 
47 1 2.26371 2.26516 2.26599 
48 1 1.56213 1.55116 1.55179 
19 1 4.55157 4.5334 6.22929 
20 1 3.00624 3.00783 7.77068 
21 1 3.71782 3.71165 7.05714 
31 1 0.675319 0.656309 10.0997 
32 1 2.18339 2.18427 8.59076 
33 1 1.47595 1.46683 9.29985 
16 1 4.53418 6.23737 4.54759 
17 1 3.00684 7.77202 3.00345 
18 1 3.70879 7.06181 3.72004 
25 1 0.671509 10.1004 0.657216 
26 1 2.18578 8.59203 2.18346 
27 1 1.47289 9.29846 1.46871 
4 1 4.60609 6.17178 6.16364 
5 1 3.09183 7.67997 7.68029 
6 1 3.80147 6.96783 6.96652 
37 1 0.738694 10.0372 10.0348 
38 1 2.26881 8.50249 8.5004 
39 1 1.5579 9.21004 9.21403 
13 1 6.22229 4.56056 4.49168 
14 1 7.77407 2.94771 3.23201 
15 1 7.00962 3.77758 3.73145 
28 1 10.1419 0.629568 0.615762 
29 1 8.59586 2.18577 2.13015 
30 1 9.29842 1.48171 1.41771 
49 2 8.04354 2.34979 4.12507 
50 2 9.03464 2.45661 5.35767 
51 3 9.86314 2.41268 4.8758 
1 1 6.14815 4.62603 6.1976 
2 1 7.67466 3.0932 7.68573 
3 1 6.95945 3.81271 6.98636 
40 1 10.0492 0.723759 10.021 
41 1 8.50021 2.26893 8.50273 
42 1 9.21587 1.55288 9.20485 
7 1 6.15703 6.19589 4.61649 
8 1 7.68213 7.68785 3.09006 
9 1 6.96333 6.98649 3.8043 
43 1 10.0492 10.0275 0.724628 
44 1 8.50519 8.50708 2.26379 
45 1 9.22019 9.21022 1.55213 
22 1 6.23858 6.22384 6.23265 
23 1 7.76658 7.76914 7.76898 
24 1 7.06223 7.05566 7.05833 
34 1 10.1172 10.0986 10.1014 
35 1 8.591 8.59141 8.59124 
36 1 9.30758 9.30126 9.29945 
ITEM: TIMESTEP
50
ITEM: NUMBER OF ATOMS
51
ITEM: BOX BOUNDS pp pp pp
0.0000000000000000e+00 1.1000000000000000e+01
0.0000000000000000e+00 1.1002000000000001e+01
0.0000000000000000e+00 1.1000000000000000e+01
ITEM: ATOMS id type x y z 
10 1 4.57729 4.61839 4.61395 
11 1 3.08106 3.09161 3.0927 
12 1 3.78367 3.80854 3.80717 
46 1 0.746492 0.722324 0.72066 
47 1 2.2644 2.26443 2.26583 
48 1 1.56277 1.5516 1.55162 
19 1 4.55264 4.52942 6.22789 
20 1 3.00523 3.00751 7.77047 
21 1 3.71912 3.70965 7.05856 
31 1 0.677376 0.65402 10.1003 
32 1 2.18309 2.18348 8.59124 
33 1 1.47609 1.46538 9.29987 
16 1 4.52842 6.24162 4.5513 
17 1 3.00526 7.77314 3.00241 
18 1 3.7064 7.06431 3.72113 
25 1 0.670717 10.1006 0.656708 
26 1 2.18383 8.59278 2.18085 
27 1 1.47296 9.30043 1.46551 
4 1 4.60394 6.17267 6.16048 
5 1 3.09168 7.67899 7.67983 
6 1 3.80261 6.96865 6.96568 
37 1 0.740145 10.0346 10.0326 
38 1 2.2707 8.5003 8.49943 
39 1 1.56078 9.20849 9.21154 
13 1 6.21553 4.5724 4.48457 
14 1 7.77522 2.93608 3.24769 
15 1 7.01139 3.77643 3.72941 
28 1 10.1398 0.634024 0.609864 
29 1 8.59552 2.18781 2.128 
30 1 9.2948 1.48877 1.40819 
49 2 8.05024 2.33191 4.1397 
50 2 9.04314 2.45441 5.36884 
51 3 9.86425 2.41238 4.87398 
1 1 6.14477 4.62879 6.19913 
2 1 7.67223 3.09621 7.68707 
3 1 6.95553 3.81519 6.98898 
40 1 10.0492 0.722875 10.0192 
41 1 8.50049 2.26785 8.50227 
42 1 9.21537 1.55483 9.20245 
7 1 6.15678 6.19445 4.61413 
8 1 7.68073 7.69132 3.09016 
9 1 6.96371 6.98962 3.80516 
43 1 10.0504 10.0281 0.722619 
44 1 8.50696 8.50726 2.26332 
45 1 9.22051 9.21013 1.55124 
22 1 6.24133 6.22298 6.23303 
23 1 7.76771 7.76978 7.76961 
24 1 7.06313 7.05547 7.06039 
34 1 10.1194 10.0974 10.1009 
35 1 8.5914 8.59219 8.5906 
36 1 9.30888 9.29935 9.2998 
ITEM: TIMESTEP
60
ITEM: NUMBER OF ATOMS
51
ITEM: BOX BOUNDS pp pp pp
0.0000000000000000e+00 1.1000000000000000e+01
0.0000000000000000e+00 1.1002000000000001e+01
0.0000000000000000e+00 1.1000000000000000e+01
ITEM: ATOMS id type x y z 
10 1 4.57859 4.61753 4.61345 
11 1 3.07947 3.09173 3.09251 
12 1 3.78291 3.80795 3.80682 
46 1 0.745489 0.723027 0.720325 
47 1 2.26377 2.2642 2.26582 
48 1 1.56261 1.55167 1.55123 
19 1 4.55375 4.52737 6.22708 
20 1 3.00598 3.00789 7.77064 
21 1 3.71931 3.70839 7.05737 
31 1 0.678249 0.653385 10.1004 
32 1 2.18239 2.18342 8.59084 
33 1 1.4776 1.46438 9.30078 
16 1 4.52498 6.2437 4.55444 
17 1 3.00351 7.77321 3.00299 
18 1 3.70677 7.06618 3.72118 
25 1 0.670066 10.102 0.657466 
26 1 2.18404 8.59381 2.17937 
27 1 1.47118 9.30004 1.46447 
4 1 4.60355 6.17297 6.15764 
5 1 3.09169 7.67815 7.68008 
6 1 3.80304 6.97012 6.96437 
37 1 0.739815 10.0342 10.0318 
38 1 2.27076 8.49917 8.49987 
39 1 1.56169 9.2095 9.21076 
13 1 6.21365 4.57668 4.47995 
14 1 7.7764 2.9299 3.25402 
15 1 7.01202 3.77486 3.73004 
28 1 10.1376 0.637556 0.606736 
29 1 8.5949 2.18811 2.12883 
30 1 9.2934 1.49216 1.40511 
49 2 8.05349 2.32323 4.14528 
50 2 9.04784 2.45338 5.37493 
51 3 9.86456 2.41217 4.87292 
1 1 6.14403 4.6296 6.1996 
2 1 7.67188 3.09662 7.68688 
3 1 6.95367 3.81694 6.99177 
40 1 10.0482 0.723125 10.019 
41 1 8.50021 2.26724 8.5015 
42 1 9.21515 1.55657 9.20306 
7 1 6.15783 6.19353 4.61241 
8 1 7.67993 7.69385 3.08986 
9 1 6.96594 6.98899 3.80487 
43 1 10.0499 10.0293 0.72195 
44 1 8.50742 8.50848 2.26284 
45 1 9.22153 9.21086 1.5504 
22 1 6.24209 6.22219 6.2327 
23 1 7.76777 7.76927 7.7698 
24 1 7.06345 7.05549 7.06005 
34 1 10.1208 10.0957 10.1016 
35 1 8.59227 8.59124 8.59044 
36 1 9.30792 9.29998 9.29977 
ITEM: TIMESTEP
70
ITEM: NUMBER OF ATOMS
51
ITEM: BOX BOUNDS pp pp pp
0.0000000000000000e+00 1.1000000000000000e+01
0.0000000000000000e+00 1.1002000000000001e+01
0.0000000000000000e+00 1.1000000000000000e+01
ITEM: ATOMS id type x y z 
10 1 4.57997 4.6164 4.61261 
11 1 3.07755 3.09234 3.093 
12 1 3.78274 3.80757 3.80641 
46 1 0.744738 0.723775 0.719333 
47 1 2.26326 2.264 2.26565 
48 1 1.56128 1.55204 1.55108 
19 1 4.55559 4.52356 6.22404 
20 1 3.00597 3.00744 7.77025 
21 1 3.72071 3.70708 7.05691 
31 1 0.681058 0.651551 10.1013 
32 1 2.18329 2.18312 8.59113 
33 1 1.47764 1.46412 9.30022 
16 1 4.52158 6.24661 4.55868 
17 1 3.00228 7.77423 3.00309 
18 1 3.70507 7.06772 3.72266 
25 1 0.667695 10.103 0.658231 
26 1 2.18299 8.59331 2.17744 
27 1 1.47133 9.30212 1.46399 
4 1 4.60275 6.1754 6.15289 
5 1 3.09245 7.67739 7.68039 
6 1 3.80264 6.97103 6.96198 
37 1 0.739715 10.0345 10.0307 
38 1 2.27152 8.49817 8.50074 
39 1 1.56178 9.20985 9.20936 
13 1 6.21278 4.58061 4.47059 
14 1 7.77649 2.92179 3.2656 
15 1 7.01311 3.77201 3.73216 
28 1 10.1346 0.643222 0.6012 
29 1 8.59379 2.18895 2.13058 
30 1 9.2905 1.49754 1.4009 
49 2 8.05771 2.31082 4.15338 
50 2 9.0554 2.45178 5.38471 
51 3 9.865 2.41181 4.87116 
1 1 6.14147 4.63247 6.2029 
2 1 7.66979 3.09813 7.68876 
3 1 6.95302 3.81805 6.99179 
40 1 10.0473 0.725187 10.0196 
41 1 8.49996 2.26856 8.50078 
42 1 9.21382 1.55646 9.20242 
7 1 6.16053 6.191 4.61042 
8 1 7.68036 7.69614 3.0898 
9 1 6.96637 6.99034 3.8037 
43 1 10.0499 10.0304 0.720866 
44 1 8.50826 8.50977 2.26245 
45 1 9.22142 9.21268 1.54965 
22 1 6.24345 6.22094 6.23129 
23 1 7.76764 7.76866 7.76973 
24 1 7.06406 7.05418 7.05951 
34 1 10.1211 10.0943 10.102 
35 1 8.5915 8.59173 8.59007 
36 1 9.31003 9.29714 9.29986 
ITEM: TIMESTEP
80
ITEM: NUMBER OF ATOMS
51
ITEM: BOX BOUNDS pp pp pp
0.0000000000000000e+00 1.1000000000000000e+01
0.0000000000000000e+00 1.1002000000000001e+01
0.0000000000000000e+00 1.1000000000000000e+01
ITEM: ATOMS id type x y z 
10 1 4.59093 4.60682 4.60897 
11 1 3.06832 3.09424 3.0932 
12 1 3.78173 3.80284 3.80394 
46 1 0.740562 0.727405 0.713786 
47 1 2.25921 2.26454 2.26562 
48 1 1.55476 1.55595 1.55081 
19 1 4.56593 4.50293 6.20651 
20 1 3.00685 3.00807 7.7682 
21 1 3.72741 3.69514 7.04877 
31 1 0.695728 0.642674 10.105 
32 1 2.18764 2.1843 8.59003 
33 1 1.48914 1.45857 9.29938 
16 1 4.50694 6.26106 4.57457 
17 1 2.99492 7.77815 3.00422 
18 1 3.69472 7.07642 3.73077 
25 1 0.656242 10.1144 0.66884 
26 1 2.1826 8.59721 2.16957 
27 1 1.46201 9.3052 1.46408 
4 1 4.59603 6.19222 6.125 
5 1 3.09522 7.67462 7.6829 
6 1 3.79925 6.97793 6.94943 
37 1 0.737252 10.041 10.0184 
38 1 2.2754 8.49586 8.50444 
39 1 1.5598 9.20867 9.20542 
13 1 6.20706 4.59731 4.41899 
14 1 7.7763 2.88048 3.32385 
15 1 7.02082 3.75347 3.74334 
28 1 10.1158 0.678904 0.573942 
29 1 8.58604 2.19259 2.14514 
30 1 9.27412 1.5258 1.38461 
49 2 8.07611 2.24882 4.19524 
50 2 9.09895 2.44334 5.43826 
51 3 9.86567 2.40959 4.86187 
1 1 6.1281 4.64557 6.21938 
2 1 7.66224 3.10335 7.69398 
3 1 6.94689 3.82944 7.00271 
40 1 10.0396 0.734914 10.0236 
41 1 8.49511 2.27435 8.49739 
42 1 9.20783 1.5599 9.19859 
7 1 6.1789 6.17269 4.59952 
8 1 7.68529 7.70497 3.08822 
9 1 6.96998 6.99623 3.79672 
43 1 10.0498 10.0354 0.71292 
44 1 8.50849 8.52142 2.2609 
45 1 9.22286 9.22087 1.54586 
22 1 6.25441 6.21412 6.22011 
23 1 7.76854 7.76419 7.76804 
24 1 7.06748 7.04905 7.05648 
34 1 10.1269 10.0818 10.1084 
35 1 8.59023 8.58817 8.58881 
36 1 9.31286 9.288 9.2994 
ITEM: TIMESTEP
90
ITEM: NUMBER OF ATOMS
51
ITEM: BOX BOUNDS pp pp pp
0.0000000000000000e+00 1.1000000000000000e+01
0.0000000000000000e+00 1.1002000000000001e+01
0.0000000000000000e+00 1.1000000000000000e+01
ITEM: ATOMS id type x y z 
10 1 4.58596 4.6005 4.60831 
11 1 3.06806 3.09171 3.09433 
12 1 3.78285 3.80443 3.80044 
46 1 0.736827 0.727631 0.716577 
47 1 2.25366 2.26459 2.26628 
48 1 1.5546 1.55459 1.54447 
19 1 4.5669 4.4996 6.20128 
20 1 3.00816 3.00611 7.76465 
21 1 3.73047 3.69531 7.04784 
31 1 0.702127 0.639162 10.1024 
32 1 2.18995 2.18054 8.59033 
33 1 1.48684 1.46178 9.30248 
16 1 4.50836 6.26222 4.57284 
17 1 2.99407 7.78349 3.00259 
18 1 3.6894 7.07574 3.72939 
25 1 0.648033 10.1169 0.675033 
26 1 2.17614 8.59481 2.17095 
27 1 1.46597 9.31326 1.46545 
4 1 4.59172 6.19638 6.12081 
5 1 3.09239 7.67486 7.68209 
6 1 3.80171 6.98209 6.94943 
37 1 0.735524 10.0441 10.0162 
38 1 2.27616 8.49426 8.50567 
39 1 1.55995 9.20959 9.20282 
13 1 6.18409 4.62107 4.41678 
14 1 7.80211 2.84856 3.31228 
15 1 7.01889 3.74974 3.74335 
28 1 10.11 0.691171 0.570955 
29 1 8.5866 2.18963 2.14866 
30 1 9.27339 1.52802 1.38177 
49 2 8.08274 2.23023 4.20566 
50 2 9.1088 2.44192 5.44953 
51 3 9.86593 2.40892 4.86003 
1 1 6.12853 4.65076 6.23399 
2 1 7.66606 3.10607 7.69379 
3 1 6.93908 3.8276 7.00834 
40 1 10.0358 0.737925 10.0261 
41 1 8.49468 2.2728 8.49836 
42 1 9.20842 1.56093 9.20297 
7 1 6.1806 6.18167 4.59566 
8 1 7.68168 7.7111 3.08535 
9 1 6.98092 6.99043 3.79705 
43 1 10.0521 10.0357 0.713086 
44 1 8.51068 8.52283 2.26092 
45 1 9.22135 9.22416 1.54287 
22 1 6.25716 6.2107 6.2174 
23 1 7.76882 7.76289 7.76813 
24 1 7.06896 7.04995 7.0532 
34 1 10.1275 10.0786 10.1049 
35 1 8.59416 8.58714 8.58788 
36 1 9.31018 9.28691 9.3062 
ITEM: TIMESTEP
100
ITEM: NUMBER OF ATOMS
51
ITEM: BOX BOUNDS pp pp pp
0.0000000000000000e+00 1.1000000000000000e+01
0.0000000000000000e+00 1.1002000000000001e+01
0.0000000000000000e+00 1.1000000000000000e+01
ITEM: ATOMS id type x y z 
10 1 4.58578 4.60087 4.60609 
11 1 3.06753 3.09127 3.09099 
12 1 3.77992 3.80081 3.80252 
46 1 0.737694 0.728308 0.71514 
47 1 2.25419 2.26507 2.2651 
48 1 1.5535 1.5549 1.54718 
19 1 4.56846 4.49944 6.20217 
20 1 3.00939 3.00551 7.76558 
21 1 3.7285 3.69371 7.04615 
31 1 0.701458 0.639123 10.103 
32 1 2.18902 2.18288 8.59072 
33 1 1.49006 1.45844 9.30075 
16 1 4.50631 6.26231 4.57299 
17 1 2.99243 7.78194 3.00314 
18 1 3.69125 7.07811 3.72925 
25 1 0.649141 10.1182 0.675863 
26 1 2.17769 8.59716 2.17018 
27 1 1.46155 9.31149 1.46696 
4 1 4.59195 6.19833 6.11946 
5 1 3.09418 7.67595 7.68225 
6 1 3.79907 6.9804 6.94823 
37 1 0.733825 10.0446 10.0143 
38 1 2.27454 8.49381 8.50555 
39 1 1.56115 9.21156 9.20404 
13 1 6.18303 4.62121 4.41089 
14 1 7.80514 2.84294 3.31671 
15 1 7.01729 3.74971 3.74555 
28 1 10.1085 0.693688 0.570685 
29 1 8.58612 2.19051 2.1473 
30 1 9.27247 1.52923 1.38146 
49 2 8.08443 2.22597 4.20698 
50 2 9.11111 2.44164 5.45208 
51 3 9.86592 2.40878 4.85961 
1 1 6.12576 4.65032 6.23768 
2 1 7.66517 3.10373 7.69482 
3 1 6.94227 3.82991 7.01041 
40 1 10.0357 0.737116 10.0254 
41 1 8.49476 2.27277 8.49759 
42 1 9.20732 1.56268 9.2038 
7 1 6.18308 6.1831 4.5952 
8 1 7.68502 7.71112 3.0849 
9 1 6.97892 6.99344 3.79466 
43 1 10.0511 10.0355 0.712061 
44 1 8.50992 8.52412 2.25988 
45 1 9.22308 9.22379 1.5433 
22 1 6.25734 6.21095 6.21761 
23 1 7.76891 7.76423 7.76791 
24 1 7.07107 7.04877 7.05398 
34 1 10.1274 10.0787 10.1072 
35 1 8.59264 8.58629 8.58996 
36 1 9.31279 9.28666 9.30286 
ITEM: TIMESTEP
110
ITEM: NUMBER OF ATOMS
51
ITEM: BOX BOUNDS pp pp pp
0.0000000000000000e+00 1.1000000000000000e+01
0.0000000000000000e+00 1.1002000000000001e+01
0.0000000000000000e+00 1.1000000000000000e+01
ITEM: ATOMS id type x y z 
10 1 4.59796 4.587 4.59425 
11 1 3.0599 3.08638 3.08842 
12 1 3.78275 3.79243 3.79136 
46 1 0.735509 0.730779 0.711133 
47 1 2.25121 2.26582 2.25729 
48 1 1.54041 1.55228 1.55202 
19 1 4.57868 4.49122 6.19695 
20 1 3.01294 3.00231 7.76104 
21 1 3.73321 3.6875 7.0395 
31 1 0.712549 0.63307 10.0978 
32 1 2.19321 2.18328 8.59027 
33 1 1.49776 1.45433 9.29952 
16 1 4.49686 6.26209 4.57457 
17 1 2.98376 7.781 3.00275 
18 1 3.69682 7.09144 3.7291 
25 1 0.638279 10.1255 0.690802 
26 1 2.17139 8.59883 2.17066 
27 1 1.45208 9.32221 1.47993 
4 1 4.58606 6.20898 6.10238 
5 1 3.09411 7.67633 7.68232 
6 1 3.79545 6.98644 6.93972 
37 1 0.731922 10.0515 10.0008 
38 1 2.276 8.49255 8.50677 
39 1 1.56048 9.21409 9.19925 
13 1 6.15367 4.64613 4.35071 
14 1 7.81033 2.81738 3.36786 
15 1 7.01431 3.7291 3.76634 
28 1 10.097 0.719354 0.563952 
29 1 8.57304 2.204 2.15049 
30 1 9.2587 1.54942 1.37784 
49 2 8.1054 2.17148 4.22839 
50 2 9.13922 2.43822 5.4827 
51 3 9.86647 2.40714 4.85489 
1 1 6.11258 4.66451 6.27576 
2 1 7.66655 3.10235 7.6997 
3 1 6.93759 3.83432 7.02743 
40 1 10.0289 0.743327 10.0293 
41 1 8.49474 2.27523 8.49773 
42 1 9.20354 1.5636 9.20728 
7 1 6.19815 6.17437 4.58434 
8 1 7.69235 7.71897 3.07827 
9 1 6.99106 6.99641 3.78684 
43 1 10.0548 10.0364 0.707027 
44 1 8.51391 8.53034 2.25319 
45 1 9.22513 9.23492 1.53929 
22 1 6.26415 6.20326 6.20979 
23 1 7.76978 7.76388 7.76517 
24 1 7.07899 7.04272 7.04981 
34 1 10.1333 10.0765 10.0987 
35 1 8.59906 8.58603 8.58305 
36 1 9.30288 9.27426 9.32356 
ITEM: TIMESTEP
120
ITEM: NUMBER OF ATOMS
51
ITEM: BOX BOUNDS pp pp pp
0.0000000000000000e+00 1.1000000000000000e+01
0.0000000000000000e+00 1.1002000000000001e+01
0.0000000000000000e+00 1.1000000000000000e+01
ITEM: ATOMS id type x y z 
10 1 4.62221 4.582 4.58156 
11 1 3.0551 3.08237 3.08431 
12 1 3.78417 3.78277 3.78629 
46 1 0.722948 0.73115 0.712685 
47 1 2.24643 2.26555 2.26086 
48 1 1.54031 1.55511 1.54318 
19 1 4.58584 4.48655 6.19701 
20 1 3.01538 3.00167 7.76047 
21 1 3.73563 3.68442 7.03547 
31 1 0.715018 0.626557 10.0952 
32 1 2.19567 2.18231 8.58657 
33 1 1.50304 1.4536 9.29767 
16 1 4.49666 6.27508 4.57757 
17 1 2.98727 7.78582 3.00581 
18 1 3.68857 7.08587 3.73269 
25 1 0.634715 10.1331 0.696791 
26 1 2.16892 8.60226 2.17452 
27 1 1.44856 9.31967 1.47987 
4 1 4.58229 6.21264 6.09156 
5 1 3.0953 7.67636 7.68114 
6 1 3.79396 6.98839 6.93464 
37 1 0.729329 10.057 9.99742 
38 1 2.27525 8.49444 8.50561 
39 1 1.56066 9.21405 9.19828 
13 1 6.14281 4.65056 4.28389 
14 1 7.81333 2.8092 3.38205 
15 1 7.0065 3.72761 3.76027 
28 1 10.0885 0.737138 0.563529 
29 1 8.56782 2.20446 2.17098 
30 1 9.24961 1.56329 1.37923 
49 2 8.10784 2.15166 4.23581 
50 2 9.15451 2.43676 5.49616 
51 3 9.8703 2.40647 4.8557 
1 1 6.09585 4.68297 6.33217 
2 1 7.67082 3.09897 7.70327 
3 1 6.9308 3.83844 7.04907 
40 1 10.0258 0.746355 10.0357 
41 1 8.49648 2.2726 8.49781 
42 1 9.20547 1.56472 9.2067 
7 1 6.207 6.15301 4.57583 
8 1 7.69492 7.72152 3.0752 
9 1 6.99879 6.99565 3.78516 
43 1 10.0544 10.0427 0.705782 
44 1 8.51296 8.53399 2.25319 
45 1 9.22626 9.23376 1.53774 
22 1 6.27224 6.19715 6.20312 
23 1 7.77138 7.76184 7.76396 
24 1 7.08024 7.04183 7.04377 
34 1 10.1319 10.0733 10.105 
35 1 8.59419 8.57985 8.59236 
36 1 9.31107 9.27642 9.30741 
ITEM: TIMESTEP
130
ITEM: NUMBER OF ATOMS
51
ITEM: BOX BOUNDS pp pp pp
0.0000000000000000e+00 1.1000000000000000e+01
0.0000000000000000e+00 1.1002000000000001e+01
0.0000000000000000e+00 1.1000000000000000e+01
ITEM: ATOMS id type x y z 
10 1 4.6246 4.5761 4.5771 
11 1 3.05612 3.08397 3.08628 
12 1 3.78931 3.78235 3.78532 
46 1 0.722086 0.733464 0.71411 
47 1 2.24398 2.26405 2.25951 
48 1 1.53867 1.5561 1.54396 
19 1 4.5841 4.48521 6.19091 
20 1 3.01657 3.00229 7.75643 
21 1 3.73917 3.68577 7.03584 
31 1 0.718058 0.626207 10.0924 
32 1 2.19688 2.18243 8.58664 
33 1 1.50316 1.45227 9.29626 
16 1 4.49691 6.27491 4.57846 
17 1 2.98613 7.78723 3.00455 
18 1 3.68661 7.08655 3.7338 
25 1 0.635466 10.1316 0.698059 
26 1 2.16905 8.60179 2.17541 
27 1 1.44748 9.32171 1.48255 
4 1 4.57902 6.21444 6.08931 
5 1 3.09523 7.67691 7.68136 
6 1 3.79249 6.98964 6.93272 
37 1 0.72912 10.0566 9.99749 
38 1 2.27624 8.49279 8.50621 
39 1 1.56018 9.21656 9.19548 
13 1 6.13406 4.65458 4.28092 
14 1 7.8127 2.80886 3.38561 
15 1 7.00541 3.72618 3.75816 
28 1 10.0853 0.742811 0.565466 
29 1 8.56692 2.20436 2.17509 
30 1 9.24662 1.56729 1.38189 
49 2 8.10817 2.14595 4.23917 
50 2 9.15897 2.43636 5.49997 
51 3 9.87163 2.4063 4.85606 
1 1 6.09132 4.68311 6.33714 
2 1 7.67269 3.096 7.70516 
3 1 6.93161 3.84002 7.05744 
40 1 10.0247 0.74691 10.0358 
41 1 8.49647 2.27207 8.4959 
42 1 9.20717 1.56392 9.20934 
7 1 6.21284 6.15214 4.5724 
8 1 7.69468 7.7227 3.0779 
9 1 6.99979 6.99029 3.78199 
43 1 10.0524 10.0431 0.705885 
44 1 8.51306 8.53505 2.25262 
45 1 9.22697 9.2347 1.53675 
22 1 6.27506 6.19882 6.19975 
23 1 7.77045 7.75974 7.76301 
24 1 7.08198 7.04197 7.04183 
34 1 10.1307 10.0702 10.1055 
35 1 8.59157 8.57757 8.59414 
36 1 9.31519 9.27897 9.30287 
ITEM: TIMESTEP
140
ITEM: NUMBER OF ATOMS
51
ITEM: BOX BOUNDS pp pp pp
0.0000000000000000e+00 1.1000000000000000e+01
0.0000000000000000e+00 1.1002000000000001e+01
0.0000000000000000e+00 1.1000000000000000e+01
ITEM: ATOMS id type x y z 
10 1 4.62499 4.57239 4.57481 
11 1 3.0558 3.08209 3.08476 
12 1 3.79008 3.78054 3.78281 
46 1 0.719475 0.734856 0.714431 
47 1 2.24163 2.26414 2.25938 
48 1 1.53691 1.55529 1.54388 
19 1 4.58455 4.48538 6.18829 
20 1 3.01843 3.00271 7.75518 
21 1 3.73981 3.68563 7.03285 
31 1 0.720507 0.625532 10.0911 
32 1 2.19871 2.18293 8.58584 
33 1 1.5043 1.45162 9.29372 
16 1 4.4963 6.27651 4.57838 
17 1 2.98524 7.78787 3.00491 
18 1 3.6856 7.08719 3.73442 
25 1 0.633868 10.1325 0.700699 
26 1 2.16798 8.60283 2.17709 
27 1 1.44739 9.32221 1.48294 
4 1 4.57641 6.21736 6.08545 
5 1 3.09464 7.67847 7.68027 
6 1 3.79147 6.98917 6.93317 
37 1 0.728723 10.0576 9.99633 
38 1 2.27613 8.49324 8.50589 
39 1 1.56052 9.21692 9.19548 
13 1 6.13182 4.65506 4.27996 
14 1 7.81235 2.80688 3.39048 
15 1 7.00326 3.72635 3.75809 
28 1 10.0835 0.747556 0.566684 
29 1 8.56538 2.20503 2.17956 
30 1 9.24462 1.57051 1.38375 
49 2 8.1081 2.14034 4.24231 
50 2 9.16408 2.43592 5.5043 
51 3 9.87317 2.4061 4.85646 
1 1 6.0903 4.68379 6.34062 
2 1 7.67376 3.0952 7.70693 
3 1 6.93028 3.84118 7.06448 
40 1 10.0249 0.747299 10.0374 
41 1 8.49874 2.27023 8.49553 
42 1 9.20712 1.56289 9.21085 
7 1 6.21666 6.15266 4.57208 
8 1 7.69616 7.72454 3.07779 
9 1 7.00255 6.98721 3.77832 
43 1 10.0522 10.0441 0.705367 
44 1 8.51373 8.53695 2.25284 
45 1 9.22698 9.23545 1.53482 
22 1 6.2768 6.19892 6.19529 
23 1 7.76994 7.75815 7.76155 
24 1 7.08266 7.04066 7.04029 
34 1 10.1309 10.0688 10.1045 
35 1 8.59142 8.57702 8.59267 
36 1 9.3142 9.27719 9.30307 
ITEM: TIMESTEP
150
ITEM: NUMBER OF ATOMS
51
ITEM: BOX BOUNDS pp pp pp
0.0000000000000000e+00 1.1000000000000000e+01
0.0000000000000000e+00 1.1002000000000001e+01
0.0000000000000000e+00 1.1000000000000000e+01
ITEM: ATOMS id type x y z 
10 1 4.62443 4.56998 4.57237 
11 1 3.05569 3.07986 3.08221 
12 1 3.79 3.77778 3.78083 
46 1 0.716772 0.735535 0.714804 
47 1 2.23953 2.26317 2.25945 
48 1 1.53337 1.55627 1.5433 
19 1 4.5841 4.48553 6.18457 
20 1 3.02008 3.00259 7.75272 
21 1 3.74132 3.68629 7.0307 
31 1 0.723183 0.625002 10.0891 
32 1 2.20083 2.18376 8.58481 
33 1 1.50654 1.44993 9.29022 
16 1 4.49578 6.27732 4.5777 
17 1 2.98384 7.78822 3.00599 
18 1 3.68567 7.08844 3.73476 
25 1 0.632487 10.1335 0.703369 
26 1 2.16699 8.604 2.1789 
27 1 1.44603 9.32326 1.48461 
4 1 4.57372 6.21908 6.08218 
5 1 3.0945 7.67821 7.68123 
6 1 3.78925 6.99258 6.92882 
37 1 0.728598 10.0593 9.99534 
38 1 2.27629 8.49396 8.50619 
39 1 1.55979 9.21778 9.1944 
13 1 6.13048 4.65495 4.27996 
14 1 7.8114 2.8041 3.39645 
15 1 7.00211 3.72536 3.75957 
28 1 10.081 0.753883 0.568032 
29 1 8.56334 2.20605 2.18521 
30 1 9.24223 1.57448 1.38633 
49 2 8.1076 2.13361 4.24615 
50 2 9.17093 2.43535 5.51007 
51 3 9.87522 2.40582 4.857 
1 1 6.08978 4.68441 6.34491 
2 1 7.67415 3.09503 7.71123 
3 1 6.93014 3.84139 7.06955 
40 1 10.0247 0.747224 10.0393 
41 1 8.50034 2.26824 8.49489 
42 1 9.20826 1.56193 9.21239 
7 1 6.22028 6.15235 4.57047 
8 1 7.69856 7.72445 3.07564 
9 1 7.00538 6.98763 3.7772 
43 1 10.0514 10.0444 0.703375 
44 1 8.51397 8.5385 2.25196 
45 1 9.22786 9.23783 1.53487 
22 1 6.27867 6.19863 6.19083 
23 1 7.76985 7.75612 7.76041 
24 1 7.08329 7.03985 7.0367 
34 1 10.1307 10.0667 10.1036 
35 1 8.59067 8.57548 8.59164 
36 1 9.31379 9.27585 9.30164 
ITEM: TIMESTEP
160
ITEM: NUMBER OF ATOMS
51
ITEM: BOX BOUNDS pp pp pp
0.0000000000000000e+00 1.1000000000000000e+01
0.0000000000000000e+00 1.1002000000000001e+01
0.0000000000000000e+00 1.1000000000000000e+01
ITEM: ATOMS id type x y z 
10 1 4.62418 4.56898 4.57166 
11 1 3.05549 3.07883 3.08158 
12 1 3.79041 3.77689 3.77953 
46 1 0.715105 0.736197 0.714676 
47 1 2.23829 2.26317 2.25906 
48 1 1.53228 1.5557 1.54345 
19 1 4.58439 4.48591 6.18371 
20 1 3.02118 3.00277 7.75226 
21 1 3.74109 3.68606 7.02868 
31 1 0.724114 0.624512 10.0876 
32 1 2.20163 2.18332 8.58331 
33 1 1.50793 1.45042 9.29034 
16 1 4.49605 6.27783 4.57673 
17 1 2.98353 7.78898 3.00634 
18 1 3.6848 7.08833 3.73476 
25 1 0.631875 10.1342 0.704477 
26 1 2.16666 8.60463 2.17947 
27 1 1.44483 9.32379 1.48587 
4 1 4.57224 6.22017 6.0804 
5 1 3.09385 7.6787 7.68054 
6 1 3.78927 6.99318 6.92859 
37 1 0.728319 10.06 9.99436 
38 1 2.27625 8.49395 8.50561 
39 1 1.56031 9.21811 9.19478 
13 1 6.13003 4.6549 4.27995 
14 1 7.81097 2.80267 3.39904 
15 1 7.00173 3.72467 3.76092 
28 1 10.0801 0.756669 0.568518 
29 1 8.56249 2.20647 2.18764 
30 1 9.24118 1.57628 1.3876 
49 2 8.10722 2.13069 4.24788 
50 2 9.1742 2.43508 5.51278 
51 3 9.87617 2.40568 4.85725 
1 1 6.08971 4.68458 6.34664 
2 1 7.67414 3.09506 7.71301 
3 1 6.93008 3.84149 7.0715 
40 1 10.0246 0.74728 10.0402 
41 1 8.50102 2.2675 8.49498 
42 1 9.20859 1.56155 9.21266 
7 1 6.22183 6.15223 4.57006 
8 1 7.69955 7.72461 3.07512 
9 1 7.00654 6.98726 3.77623 
43 1 10.0516 10.0451 0.703204 
44 1 8.51462 8.53972 2.25234 
45 1 9.2275 9.23787 1.53312 
22 1 6.27936 6.19863 6.18889 
23 1 7.76993 7.75565 7.75943 
24 1 7.08354 7.03892 7.03575 
34 1 10.1301 10.0661 10.1033 
35 1 8.59033 8.57489 8.59101 
36 1 9.31369 9.27487 9.30127 
ITEM: TIMESTEP
170
ITEM: NUMBER OF ATOMS
51
ITEM: BOX BOUNDS pp pp pp
0.0000000000000000e+00 1.1000000000000000e+01
0.0000000000000000e+00 1.1002000000000001e+01
0.0000000000000000e+00 1.1000000000000000e+01
ITEM: ATOMS id type x y z 
10 1 4.6242 4.56875 4.57133 
11 1 3.05559 3.07859 3.08124 
12 1 3.79027 3.77657 3.77951 
46 1 0.71463 0.736399 0.714693 
47 1 2.238 2.26324 2.25909 
48 1 1.53198 1.55553 1.54336 
19 1 4.58425 4.48594 6.18315 
20 1 3.02122 3.00267 7.75176 
21 1 3.74154 3.68627 7.0287 