ITEM: TIMESTEP
0
ITEM: NUMBER OF ATOMS
163
ITEM: BOX BOUNDS xy xz yz pp pp pp
-6.7755000000000001e+00 1.3552000000000000e+01 -6.7755000000000001e+00
0.0000000000000000e+00 1.1735510246683001e+01 0.0000000000000000e+00
0.0000000000000000e+00 2.2149999999999999e+01 0.0000000000000000e+00
ITEM: ATOMS id type x y z 
8 1 -2.486 5.297 9.849 
87 1 3.001 4.231 10.696 
90 1 2.733 5.481 9.824 
109 1 -2.486 5.297 0.765 
158 1 2.733 5.481 0.79 
11 1 4.24 4.139 20.131 
14 1 3.031 4.094 19.728 
18 1 1.299 5.827 18.554 
33 1 2.266 4.151 20.924 
43 1 4.343 3.96 21.647 
47 1 3.32 5.732 17.88 
52 1 4.24 4.139 12.633 
76 1 2.552 4.924 14.209 
85 1 4.343 3.96 11.117 
89 1 3.32 5.732 14.883 
91 1 1.036 5.037 11.84 
102 1 3.031 4.094 13.035 
105 1 1.299 5.827 14.209 
114 1 2.266 4.151 11.84 
150 1 2.552 4.924 18.554 
156 1 3.001 4.231 22.068 
159 1 1.036 5.037 20.924 
5 1 -5.049 10.63 8.653 
9 1 -3.317 8.897 7.479 
19 1 -1.707 7.414 10.572 
21 1 -2.66 8.795 10.993 
23 1 -3.31 7.532 6.805 
25 1 -4.284 10.573 9.849 
32 1 1.503 6.367 0.79 
36 1 -1.869 7.426 9.056 
38 1 -2.209 6.086 8.653 
54 1 0.3 8.576 10.696 
57 1 1.291 8.001 9.824 
60 1 -1.707 7.414 0.042 
65 1 -3.31 7.532 3.808 
78 1 -1.869 7.426 1.558 
80 1 -2.566 8.842 1.961 
84 1 -4.57 9.799 3.135 
99 1 -3.054 9.687 0.765 
100 1 -2.96 6.142 3.135 
107 1 -5.049 10.63 1.961 
110 1 -3.317 8.897 3.135 
111 1 0.642 5.929 10.696 
113 1 1.503 6.367 9.824 
119 1 -4.284 10.573 0.765 
127 1 -2.209 6.086 1.961 
131 1 -2.318 6.148 10.993 
138 1 1.291 8.001 0.79 
142 1 -2.566 8.842 8.653 
145 1 -4.57 9.799 7.479 
151 1 -5.019 10.493 10.993 
154 1 -3.054 9.687 9.849 
155 1 -2.96 6.142 7.479 
161 2 -0.705 7.958 8.603 
162 2 0.209 9.145 8.385 
163 3 -0.546 9.641 8.024 
12 1 2.53 7.1 17.202 
17 1 0.468 9.427 20.924 
24 1 -3.52 8.357 11.865 
27 1 -0.31 7.31 21.647 
29 1 0.642 5.929 22.068 
31 1 1.292 7.192 17.88 
44 1 -0.148 7.298 20.131 
46 1 0.191 8.638 19.728 
51 1 -0.31 7.31 11.117 
53 1 2.53 7.1 15.561 
56 1 1.292 7.192 14.883 
63 1 -2.318 6.148 21.771 
66 1 -3.309 6.723 20.899 
70 1 -0.148 7.298 12.633 
72 1 0.548 5.882 13.035 
92 1 0.942 8.582 14.209 
95 1 -5.019 10.493 21.771 
98 1 -4.751 9.243 20.899 
104 1 0.468 9.427 11.84 
116 1 -2.66 8.795 21.771 
118 1 -3.52 8.357 20.899 
122 1 0.191 8.638 13.035 
133 1 -3.309 6.723 11.865 
136 1 0.3 8.576 22.068 
147 1 0.548 5.882 19.728 
153 1 -4.751 9.243 11.865 
160 1 0.942 8.582 18.554 
1 1 7.976 4.694 10.572 
4 1 9.274 4.77 10.993 
20 1 8.034 4.861 9.056 
42 1 9.55 5.41 7.479 
67 1 10.043 4.578 0.765 
77 1 7.976 4.694 0.042 
94 1 8.035 4.861 1.558 
96 1 9.278 4.635 1.961 
121 1 4.688 5.417 10.696 
130 1 9.55 5.41 3.135 
134 1 10.043 4.578 9.849 
152 1 9.278 4.635 8.653 
45 1 4.688 5.417 22.068 
55 1 4.788 5.329 13.035 
106 1 9.274 4.77 21.771 
137 1 4.788 5.329 19.728 
2 1 7.294 10.585 9.056 
3 1 9.004 7.624 6.127 
6 1 8.556 6.347 6.805 
16 1 2.314 8.72 0.79 
22 1 7.166 6.156 8.653 
26 1 7.226 8.565 7.479 
35 1 7.191 10.764 10.572 
37 1 6.846 9.307 10.993 
39 1 8.214 8.992 6.805 
41 1 6.677 7.002 9.849 
48 1 3.775 6.213 0.79 
61 1 7.294 10.585 1.558 
62 1 9.004 7.624 4.487 
64 1 6.747 9.395 1.961 
68 1 7.437 6.931 3.135 
71 1 4.29 8.493 10.696 
74 1 3.567 7.818 9.824 
81 1 8.556 6.347 3.808 
83 1 6.47 8.606 0.765 
93 1 7.191 10.764 0.042 
97 1 8.214 8.992 3.808 
101 1 2.261 9.954 10.696 
103 1 2.314 8.72 9.824 
117 1 7.166 6.156 1.961 
120 1 7.226 8.565 3.135 
123 1 3.775 6.213 9.824 
129 1 6.677 7.002 0.765 
132 1 6.747 9.395 8.653 
135 1 7.437 6.931 7.479 
141 1 7.244 6.231 10.993 
144 1 6.47 8.606 9.849 
148 1 3.567 7.818 0.79 
7 1 9.22 6.004 11.865 
10 1 3.558 10.029 21.647 
13 1 2.261 9.954 22.068 
15 1 2.978 8.376 17.88 
28 1 3.5 9.862 20.131 
30 1 4.369 8.568 19.728 
34 1 4.308 6.159 18.554 
40 1 7.76 8.511 11.865 
49 1 4.857 7.722 20.924 
50 1 1.984 9.314 18.554 
58 1 1.491 10.146 11.84 
59 1 4.097 7.793 14.209 
69 1 3.558 10.029 11.117 
73 1 2.978 8.376 14.883 
75 1 5.064 6.118 11.84 
79 1 7.244 6.231 21.771 
82 1 7.967 6.906 20.899 
86 1 3.5 9.862 12.633 
88 1 2.256 10.089 13.035 
108 1 9.22 6.004 20.899 
112 1 4.369 8.568 13.035 
115 1 4.308 6.159 14.209 
124 1 4.857 7.722 11.84 
125 1 1.984 9.314 14.209 
126 1 6.846 9.307 21.771 
128 1 7.76 8.511 20.899 
139 1 1.491 10.146 20.924 
140 1 4.097 7.793 18.554 
143 1 7.967 6.906 11.865 
146 1 4.29 8.493 22.068 
149 1 5.064 6.118 20.924 
157 1 2.256 10.089 19.728 
ITEM: TIMESTEP
10
ITEM: NUMBER OF ATOMS
163
ITEM: BOX BOUNDS xy xz yz pp pp pp
-6.7755000000000001e+00 1.3552000000000000e+01 -6.7755000000000001e+00
0.0000000000000000e+00 1.1735510246683001e+01 0.0000000000000000e+00
0.0000000000000000e+00 2.2149999999999999e+01 0.0000000000000000e+00
ITEM: ATOMS id type x y z 
8 1 -2.42732 5.37537 9.81543 
87 1 2.96999 4.28289 10.648 
90 1 2.6724 5.44026 9.77471 
109 1 -2.42278 5.37199 0.782203 
158 1 2.66942 5.44779 0.839499 
11 1 4.26978 4.2195 20.1214 
14 1 2.92058 4.13983 19.7015 
18 1 1.33207 5.85146 18.5892 
33 1 2.12924 4.24599 20.8989 
43 1 4.3188 4.14226 21.5774 
47 1 3.2441 5.79173 17.8481 
52 1 4.26898 4.22238 12.6399 
76 1 2.43185 4.90018 14.1676 
85 1 4.31605 4.14284 11.1857 
89 1 3.24245 5.79666 14.9129 
91 1 0.961187 5.10409 11.8519 
102 1 2.92156 4.13834 13.0608 
105 1 1.33227 5.85243 14.1718 
114 1 2.12779 4.24812 11.863 
150 1 2.43142 4.89362 18.5991 
156 1 2.97247 4.28525 22.1186 
159 1 0.962151 5.09995 20.9106 
5 1 -4.93299 10.5687 8.60328 
9 1 -3.30497 8.87503 7.54637 
19 1 -1.76571 7.50836 10.6021 
21 1 -2.59414 8.74055 10.9354 
23 1 -3.28233 7.56544 6.86326 
25 1 -4.14234 10.4865 9.80807 
32 1 1.58183 6.34395 0.775624 
36 1 -1.70484 7.56878 8.97502 
38 1 -2.18176 6.18027 8.65445 
54 1 0.305885 8.52693 10.6808 
57 1 1.38099 7.99092 9.79299 
60 1 -1.76029 7.53164 0.0495962 
65 1 -3.30859 7.52504 3.78931 
78 1 -1.89953 7.54509 1.56063 
80 1 -2.57316 8.79619 1.89766 
84 1 -4.45851 9.84582 3.09196 
99 1 -2.982 9.61385 0.78753 
100 1 -2.91565 6.25765 3.17442 
107 1 -4.94707 10.5908 1.96594 
110 1 -3.35616 8.86576 3.09971 
111 1 0.600504 5.96886 10.7608 
113 1 1.57869 6.34138 9.83971 
119 1 -4.13888 10.4706 0.806182 
127 1 -2.15667 6.20767 1.96181 
131 1 -2.32663 6.21892 10.9847 
138 1 1.37006 8.00171 0.834504 
142 1 -2.62117 8.82841 8.71931 
145 1 -4.46002 9.78762 7.49379 
151 1 -5.00491 10.4135 11.0771 
154 1 -3.00084 9.62558 9.83477 
155 1 -2.93724 6.24672 7.46097 
161 2 -0.774751 7.89843 8.59701 
162 2 0.213842 9.16823 8.3577 
163 3 -0.528497 9.65289 8.01518 
12 1 2.56914 7.05953 17.1163 
17 1 0.411104 9.35338 20.9106 
24 1 -3.53352 8.36412 11.8551 
27 1 -0.262948 7.19119 21.6408 
29 1 0.600484 5.9751 22.0027 
31 1 1.29572 7.19969 17.9037 
44 1 -0.121291 7.18052 20.1343 
46 1 0.134524 8.52323 19.7318 
51 1 -0.26462 7.19034 11.1422 
53 1 2.57214 7.05545 15.6449 
56 1 1.29609 7.19866 14.8576 
63 1 -2.31805 6.21357 21.7566 
66 1 -3.38162 6.72898 20.8526 
70 1 -0.111661 7.17748 12.6337 
72 1 0.550925 5.92955 12.9797 
92 1 0.907464 8.46795 14.2606 
95 1 -4.9792 10.446 21.7123 
98 1 -4.67836 9.26899 20.8517 
104 1 0.410313 9.35782 11.8629 
116 1 -2.60675 8.75593 21.8332 
118 1 -3.60182 8.38814 20.9049 
122 1 0.13295 8.51895 13.0316 
133 1 -3.3976 6.7641 11.9157 
136 1 0.302004 8.51593 22.0866 
147 1 0.550148 5.9262 19.7896 
153 1 -4.66396 9.19439 11.9117 
160 1 0.906982 8.47065 18.5039 
1 1 7.86921 4.96063 10.5353 
4 1 9.19475 4.80172 11.0288 
20 1 7.85741 4.94878 9.0686 
42 1 9.46283 5.43712 7.44044 
67 1 9.97841 4.5702 0.753831 
77 1 7.87525 4.94842 0.0898435 
94 1 7.86534 4.95118 1.55304 
96 1 9.19219 4.64797 1.98431 
121 1 4.67296 5.43623 10.7192 
130 1 9.4493 5.41693 3.17962 
134 1 9.96287 4.57623 9.86196 
152 1 9.19265 4.64784 8.61782 
45 1 4.66954 5.43594 22.0482 
55 1 4.81478 5.47906 13.0784 
106 1 9.18435 4.7735 21.7363 
137 1 4.81516 5.47995 19.6817 
2 1 7.26703 10.5054 9.04926 
3 1 8.9652 7.69736 6.07262 
6 1 8.50942 6.38477 6.83081 
16 1 2.34476 8.69652 0.834499 
22 1 7.14057 6.19651 8.68791 
26 1 7.16819 8.40543 7.5354 
35 1 7.20815 10.5862 10.5052 
37 1 6.87326 9.27612 11.0077 
39 1 8.23428 8.90858 6.75163 
41 1 6.73041 7.01233 9.82612 
48 1 3.70293 6.37113 0.843683 
61 1 7.27861 10.5019 1.55716 
62 1 8.96628 7.65034 4.59475 
64 1 6.71806 9.24477 2.01328 
68 1 7.40323 6.99125 3.04408 
71 1 4.29973 8.55653 10.7819 
74 1 3.62927 7.79039 9.82247 
81 1 8.52531 6.40967 3.77234 
83 1 6.54758 8.43652 0.776209 
93 1 7.21361 10.5758 0.124324 
97 1 8.28464 8.91979 3.82581 
101 1 2.35071 9.94323 10.6678 
103 1 2.35037 8.70256 9.78007 
117 1 7.14675 6.18947 1.9208 
120 1 7.19826 8.3992 3.06066 
123 1 3.70486 6.36513 9.76868 
129 1 6.73045 7.01386 0.786258 
132 1 6.70758 9.24907 8.62822 
135 1 7.40067 6.95367 7.58155 
141 1 7.25345 6.18404 10.9207 
144 1 6.55516 8.4293 9.82956 
148 1 3.62466 7.78975 0.783408 
7 1 9.18767 6.04453 11.8997 
10 1 3.65884 9.77383 21.605 
13 1 2.34662 9.94061 22.099 
15 1 3.00522 8.33817 17.9146 
28 1 3.66194 9.77229 20.1375 
30 1 4.40013 8.52946 19.7685 
34 1 4.35384 6.32757 18.6362 
40 1 7.72957 8.38117 11.8746 
49 1 4.79464 7.71392 20.9093 
50 1 2.08221 9.29306 18.5207 
58 1 1.55831 10.151 11.8226 
59 1 4.13103 7.74806 14.1095 
69 1 3.65779 9.76925 11.1646 
73 1 3.00499 8.33365 14.8431 
75 1 4.98709 6.28666 11.8533 
79 1 7.23859 6.17264 21.848 
82 1 7.90835 6.92625 20.9032 
86 1 3.66738 9.76529 12.6284 
88 1 2.34351 10.0696 13.0701 
108 1 9.18812 6.03387 20.8457 
112 1 4.38678 8.52898 12.9862 
115 1 4.35079 6.3264 14.1303 
124 1 4.79911 7.71448 11.8652 
125 1 2.08083 9.29417 14.2446 
126 1 6.85276 9.2901 21.7927 
128 1 7.81386 8.35744 20.84 
139 1 1.55639 10.1477 20.9425 
140 1 4.13181 7.73692 18.6381 
143 1 7.89436 6.96581 11.8506 
146 1 4.29889 8.54583 21.9943 
149 1 4.98545 6.29145 20.9154 
157 1 2.33848 10.071 19.694 
ITEM: TIMESTEP
20
ITEM: NUMBER OF ATOMS
163
ITEM: BOX BOUNDS xy xz yz pp pp pp
-6.7755000000000001e+00 1.3552000000000000e+01 -6.7755000000000001e+00
0.0000000000000000e+00 1.1735510246683001e+01 0.0000000000000000e+00
0.0000000000000000e+00 2.2149999999999999e+01 0.0000000000000000e+00
ITEM: ATOMS id type x y z 
8 1 -2.42081 5.38757 9.81308 
87 1 2.95912 4.27725 10.6552 
90 1 2.66875 5.44756 9.77182 
109 1 -2.4215 5.38889 0.775129 
158 1 2.66596 5.45172 0.841646 
11 1 4.28171 4.22189 20.123 
14 1 2.89759 4.13889 19.7011 
18 1 1.31474 5.85823 18.5843 
33 1 2.11 4.26243 20.9076 
43 1 4.31358 4.16232 21.5807 
47 1 3.24816 5.79297 17.8475 
52 1 4.28005 4.22209 12.6395 
76 1 2.43917 4.9101 14.1785 
85 1 4.31344 4.16169 11.1812 
89 1 3.25005 5.79526 14.9172 
91 1 0.96626 5.10775 11.8476 
102 1 2.89679 4.13872 13.0626 
105 1 1.31589 5.85728 14.1813 
114 1 2.10845 4.263 11.8565 
150 1 2.43794 4.90879 18.5849 
156 1 2.96064 4.27914 22.1089 
159 1 0.966899 5.10637 20.9128 
5 1 -4.91159 10.5588 8.60924 
9 1 -3.30566 8.86657 7.53731 
19 1 -1.76004 7.50474 10.6039 
21 1 -2.59306 8.74997 10.947 
23 1 -3.29979 7.56111 6.86457 
25 1 -4.14721 10.4675 9.82967 
32 1 1.59267 6.35414 0.774425 
36 1 -1.70469 7.56797 8.97766 
38 1 -2.185 6.18832 8.64149 
54 1 0.318134 8.50405 10.6867 
57 1 1.37093 7.98452 9.806 
60 1 -1.76433 7.53035 0.056108 
65 1 -3.31296 7.52686 3.79232 
78 1 -1.89781 7.55259 1.55384 
80 1 -2.56077 8.78883 1.89645 
84 1 -4.4618 9.81975 3.10452 
99 1 -2.98414 9.61106 0.777386 
100 1 -2.93317 6.26393 3.17371 
107 1 -4.91455 10.5904 1.9845 
110 1 -3.33994 8.86664 3.10424 
111 1 0.605896 5.96268 10.7517 
113 1 1.58973 6.35008 9.84082 
119 1 -4.12406 10.4581 0.781291 
127 1 -2.15892 6.22267 1.97 
131 1 -2.33819 6.2383 10.9932 
138 1 1.35928 7.99081 0.826862 
142 1 -2.61852 8.83639 8.722 
145 1 -4.46393 9.77188 7.48917 
151 1 -4.98373 10.4046 11.0441 
154 1 -3.00679 9.62589 9.83738 
155 1 -2.93516 6.27032 7.46548 
161 2 -0.75883 7.89754 8.58731 
162 2 0.216009 9.17051 8.35448 
163 3 -0.526392 9.65763 8.01232 
12 1 2.56511 7.06449 17.1367 
17 1 0.402098 9.33432 20.9145 
24 1 -3.53397 8.35565 11.8545 
27 1 -0.25712 7.19802 21.634 
29 1 0.607002 5.96667 22.0126 
31 1 1.29347 7.1976 17.9041 
44 1 -0.120472 7.17286 20.1392 
46 1 0.138791 8.5024 19.7207 
51 1 -0.257962 7.2014 11.1381 
53 1 2.56669 7.0627 15.6269 
56 1 1.29349 7.19742 14.8601 
63 1 -2.32971 6.22477 21.7565 
66 1 -3.37738 6.73403 20.8623 
70 1 -0.117365 7.17212 12.6324 
72 1 0.539148 5.92873 12.9712 
92 1 0.909021 8.45859 14.2533 
95 1 -4.97291 10.4442 21.7315 
98 1 -4.68451 9.27351 20.8493 
104 1 0.401492 9.33826 11.8528 
116 1 -2.61679 8.75923 21.8231 
118 1 -3.60705 8.37415 20.9099 
122 1 0.137567 8.5034 13.0461 
133 1 -3.3909 6.77496 11.9066 
136 1 0.310227 8.49948 22.0856 
147 1 0.5396 5.93177 19.7966 
153 1 -4.66889 9.19823 11.9023 
160 1 0.908761 8.45895 18.5121 
1 1 7.86738 4.9506 10.532 
4 1 9.17202 4.80987 11.031 
20 1 7.85073 4.94435 9.06862 
42 1 9.45056 5.44397 7.43941 
67 1 9.97234 4.57059 0.758569 
77 1 7.87426 4.94217 0.0895838 
94 1 7.85717 4.94507 1.55091 
96 1 9.18445 4.66138 1.99547 
121 1 4.66287 5.4625 10.712 
130 1 9.45902 5.43734 3.17221 
134 1 9.95594 4.5708 9.8499 
152 1 9.17796 4.65921 8.61732 
45 1 4.6612 5.46329 22.0538 
55 1 4.82155 5.50115 13.0694 
106 1 9.16735 4.78819 21.7399 
137 1 4.82104 5.50163 19.6966 
2 1 7.2653 10.5013 9.05585 
3 1 8.97457 7.68585 6.0893 
6 1 8.52415 6.39684 6.83001 
16 1 2.35686 8.69445 0.845268 
22 1 7.12491 6.18887 8.70302 
26 1 7.172 8.41842 7.53499 
35 1 7.23736 10.5673 10.508 
37 1 6.85668 9.25497 11.0097 
39 1 8.23345 8.91671 6.75546 
41 1 6.72641 7.00681 9.82617 
48 1 3.69966 6.36426 0.833502 
61 1 7.25613 10.4989 1.56334 
62 1 8.97819 7.64873 4.56985 
64 1 6.70998 9.22337 1.99507 
68 1 7.39946 6.97135 3.05326 
71 1 4.30871 8.53437 10.766 
74 1 3.61487 7.78999 9.82068 
81 1 8.52861 6.40036 3.78876 
83 1 6.55019 8.43389 0.78184 
93 1 7.22232 10.5597 0.10496 
97 1 8.29097 8.92714 3.83903 
101 1 2.36887 9.94035 10.6656 
103 1 2.36341 8.69515 9.77056 
117 1 7.12453 6.19013 1.90476 
120 1 7.19307 8.42134 3.06713 
123 1 3.70219 6.36453 9.77945 
129 1 6.73117 7.00633 0.782556 
132 1 6.70858 9.22414 8.62946 
135 1 7.40133 6.95004 7.56211 
141 1 7.23956 6.19838 10.9269 
144 1 6.55332 8.42642 9.81666 
148 1 3.61147 7.78841 0.791509 
7 1 9.17388 6.05389 11.906 
10 1 3.66559 9.78491 21.603 
13 1 2.36668 9.93687 22.0998 
15 1 3.01152 8.33399 17.9014 
28 1 3.67229 9.77403 20.1394 
30 1 4.41654 8.53403 19.7787 
34 1 4.34562 6.3057 18.623 
40 1 7.73752 8.38002 11.8809 
49 1 4.79848 7.71873 20.9099 
50 1 2.07733 9.2831 18.5186 
58 1 1.56337 10.157 11.835 
59 1 4.1321 7.75887 14.1221 
69 1 3.66395 9.77999 11.1639 
73 1 3.01185 8.33201 14.8553 
75 1 4.98592 6.28772 11.8572 
79 1 7.22713 6.19063 21.8412 
82 1 7.92215 6.93231 20.8986 
86 1 3.67938 9.77518 12.6312 
88 1 2.35155 10.0624 13.0706 
108 1 9.17756 6.03119 20.8422 
112 1 4.40476 8.53019 12.9791 
115 1 4.34488 6.30891 14.1396 
124 1 4.80469 7.71827 11.8598 
125 1 2.07565 9.28517 14.2465 
126 1 6.86815 9.26128 21.7871 
128 1 7.82469 8.35769 20.8517 
139 1 1.56134 10.1533 20.9308 
140 1 4.13164 7.7524 18.6278 
143 1 7.90533 6.96509 11.8575 
146 1 4.31047 8.53081 22.0026 
149 1 4.98221 6.29223 20.9091 
157 1 2.35075 10.0637 19.6937 
ITEM: TIMESTEP
30
ITEM: NUMBER OF ATOMS
163
ITEM: BOX BOUNDS xy xz yz pp pp pp
-6.7755000000000001e+00 1.3552000000000000e+01 -6.7755000000000001e+00
0.0000000000000000e+00 1.1735510246683001e+01 0.0000000000000000e+00
0.0000000000000000e+00 2.2149999999999999e+01 0.0000000000000000e+00
ITEM: ATOMS id type x y z 
8 1 -2.45391 5.44112 9.79956 
87 1 2.95288 4.29902 10.6549 
90 1 2.62911 5.43324 9.75349 
109 1 -2.45282 5.44173 0.788518 
158 1 2.63007 5.44007 0.85821 
11 1 4.25606 4.27007 20.1162 
14 1 2.86586 4.1704 19.7313 
18 1 1.28624 5.8484 18.5569 
33 1 2.06682 4.29059 20.899 
43 1 4.27255 4.2521 21.5507 
47 1 3.2225 5.81391 17.8177 
52 1 4.25808 4.26729 12.6519 
76 1 2.42134 4.93486 14.1966 
85 1 4.27586 4.2438 11.2113 
89 1 3.22607 5.81416 14.9446 
91 1 0.93814 5.13093 11.8474 
102 1 2.8639 4.17137 13.0378 
105 1 1.28576 5.84509 14.2086 
114 1 2.06407 4.28972 11.8629 
150 1 2.41761 4.93613 18.5666 
156 1 2.94849 4.30093 22.1078 
159 1 0.939589 5.13664 20.9247 
5 1 -4.88048 10.5084 8.62508 
9 1 -3.28011 8.87179 7.53525 
19 1 -1.74316 7.53414 10.6086 
21 1 -2.53724 8.7562 10.9871 
23 1 -3.30857 7.56818 6.84248 
25 1 -4.09875 10.4419 9.83526 
32 1 1.59983 6.38913 0.799552 
36 1 -1.6694 7.59771 8.97425 
38 1 -2.18124 6.21782 8.64002 
54 1 0.343386 8.4732 10.6892 
57 1 1.3945 7.95835 9.81595 
60 1 -1.76958 7.55349 0.0484149 
65 1 -3.29291 7.55146 3.809 
78 1 -1.85303 7.5847 1.54939 
80 1 -2.51032 8.80893 1.89574 
84 1 -4.44001 9.77958 3.11998 
99 1 -2.9557 9.58624 0.765827 
100 1 -2.938 6.30105 3.17182 
107 1 -4.8852 10.5455 1.97313 
110 1 -3.30027 8.88221 3.13796 
111 1 0.583602 5.9533 10.7046 
113 1 1.59709 6.38844 9.81564 
119 1 -4.07829 10.4354 0.789314 
127 1 -2.15372 6.26609 1.97263 
131 1 -2.35607 6.28069 10.9895 
138 1 1.3761 7.96741 0.824202 
142 1 -2.58128 8.84144 8.7217 
145 1 -4.46046 9.741 7.47705 
151 1 -4.95135 10.3552 11.0371 
154 1 -2.95571 9.60092 9.85345 
155 1 -2.94867 6.29411 7.47926 
161 2 -0.699422 7.88251 8.54147 
162 2 0.229304 9.18717 8.33311 
163 3 -0.510367 9.6845 7.99537 
12 1 2.57024 7.07846 17.1486 
17 1 0.431039 9.2789 20.9026 
24 1 -3.50925 8.34085 11.876 
27 1 -0.247301 7.16796 21.6441 
29 1 0.582606 5.96133 22.0561 
31 1 1.27634 7.17095 17.8857 
44 1 -0.163005 7.13543 20.1387 
46 1 0.130927 8.4568 19.7236 
51 1 -0.253306 7.17217 11.1338 
53 1 2.57269 7.08106 15.6154 
56 1 1.27402 7.17513 14.8793 
63 1 -2.34619 6.25939 21.7507 
66 1 -3.40293 6.75933 20.8629 
70 1 -0.161329 7.13524 12.637 
72 1 0.496475 5.91383 12.9811 
92 1 0.918388 8.42676 14.2529 
95 1 -4.96054 10.4198 21.7198 
98 1 -4.64463 9.28323 20.8336 
104 1 0.431198 9.28531 11.871 
116 1 -2.60294 8.76428 21.7761 
118 1 -3.61341 8.33399 20.8893 
122 1 0.130677 8.45925 13.0486 
133 1 -3.40506 6.79521 11.9026 
136 1 0.331561 8.46769 22.089 
147 1 0.496078 5.91572 19.786 
153 1 -4.65402 9.18529 11.9199 
160 1 0.917329 8.42965 18.5173 
1 1 7.78679 4.94864 10.5316 
4 1 9.1269 4.86438 11.0044 
20 1 7.78109 4.94709 9.06624 
42 1 9.44013 5.47601 7.45854 
67 1 9.94526 4.61222 0.781075 
77 1 7.79959 4.94305 0.0919952 
94 1 7.79277 4.94453 1.55474 
96 1 9.13113 4.70946 2.00073 
121 1 4.61629 5.52696 10.6773 
130 1 9.42307 5.4786 3.17121 
134 1 9.92078 4.61142 9.84236 
152 1 9.12109 4.70149 8.61222 
45 1 4.61706 5.52752 22.0823 
55 1 4.80943 5.54901 13.0692 
106 1 9.12547 4.82413 21.7674 
137 1 4.80833 5.54647 19.6964 
2 1 7.27703 10.4503 9.01801 
3 1 8.96476 7.70643 6.09474 
6 1 8.50659 6.41738 6.81638 
16 1 2.37731 8.70468 0.880761 
22 1 7.06619 6.1714 8.66769 
26 1 7.17298 8.37554 7.51092 
35 1 7.26695 10.4791 10.4941 
37 1 6.85384 9.1893 11.0297 
39 1 8.23406 8.91361 6.72412 
41 1 6.68567 6.96611 9.82204 
48 1 3.70202 6.35581 0.847456 
61 1 7.27938 10.4631 1.57787 
62 1 8.96771 7.64498 4.54506 
64 1 6.7257 9.1738 1.99648 
68 1 7.36925 6.96224 3.07091 
71 1 4.33719 8.522 10.726 
74 1 3.60772 7.80397 9.7815 
81 1 8.51027 6.39627 3.8243 
83 1 6.54545 8.37814 0.797386 
93 1 7.25985 10.4786 0.13903 
97 1 8.30734 8.90771 3.87852 
101 1 2.41216 9.90307 10.6962 
103 1 2.3847 8.70744 9.73738 
117 1 7.06451 6.16559 1.92801 
120 1 7.19451 8.39796 3.08051 
123 1 3.7107 6.35585 9.76767 
129 1 6.68592 6.98063 0.779209 
132 1 6.72088 9.18834 8.62715 
135 1 7.36998 6.93316 7.55706 
141 1 7.19941 6.21347 10.9517 
144 1 6.52837 8.38222 9.80543 
148 1 3.59948 7.80533 0.828903 
7 1 9.13802 6.06942 11.925 
10 1 3.73644 9.78515 21.6024 
13 1 2.40862 9.89565 22.0684 
15 1 3.02901 8.33201 17.8757 
28 1 3.73959 9.78 20.1339 
30 1 4.47095 8.55924 19.7606 
34 1 4.33796 6.32813 18.606 
40 1 7.73033 8.37613 11.907 
49 1 4.84648 7.74517 20.916 
50 1 2.10746 9.25042 18.5192 
58 1 1.59521 10.119 11.8515 
59 1 4.16598 7.76398 14.1436 
69 1 3.73443 9.78114 11.1638 
73 1 3.02725 8.33062 14.8904 
75 1 4.99471 6.33952 11.8775 
79 1 7.19914 6.20355 21.7991 
82 1 7.93681 6.91793 20.8611 
86 1 3.74299 9.77893 12.6317 
88 1 2.40543 10.0173 13.0798 
108 1 9.16056 6.02677 20.8059 
112 1 4.47136 8.55728 13.0003 
115 1 4.33673 6.32385 14.1563 
124 1 4.84655 7.74961 11.8543 
125 1 2.10777 9.25276 14.2429 
126 1 6.91258 9.18331 21.7524 
128 1 7.82456 8.36852 20.8442 
139 1 1.59017 10.1136 20.9182 
140 1 4.16531 7.76231 18.6144 
143 1 7.89891 6.95073 11.9025 
146 1 4.33594 8.51993 22.0371 
149 1 4.98751 6.34461 20.8889 
157 1 2.40873 10.0124 19.6863 
ITEM: TIMESTEP
40
ITEM: NUMBER OF ATOMS
163
ITEM: BOX BOUNDS xy xz yz pp pp pp
-6.7755000000000001e+00 1.3552000000000000e+01 -6.7755000000000001e+00
0.0000000000000000e+00 1.1735510246683001e+01 0.0000000000000000e+00
0.0000000000000000e+00 2.2149999999999999e+01 0.0000000000000000e+00
ITEM: ATOMS id type x y z 
8 1 -2.46283 5.44817 9.80227 
87 1 2.93376 4.30117 10.6522 
90 1 2.63808 5.4424 9.74544 
109 1 -2.45765 5.45483 0.78502 
158 1 2.6338 5.44795 0.867946 
11 1 4.25113 4.2751 20.1097 
14 1 2.85518 4.1857 19.7086 
18 1 1.26588 5.84821 18.5595 
33 1 2.06292 4.29412 20.9086 
43 1 4.26665 4.2607 21.5441 
47 1 3.24114 5.79647 17.8256 
52 1 4.25334 4.27388 12.6538 
76 1 2.41817 4.93842 14.1916 
85 1 4.26907 4.25864 11.2186 
89 1 3.24178 5.79698 14.9377 
91 1 0.925193 5.13548 11.8336 
102 1 2.85312 4.18472 13.0541 
105 1 1.26747 5.84624 14.2067 
114 1 2.06635 4.29224 11.8552 
150 1 2.41814 4.93734 18.5744 
156 1 2.93219 4.30471 22.1127 
159 1 0.928181 5.1388 20.9284 
5 1 -4.87246 10.5024 8.62477 
9 1 -3.27394 8.86679 7.53506 
19 1 -1.7378 7.54017 10.6019 
21 1 -2.53093 8.76653 10.9894 
23 1 -3.29443 7.57557 6.85133 
25 1 -4.0959 10.4329 9.83343 
32 1 1.58928 6.38041 0.805912 
36 1 -1.65715 7.6024 8.97355 
38 1 -2.17775 6.22786 8.63602 
54 1 0.352273 8.46936 10.6923 
57 1 1.40123 7.96994 9.81362 
60 1 -1.76625 7.56181 0.0485718 
65 1 -3.29578 7.53827 3.80095 
78 1 -1.84585 7.59641 1.55232 
80 1 -2.50754 8.81038 1.91192 
84 1 -4.43467 9.78316 3.11721 
99 1 -2.94479 9.58551 0.758292 
100 1 -2.9395 6.29749 3.16773 
107 1 -4.87097 10.5369 1.97987 
110 1 -3.28629 8.87719 3.13251 
111 1 0.586223 5.95391 10.7098 
113 1 1.58869 6.3742 9.8124 
119 1 -4.08289 10.43 0.781539 
127 1 -2.15309 6.27364 1.97526 
131 1 -2.36427 6.28283 10.9914 
138 1 1.38465 7.9759 0.829952 
142 1 -2.57324 8.84231 8.71633 
145 1 -4.44889 9.73791 7.47606 
151 1 -4.95653 10.3499 11.0327 
154 1 -2.9427 9.5985 9.86148 
155 1 -2.94211 6.30083 7.48044 
161 2 -0.688964 7.87881 8.53167 
162 2 0.233226 9.19198 8.32757 
163 3 -0.506183 9.69046 7.99128 
12 1 2.57036 7.06819 17.1484 
17 1 0.439295 9.27052 20.9046 
24 1 -3.50304 8.33991 11.8832 
27 1 -0.251478 7.16456 21.6405 
29 1 0.583186 5.95638 22.061 
31 1 1.2767 7.18727 17.8941 
44 1 -0.172663 7.12695 20.1393 
46 1 0.134271 8.44966 19.7146 
51 1 -0.251053 7.16184 11.132 
53 1 2.57189 7.06732 15.6175 
56 1 1.28004 7.18592 14.8734 
63 1 -2.35699 6.25974 21.7531 
66 1 -3.40514 6.74586 20.8601 
70 1 -0.168613 7.12637 12.6411 
72 1 0.489031 5.91211 12.9906 
92 1 0.919043 8.43131 14.2453 
95 1 -4.95465 10.4193 21.7288 
98 1 -4.65255 9.2766 20.819 
104 1 0.442398 9.27855 11.8693 
116 1 -2.60222 8.76602 21.7778 
118 1 -3.60198 8.34295 20.8818 
122 1 0.132031 8.45074 13.0575 
133 1 -3.40593 6.79688 11.9036 
136 1 0.336303 8.46379 22.0869 
147 1 0.489686 5.91071 19.7787 
153 1 -4.65447 9.16834 11.9308 
160 1 0.91848 8.42886 18.5236 
1 1 7.77718 4.93909 10.5355 
4 1 9.1037 4.87347 11.0067 
20 1 7.77324 4.93424 9.06848 
42 1 9.42731 5.47894 7.45156 
67 1 9.93711 4.6236 0.785179 
77 1 7.79215 4.93828 0.0914397 
94 1 7.77995 4.94292 1.55262 
96 1 9.11756 4.7138 1.99703 
121 1 4.62656 5.54028 10.6852 
130 1 9.43802 5.48126 3.16922 
134 1 9.91898 4.62303 9.83425 
152 1 9.10826 4.7038 8.62056 
45 1 4.62601 5.54401 22.0779 
55 1 4.81321 5.55341 13.0683 
106 1 9.10957 4.83746 21.7674 
137 1 4.81248 5.55412 19.6971 
2 1 7.29046 10.4485 9.04357 
3 1 8.95845 7.70455 6.0992 
6 1 8.52201 6.40822 6.80745 
16 1 2.3828 8.70384 0.880724 
22 1 7.03413 6.14595 8.68547 
26 1 7.16808 8.40507 7.49996 
35 1 7.2742 10.4636 10.4765 
37 1 6.85407 9.18819 11.0205 
39 1 8.21832 8.92293 6.72746 
41 1 6.67147 6.96715 9.83324 
48 1 3.68617 6.35968 0.8617 
61 1 7.28089 10.4516 1.57887 
62 1 8.96629 7.65625 4.55571 
64 1 6.72304 9.16916 1.99411 
68 1 7.37051 6.94642 3.08014 
71 1 4.34348 8.51738 10.7251 
74 1 3.61008 7.81115 9.77732 
81 1 8.5012 6.40026 3.81481 
83 1 6.54357 8.38302 0.796988 
93 1 7.26956 10.4625 0.143641 
97 1 8.29708 8.92128 3.86525 
101 1 2.42676 9.89255 10.6953 
103 1 2.39328 8.70685 9.73846 
117 1 7.04703 6.16596 1.9307 
120 1 7.2027 8.39742 3.09674 
123 1 3.68615 6.35625 9.7541 
129 1 6.68094 6.95625 0.776207 
132 1 6.70911 9.16374 8.62149 
135 1 7.36092 6.92756 7.52295 
141 1 7.1866 6.21555 10.9544 
144 1 6.5275 8.38175 9.80795 
148 1 3.60268 7.81219 0.833609 
7 1 9.13525 6.07328 11.9267 
10 1 3.74689 9.79258 21.6007 
13 1 2.42594 9.88453 22.0698 
15 1 3.03693 8.33041 17.8809 
28 1 3.75391 9.78019 20.1386 
30 1 4.48867 8.55906 19.7604 
34 1 4.33069 6.32425 18.5906 
40 1 7.7423 8.37313 11.9193 
49 1 4.85288 7.76567 20.9151 
50 1 2.09389 9.24425 18.5211 
58 1 1.59976 10.1049 11.862 
59 1 4.16555 7.78078 14.1517 
69 1 3.74593 9.78679 11.166 
73 1 3.03456 8.32978 14.8823 
75 1 4.9945 6.33808 11.8687 
79 1 7.19021 6.20656 21.8005 
82 1 7.9329 6.91202 20.8555 
86 1 3.75676 9.77922 12.6282 
88 1 2.41641 10.0146 13.0705 
108 1 9.15474 6.02109 20.8082 
112 1 4.48816 8.55834 13.0044 
115 1 4.33157 6.32459 14.1711 
124 1 4.85256 7.76662 11.8516 
125 1 2.09433 9.24609 14.2435 
126 1 6.91235 9.18425 21.759 
128 1 7.84623 8.36255 20.8277 
139 1 1.59646 10.0999 20.9049 
140 1 4.16616 7.78123 18.6076 
143 1 7.88984 6.94853 11.9123 
146 1 4.34241 8.51661 22.0392 
149 1 4.98766 6.34016 20.8949 
157 1 2.41609 10.0099 19.6952 
ITEM: TIMESTEP
50
ITEM: NUMBER OF ATOMS
163
ITEM: BOX BOUNDS xy xz yz pp pp pp
-6.7755000000000001e+00 1.3552000000000000e+01 -6.7755000000000001e+00
0.0000000000000000e+00 1.1735510246683001e+01 0.0000000000000000e+00
0.0000000000000000e+00 2.2149999999999999e+01 0.0000000000000000e+00
ITEM: ATOMS id type x y z 
8 1 -2.5008 5.49553 9.79202 
87 1 2.91717 4.34265 10.6439 
90 1 2.61491 5.454 9.6999 
109 1 -2.49245 5.50503 0.799636 
158 1 2.61024 5.46417 0.913805 
11 1 4.22621 4.32443 20.082 
14 1 2.82652 4.20082 19.7215 
18 1 1.24699 5.85772 18.5461 
33 1 2.04617 4.31535 20.9245 
43 1 4.22104 4.32969 21.5207 
47 1 3.21313 5.78637 17.8451 
52 1 4.22747 4.32242 12.6839 
76 1 2.37661 4.92466 14.2066 
85 1 4.2225 4.32289 11.2459 
89 1 3.21753 5.78672 14.9209 
91 1 0.881678 5.13587 11.8336 
102 1 2.82588 4.201 13.0424 
105 1 1.24714 5.85292 14.2215 
114 1 2.05319 4.31454 11.8371 
150 1 2.37564 4.92265 18.5584 
156 1 2.91299 4.3438 22.126 
159 1 0.879084 5.14345 20.9329 
5 1 -4.84728 10.4641 8.63748 
9 1 -3.23691 8.87607 7.54639 
19 1 -1.72287 7.56346 10.5936 
21 1 -2.48801 8.77088 11.0131 
23 1 -3.31587 7.56942 6.83566 
25 1 -4.06755 10.3862 9.84629 
32 1 1.56279 6.38889 0.845738 
36 1 -1.59837 7.62942 8.9619 
38 1 -2.16474 6.26076 8.64274 
54 1 0.388689 8.43121 10.6996 
57 1 1.4301 7.96058 9.79671 
60 1 -1.76079 7.5844 0.0498216 
65 1 -3.30257 7.54331 3.81869 
78 1 -1.80765 7.63327 1.55912 
80 1 -2.46694 8.83524 1.92222 
84 1 -4.39735 9.79061 3.13116 
99 1 -2.90404 9.58393 0.756352 
100 1 -2.93352 6.29785 3.16456 
107 1 -4.83988 10.5185 1.97208 
110 1 -3.25966 8.87287 3.14269 
111 1 0.563014 5.95399 10.6998 
113 1 1.5644 6.38467 9.77559 
119 1 -4.06346 10.4026 0.765123 
127 1 -2.14054 6.30917 1.96637 
131 1 -2.38418 6.32562 10.9893 
138 1 1.40599 7.96887 0.851825 
142 1 -2.51616 8.84951 8.72139 
145 1 -4.42763 9.72208 7.46364 
151 1 -4.93232 10.2968 11.0499 
154 1 -2.88391 9.59704 9.8706 
155 1 -2.9374 6.29365 7.48798 
161 2 -0.630319 7.86031 8.47749 
162 2 0.256499 9.21946 8.29651 
163 3 -0.48288 9.72344 7.96821 
12 1 2.58053 7.05621 17.1568 
17 1 0.46985 9.21836 20.8921 
24 1 -3.46292 8.33608 11.9158 
27 1 -0.259665 7.13743 21.6409 
29 1 0.560057 5.95952 22.0736 
31 1 1.28497 7.18878 17.8882 
44 1 -0.211224 7.09081 20.1299 
46 1 0.114817 8.41633 19.7301 
51 1 -0.251783 7.13625 11.1403 
53 1 2.58534 7.05657 15.6061 
56 1 1.28676 7.19066 14.8824 
63 1 -2.38629 6.30199 21.7518 
66 1 -3.42641 6.75364 20.8387 
70 1 -0.207314 7.09091 12.6501 
72 1 0.449227 5.88723 13.0041 
92 1 0.91203 8.43359 14.2495 
95 1 -4.92606 10.3709 21.7099 
98 1 -4.62588 9.25833 20.7778 
104 1 0.474592 9.22508 11.8883 
116 1 -2.57719 8.76375 21.7656 
118 1 -3.57864 8.33605 20.8437 
122 1 0.114222 8.42178 13.0479 
133 1 -3.42077 6.8094 11.9156 
136 1 0.365794 8.42369 22.0895 
147 1 0.449775 5.88762 19.7688 
153 1 -4.63401 9.13628 11.9584 
160 1 0.908644 8.4346 18.5247 
1 1 7.6741 4.90175 10.5409 
4 1 9.05482 4.92279 10.9919 
20 1 7.70667 4.92574 9.07679 
42 1 9.40735 5.49161 7.45346 
67 1 9.88862 4.68515 0.79002 
77 1 7.71324 4.91568 0.0862176 
94 1 7.70842 4.95305 1.56304 
96 1 9.05924 4.75083 2.00439 
121 1 4.59117 5.58692 10.6849 
130 1 9.41068 5.50022 3.15868 
134 1 9.86263 4.68649 9.84473 
152 1 9.04163 4.7271 8.63011 
45 1 4.59131 5.59298 22.0767 
55 1 4.807 5.60009 13.0818 
106 1 9.06221 4.86577 21.7878 
137 1 4.80336 5.60147 19.6827 
2 1 7.30577 10.3909 8.99803 
3 1 8.93544 7.73462 6.09396 
6 1 8.53409 6.43741 6.79686 
16 1 2.40545 8.70898 0.895381 
22 1 6.94802 6.1057 8.65918 
26 1 7.13744 8.38513 7.4687 
35 1 7.31608 10.3872 10.4543 
37 1 6.87376 9.1422 11.0357 
39 1 8.21263 8.93047 6.73144 
41 1 6.61125 6.94825 9.8454 
48 1 3.66267 6.38757 0.899922 
61 1 7.30767 10.3951 1.61041 
62 1 8.96878 7.65787 4.55309 
64 1 6.73188 9.12379 2.01355 
68 1 7.33327 6.92316 3.09278 
71 1 4.37035 8.51811 10.7186 
74 1 3.64089 7.82363 9.74487 
81 1 8.48504 6.40481 3.81929 
83 1 6.54775 8.34517 0.786384 
93 1 7.30693 10.3988 0.172659 
97 1 8.32561 8.92334 3.85051 
101 1 2.47469 9.86352 10.7123 
103 1 2.41925 8.71174 9.72576 
117 1 6.97981 6.13989 1.95553 
120 1 7.20649 8.3672 3.11057 
123 1 3.66578 6.38508 9.713 
129 1 6.63228 6.93476 0.782378 
132 1 6.7069 9.13792 8.61498 
135 1 7.31627 6.91139 7.4837 
141 1 7.13707 6.21751 10.9655 
144 1 6.51017 8.33668 9.81243 
148 1 3.62835 7.82768 0.862095 
7 1 9.09836 6.0904 11.9304 
10 1 3.83422 9.82625 21.6108 
13 1 2.46866 9.85347 22.0511 
15 1 3.04234 8.32734 17.8858 