ITEM: TIMESTEP
0
ITEM: NUMBER OF ATOMS
49
ITEM: BOX BOUNDS pp pp pp
0.0000000000000000e+00 1.1000000000000000e+01
0.0000000000000000e+00 1.1002000000000001e+01
0.0000000000000000e+00 1.1000000000000000e+01
ITEM: ATOMS id type x y z 
10 1 4.603 4.603 4.603 
11 1 3.085 3.085 3.085 
12 1 3.796 3.796 3.796 
46 1 0.726 0.725 0.725 
47 1 2.26 2.259 2.26 
48 1 1.551 1.55 1.55 
19 1 4.546 4.545 6.226 
20 1 3.013 3.013 7.764 
21 1 3.721 3.721 7.053 
31 1 0.668 0.667 10.103 
32 1 2.187 2.187 8.589 
33 1 1.476 1.475 9.298 
16 1 4.546 6.225 4.546 
17 1 3.013 7.765 3.013 
18 1 3.721 7.053 3.722 
25 1 0.668 10.103 0.668 
26 1 2.188 8.589 2.188 
27 1 1.476 9.298 1.476 
4 1 4.608 6.169 6.169 
5 1 3.086 7.684 7.684 
6 1 3.799 6.974 6.974 
37 1 0.729 10.046 10.046 
38 1 2.259 8.509 8.508 
39 1 1.552 9.219 9.219 
13 1 6.225 4.546 4.546 
14 1 7.764 3.013 3.013 
15 1 7.053 3.721 3.722 
28 1 10.102 0.667 0.668 
29 1 8.589 2.187 2.188 
30 1 9.298 1.475 1.476 
1 1 6.168 4.608 6.169 
2 1 7.684 3.086 7.684 
3 1 6.974 3.799 6.974 
40 1 10.045 0.728 10.046 
41 1 8.508 2.259 8.508 
42 1 9.218 1.551 9.218 
7 1 6.169 6.169 4.608 
8 1 7.684 7.684 3.086 
9 1 6.974 6.974 3.799 
43 1 10.046 10.047 0.729 
44 1 8.508 8.509 2.259 
45 1 9.219 9.219 1.552 
22 1 6.229 6.229 6.229 
23 1 7.764 7.765 7.765 
24 1 7.055 7.056 7.055 
34 1 10.108 10.108 10.107 
35 1 8.59 8.59 8.59 
36 1 9.301 9.301 9.3 
49 2 8.86 8.765 10.15 
ITEM: TIMESTEP
10
ITEM: NUMBER OF ATOMS
49
ITEM: BOX BOUNDS pp pp pp
0.0000000000000000e+00 1.1000000000000000e+01
0.0000000000000000e+00 1.1002000000000001e+01
0.0000000000000000e+00 1.1000000000000000e+01
ITEM: ATOMS id type x y z 
10 1 4.59529 4.5957 4.5946 
11 1 3.08092 3.08168 3.08007 
12 1 3.78904 3.7875 3.7906 
46 1 0.736352 0.735329 0.736219 
47 1 2.27097 2.27001 2.27143 
48 1 1.56412 1.56315 1.56226 
19 1 4.53776 4.53679 6.2342 
20 1 3.00214 3.0017 7.77527 
21 1 3.70832 3.70908 7.06484 
31 1 0.686604 0.685313 10.0985 
32 1 2.19275 2.19234 8.5845 
33 1 1.48216 1.48197 9.28969 
16 1 4.53679 6.23352 4.53776 
17 1 3.00184 7.77534 3.00296 
18 1 3.7098 7.06554 3.70869 
25 1 0.687396 10.0975 0.684847 
26 1 2.19345 8.58323 2.19136 
27 1 1.48201 9.29291 1.48602 
4 1 4.59113 6.17602 6.17632 
5 1 3.08462 7.68895 7.68879 
6 1 3.78834 6.97773 6.97792 
37 1 0.721907 10.0342 10.0315 
38 1 2.27559 8.49455 8.49397 
39 1 1.56583 9.20099 9.20032 
13 1 6.23358 4.53708 4.53791 
14 1 7.7749 3.00168 3.00284 
15 1 7.06496 3.7097 3.70865 
28 1 10.0952 0.68463 0.684932 
29 1 8.58149 2.19087 2.19184 
30 1 9.29548 1.48466 1.4856 
1 1 6.17531 4.59107 6.17638 
2 1 7.68862 3.08475 7.68899 
3 1 6.978 3.78835 6.97732 
40 1 10.0333 0.720633 10.0309 
41 1 8.4938 2.27515 8.49384 
42 1 9.20017 1.56515 9.20006 
7 1 6.17612 6.17608 4.59123 
8 1 7.68869 7.68909 3.08455 
9 1 6.97813 6.97749 3.78839 
43 1 10.0321 10.0326 0.721303 
44 1 8.49371 8.49431 2.27568 
45 1 9.20013 9.20076 1.56652 
22 1 6.24265 6.24325 6.24506 
23 1 7.79319 7.79455 7.77892 
24 1 7.05644 7.05701 7.05172 
34 1 10.1241 10.1252 10.1289 
35 1 8.53613 8.53869 8.51087 
36 1 9.32408 9.32686 9.28386 
49 2 8.86655 8.76541 10.2371 
ITEM: TIMESTEP
20
ITEM: NUMBER OF ATOMS
49
ITEM: BOX BOUNDS pp pp pp
0.0000000000000000e+00 1.1000000000000000e+01
0.0000000000000000e+00 1.1002000000000001e+01
0.0000000000000000e+00 1.1000000000000000e+01
ITEM: ATOMS id type x y z 
10 1 4.59529 4.59503 4.5952 
11 1 3.0829 3.08264 3.08261 
12 1 3.79032 3.79049 3.79084 
46 1 0.734783 0.733832 0.735543 
47 1 2.27121 2.27034 2.27081 
48 1 1.56517 1.56426 1.56489 
19 1 4.53684 4.5367 6.23564 
20 1 3.0027 3.00275 7.7736 
21 1 3.70842 3.70825 7.06655 
31 1 0.681434 0.680369 10.097 
32 1 2.19045 2.19021 8.58449 
33 1 1.48313 1.48259 9.29345 
16 1 4.53693 6.23556 4.53729 
17 1 3.0029 7.77422 3.00325 
18 1 3.70841 7.0664 3.70864 
25 1 0.683606 10.0996 0.680121 
26 1 2.1909 8.58491 2.19123 
27 1 1.48376 9.29371 1.48303 
4 1 4.58582 6.1724 6.17276 
5 1 3.08462 7.68782 7.68778 
6 1 3.78943 6.97817 6.97824 
37 1 0.739704 10.0365 10.033 
38 1 2.27156 8.49661 8.49664 
39 1 1.56562 9.20398 9.20194 
13 1 6.23561 4.53704 4.5371 
14 1 7.77372 3.00258 3.00311 
15 1 7.0662 3.70823 3.70852 
28 1 10.0987 0.682144 0.679999 
29 1 8.58445 2.18982 2.19149 
30 1 9.29376 1.48367 1.48288 
1 1 6.17227 4.58577 6.1727 
2 1 7.68784 3.08472 7.6878 
3 1 6.97787 3.78925 6.9783 
40 1 10.0357 0.738234 10.0323 
41 1 8.49607 2.27099 8.49667 
42 1 9.20317 1.5649 9.20152 
7 1 6.1724 6.17211 4.5866 
8 1 7.6864 7.68652 3.08594 
9 1 6.97679 6.97691 3.79081 
43 1 10.0348 10.0353 0.74443 
44 1 8.49544 8.49596 2.27237 
45 1 9.20214 9.2027 1.56755 
22 1 6.23978 6.23963 6.24234 
23 1 7.77097 7.77342 7.75354 
24 1 7.04988 7.05183 7.04485 
34 1 10.1301 10.1314 10.1361 
35 1 8.57159 8.57713 8.46748 
36 1 9.26164 9.26153 9.28988 
49 2 8.90892 8.80695 10.2871 
ITEM: TIMESTEP
30
ITEM: NUMBER OF ATOMS
49
ITEM: BOX BOUNDS pp pp pp
0.0000000000000000e+00 1.1000000000000000e+01
0.0000000000000000e+00 1.1002000000000001e+01
0.0000000000000000e+00 1.1000000000000000e+01
ITEM: ATOMS id type x y z 
10 1 4.59538 4.59576 4.59529 
11 1 3.08333 3.0836 3.08313 
12 1 3.79136 3.7906 3.79164 
46 1 0.736722 0.735696 0.736709 
47 1 2.27294 2.27204 2.2718 
48 1 1.5653 1.56437 1.56647 
19 1 4.53442 4.53427 6.23603 
20 1 3.00102 3.00108 7.77532 
21 1 3.70754 3.70732 7.06681 
31 1 0.68414 0.683334 10.099 
32 1 2.18988 2.191 8.58414 
33 1 1.48494 1.48179 9.29423 
16 1 4.53466 6.23565 4.53491 
17 1 3.00123 7.77538 3.00158 
18 1 3.70771 7.06754 3.7079 
25 1 0.682217 10.1002 0.683618 
26 1 2.18981 8.58444 2.19125 
27 1 1.48558 9.29561 1.48265 
4 1 4.58266 6.17101 6.17128 
5 1 3.08604 7.68706 7.68708 
6 1 3.78851 6.97643 6.97652 
37 1 0.738007 10.0369 10.0334 
38 1 2.27284 8.49507 8.49487 
39 1 1.56698 9.20306 9.20128 
13 1 6.23581 4.53464 4.53475 
14 1 7.77496 3.00082 3.00137 
15 1 7.06717 3.70766 3.70803 
28 1 10.0995 0.682278 0.683092 
29 1 8.58434 2.19042 2.18996 
30 1 9.29531 1.48206 1.48497 
1 1 6.17097 4.58332 6.1717 
2 1 7.68695 3.08677 7.68754 
3 1 6.97609 3.78747 6.97571 
40 1 10.0359 0.736895 10.0324 
41 1 8.49406 2.27266 8.49436 
42 1 9.20194 1.56658 9.20047 
7 1 6.17014 6.17065 4.58437 
8 1 7.68595 7.68673 3.08679 
9 1 6.97641 6.97536 3.78903 
43 1 10.0385 10.0391 0.741949 
44 1 8.49481 8.49526 2.27253 
45 1 9.20287 9.20346 1.56858 
22 1 6.23394 6.23322 6.23707 
23 1 7.77274 7.77433 7.74834 
24 1 7.04986 7.05247 7.04393 
34 1 10.1369 10.1386 10.1317 
35 1 8.57826 8.58705 8.45197 
36 1 9.25673 9.25299 9.32651 
49 2 8.90862 8.80597 10.2919 
ITEM: TIMESTEP
40
ITEM: NUMBER OF ATOMS
49
ITEM: BOX BOUNDS pp pp pp
0.0000000000000000e+00 1.1000000000000000e+01
0.0000000000000000e+00 1.1002000000000001e+01
0.0000000000000000e+00 1.1000000000000000e+01
ITEM: ATOMS id type x y z 
10 1 4.59394 4.59631 4.59744 
11 1 3.08561 3.08292 3.08687 
12 1 3.79301 3.79642 3.78968 
46 1 0.741597 0.741493 0.741843 
47 1 2.27546 2.27533 2.27746 
48 1 1.5712 1.57033 1.56732 
19 1 4.52716 4.52836 6.23521 
20 1 2.99822 2.99778 7.77901 
21 1 3.70284 3.70287 7.06715 
31 1 0.685431 0.684948 10.1046 
32 1 2.18736 2.18849 8.58409 
33 1 1.48634 1.48334 9.30166 
16 1 4.53283 6.23676 4.52964 
17 1 3.001 7.7774 3.00074 
18 1 3.70328 7.06576 3.70373 
25 1 0.682315 10.1053 0.683782 
26 1 2.19156 8.58872 2.18641 
27 1 1.47663 9.29669 1.48698 
4 1 4.58399 6.16508 6.16299 
5 1 3.08872 7.68555 7.68648 
6 1 3.78464 6.9724 6.97272 
37 1 0.740067 10.0408 10.0317 
38 1 2.27238 8.49247 8.49164 
39 1 1.57192 9.20321 9.20108 
13 1 6.23745 4.53182 4.52804 
14 1 7.78127 2.99664 2.9969 
15 1 7.06709 3.70235 3.7016 
28 1 10.1046 0.676043 0.687603 
29 1 8.58686 2.18736 2.19126 
30 1 9.29686 1.48394 1.4798 
1 1 6.16513 4.57824 6.16529 
2 1 7.68316 3.08627 7.68199 
3 1 6.97268 3.79226 6.97659 
40 1 10.0399 0.73957 10.0317 
41 1 8.49317 2.27123 8.49378 
42 1 9.20233 1.57145 9.1995 
7 1 6.16497 6.16615 4.58394 
8 1 7.68808 7.68499 3.08513 
9 1 6.97222 6.97708 3.78526 
43 1 10.0445 10.0472 0.74184 
44 1 8.49547 8.49649 2.27159 
45 1 9.2065 9.20753 1.57027 
22 1 6.22683 6.2273 6.22972 
23 1 7.78382 7.78715 7.71623 
24 1 7.05123 7.05541 7.03822 
34 1 10.1429 10.1505 10.109 
35 1 8.60888 8.62531 8.40524 
36 1 9.22614 9.21409 9.39663 
49 2 8.89245 8.78078 10.3686 
ITEM: TIMESTEP
50
ITEM: NUMBER OF ATOMS
49
ITEM: BOX BOUNDS pp pp pp
0.0000000000000000e+00 1.1000000000000000e+01
0.0000000000000000e+00 1.1002000000000001e+01
0.0000000000000000e+00 1.1000000000000000e+01
ITEM: ATOMS id type x y z 
10 1 4.5998 4.59621 4.59535 
11 1 3.08669 3.08643 3.08732 
12 1 3.79578 3.79518 3.79387 
46 1 0.743794 0.742826 0.740557 
47 1 2.27867 2.27839 2.27755 
48 1 1.57087 1.56968 1.57257 
19 1 4.52804 4.52859 6.2341 
20 1 2.99835 2.9991 7.77777 
21 1 3.70258 3.70086 7.06581 
31 1 0.686549 0.683299 10.1082 
32 1 2.18953 2.18865 8.58821 
33 1 1.48218 1.48246 9.29831 
16 1 4.5318 6.23587 4.52817 
17 1 2.9962 7.7786 2.99754 
18 1 3.7058 7.06864 3.70186 
25 1 0.678201 10.1046 0.683674 
26 1 2.18872 8.59037 2.18896 
27 1 1.47906 9.29752 1.48065 
4 1 4.58286 6.16506 6.16527 
5 1 3.08605 7.68219 7.68305 
6 1 3.79077 6.97313 6.97384 
37 1 0.73265 10.0389 10.0292 
38 1 2.27424 8.4948 8.49521 
39 1 1.56644 9.2024 9.19768 
13 1 6.23436 4.53324 4.52858 
14 1 7.77502 2.99949 2.99944 
15 1 7.0687 3.70531 3.70418 
28 1 10.1019 0.676283 0.683034 
29 1 8.58742 2.1867 2.18666 
30 1 9.30179 1.48062 1.48499 
1 1 6.16495 4.58523 6.16339 
2 1 7.68077 3.08992 7.68457 
3 1 6.97238 3.78577 6.96796 
40 1 10.0381 0.733546 10.0278 
41 1 8.49317 2.27548 8.49363 
42 1 9.20183 1.56546 9.19832 
7 1 6.16835 6.16551 4.58284 
8 1 7.68497 7.6865 3.08261 
9 1 6.97805 6.97437 3.78653 
43 1 10.0444 10.0455 0.733794 
44 1 8.50068 8.50057 2.27062 
45 1 9.20629 9.20929 1.56642 
22 1 6.22821 6.22722 6.23568 
23 1 7.79486 7.80382 7.69417 
24 1 7.06194 7.0639 7.02866 
34 1 10.1356 10.1412 10.1064 
35 1 8.61872 8.6371 8.3842 
36 1 9.20264 9.18606 9.43347 
49 2 8.89126 8.77421 10.4134 
ITEM: TIMESTEP
60
ITEM: NUMBER OF ATOMS
49
ITEM: BOX BOUNDS pp pp pp
0.0000000000000000e+00 1.1000000000000000e+01
0.0000000000000000e+00 1.1002000000000001e+01
0.0000000000000000e+00 1.1000000000000000e+01
ITEM: ATOMS id type x y z 
10 1 4.59838 4.59874 4.59598 
11 1 3.08751 3.08709 3.0876 
12 1 3.79571 3.79558 3.79456 
46 1 0.742974 0.741759 0.741011 
47 1 2.27764 2.27706 2.27821 
48 1 1.57109 1.57029 1.56983 
19 1 4.5284 4.52881 6.23319 
20 1 2.99812 2.99775 7.77684 
21 1 3.70302 3.7033 7.06594 
31 1 0.68485 0.682461 10.1085 
32 1 2.18841 2.18838 8.58781 
33 1 1.48382 1.48251 9.30153 
16 1 4.53388 6.23703 4.52842 
17 1 2.99759 7.77759 2.99791 
18 1 3.70502 7.06835 3.7023 
25 1 0.679098 10.1056 0.680893 
26 1 2.18749 8.58953 2.18811 
27 1 1.48037 9.30031 1.48177 
4 1 4.58677 6.16537 6.16475 
5 1 3.08688 7.68238 7.68364 
6 1 3.78827 6.97211 6.97223 
37 1 0.728318 10.0374 10.0267 
38 1 2.27461 8.49489 8.49505 
39 1 1.56541 9.20248 9.19789 
13 1 6.23682 4.53398 4.52803 
14 1 7.77736 2.99747 2.99779 
15 1 7.06815 3.70462 3.70221 
28 1 10.1057 0.678311 0.681703 
29 1 8.58894 2.18688 2.18803 
30 1 9.30003 1.47974 1.48232 
1 1 6.16508 4.58662 6.16363 
2 1 7.68151 3.08702 7.68237 
3 1 6.97101 3.78925 6.97228 
40 1 10.0365 0.729072 10.0256 
41 1 8.49358 2.27513 8.49443 
42 1 9.20137 1.56612 9.19694 
7 1 6.16838 6.16844 4.58622 
8 1 7.68613 7.68616 3.08258 
9 1 6.97629 6.97532 3.78513 
43 1 10.0434 10.0456 0.732246 
44 1 8.50022 8.50107 2.27148 
45 1 9.2069 9.20836 1.56658 
22 1 6.228 6.2275 6.23627 
23 1 7.80274 7.81266 7.68095 
24 1 7.06563 7.06871 7.02216 
34 1 10.1296 10.1349 10.1023 
35 1 8.62356 8.64333 8.37863 
36 1 9.19188 9.17335 9.44774 
49 2 8.88969 8.76951 10.4377 
ITEM: TIMESTEP
70
ITEM: NUMBER OF ATOMS
49
ITEM: BOX BOUNDS pp pp pp
0.0000000000000000e+00 1.1000000000000000e+01
0.0000000000000000e+00 1.1002000000000001e+01
0.0000000000000000e+00 1.1000000000000000e+01
ITEM: ATOMS id type x y z 
10 1 4.5995 4.59979 4.59645 
11 1 3.08777 3.08733 3.08777 
12 1 3.79586 3.79588 3.79467 
46 1 0.742838 0.741533 0.739785 
47 1 2.27694 2.27644 2.27788 
48 1 1.57134 1.5703 1.56942 
19 1 4.52892 4.52971 6.23306 
20 1 2.99796 2.99773 7.77654 
21 1 3.70294 3.70311 7.0658 
31 1 0.684106 0.681686 10.108 
32 1 2.18877 2.18837 8.58917 
33 1 1.48267 1.48183 9.30075 
16 1 4.535 6.23815 4.52883 
17 1 2.99761 7.77742 2.99778 
18 1 3.705 7.06837 3.70231 
25 1 0.679853 10.1063 0.679063 
26 1 2.18702 8.59013 2.18826 
27 1 1.48056 9.30017 1.48061 
4 1 4.58755 6.16602 6.16504 
5 1 3.08625 7.68226 7.68316 
6 1 3.78899 6.97211 6.97305 
37 1 0.724859 10.0364 10.0249 
38 1 2.2746 8.49527 8.49524 
39 1 1.56426 9.20212 9.1976 
13 1 6.23763 4.53488 4.52817 
14 1 7.77689 2.99725 2.99783 
15 1 7.06855 3.70511 3.70199 
28 1 10.1061 0.679481 0.679675 
29 1 8.58956 2.18654 2.18813 
30 1 9.29995 1.47977 1.48129 
1 1 6.16535 4.58767 6.16442 
2 1 7.68117 3.08648 7.68256 
3 1 6.97163 3.78946 6.97214 
40 1 10.0354 0.725464 10.0237 
41 1 8.49394 2.27524 8.49459 
42 1 9.20122 1.56483 9.19673 
7 1 6.16888 6.16832 4.58742 
8 1 7.68613 7.68548 3.0819 
9 1 6.97625 6.97668 3.78625 
43 1 10.0436 10.0461 0.732608 
44 1 8.50031 8.50114 2.27176 
45 1 9.2072 9.20872 1.56685 
22 1 6.22888 6.22855 6.23641 
23 1 7.80912 7.82024 7.6693 
24 1 7.06923 7.07325 7.01661 
34 1 10.1256 10.1309 10.1019 
35 1 8.62525 8.64545 8.37806 
36 1 9.1851 9.16533 9.45718 
49 2 8.88796 8.76532 10.4534 
ITEM: TIMESTEP
80
ITEM: NUMBER OF ATOMS
49
ITEM: BOX BOUNDS pp pp pp
0.0000000000000000e+00 1.1000000000000000e+01
0.0000000000000000e+00 1.1002000000000001e+01
0.0000000000000000e+00 1.1000000000000000e+01
ITEM: ATOMS id type x y z 
10 1 4.60194 4.60333 4.59896 
11 1 3.0869 3.08831 3.09011 
12 1 3.79995 3.79694 3.79164 
46 1 0.742994 0.741332 0.732563 
47 1 2.27638 2.27567 2.27753 
48 1 1.57147 1.57048 1.56915 
19 1 4.53148 4.53298 6.23292 
20 1 2.99777 2.99786 7.77441 
21 1 3.70334 3.70416 7.06517 
31 1 0.678909 0.676622 10.1033 
32 1 2.1899 2.18846 8.59193 
33 1 1.4814 1.48068 9.2997 
16 1 4.53799 6.24175 4.5316 
17 1 2.99701 7.77627 2.99709 
18 1 3.7057 7.06966 3.70241 
25 1 0.683284 10.1082 0.671328 
26 1 2.18554 8.59134 2.18815 
27 1 1.48212 9.301 1.4772 
4 1 4.59288 6.16804 6.16607 
5 1 3.0847 7.68239 7.68239 
6 1 3.79003 6.97229 6.975 
37 1 0.709924 10.0301 10.0166 
38 1 2.27506 8.49659 8.49591 
39 1 1.55757 9.19932 9.19528 
13 1 6.24026 4.53792 4.53036 
14 1 7.77536 2.99655 2.99779 
15 1 7.06985 3.70636 3.70171 
28 1 10.108 0.684623 0.670945 
29 1 8.59114 2.18594 2.18786 
30 1 9.30006 1.48049 1.47857 
1 1 6.16829 4.59333 6.16561 
2 1 7.68195 3.08557 7.68144 
3 1 6.96977 3.78946 6.97464 
40 1 10.0286 0.709814 10.0152 
41 1 8.49526 2.27574 8.49524 
42 1 9.199 1.55875 9.19399 
7 1 6.17131 6.17008 4.59303 
8 1 7.68605 7.68526 3.081 
9 1 6.97718 6.97793 3.78751 
43 1 10.0453 10.0492 0.735699 
44 1 8.50095 8.50216 2.27333 
45 1 9.20819 9.21006 1.56907 
22 1 6.23345 6.23333 6.23942 
23 1 7.83629 7.85438 7.61511 
24 1 7.08772 7.0955 6.98775 
34 1 10.1088 10.1133 10.1054 
35 1 8.63036 8.65134 8.38139 
36 1 9.15768 9.13219 9.50217 
49 2 8.87695 8.74297 10.5154 
ITEM: TIMESTEP
90
ITEM: NUMBER OF ATOMS
49
ITEM: BOX BOUNDS pp pp pp
0.0000000000000000e+00 1.1000000000000000e+01
0.0000000000000000e+00 1.1002000000000001e+01
0.0000000000000000e+00 1.1000000000000000e+01
ITEM: ATOMS id type x y z 
10 1 4.603 4.60352 4.59753 
11 1 3.08862 3.08857 3.08883 
12 1 3.79739 3.79708 3.79452 
46 1 0.743427 0.74188 0.731381 
47 1 2.27595 2.2753 2.27795 
48 1 1.57145 1.57048 1.56732 
19 1 4.53184 4.53312 6.23287 
20 1 2.99814 2.99836 7.77402 
21 1 3.70365 3.70424 7.06514 
31 1 0.677973 0.676001 10.1019 
32 1 2.18962 2.18849 8.59179 
33 1 1.48165 1.48026 9.29967 
16 1 4.53795 6.24129 4.53161 
17 1 2.997 7.77609 2.997 
18 1 3.70595 7.06997 3.70304 
25 1 0.68393 10.108 0.670934 
26 1 2.18544 8.59102 2.18757 
27 1 1.48252 9.30174 1.47729 
4 1 4.59352 6.16789 6.16723 
5 1 3.08486 7.68169 7.68302 
6 1 3.79053 6.97367 6.9738 
37 1 0.709332 10.0292 10.0171 
38 1 2.27492 8.49603 8.49613 
39 1 1.55656 9.19948 9.19394 
13 1 6.24022 4.53804 4.53065 
14 1 7.7757 2.9967 2.99753 
15 1 7.06951 3.70603 3.70239 
28 1 10.1077 0.684462 0.670937 
29 1 8.59051 2.18512 2.18796 
30 1 9.30124 1.4824 1.47742 
1 1 6.1671 4.59388 6.1667 
2 1 7.68068 3.08508 7.68215 
3 1 6.97227 3.79097 6.97351 
40 1 10.028 0.709245 10.0152 
41 1 8.49501 2.27571 8.49518 
42 1 9.19867 1.55765 9.19304 
7 1 6.17094 6.171 4.59324 
8 1 7.68535 7.68541 3.08117 
9 1 6.97796 6.97706 3.78822 
43 1 10.046 10.0497 0.737213 
44 1 8.50112 8.50222 2.27363 
45 1 9.20834 9.21069 1.57048 
22 1 6.23424 6.23388 6.23956 
23 1 7.83876 7.85732 7.61014 
24 1 7.09017 7.09876 6.98236 
34 1 10.1083 10.1127 10.1077 
35 1 8.62898 8.64976 8.3859 
36 1 9.15664 9.13064 9.50584 
49 2 8.87331 8.73802 10.5163 
ITEM: TIMESTEP
100
ITEM: NUMBER OF ATOMS
49
ITEM: BOX BOUNDS pp pp pp
0.0000000000000000e+00 1.1000000000000000e+01
0.0000000000000000e+00 1.1002000000000001e+01
0.0000000000000000e+00 1.1000000000000000e+01
ITEM: ATOMS id type x y z 
10 1 4.60308 4.60356 4.59738 
11 1 3.0887 3.08851 3.08883 
12 1 3.79724 3.7972 3.79452 
46 1 0.743378 0.741882 0.731127 
47 1 2.27576 2.27513 2.2779 
48 1 1.57149 1.57047 1.56702 
19 1 4.53187 4.53311 6.2329 
20 1 2.99807 2.99825 7.77412 
21 1 3.70364 3.7043 7.06514 
31 1 0.677902 0.676004 10.1021 
32 1 2.18966 2.18858 8.59193 
33 1 1.48154 1.48007 9.29933 
16 1 4.53798 6.24126 4.53167 
17 1 2.99711 7.77597 2.99717 
18 1 3.70595 7.07001 3.70298 
25 1 0.68427 10.1084 0.670911 
26 1 2.18555 8.59107 2.18754 
27 1 1.48242 9.30161 1.47727 
4 1 4.59363 6.16809 6.16717 
5 1 3.08486 7.68171 7.68297 
6 1 3.79064 6.97365 6.9739 
37 1 0.709248 10.0292 10.0171 
38 1 2.27483 8.496 8.4961 
39 1 1.55654 9.1994 9.19388 
13 1 6.24022 4.53819 4.53061 
14 1 7.77573 2.99685 2.99743 
15 1 7.06942 3.70583 3.70268 
28 1 10.108 0.684752 0.670862 
29 1 8.59051 2.18515 2.18791 
30 1 9.30124 1.48243 1.4774 
1 1 6.16718 4.594 6.16681 
2 1 7.68058 3.0851 7.68222 
3 1 6.97246 3.79107 6.97334 
40 1 10.028 0.709376 10.0153 
41 1 8.49511 2.27589 8.49533 
42 1 9.19841 1.55707 9.19269 
7 1 6.17101 6.17085 4.59338 
8 1 7.68554 7.68526 3.08125 
9 1 6.97758 6.97732 3.78816 
43 1 10.046 10.0498 0.737533 
44 1 8.50098 8.5021 2.2739 
45 1 9.20836 9.21069 1.57061 
22 1 6.23434 6.23399 6.23953 
23 1 7.83909 7.85773 7.60945 
24 1 7.09054 7.09922 6.98157 
34 1 10.1082 10.1127 10.1078 
35 1 8.6288 8.64956 8.38648 
36 1 9.15648 9.13041 9.50642 
49 2 8.87279 8.73731 10.5165 
ITEM: TIMESTEP
110
ITEM: NUMBER OF ATOMS
49
ITEM: BOX BOUNDS pp pp pp
0.0000000000000000e+00 1.1000000000000000e+01
0.0000000000000000e+00 1.1002000000000001e+01
0.0000000000000000e+00 1.1000000000000000e+01
ITEM: ATOMS id type x y z 
10 1 4.6031 4.60355 4.59736 
11 1 3.08873 3.08849 3.08883 
12 1 3.79717 3.79723 3.79453 
46 1 0.743404 0.74194 0.730961 
47 1 2.27574 2.27513 2.27789 
48 1 1.57151 1.57045 1.56696 
19 1 4.53191 4.53314 6.23289 
20 1 2.99808 2.99826 7.77411 
21 1 3.70366 3.70432 7.06514 
31 1 0.677847 0.675936 10.1019 
32 1 2.18968 2.18858 8.59192 
33 1 1.48151 1.48007 9.29927 
16 1 4.53798 6.24124 4.53169 
17 1 2.99713 7.77596 2.99719 
18 1 3.70594 7.07002 3.70299 
25 1 0.684321 10.1084 0.670889 
26 1 2.18555 8.59105 2.18752 
27 1 1.48248 9.30163 1.47724 
4 1 4.59369 6.16812 6.16722 
5 1 3.08488 7.6817 7.68297 
6 1 3.79069 6.97368 6.97389 
37 1 0.709168 10.0291 10.017 
38 1 2.27477 8.49599 8.49606 
39 1 1.55649 9.19934 9.19386 
13 1 6.24021 4.53819 4.53066 
14 1 7.77573 2.99685 2.99744 
15 1 7.0694 3.70585 3.70271 
28 1 10.108 0.684824 0.670831 
29 1 8.59051 2.18517 2.18788 
30 1 9.30125 1.48247 1.47738 
1 1 6.1672 4.59408 6.16687 
2 1 7.68055 3.08513 7.68223 
3 1 6.9725 3.79111 6.97331 
40 1 10.0279 0.709272 10.0153 
41 1 8.49509 2.27582 8.49529 
42 1 9.19838 1.55705 9.19267 
7 1 6.17102 6.17085 4.59344 
8 1 7.68555 7.68525 3.0813 
9 1 6.97753 6.97731 3.78814 
43 1 10.0461 10.0499 0.737679 
44 1 8.50099 8.50212 2.27397 
45 1 9.20837 9.21072 1.5707 
22 1 6.23441 6.23407 6.23953 
23 1 7.83934 7.85803 7.60897 
24 1 7.09081 7.09956 6.98102 
34 1 10.1082 10.1126 10.108 
35 1 8.62868 8.64941 8.38687 
36 1 9.15637 9.13024 9.50684 
49 2 8.87243 8.73681 10.5166 
ITEM: TIMESTEP
120
ITEM: NUMBER OF ATOMS
49
ITEM: BOX BOUNDS pp pp pp
0.0000000000000000e+00 1.1000000000000000e+01
0.0000000000000000e+00 1.1002000000000001e+01
0.0000000000000000e+00 1.1000000000000000e+01
ITEM: ATOMS id type x y z 
10 1 4.60301 4.60349 4.59752 
11 1 3.08868 3.08799 3.08907 
12 1 3.79683 3.79782 3.79385 
46 1 0.744328 0.743022 0.727395 
47 1 2.27536 2.27462 2.27765 
48 1 1.57185 1.57094 1.56549 
19 1 4.53274 4.53381 6.23287 
20 1 2.99852 2.99867 7.77384 
21 1 3.70414 3.70474 7.06507 
31 1 0.676542 0.674619 10.0993 
32 1 2.18989 2.1889 8.59196 
33 1 1.48101 1.47938 9.29747 
16 1 4.53797 6.24102 4.53221 
17 1 2.99731 7.77601 2.99753 
18 1 3.70604 7.06989 3.70343 
25 1 0.685555 10.1092 0.670274 
26 1 2.18588 8.59066 2.18695 
27 1 1.48335 9.30194 1.47681 
4 1 4.59545 6.16873 6.16822 
5 1 3.08538 7.68169 7.68312 
6 1 3.79143 6.97413 6.97376 
37 1 0.707167 10.0274 10.0168 
38 1 2.2736 8.49541 8.49515 
39 1 1.55538 9.19845 9.19347 
13 1 6.2401 4.53808 4.53157 
14 1 7.7755 2.99714 2.99782 
15 1 7.06937 3.70589 3.70323 
28 1 10.109 0.686194 0.670132 
29 1 8.59019 2.18562 2.18737 
30 1 9.30157 1.48351 1.47691 
1 1 6.16785 4.59577 6.1677 
2 1 7.68054 3.08563 7.68204 
3 1 6.97271 3.79221 6.97347 
40 1 10.0264 0.707356 10.0147 
41 1 8.49456 2.27509 8.49455 
42 1 9.19717 1.55528 9.19168 
7 1 6.17055 6.17071 4.59407 
8 1 7.68523 7.68499 3.08158 
9 1 6.97758 6.9774 3.78909 
43 1 10.0472 10.0511 0.740676 
44 1 8.50128 8.50249 2.27542 
45 1 9.20903 9.2116 1.57309 
22 1 6.2362 6.23601 6.23964 
23 1 7.845 7.86501 7.59814 
24 1 7.09709 7.10748 6.96842 
34 1 10.1067 10.111 10.1126 
35 1 8.62602 8.64626 8.3958 
36 1 9.15369 9.12631 9.51662 
49 2 8.86413 8.72528 10.5205 
ITEM: TIMESTEP
130
ITEM: NUMBER OF ATOMS
49
ITEM: BOX BOUNDS pp pp pp
0.0000000000000000e+00 1.1000000000000000e+01
0.0000000000000000e+00 1.1002000000000001e+01
0.0000000000000000e+00 1.1000000000000000e+01
ITEM: ATOMS id type x y z 
10 1 4.60297 4.6037 4.59736 
11 1 3.08857 3.08829 3.08876 
12 1 3.79693 3.79715 3.79438 
46 1 0.744408 0.743157 0.727117 
47 1 2.27542 2.27469 2.27772 
48 1 1.57185 1.57091 1.56525 
19 1 4.53283 4.53391 6.23291 
20 1 2.99857 2.99871 7.77379 
21 1 3.70426 3.70485 7.06506 
31 1 0.676236 0.674428 10.0988 
32 1 2.18983 2.18886 8.59175 
33 1 1.4811 1.47946 9.29759 
16 1 4.53791 6.24106 4.53225 
17 1 2.99731 7.77603 2.9975 
18 1 3.70592 7.07 3.70342 
25 1 0.685652 10.1093 0.670253 
26 1 2.18596 8.5907 2.1869 
27 1 1.48338 9.30186 1.47674 
4 1 4.59561 6.16882 6.16817 
5 1 3.08525 7.6818 7.68286 
6 1 3.79183 6.97401 6.97429 
37 1 0.707142 10.0273 10.0168 
38 1 2.27361 8.49542 8.49515 
39 1 1.55499 9.19818 9.19323 
13 1 6.24012 4.53807 4.53166 
14 1 7.77555 2.99713 2.9978 
15 1 7.06931 3.70591 3.70332 
28 1 10.109 0.686322 0.669998 
29 1 8.59024 2.18572 2.18734 
30 1 9.30146 1.48353 1.4768 
1 1 6.16792 4.5961 6.16772 
2 1 7.68063 3.08567 7.682 
3 1 6.97267 3.79227 6.97363 
40 1 10.0261 0.706972 10.0146 
41 1 8.49449 2.27472 8.49439 
42 1 9.19719 1.55546 9.19186 
7 1 6.17076 6.17078 4.59437 
8 1 7.68531 7.68506 3.08183 
9 1 6.97736 6.97722 3.78879 
43 1 10.0473 10.0513 0.740985 
44 1 8.50139 8.50266 2.27565 
45 1 9.20907 9.21157 1.57315 
22 1 6.23639 6.23624 6.23957 
23 1 7.84553 7.86566 7.59709 
24 1 7.09773 7.10834 6.96708 
34 1 10.1065 10.1108 10.1128 
35 1 8.62585 8.64605 8.39655 
36 1 9.15327 9.12575 9.5177 
49 2 8.86328 8.72408 10.5212 
ITEM: TIMESTEP
140
ITEM: NUMBER OF ATOMS
49
ITEM: BOX BOUNDS pp pp pp
0.0000000000000000e+00 1.1000000000000000e+01
0.0000000000000000e+00 1.1002000000000001e+01
0.0000000000000000e+00 1.1000000000000000e+01
ITEM: ATOMS id type x y z 
10 1 4.60298 4.60368 4.59738 
11 1 3.08857 3.08826 3.08878 
12 1 3.79691 3.79721 3.79433 
46 1 0.744403 0.743162 0.727096 
47 1 2.27539 2.27467 2.27773 
48 1 1.57189 1.57093 1.56519 
19 1 4.53284 4.53392 6.23292 
20 1 2.99858 2.99871 7.77379 
21 1 3.70426 3.70486 7.06508 
31 1 0.676266 0.67437 10.0988 
32 1 2.18989 2.18881 8.59175 
33 1 1.48099 1.47954 9.29756 
16 1 4.53792 6.24107 4.53227 
17 1 2.99732 7.77604 2.99752 
18 1 3.70591 7.06997 3.70341 
25 1 0.68565 10.1094 0.670259 
26 1 2.18596 8.5907 2.18691 
27 1 1.4834 9.30185 1.4767 
4 1 4.59564 6.16883 6.16818 
5 1 3.08526 7.6818 7.68287 
6 1 3.79183 6.97402 6.97428 
37 1 0.707123 10.0273 10.0168 
38 1 2.27359 8.49542 8.49515 
39 1 1.55497 9.19816 9.19322 
13 1 6.24011 4.53806 4.53167 
14 1 7.77553 2.99712 2.9978 
15 1 7.06933 3.70592 3.70333 
28 1 10.109 0.686322 0.669999 
29 1 8.59024 2.18571 2.18733 
30 1 9.30147 1.48357 1.47678 
1 1 6.16787 4.5961 6.16776 
2 1 7.68056 3.08564 7.68204 
3 1 6.97281 3.79234 6.97356 
40 1 10.0261 0.706946 10.0146 
41 1 8.49448 2.2747 8.49438 
42 1 9.19718 1.55546 9.19185 
7 1 6.17075 6.17077 4.59437 
8 1 7.6853 7.68505 3.08183 
9 1 6.97736 6.97723 3.78881 
43 1 10.0473 10.0513 0.741015 
44 1 8.50139 8.50266 2.27569 
45 1 9.20909 9.21159 1.57315 
22 1 6.23642 6.23627 6.23957 
23 1 7.8456 7.86575 7.59697 
24 1 7.09782 7.10845 6.96692 
34 1 10.1064 10.1108 10.1129 
35 1 8.62583 8.64602 8.39664 
36 1 9.15322 9.12568 9.51783 
49 2 8.86318 8.72393 10.5213 
ITEM: TIMESTEP
150
ITEM: NUMBER OF ATOMS
49
ITEM: BOX BOUNDS pp pp pp
0.0000000000000000e+00 1.1000000000000000e+01
0.0000000000000000e+00 1.1002000000000001e+01
0.0000000000000000e+00 1.1000000000000000e+01
ITEM: ATOMS id type x y z 
10 1 4.60297 4.60374 4.59733 
11 1 3.08856 3.08831 3.08873 
12 1 3.79692 3.79711 3.79442 
46 1 0.744419 0.743184 0.727023 
47 1 2.27538 2.27466 2.27771 
48 1 1.57189 1.57093 1.56516 
19 1 4.53285 4.53394 6.23293 
20 1 2.99858 2.99873 7.77379 
21 1 3.70427 3.70486 7.06507 
31 1 0.67623 0.674337 10.0987 
32 1 2.18989 2.18882 8.59174 
33 1 1.48098 1.47953 9.29752 
16 1 4.53791 6.24105 4.53228 
17 1 2.99733 7.77602 2.99752 
18 1 3.70593 7.07 3.70345 
25 1 0.685672 10.1094 0.670247 
26 1 2.18597 8.5907 2.1869 
27 1 1.48341 9.30185 1.47668 
4 1 4.59569 6.16886 6.16818 
5 1 3.08527 7.6818 7.68286 
6 1 3.79185 6.97403 6.97428 
37 1 0.707086 10.0272 10.0168 
38 1 2.27356 8.49541 8.49514 
39 1 1.55494 9.19814 9.1932 
13 1 6.24012 4.53807 4.53169 
14 1 7.77555 2.99713 2.99781 
15 1 7.0693 3.7059 3.70334 
28 1 10.1091 0.686348 0.669984 
29 1 8.59024 2.18572 2.18732 
30 1 9.30148 1.48359 1.47677 
1 1 6.16789 4.59615 6.16778 
2 1 7.68056 3.08565 7.68205 
3 1 6.97283 3.79236 6.97355 
40 1 10.0261 0.706907 10.0146 
41 1 8.49447 2.27467 8.49436 
42 1 9.19716 1.55541 9.19183 
7 1 6.17073 6.17076 4.59437 
8 1 7.68529 7.68504 3.08184 
9 1 6.97737 6.97723 3.78884 
43 1 10.0473 10.0513 0.741068 
44 1 8.5014 8.50268 2.27573 
45 1 9.20911 9.21161 1.57319 
22 1 6.23647 6.23633 6.23956 
23 1 7.84573 7.8659 7.59675 
24 1 7.09797 7.10864 6.96663 
34 1 10.1064 10.1107 10.1129 
35 1 8.62579 8.64597 8.39681 
36 1 9.15313 9.12556 9.51807 
49 2 8.86299 8.72366 10.5214 
ITEM: TIMESTEP
160
ITEM: NUMBER OF ATOMS
49
ITEM: BOX BOUNDS pp pp pp
0.0000000000000000e+00 1.1000000000000000e+01
0.0000000000000000e+00 1.1002000000000001e+01
0.0000000000000000e+00 1.1000000000000000e+01
ITEM: ATOMS id type x y z 
10 1 4.60297 4.60373 4.59734 
11 1 3.08856 3.08829 3.08875 
12 1 3.79692 3.79713 3.79439 
46 1 0.744422 0.743189 0.727006 
47 1 2.27538 2.27466 2.2777 
48 1 1.57189 1.57094 1.56515 
19 1 4.53285 4.53395 6.23293 
20 1 2.99858 2.99873 7.77379 
21 1 3.70427 3.70486 7.06507 
31 1 0.676222 0.674328 10.0987 
32 1 2.18989 2.18882 8.59174 
33 1 1.48098 1.47953 9.29751 
16 1 4.53791 6.24105 4.53229 
17 1 2.99733 7.77602 2.99752 
18 1 3.70593 7.07 3.70345 
25 1 0.685675 10.1094 0.670243 
26 1 2.18597 8.5907 2.18689 
27 1 1.48342 9.30186 1.47668 
4 1 4.5957 6.16886 6.16818 
5 1 3.08527 7.6818 7.68286 
6 1 3.79186 6.97403 6.97429 
37 1 0.707076 10.0272 10.0168 
38 1 2.27355 8.49541 8.49513 
39 1 1.55493 9.19813 9.1932 
13 1 6.24011 4.53807 4.53169 
14 1 7.77554 2.99713 2.99782 
15 1 7.06931 3.70591 3.70334 
28 1 10.1091 0.686354 0.669978 
29 1 8.59024 2.18573 2.18731 
30 1 9.30148 1.48359 1.47677 
1 1 6.16789 4.59616 6.16778 
2 1 7.68056 3.08565 7.68205 
3 1 6.97283 3.79237 6.97356 
40 1 10.0261 0.706897 10.0146 
41 1 8.49446 2.27467 8.49436 
42 1 9.19715 1.5554 9.19183 
7 1 6.17074 6.17076 4.59438 
8 1 7.6853 7.68504 3.08184 
9 1 6.97736 6.97723 3.78883 
43 1 10.0474 10.0513 0.741081 
44 1 8.50141 8.50268 2.27574 
45 1 9.20911 9.21162 1.5732 
22 1 6.23648 6.23635 6.23955 
23 1 7.84576 7.86594 7.5967 
24 1 7.098 7.10869 6.96656 
34 1 10.1064 10.1107 10.113 
35 1 8.62578 8.64596 8.39685 
36 1 9.1531 9.12553 9.51813 
49 2 8.86295 8.72359 10.5215 
ITEM: TIMESTEP
170
ITEM: NUMBER OF ATOMS
49
ITEM: BOX BOUNDS pp pp pp
0.0000000000000000e+00 1.1000000000000000e+01
0.0000000000000000e+00 1.1002000000000001e+01
0.0000000000000000e+00 1.1000000000000000e+01
ITEM: ATOMS id type x y z 
10 1 4.60257 4.60385 4.6001 
11 1 3.08622 3.0861 3.08954 
12 1 3.7963 3.79681 3.79126 
46 1 0.748551 0.748994 0.707124 
47 1 2.27328 2.27221 2.27379 
48 1 1.57345 1.57265 1.55479 
19 1 4.53902 4.54114 6.23573 
20 1 3.00159 3.00146 7.7722 
21 1 3.70802 3.70842 7.06554 
31 1 0.665621 0.663991 10.079 
32 1 2.18954 2.18844 8.5868 
33 1 1.47976 1.47815 9.29048 
16 1 4.53618 6.2406 4.53743 
17 1 2.99901 7.7758 2.99936 
18 1 3.70503 7.06984 3.70635 
25 1 0.691241 10.116 0.666663 
26 1 2.18882 8.5899 2.18273 
27 1 1.48866 9.30405 1.47373 
4 1 4.61038 6.17393 6.17178 
5 1 3.08734 7.68291 7.68203 
6 1 3.7986 6.97612 6.97739 
37 1 0.695077 10.0171 10.0163 
38 1 2.26525 8.492 8.4903 
39 1 1.54527 9.19141 9.19024 
13 1 6.23937 4.53672 4.53748 
14 1 7.77555 2.99832 2.99972 
15 1 7.06855 3.70552 3.70585 
28 1 10.1146 0.693603 0.665614 
29 1 8.5901 2.18954 2.18374 
30 1 9.30252 1.48941 1.47266 
1 1 6.1728 4.61132 6.17212 
2 1 7.68087 3.08722 7.68173 
3 1 6.97701 3.80055 6.97601 
40 1 10.016 0.693945 10.0128 
41 1 8.49114 2.26641 8.48951 
42 1 9.19018 1.54497 9.18797 
7 1 6.16962 6.16993 4.59761 
8 1 7.68467 7.68492 3.08484 
9 1 6.97723 6.97696 3.79121 
43 1 10.0529 10.0578 0.753707 
44 1 8.5052 8.50747 2.28653 
45 1 9.21378 9.21741 1.58629 
22 1 6.2518 6.25574 6.22581 