ITEM: TIMESTEP
0
ITEM: NUMBER OF ATOMS
129
ITEM: BOX BOUNDS xy xz yz pp pp pp
0.0000000000000000e+00 2.3654499999999999e+01 7.8845000000000001e+00
0.0000000000000000e+00 1.3658086643083999e+01 0.0000000000000000e+00
0.0000000000000000e+00 2.5747000000000000e+01 0.0000000000000000e+00
ITEM: ATOMS id type x y z 
18 1 10.522 6.683 2.644 
28 1 5.247 4.273 12.803 
31 1 9.65 6.514 0.446 
62 1 9.171 5.15 12.405 
91 1 9.65 6.514 11.889 
92 1 10.81 6.18 11.007 
106 1 10.522 6.683 9.691 
127 1 10.81 6.18 1.328 
4 1 4.402 5.735 13.319 
5 1 3.307 5.568 14.201 
43 1 4.549 6.796 15.517 
52 1 9.172 5.15 25.677 
66 1 4.402 5.735 24.762 
67 1 5.003 6.76 23.881 
88 1 5.247 4.273 25.278 
107 1 3.307 5.568 23.881 
116 1 4.549 6.796 22.565 
117 1 5.003 6.76 14.201 
11 1 11.272 7.494 3.321 
12 1 10.477 8.871 4.018 
14 1 9.018 11.397 0.446 
15 1 10.114 11.565 1.328 
16 1 8.412 9.024 0.654 
19 1 10.477 8.871 5.569 
29 1 10.927 10.156 3.321 
32 1 8.77 7.648 1.328 
35 1 12.036 9.594 2.644 
45 1 9.231 8.963 3.321 
47 1 12.762 8.702 0.446 
49 1 11.224 11 0.654 
51 1 8.872 10.337 2.644 
53 1 11.272 7.494 9.014 
54 1 10.477 8.871 8.317 
56 1 9.018 11.397 11.889 
57 1 8.418 10.372 11.007 
58 1 11.224 11 11.681 
60 1 12.255 7.901 9.691 
61 1 10.477 8.871 6.766 
73 1 9.231 8.963 9.014 
75 1 12.762 8.702 11.889 
76 1 12.202 10.061 11.007 
79 1 9.224 7.617 9.691 
80 1 8.174 12.859 12.405 
89 1 10.927 10.156 9.014 
93 1 8.412 9.024 11.681 
95 1 9.951 11.095 9.691 
105 1 10.114 11.565 11.007 
109 1 8.77 7.648 11.007 
110 1 12.036 9.594 9.691 
114 1 8.872 10.337 9.691 
119 1 8.418 10.372 1.328 
120 1 12.255 7.901 2.644 
123 1 12.202 10.061 1.328 
124 1 9.224 7.617 2.644 
128 1 9.951 11.095 2.644 
6 1 5.009 8.108 13.527 
13 1 9.663 10.28 25.128 
17 1 9.204 8.965 25.162 
30 1 10.016 7.556 25.128 
34 1 11.289 7.464 25.162 
36 1 8.174 12.859 25.677 
46 1 11.752 8.777 25.128 
50 1 10.937 10.184 25.162 
55 1 9.663 10.28 12.954 
59 1 10.937 10.184 12.919 
74 1 11.752 8.777 12.954 
78 1 11.289 7.464 12.919 
90 1 10.016 7.556 12.954 
94 1 9.204 8.965 12.919 
101 1 5.009 8.108 24.555 
33 1 11.795 6.589 0.654 
77 1 11.795 6.589 11.681 
41 1 17.967 6.132 13.527 
68 1 17.967 6.132 24.554 
103 1 19.24 6.037 22.565 
126 1 19.24 6.037 15.517 
3 1 19.528 6.852 12.254 
7 1 19.987 8.167 12.289 
10 1 15.106 8.528 12.804 
22 1 19.175 9.576 12.254 
26 1 17.902 9.668 12.289 
38 1 17.439 8.356 12.254 
42 1 18.254 6.949 12.289 
44 1 20.019 11.982 12.804 
48 1 12.546 7.4 1.328 
65 1 19.528 6.852 0.081 
69 1 18.254 6.949 0.046 
82 1 17.439 8.356 0.081 
86 1 17.902 9.668 0.046 
96 1 14.084 8.604 12.405 
98 1 19.175 9.576 0.081 
102 1 19.987 8.167 0.046 
113 1 12.546 7.4 11.007 
129 2 12.944 7.854 8.529 
1 1 17.919 9.638 16.194 
2 1 18.714 8.261 16.892 
8 1 18.669 10.449 15.517 
9 1 18.714 8.261 18.442 
20 1 14.084 8.604 25.677 
21 1 18.264 6.977 16.194 
23 1 19.541 10.618 13.32 
24 1 20.421 9.484 14.201 
25 1 17.396 10.544 13.527 
27 1 17.155 7.538 15.517 
37 1 19.96 8.169 16.194 
39 1 16.429 8.43 13.319 
40 1 16.644 9.732 14.201 
63 1 17.919 9.638 21.888 
64 1 18.714 8.261 21.19 
70 1 16.936 9.231 22.565 
71 1 18.714 8.261 19.64 
72 1 20.019 11.982 25.278 
81 1 19.96 8.169 21.888 
83 1 16.429 8.43 24.762 
84 1 16.989 7.071 23.881 
85 1 17.396 10.544 24.555 
87 1 19.967 9.515 22.565 
97 1 18.263 6.977 21.888 
99 1 19.541 10.618 24.762 
100 1 18.38 10.953 23.881 
104 1 15.106 8.528 25.278 
108 1 18.669 10.449 22.565 
111 1 20.421 9.484 23.881 
112 1 17.155 7.538 22.565 
115 1 16.644 9.732 23.881 
118 1 16.936 9.231 15.517 
121 1 16.989 7.071 14.201 
122 1 19.967 9.515 15.517 
125 1 18.38 10.953 14.201 
ITEM: TIMESTEP
10
ITEM: NUMBER OF ATOMS
129
ITEM: BOX BOUNDS xy xz yz pp pp pp
0.0000000000000000e+00 2.3654499999999999e+01 7.8845000000000001e+00
0.0000000000000000e+00 1.3658086643083999e+01 0.0000000000000000e+00
0.0000000000000000e+00 2.5747000000000000e+01 0.0000000000000000e+00
ITEM: ATOMS id type x y z 
18 1 10.4262 6.80953 2.63972 
28 1 5.11438 4.55194 12.885 
31 1 9.37484 6.51715 0.415851 
62 1 9.11663 5.25144 12.3798 
91 1 9.3677 6.48052 11.9277 
92 1 10.8359 6.21097 10.9366 
106 1 10.4354 6.82372 9.70307 
127 1 10.7186 6.13158 1.44523 
4 1 4.45884 5.79276 13.2654 
5 1 3.19404 5.58336 14.211 
43 1 4.59802 6.97226 15.4807 
52 1 9.12098 5.2504 25.7009 
66 1 4.45626 5.78099 24.8447 
67 1 5.12679 6.97489 23.8662 
88 1 5.11618 4.54643 25.198 
107 1 3.19111 5.5765 23.8437 
116 1 4.58826 6.95469 22.6066 
117 1 5.12596 6.92576 14.202 
11 1 11.315 7.56076 3.33486 
12 1 10.4884 8.82043 4.1177 
14 1 8.9708 11.3322 0.384391 
15 1 10.2327 11.5456 1.3368 
16 1 8.40928 8.91047 0.726806 
19 1 10.4716 8.8687 5.55857 
29 1 10.9781 10.1339 3.35484 
32 1 8.71412 7.68554 1.25167 
35 1 12.0182 9.61613 2.56112 
45 1 9.24486 8.95345 3.27401 
47 1 12.7457 8.76098 0.535939 
49 1 11.3133 11.0182 0.696289 
51 1 8.82858 10.1644 2.60926 
53 1 11.2485 7.53883 8.81747 
54 1 10.5009 8.77038 8.23167 
56 1 8.99346 11.3243 11.9398 
57 1 8.30661 10.2154 11.0173 
58 1 11.3423 10.9544 11.6831 
60 1 12.3831 8.10344 9.66287 
61 1 10.47 8.8688 6.79262 
73 1 9.23204 8.95557 9.07833 
75 1 12.718 8.80218 11.7669 
76 1 12.2742 10.081 11.0318 
79 1 9.21093 7.68342 9.76919 
80 1 8.31885 12.5602 12.316 
89 1 10.9218 10.143 9.00196 
93 1 8.39948 8.94426 11.6331 
95 1 10.0348 11.0444 9.71012 
105 1 10.2347 11.5105 11.0057 
109 1 8.69566 7.65121 11.0408 
110 1 12.0125 9.65457 9.74696 
114 1 8.84091 10.1828 9.74027 
119 1 8.28758 10.2083 1.32562 
120 1 12.2386 8.05329 2.75904 
123 1 12.2355 10.0574 1.256 
124 1 9.20214 7.6477 2.57166 
128 1 10.0394 11.0606 2.63379 
6 1 5.02309 8.20304 13.6054 
13 1 9.61419 10.2895 25.1154 
17 1 9.14622 8.96798 25.1378 
30 1 9.92144 7.70691 25.0528 
34 1 11.3058 7.48982 25.1316 
36 1 8.3105 12.5733 25.7602 
46 1 11.7053 8.79604 25.0639 
50 1 11.0422 10.1137 25.2278 
55 1 9.59359 10.282 13.0006 
59 1 10.9757 10.1024 12.8912 
74 1 11.6648 8.8347 13.0423 
78 1 11.2812 7.5303 12.9452 
90 1 9.90807 7.71938 13.0388 
94 1 9.16117 8.97908 12.9365 
101 1 4.99895 8.16887 24.5114 
33 1 11.8066 6.64125 0.62893 
77 1 11.7136 6.59484 11.6528 
41 1 17.8844 6.10259 13.5544 
68 1 17.9067 6.08428 24.5293 
103 1 19.1435 6.09493 22.5753 
126 1 19.1451 6.06903 15.5126 
3 1 19.5783 6.8395 12.23 
7 1 20.0484 8.16243 12.2373 
10 1 15.137 8.45689 12.847 
22 1 19.1513 9.43255 12.1853 
26 1 17.9839 9.64663 12.2721 
38 1 17.5066 8.34379 12.1671 
42 1 18.1299 7.00405 12.3798 
44 1 20.0658 11.8535 12.8383 
48 1 12.6083 7.53845 1.38219 
65 1 19.6154 6.80996 0.0891988 
69 1 18.206 7.09363 -0.0875173 
82 1 17.5172 8.39427 0.167612 
86 1 17.9342 9.66125 0.0888347 
96 1 14.051 8.69801 12.3661 
98 1 19.143 9.43025 0.134014 
102 1 19.9692 8.04682 0.066055 
113 1 12.6102 7.51938 10.9951 
129 2 12.9312 7.74036 8.43837 
1 1 17.9312 9.59229 16.2905 
2 1 18.6977 8.30747 16.9921 
8 1 18.7783 10.3492 15.5134 
9 1 18.7203 8.26524 18.4321 
20 1 14.0522 8.67173 25.7206 
21 1 18.2189 7.00688 16.2291 
23 1 19.8213 10.6603 13.2635 
24 1 20.4815 9.45724 14.1422 
25 1 17.379 10.4812 13.5206 
27 1 17.174 7.5411 15.4506 
37 1 19.9468 8.18093 16.1436 
39 1 16.4607 8.40022 13.4255 
40 1 16.6037 9.58856 14.2671 
63 1 17.9453 9.59221 21.7999 
64 1 18.695 8.31034 21.0907 
70 1 16.8738 9.02359 22.5224 
71 1 18.7195 8.26579 19.6516 
72 1 20.074 11.9075 25.2625 
81 1 19.9409 8.19911 21.9437 
83 1 16.4316 8.41039 24.6878 
84 1 16.9944 7.04684 24.0008 
85 1 17.3987 10.512 24.5248 
87 1 19.966 9.46612 22.6432 
97 1 18.2327 7.00138 21.8618 
99 1 19.8148 10.6149 24.7919 
100 1 18.4389 10.9746 23.7879 
104 1 15.1155 8.46081 25.2416 
108 1 18.8 10.3339 22.5829 
111 1 20.4648 9.45291 23.931 
112 1 17.1836 7.54743 22.6238 
115 1 16.5984 9.59994 23.8164 
118 1 16.871 9.03158 15.5424 
121 1 16.9637 7.05403 14.125 
122 1 20.0021 9.46711 15.4486 
125 1 18.45 11.0036 14.2979 
ITEM: TIMESTEP
20
ITEM: NUMBER OF ATOMS
129
ITEM: BOX BOUNDS xy xz yz pp pp pp
0.0000000000000000e+00 2.3654499999999999e+01 7.8845000000000001e+00
0.0000000000000000e+00 1.3658086643083999e+01 0.0000000000000000e+00
0.0000000000000000e+00 2.5747000000000000e+01 0.0000000000000000e+00
ITEM: ATOMS id type x y z 
18 1 10.3946 6.76322 2.62149 
28 1 5.10019 4.59211 12.8927 
31 1 9.42437 6.53378 0.425531 
62 1 9.09693 5.26881 12.3739 
91 1 9.38521 6.51664 11.9219 
92 1 10.8156 6.22313 10.9472 
106 1 10.4327 6.8441 9.67848 
127 1 10.6865 6.19938 1.3835 
4 1 4.44862 5.82602 13.2829 
5 1 3.20525 5.60238 14.2195 
43 1 4.57928 6.96158 15.4725 
52 1 9.11286 5.27669 25.7136 
66 1 4.45564 5.79848 24.7994 
67 1 5.09545 6.96572 23.8817 
88 1 5.10845 4.57218 25.1939 
107 1 3.20107 5.59894 23.8601 
116 1 4.58392 6.96522 22.6068 
117 1 5.09645 6.93817 14.1887 
11 1 11.3393 7.592 3.36662 
12 1 10.4957 8.84106 4.09933 
14 1 8.98368 11.2911 0.393015 
15 1 10.2201 11.5309 1.34261 
16 1 8.39291 8.92773 0.697125 
19 1 10.4697 8.86875 5.5615 
29 1 10.9631 10.1276 3.33676 
32 1 8.70237 7.66106 1.26573 
35 1 12.0198 9.61519 2.56114 
45 1 9.23661 8.93562 3.26688 
47 1 12.7226 8.75458 0.510891 
49 1 11.3255 11.0219 0.682936 
51 1 8.84382 10.1682 2.60166 
53 1 11.2649 7.53068 8.79711 
54 1 10.4937 8.785 8.25284 
56 1 8.99398 11.3 11.9291 
57 1 8.32857 10.1924 11.0278 
58 1 11.3516 10.9467 11.6938 
60 1 12.4179 8.1194 9.66886 
61 1 10.4679 8.86803 6.77892 
73 1 9.21453 8.94252 9.08094 
75 1 12.707 8.80277 11.7843 
76 1 12.2773 10.0962 11.0144 
79 1 9.19957 7.67878 9.78718 
80 1 8.32694 12.5361 12.311 
89 1 10.934 10.1365 8.99919 
93 1 8.38327 8.91649 11.6319 
95 1 10.0298 11.0482 9.70257 
105 1 10.2414 11.4921 11.0218 
109 1 8.68519 7.65809 11.0557 
110 1 12.0233 9.68053 9.74942 
114 1 8.83848 10.1729 9.74078 
119 1 8.31966 10.1863 1.3143 
120 1 12.2543 8.06036 2.72761 
123 1 12.2212 10.075 1.2501 
124 1 9.18324 7.66706 2.55858 
128 1 10.0356 11.0328 2.64252 
6 1 5.02251 8.20783 13.5618 
13 1 9.6323 10.261 25.1422 
17 1 9.15359 8.9453 25.1493 
30 1 9.92914 7.72024 25.072 
34 1 11.2653 7.49357 25.1647 
36 1 8.32237 12.5386 25.7652 
46 1 11.707 8.78878 25.0864 
50 1 11.0516 10.1304 25.2539 
55 1 9.61176 10.2722 13.0054 
59 1 10.9833 10.1146 12.8977 
74 1 11.6669 8.85135 13.0179 
78 1 11.2443 7.53865 12.9425 
90 1 9.90395 7.71943 13.0314 
94 1 9.13924 8.95047 12.9334 
101 1 5.0043 8.20166 24.5283 
33 1 11.7676 6.66802 0.649783 
77 1 11.7166 6.61542 11.6561 
41 1 17.8647 6.11235 13.5493 
68 1 17.8742 6.11272 24.5192 
103 1 19.147 6.10022 22.5578 
126 1 19.1505 6.10261 15.5143 
3 1 19.5688 6.87117 12.2531 
7 1 20.0645 8.14176 12.2859 
10 1 15.1348 8.45982 12.8482 
22 1 19.1528 9.36788 12.1469 
26 1 17.943 9.67944 12.2839 
38 1 17.5422 8.35166 12.182 
42 1 18.1387 6.98635 12.3847 
44 1 20.0828 11.8588 12.8391 
48 1 12.5764 7.54317 1.3922 
65 1 19.6103 6.796 0.101851 
69 1 18.1923 7.05675 -0.0622543 
82 1 17.5059 8.3841 0.148608 
86 1 17.9414 9.69856 0.073267 
96 1 14.0448 8.69858 12.3643 
98 1 19.1452 9.41363 0.143742 
102 1 20.0088 8.10012 0.0455264 
113 1 12.5937 7.53076 11.0193 
129 2 12.8963 7.70248 8.41846 
1 1 17.9397 9.55685 16.288 
2 1 18.6722 8.32623 16.9558 
8 1 18.7908 10.3678 15.5092 
9 1 18.7211 8.26653 18.4363 
20 1 14.0457 8.67777 25.7206 
21 1 18.2391 7.00378 16.2039 
23 1 19.785 10.6487 13.3183 
24 1 20.4868 9.46107 14.1552 
25 1 17.4255 10.4819 13.5577 
27 1 17.1623 7.53462 15.4477 
37 1 19.9629 8.1938 16.1325 
39 1 16.4875 8.3617 13.3914 
40 1 16.6046 9.59647 14.2729 
63 1 17.9393 9.55441 21.7953 
64 1 18.6688 8.32449 21.1273 
70 1 16.8884 9.02226 22.5247 
71 1 18.7205 8.26628 19.6431 
72 1 20.091 11.8716 25.2517 
81 1 19.9616 8.19742 21.9503 
83 1 16.4638 8.37314 24.7086 
84 1 16.9871 7.04793 23.9642 
85 1 17.4119 10.4872 24.5029 
87 1 20.0068 9.45014 22.6634 
97 1 18.237 7.01084 21.8796 
99 1 19.7747 10.6161 24.763 
100 1 18.4822 10.93 23.8266 
104 1 15.1341 8.4576 25.2335 
108 1 18.7941 10.3642 22.562 
111 1 20.4725 9.4628 23.9502 
112 1 17.1697 7.53463 22.6475 
115 1 16.612 9.60213 23.8146 
118 1 16.888 9.0252 15.5567 
121 1 16.9678 7.05065 14.1226 
122 1 20.0135 9.4571 15.424 
125 1 18.4777 10.9391 14.2678 
ITEM: TIMESTEP
30
ITEM: NUMBER OF ATOMS
129
ITEM: BOX BOUNDS xy xz yz pp pp pp
0.0000000000000000e+00 2.3654499999999999e+01 7.8845000000000001e+00
0.0000000000000000e+00 1.3658086643083999e+01 0.0000000000000000e+00
0.0000000000000000e+00 2.5747000000000000e+01 0.0000000000000000e+00
ITEM: ATOMS id type x y z 
18 1 10.3629 6.78066 2.66476 
28 1 5.10297 4.61492 12.8909 
31 1 9.44513 6.58012 0.426783 
62 1 9.05508 5.30461 12.3633 
91 1 9.41026 6.57145 11.9003 
92 1 10.7685 6.27069 10.9454 
106 1 10.4243 6.87953 9.67727 
127 1 10.6097 6.25957 1.36056 
4 1 4.4218 5.8757 13.2958 
5 1 3.18855 5.62307 14.225 
43 1 4.57237 6.97126 15.4744 
52 1 9.06947 5.26988 25.6989 
66 1 4.44338 5.84845 24.771 
67 1 5.08588 6.97597 23.9006 
88 1 5.1112 4.59426 25.1905 
107 1 3.19003 5.62249 23.8489 
116 1 4.57482 6.97405 22.6004 
117 1 5.09798 6.98124 14.1864 
11 1 11.3288 7.60702 3.3678 
12 1 10.502 8.83827 4.08242 
14 1 9.0043 11.2407 0.405562 
15 1 10.2275 11.5067 1.3519 
16 1 8.3501 8.89109 0.664969 
19 1 10.4674 8.87167 5.57264 
29 1 10.9571 10.113 3.3265 
32 1 8.64737 7.65784 1.27894 
35 1 12.0448 9.6125 2.57062 
45 1 9.2289 8.92497 3.26896 
47 1 12.6983 8.77464 0.490004 
49 1 11.3503 11.0309 0.664994 
51 1 8.85483 10.1569 2.60515 
53 1 11.3434 7.54387 8.75743 
54 1 10.4948 8.80387 8.27356 
56 1 9.00733 11.2497 11.935 
57 1 8.34119 10.1458 11.029 
58 1 11.3781 10.9545 11.7132 
60 1 12.4697 8.1538 9.6822 
61 1 10.4639 8.86366 6.78388 
73 1 9.20652 8.92935 9.07707 
75 1 12.6872 8.83517 11.8045 
76 1 12.3009 10.1056 11.006 
79 1 9.21254 7.65988 9.78658 
80 1 8.32915 12.5113 12.3093 
89 1 10.9277 10.1228 9.00088 
93 1 8.33475 8.88506 11.6616 
95 1 10.0234 11.0472 9.69244 
105 1 10.2507 11.4471 11.0201 
109 1 8.66274 7.62244 11.0718 
110 1 12.0564 9.69119 9.73559 
114 1 8.85378 10.1668 9.73473 
119 1 8.33316 10.1481 1.30881 
120 1 12.2554 8.08044 2.72414 
123 1 12.2492 10.079 1.24665 
124 1 9.18323 7.64906 2.55336 
128 1 10.0182 11.0357 2.65657 
6 1 5.06051 8.23454 13.5309 
13 1 9.65385 10.2205 25.1457 
17 1 9.12796 8.92929 25.138 
30 1 9.921 7.71663 25.077 
34 1 11.2452 7.47535 25.2011 
36 1 8.32745 12.502 25.7646 
46 1 11.7145 8.7923 25.1158 
50 1 11.0817 10.18 25.2552 
55 1 9.62244 10.2334 13.0081 
59 1 10.9975 10.154 12.9082 
74 1 11.6593 8.85154 12.979 
78 1 11.2196 7.53322 12.9623 
90 1 9.88748 7.72109 13.0296 
94 1 9.09693 8.93302 12.9441 
101 1 5.04166 8.23499 24.5446 
33 1 11.7574 6.69587 0.635395 
77 1 11.6913 6.64252 11.6531 
41 1 17.8415 6.09945 13.5455 
68 1 17.8538 6.11271 24.5259 
103 1 19.1606 6.09436 22.5386 
126 1 19.1575 6.09635 15.5393 
3 1 19.5496 6.89319 12.267 
7 1 20.0746 8.17533 12.289 
10 1 15.1418 8.47003 12.847 
22 1 19.1708 9.37297 12.1193 
26 1 17.9811 9.67411 12.3085 
38 1 17.4706 8.33096 12.2101 
42 1 18.1228 6.95514 12.3766 
44 1 20.1439 11.8717 12.8235 
48 1 12.5756 7.58439 1.3793 
65 1 19.5992 6.80999 0.116791 
69 1 18.2029 7.01562 -0.0576235 
82 1 17.4527 8.37489 0.124427 
86 1 17.9622 9.72128 0.0391094 
96 1 14.0483 8.69865 12.376 
98 1 19.1531 9.41486 0.167346 
102 1 19.9834 8.12427 0.0500508 
113 1 12.583 7.57731 11.0295 
129 2 12.7505 7.6203 8.39099 
1 1 17.9561 9.55017 16.2911 
2 1 18.6624 8.34109 16.9307 
8 1 18.8439 10.3604 15.5674 
9 1 18.722 8.27017 18.4396 
20 1 14.0551 8.68744 25.7045 
21 1 18.25 7.02667 16.1832 
23 1 19.748 10.621 13.3721 
24 1 20.5189 9.4862 14.1361 
25 1 17.4225 10.4339 13.5503 
27 1 17.1272 7.53341 15.4538 
37 1 19.9857 8.20272 16.1214 
39 1 16.5257 8.33083 13.3328 
40 1 16.6188 9.56467 14.2625 
63 1 17.95 9.54714 21.7863 
64 1 18.6609 8.33941 21.1521 
70 1 16.8811 8.99721 22.5412 
71 1 18.7212 8.26946 19.6396 
72 1 20.1406 11.8526 25.2562 
81 1 19.9813 8.20453 21.956 
83 1 16.5113 8.33688 24.7535 
84 1 16.9558 7.05722 23.9934 
85 1 17.4223 10.4388 24.5272 
87 1 20.0158 9.46088 22.6684 
97 1 18.2478 7.02662 21.898 
99 1 19.747 10.6183 24.7357 
100 1 18.5632 10.8879 23.8291 
104 1 15.1386 8.45484 25.238 
108 1 18.8442 10.355 22.5173 
111 1 20.5079 9.48574 23.9569 
112 1 17.1325 7.53764 22.6305 
115 1 16.6038 9.55893 23.8147 
118 1 16.8774 8.99507 15.5473 
121 1 16.9451 7.04186 14.111 
122 1 20.0188 9.46068 15.4207 
125 1 18.5506 10.8871 14.2537 
ITEM: TIMESTEP
40
ITEM: NUMBER OF ATOMS
129
ITEM: BOX BOUNDS xy xz yz pp pp pp
0.0000000000000000e+00 2.3654499999999999e+01 7.8845000000000001e+00
0.0000000000000000e+00 1.3658086643083999e+01 0.0000000000000000e+00
0.0000000000000000e+00 2.5747000000000000e+01 0.0000000000000000e+00
ITEM: ATOMS id type x y z 
18 1 10.359 6.78507 2.65518 
28 1 5.09487 4.65086 12.895 
31 1 9.3935 6.58423 0.416071 
62 1 9.02337 5.30141 12.3674 
91 1 9.3777 6.57153 11.9143 
92 1 10.7708 6.28496 10.941 
106 1 10.43 6.89472 9.66912 
127 1 10.6159 6.27855 1.38139 
4 1 4.42117 5.89071 13.3007 
5 1 3.1855 5.62629 14.2331 
43 1 4.58066 6.97531 15.4685 
52 1 9.04251 5.29159 25.6929 
66 1 4.43798 5.85667 24.7826 
67 1 5.09197 7.00976 23.8966 
88 1 5.10958 4.61887 25.184 
107 1 3.18744 5.62455 23.8401 
116 1 4.58117 6.97464 22.6102 
117 1 5.09685 6.99935 14.1785 
11 1 11.3288 7.61424 3.36899 
12 1 10.4985 8.83299 4.10378 
14 1 9.00948 11.2234 0.407223 
15 1 10.2381 11.5017 1.35577 
16 1 8.32252 8.87992 0.658029 
19 1 10.4661 8.86916 5.5679 
29 1 10.961 10.1116 3.3198 
32 1 8.63072 7.63564 1.27008 
35 1 12.0477 9.62719 2.56843 
45 1 9.22979 8.92168 3.27375 
47 1 12.7056 8.79029 0.490793 
49 1 11.3627 11.0469 0.680532 
51 1 8.84815 10.1473 2.5997 
53 1 11.3463 7.50332 8.75044 
54 1 10.4854 8.83537 8.25346 
56 1 9.00679 11.2308 11.9356 
57 1 8.33984 10.1279 11.0327 
58 1 11.3847 10.9507 11.703 
60 1 12.4957 8.19377 9.69088 
61 1 10.4581 8.87007 6.78482 
73 1 9.21214 8.92778 9.06691 
75 1 12.6896 8.86493 11.8171 
76 1 12.3228 10.1243 11.0178 
79 1 9.19257 7.66096 9.79254 
80 1 8.33725 12.4783 12.3049 
89 1 10.935 10.1175 9.00086 
93 1 8.3109 8.86413 11.6711 
95 1 10.0337 11.0273 9.69814 
105 1 10.2601 11.4402 11.0221 
109 1 8.63151 7.63071 11.0546 
110 1 12.0826 9.66929 9.72945 
114 1 8.84627 10.1573 9.74177 
119 1 8.3285 10.1263 1.30858 
120 1 12.252 8.09004 2.72528 
123 1 12.2583 10.0983 1.24816 
124 1 9.1557 7.65622 2.55945 
128 1 10.0238 11.0261 2.65687 
6 1 5.08021 8.25717 13.5264 
13 1 9.66526 10.2126 25.1436 
17 1 9.12933 8.92611 25.1391 
30 1 9.91242 7.71867 25.0688 
34 1 11.2528 7.48369 25.1898 
36 1 8.33292 12.4706 25.7652 
46 1 11.6844 8.79442 25.0955 
50 1 11.0865 10.1654 25.2553 
55 1 9.61819 10.2247 13.012 
59 1 10.996 10.156 12.921 
74 1 11.6516 8.85275 12.9832 
78 1 11.2241 7.52945 12.9586 
90 1 9.88467 7.73012 13.0452 
94 1 9.08684 8.929 12.9499 
101 1 5.04625 8.24329 24.5565 
33 1 11.7457 6.69685 0.665336 
77 1 11.681 6.67686 11.653 
41 1 17.832 6.0879 13.5486 
68 1 17.8525 6.09621 24.5233 
103 1 19.1605 6.10289 22.5373 
126 1 19.1578 6.10532 15.5339 
3 1 19.5403 6.91047 12.2702 
7 1 20.0654 8.17964 12.2785 
10 1 15.1377 8.46361 12.8401 
22 1 19.1811 9.38014 12.1153 
26 1 17.9869 9.64891 12.2967 
38 1 17.4896 8.32288 12.1869 
42 1 18.1068 6.95922 12.3802 
44 1 20.1749 11.8411 12.8253 
48 1 12.5725 7.58418 1.38311 
65 1 19.597 6.80641 0.107357 
69 1 18.1891 7.03194 -0.0626402 
82 1 17.4893 8.37553 0.163032 
86 1 17.9596 9.70143 0.0574053 
96 1 14.041 8.71187 12.3858 
98 1 19.1531 9.41844 0.179519 
102 1 19.9753 8.12665 0.0524308 
113 1 12.5728 7.60712 10.9959 
129 2 12.7114 7.58105 8.379 
1 1 17.9435 9.5478 16.2903 
2 1 18.6791 8.34298 16.9391 
8 1 18.8451 10.3539 15.5642 
9 1 18.7219 8.27333 18.4373 
20 1 14.0499 8.70195 25.6987 
21 1 18.2377 7.0348 16.1764 
23 1 19.7939 10.6304 13.3583 
24 1 20.5352 9.5067 14.1287 
25 1 17.4604 10.4184 13.5729 
27 1 17.1244 7.51458 15.4492 
37 1 19.981 8.20353 16.1305 
39 1 16.5153 8.31829 13.3406 
40 1 16.6141 9.53776 14.2539 
63 1 17.9427 9.5485 21.7926 
64 1 18.6731 8.3442 21.1385 
70 1 16.8897 8.99471 22.5276 
71 1 18.7209 8.27297 19.6428 
72 1 20.1748 11.8488 25.2657 
81 1 19.9786 8.20569 21.952 
83 1 16.4991 8.33709 24.7517 
84 1 16.9553 7.03477 23.9839 
85 1 17.4442 10.4429 24.4856 
87 1 20.045 9.45865 22.6632 
97 1 18.239 7.03628 21.9063 
99 1 19.7876 10.6107 24.7457 
100 1 18.5438 10.8711 23.8025 
104 1 15.1359 8.44384 25.2417 
108 1 18.8454 10.3526 22.5171 
111 1 20.5315 9.48994 23.9588 
112 1 17.1281 7.51683 22.6465 
115 1 16.6122 9.55067 23.8231 
118 1 16.8921 8.99748 15.5521 
121 1 16.9229 7.03312 14.1077 
122 1 20.0475 9.46142 15.4198 
125 1 18.5438 10.8758 14.2782 
ITEM: TIMESTEP
50
ITEM: NUMBER OF ATOMS
129
ITEM: BOX BOUNDS xy xz yz pp pp pp
0.0000000000000000e+00 2.3654499999999999e+01 7.8845000000000001e+00
0.0000000000000000e+00 1.3658086643083999e+01 0.0000000000000000e+00
0.0000000000000000e+00 2.5747000000000000e+01 0.0000000000000000e+00
ITEM: ATOMS id type x y z 
18 1 10.3453 6.80018 2.66197 
28 1 5.09345 4.67535 12.895 
31 1 9.38733 6.5885 0.417099 
62 1 8.98965 5.30535 12.3686 
91 1 9.35941 6.5711 11.9139 
92 1 10.7597 6.29985 10.9492 
106 1 10.4159 6.89905 9.67245 
127 1 10.5923 6.29593 1.37562 
4 1 4.41344 5.90899 13.3042 
5 1 3.18327 5.63294 14.2323 
43 1 4.58375 6.98285 15.465 
52 1 9.01239 5.29475 25.6838 
66 1 4.43809 5.86942 24.7726 
67 1 5.09103 7.01849 23.9037 
88 1 5.11313 4.63407 25.181 
107 1 3.18453 5.6309 23.838 
116 1 4.58417 6.98211 22.6106 
117 1 5.09734 7.0155 14.1745 
11 1 11.3267 7.61921 3.369 
12 1 10.5015 8.82857 4.09916 
14 1 9.01605 11.2056 0.411652 
15 1 10.2432 11.4946 1.35859 
16 1 8.30393 8.86491 0.650556 
19 1 10.4635 8.86732 5.56787 
29 1 10.9591 10.1061 3.32017 
32 1 8.6025 7.63602 1.27737 
35 1 12.0544 9.63361 2.56741 
45 1 9.22525 8.91806 3.27289 
47 1 12.7065 8.79625 0.485042 
49 1 11.3706 11.0502 0.676511 
51 1 8.84597 10.1403 2.59721 
53 1 11.3286 7.51438 8.75049 
54 1 10.493 8.83225 8.2542 
56 1 9.01261 11.2126 11.9334 
57 1 8.33399 10.1137 11.0387 
58 1 11.3919 10.9463 11.7106 
60 1 12.5004 8.19587 9.66299 
61 1 10.4541 8.87744 6.78343 
73 1 9.20925 8.9275 9.06486 
75 1 12.6869 8.8831 11.8204 
76 1 12.3373 10.133 11.0181 
79 1 9.18208 7.66508 9.79177 
80 1 8.33923 12.4557 12.3039 
89 1 10.9445 10.1073 9.00721 
93 1 8.29264 8.85246 11.677 
95 1 10.0364 11.0146 9.69992 
105 1 10.2608 11.4284 11.0258 
109 1 8.61478 7.62428 11.0552 
110 1 12.1037 9.67584 9.72782 
114 1 8.84775 10.1511 9.74537 
119 1 8.32688 10.1092 1.30628 
120 1 12.2519 8.09821 2.72288 
123 1 12.272 10.1046 1.24595 
124 1 9.14001 7.65348 2.5576 
128 1 10.0194 11.0214 2.65592 
6 1 5.09328 8.27261 13.5145 
13 1 9.66866 10.2021 25.1461 
17 1 9.12485 8.91953 25.1408 
30 1 9.91133 7.71596 25.0648 
34 1 11.2421 7.48314 25.1967 
36 1 8.33241 12.4501 25.762 
46 1 11.6929 8.79354 25.101 
50 1 11.0917 10.1729 25.261 
55 1 9.61207 10.2147 13.0101 
59 1 10.997 10.1605 12.9249 
74 1 11.6491 8.85649 12.9888 
78 1 11.2168 7.53549 12.9592 
90 1 9.8808 7.73089 13.0552 
94 1 9.07627 8.91961 12.9528 
101 1 5.05353 8.25705 24.5642 
33 1 11.7362 6.7127 0.665865 
77 1 11.6805 6.70289 11.6424 
41 1 17.8209 6.08382 13.5486 
68 1 17.8479 6.09619 24.5225 
103 1 19.1639 6.10765 22.5378 
126 1 19.161 6.11222 15.5348 
3 1 19.5343 6.91504 12.2763 
7 1 20.0724 8.19071 12.2769 
10 1 15.1331 8.4585 12.8361 
22 1 19.1866 9.37525 12.1034 
26 1 17.9905 9.64936 12.2956 
38 1 17.4854 8.31973 12.1838 
42 1 18.1015 6.9481 12.3824 
44 1 20.2113 11.8385 12.8183 
48 1 12.5679 7.60193 1.3809 
65 1 19.5932 6.8141 0.112935 
69 1 18.1912 7.02708 -0.0604787 
82 1 17.4721 8.37233 0.155301 
86 1 17.9623 9.7026 0.0521927 
96 1 14.0362 8.72234 12.3913 
98 1 19.1571 9.42702 0.186358 
102 1 19.972 8.1308 0.0537739 
113 1 12.5676 7.64524 10.9894 
129 2 12.7044 7.54741 8.37055 
1 1 17.9505 9.54286 16.292 
2 1 18.6743 8.34874 16.9385 
8 1 18.8586 10.3448 15.5762 
9 1 18.7226 8.27603 18.4384 
20 1 14.0491 8.70702 25.6929 
21 1 18.2436 7.04085 16.1728 
23 1 19.7992 10.6282 13.3679 
24 1 20.5586 9.51364 14.1348 
25 1 17.4718 10.3979 13.5759 
27 1 17.1166 7.51299 15.4452 
37 1 19.9889 8.20672 16.1242 
39 1 16.5149 8.30472 13.3293 
40 1 16.6245 9.52643 14.2534 
63 1 17.9499 9.5436 21.7891 
64 1 18.6697 8.34862 21.1421 
70 1 16.8866 8.98026 22.5318 
71 1 18.7212 8.27586 19.6427 
72 1 20.2062 11.8346 25.2676 
81 1 19.9867 8.20613 21.9546 
83 1 16.5046 8.32655 24.7669 
84 1 16.9435 7.03533 23.9933 
85 1 17.4545 10.4208 24.4905 
87 1 20.0593 9.46432 22.6618 
97 1 18.2399 7.04299 21.9099 
99 1 19.7904 10.611 24.7395 
100 1 18.5784 10.8612 23.8063 
104 1 15.1357 8.44004 25.2461 
108 1 18.8588 10.3426 22.5057 
111 1 20.5493 9.50074 23.9597 
112 1 17.124 7.51521 22.6466 
115 1 16.6193 9.53528 23.8246 
118 1 16.8885 8.98194 15.5519 
121 1 16.9096 7.02035 14.106 
122 1 20.0597 9.46371 15.4205 
125 1 18.5733 10.8641 14.2761 
ITEM: TIMESTEP
60
ITEM: NUMBER OF ATOMS
129
ITEM: BOX BOUNDS xy xz yz pp pp pp
0.0000000000000000e+00 2.3654499999999999e+01 7.8845000000000001e+00
0.0000000000000000e+00 1.3658086643083999e+01 0.0000000000000000e+00
0.0000000000000000e+00 2.5747000000000000e+01 0.0000000000000000e+00
ITEM: ATOMS id type x y z 
18 1 10.3394 6.80485 2.66152 
28 1 5.09674 4.68034 12.8925 
31 1 9.37826 6.59058 0.416751 
62 1 8.97261 5.30713 12.3692 
91 1 9.3544 6.57183 11.9152 
92 1 10.7537 6.3075 10.9512 
106 1 10.4091 6.9009 9.67607 
127 1 10.5859 6.30299 1.37565 
4 1 4.41146 5.91602 13.3046 
5 1 3.17642 5.63594 14.234 
43 1 4.58657 6.98508 15.4628 
52 1 8.99802 5.29952 25.6802 
66 1 4.43696 5.87444 24.7728 
67 1 5.09296 7.02466 23.9042 
88 1 5.11589 4.64034 25.1798 
107 1 3.18341 5.63296 23.8376 
116 1 4.58701 6.98386 22.613 
117 1 5.10123 7.02794 14.1737 
11 1 11.3274 7.62159 3.3679 
12 1 10.5018 8.82677 4.09847 
14 1 9.01791 11.1992 0.413611 
15 1 10.2451 11.4917 1.35907 
16 1 8.29537 8.86024 0.646997 
19 1 10.4622 8.86759 5.56868 
29 1 10.9583 10.1038 3.31793 
32 1 8.59267 7.63085 1.27687 
35 1 12.0562 9.63612 2.56662 
45 1 9.22352 8.91742 3.27329 
47 1 12.7055 8.7987 0.486347 
49 1 11.3744 11.0526 0.677409 
51 1 8.84406 10.1381 2.5958 
53 1 11.325 7.51395 8.74745 
54 1 10.4931 8.83347 8.25237 
56 1 9.01164 11.2049 11.9332 
57 1 8.32997 10.1027 11.0368 
58 1 11.3933 10.9461 11.7123 
60 1 12.5057 8.20001 9.65376 
61 1 10.4527 8.8799 6.78448 
73 1 9.21122 8.92907 9.06303 
75 1 12.6841 8.89109 11.8215 
76 1 12.3442 10.136 11.0164 
79 1 9.17616 7.66493 9.79274 
80 1 8.33577 12.4525 12.3059 
89 1 10.9477 10.101 9.00953 
93 1 8.28476 8.84833 11.6788 
95 1 10.0384 11.0108 9.70382 
105 1 10.2675 11.4232 11.0237 
109 1 8.60628 7.62227 11.0556 
110 1 12.1114 9.67867 9.72627 
114 1 8.84602 10.148 9.7487 
119 1 8.3245 10.1026 1.3051 
120 1 12.2516 8.10225 2.72023 
123 1 12.2762 10.108 1.24631 
124 1 9.13127 7.65306 2.55856 
128 1 10.0184 11.0189 2.65566 
6 1 5.09938 8.27746 13.5117 
13 1 9.67083 10.1978 25.1472 
17 1 9.12215 8.91722 25.1417 
30 1 9.9088 7.71426 25.0646 
34 1 11.2412 7.48382 25.1967 
36 1 8.33154 12.4408 25.76 
46 1 11.6915 8.79396 25.1006 
50 1 11.0932 10.1727 25.2615 
55 1 9.6146 10.2078 13.0139 
59 1 10.9936 10.161 12.9278 
74 1 11.6478 8.85916 12.9908 
78 1 11.2141 7.53633 12.9583 
90 1 9.87932 7.73013 13.0577 
94 1 9.07087 8.9149 12.9541 
101 1 5.05675 8.26054 24.5686 
33 1 11.7325 6.7182 0.669866 
77 1 11.6791 6.71581 11.6383 
41 1 17.8183 6.07941 13.5514 
68 1 17.8463 6.095 24.5222 
103 1 19.1653 6.1101 22.5372 
126 1 19.1625 6.11421 15.5341 
3 1 19.5301 6.92197 12.2759 
7 1 20.0755 8.19155 12.2758 
10 1 15.1322 8.45721 12.8354 
22 1 19.187 9.37498 12.097 
26 1 17.9917 9.64614 12.2938 
38 1 17.4831 8.31771 12.1828 
42 1 18.0998 6.94696 12.3822 
44 1 20.2283 11.8346 12.816 
48 1 12.5632 7.60782 1.3816 
65 1 19.5926 6.81555 0.112503 
69 1 18.19 7.02761 -0.0593596 
82 1 17.4752 8.3724 0.158993 
86 1 17.9618 9.70129 0.0544663 
96 1 14.0357 8.72755 12.3946 
98 1 19.1577 9.42647 0.1899 
102 1 19.971 8.13455 0.055292 
113 1 12.5639 7.65843 10.9849 
129 2 12.6963 7.53279 8.3709 
1 1 17.9494 9.54138 16.2904 
2 1 18.6756 8.34918 16.9388 
8 1 18.8632 10.3423 15.5783 
9 1 18.7229 8.27738 18.4383 
20 1 14.0494 8.71087 25.6908 
21 1 18.2442 7.04371 16.1703 
23 1 19.8092 10.6306 13.3696 
24 1 20.5692 9.51716 14.1351 
25 1 17.4802 10.392 13.5786 
27 1 17.1146 7.50898 15.4438 
37 1 19.9905 8.20809 16.1249 
39 1 16.5135 8.29981 13.3263 
40 1 16.6289 9.5186 14.2522 
63 1 17.9474 9.54133 21.7916 
64 1 18.6714 8.34923 21.1423 
70 1 16.8888 8.98036 22.5314 
71 1 18.7215 8.27731 19.6426 
72 1 20.222 11.8317 25.2702 
81 1 19.9881 8.20936 21.9555 
83 1 16.5032 8.32283 24.7699 
84 1 16.9415 7.03062 23.9963 
85 1 17.4631 10.4182 24.4865 
87 1 20.067 9.46389 22.6603 
97 1 18.2434 7.04423 21.9112 
99 1 19.7984 10.6097 24.7403 
100 1 18.5827 10.8553 23.8046 
104 1 15.1352 8.43743 25.2471 
108 1 18.8654 10.34 22.5044 
111 1 20.5574 9.50417 23.9561 
112 1 17.1205 7.51239 22.6482 
115 1 16.623 9.52966 23.8226 
118 1 16.8898 8.97955 15.5521 
121 1 16.9052 7.01591 14.1034 
122 1 20.0672 9.4653 15.4218 
125 1 18.5791 10.858 14.278 
ITEM: TIMESTEP
70
ITEM: NUMBER OF ATOMS
129
ITEM: BOX BOUNDS xy xz yz pp pp pp
0.0000000000000000e+00 2.3654499999999999e+01 7.8845000000000001e+00
0.0000000000000000e+00 1.3658086643083999e+01 0.0000000000000000e+00
0.0000000000000000e+00 2.5747000000000000e+01 0.0000000000000000e+00
ITEM: ATOMS id type x y z 
18 1 10.2848 6.85946 2.66601 
28 1 5.10986 4.77177 12.8787 
31 1 9.29052 6.60578 0.411523 
62 1 8.80052 5.34188 12.3711 
91 1 9.30062 6.57546 11.9258 
92 1 10.6961 6.38064 10.9831 
106 1 10.3483 6.92271 9.6902 
127 1 10.5177 6.36076 1.37332 
4 1 4.39815 5.98282 13.3156 
5 1 3.16134 5.65916 14.239 
43 1 4.61259 7.01299 15.4426 
52 1 8.84495 5.34248 25.6412 
66 1 4.43857 5.91845 24.7667 
67 1 5.11154 7.07911 23.9222 
88 1 5.14689 4.70399 25.1683 
107 1 3.17866 5.64782 23.8318 
116 1 4.61254 7.0042 22.6275 
117 1 5.12206 7.09852 14.1561 
11 1 11.3163 7.64399 3.361 
12 1 10.4932 8.80966 4.10377 
14 1 9.0294 11.1357 0.429511 
15 1 10.2593 11.4667 1.36547 
16 1 8.21292 8.81008 0.620402 
19 1 10.4494 8.87252 5.5802 
29 1 10.9533 10.0821 3.30281 
32 1 8.48854 7.59891 1.28143 
35 1 12.0731 9.6647 2.55975 
45 1 9.20575 8.90762 3.27536 
47 1 12.7122 8.83111 0.477707 
49 1 11.405 11.0775 0.677974 
51 1 8.82429 10.114 2.58126 
53 1 11.2581 7.53704 8.72964 
54 1 10.4936 8.84039 8.2507 
56 1 9.00502 11.133 11.9288 