LAMMPS (3 Mar 2020)
# Alpha
clear
units		real
dimension 3
boundary        p p p
atom_style	charge
newton on
read_data       O_2.lmp
  orthogonal box = (0 0 0) to (13.6 13.6 13.6)
  2 by 2 by 2 MPI processor grid
  reading atoms ...
  73 atoms
  read_data CPU = 0.0138987 secs

timestep 0.25

# ---------- Define Interatomic Potential ---------------------
pair_style      reax/c NULL checkqeq no
pair_coeff      * * ffield.reax C O
fix             2 all qeq/reax 1 0.0 10.0 1.0e-6 reax/c

#------------ Equilibration of the system -------------------------
reset_timestep 0

dump 1 all custom 10 min.lammpstrj id type x y z

minimize 1.0e-8 1.0e-8 100000 100000
WARNING: Using 'neigh_modify every 1 delay 0 check yes' setting during minimization (../min.cpp:190)
WARNING: Total cutoff < 2*bond cutoff. May need to use an increased neighbor list skin. (../pair_reaxc.cpp:413)
Neighbor list info ...
  update every 1 steps, delay 0 steps, check yes
  max neighbors/atom: 2000, page size: 100000
  master list distance cutoff = 9.5
  ghost atom cutoff = 9.5
  binsize = 4.75, bins = 3 3 3
  2 neighbor lists, perpetual/occasional/extra = 2 0 0
  (1) pair reax/c, perpetual
      attributes: half, newton off, ghost
      pair build: half/bin/newtoff/ghost
      stencil: half/ghost/bin/3d/newtoff
      bin: standard
  (2) fix qeq/reax, perpetual, copy from (1)
      attributes: half, newton off, ghost
      pair build: copy
      stencil: none
      bin: none
Per MPI rank memory allocation (min/avg/max) = 15.74 | 16.73 | 17.08 Mbytes
Step Temp E_pair E_mol TotEng Press 
       0            0   -13518.306            0   -13518.306    8612.9467 
     296            0   -13592.182            0   -13592.182    2655.4622 
Loop time of 5.79963 on 8 procs for 296 steps with 73 atoms

99.4% CPU use with 8 MPI tasks x no OpenMP threads

Minimization stats:
  Stopping criterion = energy tolerance
  Energy initial, next-to-last, final = 
        -13518.3064619     -13592.1815528     -13592.1815856
  Force two-norm initial, final = 570.264 17.9444
  Force max component initial, final = 296.154 7.63282
  Final line search alpha, max atom move = 1.26722e-05 9.67247e-05
  Iterations, force evaluations = 296 2492

MPI task timing breakdown:
Section |  min time  |  avg time  |  max time  |%varavg| %total
---------------------------------------------------------------
Pair    | 3.8687     | 4.2424     | 4.3906     |  10.1 | 73.15
Neigh   | 0          | 0          | 0          |   0.0 |  0.00
Comm    | 0.046846   | 0.19438    | 0.56697    |  46.8 |  3.35
Output  | 0.0005667  | 0.00071545 | 0.00099414 |   0.0 |  0.01
Modify  | 1.3485     | 1.3491     | 1.3497     |   0.0 | 23.26
Other   |            | 0.01311    |            |       |  0.23

Nlocal:    9.125 ave 13 max 0 min
Histogram: 2 0 0 0 0 0 0 0 0 6
Nghost:    488.875 ave 492 max 484 min
Histogram: 1 0 0 1 0 3 0 0 0 3
Neighs:    825.25 ave 1174 max 0 min
Histogram: 2 0 0 0 0 0 0 0 0 6

Total # of neighbors = 6602
Ave neighs/atom = 90.4384
Neighbor list builds = 0
Dangerous builds = 0

###
min_style cg
minimize 1.0e-8 1.0e-8 100000 100000
WARNING: Using 'neigh_modify every 1 delay 0 check yes' setting during minimization (../min.cpp:190)
WARNING: Total cutoff < 2*bond cutoff. May need to use an increased neighbor list skin. (../pair_reaxc.cpp:413)
Per MPI rank memory allocation (min/avg/max) = 15.74 | 16.73 | 17.08 Mbytes
Step Temp E_pair E_mol TotEng Press 
     296            0   -13592.182            0   -13592.182    2655.4622 
     423            0   -13593.204            0   -13593.204    1712.6582 
Loop time of 2.89243 on 8 procs for 127 steps with 73 atoms

99.4% CPU use with 8 MPI tasks x no OpenMP threads

Minimization stats:
  Stopping criterion = energy tolerance
  Energy initial, next-to-last, final = 
        -13592.1815856     -13593.2039272     -13593.2040511
  Force two-norm initial, final = 17.9444 9.86821
  Force max component initial, final = 7.63282 4.77378
  Final line search alpha, max atom move = 0.000149232 0.0007124
  Iterations, force evaluations = 127 1261

MPI task timing breakdown:
Section |  min time  |  avg time  |  max time  |%varavg| %total
---------------------------------------------------------------
Pair    | 1.9554     | 2.1531     | 2.2313     |   7.2 | 74.44
Neigh   | 0          | 0          | 0          |   0.0 |  0.00
Comm    | 0.021026   | 0.099016   | 0.29639    |  33.3 |  3.42
Output  | 0.00023489 | 0.00028607 | 0.00039153 |   0.0 |  0.01
Modify  | 0.63334    | 0.6337     | 0.63403    |   0.0 | 21.91
Other   |            | 0.006292   |            |       |  0.22

Nlocal:    9.125 ave 13 max 0 min
Histogram: 2 0 0 0 0 0 0 0 0 6
Nghost:    490.375 ave 496 max 484 min
Histogram: 1 0 0 1 1 1 3 0 0 1
Neighs:    825.25 ave 1175 max 0 min
Histogram: 2 0 0 0 0 0 0 0 0 6

Total # of neighbors = 6602
Ave neighs/atom = 90.4384
Neighbor list builds = 0
Dangerous builds = 0

###
fix 1 all box/relax aniso 0.0
min_style cg
minimize 1.0e-8 1.0e-8 100000 100000
WARNING: Using 'neigh_modify every 1 delay 0 check yes' setting during minimization (../min.cpp:190)
WARNING: Total cutoff < 2*bond cutoff. May need to use an increased neighbor list skin. (../pair_reaxc.cpp:413)
Per MPI rank memory allocation (min/avg/max) = 15.74 | 16.73 | 17.08 Mbytes
Step Temp E_pair E_mol TotEng Press Volume 
     423            0   -13593.204            0   -13593.204    1712.6582     2515.456 
     482            0   -13593.347            0   -13593.347     220.5977     2516.536 
Loop time of 0.250988 on 8 procs for 59 steps with 73 atoms

99.4% CPU use with 8 MPI tasks x no OpenMP threads

Minimization stats:
  Stopping criterion = energy tolerance
  Energy initial, next-to-last, final = 
        -13593.2040511     -13593.3469862     -13593.3469864
  Force two-norm initial, final = 115.934 23.4782
  Force max component initial, final = 79.0686 14.6483
  Final line search alpha, max atom move = 1.7316e-05 0.00025365
  Iterations, force evaluations = 59 117

MPI task timing breakdown:
Section |  min time  |  avg time  |  max time  |%varavg| %total
---------------------------------------------------------------
Pair    | 0.18293    | 0.20127    | 0.20818    |   2.2 | 80.19
Neigh   | 0          | 0          | 0          |   0.0 |  0.00
Comm    | 0.0030373  | 0.0099975  | 0.028282   |   9.7 |  3.98
Output  | 0.00011229 | 0.00013618 | 0.0001803  |   0.0 |  0.05
Modify  | 0.037682   | 0.037688   | 0.037697   |   0.0 | 15.02
Other   |            | 0.001894   |            |       |  0.75

Nlocal:    9.125 ave 13 max 0 min
Histogram: 2 0 0 0 0 0 0 0 0 6
Nghost:    490.375 ave 496 max 484 min
Histogram: 1 0 0 1 1 1 3 0 0 1
Neighs:    824.75 ave 1168 max 0 min
Histogram: 2 0 0 0 0 0 0 0 0 6

Total # of neighbors = 6598
Ave neighs/atom = 90.3836
Neighbor list builds = 0
Dangerous builds = 0

unfix 1
###
min_style cg
minimize 1.0e-8 1.0e-8 100000 100000
WARNING: Using 'neigh_modify every 1 delay 0 check yes' setting during minimization (../min.cpp:190)
WARNING: Total cutoff < 2*bond cutoff. May need to use an increased neighbor list skin. (../pair_reaxc.cpp:413)
Per MPI rank memory allocation (min/avg/max) = 15.74 | 16.73 | 17.08 Mbytes
Step Temp E_pair E_mol TotEng Press 
     482            0   -13593.347            0   -13593.347     220.5977 
     484            0   -13593.348            0   -13593.348    308.81009 
Loop time of 0.0603275 on 8 procs for 2 steps with 73 atoms

99.4% CPU use with 8 MPI tasks x no OpenMP threads

Minimization stats:
  Stopping criterion = energy tolerance
  Energy initial, next-to-last, final = 
        -13593.3469864     -13593.3482153     -13593.3483235
  Force two-norm initial, final = 16.8585 8.18425
  Force max component initial, final = 5.82684 4.77276
  Final line search alpha, max atom move = 0.000132952 0.000634546
  Iterations, force evaluations = 2 26

MPI task timing breakdown:
Section |  min time  |  avg time  |  max time  |%varavg| %total
---------------------------------------------------------------
Pair    | 0.041978   | 0.046192   | 0.047775   |   1.0 | 76.57
Neigh   | 0          | 0          | 0          |   0.0 |  0.00
Comm    | 0.00044203 | 0.0020385  | 0.0062402  |   4.9 |  3.38
Output  | 0          | 0          | 0          |   0.0 |  0.00
Modify  | 0.011913   | 0.01192    | 0.011924   |   0.0 | 19.76
Other   |            | 0.0001773  |            |       |  0.29

Nlocal:    9.125 ave 13 max 0 min
Histogram: 2 0 0 0 0 0 0 0 0 6
Nghost:    490.375 ave 496 max 484 min
Histogram: 1 0 0 1 1 1 3 0 0 1
Neighs:    824 ave 1167 max 0 min
Histogram: 2 0 0 0 0 0 0 0 0 6

Total # of neighbors = 6592
Ave neighs/atom = 90.3014
Neighbor list builds = 0
Dangerous builds = 0

###
fix 1 all box/relax aniso 0.0
min_style cg
minimize 1.0e-8 1.0e-8 100000 100000
WARNING: Using 'neigh_modify every 1 delay 0 check yes' setting during minimization (../min.cpp:190)
WARNING: Total cutoff < 2*bond cutoff. May need to use an increased neighbor list skin. (../pair_reaxc.cpp:413)
Per MPI rank memory allocation (min/avg/max) = 15.74 | 16.73 | 17.08 Mbytes
Step Temp E_pair E_mol TotEng Press Volume 
     484            0   -13593.348            0   -13593.348    308.81009     2516.536 
     529            0   -13593.432            0   -13593.432    11.254747    2516.6386 
Loop time of 0.187941 on 8 procs for 45 steps with 73 atoms

99.4% CPU use with 8 MPI tasks x no OpenMP threads

Minimization stats:
  Stopping criterion = energy tolerance
  Energy initial, next-to-last, final = 
        -13593.3483235     -13593.4314662     -13593.4315017
  Force two-norm initial, final = 21.3876 15.6413
  Force max component initial, final = 13.1697 6.04092
  Final line search alpha, max atom move = 1.1363e-05 6.86429e-05
  Iterations, force evaluations = 45 88

MPI task timing breakdown:
Section |  min time  |  avg time  |  max time  |%varavg| %total
---------------------------------------------------------------
Pair    | 0.13758    | 0.1513     | 0.15649    |   1.9 | 80.50
Neigh   | 0          | 0          | 0          |   0.0 |  0.00
Comm    | 0.0013509  | 0.0065831  | 0.020285   |   8.9 |  3.50
Output  | 7.1573e-05 | 8.5048e-05 | 0.00011139 |   0.0 |  0.05
Modify  | 0.028609   | 0.028627   | 0.028637   |   0.0 | 15.23
Other   |            | 0.001346   |            |       |  0.72

Nlocal:    9.125 ave 13 max 0 min
Histogram: 2 0 0 0 0 0 0 0 0 6
Nghost:    490.375 ave 496 max 484 min
Histogram: 1 0 0 1 1 1 3 0 0 1
Neighs:    824 ave 1167 max 0 min
Histogram: 2 0 0 0 0 0 0 0 0 6

Total # of neighbors = 6592
Ave neighs/atom = 90.3014
Neighbor list builds = 0
Dangerous builds = 0

unfix 1
###
min_style cg
minimize 1.0e-8 1.0e-8 100000 100000
WARNING: Using 'neigh_modify every 1 delay 0 check yes' setting during minimization (../min.cpp:190)
WARNING: Total cutoff < 2*bond cutoff. May need to use an increased neighbor list skin. (../pair_reaxc.cpp:413)
Per MPI rank memory allocation (min/avg/max) = 15.74 | 16.73 | 17.08 Mbytes
Step Temp E_pair E_mol TotEng Press 
     529            0   -13593.432            0   -13593.432    11.254747 
     533            0   -13593.433            0   -13593.433   -11.813569 
Loop time of 0.131926 on 8 procs for 4 steps with 73 atoms

99.4% CPU use with 8 MPI tasks x no OpenMP threads

Minimization stats:
  Stopping criterion = energy tolerance
  Energy initial, next-to-last, final = 
        -13593.4315017      -13593.432853     -13593.4329521
  Force two-norm initial, final = 15.4185 8.63737
  Force max component initial, final = 6.04092 4.48374
  Final line search alpha, max atom move = 1.81543e-05 8.13992e-05
  Iterations, force evaluations = 4 59

MPI task timing breakdown:
Section |  min time  |  avg time  |  max time  |%varavg| %total
---------------------------------------------------------------
Pair    | 0.093023   | 0.10238    | 0.10581    |   1.5 | 77.61
Neigh   | 0          | 0          | 0          |   0.0 |  0.00
Comm    | 0.0009589  | 0.0044083  | 0.013739   |   7.4 |  3.34
Output  | 1.8455e-05 | 2.2383e-05 | 3.1549e-05 |   0.0 |  0.02
Modify  | 0.024772   | 0.024784   | 0.024796   |   0.0 | 18.79
Other   |            | 0.0003295  |            |       |  0.25

Nlocal:    9.125 ave 13 max 0 min
Histogram: 2 0 0 0 0 0 0 0 0 6
Nghost:    490.375 ave 496 max 484 min
Histogram: 1 0 0 1 1 1 3 0 0 1
Neighs:    823.75 ave 1166 max 0 min
Histogram: 2 0 0 0 0 0 0 0 0 6

Total # of neighbors = 6590
Ave neighs/atom = 90.274
Neighbor list builds = 0
Dangerous builds = 0

undump 1
#############
#----------- Thermo ------------
reset_timestep 0
thermo  200

thermo_style    custom step temp etotal ke pe press
velocity all create 300 12345 mom yes rot yes
fix 1 all npt temp 300 300 25.0 iso 0.0 0.0 250.0

variable vpe equal pe
variable vtemp equal temp
variable vstep equal step

fix output all print 2500 "${vstep} ${vtemp} ${vpe}" file temp-tpdh-Pt.dat screen no

dump 1 all custom 2500 thermo-tpdh-Pt.lammpstrj id type x y z

run 1000000
WARNING: Total cutoff < 2*bond cutoff. May need to use an increased neighbor list skin. (../pair_reaxc.cpp:413)
Per MPI rank memory allocation (min/avg/max) = 14.61 | 15.6 | 15.96 Mbytes
Step Temp TotEng KinEng PotEng Press 
       0          300   -13529.047    64.385497   -13593.433     1157.686 
     200    163.95548   -13504.899    35.187851   -13540.087      2662.27 
     400    358.10738    -13464.74    76.856405   -13541.596   -24748.251 
     600    314.50373   -13455.543    67.498264   -13523.042    15941.271 
     800    314.38381    -13467.86    67.472527   -13535.332    9184.4186 
    1000    234.32911   -13477.301     50.29132   -13527.593    -9195.286 
    1200     321.1247   -13457.694    68.919244   -13526.613    7737.1883 
    1400    298.02716   -13467.876    63.962089   -13531.838   -9479.3359 
    1600    327.14164    -13471.51     70.21059    -13541.72    16978.092 
    1800     294.5232    -13471.64    63.210075    -13534.85    5717.5547 
    2000    357.18567   -13448.947    76.658589   -13525.606    17305.175 
    2200     256.1999   -13465.207    54.985194   -13520.192    22268.674 
    2400    255.11037    -13471.72     54.75136   -13526.472    1359.5804 
    2600    310.12488    -13476.89    66.558481   -13543.448   -3075.1437 
    2800    305.34963   -13459.375    65.533625   -13524.908    16333.545 
    3000    264.59449   -13473.075    56.786826   -13529.862    11639.302 
    3200    315.48431    -13464.59    67.708713   -13532.298   -46049.159 
    3400    359.66053   -13449.179     77.18974   -13526.369    7124.0052 
    3600    253.74186   -13471.815    54.457652   -13526.272   -29743.717 
    3800    290.22122   -13464.243    62.286792    -13526.53    -5024.289 
    4000     342.2809   -13454.815    73.459752   -13528.275   -6021.5016 
    4200    317.17433   -13463.275    68.071424   -13531.346    26562.083 
    4400    294.59838   -13472.933    63.226209   -13536.159     14201.76 
    4600    322.34803   -13457.797    69.181794   -13526.979   -21810.186 
    4800    310.40019   -13462.462    66.617569   -13529.079   -19936.763 
    5000    282.34429   -13467.184    60.596259    -13527.78   -10492.114 
    5200    318.75672   -13461.163    68.411033   -13529.574   -12453.166 
    5400    357.67763   -13446.058    76.764172   -13522.822   -3715.1518 
    5600    291.71235   -13469.167    62.606815   -13531.773    4759.5757 
    5800    281.52659   -13473.904    60.420765   -13534.325   -17140.383 
    6000    329.19341   -13450.203    70.650938   -13520.854    1990.2514 
    6200     292.2395   -13468.356    62.719951   -13531.076   -14540.175 
    6400    293.58427   -13466.009    63.008564   -13529.017   -1310.9414 
    6600    289.16298   -13452.129    62.059674   -13514.189    13048.835 
    6800    270.18249   -13477.282    57.986113   -13535.269   -6667.4654 
    7000    280.82884   -13469.722    60.271015   -13529.993   -2829.8772 
    7200    347.09032   -13455.313    74.491943   -13529.805    17831.704 
    7400    283.63171   -13473.572    60.872562   -13534.445   -5281.3061 
    7600    325.45143   -13464.545     69.84784   -13534.393   -6771.0103 
    7800    299.21685   -13463.474    64.217418   -13527.692   -7173.3292 
    8000    315.91564   -13465.876    67.801285   -13533.678    -35334.77 
    8200     291.2382   -13467.594    62.505055   -13530.099    2969.5661 
    8400      248.969   -13488.442    53.433309   -13541.876   -12019.876 
    8600    285.80973   -13469.976    61.340005   -13531.316    -6121.903 
    8800    287.85271   -13466.574    61.778466   -13528.352    1279.6236 
    9000    229.73412   -13484.893    49.305152   -13534.198   -7121.7592 
    9200    289.50007   -13466.455    62.132021   -13528.587    1635.9733 
    9400     344.1723   -13465.405    73.865682    -13539.27   -8889.9062 
    9600    246.66174   -13475.382    52.938128    -13528.32   -10671.627 
    9800    304.69088   -13469.046    65.392246   -13534.438    3053.9188 
   10000    299.54381   -13451.379     64.28759   -13515.667     5797.528 
   10200    289.03295   -13476.046    62.031768   -13538.078   -8257.1541 
   10400    288.74391   -13466.094    61.969733   -13528.063   -25975.078 
   10600    371.42194       -13446    79.713954   -13525.714    28687.276 
   10800    311.44562   -13470.812    66.841938   -13537.654    6508.1864 
   11000     273.2924   -13471.212    58.653557   -13529.866    10768.732 
   11200    357.04224   -13456.462    76.627806    -13533.09    12631.862 
   11400    279.47956   -13474.395    59.981435   -13534.376    30684.751 
   11600    278.32303   -13474.391    59.733222   -13534.124    14641.953 
   11800    327.36196   -13458.123    70.257875   -13528.381   -8175.2233 
   12000    326.63981   -13463.569    70.102889   -13533.672   -1121.0163 
   12200    275.40478   -13472.032    59.106912   -13531.139   -5993.1247 
   12400    312.81036   -13475.719    67.134835   -13542.854    4217.2259 
   12600    325.90283   -13459.609    69.944719   -13529.554    20276.532 
   12800    275.16036   -13472.148    59.054456   -13531.202    23909.855 
   13000    286.33115   -13471.235    61.451912   -13532.687   -9558.5438 
   13200    342.64677   -13456.001    73.538276    -13529.54    3657.1641 
   13400     289.7237   -13470.621    62.180014   -13532.801    1739.3101 
   13600    261.68534   -13471.608    56.162469    -13527.77   -21634.212 
   13800     298.6364   -13461.392    64.092843   -13525.485   -4405.8201 
   14000    316.60655   -13465.541    67.949567   -13533.491    1621.8921 
   14200    252.71031   -13488.368    54.236263   -13542.605    6198.1794 
   14400    303.22687   -13472.477    65.078042   -13537.555   -22726.607 
   14600     317.4777   -13462.473    68.136532    -13530.61   -9395.1938 
   14800    379.40639   -13446.045    81.427564   -13527.472    548.95286 
   15000    303.88138   -13463.709    65.218512   -13528.928   -12151.157 
   15200    290.93247   -13472.433    62.439438   -13534.872    4383.9574 
   15400    289.44978   -13471.207    62.121227   -13533.328   -21270.216 
   15600    312.10711   -13457.186    66.983904    -13524.17   -452.78335 
   15800    262.43498   -13474.939    56.323355   -13531.262    14052.229 
   16000    339.46011     -13463.4    72.854359   -13536.254   -6498.5086 
   16200    271.59575   -13459.587    58.289425   -13517.877   -24445.621 
   16400    278.44024   -13473.198    59.758377   -13532.957    10046.355 
   16600    236.59783   -13489.715    50.778229   -13540.493    1855.3557 
   16800    301.68522   -13467.406    64.747176   -13532.154   -17999.448 
   17000    271.00435   -13463.086    58.162498   -13521.248    14046.398 
   17200    286.10436   -13463.192    61.403238   -13524.595   -16401.275 
   17400    290.32547   -13474.791    62.309166   -13537.101   -3078.9056 
   17600    289.05698   -13466.558    62.036924   -13528.595    3256.5039 
   17800    296.03121   -13459.081    63.533721   -13522.614    2058.7223 
   18000     299.8009   -13479.405    64.342766   -13543.747   -17666.419 
   18200    300.68019   -13470.287    64.531479   -13534.818    1942.1338 
   18400    305.27837   -13461.289    65.518331   -13526.808    16888.998 
   18600    253.32717   -13475.215    54.368653   -13529.584     22186.05 
   18800    285.64131   -13461.438    61.303859   -13522.742   -9213.8995 
   19000    349.97881   -13456.382    75.111866   -13531.494    8121.9503 
   19200    277.87413   -13468.478    59.636881   -13528.115     771.9187 
   19400     233.6454   -13474.099    50.144585   -13524.243   -4852.8691 
   19600    300.08544   -13465.349    64.403834   -13529.753    16315.306 
   19800    284.17188   -13463.896    60.988493   -13524.884    130.08171 
   20000    285.03626   -13483.022    61.174005   -13544.196   -10806.629 
   20200    296.86632   -13468.589    63.712953   -13532.302   -8356.9586 
   20400     317.7972   -13456.675    68.205103    -13524.88   -9521.2175 
   20600    289.42078    -13467.89    62.115004   -13530.005   -8317.2924 
   20800    281.08111   -13476.627    60.325157   -13536.952    12695.658 
   21000    297.70898   -13458.685    63.893803   -13522.578   -6213.6586 
   21200    297.89627    -13463.72    63.933997   -13527.654    3871.2052 
   21400    286.93379   -13475.957     61.58125   -13537.538   -648.48446 
   21600    294.02987   -13467.796    63.104197     -13530.9   -16784.347 
   21800    289.04218   -13464.836    62.033749    -13526.87   -10617.236 
   22000    271.29421   -13471.341    58.224708   -13529.566   -7011.1271 
   22200    293.56325   -13466.365    63.004052   -13529.369   -4408.7575 
   22400    343.09093   -13450.802    73.633601   -13524.435   -9309.4506 
   22600     284.5278   -13472.372     61.06488   -13533.437   -15156.882 
   22800    292.10767   -13470.472    62.691659   -13533.164   -17758.316 
   23000    323.44669   -13448.354    69.417587   -13517.772    10913.677 
   23200    269.86805   -13473.711    57.918629    -13531.63    10123.647 
   23400    258.24879   -13465.034    55.424922   -13520.459   -1365.3169 
   23600    341.48356   -13451.232    73.288629   -13524.521   -17064.743 
   23800    254.72515   -13475.469    54.668684   -13530.137    -17212.66 
   24000    322.27891   -13457.092    69.166958   -13526.259    11941.616 
   24200     269.7696   -13465.311    57.897499   -13523.209    15078.548 
   24400    284.85937   -13472.903     61.13604   -13534.039     34507.82 
   24600    311.83894   -13461.237    66.926352   -13528.163   -218.67369 
   24800    398.31505   -13442.905    85.485708   -13528.391   -166.67272 
   25000    306.81928   -13466.934    65.849039   -13532.784   -1236.5113 
   25200    301.07882   -13463.643    64.617031    -13528.26    12191.346 
   25400    312.45947   -13454.648    67.059528   -13521.708    4590.7392 
   25600    278.41334   -13475.675    59.752604   -13535.427    20946.654 
   25800    310.91513   -13464.844    66.728083   -13531.572    13569.689 
   26000    335.38109   -13455.903    71.978928   -13527.882    9169.1215 
   26200    285.95036   -13472.684    61.370186   -13534.054    17810.221 
   26400    310.75934   -13455.173    66.694648   -13521.868   -17252.228 
   26600    326.88972   -13461.078    70.156523   -13531.234    8670.4509 
   26800    296.17648   -13472.888      63.5649   -13536.453   -94.485546 
   27000    317.34145   -13453.924     68.10729   -13522.031   -6680.2688 
   27200    302.78652   -13461.691    64.983535   -13526.675   -1776.8308 
   27400    298.37956   -13477.677     64.03772   -13541.714   -9808.0873 
   27600    252.74502    -13466.46    54.243712   -13520.704    4660.0422 
   27800    317.20975   -13459.738    68.079024   -13527.817    18959.786 
   28000    259.78671   -13476.669    55.754988   -13532.424   -7116.2639 
   28200    318.07834   -13461.338    68.265439   -13529.603   -6003.9517 
   28400    274.81062   -13481.154    58.979394   -13540.133    18710.224 
   28600    302.71475   -13471.361    64.968131   -13536.329    1180.5147 
   28800    278.02578   -13461.349    59.669426   -13521.018   -10252.517 
   29000    322.21388   -13473.021    69.153003   -13542.174    6008.3246 
   29200    252.72988   -13478.927    54.240463   -13533.167   -8973.0981 
   29400      311.406    -13462.83    66.833433   -13529.663    8409.5377 
   29600    260.27878   -13473.813    55.860595   -13529.673   -8450.8745 
   29800    324.83525   -13475.259    69.715596   -13544.974    7413.5328 
   30000     304.4918   -13459.432    65.349519   -13524.782    1867.2888 
   30200    291.49316   -13470.881    62.559773   -13533.441   -4627.0715 
   30400    287.42255   -13475.064    61.686145    -13536.75    5985.2124 
   30600    298.67972   -13463.907     64.10214   -13528.009   -886.31702 
   30800    316.91439   -13463.079    68.015635   -13531.094   -1656.6799 
   31000     272.9702   -13482.796    58.584406   -13541.381    -5594.715 
   31200    290.35908    -13467.26     62.31638   -13529.576    4949.9279 
   31400    288.89717   -13466.704    62.002626   -13528.706    2066.3783 
   31600    278.09581   -13482.211    59.684456   -13541.895    9254.8201 
   31800    278.32898   -13472.608    59.734499   -13532.343    13528.571 
   32000    251.79363   -13465.204    54.039526   -13519.244    12016.698 
   32200    305.41627   -13468.041    65.547927   -13533.589    25082.249 
   32400    268.18206    -13481.55    57.556784   -13539.106    9338.3972 
   32600    355.26755   -13456.581    76.246925   -13532.828    283.32002 
   32800    322.46069   -13467.496    69.205972   -13536.702    -11361.57 
   33000    315.86161   -13470.977    67.789688   -13538.767   -3946.9205 
   33200    279.58153   -13464.344    60.003319   -13524.348    3676.3571 
   33400     276.5652   -13463.697    59.355959   -13523.053   -809.24905 
   33600    269.53548   -13471.754    57.847254   -13529.601   -8758.0928 
   33800    297.65095   -13477.108    63.881348   -13540.989   -6294.4089 
   34000    255.32511   -13457.147    54.797447   -13511.944    -30643.23 
   34200    293.51316   -13471.826    62.993303   -13534.819   -16223.285 
   34400    241.94465   -13476.983    51.925756   -13528.909    7390.1148 
   34600    306.83953   -13458.374    65.853386   -13524.227   -7492.9297 
   34800    269.46903    -13475.77    57.832991   -13533.603   -6590.5813 
   35000    328.19069   -13465.788    70.435735   -13536.224    1635.1439 
   35200     285.0382   -13466.068    61.174421   -13527.242   -2830.7428 
   35400    325.84138   -13472.262    69.931531   -13542.194    5991.7216 
   35600    294.42567   -13474.785    63.189143   -13537.974   -3457.3802 
   35800    274.71039   -13454.405    58.957884   -13513.362   -9882.0236 
   36000     301.5204   -13466.726    64.711804   -13531.437    6774.3183 
   36200    268.42078   -13468.436    57.608018   -13526.044    3835.9002 
   36400    318.23964   -13465.929    68.300058   -13534.229    11401.518 
   36600    318.48511   -13456.305    68.352741   -13524.658    26311.062 
   36800    281.45271   -13472.335     60.40491    -13532.74    2100.1075 
   37000    313.47694   -13465.339    67.277896   -13532.617   -53.283813 
   37200    313.17302    -13444.93    67.212668   -13512.143    5812.4851 
   37400     372.3149   -13448.266    79.905599   -13528.172    1029.4514 
   37600    310.90158   -13464.945    66.725176    -13531.67    21214.454 
   37800    236.66453   -13478.296    50.792544   -13529.088   -3123.8435 
   38000    294.64462   -13456.456    63.236135   -13519.693    22809.539 
   38200    322.85676   -13464.893    69.290976   -13534.184   -10130.012 
   38400    248.93128   -13484.954    53.425213   -13538.379    20763.271 
   38600    256.39895   -13480.361    55.027913   -13535.389    9068.6822 
   38800    306.55073   -13458.688    65.791403   -13524.479   -11239.696 
   39000    315.14973   -13460.667    67.636906   -13528.304   -10986.655 
   39200    287.15521   -13475.672     61.62877     -13537.3   -1452.6524 
   39400    346.86823   -13450.678    74.444278   -13525.123    11898.969 
   39600    299.19631   -13464.319    64.213011   -13528.532   -7172.3526 
   39800    260.22637   -13468.691    55.849347   -13524.541    11024.422 
   40000    288.52329     -13462.1    61.922385   -13524.023   -15873.483 
   40200    354.28376    -13453.24    76.035786   -13529.275    7632.9504 
   40400    316.95978   -13468.846    68.025376   -13536.871   -9794.6581 
   40600    314.90244     -13461.2    67.583835   -13528.784   -21312.318 
   40800    383.92391   -13441.049    82.397106   -13523.446    13694.781 
   41000    261.21239   -13468.932    56.060966   -13524.993    1212.4303 
   41200     284.9367   -13464.162    61.152636   -13525.314    -6571.535 
   41400    333.28833   -13452.166    71.529782   -13523.695    -396.3105 
   41600    297.62037   -13464.482    63.874785   -13528.357    9154.5277 
   41800    329.37777   -13463.403    70.690505   -13534.094    18063.289 
   42000     289.6387   -13479.773    62.161771   -13541.935    15515.317 
   42200    371.36398   -13457.742    79.701515   -13537.443    24099.776 
   42400    333.39689    -13463.75    71.553081   -13535.303    8174.6429 
   42600    263.86952   -13478.065    56.631235   -13534.697    232.09676 
   42800    295.26401   -13463.174    63.369067   -13526.543   -38124.335 
   43000    329.37686   -13454.028     70.69031   -13524.718   -13379.742 
   43200    229.62584   -13477.117    49.281912   -13526.399   -16107.233 
   43400    295.67628   -13469.992    63.457547   -13533.449    16790.386 
   43600    318.57011   -13453.536    68.370983   -13521.907    5078.4196 
   43800    288.67627   -13469.622    61.955218   -13531.578    10123.064 
   44000    305.25412   -13470.842    65.513128   -13536.356    13550.909 
   44200    309.91552   -13453.673    66.513549   -13520.186   -9549.3503 
   44400    261.25682   -13465.621      56.0705   -13521.692    15644.121 
   44600    303.72052   -13466.278     65.18399   -13531.462    9538.0684 
   44800    269.18495   -13483.472    57.772024   -13541.244   -11340.759 
   45000    291.97032   -13472.121     62.66218   -13534.783   -397.17172 
   45200    302.35674   -13457.318    64.891297   -13522.209   -30690.755 
   45400    295.67902   -13471.387    63.458136   -13534.845    14403.785 
   45600    254.26868   -13474.488    54.570717   -13529.058   -24593.202 
   45800    337.24993   -13461.356    72.380016   -13533.736    15315.355 
   46000    258.69599   -13473.177    55.520901   -13528.698      11272.2 
   46200    262.70399   -13486.016     56.38109   -13542.397   -21636.084 
   46400    295.18253   -13465.385     63.35158   -13528.736    22182.194 
   46600    313.53669   -13458.521    67.290719   -13525.812   -6462.6899 
   46800     267.9686   -13479.879    57.510972    -13537.39   -12252.903 
   47000    298.40417   -13471.422    64.043002   -13535.465   -2888.3734 
   47200    319.49974   -13461.448    68.570498   -13530.018   -11033.306 
   47400    324.64323   -13454.922    69.674385   -13524.596   -4219.8295 
   47600    277.03166   -13467.853     59.45607   -13527.309   -16368.715 
   47800    259.12925   -13482.206    55.613885    -13537.82   -10326.391 
   48000    322.58142   -13459.854    69.231883   -13529.086   -21540.093 
   48200    267.97577    -13466.59    57.512511   -13524.102    16228.125 
   48400     252.9187   -13479.201    54.280986   -13533.482   -11969.751 
   48600    314.87373    -13459.94    67.577672   -13527.517    8811.6698 
   48800    305.78442   -13461.955    65.626939   -13527.582    18055.661 
   49000    305.37718    -13480.11    65.539538    -13545.65   -2154.0825 
   49200    303.62074   -13471.271    65.162575   -13536.433   -9353.7135 
   49400    321.73816   -13464.426    69.050904   -13533.477   -10198.596 
   49600    286.27445   -13465.284    61.439742   -13526.724    -10550.74 
   49800    282.16345   -13472.058    60.557447   -13532.616    12623.505 
   50000    315.34329   -13459.301    67.678449    -13526.98    -16918.88 
   50200    264.98174   -13480.111    56.869936   -13536.981    12324.919 
   50400    308.69131   -13467.801    66.250811   -13534.052    540.18565 
   50600    311.34131    -13465.63     66.81955    -13532.45    11026.219 
   50800    359.78576   -13466.142    77.216616   -13543.359   -6836.5716 
   51000    300.42811    -13477.86    64.477377   -13542.337    3888.3355 
   51200    313.01756   -13461.156    67.179303   -13528.336    18192.827 
   51400    319.73631   -13462.382     68.62127   -13531.003   -14415.512 
   51600    255.77523   -13477.516    54.894051    -13532.41   -13879.931 
   51800    291.84179   -13460.265    62.634597     -13522.9   -16255.371 
   52000    294.46319   -13473.807    63.197197   -13537.005   -6926.7171 
   52200    254.40061   -13476.909    54.599033   -13531.508    1794.6456 
   52400    299.37892   -13462.937    64.252201   -13527.189   -16709.195 
   52600    347.10511   -13462.541    74.495116   -13537.036    13843.842 
   52800    249.71641   -13481.412    53.593718   -13535.005    24512.718 
   53000    317.71392   -13461.795     68.18723   -13529.982   -12780.077 
   53200    303.84869   -13462.066    65.211496   -13527.278   -10629.469 
   53400    257.54611    -13483.16    55.274115   -13538.435   -6626.9467 
   53600    329.12789   -13471.714    70.636876   -13542.351   -5634.0996 
   53800    316.71216   -13461.374    67.972234   -13529.346    14780.043 
   54000    294.89019   -13472.049    63.288839   -13535.338    1108.1796 
   54200    285.65175   -13472.983      61.3061   -13534.289   -17541.244 
   54400     315.5922   -13458.123     67.73187   -13525.855   -20882.116 
   54600    264.46697   -13475.421    56.759458   -13532.181   -5197.2208 
   54800    266.80588   -13475.877     57.26143   -13533.138   -13017.444 
   55000    328.12471   -13452.921    70.421576   -13523.343    1487.8968 
   55200    269.52449   -13469.894    57.844895   -13527.739   -13474.181 
   55400     305.3424   -13466.688    65.532075    -13532.22   -2593.1123 
   55600    301.14872   -13462.639    64.632033   -13527.271   -13321.337 
   55800    266.64741   -13479.311    57.227421   -13536.538    18481.864 
   56000    321.58083   -13462.075    69.017138   -13531.092   -15178.458 
   56200    329.10579   -13466.315    70.632133   -13536.947    6498.0482 
   56400    340.66446   -13463.497    73.112836    -13536.61   -303.51014 
   56600    300.18261   -13472.861    64.424688   -13537.286     3203.175 
   56800    299.29027   -13461.242    64.233177   -13525.475    4255.3095 
   57000    255.22711   -13457.919    54.776413   -13512.695   -11441.693 
   57200     296.2765   -13477.082    63.586366   -13540.669    21520.936 
   57400    260.58692   -13474.487    55.926728   -13530.414   -3799.6241 
   57600    314.85033   -13462.293    67.572649   -13529.866   -9604.3097 
   57800    281.82205   -13478.286    60.484175    -13538.77   -6067.6144 
   58000    351.83938   -13460.005    75.511177   -13535.516    7782.5365 
   58200    305.03232   -13464.183    65.465525   -13529.648   -2731.8774 
   58400    310.93098   -13462.089    66.731486    -13528.82   -1549.7294 
   58600    334.01987   -13462.144    71.686785   -13533.831    -1568.951 
   58800    358.68252   -13444.791    76.979842   -13521.771    5572.2538 
   59000    296.22332   -13469.542    63.574952   -13533.117   -11406.541 
   59200    315.26472   -13463.783    67.661586   -13531.444    -9253.682 
   59400    334.23018   -13457.224     71.73192   -13528.956     15402.37 
   59600    249.39546   -13477.597    53.524835   -13531.121   -17016.409 
   59800    334.70208   -13459.885      71.8332   -13531.718    1267.1419 
   60000    248.73808   -13466.132     53.38375   -13519.516    26488.219 
   60200    239.39431   -13485.316    51.378406   -13536.694    20948.875 
   60400    321.61578   -13469.575    69.024639     -13538.6    9745.3154 
   60600    323.03545   -13462.685    69.329327   -13532.014    4602.6807 
   60800    275.82815   -13478.884    59.197775   -13538.081    7418.4646 
   61000    330.75469   -13469.298    70.986018   -13540.284    21382.569 
   61200    321.41336   -13459.542    68.981197   -13528.523    9759.9263 
   61400    267.23605   -13473.081    57.353752   -13530.435   -2628.6785 
   61600    310.92189   -13459.836    66.729535   -13526.565   -13351.082 
   61800    349.50309   -13456.924    75.009767   -13531.934   -9114.1267 
   62000     308.2073   -13475.377    66.146935   -13541.524    5039.0606 
   62200    269.99862   -13462.643    57.946651   -13520.589      842.973 
   62400     351.5291   -13456.599    75.444585   -13532.043    460.50482 
   62600     293.2091   -13464.898    62.928045   -13527.826   -20876.007 
   62800    306.69299   -13464.206    65.821936   -13530.028   -12195.855 
   63000    322.78865    -13474.22    69.276359   -13543.496    2406.0842 
   63200    294.38077    -13461.82    63.179507   -13524.999    5220.8039 
   63400    309.45704   -13447.818    66.415151   -13514.233   -3312.3743 
   63600    330.51118   -13469.587    70.933756   -13540.521   -1981.9222 
   63800    303.16235   -13459.557    65.064195   -13524.621   -11914.536 
   64000     258.1248   -13463.079    55.398312   -13518.478   -19378.644 
   64200    270.30011   -13466.126    58.011357   -13524.138   -9974.3254 
   64400    325.77386   -13460.015    69.917039   -13529.932    1761.2161 
   64600    231.16639    -13477.01    49.612544   -13526.623    5087.6516 
   64800    278.99587   -13470.683    59.877626    -13530.56   -11784.179 
   65000    321.69599   -13461.769    69.041855   -13530.811    -3806.103 
   65200    286.47754    -13464.24    61.483329   -13525.723   -3795.8157 
   65400    257.42016   -13473.751    55.247084   -13528.998   -16202.921 
   65600    315.94825   -13448.358    67.808283   -13516.166   -21385.227 
   65800    367.06265    -13457.23     78.77837   -13536.008   -19068.129 
   66000    284.02517   -13476.245    60.957005   -13537.202    2904.5815 
   66200    316.45094   -13462.318     67.91617   -13530.235   -6914.2402 
   66400    328.21091   -13456.032    70.440076   -13526.472    10342.833 
   66600    266.74294    -13467.41    57.247922   -13524.658   -4319.6668 
   66800    303.05996   -13459.976    65.042221   -13525.018   -7136.7629 
   67000    261.22266   -13478.489    56.063169   -13534.552   -394.83318 
   67200    293.83153   -13478.345    63.061631   -13541.406    554.55624 
   67400     318.5285   -13457.858    68.362052    -13526.22    24796.995 
   67600    284.75547    -13476.66    61.113742   -13537.773    11813.894 
   67800     315.3546   -13470.844    67.680876   -13538.525    28590.445 
   68000    282.26716   -13464.792    60.579704   -13525.372   -1486.7118 
   68200    286.85715   -13461.516    61.564801    -13523.08    3860.4278 
   68400    284.52848   -13478.149    61.065025   -13539.214   -17770.127 
   68600    300.16963   -13473.528    64.421902    -13537.95    16777.928 
   68800    307.54379   -13468.865    66.004533   -13534.869   -20658.778 
   69000    272.01883   -13478.928    58.380225   -13537.308     8717.913 
   69200    280.37749   -13469.694    60.174147   -13529.869    10646.637 
   69400    334.19423   -13451.693    71.724205   -13523.417    42293.625 
   69600    275.51241   -13473.591    59.130012   -13532.721    14920.002 
   69800    321.61638   -13463.039    69.024769   -13532.064    -12335.29 
   70000    298.25383   -13465.437    64.010736   -13529.448   -14459.555 
   70200    299.55641   -13478.897    64.290294   -13543.188    4270.8033 
   70400    311.23308   -13463.721    66.796323   -13530.517    5862.5716 
   70600     314.4266   -13468.459     67.48171   -13535.941    4728.9299 
   70800    261.27753   -13483.672    56.074946   -13539.746    -6492.909 
   71000    319.48042    -13460.57    68.566351   -13529.137    9112.2961 
   71200    286.95201   -13466.827     61.58516   -13528.412   -1729.3164 
   71400    286.31392   -13479.928    61.448213   -13541.376   -1122.3955 
   71600    318.40979   -13470.281    68.336576   -13538.617   -9543.3226 
   71800    336.72175   -13457.533    72.266657     -13529.8   -7778.0161 
   72000    252.74752   -13478.489    54.244249   -13532.734    1050.0604 
   72200    313.28612   -13465.669    67.236942   -13532.906   -2319.5974 
   72400    314.73043   -13463.382    67.546917   -13530.929   -10480.574 
   72600     264.2491   -13476.062    56.712699   -13532.774    7670.5601 
   72800    287.24043   -13477.504    61.647059   -13539.151    11694.989 
   73000    306.14357   -13460.595     65.70402   -13526.299    19762.513 
   73200    269.81646   -13474.871    57.907556   -13532.779    12220.398 
   73400    308.85057   -13468.723    66.284991   -13535.008   -5117.8082 
   73600    331.91764   -13456.715    71.235607   -13527.951    33173.799 
   73800     293.6308   -13463.027    63.018549   -13526.045    -9582.562 
   74000    232.76423   -13473.295    49.955469   -13523.251   -15997.975 
   74200    380.05659   -13458.532    81.567109     -13540.1     3639.972 
   74400    276.77744   -13475.007    59.401509   -13534.409   -35739.688 
   74600    257.23574   -13477.488    55.207504   -13532.695   -7120.3064 
   74800     247.5286   -13467.138    53.124172   -13520.262    32298.911 
   75000      350.083   -13453.153    75.134226   -13528.287   -1536.5932 
   75200    343.02282   -13449.133    73.618983   -13522.752    15927.371 
   75400    284.50473   -13470.184    61.059927   -13531.244    14301.526 
   75600    330.24569    -13469.36    70.876777   -13540.237    3900.2441 
   75800    288.56105   -13459.952    61.930489   -13521.882   -21944.641 
   76000    285.86951   -13470.524    61.352835   -13531.877    8383.9547 
   76200    334.74137   -13458.953    71.841632   -13530.795    15822.715 
   76400     295.7457   -13450.206    63.472447   -13513.678    13852.919 
   76600    264.46833    -13470.37     56.75975    -13527.13     5649.813 
   76800    314.55399   -13457.432     67.50905   -13524.941    3245.6828 
   77000    313.45615   -13476.918    67.273433   -13544.191   -12109.009 
   77200    333.28776   -13474.085    71.529661   -13545.615    5597.7885 
   77400      296.427   -13453.274    63.618665   -13516.892    1750.3676 
   77600    283.99519   -13467.538    60.950572   -13528.488   -19694.299 
   77800    296.78242   -13464.109    63.694945   -13527.804   -4338.6094 
   78000     296.8343   -13459.694    63.706079     -13523.4    32298.527 
   78200    285.29019   -13466.439    61.228503   -13527.668   -9102.8114 
   78400     300.0584   -13480.595     64.39803   -13544.993   -347.65792 
   78600    320.57482   -13459.337    68.801231   -13528.139   -9445.7735 
   78800     302.7714    -13467.62    64.980291     -13532.6    5149.7994 
   79000     275.9224   -13470.842    59.218002    -13530.06   -12984.776 
   79200     342.9647   -13453.615     73.60651   -13527.221    -9130.801 
   79400    264.46087   -13470.894    56.758149   -13527.652   -16100.208 
   79600    254.44691   -13491.986     54.60897   -13546.595   -3839.1738 
   79800    272.78129   -13478.129    58.543863   -13536.672    29782.151 
   80000    298.82374   -13461.902    64.133049   -13526.035    6705.5409 
   80200    276.35593   -13479.044    59.311046   -13538.355   -91.998776 
   80400    283.77368   -13477.404    60.903031   -13538.307   -29556.241 
   80600    333.18512   -13458.711    71.507633   -13530.219    5725.8578 
   80800    243.23952   -13470.806    52.203659    -13523.01   -7470.3626 
   81000    265.10341   -13479.643    56.896049   -13536.539   -2500.0809 
   81200    309.85824   -13466.145    66.501256   -13532.646   -7888.4044 
   81400    291.95782   -13463.456    62.659498   -13526.116    14297.332 
   81600    275.22391   -13478.335    59.068095   -13537.403    6249.5174 
   81800    311.71592   -13457.736    66.899948   -13524.636    5858.4675 
   82000    314.54685   -13461.199    67.507517   -13528.706    8671.0015 
   82200     278.6744   -13471.121    59.808633    -13530.93    13806.526 
   82400    313.87503   -13465.988    67.363333   -13533.351    12047.972 
   82600    306.29759   -13469.715    65.737076   -13535.452   -7358.1523 
   82800     266.4741   -13485.326    57.190225   -13542.517    3812.7582 
   83000    281.15804    -13469.66    60.341668   -13530.001    4958.3512 
   83200    320.00894   -13455.571    68.679782   -13524.251   -6211.0495 
   83400    322.32335   -13460.305    69.176497   -13529.481   -8457.1658 
   83600    276.76671   -13478.888    59.399207   -13538.287    7675.4075 
   83800    323.52691   -13460.094    69.434804   -13529.529    5482.9939 
   84000    288.35994   -13467.816    61.887326   -13529.703   -14909.325 
   84200    271.34245   -13468.554    58.235062   -13526.789    3698.5402 
   84400    343.76773    -13460.29    73.778853   -13534.069   -7541.0362 
   84600    285.41346     -13480.1    61.254958   -13541.355   -4267.3159 
   84800    297.95452    -13461.76      63.9465   -13525.706   -4316.1685 
   85000    310.79482   -13465.368    66.702264    -13532.07   -2226.8489 
   85200    246.04566   -13485.412    52.805908   -13538.218   -8411.9933 
   85400    306.93198     -13470.3    65.873227   -13536.173   -4062.9165 
   85600    298.93459   -13463.725    64.156841   -13527.882   -5073.8838 
   85800    252.46238   -13482.195    54.183053   -13536.378    6529.2104 
   86000    321.67066   -13464.346    69.036418   -13533.382    9292.7839 
   86200     305.7749   -13455.951    65.624897   -13521.576    4535.3576 
   86400    316.73363   -13471.475    67.976841   -13539.452   -3933.7012 
   86600    252.26412   -13478.616    54.140503   -13532.757    5512.6518 
   86800    294.88207   -13467.672    63.287095   -13530.959   -295.73472 
   87000    298.62477   -13466.214    64.090347   -13530.305   -5101.2863 
   87200    282.72509   -13468.982    60.677986    -13529.66   -4516.8684 
   87400     330.2724   -13456.607    70.882509    -13527.49     1859.329 
   87600     282.1598   -13461.729    60.556662   -13522.285    7941.7773 
   87800    263.40804   -13472.628    56.532191    -13529.16   -9386.3797 
   88000     289.6915   -13470.168    62.173104   -13532.341    936.87848 
   88200    261.52092   -13484.869    56.127182   -13540.997   -11564.841 
   88400      254.895   -13476.009    54.705138   -13530.714    -2119.451 
   88600    328.79505   -13458.377    70.565442   -13528.943   -14875.004 
   88800    295.12147    -13470.01    63.338474   -13533.349     9904.413 
   89000    300.67736   -13473.906    64.530872   -13538.437     14440.62 
   89200    320.22666   -13462.971    68.726509   -13531.697    7556.0437 
   89400    309.27155   -13465.049    66.375342   -13531.424   -3129.3559 
   89600    293.88766   -13479.691    63.073678   -13542.765    18428.534 
   89800    289.76335   -13462.306    62.188524   -13524.495    -5914.525 
   90000     289.0209   -13462.378    62.029182   -13524.408   -4610.0611 
   90200    288.71874   -13466.857    61.964332   -13528.821    1319.8273 
   90400    305.31538   -13465.594    65.526274   -13531.121   -10532.634 
   90600    304.17914   -13463.971    65.282418   -13529.253     34882.48 
   90800    284.76461   -13469.683    61.115704   -13530.799   -45.414705 
   91000    340.41127    -13473.12    73.058496   -13546.179   -2675.3658 
   91200    322.08175   -13450.503    69.124645   -13519.627   -10342.018 
   91400    305.98647   -13465.375    65.670303   -13531.045    -5557.255 
   91600     257.6976    -13474.47    55.306626   -13529.776    7261.4799 
   91800    320.84369   -13450.317    68.858934   -13519.176    2136.3929 
   92000    281.59198   -13469.389    60.434799   -13529.824    8107.1858 
   92200    303.21177   -13469.461    65.074802   -13534.536   -4782.1511 
   92400    363.98734   -13444.429    78.118353   -13522.547   -55.418079 
   92600    310.88927   -13465.448    66.722533   -13532.171   -3426.1598 
   92800    305.62117   -13468.095    65.591902   -13533.687    502.42976 
   93000    319.18713   -13465.565    68.503408   -13534.068    9789.5873 
   93200    318.61893   -13450.078    68.381462    -13518.46     21164.43 
   93400    267.32508   -13474.679     57.37286   -13532.052   -3064.0651 
   93600    299.76985   -13470.853    64.336102   -13535.189   -15160.222 
   93800      280.168   -13461.274    60.129186   -13521.403   -8774.3438 
   94000    345.19514   -13458.702    74.085202   -13532.788    -510.7054 
   94200    254.94357   -13472.099    54.715563   -13526.814      6.06132 
   94400    292.88789   -13461.051    62.859109    -13523.91    7910.6811 
   94600    345.31684   -13441.066     74.11132   -13515.177    25987.893 
   94800    290.14503   -13469.942     62.27044   -13532.212    2690.0208 
   95000    295.02328   -13471.401    63.317402   -13534.719   -3239.2712 
   95200    299.81393   -13458.008    64.345563   -13522.353   -1648.5173 
   95400    258.89781    -13476.93    55.564214   -13532.494   -3503.0412 
   95600    315.80719   -13464.099    67.778009   -13531.877     6218.208 
   95800    331.86783   -13457.167    71.224917   -13528.392   -3618.5068 
   96000    291.94112   -13466.137    62.655914   -13528.793    9409.9871 
   96200    293.56832   -13474.274     63.00514   -13537.279     34125.68 
   96400    335.95004   -13456.415    72.101034   -13528.516    8697.7675 
   96600    286.21473   -13467.994    61.426925   -13529.421   -127.94637 
   96800    287.15672   -13478.986    61.629093   -13540.615   -578.10071 
   97000    295.46924   -13467.221    63.413113   -13530.634    4746.7695 
   97200     290.9334   -13463.443    62.439638   -13525.882    1904.0781 
   97400    268.67269   -13483.226    57.662082   -13540.888   -23841.139 
   97600    354.32858   -13461.116    76.045407   -13537.161   -10991.511 
   97800    237.21407   -13472.485    50.910485   -13523.395    4463.5783 
   98000    313.54352   -13460.287    67.292185   -13527.579    9308.0278 
   98200    316.66774   -13451.692      67.9627   -13519.655    14835.846 
   98400    291.49919   -13476.165    62.561067   -13538.726    5499.1746 
   98600    317.79137   -13465.491    68.203851   -13533.695    9541.5688 
   98800    329.85526    -13462.22    70.792982   -13533.013   -14452.774 
   99000    252.38221   -13482.142    54.165847   -13536.308    17984.489 
   99200    274.78827   -13487.148    58.974599   -13546.123   -2839.7073 
   99400    290.04199   -13462.078    62.248325   -13524.326    21997.268 
   99600    341.57854   -13465.776    73.309014   -13539.085   -4200.7656 
   99800    293.09142   -13473.492    62.902789   -13536.395    -7966.636 
  100000    322.26508   -13464.876    69.163992    -13534.04    -251.9414 
  100200    274.38428   -13466.015    58.887893   -13524.903   -13158.181 
  100400    383.25797   -13447.529    82.254182   -13529.783    18945.864 
  100600    324.12221   -13466.993    69.562566   -13536.555   -11191.352 
  100800    318.53867     -13471.1    68.364235   -13539.464     15307.55 
  101000    267.23514   -13485.687    57.353558    -13543.04   -8124.9016 
  101200    314.04792   -13466.601    67.400438   -13534.001    2784.1062 
  101400    281.92929   -13462.119    60.507191   -13522.626    12325.533 
  101600    343.44472   -13449.236    73.709531   -13522.946    19646.895 
  101800    270.61851   -13467.688    58.079692   -13525.768   -7651.1024 
  102000    265.04593   -13475.029    56.883713   -13531.913    28442.414 
  102200    316.39889   -13455.619    67.904999   -13523.524    20348.483 
  102400    254.12854   -13473.501     54.54064   -13528.041    27230.504 
  102600    313.78908   -13471.395    67.344887    -13538.74   -4707.6647 
  102800    296.18785   -13456.451    63.567341   -13520.018   -5823.8784 
  103000    293.89972   -13469.673    63.076265   -13532.749    12619.617 
  103200    270.71991   -13482.719    58.101453   -13540.821   -3610.5079 
  103400    306.57735   -13462.457    65.797116   -13528.254   -11785.852 
  103600    321.46205   -13456.217    68.991645   -13525.209   -9983.0091 
  103800    277.60421    -13477.82    59.578949   -13537.399    12238.257 
  104000    309.86603   -13463.013    66.502929   -13529.516   -16213.305 
  104200    312.55228   -13458.926    67.079447   -13526.006   -3312.4844 
  104400    253.13069   -13475.343    54.326484    -13529.67   -17346.568 
  104600    289.47901   -13461.964      62.1275   -13524.091     29322.87 
  104800    288.43183   -13462.319    61.902756   -13524.222   -1346.2237 
  105000    315.06549   -13466.001    67.618827    -13533.62    1401.8678 
  105200    266.46796   -13472.724    57.188907   -13529.913    9790.9761 
  105400    384.33498   -13452.524    82.485329   -13535.009   -13750.586 
  105600    252.99925   -13470.446    54.298276   -13524.745    6995.5169 
  105800     309.8646     -13465.4    66.502621   -13531.902    5241.6013 
  106000    337.61303   -13446.049    72.457943   -13518.507   -2671.1784 
  106200    310.87143   -13466.843    66.718706   -13533.562    7816.1472 
  106400    274.30009   -13473.716    58.869826   -13532.586   -8716.1263 
  106600    339.14052   -13451.319    72.785769   -13524.105    13268.707 
  106800    292.04003   -13461.811    62.677143   -13524.488    2764.5811 
  107000    311.25797   -13467.427    66.801664   -13534.228    12612.714 
  107200     301.5959   -13461.156    64.728007   -13525.884   -22707.325 
  107400    323.97531   -13462.691    69.531039   -13532.222   -22792.955 
  107600    290.89109   -13477.125    62.430559   -13539.556    1255.9297 
  107800    348.75648   -13456.573    74.849532   -13531.423    6289.3701 
  108000    312.44996   -13468.007    67.057487   -13535.065    -8750.294 
  108200    287.96281   -13469.302    61.802096   -13531.104   -7983.7065 
  108400     291.9054   -13467.132    62.648247    -13529.78     6129.361 
  108600    328.38677   -13461.674    70.477817   -13532.152    -20243.33 
  108800    248.99412   -13481.175    53.438701   -13534.613   -11478.976 
  109000    284.74777   -13464.124     61.11209   -13525.236    -8848.559 
  109200    311.18319   -13461.745    66.785615   -13528.531    -9274.382 
  109400    287.47224    -13475.64     61.69681   -13537.337   -439.20527 
  109600    325.61265   -13457.564     69.88244   -13527.446    5206.9913 
  109800     302.0107   -13462.097     64.81703   -13526.914   -12803.544 
  110000    256.73869   -13477.103    55.100828   -13532.204   -12419.454 
  110200    288.70682   -13466.213    61.961773   -13528.175   -7181.4343 
  110400    285.71446   -13459.492    61.319558   -13520.811   -21407.396 
  110600      338.099   -13466.701     72.56224   -13539.263   -16887.852 
  110800     292.3978   -13466.753    62.753925   -13529.507    3373.0861 
  111000    252.67102    -13462.94    54.227832   -13517.167    28747.434 
  111200    274.13076   -13467.024    58.833484   -13525.857    8150.0469 
  111400    286.29562   -13475.166    61.444286    -13536.61   -3550.6297 
  111600     316.7656   -13456.605    67.983702   -13524.589   -7193.3096 
  111800    270.13781   -13469.812    57.976524   -13527.789   -7474.5656 
  112000    291.08187   -13471.817    62.471504   -13534.289    -9031.765 
  112200     324.5831   -13467.207     69.66148   -13536.869   -535.37053 
  112400    339.54159   -13447.985    72.871846   -13520.857   -6587.7467 
  112600    299.66842   -13469.233    64.314334   -13533.547   -14238.701 
  112800    282.05589   -13466.572    60.534362   -13527.106   -5094.1369 
  113000     311.2663   -13454.477    66.803452   -13521.281    23.744656 
  113200    268.90204   -13478.362    57.711306   -13536.073   -10965.638 
  113400    284.65173   -13470.665    61.091476   -13531.756   -8432.2114 
  113600    346.34416   -13456.053    74.331803   -13530.385    10303.028 
  113800    279.53084    -13469.16     59.99244   -13529.152    -18397.32 
  114000    324.47351   -13460.124     69.63796   -13529.762    1241.3866 
  114200    315.74008   -13471.417    67.763606    -13539.18   -6699.4389 
  114400    297.08517   -13468.234     63.75992   -13531.994    -10105.22 
  114600    294.77933   -13462.023    63.265045   -13525.288      6863.78 
  114800    277.18142   -13480.656    59.488212   -13540.145   -18099.806 
  115000     298.2577   -13466.179    64.011569   -13530.191    9663.8341 
  115200    339.39714   -13459.723    72.840844   -13532.563    22449.176 
  115400    294.77045   -13467.709     63.26314   -13530.972    5020.9719 
  115600    374.55134   -13451.399     80.38558   -13531.784   -5930.9124 
  115800    307.35758    -13464.65    65.964568   -13530.615    10676.712 
  116000    303.99319   -13468.505    65.242508   -13533.747    15515.205 
  116200    248.47693   -13479.756    53.327701   -13533.084    27510.983 
  116400    285.66213   -13468.228    61.308327   -13529.537    13782.796 
  116600    300.30494   -13461.342    64.450942   -13525.793   -5694.3493 
  116800    236.91109   -13478.782    50.845462   -13529.628    33389.108 
  117000    268.04625   -13469.156    57.527637   -13526.684   -2233.9445 
  117200     358.0705   -13461.652     76.84849     -13538.5   -20528.517 
  117400    262.54043   -13476.655    56.345987   -13533.001    11525.739 
  117600    289.44996   -13467.107    62.121265   -13529.228    19777.013 
  117800    316.53074   -13466.332    67.933297   -13534.265    18119.691 
  118000    290.80453   -13461.556    62.411981   -13523.968    -2861.188 
  118200    271.67565   -13476.739    58.306572   -13535.046    9135.9502 
  118400    331.30477   -13458.841    71.104073   -13529.945   -3116.9252 
  118600    318.50288   -13460.933    68.356554   -13529.289   -3203.2439 
  118800    275.06274   -13484.138    59.033504   -13543.171   -18501.829 
  119000    268.42341   -13476.209    57.608583   -13533.818     -23304.9 
  119200    324.55471   -13465.273    69.655387   -13534.929   -17813.272 
  119400    252.65099   -13476.075    54.223531   -13530.298   -17073.852 
  119600    281.81751   -13475.374    60.483201   -13535.857   -2074.8621 
  119800    333.07775   -13458.614    71.484588   -13530.099     23390.19 
  120000    296.70134   -13465.505    63.677543   -13529.183    8929.8917 
  120200    268.32707   -13479.746    57.587906   -13537.334   -7909.9657 
  120400     332.8753   -13463.813    71.441139   -13535.254   -810.63116 
  120600    292.18416   -13471.136    62.708075   -13533.844     1545.749 
  120800    234.75588   -13475.595    50.382913   -13525.978   -934.33443 
  121000     323.0322   -13458.239    69.328629   -13527.568    8631.5239 
  121200    306.54922   -13460.973     65.79108   -13526.764    19088.957 
  121400    300.06344   -13469.949    64.399113   -13534.348    8028.0172 
  121600    279.24618   -13463.995    59.931347   -13523.926    15666.641 
  121800    346.06392   -13453.079    74.271659   -13527.351   -13497.675 
  122000    295.47062   -13474.788    63.413409   -13538.202   -14852.197 
  122200    319.65789   -13460.347     68.60444   -13528.952    2073.7469 
  122400     304.0168   -13452.812    65.247575   -13518.059   -1871.8859 
  122600    283.65602   -13471.055     60.87778   -13531.933    9911.0567 
  122800    291.51934    -13473.11    62.565392   -13535.675   -15113.984 
  123000    323.02915   -13456.777    69.327975   -13526.105    13750.807 
  123200    290.56174   -13473.864    62.359874   -13536.224   -2558.6216 
  123400    341.19727   -13462.115    73.227185   -13535.342     3679.345 
  123600    295.54527   -13441.956     63.42943   -13505.386    16881.279 
  123800    305.54244   -13462.064    65.575007   -13527.639    25671.842 
  124000    287.10687   -13471.032    61.618396    -13532.65    3785.9638 
  124200    324.18609   -13452.388    69.576275   -13521.964   -6509.5871 
  124400    264.82311   -13470.661    56.835893   -13527.497   -8403.2446 
  124600    295.11079   -13468.134    63.336183    -13531.47   -20365.154 
  124800    268.51575   -13481.881      57.6284   -13539.509   -14894.934 
  125000    340.09925   -13468.679    72.991531   -13541.671   -393.41849 
  125200    255.93935   -13466.618    54.929274   -13521.548   -8427.7249 
  125400     342.4795   -13445.448    73.502375   -13518.951   -20907.352 
  125600    296.29786    -13461.69     63.59095    -13525.28   -17018.358 
  125800    335.36691   -13465.642    71.975884   -13537.618   -14975.487 
  126000    298.73039   -13484.397    64.113015    -13548.51   -12828.767 
  126200    313.19052   -13464.497    67.216424   -13531.714    3164.1246 
  126400    248.40211   -13470.883    53.311644   -13524.195   -16569.614 
  126600    357.03884   -13453.932    76.627078   -13530.559   -13435.965 
  126800    311.40212   -13466.487    66.832602    -13533.32   -5229.9655 
  127000    300.76603    -13468.57    64.549902   -13533.119    8392.6965 
  127200    268.84299   -13464.268    57.698631   -13521.967    25832.511 
  127400    280.80227   -13478.339    60.265312   -13538.604    9789.3065 
  127600    290.94499    -13468.41    62.442127   -13530.852   -2780.8689 
  127800    321.28756   -13462.644    68.954197   -13531.598    12020.845 
  128000    293.27355   -13478.175    62.941878   -13541.117    6927.7628 
  128200    348.75268   -13454.832    74.848716   -13529.681   -8066.6268 
  128400    291.28722   -13463.012    62.515574   -13525.528   -9027.9704 
  128600    287.21853   -13471.392     61.64236   -13533.034    17662.991 
  128800    328.47682   -13460.913    70.497145    -13531.41    8570.2678 
  129000    300.96499   -13474.076    64.592602   -13538.669    5429.5885 
  129200    284.04526   -13473.777    60.961319   -13534.738    5291.8268 
  129400    319.04918   -13446.938    68.473801   -13515.412    -14622.37 
  129600      359.587   -13454.815    77.173959   -13531.989    7376.2243 
  129800    291.29858   -13473.379    62.518013   -13535.897    20468.869 
  130000    291.56818   -13467.529    62.575875   -13530.105    8737.7826 
  130200    395.58189   -13444.963    84.899122   -13529.862    738.78536 
  130400    314.59578   -13466.509    67.518019   -13534.027   -389.69394 
  130600     284.1693   -13472.582    60.987938    -13533.57   -12760.046 
  130800    314.51549   -13450.489    67.500788    -13517.99     5710.746 
  131000    292.97735   -13467.012    62.878308    -13529.89    2700.2203 
  131200    277.84378    -13467.35    59.630366   -13526.981    -7393.771 
  131400    400.85799   -13449.925    86.031471   -13535.957   -9799.7033 
  131600    301.32945   -13464.003    64.670821   -13528.674   -16445.967 
  131800    270.30875   -13474.227     58.01321    -13532.24    28169.477 
  132000    265.47761   -13465.126     56.97636   -13522.103    24839.619 
  132200    313.99616   -13456.761     67.38933   -13524.151    15586.087 
  132400    270.85608   -13469.903    58.130678   -13528.034   -8137.8533 
  132600    301.68891   -13465.833    64.747968   -13530.581    7608.6075 
  132800    243.77213   -13486.319    52.317965   -13538.637   -26598.106 
  133000    280.53354   -13466.139    60.207638   -13526.346     9965.453 
  133200    301.40802   -13458.543    64.687684   -13523.231   -9647.6449 
  133400     275.6434   -13480.358    59.158124   -13539.516    28036.456 
  133600    311.53841     -13464.9    66.861852   -13531.762   -22684.377 
  133800    315.19896   -13459.018    67.647472   -13526.666   -6099.5181 
  134000    265.41446   -13478.905    56.962806   -13535.868     12801.33 
  134200    321.48258   -13469.127    68.996053   -13538.123   -7166.0643 
  134400    288.13539   -13464.055    61.839135   -13525.894   -9840.5119 
  134600    294.83154   -13474.056    63.276251   -13537.332    5578.3736 
  134800    293.39041   -13481.784    62.966959   -13544.751   -5627.6409 
  135000    295.88747   -13464.557    63.502873    -13528.06   -10862.578 
  135200    322.16707   -13459.454    69.142956   -13528.597    1729.7443 
  135400    293.07834   -13473.628    62.899983   -13536.528   -2157.2559 
  135600    301.09978   -13469.651     64.62153   -13534.272   -14695.311 
  135800    303.41548   -13462.463    65.118521   -13527.582   -2223.5514 
  136000    303.50982   -13468.176    65.138768   -13533.315    69.280734 
  136200    305.88253   -13465.741    65.647996   -13531.389   -15883.944 
  136400    346.62611   -13449.603    74.392315   -13523.995    5350.0476 
  136600    279.19496   -13470.115    59.920355   -13530.035   -10975.246 
  136800    279.63581   -13469.487    60.014969   -13529.502    5083.8536 
  137000    344.23297   -13450.627    73.878704   -13524.505    606.63734 
  137200      335.967   -13457.336    72.104673   -13529.441    2987.0581 
  137400    268.17349   -13475.791    57.554945   -13533.345    5748.2674 
  137600    325.62339   -13458.799    69.884745   -13528.684    27692.616 
  137800    306.30522   -13457.799    65.738713   -13523.537   -9609.9808 
  138000    251.70013   -13468.293    54.019461   -13522.313   -10396.136 
  138200    333.10608   -13454.341    71.490667   -13525.832    690.80531 
  138400    280.73461   -13459.191    60.250792   -13519.442    4639.4301 
  138600    284.30905   -13470.189    61.017932   -13531.207   -2240.8933 
  138800     339.7615   -13469.952    72.919044   -13542.871   -23566.186 
  139000    344.75155   -13463.331    73.990001   -13537.321    3772.8346 
  139200    294.31618   -13473.351    63.165645   -13536.517    1765.7647 
  139400    340.42085   -13455.689    73.060553    -13528.75    4644.6711 
  139600    285.12058   -13466.656      61.1921   -13527.848    3806.7346 
  139800     292.7265   -13473.376    62.824471   -13536.201   -5668.1224 
  140000     273.3701    -13468.76    58.670233    -13527.43    8567.9054 
  140200    340.00077   -13460.371    72.970396   -13533.341    13064.143 
  140400    246.26034   -13475.266    52.851982   -13528.118   -17100.648 
  140600    311.74416   -13455.893     66.90601   -13522.799    10541.763 
  140800    283.33935   -13466.569    60.809817   -13527.379    18260.354 
  141000    277.36657   -13481.486    59.527948   -13541.014   -21740.715 
  141200    240.69629    -13477.57    51.657835   -13529.227    5176.4177 
  141400    323.90015   -13463.491    69.514906   -13533.005   -3456.4392 
  141600    312.46667   -13465.607    67.061072   -13532.668   -559.07298 
  141800    302.18457   -13475.512    64.854346   -13540.366    8238.7989 
  142000     319.2171   -13452.052    68.509839   -13520.562   -3292.9187 
  142200    271.54618   -13458.759    58.278786   -13517.038    21151.363 
  142400    273.23306   -13475.079    58.640821    -13533.72    3277.9446 
  142600    340.74338   -13461.147    73.129773   -13534.277    7151.9063 
  142800    257.39916   -13473.842    55.242576   -13529.084   -20128.987 
  143000    324.42884   -13447.378    69.628373   -13517.006   -36490.514 
  143200    315.41155   -13461.546    67.693099   -13529.239    728.93805 
  143400    343.29296   -13464.968    73.676961   -13538.645    10086.924 
  143600     307.4808   -13479.123    65.991013   -13545.114    11825.914 
  143800    297.85677   -13459.861    63.925521   -13523.787     -775.995 
  144000     323.1028   -13460.824    69.343781   -13530.167   -18222.487 
  144200    279.25555   -13478.264    59.933358   -13538.198   -2128.8523 
  144400    323.71106   -13465.127    69.474325   -13534.601   -3508.7387 
  144600    314.35735   -13457.715    67.466848   -13525.182   -9671.4653 
  144800    248.31309   -13481.746    53.292539   -13535.038   -767.07332 
  145000    330.27824   -13466.761    70.883762   -13537.645     348.3031 
  145200    296.34996   -13459.539    63.602132   -13523.141     16634.28 
  145400    344.64764   -13448.017    73.967699   -13521.984   -2299.0188 
  145600    310.42507   -13468.063    66.622909   -13534.686   -1317.0157 
  145800    287.40066   -13476.273    61.681449   -13537.955    1587.8276 
  146000    308.76944   -13456.104     66.26758   -13522.372   -11027.405 
  146200    306.55245    -13461.88    65.791773   -13527.671   -10941.574 
  146400    289.15981     -13472.5    62.058994   -13534.559   -19643.979 
  146600     281.7048   -13479.431    60.459013    -13539.89    4587.1134 
  146800    304.50605   -13458.953    65.352578   -13524.306    8148.5828 
  147000    275.52187   -13473.236    59.132042   -13532.368    3566.1757 
  147200     274.3229   -13471.667    58.874721   -13530.542     16622.66 
  147400    347.84452   -13458.891    74.653807   -13533.545    931.54986 
  147600    297.98513   -13463.529    63.953069   -13527.482    16505.104 
  147800    268.99382   -13467.297    57.731003   -13525.028     23983.48 
  148000    361.46777    -13456.77    77.577607   -13534.348   -12611.541 
  148200    293.11107     -13473.6    62.907006   -13536.507    1123.2503 
  148400    325.07671   -13464.184    69.767418   -13533.952    22498.753 
  148600    263.32311   -13484.883    56.513964   -13541.397   -19941.475 
  148800    262.31055   -13480.591     56.29665   -13536.888   -17127.788 
  149000    304.29631   -13464.897    65.307565   -13530.204   -28924.743 
  149200    318.28727   -13458.929     68.31028    -13527.24   -8093.3153 
  149400    287.57743   -13475.956    61.719387   -13537.675    24458.056 
  149600    306.83726   -13472.154    65.852899   -13538.007   -8698.4029 
  149800    275.15768   -13459.272    59.053879   -13518.326   -7332.9186 
  150000    280.25082   -13477.004    60.146962   -13537.151   -7637.9598 
  150200    304.02618   -13473.016     65.24959   -13538.265   -7309.8118 
  150400    296.85081   -13470.046    63.709624   -13533.755    10144.108 
  150600    251.55673    -13477.76    53.988683   -13531.749   -608.43591 
  150800    316.60443   -13457.736    67.949112   -13525.685   -8765.3625 
  151000    310.09126   -13469.118    66.551267   -13535.669   -11680.258 
  151200    298.42334   -13475.541    64.047117   -13539.589    26765.983 
  151400    298.66339   -13469.264    64.098637   -13533.363    15224.549 
  151600    273.77901   -13465.993    58.757992   -13524.751    7305.6991 
  151800    264.67235   -13484.701    56.803537   -13541.505   -2929.1708 
  152000    255.10717   -13473.318    54.750673   -13528.069   -3601.2622 
  152200     316.2883   -13457.072    67.881265   -13524.953    -9093.796 
  152400    307.62462   -13464.847    66.021881   -13530.869    6018.5013 
  152600    303.10141   -13471.752    65.051116   -13536.803    5671.9329 
  152800    332.46174   -13458.104    71.352381   -13529.456   -3331.3867 
  153000    272.95169   -13473.659    58.580434   -13532.239    15962.002 
  153200    328.93932   -13463.731    70.596405   -13534.328   -3075.5963 
  153400    306.17626   -13462.048    65.711036   -13527.759   -9474.6666 
  153600    280.84035   -13480.924    60.273485   -13541.197   -8929.5132 
  153800    288.30699   -13479.606    61.875963   -13541.482    2064.1524 
  154000    315.23255   -13464.107    67.654681   -13531.762    9793.0001 
  154200    298.13534   -13472.155    63.985308    -13536.14   -11294.769 
  154400    282.94193   -13475.766    60.724524    -13536.49   -2000.5291 
  154600    281.83223   -13463.071     60.48636   -13523.558   -12538.375 
  154800    319.89374   -13453.748    68.655058   -13522.403    5144.8094 
  155000    298.02257   -13479.709    63.961103    -13543.67    3512.8317 
  155200    307.11532   -13465.304    65.912575   -13531.216   -2895.4324 
  155400    322.03911   -13462.452    69.115493   -13531.568    19672.837 
  155600    231.37587   -13476.462    49.657501    -13526.12   -1856.9805 
  155800    265.67988   -13484.613     57.01977   -13541.632    -9334.647 
  156000    275.10641   -13464.021    59.042876   -13523.063    9141.5606 
  156200    348.68304   -13456.146    74.833769    -13530.98    6651.7342 
  156400    286.01054   -13475.912    61.383102   -13537.295    5919.8282 
  156600    290.45409   -13464.165     62.33677   -13526.501    7658.8083 
  156800    324.39175   -13443.235    69.620414   -13512.855    8013.2822 
  157000    285.08501   -13465.358    61.184468   -13526.542    10441.625 
  157200    351.74649   -13465.384    75.491241   -13540.875   -5219.8004 
  157400    327.69209   -13461.397    70.328727   -13531.725    7802.0293 
  157600    269.28294   -13477.785    57.793054   -13535.578    7421.0838 
  157800    297.78127   -13459.192    63.909318   -13523.101    17.105778 
  158000     312.9096   -13462.059    67.156134   -13529.215     11.46905 
  158200    284.64458   -13472.323    61.089943   -13533.413   -12584.054 
  158400    251.46604   -13472.567     53.96922   -13526.536   -8682.4367 
  158600    351.22671   -13456.783    75.379689   -13532.163    5643.6017 
  158800    269.34018    -13476.37    57.805338   -13534.175    19762.372 
  159000    310.73503   -13471.125    66.689431   -13537.815    12997.888 
  159200    277.67883   -13462.403    59.594966   -13521.998   -10105.941 
  159400    341.23206   -13461.898    73.234653   -13535.132     5529.801 
  159600    283.25673   -13467.769    60.792085   -13528.561   -16722.109 
  159800    335.11787   -13460.009    71.922435   -13531.931   -10700.748 
  160000    301.44632   -13459.363    64.695903   -13524.059   -1541.5239 
  160200     291.3921   -13476.311    62.538084   -13538.849   -15781.991 
  160400    347.50392   -13460.741    74.580709   -13535.322    8118.7596 
  160600    287.85135   -13457.004    61.778175   -13518.782    18429.417 
  160800    278.34247   -13473.979    59.737393   -13533.716    3695.8702 
  161000    298.35118    -13468.88     64.03163   -13532.911   -15666.809 
  161200     325.1561   -13463.329    69.784457   -13533.114   -15347.997 
  161400    298.26286   -13467.134    64.012675   -13531.147   -3829.3464 
  161600    304.12499   -13472.067    65.270796   -13537.337    5402.8136 
  161800    345.71259   -13451.564    74.196256    -13525.76   -14064.962 
  162000    281.72211   -13467.542    60.462728   -13528.004    9003.5633 
  162200    296.51287   -13470.521    63.637094   -13534.158   -32189.581 
  162400    331.48318   -13462.941    71.142363   -13534.084    3661.2183 
  162600    289.10174   -13483.334    62.046532   -13545.381   -18590.783 
  162800    281.42406   -13469.889    60.398761   -13530.288    -23441.92 
  163000    346.16801   -13462.254    74.293998   -13536.548    1127.1522 
  163200     308.1395   -13462.765    66.132383   -13528.897    6634.3655 
  163400    305.09011   -13464.839    65.477927   -13530.317   -14423.728 
  163600    258.88792   -13482.147    55.562092   -13537.709    10943.405 
  163800    304.10147   -13461.041    65.265749   -13526.306   -15380.793 
  164000    290.84237   -13466.444    62.420101   -13528.864    9086.5515 
  164200    280.25828    -13478.37    60.148562   -13538.518   -13672.683 
  164400    299.25031   -13456.067      64.2246   -13520.291    39085.913 
  164600    295.43063   -13465.246    63.404827   -13528.651    -5124.903 
  164800    298.56714   -13477.446     64.07798   -13541.524   -8686.5922 
  165000    286.77866   -13469.011    61.547956   -13530.559   -5506.7489 
  165200    285.69198   -13460.733    61.314733   -13522.048    27753.296 
  165400    335.29939   -13448.564    71.961393   -13520.525   -24185.092 
  165600    258.95949   -13471.934    55.577452   -13527.511    28166.383 
  165800    343.18425   -13465.573    73.653628   -13539.226    13822.478 
  166000    333.59962   -13440.903    71.596591     -13512.5    12624.994 
  166200    360.37139   -13456.183    77.342303   -13533.525   -10105.527 
  166400    265.23225   -13471.102    56.923702   -13528.026    -905.8703 
  166600      304.784   -13467.415    65.412232   -13532.828   -6908.8292 
  166800     367.0375   -13451.638    78.772972   -13530.411    20666.125 
  167000     280.4011   -13473.585    60.179215   -13533.764    22256.381 
  167200    326.49007   -13463.894    70.070752   -13533.965    19836.301 
  167400    349.61326   -13449.082    75.033411   -13524.115   -4317.8349 
  167600    312.25038   -13457.863    67.014653   -13524.878    5954.6534 
  167800    258.67458    -13471.23    55.516306   -13526.746   -11722.932 
  168000    320.90722   -13457.045     68.87257   -13525.917    301.93079 
  168200    283.71575   -13471.646    60.890599   -13532.537   -563.30837 
  168400    282.33416   -13472.399    60.594084   -13532.993    12671.784 
  168600    336.26731    -13455.78    72.169127   -13527.949    15766.638 
  168800    310.51012   -13466.247     66.64116   -13532.888   -19977.637 
  169000    304.43982   -13479.048    65.338364   -13544.386   -15831.483 
  169200    293.96356   -13461.644    63.089965   -13524.734   -4890.4775 
  169400    318.17229   -13462.108    68.285603   -13530.394    29414.136 
  169600    240.55729   -13481.782    51.628002    -13533.41    12201.865 
  169800    291.98564   -13465.632    62.665469   -13528.297   -2475.7795 
  170000    283.03662   -13459.435    60.744844    -13520.18    12387.271 
  170200    263.10422   -13475.538    56.466988   -13532.005    8315.6367 
  170400    270.28712   -13480.592    58.008568     -13538.6    17523.028 
  170600    296.73949   -13463.695    63.685732    -13527.38   -19283.999 
  170800    302.14912   -13460.976    64.846738   -13525.823   -15408.425 
  171000    291.46526   -13475.421    62.553785   -13537.975    2828.5289 
  171200    324.39186   -13461.808    69.620437   -13531.429   -9151.0835 
  171400    336.39143   -13452.479    72.195766   -13524.675   -7673.1483 
  171600    321.74234   -13472.682    69.051801   -13541.734    16039.384 
  171800    314.34538   -13461.939    67.464278   -13529.403    21937.289 
  172000    340.82992   -13452.774    73.148347   -13525.922   -10493.199 
  172200    252.90378   -13478.198    54.277785   -13532.475    3638.7643 
  172400    343.34627   -13460.229    73.688401   -13533.918   -6410.6258 
  172600    303.63584    -13466.26    65.165815   -13531.425   -10804.925 
  172800    301.89321   -13475.486    64.791814   -13540.278   -11229.793 
  173000    348.08434   -13451.448    74.705278   -13526.153    13143.859 
  173200      258.795   -13472.561    55.542148   -13528.103    19646.803 
  173400     310.9467   -13460.151    66.734859   -13526.886    2896.2606 
  173600    323.24788    -13453.79    69.374919   -13523.164    10216.727 
  173800    315.40735   -13463.581    67.692196   -13531.273    9438.5373 
  174000    339.07111   -13465.856    72.770874   -13538.627   -5853.9769 
  174200    274.09223   -13483.011    58.825215   -13541.836    598.97759 
  174400     262.4679   -13483.347     56.33042   -13539.678    14269.711 
  174600    313.85012   -13462.403    67.357986   -13529.761   -12402.442 
  174800    346.21005   -13450.957    74.303021    -13525.26    24264.249 
  175000    273.81711   -13474.293    58.766168   -13533.059    18241.832 
  175200    313.18445   -13465.229    67.215121   -13532.444    21675.809 
  175400    306.41431   -13460.918    65.762125   -13526.681   -20742.995 
  175600    264.62629   -13469.969    56.793651   -13526.762    3922.7042 
  175800    290.57925   -13462.809    62.363632   -13525.173   -21362.714 
  176000    354.91798   -13454.078    76.171902    -13530.25     6.545218 
  176200    265.35735   -13477.683    56.950549   -13534.634   -7629.1217 
  176400    336.84341   -13462.009    72.292767   -13534.302    8576.4496 
  176600    326.95238   -13462.135    70.169973   -13532.305   -7011.8252 
  176800    307.18076   -13468.304     65.92662    -13534.23     19287.58 
  177000    255.95529   -13482.988    54.932696   -13537.921   -7742.4915 
  177200    330.03671   -13458.392    70.831925   -13529.224   -7620.0337 
  177400    300.51357   -13469.273     64.49572   -13533.769    16503.615 
  177600     327.6664   -13463.879    70.323213   -13534.202    9447.8943 
  177800    334.25238   -13454.295    71.736685   -13526.032   -9994.3344 
  178000    279.51959   -13473.132    59.990025   -13533.122   -877.00369 
[...]
  950000      322.589   -13449.044    69.233511   -13518.278     9238.815 
  950200    295.43746   -13468.424    63.406291    -13531.83    6500.7176 
  950400    276.52547    -13469.82    59.347433   -13529.168    871.92235 
  950600     325.2016   -13448.208    69.794222   -13518.003   -10293.533 
  950800    348.64536   -13465.227    74.825682   -13540.053   -2332.3019 
  951000    286.32392   -13469.375    61.450359   -13530.825    8210.8906 
  951200    324.62857   -13461.722     69.67124   -13531.393    -417.6764 
  951400     284.5235   -13470.027    61.063956   -13531.091    -11658.07 
  951600    298.81023   -13479.571     64.13015   -13543.701   -9967.6101 
  951800    309.29941   -13457.667    66.381321   -13524.049   -3372.1195 
  952000    261.24152    -13470.05    56.067218   -13526.117    3431.9483 
  952200    309.09935   -13467.301    66.338385    -13533.64    -12016.84 
  952400    363.98449   -13444.164     78.11774   -13522.281   -6527.7198 
  952600    279.19617   -13468.328    59.920615   -13528.249    4531.0058 
  952800    287.77399   -13471.678    61.761572   -13533.439    14060.397 
  953000    329.71682   -13455.854    70.763271   -13526.617    7165.6476 
  953200    317.13669   -13464.779    68.063345   -13532.842   -13928.084 
  953400    323.18618   -13473.854    69.361676   -13543.216   -16974.843 
  953600    313.29549    -13454.68    67.238953   -13521.919   -20942.821 
  953800    284.85667   -13451.742    61.135461   -13512.877   -12595.553 
  954000     304.7096   -13467.778    65.396263   -13533.174    16308.252 
  954200    299.81059   -13468.997    64.344846   -13533.342     -2443.25 
  954400    369.32513   -13449.144    79.263941   -13528.408   -13849.742 
  954600    299.55672   -13467.022     64.29036   -13531.312   -4286.9186 
  954800    299.43448   -13468.957    64.264127   -13533.221    18681.982 
  955000    289.84592   -13451.151    62.206245   -13513.357   -6234.3732 
  955200    295.27047   -13463.387    63.370453   -13526.757   -2885.3507 
  955400    272.06295   -13474.403    58.389695   -13532.793   -21632.257 
  955600    255.56612   -13495.941    54.849171   -13550.791   -11218.497 
  955800    289.32018   -13478.717    62.093413   -13540.811   -3040.9452 
  956000    304.63793   -13460.074    65.380881   -13525.455     3940.599 
  956200    326.36366   -13466.469    70.043621   -13536.513    6239.2464 
  956400    293.59826   -13479.708    63.011566    -13542.72    5825.8948 
  956600    278.66054   -13457.267    59.805657   -13517.072    13364.916 
  956800    319.87595    -13470.64    68.651239   -13539.291    453.38966 
  957000     263.0483   -13464.932    56.454986   -13521.387    9382.8769 
  957200    310.02552   -13456.842    66.537158    -13523.38    -3094.156 
  957400    273.42117    -13471.84    58.681193   -13530.521   -27038.341 
  957600    328.45818   -13453.941    70.493143   -13524.434   -13421.465 
  957800    327.36858   -13456.709    70.259296   -13526.968    2978.3691 
  958000    338.13756    -13466.59    72.570517    -13539.16    -5282.123 
  958200    259.89253   -13479.727    55.777699   -13535.505    2721.7924 
  958400    251.35904   -13463.132    53.946255   -13517.078     28104.05 
  958600    307.65671   -13467.153    66.028768   -13533.182    20301.251 
  958800    275.87259   -13475.183    59.207313    -13534.39   -14840.538 
  959000    354.61524   -13453.563    76.106928    -13529.67   -951.82954 
  959200    250.74407   -13472.637    53.814271   -13526.452   -5395.4204 
  959400    315.04542   -13466.463     67.61452   -13534.077    17226.149 
  959600    323.08075   -13458.838    69.339049   -13528.177    3914.0264 
  959800    259.88813   -13474.104    55.776755   -13529.881    22316.599 
  960000    303.88672    -13464.69    65.219658   -13529.909   -3654.0088 
  960200    290.02258   -13463.896     62.24416    -13526.14   -8438.3288 
  960400     279.1515   -13486.599    59.911028    -13546.51    6613.8748 
  960600    281.26396   -13474.483      60.3644   -13534.848    19508.497 
  960800    336.59994   -13455.613    72.240515   -13527.854    6766.1557 
  961000    333.76558   -13465.075     71.63221   -13536.708   -8311.9526 
  961200    266.28491    -13476.94    57.149621   -13534.089   -272.24997 
  961400    327.49858   -13461.907    70.287197   -13532.194    4481.5098 
  961600    276.22277    -13471.14    59.282468   -13530.422    12469.323 
  961800      270.255    -13477.83    58.001676   -13535.832    3208.2065 
  962000    326.73363   -13461.086    70.123023   -13531.209    1428.4694 
  962200    287.38029   -13474.992    61.677076   -13536.669     6893.161 
  962400    308.05329   -13475.962     66.11388   -13542.076   -1391.5093 
  962600    297.67442   -13464.683    63.886384    -13528.57    14280.218 
  962800    323.77589    -13465.89    69.488238   -13535.378    2455.7851 
  963000    265.16266   -13479.004    56.908765   -13535.912    5463.1904 
  963200    297.02319     -13460.5     63.74662   -13524.247   -9031.0768 
  963400     285.9806    -13471.52    61.376677   -13532.897   -1798.4265 
  963600    307.05245   -13469.708    65.899081   -13535.607     9655.965 
  963800    329.64669   -13458.322     70.74822    -13529.07   -14777.126 
  964000    260.91011   -13471.488     55.99609   -13527.484   -20036.939 
  964200    384.14447   -13448.614    82.444442   -13531.058   -17667.071 
  964400    278.33883   -13473.239    59.736613   -13532.976    2402.5088 
  964600    310.75939    -13462.64    66.694659   -13529.335   -5245.3961 
  964800     259.7963   -13469.373    55.757046    -13525.13    3709.6661 
  965000    307.05613   -13470.947    65.899871   -13536.847    10666.751 
  965200     324.9888    -13467.13    69.748551   -13536.879   -31524.513 
  965400    284.95929   -13467.667    61.157486   -13528.824   -21365.061 
  965600     349.9834   -13451.127     75.11285    -13526.24    2818.9763 
  965800    336.86792   -13471.082    72.298028    -13543.38   -4604.1478 
  966000    280.45505   -13466.032    60.190792   -13526.222    5638.3823 
  966200     288.0925    -13462.37    61.829929     -13524.2    19468.285 
  966400    301.14727    -13466.67    64.631721   -13531.302    24865.754 
  966600    300.05129   -13462.164    64.396506   -13526.561     35796.71 
  966800    244.68117    -13484.67    52.513062   -13537.183     224.2793 
  967000    284.50725   -13468.852     61.06047   -13529.913   -10620.068 
  967200    338.27422   -13462.564    72.599847   -13535.163   -5420.9558 
  967400     269.7181   -13479.774    57.886446    -13537.66   -5346.4824 
  967600    290.01894   -13463.956     62.24338   -13526.199   -9372.4692 
  967800    341.41914   -13462.586    73.274803    -13535.86    7591.1126 
  968000    288.19187   -13479.899    61.851255    -13541.75    12526.882 
  968200    281.41127   -13471.463    60.396014   -13531.859    11568.561 
  968400    277.26194   -13458.786    59.505492   -13518.292    6184.5839 
  968600    309.22217   -13475.061    66.364743   -13541.425    3440.8022 
  968800    330.73173    -13476.29     70.98109   -13547.271    5858.1622 
  969000    330.19224   -13461.085    70.865306    -13531.95   -16788.202 
  969200    284.43997   -13471.476     61.04603   -13532.522   -12466.171 
  969400    272.03951    -13482.26    58.384663   -13540.645    7120.6398 
  969600    285.09114   -13461.318    61.185782   -13522.504     10709.55 
  969800    319.34045   -13468.606    68.536312   -13537.142   -12062.924 
  970000     282.5064   -13468.659     60.63105    -13529.29    15275.712 
  970200    310.15288   -13458.615    66.564491   -13525.179   -17126.928 
  970400    303.22622   -13472.798    65.077904   -13537.876   -11954.404 
  970600    303.05254   -13463.129    65.040627    -13528.17    6240.5442 
  970800    327.39425   -13461.468    70.264805   -13531.733    28569.237 
  971000    286.95733   -13471.201      61.5863   -13532.787    16063.188 
  971200    370.84733   -13448.276    79.590633   -13527.866    27436.162 
  971400    275.58877   -13469.398      59.1464   -13528.544   -3507.7433 
  971600     300.3507    -13464.17    64.460764   -13528.631   -22127.858 
  971800    279.05936   -13472.175    59.891251   -13532.066   -13701.244 
  972000    266.93414   -13479.578    57.288957   -13536.867   -3911.0292 
  972200    321.05429   -13464.302    68.904133   -13533.206   -3715.0302 
  972400     289.2386   -13465.661    62.075904   -13527.736    7912.1003 
  972600    322.46001   -13448.749    69.205828   -13517.955    -693.2315 
  972800    323.24896   -13466.387    69.375149   -13535.762   -14962.093 
  973000    272.40404   -13470.478    58.462899    -13528.94   -19933.121 
  973200    330.21723   -13449.975    70.870668   -13520.845    11073.998 
  973400    285.59659   -13467.916    61.294262   -13529.211    12267.912 
  973600    313.66613   -13467.372    67.318498   -13534.691    10.378851 
  973800    304.89284   -13467.447    65.435591   -13532.883    5441.9433 
  974000    359.73038   -13456.239    77.204731   -13533.444   -15850.584 
  974200    295.64338   -13476.781    63.450486   -13540.231   -522.99128 
  974400    280.90413   -13468.837    60.287173   -13529.124    10516.132 
  974600    308.67457   -13462.927    66.247219   -13529.175   -9569.6692 
  974800    287.87703   -13474.583    61.783686   -13536.366   -6438.4406 
  975000    300.20132   -13473.488    64.428703   -13537.916    9284.4528 
  975200     329.8218   -13459.265    70.785803   -13530.051    20128.626 
  975400    260.13651   -13476.916    55.830062   -13532.746   -12377.515 
  975600    236.81858    -13490.19    50.825607   -13541.015    5797.1168 
  975800    293.92911   -13465.034    63.082572   -13528.117    14264.097 
  976000     344.9073   -13458.805    74.023427   -13532.829    25640.224 
  976200    273.86982   -13478.538    58.777481   -13537.316    16930.996 
  976400    311.09596   -13463.822    66.766893   -13530.588   -12582.215 
  976600    282.80094   -13462.556    60.694264    -13523.25   -8354.8271 
  976800    292.94276   -13476.098    62.870884   -13538.969    -6809.902 
  977000    299.01129   -13457.611    64.173303   -13521.784    29028.041 
  977200    309.99623   -13462.978    66.530871   -13529.509    5089.8813 
  977400    293.92644    -13471.79    63.081999   -13534.872    335.06157 
  977600    288.02779   -13459.819    61.816041   -13521.635   -18956.361 
  977800    331.02647   -13446.432    71.044346   -13517.476   -6777.5226 
  978000    286.66162   -13469.749    61.522837   -13531.272   -10734.007 
  978200    313.99838    -13468.02    67.389805    -13535.41    7762.7481 
  978400    286.58541   -13449.582    61.506481   -13511.089   -11228.716 
  978600     326.7338   -13463.207    70.123061    -13533.33   -6095.0267 
  978800    301.79655   -13469.563     64.77107   -13534.334    -3395.533 
  979000    318.42623   -13462.937    68.340104   -13531.277   -4598.1322 
  979200    364.72638   -13455.826    78.276965   -13534.103   -19817.145 
  979400    241.41704   -13476.093     51.81252   -13527.906    2444.5792 
  979600    313.93595   -13459.246    67.376408   -13526.622    7233.1412 
  979800    312.11838   -13461.101    66.986324   -13528.088   -16116.719 
  980000    326.53753   -13468.214    70.080936   -13538.295     8978.275 
  980200    227.45061   -13486.389    48.815068   -13535.205    6849.2425 
  980400    301.57546   -13471.434    64.723619   -13536.158   -1296.2424 
  980600     320.6353   -13460.802    68.814211   -13529.616     15831.03 
  980800     325.7672   -13451.346    69.915611   -13521.262    19305.704 
  981000     279.6808   -13467.381    60.024625   -13527.406   -29610.198 
  981200    268.78446   -13472.958    57.686071   -13530.644   -35769.789 
  981400    324.87908   -13451.268    69.725003   -13520.993   -8068.2983 
  981600    334.13622   -13468.632    71.711755   -13540.343     787.2619 
  981800    292.90173   -13470.893    62.862079   -13533.755    10100.146 
  982000    267.15186   -13461.892    57.335684   -13519.228    13006.638 
  982200    347.90044   -13441.829    74.665809   -13516.495    18108.509 
  982400     313.2044   -13464.665    67.219404   -13531.884   -2680.4456 
  982600    296.43122    -13472.01    63.619572    -13535.63    4818.3136 
  982800    293.02341   -13471.697    62.888194   -13534.585    1745.6302 
  983000     321.9882   -13459.049    69.104567   -13528.154    22571.459 
  983200    343.75385   -13446.917    73.775875   -13520.693    4099.7451 
  983400    297.43774   -13469.779     63.83559   -13533.615     8289.569 
  983600     278.7219   -13473.292    59.818826   -13533.111   -6045.8294 
  983800    347.40309   -13450.371    74.559068    -13524.93   -3686.1211 
  984000     338.3948   -13462.669    72.625724   -13535.295   -19868.984 
  984200    301.05741   -13464.614    64.612437   -13529.226   -16335.926 
  984400    315.93707   -13459.183    67.805885   -13526.989   -4806.2417 
  984600    286.59895   -13473.815    61.509386   -13535.325    3801.0099 
  984800     306.4193   -13465.877    65.763197    -13531.64    3442.1668 
  985000    324.62178   -13460.345    69.669783   -13530.015    26198.441 
  985200    300.55794   -13470.207    64.505242   -13534.712   -6020.4992 
  985400    288.14064   -13453.626     61.84026   -13515.466    9829.6533 
  985600    346.50514   -13450.509    74.366351   -13524.875   -16764.361 
  985800    289.40423   -13468.269    62.111451    -13530.38    8511.9023 
  986000    274.85465   -13479.572    58.988845   -13538.561   -4414.9342 
  986200    350.11049   -13462.192    75.140126   -13537.332    10521.513 
  986400    299.12708   -13458.075    64.198153   -13522.273   -1356.1516 
  986600    297.31048   -13479.995    63.808278   -13543.803    679.05628 
  986800    321.58836   -13470.059    69.018755   -13539.078   -13759.974 
  987000    286.04539   -13462.693    61.390582   -13524.083   -1810.9662 
  987200    254.06302   -13472.718    54.526579   -13527.245   -3712.4937 
  987400    291.30474   -13476.246    62.519335   -13538.765   -3326.2835 
  987600    295.44942   -13460.582    63.408859   -13523.991    1384.9846 
  987800    308.72463   -13463.988    66.257962   -13530.246   -17124.161 
  988000    218.90134    -13479.82    46.980238   -13526.801    -842.9451 
  988200    324.84016   -13471.911     69.71665   -13541.628     6594.729 
  988400    316.67599   -13463.432     67.96447   -13531.396   -16835.025 
  988600    242.93627    -13476.15    52.138575   -13528.288   -712.65588 
  988800    252.60182   -13481.207    54.212979    -13535.42   -1140.5295 
  989000    331.22666   -13464.549    71.087309   -13535.637    2435.5126 
  989200    305.39235   -13469.358    65.542794   -13534.901    7030.3248 
  989400    241.49795   -13484.303    51.829886   -13536.133   -1570.5888 
  989600    329.98913   -13461.947    70.821715   -13532.769   -2467.9196 
  989800    302.55222   -13469.372     64.93325   -13534.305   -19178.769 
  990000    270.92781   -13481.367    58.146072   -13539.513   -14006.615 
  990200     309.5329   -13461.006    66.431433   -13527.437    9194.7903 
  990400    268.48492   -13466.787    57.621783   -13524.409     10146.52 
  990600    297.68261   -13479.406    63.888142   -13543.294    -1839.015 
  990800    285.34652   -13457.412    61.240592   -13518.653   -7423.3456 
  991000    322.11357   -13461.958    69.131474   -13531.089    19149.962 
  991200    290.00559   -13476.553    62.240513   -13538.794   -14547.497 
  991400    311.12048   -13461.863    66.772156   -13528.636   -8097.4923 
  991600    315.05418   -13460.842      67.6164   -13528.458    1006.5761 
  991800    268.11067   -13483.886    57.541463   -13541.428   -708.93559 
  992000    274.16902   -13475.545    58.841696   -13534.387   -658.50712 
  992200    322.04381   -13462.663    69.116502   -13531.779    6899.1076 
  992400     303.5068   -13464.483     65.13812   -13529.621   -5554.3204 
  992600    304.49381   -13473.319    65.349951   -13538.669    23049.829 
  992800    289.02785   -13452.385    62.030672   -13514.416   -2453.1793 
  993000    327.80257   -13466.767    70.352438   -13537.119   -8600.7229 
  993200    262.09455   -13467.374    56.250294   -13523.624    6333.1568 
  993400    317.56663   -13449.524    68.155617   -13517.679    6933.7882 
  993600    319.33604   -13452.043    68.535366   -13520.578   -5134.3276 
  993800    279.00826   -13471.121    59.880284   -13531.001    11242.593 
  994000    279.36776   -13474.169     59.95744   -13534.126   -32038.209 
  994200    306.61416   -13457.668    65.805018   -13523.473   -9998.1144 
  994400    297.89136   -13471.254    63.932945   -13535.187    3951.7232 
  994600    295.91501   -13464.048    63.508784   -13527.557    11987.574 
  994800    324.84844   -13445.849    69.718427   -13515.568   -26886.779 
  995000    266.52463   -13467.779    57.201069    -13524.98    6467.3478 
  995200    316.34242   -13472.102     67.89288   -13539.995     3585.625 
  995400    281.59171   -13472.373    60.434741   -13532.808   -16001.006 
  995600    295.57405   -13455.261    63.435608   -13518.696   -7030.0522 
  995800    298.55029   -13472.446    64.074363   -13536.521   -26943.931 
  996000    291.28854   -13472.132    62.515857   -13534.648   -9406.5085 
  996200    288.18832   -13462.515    61.850494   -13524.365    1111.7165 
  996400    356.04997   -13438.097    76.414848   -13514.512   -9871.9908 
  996600    256.29021   -13466.316    55.004576   -13521.321    -412.6446 
  996800    229.03796   -13483.609    49.155743   -13532.765   -20874.402 
  997000    302.66503   -13463.351    64.957462   -13528.308    2143.3487 
  997200    330.86889   -13462.368    71.010525   -13533.379    10248.131 
  997400    327.59651   -13465.906    70.308213   -13536.214    20473.271 
  997600    270.67936   -13477.661     58.09275   -13535.754   -1479.7177 
  997800    361.13131   -13455.918    77.505396   -13533.423   -12434.274 
  998000    295.43336   -13467.216    63.405412   -13530.622    -20315.11 
  998200    309.45227   -13471.434    66.414128   -13537.848   -4535.9313 
  998400    280.16168   -13470.255     60.12783   -13530.383    6142.1122 
  998600    289.90687   -13455.631    62.219327   -13517.851    3866.3724 
  998800    298.30228   -13462.046    64.021136   -13526.067   -16349.818 
  999000    261.33451   -13477.423    56.087175    -13533.51    7145.4285 
  999200    333.70586   -13454.247    71.619391   -13525.866    1493.4393 
  999400    316.50283    -13462.55    67.927306   -13530.477    9536.9524 
  999600    265.95311   -13469.623    57.078411   -13526.702   -746.45673 
  999800    348.22771   -13449.257    74.736048   -13523.993   -4820.7426 
 1000000    293.99918   -13469.496    63.097612   -13532.593   -11542.222 
Loop time of 2247.01 on 8 procs for 1000000 steps with 73 atoms

Performance: 9.613 ns/day, 2.497 hours/ns, 445.035 timesteps/s
99.4% CPU use with 8 MPI tasks x no OpenMP threads

MPI task timing breakdown:
Section |  min time  |  avg time  |  max time  |%varavg| %total
---------------------------------------------------------------
Pair    | 1663.3     | 1790.8     | 1855.8     | 168.4 | 79.70
Neigh   | 0.24509    | 0.25192    | 0.26438    |   1.1 |  0.01
Comm    | 34.014     | 98.774     | 225.84     | 713.6 |  4.40
Output  | 0.071937   | 0.077996   | 0.11352    |   4.8 |  0.00
Modify  | 354.96     | 355.51     | 355.97     |   2.2 | 15.82
Other   |            | 1.634      |            |       |  0.07

Nlocal:    9.125 ave 19 max 0 min
Histogram: 2 0 0 1 1 0 2 1 0 1
Nghost:    500.875 ave 510 max 483 min
Histogram: 1 0 0 0 0 2 1 1 1 2
Neighs:    834.125 ave 1670 max 0 min
Histogram: 2 0 0 0 1 1 2 1 0 1

Total # of neighbors = 6673
Ave neighs/atom = 91.411
Neighbor list builds = 456
Dangerous builds = 0

unfix 1
unfix output
undump 1

Please see the log.cite file for references relevant to this simulation

Total wall time: 0:37:36
