LAMMPS (3 Mar 2020)
Reading data file ...
  orthogonal box = (0 0 0) to (11 11.002 11)
  2 by 2 by 2 MPI processor grid
  reading atoms ...
  51 atoms
  read_data CPU = 0.0368884 secs
WARNING: Using 'neigh_modify every 1 delay 0 check yes' setting during minimization (../min.cpp:190)
WARNING: Total cutoff < 2*bond cutoff. May need to use an increased neighbor list skin. (../pair_reaxc.cpp:413)
Neighbor list info ...
  update every 1 steps, delay 0 steps, check yes
  max neighbors/atom: 2000, page size: 100000
  master list distance cutoff = 9.5
  ghost atom cutoff = 9.5
  binsize = 4.75, bins = 3 3 3
  2 neighbor lists, perpetual/occasional/extra = 2 0 0
  (1) pair reax/c, perpetual
      attributes: half, newton off, ghost
      pair build: half/bin/newtoff/ghost
      stencil: half/ghost/bin/3d/newtoff
      bin: standard
  (2) fix qeq/reax, perpetual, copy from (1)
      attributes: half, newton off, ghost
      pair build: copy
      stencil: none
      bin: none
Setting up cg style minimization ...
  Unit style    : real
  Current step  : 0
Per MPI rank memory allocation (min/avg/max) = 19.1 | 19.22 | 19.52 Mbytes
Step Temp E_pair E_mol TotEng Press 
       0            0   -8786.6205            0   -8786.6205    5590.3685 
      46            0   -8835.1186            0   -8835.1186    4107.5421 
Loop time of 0.754485 on 8 procs for 46 steps with 51 atoms

99.4% CPU use with 8 MPI tasks x no OpenMP threads

Minimization stats:
  Stopping criterion = energy tolerance
  Energy initial, next-to-last, final = 
        -8786.62050552     -8835.11860708     -8835.11860977
  Force two-norm initial, final = 443.717 338.004
  Force max component initial, final = 225.203 122.029
  Final line search alpha, max atom move = 5.66007e-05 0.00690691
  Iterations, force evaluations = 46 265

MPI task timing breakdown:
Section |  min time  |  avg time  |  max time  |%varavg| %total
---------------------------------------------------------------
Pair    | 0.55833    | 0.56779    | 0.57522    |   0.7 | 75.26
Neigh   | 0          | 0          | 0          |   0.0 |  0.00
Comm    | 0.005137   | 0.01256    | 0.022067   |   4.5 |  1.66
Output  | 9.0871e-05 | 0.00011918 | 0.00022618 |   0.0 |  0.02
Modify  | 0.17229    | 0.17231    | 0.17235    |   0.0 | 22.84
Other   |            | 0.0017     |            |       |  0.23

Nlocal:    6.375 ave 9 max 6 min
Histogram: 7 0 0 0 0 0 0 0 0 1
Nghost:    621.5 ave 636 max 615 min
Histogram: 3 1 1 0 2 0 0 0 0 1
Neighs:    836.375 ave 1154 max 783 min
Histogram: 7 0 0 0 0 0 0 0 0 1

Total # of neighbors = 6691
Ave neighs/atom = 131.196
Neighbor list builds = 0
Dangerous builds = 0
WARNING: Using 'neigh_modify every 1 delay 0 check yes' setting during minimization (../min.cpp:190)
WARNING: Total cutoff < 2*bond cutoff. May need to use an increased neighbor list skin. (../pair_reaxc.cpp:413)
Setting up cg style minimization ...
  Unit style    : real
  Current step  : 46
Per MPI rank memory allocation (min/avg/max) = 19.1 | 19.22 | 19.52 Mbytes
Step Temp E_pair E_mol TotEng Press 
      46            0   -8835.1186            0   -8835.1186    4107.5421 
      96            0   -8845.5973            0   -8845.5973    6622.9176 
Loop time of 0.910907 on 8 procs for 50 steps with 51 atoms

99.4% CPU use with 8 MPI tasks x no OpenMP threads

Minimization stats:
  Stopping criterion = energy tolerance
  Energy initial, next-to-last, final = 
        -8835.11860977     -8845.59728877     -8845.59732222
  Force two-norm initial, final = 338.004 230.61
  Force max component initial, final = 122.029 93.0894
  Final line search alpha, max atom move = 0.000524558 0.0488308
  Iterations, force evaluations = 50 326

MPI task timing breakdown:
Section |  min time  |  avg time  |  max time  |%varavg| %total
---------------------------------------------------------------
Pair    | 0.67776    | 0.68825    | 0.69753    |   0.7 | 75.56
Neigh   | 0          | 0          | 0          |   0.0 |  0.00
Comm    | 0.0070935  | 0.016471   | 0.026916   |   4.7 |  1.81
Output  | 0.00011514 | 0.00015437 | 0.0002832  |   0.0 |  0.02
Modify  | 0.20385    | 0.20389    | 0.20394    |   0.0 | 22.38
Other   |            | 0.002141   |            |       |  0.24

Nlocal:    6.375 ave 9 max 6 min
Histogram: 7 0 0 0 0 0 0 0 0 1
Nghost:    621.5 ave 636 max 615 min
Histogram: 3 1 1 0 2 0 0 0 0 1
Neighs:    841.625 ave 1171 max 785 min
Histogram: 7 0 0 0 0 0 0 0 0 1

Total # of neighbors = 6733
Ave neighs/atom = 132.02
Neighbor list builds = 0
Dangerous builds = 0
WARNING: Using 'neigh_modify every 1 delay 0 check yes' setting during minimization (../min.cpp:190)
WARNING: Total cutoff < 2*bond cutoff. May need to use an increased neighbor list skin. (../pair_reaxc.cpp:413)
Setting up cg style minimization ...
  Unit style    : real
  Current step  : 96
WARNING: Energy due to 3 extra global DOFs will be included in minimizer energies
Per MPI rank memory allocation (min/avg/max) = 19.1 | 19.22 | 19.52 Mbytes
Step Temp E_pair E_mol TotEng Press Volume 
      96            0   -8845.5973            0   -8845.5973    6622.9176     1331.242 
    3292            0   -8920.0776            0   -8920.0776    56.753464    1353.6538 
Loop time of 11.318 on 8 procs for 3196 steps with 51 atoms

99.4% CPU use with 8 MPI tasks x no OpenMP threads

Minimization stats:
  Stopping criterion = energy tolerance
  Energy initial, next-to-last, final = 
        -8845.59732222      -8920.0775702     -8920.07763522
  Force two-norm initial, final = 323.394 17.5731
  Force max component initial, final = 162.045 6.01069
  Final line search alpha, max atom move = 3.08115e-05 0.000185199
  Iterations, force evaluations = 3196 4409

MPI task timing breakdown:
Section |  min time  |  avg time  |  max time  |%varavg| %total
---------------------------------------------------------------
Pair    | 9.2718     | 9.4176     | 9.5456     |   2.8 | 83.21
Neigh   | 0          | 0          | 0          |   0.0 |  0.00
Comm    | 0.081387   | 0.20861    | 0.35463    |  18.7 |  1.84
Output  | 0.0057552  | 0.007412   | 0.013222   |   2.6 |  0.07
Modify  | 1.5987     | 1.599      | 1.5992     |   0.0 | 14.13
Other   |            | 0.08536    |            |       |  0.75

Nlocal:    6.375 ave 9 max 6 min
Histogram: 7 0 0 0 0 0 0 0 0 1
Nghost:    621.5 ave 636 max 615 min
Histogram: 3 1 1 0 2 0 0 0 0 1
Neighs:    845.625 ave 1180 max 785 min
Histogram: 7 0 0 0 0 0 0 0 0 1

Total # of neighbors = 6765
Ave neighs/atom = 132.647
Neighbor list builds = 0
Dangerous builds = 0
WARNING: Using 'neigh_modify every 1 delay 0 check yes' setting during minimization (../min.cpp:190)
WARNING: Total cutoff < 2*bond cutoff. May need to use an increased neighbor list skin. (../pair_reaxc.cpp:413)
Setting up cg style minimization ...
  Unit style    : real
  Current step  : 3292
Per MPI rank memory allocation (min/avg/max) = 19.1 | 19.22 | 19.52 Mbytes
Step Temp E_pair E_mol TotEng Press 
    3292            0   -8920.0776            0   -8920.0776    56.753464 
    3321            0   -8921.5139            0   -8921.5139   -241.22514 
Loop time of 0.458026 on 8 procs for 29 steps with 51 atoms

99.4% CPU use with 8 MPI tasks x no OpenMP threads

Minimization stats:
  Stopping criterion = energy tolerance
  Energy initial, next-to-last, final = 
        -8920.07763522     -8921.51385106     -8921.51386786
  Force two-norm initial, final = 17.1565 26.9265
  Force max component initial, final = 6.01069 9.84298
  Final line search alpha, max atom move = 0.00719556 0.0708257
  Iterations, force evaluations = 29 166

MPI task timing breakdown:
Section |  min time  |  avg time  |  max time  |%varavg| %total
---------------------------------------------------------------
Pair    | 0.34485    | 0.34933    | 0.35514    |   0.5 | 76.27
Neigh   | 0          | 0          | 0          |   0.0 |  0.00
Comm    | 0.0037483  | 0.0095136  | 0.01396    |   3.0 |  2.08
Output  | 7.3828e-05 | 9.4632e-05 | 0.00016309 |   0.0 |  0.02
Modify  | 0.09793    | 0.097963   | 0.097989   |   0.0 | 21.39
Other   |            | 0.001127   |            |       |  0.25

Nlocal:    6.375 ave 9 max 6 min
Histogram: 7 0 0 0 0 0 0 0 0 1
Nghost:    597.625 ave 604 max 586 min
Histogram: 1 0 0 0 0 3 1 0 0 3
Neighs:    834.375 ave 1148 max 781 min
Histogram: 7 0 0 0 0 0 0 0 0 1

Total # of neighbors = 6675
Ave neighs/atom = 130.882
Neighbor list builds = 0
Dangerous builds = 0
WARNING: Using 'neigh_modify every 1 delay 0 check yes' setting during minimization (../min.cpp:190)
WARNING: Total cutoff < 2*bond cutoff. May need to use an increased neighbor list skin. (../pair_reaxc.cpp:413)
Setting up cg style minimization ...
  Unit style    : real
  Current step  : 3321
WARNING: Energy due to 3 extra global DOFs will be included in minimizer energies
Per MPI rank memory allocation (min/avg/max) = 19.1 | 19.22 | 19.52 Mbytes
Step Temp E_pair E_mol TotEng Press Volume 
    3321            0   -8921.5139            0   -8921.5139   -241.22514    1353.6538 
    3337            0    -8921.556            0    -8921.556   -9.2017576    1353.4616 
Loop time of 0.0737909 on 8 procs for 16 steps with 51 atoms

99.4% CPU use with 8 MPI tasks x no OpenMP threads

Minimization stats:
  Stopping criterion = energy tolerance
  Energy initial, next-to-last, final = 
        -8921.51386786     -8921.55594109     -8921.55600096
  Force two-norm initial, final = 32.8243 14.2155
  Force max component initial, final = 13.1623 5.13171
  Final line search alpha, max atom move = 1.86194e-05 9.55491e-05
  Iterations, force evaluations = 16 28

MPI task timing breakdown:
Section |  min time  |  avg time  |  max time  |%varavg| %total
---------------------------------------------------------------
Pair    | 0.060286   | 0.060983   | 0.06204    |   0.2 | 82.64
Neigh   | 0          | 0          | 0          |   0.0 |  0.00
Comm    | 0.00048509 | 0.0015361  | 0.0022306  |   1.3 |  2.08
Output  | 2.132e-05  | 2.6167e-05 | 4.0977e-05 |   0.0 |  0.04
Modify  | 0.010661   | 0.010667   | 0.010672   |   0.0 | 14.46
Other   |            | 0.0005794  |            |       |  0.79

Nlocal:    6.375 ave 9 max 6 min
Histogram: 7 0 0 0 0 0 0 0 0 1
Nghost:    602.625 ave 610 max 592 min
Histogram: 1 0 0 1 0 3 0 0 2 1
Neighs:    837.375 ave 1153 max 783 min
Histogram: 7 0 0 0 0 0 0 0 0 1

Total # of neighbors = 6699
Ave neighs/atom = 131.353
Neighbor list builds = 0
Dangerous builds = 0
WARNING: Using 'neigh_modify every 1 delay 0 check yes' setting during minimization (../min.cpp:190)
WARNING: Total cutoff < 2*bond cutoff. May need to use an increased neighbor list skin. (../pair_reaxc.cpp:413)
Setting up cg style minimization ...
  Unit style    : real
  Current step  : 3337
Per MPI rank memory allocation (min/avg/max) = 19.1 | 19.22 | 19.52 Mbytes
Step Temp E_pair E_mol TotEng Press 
    3337            0    -8921.556            0    -8921.556   -9.2017576 
    3340            0   -8921.5577            0   -8921.5577   -316.77059 
Loop time of 0.109043 on 8 procs for 3 steps with 51 atoms

99.3% CPU use with 8 MPI tasks x no OpenMP threads

Minimization stats:
  Stopping criterion = energy tolerance
  Energy initial, next-to-last, final = 
        -8921.55600096     -8921.55763783      -8921.5577089
  Force two-norm initial, final = 13.5761 14.4444
  Force max component initial, final = 5.13171 6.17645
  Final line search alpha, max atom move = 0.00251751 0.0155493
  Iterations, force evaluations = 3 39

MPI task timing breakdown:
Section |  min time  |  avg time  |  max time  |%varavg| %total
---------------------------------------------------------------
Pair    | 0.083036   | 0.084022   | 0.085503   |   0.3 | 77.05
Neigh   | 0          | 0          | 0          |   0.0 |  0.00
Comm    | 0.00069605 | 0.002174   | 0.0031588  |   1.6 |  1.99
Output  | 0          | 0          | 0          |   0.0 |  0.00
Modify  | 0.022573   | 0.022584   | 0.022594   |   0.0 | 20.71
Other   |            | 0.0002627  |            |       |  0.24

Nlocal:    6.375 ave 9 max 6 min
Histogram: 7 0 0 0 0 0 0 0 0 1
Nghost:    602.625 ave 610 max 592 min
Histogram: 1 0 0 1 0 3 0 0 2 1
Neighs:    837.375 ave 1153 max 783 min
Histogram: 7 0 0 0 0 0 0 0 0 1

Total # of neighbors = 6699
Ave neighs/atom = 131.353
Neighbor list builds = 0
Dangerous builds = 0
WARNING: Total cutoff < 2*bond cutoff. May need to use an increased neighbor list skin. (../pair_reaxc.cpp:413)
Setting up Verlet run ...
  Unit style    : real
  Current step  : 0
  Time step     : 0.25
Per MPI rank memory allocation (min/avg/max) = 17.97 | 18.09 | 18.39 Mbytes
Step Temp TotEng KinEng PotEng Press 
       0          300   -8876.8456    44.712151   -8921.5577     1193.353 
     200    223.05097   -8858.2131    33.243628   -8891.4567    24798.285 
     400    355.80669   -8830.7771    53.029607   -8883.8067    14217.404 
     600    278.79139   -8834.4918    41.551209    -8876.043   -25668.137 
     800    298.93063   -8839.9796    44.552771   -8884.5324    6521.6377 
    1000    276.45989   -8823.6484     41.20372   -8864.8521   -18545.876 
    1200    273.69614   -8830.4327     40.79181   -8871.2245    29543.885 
    1400    277.79345   -8834.3177    41.402475   -8875.7202    2526.4004 
    1600    282.93906   -8835.9424     42.16938   -8878.1118   -34493.425 
    1800     266.2823   -8841.2775    39.686848   -8880.9644    -13841.04 
    2000    362.67896   -8826.3892    54.053855    -8880.443    1158.3275 
    2200    260.88333   -8842.6814    38.882182   -8881.5636   -5552.0943 
    2400    278.72079   -8834.8938    41.540687   -8876.4345    34319.849 
    2600    288.69277    -8825.506    43.026916   -8868.5329    21187.854 
    2800    369.07639   -8817.6875     55.00733   -8872.6948   -3411.5993 
    3000     274.9275   -8836.5854    40.975333   -8877.5607   -8981.6986 
    3200    311.51734   -8834.2965    46.428701   -8880.7252    15243.384 
    3400    260.93697   -8831.5349    38.890177    -8870.425    17049.581 
    3600    295.08766   -8835.2169    43.980013   -8879.1969    17322.709 
    3800    286.54307   -8834.8564    42.706523   -8877.5629    66184.469 
    4000    320.72281   -8823.2907    47.800689   -8871.0914    2848.9497 
    4200    259.09674   -8841.5022    38.615908   -8880.1181   -2306.3648 
    4400    317.29136   -8831.0188    47.289263   -8878.3081   -15854.961 
    4600    360.78942   -8821.3656    53.772237   -8875.1378    433.44436 
    4800    227.27857   -8840.7999    33.873713   -8874.6736   -30529.033 
    5000    299.34075    -8831.816    44.613896   -8876.4299   -2333.1965 
    5200    361.07659   -8828.7455    53.815036   -8882.5605    7189.4237 
    5400     321.6483   -8831.4127    47.938624   -8879.3514    37056.853 
    5600    257.54292   -8850.1082    38.384326   -8888.4926    2156.0926 
    5800    315.39769   -8839.2577     47.00703   -8886.2648   -394.86517 
    6000    315.47066   -8831.7476    47.017905   -8878.7655   -43014.788 
    6200    266.50812   -8832.6941    39.720505   -8872.4146   -668.16389 
    6400    266.37006   -8828.7731    39.699927   -8868.4731   -20321.484 
    6600    321.72541   -8827.6934    47.950117   -8875.6435   -16653.406 
    6800    264.12788   -8842.6207    39.365752   -8881.9865   -7977.9222 
    7000    312.95282   -8831.2362    46.642646   -8877.8788    5456.8152 
    7200    320.58854   -8813.5367    47.780677   -8861.3174    13569.294 
    7400    308.15324   -8837.4989    45.927314   -8883.4262   -17114.239 
    7600     280.8781   -8838.2227    41.862214   -8880.0849    -16511.02 
    7800    317.49819    -8833.636     47.32009   -8880.9561    4557.3205 
    8000    301.71937   -8837.9575    44.968407   -8882.9259    50982.011 
    8200    306.01219    -8839.369     45.60821   -8884.9772      23343.6 
    8400    310.96787   -8823.8396    46.346808   -8870.1864    18465.679 
    8600    295.39976   -8837.1928    44.026529   -8881.2193    6009.5516 
    8800    293.65632   -8835.7916    43.766686   -8879.5583   -10958.552 
    9000    333.47637   -8822.1628    49.701486   -8871.8643    2441.5278 
    9200    274.70647    -8826.158     40.94239   -8867.1004   -3073.2158 
    9400     254.6199   -8831.9082    37.948678   -8869.8569   -26409.598 
    9600    256.13142   -8848.1573    38.173955   -8886.3313   -12319.837 
    9800    227.85878   -8832.2251    33.960187   -8866.1852   -41999.933 
   10000    303.44124   -8832.2616    45.225035   -8877.4867     -8230.94 
   10200    277.15227   -8837.1104    41.306913   -8878.4173    32937.628 
   10400    364.82511   -8825.0604    54.373718   -8879.4341   -3520.5849 
   10600    288.00034   -8838.0311    42.923715   -8880.9548     817.5846 
   10800    290.44904   -8836.1557     43.28867   -8879.4444    7065.7393 
   11000    296.18502   -8828.8658    44.143564   -8873.0094   -22259.534 
   11200    341.52302   -8815.3124    50.900762   -8866.2132     39306.25 
   11400    326.82182   -8832.9231    48.709688   -8881.6328    -4107.644 
   11600    309.84477   -8834.8978     46.17942   -8881.0773   -31717.178 
   11800    347.47726   -8817.5577    51.788186   -8869.3459   -4862.6391 
   12000    281.16914   -8829.1271     41.90559   -8871.0326     12280.03 
   12200    270.07911   -8837.1868    40.252726   -8877.4395    2005.5508 
   12400    253.41532   -8839.8838    37.769147    -8877.653    4965.7116 
   12600    324.31733     -8826.63    48.336417   -8874.9664   -23615.207 
   12800    262.88725   -8843.2476    39.180847   -8882.4285   -1761.8934 
   13000    268.59686   -8838.7461    40.031811   -8878.7779   -6152.3119 
   13200    343.90137   -8830.7366    51.255233   -8881.9918    39973.901 
   13400     359.3735   -8828.6389    53.561206   -8882.2001    25958.865 
   13600     235.1752    -8844.893     35.05063   -8879.9437   -28386.343 
   13800    312.36771   -8826.2215     46.55544    -8872.777    15485.616 
   14000    305.26455   -8831.8661    45.496781   -8877.3629    30526.092 
   14200    273.31124   -8845.7583    40.734444   -8886.4927    6585.0855 
   14400    262.66482   -8850.2615    39.147697   -8889.4092   -3860.2011 
   14600    310.68646    -8829.822    46.304866   -8876.1269   -20930.024 
   14800    346.74465   -8820.3361    51.678997   -8872.0151    6961.3393 
   15000    301.78954   -8836.2338    44.978864   -8881.2126    22686.318 
   15200    277.36304   -8833.2757    41.338327   -8874.6141   -9381.2925 
   15400    358.96792   -8817.8451    53.500759   -8871.3458    6401.5973 
   15600    297.10305   -8821.6499    44.280388   -8865.9303    3565.1415 
   15800    313.63906    -8833.048    46.744922   -8879.7929     1679.654 
   16000     305.2794   -8830.9897    45.498995   -8876.4887   -27332.584 
   16200    355.96181   -8821.4964    53.052727   -8874.5491    22025.596 
   16400    300.00583   -8837.4652    44.713019   -8882.1783    6632.9363 
   16600     270.7727   -8830.1751      40.3561   -8870.5312   -6041.0672 
   16800    376.11623   -8816.9457    56.056553   -8873.0022    27055.778 
   17000    328.97624   -8821.6287    49.030784   -8870.6595    2042.7475 
   17200      234.237   -8833.7772      34.9108    -8868.688   -11278.045 
   17400    296.48926   -8843.1766    44.188909   -8887.3655   -4978.2235 
   17600    290.08844   -8844.7515    43.234927   -8887.9864   -11603.472 
   17800    280.50729   -8834.8714    41.806948   -8876.6784    52706.014 
   18000    272.56483   -8846.2237    40.623199   -8886.8469   -18360.054 
   18200    236.08259    -8852.559    35.185868   -8887.7449    21824.102 
   18400    298.72347   -8837.4598    44.521896   -8881.9817     10154.92 
   18600    326.82574   -8846.2399    48.710273   -8894.9501    5004.0742 
   18800    257.61403   -8846.1235    38.394925   -8884.5184   -3833.3416 
   19000    277.15356   -8826.9413    41.307106   -8868.2484   -18109.655 
   19200    307.10313   -8838.8834    45.770804   -8884.6542   -8957.8064 
   19400    273.81331    -8842.882    40.809274   -8883.6913    7907.7282 
   19600    282.78434   -8838.7223    42.146319   -8880.8686   -20997.199 
   19800    322.02441   -8823.1587     47.99468   -8871.1534    19944.236 
   20000    262.66798   -8835.4308    39.148167    -8874.579     2352.264 
   20200    278.96796   -8835.6879    41.577525   -8877.2654    8756.3845 
   20400    375.90547   -8829.4791     56.02514   -8885.5043    7273.8917 
   20600    333.63408   -8838.2225    49.724991   -8887.9475   -18678.157 
   20800    301.16372   -8836.1193    44.885592   -8881.0049   -2661.3225 
   21000     329.5561   -8821.0587    49.117207   -8870.1759   -19672.686 
   21200    292.39148   -8835.1621    43.578174   -8878.7402   -296.63747 
   21400    314.14236   -8839.5785    46.819936   -8886.3984    12279.407 
   21600    246.40542   -8850.2811    36.724388   -8887.0055    23069.556 
   21800    348.66184   -8831.3473    51.964735    -8883.312   -7430.6665 
   22000    303.90572   -8840.3147    45.294262   -8885.6089    -13456.03 
   22200    221.05339   -8856.7212    32.945909   -8889.6671     15337.95 
   22400      309.684   -8842.2974    46.155458   -8888.4529   -37608.873 
   22600    313.44771   -8832.8464    46.716405   -8879.5628   -3611.9024 
   22800    346.28012    -8826.602    51.609763   -8878.2118   -18406.109 
   23000    269.61212   -8838.9845    40.183126   -8879.1676   -29052.576 
   23200     341.5833   -8824.3348    50.909746   -8875.2445   -1194.5861 
   23400    285.17972   -8835.3722    42.503328   -8877.8755    32036.535 
   23600    239.11329   -8850.4784    35.637564    -8886.116    5550.1415 
   23800    279.46232   -8839.5327    41.651205   -8881.1839   -29524.147 
   24000    301.87826   -8830.3437    44.992087   -8875.3357    2505.5715 
   24200    353.95228     -8818.98    52.753225   -8871.7332   -24917.979 
   24400     263.7729   -8843.6208    39.312846   -8882.9337   -6895.5515 
   24600    339.05488   -8835.0363     50.53291   -8885.5692    9456.7062 
   24800    260.06519   -8840.4665    38.760246   -8879.2267    14040.623 
   25000    242.02331    -8849.512    36.071276   -8885.5833    32776.012 
   25200     274.4609   -8829.0945     40.90579   -8870.0002    3584.8742 
   25400    293.57704   -8835.1895     43.75487   -8878.9444    4307.4287 
   25600    295.36031   -8849.3879    44.020649   -8893.4086     14448.65 
   25800    376.05067   -8827.5626    56.046781   -8883.6094   -3713.2881 
   26000     283.6675   -8839.6253    42.277947   -8881.9033   -16070.433 
   26200    286.02275   -8840.5981    42.628974   -8883.2271    19928.113 
   26400    313.59056   -8823.0216    46.737695   -8869.7592    22190.911 
   26600    313.56997   -8837.5541    46.734626   -8884.2887    22415.459 
   26800    275.16056   -8838.6919    41.010068    -8879.702   -2233.5999 
   27000    349.77692   -8828.5636    52.130928   -8880.6945   -5541.8369 
   27200    359.90839   -8824.5428    53.640927   -8878.1838   -29147.867 
   27400    242.06593   -8835.9991    36.077628   -8872.0768   -30186.162 
   27600    322.51724   -8837.4729    48.068131    -8885.541    27032.707 
   27800     224.3873   -8848.3307    33.442797   -8881.7735   -31255.566 
   28000    305.42624   -8832.9593    45.520881   -8878.4802   -10939.621 
   28200    317.61416   -8834.3382    47.337375   -8881.6756    15273.226 
   28400    317.20485   -8838.2369     47.27637   -8885.5133    6019.5549 
   28600    313.13647   -8840.3267    46.670016   -8886.9967   -42559.018 
   28800    311.39409   -8834.4524    46.410332   -8880.8627    5838.3358 
   29000    318.59863   -8831.5237      47.4841   -8879.0078    14346.745 
   29200    235.13561   -8845.9331    35.044729   -8880.9778    2611.9371 
   29400    335.03346   -8827.9414    49.933555    -8877.875    21424.302 
   29600    292.10583    -8830.492    43.535599   -8874.0276    10409.079 
   29800    291.76581   -8837.4947    43.484923   -8880.9796    21763.644 
   30000    276.24756   -8851.0946    41.172075   -8892.2667   -10233.662 
   30200    296.11266   -8834.7711     44.13278   -8878.9038    9304.0023 
   30400    314.13576   -8839.8061    46.818951    -8886.625    21264.805 
   30600    304.02825   -8839.2342    45.312524   -8884.5467   -28161.208 
   30800    265.72702   -8830.4905    39.604089   -8870.0946   -357.66197 
   31000    250.36985   -8840.7532    37.315248   -8878.0684    29222.346 
   31200    238.18006    -8853.209    35.498476   -8888.7074    1933.2205 
   31400    294.11395   -8836.4427    43.834891   -8880.2776    14307.391 
   31600    313.44307   -8834.6155    46.715713   -8881.3313   -25723.873 
   31800     239.9497   -8842.5778    35.762223     -8878.34    24089.754 
   32000    345.19027   -8828.2177    51.447331    -8879.665     2333.303 
   32200    332.99817    -8838.227    49.630215   -8887.8572   -10817.041 
   32400    254.84016   -8847.2393    37.981506   -8885.2208    8262.1463 
   32600    286.67014   -8832.0232    42.725462   -8874.7486   -6610.8728 
   32800    298.06291   -8834.0656    44.423446   -8878.4891   -2535.7366 
   33000    298.31997   -8830.5315    44.461759   -8874.9933    12827.972 
   33200    295.08368   -8829.0415     43.97942   -8873.0209    30299.941 
   33400    288.98468   -8839.8264    43.070422   -8882.8968   -42767.438 
   33600    313.41518   -8835.1532    46.711556   -8881.8647    344.79799 
   33800    347.59685   -8826.2152    51.806009   -8878.0212   -11667.865 
   34000    269.78942   -8845.4132    40.209551   -8885.6228   -10577.436 
   34200    288.80936   -8832.1803    43.044291   -8875.2246    31558.385 
   34400    328.67001   -8834.5608    48.985144   -8883.5459    21949.065 
   34600    230.05565   -8843.5048     34.28761   -8877.7924     3701.745 
   34800    344.00342   -8822.3325    51.270442    -8873.603   -24929.385 
   35000    295.97125   -8834.2767    44.111704   -8878.3885    -9361.634 
   35200    310.91089   -8834.2559    46.338315   -8880.5942    9466.7533 
   35400    323.76626   -8824.1493    48.254286   -8872.4035    39107.031 
   35600    306.90251   -8833.7925    45.740904   -8879.5334   -2148.9223 
   35800    302.92703   -8844.5268    45.148397   -8889.6752   -2334.0347 
   36000    371.32927   -8825.5709    55.343101    -8880.914   -22792.455 
   36200    285.00788    -8827.917    42.477718   -8870.3947   -21486.524 
   36400    326.30594   -8834.6742    48.632802    -8883.307    21931.943 
   36600    283.91983   -8830.2764    42.315554    -8872.592    2970.9922 
   36800    335.44121   -8825.4205    49.994327   -8875.4149    -5682.208 
   37000    288.76002   -8841.9808    43.036939   -8885.0177    2891.0652 
   37200    309.07557   -8831.5868    46.064778   -8877.6516    -16568.02 
   37400     302.5213   -8831.5937    45.087926   -8876.6816   -26600.084 
   37600     308.0374   -8840.3926    45.910049   -8886.3026    7279.9477 
   37800    213.75159   -8856.2757    31.857645   -8888.1333    -3462.131 
   38000    291.05137   -8838.4889    43.378442   -8881.8674     -5073.14 
   38200     309.0107   -8829.6405     46.05511   -8875.6957    13828.053 
   38400    290.18195   -8839.5574    43.248864   -8882.8062   -5172.0167 
   38600    289.83608   -8839.9524    43.197315   -8883.1498   -20545.531 
   38800    382.04356   -8820.3523    56.939964   -8877.2923   -31756.507 
   39000    305.79143   -8836.8785    45.575309   -8882.4538   -28343.843 
   39200    268.85436   -8840.4754    40.070189   -8880.5456    33785.658 
   39400    368.98053   -8821.4987    54.993044   -8876.4917    6847.9723 
   39600    281.54287   -8833.2816    41.961291   -8875.2429     1825.733 
   39800    268.25607   -8837.8468    39.981019   -8877.8278   -4377.7685 
   40000    317.23496      -8826.3    47.280857   -8873.5808    3141.7167 
   40200     292.0503   -8843.7637    43.527324    -8887.291   -33649.502 
   40400    325.05765     -8838.51    48.446755   -8886.9567    10326.903 
   40600    319.86302   -8836.6801    47.672546   -8884.3526    10212.904 
   40800    220.88159   -8842.0849    32.920303   -8875.0052    3348.7008 
   41000    356.25524   -8833.4769    53.096459   -8886.5733    15538.124 
   41200    332.39949   -8826.9546    49.540986   -8876.4955   -26838.514 
   41400     300.1508   -8831.9622    44.734627   -8876.6968    30086.564 
   41600     295.8707   -8843.3648    44.096718   -8887.4616   -16260.987 
   41800    329.26107   -8823.9314    49.073235   -8873.0046   -36675.873 
   42000    312.76257   -8838.1338     46.61429   -8884.7481   -7119.2746 
   42200    327.13821   -8835.7926    48.756843   -8884.5494   -9913.9233 
   42400     314.8515   -8821.5028    46.925626   -8868.4284   -8684.0683 
   42600    256.03416   -8840.1301    38.159459   -8878.2896   -8828.7712 
   42800    278.01852   -8833.7162     41.43602   -8875.1522   -6155.6975 
   43000    283.05943   -8825.7902    42.187319   -8867.9775    28841.586 
   43200     334.1984   -8832.8005    49.809097   -8882.6096    -4704.885 
   43400    332.65097   -8825.5671    49.578468   -8875.1455    29204.897 
   43600    292.52586   -8828.1928    43.598201    -8871.791    1627.6063 
   43800    300.85798   -8833.8085    44.840025   -8878.6486    9088.3047 
   44000    263.49202   -8847.5132    39.270983   -8886.7842    5916.0632 
   44200    284.60164   -8830.5788    42.417172   -8872.9959    24195.233 
   44400    289.45984   -8832.4153    43.141241   -8875.5565   -8707.5209 
   44600    264.20366   -8842.0754    39.377047   -8881.4525     18014.87 
   44800    263.30845    -8849.066    39.243623   -8888.3096    162.45505 
   45000    355.03736   -8831.4519    52.914947   -8884.3668   -34160.575 
   45200    270.77888   -8842.1621     40.35702   -8882.5191   -28619.112 
   45400    291.09939   -8833.4925    43.385599   -8876.8781    6563.8164 
   45600    294.44939   -8824.5545    43.884885   -8868.4394    24892.763 
   45800    276.79172   -8842.7061    41.253177   -8883.9592   -5828.6128 
   46000    297.86774   -8844.6635    44.394358   -8889.0579    -10302.02 
   46200    332.43247   -8833.4722    49.545902   -8883.0181    32850.366 
   46400    286.74488   -8832.5027    42.736601   -8875.2393    24343.119 
   46600    306.33056   -8833.5283    45.655661    -8879.184   -3926.7112 
   46800     355.4263   -8824.9982    52.972915   -8877.9711   -17573.445 
   47000    273.03954   -8839.6561     40.69395     -8880.35    39419.659 
   47200    294.72066   -8840.0995    43.925315   -8884.0248   -4427.8411 
   47400    317.82177   -8820.5816    47.368317   -8867.9499    26003.174 
   47600    333.55519   -8826.6621    49.713234   -8876.3753    17988.952 
   47800    279.80406    -8840.648    41.702138   -8882.3501    9140.3457 
   48000    311.90972   -8842.0506    46.487182   -8888.5378   -11015.897 
   48200    316.28165   -8836.3384    47.138777   -8883.4771   -30474.512 
   48400    295.69349    -8833.615    44.070306   -8877.6853   -18281.284 
   48600    232.05439   -8839.1048    34.585503   -8873.6904    484.22868 
   48800    266.80351   -8829.5395    39.764529   -8869.3041    49682.309 
   49000    278.66783   -8839.0474    41.532793   -8880.5802   -15199.809 
   49200    280.01228   -8841.7944    41.733171   -8883.5276   -38713.216 
   49400    293.17039    -8825.386    43.694262   -8869.0802   -56113.145 
   49600    272.87237   -8836.4304    40.669035   -8877.0994   -10766.701 
   49800    295.37895   -8840.1358    44.023426   -8884.1592    15803.489 
   50000    312.72125   -8828.4564    46.608132   -8875.0645   -29036.499 
   50200     264.6339   -8844.6494    39.441169   -8884.0906    44673.238 
   50400    319.39047   -8840.1616    47.602117   -8887.7637   -24319.039 
   50600    284.37003   -8829.5262    42.382653   -8871.9089   -38080.062 
   50800    274.01757   -8843.8485    40.839716   -8884.6882   -3318.8414 
   51000    276.23921   -8839.5262    41.170831   -8880.6971    28062.563 
   51200    310.74729   -8832.6218    46.313932   -8878.9358   -20951.983 
   51400     244.1762   -8841.4708    36.392144    -8877.863   -6145.8736 
   51600    336.88425   -8823.0079    50.209398   -8873.2173     2565.717 
   51800    306.26117   -8833.9174    45.645319   -8879.5627    773.83651 
   52000    279.66613   -8838.7455     41.68158   -8880.4271   -3421.1436 
   52200    356.48568   -8826.6109    53.130805   -8879.7417   -1821.1446 
   52400    344.41748   -8831.5732    51.332155   -8882.9053   -1380.6276 
   52600    280.53976   -8836.9476    41.811787   -8878.7593    35890.674 
   52800    319.26584   -8821.0433     47.58354   -8868.6268   -5615.3623 
   53000    310.63907   -8830.9497    46.297803   -8877.2475    5064.9219 
   53200    269.87065   -8840.0402    40.221657   -8880.2619   -39123.637 
   53400    249.54087   -8841.7651    37.191696   -8878.9568    7249.8674 
   53600    322.97869   -8827.1653    48.136906   -8875.3022   -37496.357 
   53800    257.92927   -8838.5448    38.441909   -8876.9867    35859.437 
   54000     335.8633   -8830.0485    50.057235   -8880.1057   -8418.4847 
   54200    279.42153   -8829.3628    41.645125    -8871.008   -1422.3088 
   54400    304.97442   -8836.2706    45.453541   -8881.7241    956.98146 
   54600    228.58091   -8843.0456    34.067814   -8877.1134   -24604.714 
   54800    337.69147   -8824.9354    50.329706   -8875.2651   -14672.854 
   55000    291.13961   -8839.2811    43.391594   -8882.6727    25901.937 
   55200    269.36368   -8839.3733    40.146098   -8879.5194    24102.675 
   55400    350.88985    -8823.744    52.296799   -8876.0408    23481.778 
   55600    256.07688   -8837.9826    38.165827   -8876.1484    14174.786 
   55800    315.00037   -8831.1097    46.947814   -8878.0575    6834.0502 
   56000    325.96407   -8826.0063    48.581849   -8874.5882   -42389.763 
   56200     303.0147   -8842.3402    45.161464   -8887.5017   -14841.631 
   56400     313.9056   -8840.4209    46.784649   -8887.2055     13253.14 
   56600    344.35844   -8819.1301    51.323355   -8870.4535   -28810.204 
   56800    317.83126   -8832.6697    47.369731   -8880.0394    9826.2441 
   57000    337.26813   -8839.2334    50.266611      -8889.5    12452.704 
   57200    331.85777   -8835.6858    49.460249    -8885.146    18322.098 
   57400    337.88699   -8823.6431    50.358847    -8874.002    3400.7141 
   57600    266.60728   -8841.3833    39.735283   -8881.1185   -28131.959 
   57800    291.24236   -8833.7726    43.406907   -8877.1795   -33058.175 
   58000    365.08363   -8830.9629    54.412248   -8885.3752   -25481.077 
   58200    275.57026   -8844.3002    41.071131   -8885.3713    -6041.666 
   58400    284.50926   -8847.3231    42.403402   -8889.7265   -4370.6215 
   58600    308.08178   -8829.8712    45.916664   -8875.7879   -14904.531 
   58800    333.88987   -8836.7291    49.763115   -8886.4922   -12176.509 
   59000    302.26908   -8838.8738    45.050335   -8883.9242   -27393.067 
   59200    278.84085   -8834.2432    41.558581   -8875.8018   -34301.031 
   59400    312.97429   -8844.0886    46.645846   -8890.7345   -26446.517 
   59600    264.36828   -8847.2953    39.401581   -8886.6969     14287.25 
   59800    308.08439   -8833.6484    45.917052   -8879.5655   -3401.7037 
   60000    324.95158   -8836.6973    48.430947   -8885.1282    33683.407 
   60200    250.39285   -8845.8956    37.318676   -8883.2143    16137.221 
   60400    356.29884   -8829.4092    53.102958   -8882.5121   -18615.071 
   60600    305.62426   -8840.8477    45.550393   -8886.3981    7099.4539 
   60800    300.08976   -8840.5638    44.725529   -8885.2894    8411.6569 
   61000    332.82647   -8827.9678    49.604625   -8877.5725   -41462.222 
   61200    311.78761   -8824.8367    46.468982   -8871.3057   -2776.7796 
   61400    252.92667    -8842.112    37.696319   -8879.8083    23747.674 
   61600    357.19649   -8831.4032    53.236745   -8884.6399   -18324.577 
   61800    300.72304   -8842.2072    44.819914   -8887.0271   -28545.812 
   62000     271.2095   -8838.9168    40.421201    -8879.338    27436.596 
   62200    281.71798   -8829.7356    41.987389    -8871.723   -6217.7503 
   62400    325.58886   -8826.0811    48.525928    -8874.607    32408.709 
   62600    285.28918   -8834.9868    42.519642   -8877.5064   -51483.645 
   62800    280.84628   -8842.9271    41.857471   -8884.7845   -24671.714 
   63000    324.26508   -8824.4684     48.32863    -8872.797   -21081.405 
   63200    289.97517   -8830.0933    43.218045   -8873.3114    41890.726 
   63400    271.68655   -8834.2694      40.4923   -8874.7617    7118.3355 
   63600    321.55924   -8828.6339     47.92535   -8876.5592   -6790.5117 
   63800    373.46806    -8830.643    55.661867   -8886.3049    6084.4073 
   64000    282.47483   -8841.5573    42.100191   -8883.6575    23194.518 
   64200     334.9839   -8823.2763    49.926169   -8873.2025    40660.613 
   64400    286.13597   -8831.7342    42.645849     -8874.38    3483.6859 
   64600    280.07124   -8836.2253    41.741958   -8877.9673   -22414.174 
   64800    213.12223   -8850.8348    31.763844   -8882.5986    10146.603 
   65000    318.10232   -8837.2193    47.410129   -8884.6294    12994.543 
   65200    296.59634   -8837.7926    44.204868   -8881.9974    -10528.96 
   65400    231.94878   -8849.0311    34.569763   -8883.6008    26291.466 
   65600    304.90108   -8831.5766     45.44261   -8877.0192    12704.202 
   65800    287.12463   -8833.2761      42.7932   -8876.0693   -9583.4374 
   66000    254.93479   -8844.4793    37.995609   -8882.4749    3042.8187 
   66200    286.51959   -8841.6537    42.703023   -8884.3568    12436.137 
   66400    364.41642   -8829.2601    54.312807   -8883.5729    21605.343 
   66600    259.31753    -8842.514    38.648815   -8881.1628    1667.2731 
   66800    262.10845   -8834.3237    39.064774   -8873.3885    18893.956 
   67000    290.29222   -8825.7754    43.265298   -8869.0407   -6123.1047 
   67200    273.53116    -8841.017    40.767222   -8881.7843    -42.53624 
   67400    286.15137   -8840.0138    42.648144    -8882.662    6402.6096 
   67600    306.67508   -8837.5569    45.707009   -8883.2639   -14115.005 
   67800    318.66127   -8822.7335    47.493435   -8870.2269    31130.111 
   68000    323.28007   -8832.6885    48.181824   -8880.8703    8097.7529 
   68200    308.20093   -8838.3524    45.934422   -8884.2868    17419.176 
   68400    360.43676   -8829.1297    53.719676   -8882.8494   -24582.326 
   68600    310.58899   -8839.0209    46.290339   -8885.3112     -5428.38 
   68800    282.99079   -8842.9105    42.177089   -8885.0876    25615.273 
   69000    301.35079   -8831.2127    44.913473   -8876.1261   -23454.346 
   69200     301.6189   -8835.7112    44.953433   -8880.6646    10384.925 
   69400      248.542   -8847.3077    37.042824   -8884.3505   -3763.9223 
   69600    277.04962   -8840.2274    41.291614    -8881.519    18410.704 
   69800    346.24698   -8828.8865    51.604824   -8880.4914    16108.349 
   70000      275.234   -8841.9729    41.021014   -8882.9939   -5774.7995 
   70200    251.06742   -8842.8435    37.419214   -8880.2627    937.08504 
   70400    307.94281   -8833.9542    45.895951   -8879.8502    15727.222 
   70600    264.07329    -8843.378    39.357615   -8882.7356    4544.9976 
   70800    362.34356   -8827.1775    54.003866   -8881.1813   -18709.461 
   71000    286.85414    -8829.908    42.752886   -8872.6609      6526.25 
   71200    255.83676   -8844.4458     38.13004   -8882.5758    13600.951 
   71400    324.44953   -8828.9674     48.35612   -8877.3235   -23897.569 
   71600    304.27201   -8839.5211    45.348853   -8884.8699    9612.5837 
   71800    271.20699   -8842.6448    40.420826   -8883.0657    22317.299 
   72000    308.30895   -8828.4672     45.95052   -8874.4177    4208.7737 
   72200    282.19379   -8838.3227    42.058304    -8880.381    2538.3653 
   72400    233.43552   -8845.9826    34.791346   -8880.7739    9301.8758 
   72600    309.91833   -8833.0257    46.190383   -8879.2161   -22654.221 
   72800    317.88326   -8837.7612    47.377481   -8885.1387   -17649.662 
   73000    314.86257   -8833.9692    46.927275   -8880.8964    -12647.55 
   73200    304.87862   -8827.9447    45.439262    -8873.384    19060.944 
   73400    310.11047   -8836.7956     46.21902   -8883.0147    18339.312 
   73600    226.41108   -8850.1395     33.74442    -8883.884   -30533.252 
   73800    280.32289   -8840.4735    41.779464    -8882.253   -37308.428 
   74000    314.02321    -8832.572    46.802177   -8879.3741   -28014.658 
   74200      289.563   -8829.4034    43.156615     -8872.56    16866.952 
   74400    316.92128   -8821.5366    47.234107   -8868.7707   -23570.883 
   74600    298.29703   -8836.9321    44.458339   -8881.3905     16016.08 
   74800    295.15346   -8841.6662    43.989821    -8885.656    21934.452 
   75000    319.55362   -8835.7992    47.626432   -8883.4256   -9290.4218 
   75200    361.82329   -8824.4086    53.926324   -8878.3349   -38587.467 
   75400    284.42976   -8839.8096    42.391554   -8882.2012    20623.896 
   75600     308.1127   -8831.5148    45.921271    -8877.436    845.83453 
   75800    265.19281   -8826.2958     39.52447   -8865.8203    44153.751 
   76000    291.20424   -8834.1269    43.401227   -8877.5281   -29622.758 
   76200    271.99342   -8849.3848    40.538035   -8889.9228   -39459.305 
   76400    308.11358   -8836.5245    45.921403   -8882.4459    7516.4389 
   76600     364.1416      -8829.2    54.271847   -8883.4718   -6954.1954 
   76800    215.67781   -8847.7101     32.14473   -8879.8548    20171.764 
   77000    285.94212   -8840.2578    42.616958   -8882.8748   -5638.9061 
   77200     321.1135   -8831.0186    47.858917   -8878.8775     41206.75 
   77400    235.63525   -8847.8608    35.119197     -8882.98   -1547.3333 
   77600    326.38618   -8840.4052     48.64476     -8889.05    2123.7845 
   77800    322.02551   -8833.3187    47.994844   -8881.3136   -7763.0389 
   78000    341.73816   -8819.2766    50.932826   -8870.2094    3107.6493 
   78200    310.92404   -8835.5187    46.340275    -8881.859    45444.867 
   78400    325.36661   -8844.8859    48.492803   -8893.3787    31936.366 
   78600    278.34685   -8831.4306    41.484954   -8872.9156   -21243.063 
   78800    281.74622   -8833.9434    41.991599    -8875.935   -41144.475 
   79000    228.01911   -8856.1856    33.984082   -8890.1697   -26381.158 
   79200    249.38599   -8851.4032    37.168613   -8888.5718    3848.7853 
   79400    313.84642   -8834.3016    46.775829   -8881.0775   -61566.889 
   79600    270.10922   -8843.2552    40.257214   -8883.5125    25238.596 
   79800    305.81516   -8843.7481    45.578845    -8889.327   -2247.6138 
   80000    300.86356   -8827.7623    44.840857   -8872.6032    5196.3361 
   80200    258.39402   -8833.0738    38.511175    -8871.585    23191.973 
   80400    275.18038   -8843.8247    41.013023   -8884.8377   -1879.5484 
   80600    293.61181   -8826.5892    43.760051   -8870.3493   -10628.146 
   80800     341.8614   -8830.1443    50.951195   -8881.0955     50167.64 
   81000    322.07557   -8841.2706    48.002304   -8889.2729    56.679635 
   81200    261.24134   -8839.7847    38.935541   -8878.7202    41415.527 
   81400    307.05278   -8831.2489      45.7633   -8877.0122    7724.6068 
   81600    327.27563   -8843.1364    48.777324   -8891.9137      2956.43 
   81800    284.37646    -8848.658     42.38361   -8891.0416    19774.119 
   82000    361.25874   -8830.8537    53.842183   -8884.6958    6980.3647 
   82200    286.41386   -8836.1628    42.687266     -8878.85     4233.594 
   82400    300.25012   -8835.8678    44.749429   -8880.6172    15230.711 
   82600    324.79952   -8826.7751    48.408283   -8875.1833   -8385.7552 
   82800    301.68041   -8840.6058    44.962599   -8885.5684   -26608.956 
   83000     261.5397   -8845.6419    38.980008   -8884.6219    21278.888 
   83200    326.75724   -8829.3244    48.700064   -8878.0245    5293.4387 
   83400    301.46901   -8841.9673    44.931092   -8886.8984    2985.0372 
   83600    353.44153   -8826.4748    52.677104   -8879.1519    -27006.16 
   83800     326.7634    -8835.389    48.700981   -8884.0899    1333.6036 
   84000    246.20238   -8848.4558    36.694126   -8885.1499   -2308.1851 
   84200    261.30732    -8852.123    38.945375   -8891.0684   -12826.617 
   84400    297.71575   -8837.4785    44.371706   -8881.8502    16464.465 
   84600    319.70202   -8826.9097     47.64855   -8874.5582   -17454.634 
   84800    377.54931   -8818.9729    56.270138   -8875.2431   -37193.143 
   85000    269.35054   -8838.0618     40.14414    -8878.206   -7691.5316 
   85200    315.31119   -8832.5963    46.994138   -8879.5905   -31184.979 
   85400    345.19269   -8825.7902    51.447692   -8877.2379    6503.2872 
   85600    297.98633   -8843.8372    44.412033   -8888.2493   -9264.0686 
   85800    283.55418   -8832.9241    42.261058   -8875.1852    18180.306 
   86000    329.73808   -8832.1816    49.144329   -8881.3259    -3266.392 
   86200    317.22724   -8841.4674    47.279707   -8888.7471    5495.9389 
   86400    267.16694    -8847.904    39.818696   -8887.7227   -12264.198 
   86600    300.20109    -8835.589    44.742121   -8880.3311   -18479.331 
   86800    335.20982   -8825.6246     49.95984   -8875.5845   -23296.796 
   87000    267.09039    -8838.814    39.807286   -8878.6213    34414.933 
   87200    317.19158   -8837.3595    47.274392   -8884.6339   -4549.3371 
   87400    350.67353   -8826.3209     52.26456   -8878.5855   -24780.174 
   87600    315.40521   -8841.6307    47.008151   -8888.6389   -8195.5661 
   87800      291.468   -8833.5623    43.440538   -8877.0028    15689.472 
   88000    292.56653   -8827.2569    43.604262   -8870.8611     13364.01 
   88200    348.95187   -8830.6482    52.007962   -8882.6561   -23670.161 
   88400    259.29681    -8837.617    38.645728   -8876.2627   -15445.638 
   88600    355.99082   -8816.3687    53.057051   -8869.4258    25779.245 
   88800    306.93588   -8830.0123    45.745877   -8875.7582    17016.334 
   89000    331.84292    -8839.317    49.458035    -8888.775    4842.9095 
   89200     361.0898   -8832.3576    53.817006   -8886.1746   -12743.136 
   89400    310.33323    -8839.079     46.25222   -8885.3313   -20906.971 
   89600     304.0593   -8842.1152     45.31715   -8887.4324   -8711.1185 
   89800    369.01806    -8817.533    54.998637   -8872.5316   -7750.8087 
   90000     308.0785   -8829.6001    45.916175   -8875.5163    55803.464 
   90200    252.21402   -8837.7297    37.590105   -8875.3198    48828.752 
   90400    276.87057   -8834.9316    41.264929   -8876.1966     47437.93 
   90600    340.74505   -8831.4605    50.784813   -8882.2454   -28102.954 
   90800    280.00771   -8848.0851    41.732491   -8889.8176   -9007.9808 
   91000    297.39303   -8834.6984    44.323606    -8879.022    686.96695 
   91200    292.53396   -8831.4226    43.599409    -8875.022    5929.2313 
   91400    302.38491   -8829.6248    45.067599   -8874.6924    13994.954 
   91600    273.45185   -8842.8794    40.755402   -8883.6348    4568.5999 
   91800    311.17547    -8833.214    46.377749   -8879.5917   -4883.8672 
   92000    305.42561   -8831.4684    45.520787   -8876.9892   -5676.5832 
   92200    258.69521   -8842.6233    38.556065   -8881.1793    11859.088 
   92400     319.4937   -8834.0699    47.617502   -8881.6874   -8018.2764 
   92600      318.009   -8836.1438    47.396221     -8883.54    1180.3029 
   92800    278.83287   -8838.3391     41.55739   -8879.8965    -15287.66 
   93000    330.07211    -8828.683    49.194113   -8877.8771   -19749.202 
   93200    274.06748   -8841.6907    40.847156   -8882.5379    18355.887 
   93400     312.7357   -8835.9506    46.610285   -8882.5609   -6886.4956 
   93600    256.17115   -8834.2202    38.179878   -8872.4001   -43254.674 
   93800    346.08458   -8835.2682    51.580619   -8886.8488   -15543.816 
   94000    286.00066   -8836.8254    42.625682   -8879.4511   -15931.961 
   94200    328.71137   -8838.6091    48.991308   -8887.6004   -10900.828 
   94400    251.77823   -8847.4249    37.525153   -8884.9501    8555.3409 
   94600    332.76312   -8833.5188    49.595183    -8883.114   -1619.2007 
   94800    293.57105   -8836.6802    43.753977   -8880.4342   -13598.449 
   95000    248.28395   -8846.9568    37.004365   -8883.9612   -15238.985 
   95200    317.80213    -8828.608    47.365389   -8875.9734    12143.711 
   95400    273.59315   -8837.4211     40.77646   -8878.1976    7520.4195 
   95600    236.93985   -8850.7888    35.313634   -8886.1024   -14446.694 
   95800    312.31989   -8833.9448    46.548314   -8880.4931    1930.6534 
   96000    300.95913   -8833.8189      44.8551    -8878.674    288.47203 
   96200    220.51527    -8848.622    32.865707   -8881.4877   -5893.7951 
   96400    319.05952   -8829.4656    47.552791   -8877.0184   -10042.507 
   96600    268.86835   -8833.4172    40.072274   -8873.4894   -22196.366 
   96800    258.85212   -8845.3343     38.57945   -8883.9137    3403.8817 
   97000    323.40559   -8838.0845    48.200531   -8886.2851    -31757.64 
   97200     304.0999   -8830.3615    45.323202   -8875.6847    11742.007 
   97400    292.27364   -8842.2462     43.56061   -8885.8068   -8233.1462 
   97600    285.44576   -8843.0997     42.54298   -8885.6427   -30333.045 
   97800    291.58708    -8830.748    43.458284   -8874.2063    16489.146 
   98000    358.20602   -8828.7551    53.387205   -8882.1423   -3736.5466 
   98200    285.89848   -8833.1905    42.610453    -8875.801     53727.19 
   98400     311.7056   -8830.6021    46.456759   -8877.0589    -24250.57 
   98600    312.19358   -8839.0015    46.529487    -8885.531    10352.393 
   98800    317.96251   -8837.5484    47.389293   -8884.9377     -22458.9 
   99000    302.81457    -8826.003    45.131635   -8871.1346    -33030.16 
   99200    281.68051   -8836.1855    41.981805   -8878.1673    -13026.45 
   99400    269.46647   -8840.8218    40.161418   -8880.9832    22956.087 
   99600    347.21572   -8825.0982    51.749205   -8876.8474   -13198.789 
   99800    269.56688   -8844.2758    40.176384   -8884.4521    20747.563 
  100000    284.07764   -8835.4159    42.339074    -8877.755   -9438.6497 
  100200    331.87729   -8824.8063    49.463158   -8874.2695    38952.015 
  100400    264.70673   -8842.4204    39.452024   -8881.8724   -2689.5039 
  100600    329.84243   -8832.2622    49.159882   -8881.4221   -9100.5181 
  100800    274.93443   -8840.0495    40.976366   -8881.0259   -40401.791 
  101000    243.99403    -8849.066    36.364992    -8885.431    39374.186 
  101200    297.30037   -8832.6453    44.309797   -8876.9551    9759.9205 
  101400    315.56195   -8831.1517    47.031512   -8878.1833   -26703.942 
  101600    268.70791   -8837.8076    40.048362   -8877.8559    -3396.865 
  101800    219.28195   -8845.6382    32.681892   -8878.3201   -8068.2688 
  102000    336.53144   -8827.5246    50.156814   -8877.6815    24292.707 
  102200    342.53831    -8834.191    51.052082   -8885.2431   -1642.9412 
  102400    271.64846   -8849.1965    40.486623   -8889.6831   -9264.1598 
  102600    292.34364   -8833.6274    43.571043   -8877.1984   -543.05608 
  102800    255.72387     -8838.44    38.113215   -8876.5532    -2713.026 
  103000    250.73258   -8847.6954     37.36931   -8885.0647    16361.261 
  103200    293.59063   -8836.4891    43.756894    -8880.246     5826.491 
  103400     298.1926    -8834.715    44.442775   -8879.1578   -13217.237 
  103600    254.13419   -8844.1658    37.876287   -8882.0421   -11494.542 
  103800      330.616   -8826.6249    49.275175   -8875.9001   -9698.5888 
  104000    217.50692   -8842.2202    32.417341   -8874.6375    22916.331 
  104200    323.78097   -8834.9569    48.256478   -8883.2134   -2300.3605 
  104400     278.6602   -8836.5825    41.531656   -8878.1141    981.83101 
  104600    359.94807   -8816.6034    53.646841   -8870.2502    24568.999 
  104800    339.38381   -8831.7591    50.581933    -8882.341   -10661.287 
  105000    311.54577   -8844.1058    46.432938   -8890.5387   -13152.461 
  105200       261.51   -8833.2994    38.975582    -8872.275    37793.209 
  105400    310.04301   -8836.9733    46.208966   -8883.1822    14660.989 
  105600    265.25681   -8841.9014    39.534008   -8881.4354    9213.8188 
  105800    300.22311   -8826.4183    44.745403   -8871.1637    15445.095 
  106000    274.18877   -8836.9283    40.865232   -8877.7935    10501.574 
  106200     240.3397    -8836.949    35.820349   -8872.7693    7190.6092 
  106400    318.77431   -8832.5512    47.510284   -8880.0615   -11714.503 
  106600    360.81123    -8820.976    53.775487   -8874.7515   -26882.308 
  106800    292.51506   -8840.3008    43.596592   -8883.8974     4358.893 
  107000    332.70978   -8831.4989    49.587233   -8881.0861   -3401.1866 
  107200    308.78274   -8834.3116    46.021135   -8880.3327    9764.4182 
  107400      292.271   -8843.1902    43.560216   -8886.7504   -2400.4029 
  107600    302.27225   -8827.8112    45.050808    -8872.862   -21529.876 
  107800    318.27025   -8842.4631    47.435158   -8889.8982   -14089.131 
  108000    315.38528   -8841.7089     47.00518   -8888.7141    6789.4671 
  108200    319.56228   -8830.9001    47.627723   -8878.5279   -9931.5519 
  108400    308.46215   -8836.2959    45.973354   -8882.2693    2671.5673 
  108600    241.68337   -8848.1852    36.020611   -8884.2058    9512.6375 
  108800    310.21913   -8830.8082    46.235215   -8877.0434    16675.396 
  109000    296.94925   -8834.0602    44.257466   -8878.3177    10255.669 
  109200     282.7599   -8844.0824    42.142678   -8886.2251    -25936.77 
  109400     247.5489   -8850.7387    36.894812   -8887.6335   -5191.7777 
  109600    298.82899   -8833.5094    44.537624    -8878.047    14546.841 
  109800    306.77707   -8827.1882    45.722208   -8872.9105    13092.298 
  110000    263.31456   -8845.7188    39.244535   -8884.9633   -4086.4653 
  110200    320.21373   -8833.8446    47.724816   -8881.5694    24450.205 
  110400    263.53633   -8840.8575    39.277588   -8880.1351   -11269.257 
  110600    267.17078   -8849.4478    39.819268   -8889.2671     40091.68 
  110800    310.95542   -8834.2578    46.344952   -8880.6027   -1663.2543 
  111000    238.33403    -8838.908    35.521423   -8874.4294   -20909.296 
  111200    309.93079   -8842.4204    46.192241   -8888.6127   -45697.984 
  111400    328.74251   -8828.8652    48.995949   -8877.8611   -11701.401 
  111600    278.79545   -8833.8262    41.551814    -8875.378    3021.1772 
  111800    302.55149   -8844.5291    45.092426   -8889.6215    26806.509 
  112000    302.12788    -8826.696    45.029291   -8871.7252    15138.196 
  112200    257.46033   -8832.9794    38.372017   -8871.3514     -10729.8 
  112400    296.23994   -8841.6482     44.15175      -8885.8   -8163.7092 
  112600    361.60899   -8830.8967    53.894386   -8884.7911   -16496.281 
  112800    320.30322    -8828.141    47.738153   -8875.8791   -13127.339 
  113000    263.16189   -8842.9449     39.22178   -8882.1666    39386.497 
  113200    310.65176   -8836.9564    46.299694   -8883.2561   -26785.429 
  113400    358.06666   -8824.4864    53.366434   -8877.8528   -15854.877 
  113600    280.55342   -8840.4525    41.813822   -8882.2663    14984.791 
  113800    339.74161   -8839.0748     50.63526   -8889.7101    17398.219 
  114000     307.7395   -8825.3909    45.865649   -8871.2566   -1670.7325 
  114200     300.9631   -8834.5364    44.855692   -8879.3921   -4648.1663 
  114400    320.24332   -8832.8107    47.729225   -8880.5399   -4370.8568 
  114600    262.85456   -8820.1244    39.175976   -8859.3004   -21408.972 
  114800    278.56252   -8837.2723    41.517098   -8878.7894   -17871.497 
  115000    345.41009   -8837.1349    51.480093    -8888.615   -21789.683 
  115200    362.68427   -8820.4824    54.054646   -8874.5371    14192.489 
  115400    305.46993   -8841.0893    45.527392   -8886.6167   -31880.782 
  115600    322.65577   -8832.3923    48.088778   -8880.4811   -17184.826 
  115800    327.97022   -8832.8811    48.880847    -8881.762    -29901.09 
  116000    259.16219   -8846.9352    38.625663   -8885.5609    42.354208 
  116200    314.29473   -8829.0128    46.842645   -8875.8555   -11331.424 
  116400    385.88485   -8832.4517    57.512472   -8889.9642    3392.3161 
  116600     284.9911   -8843.2008    42.475216    -8885.676   -605.00415 
  116800     301.4489    -8822.489    44.928096   -8867.4171    28078.172 
  117000    296.33571   -8835.7923    44.166023   -8879.9583    8105.5082 
  117200    265.82003   -8841.4716    39.617951   -8881.0895    12777.823 
  117400    309.07245   -8836.6132    46.064314   -8882.6775   -22047.266 
  117600    344.19671   -8823.2293     51.29925   -8874.5286    7849.2426 
  117800    300.10141   -8842.5842    44.727265   -8887.3115   -39701.961 
  118000    282.48525   -8838.5409    42.101744   -8880.6427   -26775.911 
  118200    342.23562   -8822.5715    51.006968   -8873.5785    -54508.93 
  118400    333.49967   -8829.8354    49.704958   -8879.5404   -7731.0654 
  118600    285.52989   -8844.2717    42.555518   -8886.8273    6165.2643 
  118800    322.09228   -8828.1403    48.004795   -8876.1451    27618.125 
  119000    312.52175   -8833.9347    46.578398   -8880.5131   -2609.4577 
  119200    258.73224   -8840.8727    38.561584   -8879.4343   -12120.284 
  119400    293.78363   -8829.1802    43.785659   -8872.9659   -1579.8807 
  119600     268.7054   -8844.9541    40.047987   -8885.0021    24254.024 
  119800    265.03774   -8840.7952    39.501358   -8880.2965   -31173.762 
  120000    329.67324   -8834.3235    49.134665   -8883.4582    158.57021 
  120200     337.8371   -8833.0741    50.351411   -8883.4255    9379.5748 
  120400    282.36792   -8845.4745    42.084256   -8887.5587   -45495.197 
  120600    319.71067   -8829.2906    47.649839   -8876.9404   -13142.906 
  120800    312.91482   -8833.7407    46.636982   -8880.3777   -6404.9756 
  121000    309.66597   -8846.0323    46.152771    -8892.185   -4281.5446 
  121200    286.32934   -8843.8739    42.674668   -8886.5486    8160.1203 
  121400      294.614   -8835.7012    43.909419   -8879.6106   -4786.3454 
  121600     308.7949   -8825.6499    46.022947   -8871.6728   -41874.684 
  121800    330.41198   -8831.0226    49.244768   -8880.2674    -18746.06 
  122000    279.31288   -8840.4501    41.628933    -8882.079    -2161.764 
  122200    333.51998   -8824.5836    49.707986   -8874.2916    9712.9644 
  122400    253.74845   -8839.0102    37.818797    -8876.829    24153.319 
  122600    315.07316   -8837.0533    46.958662    -8884.012   -9183.9356 
  122800    331.47252   -8826.3895    49.402832   -8875.7924   -16547.279 
  123000    328.15558   -8819.6221    48.908473   -8868.5306    1889.5622 
  123200    295.35322   -8836.7578    44.019592   -8880.7774    20939.206 
  123400    270.43578    -8835.822    40.305884   -8876.1278    6243.2859 
  123600    370.58128   -8819.5538    55.231619   -8874.7854    376.46981 
  123800    315.91591    -8833.582    47.084266   -8880.6663    35043.369 
  124000    322.62817   -8836.4165    48.084665   -8884.5012   -14556.891 
  124200    267.81608   -8848.8708    39.915443   -8888.7862    14307.747 
  124400    278.90546   -8831.4015     41.56821   -8872.9697    19098.435 
  124600    330.19609   -8834.7727    49.212591   -8883.9853    11340.297 
  124800     268.5787    -8850.064    40.029104   -8890.0931   -12510.732 
  125000    291.01346    -8834.804    43.372792   -8878.1768   -25885.309 
  125200    317.05277   -8828.2899    47.253704   -8875.5436    -18235.49 
  125400    270.92996   -8845.3336    40.379538   -8885.7131    8192.6087 
  125600    319.26582   -8839.9302    47.583539   -8887.5138    6751.0011 
  125800    320.59175   -8834.4556    47.781156   -8882.2367     -9989.09 
  126000    304.45904    -8836.958    45.376728   -8882.3347   -12118.541 
  126200    242.44538   -8846.2618    36.134181    -8882.396   -26499.636 
  126400    321.77434   -8835.7516     47.95741    -8883.709   -11675.832 
  126600    349.30153   -8830.0887    52.060075   -8882.1488    6816.6226 
  126800    226.18688   -8845.1683    33.711007   -8878.8793    14156.375 
  127000    221.12756   -8854.0503    32.956963   -8887.0073   -11475.523 
  127200    286.57285   -8837.0254    42.710962   -8879.7364   -31584.007 
  127400     330.6419   -8829.7954    49.279035   -8879.0744    3812.5642 
  127600    280.47513   -8836.6561    41.802155   -8878.4583   -20725.482 
  127800    273.75732   -8846.7662    40.800929   -8887.5672   -11845.787 
  128000    271.03137   -8828.1187    40.394651   -8868.5133    28996.242 
  128200    312.54813   -8832.8579    46.582331   -8879.4402    12545.624 
  128400    266.93627   -8842.0588    39.784316   -8881.8431    23848.315 
  128600    293.76707   -8835.8907    43.783192   -8879.6739   -21623.057 
  128800    350.48339   -8832.7568    52.236221    -8884.993    21081.237 
  129000    254.50932    -8849.762    37.932197   -8887.6942    10033.635 
  129200     292.6914   -8836.1467    43.622873   -8879.7696    -12164.41 
  129400    361.08409   -8835.0349    53.816154   -8888.8511   -19540.841 
  129600    256.38073   -8849.4141    38.211112   -8887.6253    4296.9048 
  129800    289.56089   -8835.4136    43.156301   -8878.5699    21166.483 
  130000    314.72938   -8833.3099    46.907425   -8880.2173    30729.935 
  130200    383.31148   -8819.7019    57.128935   -8876.8308    7853.0489 
  130400    307.84259   -8835.7365    45.881014   -8881.6175   -16953.905 
  130600     289.6589   -8837.6063    43.170909   -8880.7772   -36794.333 
  130800    334.28384   -8819.9315    49.821832   -8869.7534   -6503.0556 
  131000     312.4307   -8833.9763    46.564829   -8880.5411    14879.055 
  131200    299.26773   -8837.3847    44.603014   -8881.9877    20263.258 
  131400    345.19865     -8823.42    51.448581   -8874.8686    8576.2329 
  131600    299.82801   -8835.5925    44.686518    -8880.279    4907.6897 
  131800    293.94211   -8838.7928     43.80928    -8882.602   -15503.019 
  132000    327.99909   -8824.7184    48.885149   -8873.6035   -32641.422 
  132200     304.9758   -8830.6624    45.453747   -8876.1161   -14811.325 
  132400    284.60431   -8842.5284    42.417569    -8884.946      10277.2 
  132600     330.3919   -8831.8509    49.241775   -8881.0927    487.87368 
  132800    277.25119   -8830.0268    41.321657   -8871.3485    47874.523 
  133000    328.04572   -8836.5255      48.8921   -8885.4176    31032.085 
  133200    278.11768   -8838.9511    41.450799   -8880.4019   -11001.402 
  133400    342.71058   -8832.8694    51.077757   -8883.9472   -3047.5044 
  133600    310.97129   -8826.8432    46.347317   -8873.1905   -20010.497 
  133800    280.06337   -8842.6785    41.740786   -8884.4193   -19009.807 
  134000    264.76721   -8836.6612    39.461038   -8876.1222    8098.8588 
  134200    352.08583   -8814.9749    52.475049   -8867.4499    21907.616 
  134400     335.8712   -8832.6337    50.058413   -8882.6921   -11589.261 
  134600     267.6065   -8835.3301    39.884207   -8875.2144    184.72556 
  134800    321.38285   -8823.6355    47.899061   -8871.5346   -2091.2223 
  135000    288.93775    -8834.054    43.063428   -8877.1174    48088.731 
  135200    300.41612   -8837.3032    44.774169   -8882.0774   -27715.897 
  135400    358.30625   -8817.9751    53.402144   -8871.3772   -24502.461 
  135600    337.26146   -8829.5823    50.265617   -8879.8479    18968.825 
  135800     321.9767   -8837.4352    47.987569   -8885.4227    11888.632 
  136000    306.31795   -8826.9718    45.653781   -8872.6256   -10509.126 
  136200     311.6583   -8827.6527     46.44971   -8874.1024   -36164.087 
  136400    351.20161   -8839.2763    52.343265   -8891.6196    21450.179 
  136600    299.34782    -8830.668    44.614949    -8875.283    19279.672 
  136800    348.95603   -8818.9976    52.008582   -8871.0062   -12157.337 
  137000    241.33407   -8836.2069    35.968551   -8872.1754       5878.4 
  137200    293.86725   -8838.9624    43.798123   -8882.7605   -7132.9127 
  137400    246.84799    -8827.393    36.790349   -8864.1834    27124.382 
  137600    272.06107   -8839.1066    40.548119   -8879.6547   -3948.0572 
  137800    242.07183    -8847.888    36.078507   -8883.9665    23624.734 
  138000    298.86278   -8832.8443     44.54266    -8877.387   -43942.057 
  138200    301.01377   -8835.9768    44.863243   -8880.8401    17522.749 
  138400    287.10873   -8837.7933    42.790829   -8880.5842     29689.46 
  138600    303.64068    -8823.873    45.254759   -8869.1278   -2259.1639 
  138800    277.05085   -8836.9207    41.291799   -8878.2125   -7935.3026 
  139000    306.67819   -8836.2573    45.707471   -8881.9648     7370.767 
  139200    289.28224   -8830.7649    43.114771   -8873.8797   -5248.4925 
  139400    280.56412   -8828.8947    41.815417   -8870.7101    22887.206 
  139600    236.82515   -8841.4364     35.29654   -8876.7329    68260.434 
  139800    288.21525    -8838.322    42.955745   -8881.2777    9906.7475 
  140000    299.29601   -8835.3031    44.607228   -8879.9103   -8150.1709 
  140200    357.65353   -8826.8507    53.304862   -8880.1556    7480.9473 
  140400    285.79628   -8841.7552    42.595221   -8884.3504    40605.996 
  140600    346.00154    -8828.034    51.568244   -8879.6022    7695.9187 
  140800    269.78631   -8844.3172    40.209088   -8884.5263    18348.914 
  141000     350.2456   -8836.5432    52.200781    -8888.744    -21211.82 
  141200     343.6514   -8827.7374    51.217978   -8878.9554   -3166.2711 
  141400    341.45954   -8818.1349    50.891302   -8869.0262    22668.004 
  141600    306.38687    -8842.351    45.664053   -8888.0151   -14815.624 
  141800    299.80597    -8833.973    44.683232   -8878.6562    13592.475 
  142000    328.90846   -8832.5146    49.020683   -8881.5353    29521.832 
  142200    248.85435   -8835.9134    37.089377   -8873.0028    9501.7268 
  142400    293.34219    -8834.529    43.719868   -8878.2488    6207.4188 
  142600    323.11841   -8835.4214     48.15773   -8883.5791   -3250.5986 
  142800    287.88859   -8833.7397    42.907061   -8876.6468    6228.6403 
  143000    279.53523   -8839.9853    41.662071   -8881.6474   -21256.516 
  143200    268.80641   -8846.4125    40.063042   -8886.4755    8616.7417 
  143400    297.12331    -8831.804    44.283407   -8876.0874   -12128.605 
  143600    272.74856   -8842.6198    40.650582   -8883.2703   -12319.638 
  143800    354.55869   -8831.1866    52.843605   -8884.0302   -14943.957 
  144000    322.49058   -8834.4661    48.064159   -8882.5303   -3321.4577 
  144200    295.78279   -8842.0253    44.083616   -8886.1089      28736.5 
  144400    317.33684   -8829.2714    47.296043   -8876.5674    13097.389 
  144600     321.5385   -8832.2369    47.922259   -8880.1592    13044.041 
  144800    295.59773   -8846.6866    44.056035   -8890.7426    877.42768 
  145000     321.1329   -8834.0362    47.861808    -8881.898   -18913.033 
  145200    296.39779   -8833.0872    44.175276   -8877.2625   -23793.396 
  145400    265.02652   -8843.3395    39.499686   -8882.8392    20606.103 
  145600    311.05646   -8821.6709    46.360011   -8868.0309   -5922.4108 
  145800    343.91417   -8828.6036    51.257141   -8879.8608   -4733.6459 
  146000    295.66592   -8840.7362    44.066197   -8884.8024    29009.094 
  146200     344.1475   -8832.5869    51.291916   -8883.8789   -6252.6796 
  146400     357.1852   -8819.3679    53.235061    -8872.603   -2774.9087 
  146600    302.87796   -8831.5126    45.141084   -8876.6537   -38168.343 
  146800    344.53802   -8837.8244    51.350119   -8889.1746   -5664.0049 
  147000    321.12757   -8828.6763    47.861014   -8876.5374    8257.0211 
  147200    351.27211   -8827.8751    52.353772   -8880.2289     38119.37 
  147400    272.49379    -8842.395    40.612611   -8883.0076   -13956.535 
  147600    294.47168   -8829.9904    43.888207   -8873.8786   -4819.1936 
  147800    354.60631   -8817.5632    52.850703   -8870.4139   -9074.9309 
  148000    286.41182   -8844.2122    42.686962   -8886.8992    9190.7253 
  148200    277.85887   -8833.4384    41.412226   -8874.8507    14529.361 
  148400    298.87679   -8834.9443    44.544747   -8879.4891    12878.221 
  148600    287.90491   -8848.7865    42.909492    -8891.696   -3550.4582 
  148800     286.1603    -8838.654    42.649474   -8881.3034    16697.071 
  149000    324.97067   -8828.9817    48.433792   -8877.4155    14976.538 
  149200    254.56216   -8847.1852    37.940073   -8885.1253    2318.8976 
  149400    282.83082   -8844.3065    42.153247   -8886.4598    616.02079 
  149600    337.99349   -8832.7468     50.37472   -8883.1215    36424.911 
  149800    251.81394   -8840.1019    37.530477   -8877.6324   -2573.1679 
  150000    283.12265   -8837.3493    42.196742   -8879.5461   -30687.169 
  150200    340.32978   -8825.2821    50.722922    -8876.005    10110.387 
  150400    261.50973   -8843.3275    38.975541    -8882.303    6995.5778 
  150600    282.34455   -8838.1899    42.080773   -8880.2707    908.42967 
  150800    395.03224   -8823.5786    58.875803   -8882.4544     -4192.73 
  151000    269.14575   -8845.6507    40.113618   -8885.7643    13846.428 
  151200    330.69117   -8832.8154    49.286378   -8882.1018   -29111.697 
  151400    339.93869     -8826.85    50.664633   -8877.5146   -23187.595 
  151600    292.77521   -8845.2848    43.635364   -8888.9201    12016.768 
  151800    287.13449   -8844.2873    42.794668    -8887.082   -15292.174 
  152000    316.52424   -8830.6749    47.174932   -8877.8499   -4940.4922 
  152200    288.58694   -8843.7629    43.011143   -8886.7741   -7797.3308 
  152400    336.45373     -8827.46    50.145234   -8877.6052   -22892.036 
  152600    308.48886   -8834.1888    45.977335   -8880.1661   -25563.335 
  152800    260.51186   -8840.0812    38.826819    -8878.908    18646.736 
  153000    319.81182    -8820.122    47.664914   -8867.7869     9370.606 
  153200    339.22133   -8830.2673    50.557718    -8880.825   -35492.592 
  153400    293.93455    -8835.446    43.808152   -8879.2542    5477.1915 
  153600    297.27915   -8830.7862    44.306634   -8875.0928    1079.9472 
  153800    368.26553   -8824.2443    54.886479   -8879.1308    -4906.978 
  154000    254.59492   -8839.8138    37.944955   -8877.7587   -17676.037 
  154200    294.91404   -8843.1648    43.954137    -8887.119    26260.636 
  154400    330.39767     -8829.41    49.242635   -8878.6526   -3974.4935 
  154600     299.1251   -8836.0647    44.581755   -8880.6465    21585.307 
  154800    263.46168    -8845.725    39.266461   -8884.9915   -11175.975 
  155000    274.12348   -8838.2701    40.855502   -8879.1256    4212.2892 
  155200    275.65349   -8828.8223    41.083534   -8869.9058   -17142.888 
  155400    305.37658   -8827.4066    45.513479   -8872.9201     30601.63 
  155600    306.04583   -8841.7873    45.613225   -8887.4005   -5378.9038 
  155800    311.12947   -8830.0091    46.370892     -8876.38   -24934.859 
  156000    290.91923   -8825.1516    43.358748   -8868.5104    -13165.59 
  156200     283.5532   -8836.3741    42.260912    -8878.635   -9276.6622 
  156400    303.00106     -8833.37    45.159431   -8878.5294   -7784.1328 
  156600    345.24448   -8816.3533    51.455411   -8867.8087    -13944.66 
  156800    292.97824   -8837.5196    43.665624   -8881.1853   -316.53053 
  157000    265.31524   -8840.7841    39.542717   -8880.3268    11663.158 
  157200    285.08797   -8825.9009    42.489654   -8868.3905    9951.5027 
  157400    323.99295   -8832.4934    48.288073   -8880.7814    21177.639 
  157600    333.98121   -8833.1608    49.776727   -8882.9375    21408.918 
  157800    273.17508   -8847.7826    40.714152   -8888.4968    1411.0021 
  158000    277.64181   -8843.8762    41.379875   -8885.2561   -6143.0538 
  158200    305.98591   -8836.3785    45.604294   -8881.9828   -23384.668 
  158400    353.56119   -8817.3213    52.694937   -8870.0162   -21932.591 
  158600    303.86362   -8838.4481    45.287987   -8883.7361   -19148.006 
  158800    282.90181   -8835.9543    42.163827   -8878.1182    6005.5395 
  159000    330.40006   -8825.5769    49.242991   -8874.8199    3804.5315 
  159200    292.96324   -8840.4464    43.663388   -8884.1097    -7270.053 
  159400    262.41909   -8837.9685    39.111073   -8877.0796    75.023385 
  159600    297.88673   -8826.7528    44.397187     -8871.15   -22161.339 
  159800    354.33718   -8820.8807    52.810591   -8873.6913    8362.3165 
  160000    314.72107   -8837.3021    46.906186   -8884.2083    9831.8381 
  160200    273.50565   -8832.7668    40.763419   -8873.5302   -5494.5803 
  160400    284.40028   -8828.3593     42.38716   -8870.7464    16362.563 
  160600    253.55588   -8842.3461    37.790095   -8880.1361   -24686.169 
  160800    345.06324   -8830.8188    51.428399   -8882.2472    34075.549 
  161000    347.05249   -8831.9326    51.724877   -8883.6575   -19952.841 
  161200     314.4869   -8842.9524    46.871286   -8889.8237   -20424.426 
  161400    252.88333   -8838.7928    37.689858   -8876.4826   -38898.411 
  161600     311.0016   -8828.1189    46.351834   -8874.4707   -16047.014 
  161800    285.05776   -8839.5843    42.485152   -8882.0694   -1680.6622 
  162000    260.92397   -8849.9433     38.88824   -8888.8316    11733.563 
  162200    296.32541   -8833.7696    44.164489    -8877.934   -15962.438 
  162400     332.1809   -8830.9637    49.508409   -8880.4721   -7957.4964 
  162600    296.27285   -8846.1743    44.156654   -8890.3309    22577.343 
  162800    202.90872   -8858.9377    30.241618   -8889.1793    7311.8861 
  163000    279.06062   -8840.1702    41.591335   -8881.7615   -20881.271 
  163200    303.29648   -8831.8418     45.20346   -8877.0453    1301.3444 
  163400     294.5815   -8844.1276    43.904575   -8888.0322   -448.23885 
  163600    278.16441   -8839.2417    41.457764   -8880.6995    28231.547 
  163800    387.68712   -8826.2086    57.781083   -8883.9897   -9360.4185 
  164000    251.63577   -8841.4278    37.503922   -8878.9317   -11016.429 
  164200    336.89359   -8838.2832    50.210791    -8888.494    7310.2106 
  164400    366.51913   -8817.1657    54.626196   -8871.7919    23839.267 
  164600    364.97991   -8825.9965    54.396789   -8880.3933   -7292.9947 
  164800    270.32461   -8838.2019    40.289316   -8878.4912   -20747.268 
  165000    332.45711   -8826.9353    49.549575   -8876.4848    17778.403 
  165200    349.50095   -8821.1196    52.089797   -8873.2094   -15571.322 
  165400    294.61158   -8839.3832    43.909058   -8883.2923    3313.2895 
  165600    286.60968   -8831.8587    42.716451   -8874.5752    8090.4448 
  165800    351.83772   -8830.9389     52.43807    -8883.377   -3633.9995 
  166000    312.72692   -8843.1181    46.608978   -8889.7271   -16750.651 
  166200    319.47354    -8830.232    47.614497   -8877.8465   -362.25455 
  166400    343.36303   -8831.2363    51.174998   -8882.4113    9710.3726 
  166600    284.36004   -8839.9991    42.381164   -8882.3802    15578.671 
  166800    341.23817   -8827.4469    50.858308   -8878.3052   -41251.202 
  167000    225.06571   -8846.7369    33.543907   -8880.2808   -14294.349 
  167200    293.55268   -8834.3056    43.751239   -8878.0568   -9548.0092 
  167400    314.21818   -8831.6232    46.831236   -8878.4544   -16199.225 
  167600    286.33922   -8840.7493    42.676142   -8883.4254   -12187.688 
  167800    293.08065   -8839.9394    43.680887   -8883.6203   -2525.6135 
  168000    376.70015   -8826.1449     56.14358   -8882.2885   -5515.0964 
  168200    274.60218   -8835.8257    40.926847   -8876.7525    -9124.728 
  168400    284.16904   -8845.9171    42.352697   -8888.2698    723.02296 
  168600    313.58172   -8841.3943    46.736377   -8888.1307   -11465.511 
  168800    341.65207   -8825.3637    50.919996   -8876.2837    34531.002 
  169000    295.82264   -8838.8409    44.089555   -8882.9304    24097.203 
  169200    287.80455   -8836.7084    42.894534    -8879.603    21158.048 
  169400    262.05952   -8830.9754    39.057482   -8870.0329   -1904.6046 
  169600    316.95019   -8834.3496    47.238416    -8881.588   -903.61797 
  169800    301.60567   -8839.7534    44.951461   -8884.7048    1247.4984 
  170000    302.11629   -8846.0294    45.027563   -8891.0569    3465.6049 
  170200    295.36028   -8831.4039    44.020644   -8875.4245    5518.6863 
  170400    288.40922   -8837.8296    42.984655   -8880.8143   -12809.274 
  170600    243.03711   -8848.6889    36.222373   -8884.9112    54746.121 
  170800    307.88085   -8830.8756    45.886716   -8876.7623   -15151.005 
  171000    275.67538   -8833.8251    41.086797   -8874.9118    36553.312 
  171200    272.53074   -8844.7666    40.618118   -8885.3847    24105.269 
  171400    319.47561   -8841.3512    47.614806    -8888.966   -3941.0147 
  171600    293.38116   -8827.7316    43.725676   -8871.4573   -29195.343 
  171800    269.91465   -8841.2029    40.228215   -8881.4311   -4804.0163 
  172000    304.14162   -8841.6639     45.32942   -8886.9933   -554.62654 
  172200    332.67072   -8836.4623    49.581411   -8886.0437    -20356.71 
  172400    314.28193   -8829.8324    46.840737   -8876.6731   -4005.2518 
  172600    287.59904   -8836.4681    42.863906    -8879.332    -26732.15 
  172800    279.62233   -8846.6979    41.675053   -8888.3729     10207.93 
  173000    347.68133   -8826.5608      51.8186   -8878.3794    7514.0581 
  173200    275.72939    -8838.681    41.094846   -8879.7759     16137.09 
  173400    299.39429   -8841.4791    44.621876    -8886.101    11817.564 
  173600    329.83634   -8821.0865    49.158974   -8870.2454     16643.56 
  173800       296.46   -8837.9725    44.184547   -8882.1571   -26779.589 
  174000    331.51685   -8835.8014    49.409437   -8885.2108    18758.745 
  174200    309.15992   -8823.2096     46.07735   -8869.2869   -14331.568 
  174400    273.83987   -8830.1558    40.813231   -8870.9691    16261.268 
  174600    267.44058    -8840.729    39.859479   -8880.5884   -13220.843 
  174800    280.10276   -8826.8405    41.746656   -8868.5872   -10487.763 
  175000    312.67402    -8826.951    46.601093   -8873.5521    7733.8353 
  175200    349.16659   -8835.8135    52.039964   -8887.8535   -40625.874 
  175400    339.27425   -8835.2189    50.565604   -8885.7845    11705.716 
  175600    335.60358   -8824.9636    50.018527   -8874.9821   -32549.066 
  175800    279.99896   -8838.0922    41.731186   -8879.8234   -24682.767 
  176000    279.10131   -8847.8501    41.597399   -8889.4475   -12877.082 
  176200    293.14566    -8826.934    43.690577   -8870.6246    7796.6188 
  176400    256.14249   -8838.9368    38.175605   -8877.1124    4241.2804 
  176600    276.03679   -8846.3973    41.140662   -8887.5379   -12312.609 
  176800    320.22736   -8830.2698    47.726846   -8877.9966   -18330.466 
  177000    305.06508   -8830.4738    45.467053   -8875.9408    34626.255 
  177200    269.26247   -8848.2181    40.131014   -8888.3491    9521.8414 
  177400    282.49393   -8838.9406    42.103037   -8881.0436   -36992.459 
  177600    268.27003   -8833.9474    39.983101   -8873.9305    38648.972 
  177800    290.72633   -8839.4177    43.329998   -8882.7477    9710.6763 
  178000    293.39204     -8846.36    43.727297   -8890.0873     23861.14 
  178200    335.10717   -8828.3522     49.94454   -8878.2968     27240.34 
  178400    321.24505   -8838.0629    47.878523   -8885.9414   -16392.796 
  178600    257.99572   -8839.7877    38.451812   -8878.2395   -20022.495 
  178800    367.49332    -8832.026    54.771389   -8886.7973    48354.147 
  179000     250.7898    -8841.813    37.377838   -8879.1908   -547.83433 
  179200     219.6302   -8849.5915    32.733795   -8882.3253   -14174.802 
  179400    310.81897   -8834.0995    46.324615   -8880.4242    -31872.11 
[...]
  950000    333.89816    -8891.452     49.76435   -8941.2163   -22590.675 
  950200    267.25008   -8903.8162    39.831087   -8943.6473    7198.4953 
  950400    280.87438    -8893.306    41.861659   -8935.1677   -32033.207 
  950600    322.33606   -8893.6565    48.041128   -8941.6976   -948.15748 
  950800    295.51748   -8893.0027    44.044074   -8937.0468   -1050.4284 
  951000    303.86784   -8881.8296    45.288615   -8927.1183   -6513.4164 
  951200    288.24289   -8895.3554    42.959865   -8938.3152   -25543.075 
  951400     281.9856   -8892.6801    42.027276   -8934.7074   -2129.1632 
  951600    364.17607    -8874.044    54.276985    -8928.321   -22798.164 
  951800     295.4484   -8890.1163    44.033778   -8934.1501    4195.9696 
  952000    320.39403   -8893.8819    47.751688   -8941.6335    7758.1391 
  952200    388.93046   -8875.3453    57.966392   -8933.3117   -651.03347 
  952400    301.82186   -8892.9072    44.983681   -8937.8909   -24848.888 
  952600    300.35923   -8893.4736     44.76569   -8938.2393     -25785.5 
  952800    276.08149   -8896.4315    41.147324   -8937.5789   -10859.564 
  953000    296.99392    -8890.335    44.264123   -8934.5991   -27424.929 
  953200    329.60365   -8878.0576    49.124293   -8927.1819   -10633.424 
  953400    237.21058   -8896.9191    35.353984    -8932.273   -11637.856 
  953600    278.33829   -8895.4621    41.483679   -8936.9458   -12245.974 
  953800    263.76074    -8889.719    39.311033     -8929.03   -13871.218 
  954000    325.95568    -8882.847    48.580598   -8931.4276    9207.4873 
  954200     266.9534   -8896.4931    39.786869     -8936.28    2079.2143 
  954400    301.22809   -8887.8388    44.895185    -8932.734    20492.598 
  954600    309.09229    -8887.589     46.06727   -8933.6563    5205.9403 
  954800    311.14608   -8889.4293    46.373368   -8935.8026    10197.837 
  955000    351.66901   -8882.3837    52.412926   -8934.7966    8972.4093 
  955200    294.03401   -8889.7965    43.822977   -8933.6195    32957.281 
  955400    278.06375    -8899.407    41.442761   -8940.8498   -10794.841 
  955600    320.15175   -8882.0277    47.715578   -8929.7433   -34238.309 
  955800    310.48313    -8894.615    46.274561   -8940.8895    1571.3464 
  956000    314.03761   -8896.7891    46.804323   -8943.5934   -26801.465 
  956200    355.54956   -8876.2797    52.991285    -8929.271   -25343.059 
  956400    309.05865   -8889.4956    46.062257   -8935.5579    7386.7614 
  956600    279.02107   -8893.9499     41.58544   -8935.5353   -23062.206 
  956800    358.70113   -8878.7244    53.460996   -8932.1854    4509.5626 
  957000    308.47795   -8890.3191    45.975709   -8936.2948     9273.871 
  957200    316.60915   -8897.8242    47.187588   -8945.0118    13144.052 
  957400    336.14228   -8881.9401    50.098814   -8932.0389   -22094.883 
  957600    319.41279   -8891.9691    47.605443   -8939.5745   -21863.748 
  957800    292.56109   -8893.6893    43.603452   -8937.2927    13169.407 
  958000    310.48832   -8890.1767    46.275335    -8936.452    14399.023 
  958200    289.33101   -8893.2895     43.12204   -8936.4115    1991.5744 
  958400    343.62784   -8890.9932    51.214466   -8942.2077    -14778.48 
  958600     359.5815   -8878.3364    53.592207   -8931.9286   -7039.2914 
  958800     331.8214   -8896.2434    49.454828   -8945.6982    3488.7792 
  959000    289.72231   -8894.6281    43.180358   -8937.8085   -8844.8764 
  959200    361.82248   -8877.7844    53.926204   -8931.7106    -4380.856 
  959400    287.90379    -8882.275    42.909326   -8925.1843   -16908.985 
  959600    235.69665   -8896.6346    35.128347    -8931.763   -7414.9862 
  959800    244.40203   -8891.8995    36.425802   -8928.3253    7854.7655 
  960000    290.64176   -8879.9132    43.317393   -8923.2306    23550.314 
  960200    277.59245   -8891.6108    41.372519   -8932.9833    9568.2833 
  960400    318.15486   -8892.2476    47.417959   -8939.6655   -22193.666 
  960600    317.08805   -8884.9328    47.258963   -8932.1918   -21423.707 
  960800    353.16187   -8886.5988    52.635423   -8939.2342   -576.51591 
  961000    294.64743   -8900.3346    43.914401    -8944.249   -8867.7932 
  961200     325.0654   -8887.5552    48.447911   -8936.0032    25428.374 
  961400    286.05962    -8891.442     42.63447   -8934.0765    621.16583 
  961600    275.41005   -8895.9078    41.047252   -8936.9551   -7788.9577 
  961800     284.7842   -8900.6559    42.444381   -8943.1003    -3192.222 
  962000     335.1314   -8883.6505    49.948153   -8933.5986    5451.7717 
  962200    305.67214   -8888.2792    45.557529   -8933.8368    24470.891 
  962400    270.98486   -8907.2693    40.387719   -8947.6571   -6783.3124 
  962600    323.67323   -8894.1096    48.240421     -8942.35   -13992.706 
  962800    352.44476   -8888.1474    52.528544    -8940.676    3495.1526 
  963000    307.04779   -8899.7684    45.762558   -8945.5309   -34613.526 
  963200    283.29056   -8895.8832    42.221767    -8938.105   -20331.501 
  963400    311.75819   -8883.7033    46.464598   -8930.1679    8912.4234 
  963600    303.64428   -8893.9043    45.255296   -8939.1596    -3424.882 
  963800    228.16992   -8907.3904     34.00656    -8941.397   -4579.1584 
  964000    284.79092   -8897.5172    42.445381   -8939.9626    5344.4456 
  964200    332.66271   -8887.7014    49.580217   -8937.2816   -11815.181 
  964400    304.47993   -8895.3631    45.379841   -8940.7429     -17491.5 
  964600    220.00408   -8904.4466    32.789519   -8937.2361    9514.4046 
  964800    330.56774    -8886.998    49.267981    -8936.266    9104.1467 
  965000    352.30313   -8892.7719    52.507436   -8945.2793    14831.379 
  965200    255.50872   -8901.3107    38.081147   -8939.3918   -3629.6142 
  965400    321.86684   -8890.0056    47.971195   -8937.9768   -4004.2385 
  965600    300.71807   -8889.4328    44.819172    -8934.252   -6819.8145 
  965800    311.43083   -8888.1952    46.415808    -8934.611   -10374.518 
  966000    278.52897    -8893.271    41.512097   -8934.7831   -1856.0394 
  966200    291.83509   -8899.4664    43.495248   -8942.9616   -1571.4453 
  966400     312.2551   -8882.6324    46.538657   -8929.1711   -19647.194 
  966600    306.26466   -8892.5502    45.645839   -8938.1961    11496.676 
  966800    292.51067   -8897.7087    43.595937   -8941.3046   -12175.325 
  967000    303.34525   -8887.0077    45.210729   -8932.2184    5815.9992 
  967200    272.25214   -8888.9948    40.576595   -8929.5714   -5757.2913 
  967400    267.43073   -8899.8045     39.85801   -8939.6625    12423.685 
  967600    331.24589   -8888.5449    49.369053   -8937.9139    1775.7642 
  967800    301.34283   -8891.8646    44.912286   -8936.7769   -21160.349 
  968000     294.5107   -8901.8808    43.894022   -8945.7748   -12737.041 
  968200    282.19713   -8885.4075    42.058803   -8927.4663   -24044.951 
  968400    379.93767   -8860.2917    56.626102   -8916.9178   -4971.1254 
  968600    355.68879    -8884.151    53.012035   -8937.1631   -13715.423 
  968800    244.49556   -8898.4052    36.439741   -8934.8449   -4223.9366 
  969000    326.96572   -8884.5152    48.731135   -8933.2463    1582.3543 
  969200    270.41761   -8886.6975    40.303176   -8927.0007   -42739.847 
  969400    303.27899   -8896.1538    45.200853   -8941.3547    12042.966 
  969600    284.30735   -8895.3849    42.373311   -8937.7582    30140.983 
  969800    282.39882    -8893.107    42.088862   -8935.1959   -17274.939 
  970000    291.57869   -8886.8665    43.457035   -8930.3236    14252.009 
  970200     281.2788   -8888.7308    41.921934   -8930.6527   -34837.664 
  970400     289.4828   -8897.0056    43.144661   -8940.1502    7330.6206 
  970600    321.01084   -8876.3035    47.843617   -8924.1471   -10934.933 
  970800    278.65233    -8889.571    41.530484   -8931.1014    6457.3111 
  971000     303.3774   -8894.0127     45.21552   -8939.2282    8982.2825 
  971200    241.07394   -8891.9975    35.929781   -8927.9273    39120.921 
  971400    348.84879   -8882.9473    51.992599   -8934.9399    19029.063 
  971600    323.83278   -8879.8429    48.264201   -8928.1071    6778.4196 
  971800    307.11652   -8894.8075      45.7728   -8940.5803    1358.9119 
  972000    240.11923     -8899.37     35.78749   -8935.1574    18571.739 
  972200    349.57123    -8881.596    52.100272   -8933.6963   -5570.1722 
  972400    304.71818    -8895.019    45.415351   -8940.4343   -6130.3742 
  972600    240.85659   -8895.6115    35.897387   -8931.5089    10316.907 
  972800    285.39237   -8891.9116    42.535022   -8934.4466    14674.624 
  973000    284.50706   -8888.8528    42.403076   -8931.2559    11852.227 
  973200    289.91258   -8894.8863    43.208717    -8938.095    12127.122 
  973400    288.14998   -8894.9923    42.946017   -8937.9383    5961.0444 
  973600    335.99557   -8881.9809    50.076949   -8932.0579   -3022.2148 
  973800    305.09375   -8898.2764    45.471326   -8943.7477   -1913.8367 
  974000    242.81309   -8893.1636    36.188985   -8929.3526   -31254.353 
  974200    352.00068   -8872.7079    52.462359   -8925.1703   -15833.624 
  974400    274.83627   -8894.8623    40.961736    -8935.824    31472.482 
  974600    308.99495   -8889.1176    46.052762   -8935.1704   -24886.555 
  974800    318.49947   -8890.9807    47.469321     -8938.45   -29310.901 
  975000    248.31228   -8902.0413    37.008587   -8939.0499    25276.895 
  975200    323.91525   -8891.2359    48.276492   -8939.5124    45337.191 
  975400    320.96469   -8885.4017    47.836738   -8933.2385   -19139.808 
  975600    275.41611   -8901.8121    41.048155   -8942.8602    32416.992 
  975800    344.39732   -8895.9681     51.32915   -8947.2973   -27092.085 
  976000    284.12818   -8890.6129    42.346606   -8932.9595   -10780.536 
  976200    271.59431   -8894.9831    40.478552   -8935.4617   -17567.751 
  976400    261.56518   -8901.4811    38.983806   -8940.4649    27085.108 
  976600    324.94904   -8885.2044    48.430568   -8933.6349   -9585.2863 
  976800    352.21496   -8883.6876    52.494295   -8936.1819    11369.462 
  977000    290.97641   -8902.9109    43.367271   -8946.2782   -13293.583 
  977200    273.29212   -8888.6764    40.731595    -8929.408     8114.485 
  977400    298.24565   -8886.1836    44.450682   -8930.6343   -23950.951 
  977600    266.52778   -8904.5503    39.723434   -8944.2738   -5085.4736 
  977800    303.95886   -8891.3718    45.302182    -8936.674   -17019.504 
  978000    242.83367   -8887.3086    36.192052   -8923.5007   -19638.558 
  978200     314.9174    -8877.547    46.935447   -8924.4824    15838.538 
  978400    315.26369   -8896.2544    46.987058   -8943.2414   -6126.4335 
  978600    288.60002   -8890.1408    43.013093   -8933.1539    36655.821 
  978800    341.64078   -8878.3415    50.918314   -8929.2598    6766.0306 
  979000    338.03409   -8896.0925    50.380771   -8946.4732   -43813.395 
  979200    279.94486   -8891.5622    41.723122   -8933.2854   -8820.7419 
  979400    300.61222   -8876.3579    44.803396   -8921.1613    48074.972 
  979600    263.57864   -8891.2322    39.283893   -8930.5161    3850.1958 
  979800    257.12051   -8895.0767     38.32137    -8933.398   -543.58685 
  980000     397.9546   -8877.1379    59.311353   -8936.4492     19961.74 
  980200    278.91852   -8894.8322    41.570156   -8936.4023    37232.323 
  980400    315.99091   -8888.4166    47.095444    -8935.512   -4879.1045 
  980600    241.86478   -8901.4275    36.047648   -8937.4751    22700.076 
  980800    312.40873   -8895.1578    46.561554   -8941.7194   -13781.535 
  981000    266.69331   -8893.6932    39.748105   -8933.4414   -14894.198 
  981200    396.08026   -8876.2517    59.032001   -8935.2837    41098.937 
  981400    270.39523   -8890.7618     40.29984   -8931.0616   -6620.3489 
  981600    325.76194   -8890.9385    48.551724   -8939.4902   -5782.1363 
  981800    270.62263   -8898.9395    40.333732   -8939.2732    501.64351 
  982000    282.04995   -8897.9015    42.036866   -8939.9384   -6350.3843 
  982200    327.61226    -8885.292    48.827495   -8934.1195   -1802.2787 
  982400    360.87721   -8890.9929     53.78532   -8944.7782    8201.5013 
  982600    295.20144    -8894.547    43.996971    -8938.544   -6755.5187 
  982800    296.22921   -8881.6698     44.15015     -8925.82    17393.312 
  983000    261.52604   -8891.0223    38.977973   -8930.0002    4979.9964 
  983200    292.51653   -8889.8567    43.596811   -8933.4535    2062.5516 
  983400    298.04268   -8884.8125    44.420431   -8929.2329     43831.63 
  983600    305.90186   -8898.2439    45.591767   -8943.8356    14683.673 
  983800    333.84352   -8888.9421    49.756206   -8938.6983    1609.4786 
  984000    313.11008   -8888.7447    46.666084   -8935.4108   -2402.2342 
  984200    292.38544   -8895.7203    43.577273   -8939.2976    35262.846 
  984400    288.70594   -8896.4297    43.028878   -8939.4586   -7859.1503 
  984600    333.28769   -8880.9253    49.673365   -8930.5987   -5520.2426 
  984800      250.274   -8897.7183    37.300962   -8935.0192    2693.8561 
  985000    291.51701   -8889.9264    43.447842   -8933.3742   -7443.6202 
  985200    331.09873   -8888.6909     49.34712    -8938.038   -7578.0579 
  985400     300.4453   -8894.7941    44.778518   -8939.5726    4231.8336 
  985600    301.41456   -8887.5933    44.922978   -8932.5163   -12345.536 
  985800    271.40562   -8901.0917     40.45043   -8941.5421   -15584.934 
  986000    276.78718   -8901.5158    41.252501   -8942.7683   -23614.749 
  986200    320.08698   -8886.1657    47.705924   -8933.8716   -11342.856 
  986400    276.09668    -8896.762    41.149588   -8937.9116    8923.8096 
  986600    243.45897   -8904.8399    36.285247   -8941.1252    23979.149 
  986800    298.68591   -8892.4359    44.516298   -8936.9522    20254.691 
  987000    301.82086   -8889.4651    44.983533   -8934.4486     48803.27 
  987200    294.26465   -8887.6597    43.857352   -8931.5171   -10601.727 
  987400    307.34512   -8900.5051    45.806871    -8946.312    4647.7369 
  987600    341.00811   -8882.9245    50.824019   -8933.7485    14432.251 
  987800    302.27101   -8890.4731    45.050623   -8935.5237   -17645.362 
  988000     290.0243   -8903.8479    43.225367   -8947.0733     24610.21 
  988200    294.89869   -8904.1571    43.951848   -8948.1089    -8385.768 
  988400    287.50336   -8890.6452    42.849646   -8933.4948   -12769.938 
  988600     350.2712    -8884.115    52.204596   -8936.3196   -17808.855 
  988800    286.91696   -8901.8088    42.762248    -8944.571   -33870.337 
  989000    318.35412   -8891.8396    47.447658   -8939.2873   -10810.407 
  989200    308.22234   -8886.4133    45.937613   -8932.3509    11117.297 
  989400    288.24444   -8896.8325    42.960096   -8939.7926    3130.0373 
  989600     286.2052   -8890.7349    42.656166   -8933.3911    3099.5483 
  989800    326.06938   -8875.4241    48.597544   -8924.0217    18086.886 
  990000    292.12176   -8896.5678    43.537973   -8940.1058    5908.4313 
  990200    290.52093    -8890.496    43.299386   -8933.7953    2266.7191 
  990400     327.4838   -8883.8562    48.808351   -8932.6645    3968.3465 
  990600     294.1059    -8901.776    43.833691   -8945.6097   -4938.3553 
  990800    304.07205   -8890.9654     45.31905   -8936.2844    35418.397 
  991000    292.27696   -8890.7381    43.561104   -8934.2992    17146.919 
  991200    340.45823   -8891.8812    50.742066   -8942.6233   -7301.1462 
  991400    289.23764   -8899.9063    43.108123   -8943.0145    -24032.05 
  991600    335.56299   -8883.7402    50.012476   -8933.7527   -15162.901 
  991800    323.20106   -8884.9249    48.170049    -8933.095    36294.039 
  992000    271.79971   -8903.6233    40.509166   -8944.1325   -19051.002 
  992200    259.21496   -8888.6863    38.633528   -8927.3198   -49041.032 
  992400    297.44219   -8887.0054    44.330933   -8931.3363   -5499.0344 
  992600    261.72234   -8898.1414    39.007229   -8937.1486    18268.729 
  992800    260.99802   -8893.4213    38.899276   -8932.3206   -3705.7096 
  993000    306.91109   -8888.4448    45.742183    -8934.187    4755.2897 
  993200     243.7464   -8906.0212    36.328086   -8942.3493   -11255.496 
  993400    235.34847   -8897.1624    35.076455   -8932.2388    39735.831 
  993600    263.14199   -8887.7016    39.218815   -8926.9204    9327.9887 
  993800    268.69456   -8900.3437    40.046373   -8940.3901   -3632.0268 
  994000    277.16777    -8898.109    41.309224   -8939.4183   -7020.1159 
  994200    280.73366   -8888.8911    41.840686   -8930.7318    14005.142 
  994400    292.57772   -8890.9152     43.60593   -8934.5211   -11967.267 
  994600    247.82925   -8901.9332    36.936596   -8938.8698   -2980.0062 
  994800    314.13496   -8879.1544    46.818832   -8925.9732   -7051.1392 
  995000    320.28181   -8888.7426    47.734962   -8936.4775    12713.769 
  995200     262.4271   -8897.5183    39.112266   -8936.6306    9945.6498 
  995400    357.32273   -8887.8229    53.255559   -8941.0784    48678.787 
  995600    273.43395   -8893.3562    40.752733   -8934.1089    26383.284 
  995800    252.57385   -8905.2404    37.643734   -8942.8841    -799.6699 
  996000    269.39197   -8894.7618    40.150314   -8934.9122     2441.213 
  996200    275.78716   -8891.7673    41.103456   -8932.8707    25814.846 
  996400    288.00414   -8886.2828    42.924281    -8929.207    1049.4716 
  996600    306.82148   -8884.8029    45.728828   -8930.5318    2676.2115 
  996800    275.92078   -8897.1121    41.123372   -8938.2355   -1192.4257 
  997000    317.94316   -8884.9512    47.386409   -8932.3376   -6041.3376 
  997200    337.99024   -8893.3435    50.374235   -8943.7177    32758.958 
  997400    267.21254     -8896.45    39.825492   -8936.2755    3491.4429 
  997600    326.99335   -8883.9247    48.735253   -8932.6599   -2412.5355 
  997800    287.94656   -8891.5239    42.915701   -8934.4396   -2970.6763 
  998000    283.87909   -8895.9359    42.309482   -8938.2454   -22541.224 
  998200    251.40432   -8904.4439    37.469426   -8941.9133    11408.063 
  998400    312.48728    -8889.731    46.573262   -8936.3042   -12252.022 
  998600    320.92085   -8892.2796    47.830205   -8940.1098   -5973.2066 
  998800    256.03814   -8906.5013    38.160052   -8944.6613    535.59003 
  999000    275.72859   -8896.1409    41.094727   -8937.2356    45694.727 
  999200    322.08446   -8880.7786     48.00363   -8928.7822   -6687.4142 
  999400    282.26815   -8896.3587    42.069387   -8938.4281    6696.7247 
  999600    323.24598   -8891.7458    48.176743   -8939.9225   -8502.6863 
  999800    244.97296   -8890.8746    36.510893   -8927.3855   -6439.6185 
 1000000    351.53631   -8886.9619    52.393148    -8939.355    9827.5232 
Loop time of 2504.62 on 8 procs for 1000000 steps with 51 atoms

Performance: 8.624 ns/day, 2.783 hours/ns, 399.262 timesteps/s
99.4% CPU use with 8 MPI tasks x no OpenMP threads

MPI task timing breakdown:
Section |  min time  |  avg time  |  max time  |%varavg| %total
---------------------------------------------------------------
Pair    | 2076.4     | 2089       | 2109.8     |  24.9 | 83.41
Neigh   | 1.0707     | 1.0889     | 1.1078     |   1.1 |  0.04
Comm    | 24.069     | 44.82      | 57.396     | 169.6 |  1.79
Output  | 0.08266    | 0.095458   | 0.17994    |  10.3 |  0.00
Modify  | 367.71     | 367.93     | 368.11     |   0.6 | 14.69
Other   |            | 1.675      |            |       |  0.07

Nlocal:    6.375 ave 9 max 6 min
Histogram: 7 0 0 0 0 0 0 0 0 1
Nghost:    590.875 ave 599 max 582 min
Histogram: 1 1 0 0 2 1 1 0 0 2
Neighs:    846.625 ave 1163 max 790 min
Histogram: 7 0 0 0 0 0 0 0 0 1

Total # of neighbors = 6773
Ave neighs/atom = 132.804
Neighbor list builds = 1523
Dangerous builds = 0

Please see the log.cite file for references relevant to this simulation

Total wall time: 0:41:58
