ITEM: TIMESTEP
0
ITEM: NUMBER OF ATOMS
49
ITEM: BOX BOUNDS pp pp pp
0.0000000000000000e+00 1.1000000000000000e+01
0.0000000000000000e+00 1.1002000000000001e+01
0.0000000000000000e+00 1.1000000000000000e+01
ITEM: ATOMS id type x y z 
10 1 4.603 4.603 4.603 
11 1 3.085 3.085 3.085 
12 1 3.796 3.796 3.796 
46 1 0.726 0.725 0.725 
47 1 2.26 2.259 2.26 
48 1 1.551 1.55 1.55 
19 1 4.546 4.545 6.226 
20 1 3.013 3.013 7.764 
21 1 3.721 3.721 7.053 
31 1 0.668 0.667 10.103 
32 1 2.187 2.187 8.589 
33 1 1.476 1.475 9.298 
16 1 4.546 6.225 4.546 
17 1 3.013 7.765 3.013 
18 1 3.721 7.053 3.722 
25 1 0.668 10.103 0.668 
26 1 2.188 8.589 2.188 
27 1 1.476 9.298 1.476 
4 1 4.608 6.169 6.169 
5 1 3.086 7.684 7.684 
6 1 3.799 6.974 6.974 
37 1 0.729 10.046 10.046 
38 1 2.259 8.509 8.508 
39 1 1.552 9.219 9.219 
13 1 6.225 4.546 4.546 
14 1 7.764 3.013 3.013 
15 1 7.053 3.721 3.722 
28 1 10.102 0.667 0.668 
29 1 8.589 2.187 2.188 
30 1 9.298 1.475 1.476 
49 2 7.304 3.284 4.694 
1 1 6.168 4.608 6.169 
2 1 7.684 3.086 7.684 
3 1 6.974 3.799 6.974 
40 1 10.045 0.728 10.046 
41 1 8.508 2.259 8.508 
42 1 9.218 1.551 9.218 
7 1 6.169 6.169 4.608 
8 1 7.684 7.684 3.086 
9 1 6.974 6.974 3.799 
43 1 10.046 10.047 0.729 
44 1 8.508 8.509 2.259 
45 1 9.219 9.219 1.552 
22 1 6.229 6.229 6.229 
23 1 7.764 7.765 7.765 
24 1 7.055 7.056 7.055 
34 1 10.108 10.108 10.107 
35 1 8.59 8.59 8.59 
36 1 9.301 9.301 9.3 
ITEM: TIMESTEP
10
ITEM: NUMBER OF ATOMS
49
ITEM: BOX BOUNDS pp pp pp
0.0000000000000000e+00 1.1000000000000000e+01
0.0000000000000000e+00 1.1002000000000001e+01
0.0000000000000000e+00 1.1000000000000000e+01
ITEM: ATOMS id type x y z 
10 1 4.58896 4.58473 4.58431 
11 1 3.07386 3.07602 3.07622 
12 1 3.78739 3.78237 3.78232 
46 1 0.738269 0.734338 0.73476 
47 1 2.26852 2.26822 2.26898 
48 1 1.56189 1.55986 1.56011 
19 1 4.52939 4.53487 6.24503 
20 1 3.00246 3.00182 7.77387 
21 1 3.71033 3.71159 7.06487 
31 1 0.674078 0.673318 10.0969 
32 1 2.19079 2.19076 8.58514 
33 1 1.48189 1.48104 9.29214 
16 1 4.52596 6.24569 4.5362 
17 1 3.00309 7.77441 3.00252 
18 1 3.70984 7.06499 3.71204 
25 1 0.674223 10.0972 0.674562 
26 1 2.19152 8.58548 2.19148 
27 1 1.48201 9.29213 1.48213 
4 1 4.59473 6.18147 6.1806 
5 1 3.08058 7.6892 7.6893 
6 1 3.79175 6.98158 6.98129 
37 1 0.73879 10.0363 10.0362 
38 1 2.26826 8.49943 8.49903 
39 1 1.56364 9.20802 9.20711 
13 1 6.17153 4.6096 4.53819 
14 1 7.8009 2.97923 2.94667 
15 1 7.05162 3.72233 3.7397 
28 1 10.0915 0.678158 0.679332 
29 1 8.58146 2.1946 2.19489 
30 1 9.29517 1.47767 1.47877 
49 2 7.35275 3.22152 4.73 
1 1 6.18482 4.59099 6.17915 
2 1 7.69276 3.07724 7.69464 
3 1 6.98636 3.78639 6.9817 
40 1 10.0352 0.737601 10.0327 
41 1 8.49916 2.26744 8.49926 
42 1 9.20828 1.5616 9.20808 
7 1 6.1864 6.18371 4.58891 
8 1 7.69282 7.69478 3.07732 
9 1 6.98729 6.98294 3.78536 
43 1 10.0361 10.0342 0.738758 
44 1 8.49961 8.50078 2.26762 
45 1 9.20922 9.20884 1.56162 
22 1 6.23968 6.24633 6.24811 
23 1 7.77462 7.77482 7.77418 
24 1 7.06428 7.06668 7.06693 
34 1 10.1013 10.1018 10.1008 
35 1 8.58612 8.58616 8.58605 
36 1 9.29478 9.29483 9.294 
ITEM: TIMESTEP
20
ITEM: NUMBER OF ATOMS
49
ITEM: BOX BOUNDS pp pp pp
0.0000000000000000e+00 1.1000000000000000e+01
0.0000000000000000e+00 1.1002000000000001e+01
0.0000000000000000e+00 1.1000000000000000e+01
ITEM: ATOMS id type x y z 
10 1 4.55679 4.59292 4.59087 
11 1 3.07704 3.06897 3.06941 
12 1 3.7708 3.78467 3.78507 
46 1 0.740201 0.731301 0.731989 
47 1 2.26555 2.26607 2.26732 
48 1 1.56159 1.55779 1.55693 
19 1 4.53355 4.5435 6.24686 
20 1 3.00394 3.00121 7.77077 
21 1 3.7097 3.71578 7.06864 
31 1 0.67449 0.674828 10.0944 
32 1 2.19015 2.19177 8.58377 
33 1 1.48549 1.4809 9.29208 
16 1 4.51571 6.25514 4.54857 
17 1 3.00219 7.7752 2.99687 
18 1 3.70343 7.07107 3.71591 
25 1 0.676842 10.0944 0.674951 
26 1 2.19054 8.58426 2.19038 
27 1 1.48391 9.29466 1.48348 
4 1 4.59598 6.17854 6.17899 
5 1 3.07923 7.68789 7.68755 
6 1 3.79462 6.98382 6.9844 
37 1 0.737185 10.0392 10.037 
38 1 2.2686 8.50055 8.49869 
39 1 1.56288 9.20605 9.2081 
13 1 6.16995 4.61578 4.51485 
14 1 7.78145 3.00444 2.92606 
15 1 7.09465 3.67178 3.75359 
28 1 10.0906 0.678235 0.679337 
29 1 8.58612 2.18783 2.18446 
30 1 9.30503 1.47282 1.47156 
49 2 7.38186 3.1835 4.75365 
1 1 6.17707 4.59927 6.20061 
2 1 7.69687 3.07293 7.69093 
3 1 6.98409 3.78874 6.9919 
40 1 10.0384 0.734726 10.0309 
41 1 8.49981 2.26737 8.50137 
42 1 9.20998 1.55924 9.2066 
7 1 6.17814 6.21853 4.5955 
8 1 7.70069 7.69198 3.06958 
9 1 6.98521 7.00118 3.78756 
43 1 10.0396 10.031 0.735329 
44 1 8.5024 8.502 2.266 
45 1 9.20951 9.21171 1.55946 
22 1 6.23021 6.24271 6.25156 
23 1 7.7751 7.77327 7.77124 
24 1 7.06 7.06687 7.07028 
34 1 10.0989 10.1003 10.0979 
35 1 8.58408 8.58569 8.58583 
36 1 9.29586 9.29264 9.29091 
ITEM: TIMESTEP
30
ITEM: NUMBER OF ATOMS
49
ITEM: BOX BOUNDS pp pp pp
0.0000000000000000e+00 1.1000000000000000e+01
0.0000000000000000e+00 1.1002000000000001e+01
0.0000000000000000e+00 1.1000000000000000e+01
ITEM: ATOMS id type x y z 
10 1 4.57991 4.61065 4.59948 
11 1 3.08125 3.07636 3.07963 
12 1 3.77877 3.79114 3.78732 
46 1 0.741747 0.729896 0.727911 
47 1 2.26481 2.26371 2.26459 
48 1 1.56237 1.55742 1.55739 
19 1 4.54053 4.53492 6.25493 
20 1 2.99866 2.99954 7.77574 
21 1 3.70758 3.70805 7.07372 
31 1 0.674629 0.674104 10.0895 
32 1 2.18881 2.18919 8.58607 
33 1 1.48226 1.47925 9.29184 
16 1 4.50009 6.26712 4.55444 
17 1 2.99685 7.78048 2.99011 
18 1 3.69357 7.08052 3.7146 
25 1 0.682473 10.0945 0.67234 
26 1 2.18743 8.58942 2.18752 
27 1 1.48039 9.29454 1.4758 
4 1 4.59594 6.17928 6.18129 
5 1 3.07842 7.68997 7.69092 
6 1 3.79068 6.98504 6.98495 
37 1 0.739803 10.0369 10.0326 
38 1 2.26776 8.50054 8.49967 
39 1 1.56327 9.2075 9.20751 
13 1 6.15844 4.62382 4.52182 
14 1 7.75938 3.03906 2.87826 
15 1 7.13788 3.61392 3.80881 
28 1 10.0995 0.676821 0.669759 
29 1 8.58668 2.19289 2.16831 
30 1 9.30022 1.47002 1.46783 
49 2 7.41096 3.14079 4.80554 
1 1 6.16266 4.61516 6.15877 
2 1 7.6824 3.08686 7.68078 
3 1 6.97698 3.79662 6.97561 
40 1 10.0413 0.732626 10.0283 
41 1 8.49796 2.26909 8.49837 
42 1 9.20786 1.56233 9.20298 
7 1 6.16047 6.20112 4.60487 
8 1 7.69633 7.6912 3.07599 
9 1 6.98129 6.99647 3.78807 
43 1 10.0406 10.0301 0.73198 
44 1 8.50319 8.50231 2.26496 
45 1 9.21192 9.21046 1.55847 
22 1 6.23682 6.23511 6.26231 
23 1 7.77625 7.77749 7.77487 
24 1 7.06621 7.06835 7.07588 
34 1 10.0991 10.0994 10.0885 
35 1 8.5869 8.58698 8.58744 
36 1 9.29671 9.29599 9.2916 
ITEM: TIMESTEP
40
ITEM: NUMBER OF ATOMS
49
ITEM: BOX BOUNDS pp pp pp
0.0000000000000000e+00 1.1000000000000000e+01
0.0000000000000000e+00 1.1002000000000001e+01
0.0000000000000000e+00 1.1000000000000000e+01
ITEM: ATOMS id type x y z 
10 1 4.58722 4.61036 4.59747 
11 1 3.08193 3.07869 3.08192 
12 1 3.7813 3.79325 3.78935 
46 1 0.743314 0.731744 0.72868 
47 1 2.26927 2.26563 2.26881 
48 1 1.56551 1.56307 1.55912 
19 1 4.53756 4.53961 6.25133 
20 1 3.00129 3.00066 7.77489 
21 1 3.70894 3.71103 7.07195 
31 1 0.666522 0.673902 10.0913 
32 1 2.18733 2.18953 8.58501 
33 1 1.4842 1.47802 9.2929 
16 1 4.50469 6.26625 4.56385 
17 1 2.99638 7.78052 2.9911 
18 1 3.69311 7.08133 3.71673 
25 1 0.678792 10.0986 0.669009 
26 1 2.18542 8.58952 2.18529 
27 1 1.48112 9.29748 1.4736 
4 1 4.59843 6.17589 6.18437 
5 1 3.08126 7.68901 7.68915 
6 1 3.79066 6.981 6.9846 
37 1 0.740168 10.0358 10.0296 
38 1 2.269 8.49891 8.49938 
39 1 1.56438 9.20755 9.20472 
13 1 6.17384 4.6124 4.51712 
14 1 7.74739 3.05434 2.86816 
15 1 7.15431 3.59137 3.83568 
28 1 10.1031 0.670695 0.669195 
29 1 8.57517 2.20331 2.16492 
30 1 9.29159 1.4874 1.45971 
49 2 7.41896 3.12611 4.83482 
1 1 6.16866 4.60787 6.1456 
2 1 7.679 3.09027 7.67927 
3 1 6.97635 3.79729 6.96759 
40 1 10.0377 0.736156 10.0238 
41 1 8.49501 2.27243 8.49507 
42 1 9.20389 1.56599 9.19885 
7 1 6.16008 6.19402 4.6022 
8 1 7.69124 7.69095 3.08101 
9 1 6.9791 6.98994 3.78931 
43 1 10.0378 10.0312 0.732018 
44 1 8.49915 8.49992 2.27006 
45 1 9.21096 9.20379 1.5587 
22 1 6.23164 6.23877 6.25598 
23 1 7.776 7.7759 7.77541 
24 1 7.06317 7.06669 7.0738 
34 1 10.1017 10.1056 10.0915 
35 1 8.58778 8.58452 8.5882 
36 1 9.29454 9.30062 9.28798 
ITEM: TIMESTEP
50
ITEM: NUMBER OF ATOMS
49
ITEM: BOX BOUNDS pp pp pp
0.0000000000000000e+00 1.1000000000000000e+01
0.0000000000000000e+00 1.1002000000000001e+01
0.0000000000000000e+00 1.1000000000000000e+01
ITEM: ATOMS id type x y z 
10 1 4.58919 4.61104 4.5975 
11 1 3.08165 3.07994 3.0836 
12 1 3.78405 3.79365 3.7889 
46 1 0.741109 0.733167 0.728325 
47 1 2.26982 2.26768 2.269 
48 1 1.5661 1.56043 1.55994 
19 1 4.53735 4.53835 6.2498 
20 1 3.00077 3.00115 7.77517 
21 1 3.71004 3.71016 7.07184 
31 1 0.668334 0.674335 10.0919 
32 1 2.19005 2.18811 8.58634 
33 1 1.47881 1.48029 9.2903 
16 1 4.50413 6.26634 4.56158 
17 1 2.99665 7.78064 2.99173 
18 1 3.69303 7.08053 3.71766 
25 1 0.675483 10.0992 0.669025 
26 1 2.18647 8.59028 2.18396 
27 1 1.47856 9.29669 1.47459 
4 1 4.59816 6.17551 6.1851 
5 1 3.08084 7.68936 7.68956 
6 1 3.79071 6.98088 6.98522 
37 1 0.739048 10.0365 10.0299 
38 1 2.26979 8.49841 8.49848 
39 1 1.56409 9.20745 9.20509 
13 1 6.17473 4.60976 4.5174 
14 1 7.74514 3.05722 2.8661 
15 1 7.15889 3.58519 3.84229 
28 1 10.1003 0.670884 0.670273 
29 1 8.57463 2.20691 2.15834 
30 1 9.29081 1.48488 1.45936 
49 2 7.42119 3.12196 4.84307 
1 1 6.16878 4.60772 6.14239 
2 1 7.67808 3.09141 7.67917 
3 1 6.9766 3.79662 6.96486 
40 1 10.0372 0.736057 10.0256 
41 1 8.49439 2.27309 8.49475 
42 1 9.20366 1.56631 9.19813 
7 1 6.16034 6.19123 4.60103 
8 1 7.69123 7.69013 3.08134 
9 1 6.97782 6.99113 3.78973 
43 1 10.0392 10.0327 0.730104 
44 1 8.50292 8.50143 2.26657 
45 1 9.21069 9.20713 1.5587 
22 1 6.23334 6.23906 6.25566 
23 1 7.7755 7.77563 7.77548 
24 1 7.06387 7.0666 7.07405 
34 1 10.0998 10.1075 10.0937 
35 1 8.58777 8.58618 8.58679 
36 1 9.29495 9.29812 9.29063 
ITEM: TIMESTEP
60
ITEM: NUMBER OF ATOMS
49
ITEM: BOX BOUNDS pp pp pp
0.0000000000000000e+00 1.1000000000000000e+01
0.0000000000000000e+00 1.1002000000000001e+01
0.0000000000000000e+00 1.1000000000000000e+01
ITEM: ATOMS id type x y z 
10 1 4.6085 4.61363 4.59405 
11 1 3.08325 3.0836 3.08919 
12 1 3.79013 3.79811 3.78791 
46 1 0.735242 0.735935 0.729402 
47 1 2.27482 2.26381 2.26993 
48 1 1.56019 1.569 1.56057 
19 1 4.53837 4.53479 6.24087 
20 1 3.00408 3.00334 7.77621 
21 1 3.71109 3.70842 7.06844 
31 1 0.66181 0.679399 10.0927 
32 1 2.18984 2.18739 8.58611 
33 1 1.47641 1.48173 9.28964 
16 1 4.50853 6.2616 4.55887 
17 1 2.99518 7.78166 2.99671 
18 1 3.69353 7.08016 3.71887 
25 1 0.670172 10.1057 0.666839 
26 1 2.18672 8.59069 2.18024 
27 1 1.47682 9.29713 1.47415 
4 1 4.60258 6.16963 6.18667 
5 1 3.08097 7.68847 7.69082 
6 1 3.79126 6.97962 6.98796 
37 1 0.734238 10.042 10.0303 
38 1 2.26806 8.5006 8.50199 
39 1 1.56069 9.21177 9.20422 
13 1 6.19123 4.59041 4.51753 
14 1 7.73158 3.07496 2.8568 
15 1 7.19597 3.53533 3.89075 
28 1 10.0934 0.677746 0.674602 
29 1 8.55399 2.23549 2.1224 
30 1 9.27956 1.50141 1.4458 
49 2 7.43844 3.08948 4.90843 
1 1 6.17169 4.60547 6.11596 
2 1 7.67327 3.09466 7.6739 
3 1 6.97856 3.79809 6.95395 
40 1 10.0327 0.74144 10.0305 
41 1 8.49203 2.2757 8.49137 
42 1 9.19948 1.57113 9.19754 
7 1 6.1593 6.17267 4.59599 
8 1 7.68817 7.69146 3.08473 
9 1 6.97562 6.98693 3.7892 
43 1 10.0351 10.0405 0.730267 
44 1 8.50564 8.50001 2.26524 
45 1 9.20878 9.20966 1.56001 
22 1 6.23582 6.23874 6.24464 
23 1 7.77293 7.77342 7.7751 
24 1 7.06437 7.06271 7.074 
34 1 10.0948 10.1123 10.094 
35 1 8.58845 8.58494 8.58663 
36 1 9.29272 9.3022 9.28791 
ITEM: TIMESTEP
70
ITEM: NUMBER OF ATOMS
49
ITEM: BOX BOUNDS pp pp pp
0.0000000000000000e+00 1.1000000000000000e+01
0.0000000000000000e+00 1.1002000000000001e+01
0.0000000000000000e+00 1.1000000000000000e+01
ITEM: ATOMS id type x y z 
10 1 4.60935 4.61316 4.5921 
11 1 3.08236 3.08467 3.0886 
12 1 3.79229 3.79552 3.78803 
46 1 0.73349 0.738225 0.72965 
47 1 2.27343 2.26602 2.2703 
48 1 1.56305 1.56615 1.56114 
19 1 4.53795 4.5356 6.24013 
20 1 3.00461 3.00299 7.77589 
21 1 3.71157 3.70951 7.06795 
31 1 0.661827 0.67918 10.0931 
32 1 2.19025 2.18739 8.58557 
33 1 1.47622 1.48305 9.28973 
16 1 4.50991 6.261 4.55966 
17 1 2.99515 7.78151 2.99769 
18 1 3.69411 7.07968 3.71869 
25 1 0.670283 10.1054 0.667417 
26 1 2.18592 8.59055 2.18016 
27 1 1.47753 9.29835 1.4733 
4 1 4.60243 6.16943 6.18623 
5 1 3.08122 7.68825 7.69082 
6 1 3.79152 6.97908 6.98825 
37 1 0.733153 10.0429 10.03 
38 1 2.26777 8.50116 8.50135 
39 1 1.56106 9.21115 9.20531 
13 1 6.19414 4.58819 4.51678 
14 1 7.7316 3.07444 2.8598 
15 1 7.19594 3.53435 3.89687 
28 1 10.0942 0.677704 0.674996 
29 1 8.55119 2.23972 2.11936 
30 1 9.2759 1.50553 1.44327 
49 2 7.43997 3.0867 4.91191 
1 1 6.17332 4.605 6.11657 
2 1 7.67395 3.09575 7.67454 
3 1 6.9777 3.79603 6.95185 
40 1 10.0317 0.742279 10.0299 
41 1 8.49167 2.27613 8.49105 
42 1 9.19905 1.57148 9.19778 
7 1 6.16044 6.17112 4.59445 
8 1 7.68719 7.69235 3.08562 
9 1 6.97676 6.98442 3.7877 
43 1 10.0345 10.041 0.730692 
44 1 8.50485 8.49968 2.26636 
45 1 9.20862 9.20907 1.55974 
22 1 6.23496 6.23844 6.24475 
23 1 7.77271 7.7715 7.77633 
24 1 7.06399 7.06442 7.0707 
34 1 10.0951 10.114 10.0932 
35 1 8.58802 8.58593 8.58506 
36 1 9.29213 9.29986 9.28971 
ITEM: TIMESTEP
80
ITEM: NUMBER OF ATOMS
49
ITEM: BOX BOUNDS pp pp pp
0.0000000000000000e+00 1.1000000000000000e+01
0.0000000000000000e+00 1.1002000000000001e+01
0.0000000000000000e+00 1.1000000000000000e+01
ITEM: ATOMS id type x y z 
10 1 4.61439 4.60965 4.5878 
11 1 3.08247 3.0851 3.08816 
12 1 3.79476 3.79447 3.78665 
46 1 0.730829 0.739889 0.730475 
47 1 2.27181 2.26782 2.27042 
48 1 1.56421 1.56374 1.56205 
19 1 4.5383 4.53691 6.23636 
20 1 3.0073 3.00383 7.7745 
21 1 3.7126 3.71019 7.06553 
31 1 0.660954 0.681013 10.0943 
32 1 2.19105 2.18821 8.58437 
33 1 1.47623 1.48567 9.28958 
16 1 4.51427 6.25788 4.55766 
17 1 2.995 7.78088 3.00073 
18 1 3.69596 7.07844 3.71919 
25 1 0.66859 10.1077 0.66784 
26 1 2.18557 8.59055 2.17994 
27 1 1.47825 9.29887 1.47311 
4 1 4.6024 6.16915 6.18471 
5 1 3.08199 7.68753 7.69214 
6 1 3.79117 6.9787 6.98865 
37 1 0.730947 10.0451 10.0316 
38 1 2.26682 8.50223 8.50209 
39 1 1.56006 9.21251 9.2056 
13 1 6.20059 4.58125 4.51489 
14 1 7.73131 3.07285 2.8723 
15 1 7.2006 3.52548 3.91765 
28 1 10.09 0.68214 0.675783 
29 1 8.53962 2.25607 2.10165 
30 1 9.2694 1.51541 1.43623 
49 2 7.44819 3.07265 4.92725 
1 1 6.17475 4.6032 6.11707 
2 1 7.67467 3.09547 7.67367 
3 1 6.97784 3.79575 6.95111 
40 1 10.0299 0.743495 10.0305 
41 1 8.4909 2.27745 8.49093 
42 1 9.1979 1.57262 9.19811 
7 1 6.16348 6.16561 4.59031 
8 1 7.68643 7.69383 3.08574 
9 1 6.97829 6.98064 3.78521 
43 1 10.0341 10.0433 0.730911 
44 1 8.50512 8.49988 2.26637 
45 1 9.2079 9.21051 1.56058 
22 1 6.23424 6.23896 6.2402 
23 1 7.77147 7.76859 7.77519 
24 1 7.06284 7.06344 7.06762 
34 1 10.0931 10.1156 10.0941 
35 1 8.58672 8.58545 8.58426 
36 1 9.29065 9.29929 9.28892 
ITEM: TIMESTEP
90
ITEM: NUMBER OF ATOMS
49
ITEM: BOX BOUNDS pp pp pp
0.0000000000000000e+00 1.1000000000000000e+01
0.0000000000000000e+00 1.1002000000000001e+01
0.0000000000000000e+00 1.1000000000000000e+01
ITEM: ATOMS id type x y z 
10 1 4.62716 4.6059 4.57984 
11 1 3.08322 3.08461 3.08589 
12 1 3.79889 3.79122 3.78217 
46 1 0.72342 0.743246 0.731611 
47 1 2.27217 2.26451 2.26968 
48 1 1.55409 1.56867 1.5619 
19 1 4.53859 4.53607 6.2292 
20 1 3.00939 3.00314 7.77217 
21 1 3.7167 3.71071 7.06231 
31 1 0.660174 0.683913 10.0941 
32 1 2.19217 2.18772 8.5832 
33 1 1.47393 1.49304 9.29096 
16 1 4.52155 6.25132 4.54839 
17 1 2.99475 7.78132 3.00459 
18 1 3.69642 7.07629 3.71924 
25 1 0.669853 10.1079 0.670633 
26 1 2.18716 8.58903 2.18108 
27 1 1.47826 9.29939 1.47604 
4 1 4.60031 6.1701 6.17866 
5 1 3.08062 7.68607 7.69788 
6 1 3.79098 6.98247 6.9883 
37 1 0.726913 10.0501 10.0312 
38 1 2.26372 8.50506 8.50595 
39 1 1.55789 9.21671 9.20511 
13 1 6.20958 4.56881 4.51828 
14 1 7.73278 3.06899 2.90112 
15 1 7.21696 3.49856 3.96204 
28 1 10.0831 0.690049 0.683104 
29 1 8.51858 2.28396 2.07068 
30 1 9.24842 1.54773 1.39749 
49 2 7.47155 3.03403 4.96351 
1 1 6.17282 4.60565 6.11431 
2 1 7.67458 3.09618 7.67238 
3 1 6.97935 3.79531 6.94959 
40 1 10.0298 0.744968 10.0367 
41 1 8.49203 2.27734 8.49345 
42 1 9.19779 1.57307 9.20151 
7 1 6.17056 6.1558 4.58175 
8 1 7.68698 7.69668 3.08663 
9 1 6.98209 6.9717 3.77447 
43 1 10.0284 10.0549 0.733245 
44 1 8.50539 8.50347 2.26678 
45 1 9.20872 9.21432 1.55904 
22 1 6.23443 6.23794 6.23229 
23 1 7.77099 7.76665 7.77388 
24 1 7.06327 7.06055 7.06353 
34 1 10.0887 10.1169 10.0924 
35 1 8.58459 8.58433 8.58255 
36 1 9.28623 9.29861 9.28916 
ITEM: TIMESTEP
100
ITEM: NUMBER OF ATOMS
49
ITEM: BOX BOUNDS pp pp pp
0.0000000000000000e+00 1.1000000000000000e+01
0.0000000000000000e+00 1.1002000000000001e+01
0.0000000000000000e+00 1.1000000000000000e+01
ITEM: ATOMS id type x y z 
10 1 4.6278 4.60339 4.57909 
11 1 3.08315 3.08378 3.08575 
12 1 3.80163 3.79122 3.78009 
46 1 0.721156 0.744086 0.733109 
47 1 2.26947 2.26767 2.27005 
48 1 1.5585 1.56562 1.56336 
19 1 4.53814 4.53925 6.22882 
20 1 3.01233 3.00364 7.77167 
21 1 3.71422 3.7106 7.05989 
31 1 0.660882 0.68602 10.0956 
32 1 2.19122 2.19291 8.58329 
33 1 1.47849 1.4878 9.28796 
16 1 4.52333 6.2503 4.54976 
17 1 2.99406 7.78077 3.00669 
18 1 3.69936 7.07518 3.71738 
25 1 0.66715 10.1098 0.668917 
26 1 2.18676 8.59089 2.18106 
27 1 1.47687 9.29814 1.47551 
4 1 4.60134 6.17112 6.17671 
5 1 3.08244 7.68604 7.69682 
6 1 3.78964 6.98006 6.98885 
37 1 0.725787 10.0511 10.0332 
38 1 2.26422 8.5061 8.50459 
39 1 1.5571 9.21512 9.20793 
13 1 6.21419 4.56598 4.51722 
14 1 7.73412 3.06552 2.9072 
15 1 7.21862 3.495 3.97331 
28 1 10.0788 0.695562 0.676204 
29 1 8.51112 2.29748 2.05645 
30 1 9.2457 1.54628 1.41001 
49 2 7.47688 3.02518 4.96928 
1 1 6.17361 4.60476 6.11608 
2 1 7.67533 3.0955 7.67273 
3 1 6.97896 3.79633 6.95018 
40 1 10.0271 0.746501 10.0339 
41 1 8.48983 2.27955 8.49175 
42 1 9.19625 1.57511 9.20037 
7 1 6.17154 6.14783 4.57819 
8 1 7.68821 7.69309 3.08136 
9 1 6.98272 6.9773 3.78043 
43 1 10.0308 10.0544 0.732689 
44 1 8.50631 8.50384 2.26561 
45 1 9.20741 9.21791 1.56067 
22 1 6.23241 6.2395 6.23035 
23 1 7.76992 7.76378 7.77228 
24 1 7.06196 7.06143 7.0613 
34 1 10.0896 10.1143 10.0951 
35 1 8.58345 8.58404 8.5827 
36 1 9.28619 9.2982 9.28845 
ITEM: TIMESTEP
110
ITEM: NUMBER OF ATOMS
49
ITEM: BOX BOUNDS pp pp pp
0.0000000000000000e+00 1.1000000000000000e+01
0.0000000000000000e+00 1.1002000000000001e+01
0.0000000000000000e+00 1.1000000000000000e+01
ITEM: ATOMS id type x y z 
10 1 4.62867 4.60329 4.57886 
11 1 3.08323 3.08403 3.08555 
12 1 3.80217 3.79065 3.78013 
46 1 0.72106 0.743704 0.732992 
47 1 2.26951 2.26701 2.26994 
48 1 1.55738 1.56637 1.56305 
19 1 4.53773 4.53919 6.22809 
20 1 3.0121 3.00355 7.77116 
21 1 3.71487 3.71095 7.06036 
31 1 0.66126 0.685652 10.0958 
32 1 2.19163 2.1921 8.583 
33 1 1.4777 1.4893 9.28872 
16 1 4.52374 6.24987 4.549 
17 1 2.9943 7.78065 3.00662 
18 1 3.69922 7.07515 3.71757 
25 1 0.666643 10.1099 0.669226 
26 1 2.18621 8.5905 2.18095 
27 1 1.47749 9.29921 1.47588 
4 1 4.60084 6.17126 6.17659 
5 1 3.08235 7.68589 7.69688 
6 1 3.78985 6.98031 6.98867 
37 1 0.725845 10.0507 10.0334 
38 1 2.26437 8.50555 8.50478 
39 1 1.5573 9.21572 9.20728 
13 1 6.21432 4.56531 4.51784 
14 1 7.73409 3.06542 2.9086 
15 1 7.21868 3.49459 3.97501 
28 1 10.0781 0.696598 0.6766 
29 1 8.51062 2.29798 2.05543 
30 1 9.24539 1.5472 1.40909 
49 2 7.47784 3.0236 4.97001 
1 1 6.17383 4.60471 6.11579 
2 1 7.67531 3.09599 7.67265 
3 1 6.97848 3.79611 6.95013 
40 1 10.0272 0.746423 10.0339 
41 1 8.48992 2.27951 8.49192 
42 1 9.19619 1.57516 9.20034 
7 1 6.172 6.14821 4.57862 
8 1 7.68811 7.69399 3.08242 
9 1 6.98295 6.97477 3.7783 
43 1 10.0305 10.0552 0.732822 
44 1 8.50628 8.50428 2.26565 
45 1 9.2075 9.21786 1.56046 
22 1 6.23259 6.23965 6.22986 
23 1 7.77017 7.76382 7.77207 
24 1 7.06181 7.06163 7.06162 
34 1 10.0893 10.1145 10.0953 
35 1 8.58334 8.58397 8.58267 
36 1 9.286 9.29802 9.28844 
ITEM: TIMESTEP
120
ITEM: NUMBER OF ATOMS
49
ITEM: BOX BOUNDS pp pp pp
0.0000000000000000e+00 1.1000000000000000e+01
0.0000000000000000e+00 1.1002000000000001e+01
0.0000000000000000e+00 1.1000000000000000e+01
ITEM: ATOMS id type x y z 
10 1 4.62872 4.60326 4.57884 
11 1 3.08327 3.08401 3.08553 
12 1 3.80213 3.79068 3.78014 
46 1 0.72106 0.743701 0.732986 
47 1 2.26952 2.26701 2.26995 
48 1 1.55734 1.56639 1.56305 
19 1 4.53773 4.5392 6.22808 
20 1 3.0121 3.00356 7.77115 
21 1 3.71488 3.71095 7.06034 
31 1 0.661267 0.685639 10.0958 
32 1 2.19163 2.1921 8.58299 
33 1 1.4777 1.48932 9.28874 
16 1 4.52375 6.24987 4.54899 
17 1 2.9943 7.78066 3.00664 
18 1 3.69923 7.07511 3.71752 
25 1 0.66664 10.1099 0.669231 
26 1 2.18622 8.59052 2.18096 
27 1 1.47747 9.29919 1.47587 
4 1 4.60086 6.17129 6.17659 
5 1 3.08238 7.6859 7.6969 
6 1 3.7898 6.98028 6.98864 
37 1 0.725846 10.0507 10.0334 
38 1 2.26437 8.50557 8.50478 
39 1 1.5573 9.21569 9.2073 
13 1 6.21434 4.56529 4.51786 
14 1 7.7341 3.06541 2.90865 
15 1 7.2187 3.49456 3.97509 
28 1 10.078 0.696613 0.676621 
29 1 8.51057 2.29799 2.0554 
30 1 9.24539 1.54728 1.40904 
49 2 7.47788 3.02353 4.97004 
1 1 6.17382 4.6047 6.11578 
2 1 7.67529 3.09598 7.67264 
3 1 6.97849 3.79614 6.95014 
40 1 10.0272 0.746417 10.0339 
41 1 8.48991 2.27952 8.49192 
42 1 9.1962 1.57516 9.20034 
7 1 6.17205 6.14813 4.57857 
8 1 7.68814 7.69392 3.08238 
9 1 6.9829 6.97487 3.77836 
43 1 10.0305 10.0552 0.732826 
44 1 8.50627 8.50431 2.26565 
45 1 9.20752 9.21783 1.56045 
22 1 6.23258 6.23965 6.22985 
23 1 7.77017 7.76381 7.77208 
24 1 7.06181 7.06164 7.06158 
34 1 10.0893 10.1145 10.0953 
35 1 8.58335 8.58396 8.58268 
36 1 9.28598 9.29804 9.28843 
ITEM: TIMESTEP
124
ITEM: NUMBER OF ATOMS
49
ITEM: BOX BOUNDS pp pp pp
0.0000000000000000e+00 1.1000000000000000e+01
0.0000000000000000e+00 1.1002000000000001e+01
0.0000000000000000e+00 1.1000000000000000e+01
ITEM: ATOMS id type x y z 
10 1 4.62873 4.60325 4.57884 
11 1 3.08327 3.08401 3.08553 
12 1 3.80213 3.79068 3.78014 
46 1 0.721059 0.743701 0.732986 
47 1 2.26952 2.26701 2.26995 
48 1 1.55733 1.56639 1.56305 
19 1 4.53772 4.5392 6.22808 
20 1 3.0121 3.00356 7.77115 
21 1 3.71488 3.71095 7.06034 
31 1 0.661267 0.68564 10.0958 
32 1 2.19163 2.1921 8.58299 
33 1 1.4777 1.48932 9.28874 
16 1 4.52375 6.24987 4.54899 
17 1 2.9943 7.78066 3.00665 
18 1 3.69923 7.07511 3.71752 
25 1 0.66664 10.1099 0.669232 
26 1 2.18622 8.59052 2.18096 
27 1 1.47747 9.29919 1.47587 
4 1 4.60086 6.17129 6.17659 
5 1 3.08238 7.6859 7.6969 
6 1 3.7898 6.98028 6.98863 
37 1 0.725845 10.0507 10.0334 
38 1 2.26437 8.50557 8.50478 
39 1 1.5573 9.21569 9.2073 
13 1 6.21434 4.56528 4.51786 
14 1 7.7341 3.06541 2.90866 
15 1 7.2187 3.49456 3.97509 
28 1 10.078 0.696618 0.67662 
29 1 8.51057 2.29799 2.05539 
30 1 9.24539 1.54728 1.40904 
49 2 7.47789 3.02352 4.97004 
1 1 6.17382 4.6047 6.11578 
2 1 7.67529 3.09598 7.67264 
3 1 6.97849 3.79614 6.95014 
40 1 10.0272 0.746417 10.0339 
41 1 8.48991 2.27952 8.49192 
42 1 9.1962 1.57516 9.20034 
7 1 6.17205 6.14813 4.57857 
8 1 7.68814 7.69392 3.08238 
9 1 6.98291 6.97487 3.77836 
43 1 10.0305 10.0552 0.732825 
44 1 8.50627 8.50431 2.26565 
45 1 9.20751 9.21783 1.56046 
22 1 6.23258 6.23965 6.22985 
23 1 7.77017 7.76381 7.77208 
24 1 7.06181 7.06164 7.06158 
34 1 10.0893 10.1145 10.0953 
35 1 8.58335 8.58396 8.58268 
36 1 9.28598 9.29804 9.28843 
ITEM: TIMESTEP
125
ITEM: NUMBER OF ATOMS
49
ITEM: BOX BOUNDS pp pp pp
0.0000000000000000e+00 1.1000000000000000e+01
0.0000000000000000e+00 1.1002000000000001e+01
0.0000000000000000e+00 1.1000000000000000e+01
ITEM: ATOMS id type x y z 
10 1 4.62873 4.60325 4.57884 
11 1 3.08327 3.08401 3.08553 
12 1 3.80213 3.79068 3.78014 
46 1 0.721059 0.743701 0.732986 
47 1 2.26952 2.26701 2.26995 
48 1 1.55733 1.56639 1.56305 
19 1 4.53772 4.5392 6.22808 
20 1 3.0121 3.00356 7.77115 
21 1 3.71488 3.71095 7.06034 
31 1 0.661267 0.68564 10.0958 
32 1 2.19163 2.1921 8.58299 
33 1 1.4777 1.48932 9.28874 
16 1 4.52375 6.24987 4.54899 
17 1 2.9943 7.78066 3.00665 
18 1 3.69923 7.07511 3.71752 
25 1 0.66664 10.1099 0.669232 
26 1 2.18622 8.59052 2.18096 
27 1 1.47747 9.29919 1.47587 
4 1 4.60086 6.17129 6.17659 
5 1 3.08238 7.6859 7.6969 
6 1 3.7898 6.98028 6.98863 
37 1 0.725845 10.0507 10.0334 
38 1 2.26437 8.50557 8.50478 
39 1 1.5573 9.21569 9.2073 
13 1 6.21434 4.56528 4.51786 
14 1 7.7341 3.06541 2.90866 
15 1 7.2187 3.49456 3.97509 
28 1 10.078 0.696618 0.67662 
29 1 8.51057 2.29799 2.05539 
30 1 9.24539 1.54728 1.40904 
49 2 7.47789 3.02352 4.97004 
1 1 6.17382 4.6047 6.11578 
2 1 7.67529 3.09598 7.67264 
3 1 6.97849 3.79614 6.95014 
40 1 10.0272 0.746417 10.0339 
41 1 8.48991 2.27952 8.49192 
42 1 9.1962 1.57516 9.20034 
7 1 6.17205 6.14813 4.57857 
8 1 7.68814 7.69392 3.08238 
9 1 6.98291 6.97487 3.77836 
43 1 10.0305 10.0552 0.732825 
44 1 8.50627 8.50431 2.26565 
45 1 9.20751 9.21783 1.56046 
22 1 6.23258 6.23965 6.22985 
23 1 7.77017 7.76381 7.77208 
24 1 7.06181 7.06164 7.06158 
34 1 10.0893 10.1145 10.0953 
35 1 8.58335 8.58396 8.58268 
36 1 9.28598 9.29804 9.28843 
ITEM: TIMESTEP
130
ITEM: NUMBER OF ATOMS
49
ITEM: BOX BOUNDS pp pp pp
-2.0620148676846980e-03 1.1002062014867684e+01
-2.0207343856949401e-03 1.1004020734385694e+01
-2.7499999999999998e-03 1.1002750000000002e+01
ITEM: ATOMS id type x y z 
10 1 4.62846 4.60296 4.57843 
11 1 3.08237 3.08313 3.08434 
12 1 3.80149 3.79004 3.77925 
46 1 0.71922 0.74192 0.730559 
47 1 2.26829 2.26581 2.26832 
48 1 1.55582 1.5649 1.56105 
19 1 4.5374 4.53889 6.2284 
20 1 3.01118 3.00265 7.77227 
21 1 3.71424 3.71033 7.06109 
31 1 0.659408 0.683815 10.0981 
32 1 2.19038 2.19086 8.58455 
33 1 1.4762 1.48787 9.29062 
16 1 4.52343 6.25009 4.54854 
17 1 2.99337 7.78148 3.00541 
18 1 3.69859 7.07566 3.71666 
25 1 0.664778 10.1117 0.666761 
26 1 2.18496 8.59167 2.17928 
27 1 1.47597 9.30057 1.47389 
4 1 4.60058 6.17149 6.17688 
5 1 3.08149 7.68669 7.69799 
6 1 3.78913 6.98084 6.98938 
37 1 0.724018 10.0524 10.0357 
38 1 2.26314 8.50669 8.5063 
39 1 1.55578 9.21709 9.20919 
13 1 6.21457 4.56497 4.51745 
14 1 7.73493 3.06452 2.90741 
15 1 7.21931 3.49386 3.97435 
28 1 10.0798 0.694826 0.674162 
29 1 8.51173 2.29681 2.05364 
30 1 9.24674 1.54585 1.40701 
49 2 7.47863 3.0226 4.96979 
1 1 6.17403 4.60442 6.11604 
2 1 7.67609 3.09512 7.67371 
3 1 6.97906 3.7955 6.95088 
40 1 10.0289 0.744625 10.0362 
41 1 8.49104 2.27832 8.49343 
42 1 9.19762 1.57369 9.20223 
7 1 6.17227 6.1483 4.57813 
8 1 7.68894 7.6947 3.08118 
9 1 6.98349 6.97543 3.7775 
43 1 10.0322 10.057 0.730403 
44 1 8.50741 8.50544 2.26402 
45 1 9.20894 9.21923 1.55845 
22 1 6.23282 6.23988 6.23017 
23 1 7.77101 7.76463 7.77319 
24 1 7.06236 7.06218 7.06233 
34 1 10.0911 10.1162 10.0977 
35 1 8.58453 8.5851 8.58423 
36 1 9.28736 9.29942 9.29032 
ITEM: TIMESTEP
140
ITEM: NUMBER OF ATOMS
49
ITEM: BOX BOUNDS pp pp pp
-1.5210120187081873e-03 1.1001521012018706e+01
-1.1544433437515561e-03 1.1003154443343750e+01
-7.5967208020109129e-03 1.1007596720802017e+01
ITEM: ATOMS id type x y z 
10 1 4.62924 4.60359 4.5781 
11 1 3.08286 3.08364 3.08232 
12 1 3.80141 3.79012 3.77758 
46 1 0.719157 0.742177 0.725864 
47 1 2.26826 2.26599 2.26517 
48 1 1.55591 1.56532 1.5573 
19 1 4.53796 4.53957 6.22856 
20 1 3.01178 3.00337 7.77394 
21 1 3.71462 3.71086 7.06215 
31 1 0.659262 0.683993 10.1028 
32 1 2.1905 2.19125 8.58741 
33 1 1.47687 1.48866 9.29384 
16 1 4.52404 6.24943 4.54812 
17 1 2.99393 7.78076 3.00357 
18 1 3.69909 7.07518 3.7153 
25 1 0.664639 10.1116 0.661886 
26 1 2.18512 8.59135 2.17618 
27 1 1.4765 9.29983 1.47061 
4 1 4.60125 6.17087 6.17684 
5 1 3.08193 7.6862 7.69979 
6 1 3.78902 6.98078 6.99082 
37 1 0.723973 10.0522 10.0402 
38 1 2.26309 8.50657 8.50929 
39 1 1.55596 9.21677 9.21274 
13 1 6.21412 4.5654 4.51748 
14 1 7.7345 3.06503 2.90591 
15 1 7.21893 3.4944 3.97299 
28 1 10.0798 0.69509 0.669331 
29 1 8.51152 2.29715 2.05025 
30 1 9.24613 1.54698 1.40351 
49 2 7.4785 3.02285 4.96936 
1 1 6.17337 4.60509 6.11605 
2 1 7.67566 3.09564 7.67542 
3 1 6.97915 3.7957 6.95241 
40 1 10.029 0.744848 10.0406 
41 1 8.49105 2.2785 8.49639 
42 1 9.19753 1.5741 9.20575 
7 1 6.1717 6.14761 4.57779 
8 1 7.68852 7.69418 3.07919 
9 1 6.98364 6.97526 3.77578 
43 1 10.0323 10.0568 0.725694 
44 1 8.50746 8.50534 2.26083 
45 1 9.20878 9.21896 1.55474 
22 1 6.23221 6.23931 6.23032 
23 1 7.77043 7.76393 7.77487 
24 1 7.062 7.06171 7.06338 
34 1 10.0912 10.1161 10.1024 
35 1 8.5843 8.5848 8.58714 
36 1 9.2869 9.29856 9.29341 
ITEM: TIMESTEP
150
ITEM: NUMBER OF ATOMS
49
ITEM: BOX BOUNDS pp pp pp
-2.7235641469543770e-03 1.1002723564146951e+01
-2.2729851595078791e-03 1.1004272985159506e+01
-1.1823965092273887e-02 1.1011823965092283e+01
ITEM: ATOMS id type x y z 
10 1 4.62947 4.60384 4.57787 
11 1 3.08251 3.08324 3.08057 
12 1 3.80088 3.78962 3.77603 
46 1 0.717596 0.740794 0.721709 
47 1 2.26709 2.26493 2.26225 
48 1 1.55492 1.56441 1.55418 
19 1 4.53812 4.53987 6.22862 
20 1 3.01165 3.00328 7.7752 
21 1 3.71436 3.71062 7.06326 
31 1 0.657727 0.6825 10.1069 
32 1 2.18966 2.19045 8.58995 
33 1 1.47613 1.48802 9.29656 
16 1 4.52437 6.2491 4.54778 
17 1 2.99386 7.78081 3.00209 
18 1 3.69879 7.0753 3.71404 
25 1 0.663009 10.1131 0.657685 
26 1 2.18422 8.59214 2.17354 
27 1 1.47581 9.30042 1.46764 
4 1 4.6015 6.17052 6.17671 
5 1 3.0815 7.68647 7.70134 
6 1 3.78854 6.98133 6.99214 
37 1 0.722489 10.0536 10.0442 
38 1 2.26196 8.50763 8.51205 
39 1 1.55497 9.21761 9.21569 
13 1 6.21401 4.5654 4.51747 
14 1 7.73477 3.06466 2.90481 
15 1 7.2193 3.49401 3.97167 
28 1 10.0812 0.693795 0.665083 
29 1 8.51223 2.29656 2.04733 
30 1 9.24662 1.54639 1.4004 
49 2 7.47902 3.02218 4.96897 
1 1 6.17305 4.60547 6.11623 
2 1 7.67603 3.09537 7.67693 
3 1 6.97954 3.7951 6.95372 
40 1 10.0305 0.743419 10.0446 
41 1 8.49211 2.27744 8.49913 
42 1 9.19843 1.57321 9.20868 
7 1 6.17145 6.14735 4.57756 
8 1 7.68891 7.69445 3.07748 
9 1 6.9841 6.97567 3.77418 
43 1 10.0337 10.0583 0.721554 
44 1 8.50853 8.50645 2.25792 
45 1 9.20971 9.21984 1.5516 
22 1 6.2319 6.23905 6.23035 