ITEM: TIMESTEP
0
ITEM: NUMBER OF ATOMS
57
ITEM: BOX BOUNDS pp pp pp
0.0000000000000000e+00 3.2808000000000000e+01
0.0000000000000000e+00 1.7780000000000001e+01
0.0000000000000000e+00 2.4729999999999999e+00
ITEM: ATOMS id type x y z 
13 1 7.043 0.849 2.464 
29 1 7.397 1.432 1.228 
37 1 8.035 2.733 1.228 
57 2 1.81 0.968 2.464 
1 1 6.173 17.398 2.464 
5 1 5.371 17.398 1.228 
9 1 3.973 17.398 1.228 
16 1 7.043 16.167 2.464 
32 1 7.397 15.584 1.228 
40 1 8.035 14.283 1.228 
45 1 3.236 17.398 2.464 
49 1 1.81 17.398 2.464 
53 1 1.083 17.398 1.228 
4 1 10.968 8.508 2.464 
8 1 11.771 8.508 1.228 
12 1 13.168 8.508 1.228 
18 1 10.098 7.277 2.464 
21 1 8.308 3.392 2.464 
26 1 8.833 4.734 2.464 
34 1 9.745 6.694 1.228 
42 1 9.106 5.393 1.228 
48 1 13.906 8.508 2.464 
52 1 15.331 8.508 2.464 
56 1 16.058 8.508 1.228 
19 1 10.098 9.739 2.464 
24 1 8.308 13.624 2.464 
27 1 8.833 12.282 2.464 
35 1 9.745 10.322 1.228 
43 1 9.106 11.623 1.228 
3 1 22.577 8.508 2.464 
7 1 21.775 8.508 1.228 
11 1 20.377 8.508 1.228 
20 1 23.447 7.277 2.464 
36 1 23.801 6.694 1.228 
44 1 24.439 5.393 1.228 
47 1 19.64 8.508 2.464 
51 1 18.214 8.508 2.464 
55 1 17.487 8.508 1.228 
17 1 23.447 9.739 2.464 
33 1 23.801 10.322 1.228 
41 1 24.439 11.623 1.228 
15 1 26.502 0.849 2.464 
23 1 25.237 3.392 2.464 
28 1 24.712 4.734 2.464 
31 1 26.149 1.432 1.228 
39 1 25.511 2.733 1.228 
2 1 27.373 17.398 2.464 
6 1 28.175 17.398 1.228 
10 1 29.572 17.398 1.228 
14 1 26.502 16.167 2.464 
22 1 25.237 13.624 2.464 
25 1 24.712 12.282 2.464 
30 1 26.149 15.584 1.228 
38 1 25.511 14.283 1.228 
46 1 30.31 17.398 2.464 
50 1 31.735 17.398 2.464 
54 1 32.462 17.398 1.228 
ITEM: TIMESTEP
10
ITEM: NUMBER OF ATOMS
57
ITEM: BOX BOUNDS pp pp pp
0.0000000000000000e+00 3.2808000000000000e+01
0.0000000000000000e+00 1.7780000000000001e+01
0.0000000000000000e+00 2.4729999999999999e+00
ITEM: ATOMS id type x y z 
13 1 7.05271 0.852806 2.46421 
29 1 7.40377 1.43883 1.22779 
37 1 8.03775 2.73701 1.22779 
57 2 1.80433 1.15294 2.46417 
1 1 6.19348 17.3983 2.46424 
5 1 5.38527 17.3941 1.22775 
9 1 3.98093 17.3847 1.22778 
16 1 7.05351 16.1633 2.46421 
32 1 7.404 15.5772 1.22779 
40 1 8.03793 14.2788 1.22779 
45 1 3.25197 17.3308 2.46421 
49 1 1.79974 17.4754 2.46414 
53 1 1.05683 17.2288 1.22774 
4 1 10.967 8.50789 2.46425 
8 1 11.7746 8.50798 1.22775 
12 1 13.1742 8.508 1.22778 
18 1 10.0974 7.27834 2.46421 
21 1 8.30948 3.39563 2.46421 
26 1 8.83427 4.73695 2.46421 
34 1 9.74374 6.69458 1.22779 
42 1 9.10695 5.39553 1.22779 
48 1 13.9086 8.508 2.46423 
52 1 15.3349 8.508 2.46422 
56 1 16.0594 8.508 1.22778 
19 1 10.0975 9.73753 2.46421 
24 1 8.30961 13.6201 2.46421 
27 1 8.83435 12.2788 2.46421 
35 1 9.74382 10.3212 1.22779 
43 1 9.10701 11.6202 1.22779 
3 1 22.5755 8.508 2.46425 
7 1 21.7736 8.508 1.22775 
11 1 20.3763 8.508 1.22778 
20 1 23.4471 7.27756 2.46421 
36 1 23.8008 6.69463 1.22779 
44 1 24.4374 5.39557 1.22779 
47 1 19.6398 8.508 2.46423 
51 1 18.2137 8.508 2.46422 
55 1 17.4882 8.508 1.22778 
17 1 23.4471 9.73844 2.46421 
33 1 23.8008 10.3214 1.22779 
41 1 24.4374 11.6204 1.22779 
15 1 26.4974 0.85106 2.46421 
23 1 25.2367 3.39424 2.46421 
28 1 24.7111 4.73523 2.46421 
31 1 26.1456 1.43562 1.22779 
39 1 25.5099 2.73506 1.22779 
2 1 27.3639 17.398 2.46425 
6 1 28.1697 17.398 1.22775 
10 1 29.5652 17.3981 1.22778 
14 1 26.4974 16.1649 2.46421 
22 1 25.2367 13.6218 2.46421 
25 1 24.7111 12.2808 2.46421 
30 1 26.1456 15.5804 1.22779 
38 1 25.5099 14.2809 1.22779 
46 1 30.2938 17.3993 2.46423 
50 1 31.7294 17.4011 2.46421 
54 1 32.455 17.3857 1.22777 
ITEM: TIMESTEP
20
ITEM: NUMBER OF ATOMS
57
ITEM: BOX BOUNDS pp pp pp
0.0000000000000000e+00 3.2808000000000000e+01
0.0000000000000000e+00 1.7780000000000001e+01
0.0000000000000000e+00 2.4729999999999999e+00
ITEM: ATOMS id type x y z 
13 1 7.05053 0.849735 2.46426 
29 1 7.40205 1.43372 1.22775 
37 1 8.03744 2.73567 1.22774 
57 2 1.79364 1.15935 2.46417 
1 1 6.17961 17.3982 2.46425 
5 1 5.38337 17.3939 1.22775 
9 1 3.97599 17.3729 1.22774 
16 1 7.05161 16.1665 2.46426 
32 1 7.40251 15.5822 1.22775 
40 1 8.03765 14.2801 1.22774 
45 1 3.26624 17.3211 2.46424 
49 1 1.7967 17.5044 2.4642 
53 1 1.06197 17.2282 1.22769 
4 1 10.9717 8.50784 2.46425 
8 1 11.7741 8.50794 1.22775 
12 1 13.1704 8.508 1.22775 
18 1 10.098 7.27955 2.46426 
21 1 8.30954 3.39544 2.46426 
26 1 8.83397 4.73647 2.46426 
34 1 9.74386 6.69676 1.22774 
42 1 9.10683 5.39646 1.22774 
48 1 13.907 8.508 2.46426 
52 1 15.3334 8.508 2.46425 
56 1 16.0588 8.508 1.22775 
19 1 10.098 9.73622 2.46426 
24 1 8.30966 13.6203 2.46426 
27 1 8.83405 12.2793 2.46426 
35 1 9.74395 10.319 1.22774 
43 1 9.10689 11.6193 1.22774 
3 1 22.5762 8.508 2.46425 
7 1 21.7737 8.508 1.22775 
11 1 20.3772 8.508 1.22775 
20 1 23.4475 7.2781 2.46426 
36 1 23.8012 6.69525 1.22774 
44 1 24.4379 5.39486 1.22774 
47 1 19.6405 8.508 2.46426 
51 1 18.2145 8.508 2.46425 
55 1 17.4888 8.508 1.22775 
17 1 23.4475 9.7379 2.46426 
33 1 23.8012 10.3208 1.22774 
41 1 24.4379 11.6211 1.22774 
15 1 26.4971 0.850082 2.46426 
23 1 25.2365 3.39491 2.46426 
28 1 24.7111 4.73503 2.46425 
31 1 26.1455 1.43414 1.22774 
39 1 25.5097 2.7351 1.22774 
2 1 27.3658 17.398 2.46425 
6 1 28.168 17.3979 1.22775 
10 1 29.5646 17.3983 1.22775 
14 1 26.4971 16.1659 2.46426 
22 1 25.2365 13.6211 2.46426 
25 1 24.7111 12.281 2.46425 
30 1 26.1455 15.5819 1.22774 
38 1 25.5097 14.2809 1.22774 
46 1 30.3086 17.401 2.46425 
50 1 31.7248 17.4012 2.46424 
54 1 32.4657 17.3711 1.22773 
ITEM: TIMESTEP
30
ITEM: NUMBER OF ATOMS
57
ITEM: BOX BOUNDS pp pp pp
0.0000000000000000e+00 3.2808000000000000e+01
0.0000000000000000e+00 1.7780000000000001e+01
0.0000000000000000e+00 2.4729999999999999e+00
ITEM: ATOMS id type x y z 
13 1 7.04798 0.847948 2.46425 
29 1 7.40114 1.43167 1.22775 
37 1 8.03592 2.73405 1.22775 
57 2 1.77949 1.18135 2.46418 
1 1 6.17522 17.3984 2.46425 
5 1 5.37802 17.3919 1.22775 
9 1 3.97121 17.3523 1.22774 
16 1 7.04961 16.1683 2.46425 
32 1 7.40195 15.5843 1.22775 
40 1 8.03622 14.2816 1.22775 
45 1 3.26256 17.3138 2.46423 
49 1 1.79817 17.5294 2.4642 
53 1 1.06741 17.2359 1.22771 
4 1 10.9699 8.50777 2.46425 
8 1 11.7722 8.50787 1.22775 
12 1 13.1692 8.508 1.22775 
18 1 10.0974 7.27861 2.46425 
21 1 8.30851 3.3935 2.46425 
26 1 8.83363 4.73522 2.46425 
34 1 9.74283 6.69589 1.22775 
42 1 9.10621 5.3944 1.22775 
48 1 13.9065 8.50801 2.46425 
52 1 15.3325 8.508 2.46425 
56 1 16.0585 8.508 1.22775 
19 1 10.0975 9.73704 2.46425 
24 1 8.30867 13.6222 2.46425 
27 1 8.83373 12.2804 2.46425 
35 1 9.74294 10.3198 1.22775 
43 1 9.10629 11.6212 1.22775 
3 1 22.577 8.50799 2.46425 
7 1 21.7747 8.508 1.22775 
11 1 20.3777 8.508 1.22775 
20 1 23.4485 7.27809 2.46425 
36 1 23.8022 6.69499 1.22775 
44 1 24.4386 5.39341 1.22775 
47 1 19.6404 8.508 2.46425 
51 1 18.2147 8.508 2.46425 
55 1 17.4886 8.508 1.22775 
17 1 23.4485 9.7379 2.46425 
33 1 23.8022 10.321 1.22775 
41 1 24.4386 11.6226 1.22775 
15 1 26.4991 0.848281 2.46425 
23 1 25.2375 3.39291 2.46425 
28 1 24.7114 4.73413 2.46425 
31 1 26.1463 1.43158 1.22775 
39 1 25.5107 2.73368 1.22775 
2 1 27.3712 17.398 2.46425 
6 1 28.1731 17.3979 1.22775 
10 1 29.5699 17.3995 1.22775 
14 1 26.4991 16.1677 2.46425 
22 1 25.2375 13.6231 2.46425 
25 1 24.7114 12.2819 2.46425 
30 1 26.1462 15.5844 1.22775 
38 1 25.5107 14.2823 1.22775 
46 1 30.3133 17.4038 2.46425 
50 1 31.7302 17.3956 2.46423 
54 1 32.4704 17.3485 1.22773 
ITEM: TIMESTEP
40
ITEM: NUMBER OF ATOMS
57
ITEM: BOX BOUNDS pp pp pp
0.0000000000000000e+00 3.2808000000000000e+01
0.0000000000000000e+00 1.7780000000000001e+01
0.0000000000000000e+00 2.4729999999999999e+00
ITEM: ATOMS id type x y z 
13 1 7.03784 0.846485 2.46425 
29 1 7.39524 1.42843 1.22775 
37 1 8.03086 2.73083 1.22775 
57 2 1.75679 1.237 2.4642 
1 1 6.1635 17.3988 2.46425 
5 1 5.36628 17.3793 1.22774 
9 1 3.96141 17.3035 1.22773 
16 1 7.04234 16.1704 2.46425 
32 1 7.39799 15.5876 1.22775 
40 1 8.03185 14.2841 1.22775 
45 1 3.25195 17.3106 2.46423 
49 1 1.80013 17.5857 2.46422 
53 1 1.0791 17.2643 1.22772 
4 1 10.9665 8.50739 2.46425 
8 1 11.7685 8.50764 1.22775 
12 1 13.1675 8.50797 1.22775 
18 1 10.0975 7.2749 2.46425 
21 1 8.30504 3.38964 2.46425 
26 1 8.83336 4.73104 2.46425 
34 1 9.74329 6.69206 1.22775 
42 1 9.1068 5.38842 1.22775 
48 1 13.9052 8.50802 2.46425 
52 1 15.3306 8.50801 2.46425 
56 1 16.0586 8.508 1.22775 
19 1 10.0977 9.74018 2.46425 
24 1 8.30548 13.6254 2.46425 
27 1 8.83366 12.2838 2.46425 
35 1 9.74356 10.3229 1.22775 
43 1 9.10705 11.6265 1.22775 
3 1 22.5792 8.50796 2.46425 
7 1 21.7776 8.50798 1.22775 
11 1 20.379 8.508 1.22775 
20 1 23.4485 7.27556 2.46425 
36 1 23.8021 6.69262 1.22775 
44 1 24.4379 5.38856 1.22775 
47 1 19.6411 8.508 2.46425 
51 1 18.2153 8.508 2.46425 
55 1 17.4874 8.508 1.22775 
17 1 23.4484 9.74037 2.46425 
33 1 23.8021 10.3233 1.22775 
41 1 24.4379 11.6274 1.22775 
15 1 26.5075 0.847018 2.46425 
23 1 25.2404 3.39005 2.46425 
28 1 24.7116 4.73094 2.46425 
31 1 26.1507 1.42859 1.22775 
39 1 25.5147 2.73135 1.22775 
2 1 27.382 17.3978 2.46425 
6 1 28.1838 17.3986 1.22775 
10 1 29.5811 17.4061 1.22774 
14 1 26.5074 16.169 2.46425 
22 1 25.2403 13.6259 2.46425 
25 1 24.7115 12.285 2.46425 
30 1 26.1506 15.5874 1.22775 
38 1 25.5146 14.2846 1.22775 
46 1 30.3236 17.4081 2.46424 
50 1 31.7398 17.361 2.46423 
54 1 32.4793 17.2998 1.22772 
ITEM: TIMESTEP
50
ITEM: NUMBER OF ATOMS
57
ITEM: BOX BOUNDS pp pp pp
0.0000000000000000e+00 3.2808000000000000e+01
0.0000000000000000e+00 1.7780000000000001e+01
0.0000000000000000e+00 2.4729999999999999e+00
ITEM: ATOMS id type x y z 
13 1 7.03468 0.847954 2.46425 
29 1 7.39198 1.43011 1.22775 
37 1 8.0291 2.73075 1.22775 
57 2 1.76035 1.24304 2.4642 
1 1 6.16415 17.3982 2.46424 
5 1 5.3658 17.3755 1.22774 
9 1 3.96008 17.3057 1.22773 
16 1 7.04179 16.1695 2.46425 
32 1 7.39652 15.5857 1.22775 
40 1 8.03085 14.2835 1.22775 
45 1 3.25175 17.3131 2.46423 
49 1 1.80036 17.5927 2.46422 
53 1 1.07872 17.2699 1.22772 
4 1 10.9668 8.50686 2.46425 
8 1 11.7688 8.5074 1.22775 
12 1 13.167 8.50795 1.22775 
18 1 10.0989 7.27406 2.46425 
21 1 8.30418 3.38982 2.46425 
26 1 8.83407 4.73043 2.46425 
34 1 9.74545 6.69097 1.22775 
42 1 9.10807 5.38698 1.22775 
48 1 13.9049 8.50802 2.46425 
52 1 15.3306 8.50802 2.46425 
56 1 16.0587 8.508 1.22775 
19 1 10.0993 9.74023 2.46425 
24 1 8.30504 13.6245 2.46425 
27 1 8.83458 12.2836 2.46425 
35 1 9.74595 10.3232 1.22775 
43 1 9.10851 11.6271 1.22775 
3 1 22.5788 8.50798 2.46425 
7 1 21.777 8.50797 1.22775 
11 1 20.3786 8.508 1.22775 
20 1 23.4469 7.27506 2.46425 
36 1 23.7999 6.69201 1.22775 
44 1 24.4364 5.38821 1.22775 
47 1 19.6412 8.508 2.46425 
51 1 18.2155 8.508 2.46425 
55 1 17.4875 8.508 1.22775 
17 1 23.4469 9.74089 2.46425 
33 1 23.7999 10.324 1.22775 
41 1 24.4364 11.6278 1.22775 
15 1 26.5091 0.848182 2.46425 
23 1 25.241 3.3905 2.46425 
28 1 24.7106 4.73106 2.46425 
31 1 26.153 1.4305 1.22775 
39 1 25.516 2.73168 1.22775 
2 1 27.3816 17.3978 2.46425 
6 1 28.1839 17.3997 1.22775 
10 1 29.5808 17.4078 1.22774 
14 1 26.5092 16.1678 2.46425 
22 1 25.241 13.6255 2.46425 
25 1 24.7106 12.2849 2.46425 
30 1 26.1529 15.5855 1.22775 
38 1 25.516 14.2843 1.22775 
46 1 30.3234 17.4043 2.46424 
50 1 31.7405 17.3504 2.46423 
54 1 32.4793 17.2973 1.22773 
ITEM: TIMESTEP
60
ITEM: NUMBER OF ATOMS
57
ITEM: BOX BOUNDS pp pp pp
0.0000000000000000e+00 3.2808000000000000e+01
0.0000000000000000e+00 1.7780000000000001e+01
0.0000000000000000e+00 2.4729999999999999e+00
ITEM: ATOMS id type x y z 
13 1 7.03288 0.848157 2.46425 
29 1 7.38956 1.4291 1.22775 
37 1 8.02867 2.73157 1.22775 
57 2 1.76193 1.24575 2.4642 
1 1 6.16246 17.3979 2.46424 
5 1 5.36564 17.3743 1.22774 
9 1 3.95953 17.3066 1.22773 
16 1 7.04123 16.1695 2.46425 
32 1 7.39521 15.5866 1.22775 
40 1 8.03085 14.2823 1.22775 
45 1 3.25225 17.3149 2.46423 
49 1 1.8003 17.5948 2.46422 
53 1 1.08012 17.2736 1.22772 
4 1 10.9674 8.50662 2.46425 
8 1 11.7691 8.50723 1.22775 
12 1 13.1678 8.50794 1.22775 
18 1 10.0992 7.27356 2.46425 
21 1 8.30339 3.38888 2.46425 
26 1 8.83404 4.72931 2.46425 
34 1 9.74583 6.68968 1.22775 
42 1 9.10941 5.38819 1.22775 
48 1 13.9057 8.50802 2.46425 
52 1 15.3309 8.50802 2.46425 
56 1 16.058 8.50801 1.22775 
19 1 10.0997 9.74029 2.46425 
24 1 8.30453 13.6249 2.46425 
27 1 8.83468 12.2843 2.46425 
35 1 9.74646 10.3241 1.22775 
43 1 9.10994 11.6255 1.22775 
3 1 22.5785 8.508 2.46425 
7 1 21.7767 8.50798 1.22775 
11 1 20.3782 8.508 1.22775 
20 1 23.4465 7.2748 2.46425 
36 1 23.7996 6.69081 1.22775 
44 1 24.4355 5.38875 1.22775 
47 1 19.6399 8.508 2.46425 
51 1 18.2149 8.508 2.46425 
55 1 17.4876 8.508 1.22775 
17 1 23.4465 9.74118 2.46425 
33 1 23.7996 10.3252 1.22775 
41 1 24.4355 11.6273 1.22775 
15 1 26.5099 0.848441 2.46425 
23 1 25.2415 3.39012 2.46425 
28 1 24.7106 4.73023 2.46425 
31 1 26.1544 1.43033 1.22775 
39 1 25.5162 2.73276 1.22775 
2 1 27.3816 17.3978 2.46425 
6 1 28.1834 17.4002 1.22775 
10 1 29.5804 17.4081 1.22774 
14 1 26.5101 16.1675 2.46425 
22 1 25.2415 13.6259 2.46425 
25 1 24.7106 12.2858 2.46425 
30 1 26.1545 15.5857 1.22775 
38 1 25.5162 14.2833 1.22775 
46 1 30.3254 17.4025 2.46424 
50 1 31.7388 17.3464 2.46423 
54 1 32.48 17.2956 1.22773 
ITEM: TIMESTEP
70
ITEM: NUMBER OF ATOMS
57
ITEM: BOX BOUNDS pp pp pp
0.0000000000000000e+00 3.2808000000000000e+01
0.0000000000000000e+00 1.7780000000000001e+01
0.0000000000000000e+00 2.4729999999999999e+00
ITEM: ATOMS id type x y z 
13 1 7.02565 0.85011 2.46425 
29 1 7.3817 1.43177 1.22775 
37 1 8.02404 2.7314 1.22775 
57 2 1.76939 1.26164 2.46421 
1 1 6.16128 17.3958 2.46424 
5 1 5.36386 17.3696 1.22774 
9 1 3.9573 17.3098 1.22773 
16 1 7.04057 16.1681 2.46425 
32 1 7.39304 15.5838 1.22775 
40 1 8.02861 14.2808 1.22775 
45 1 3.24984 17.322 2.46423 
49 1 1.79975 17.6111 2.46422 
53 1 1.08025 17.2866 1.22772 
4 1 10.9673 8.50515 2.46425 
8 1 11.7693 8.50616 1.22775 
12 1 13.1674 8.50782 1.22775 
18 1 10.1011 7.27106 2.46425 
21 1 8.30121 3.38861 2.46425 
26 1 8.8356 4.7272 2.46425 
34 1 9.74931 6.68656 1.22775 
42 1 9.11203 5.38474 1.22775 
48 1 13.9053 8.50805 2.46425 
52 1 15.3309 8.50805 2.46425 
56 1 16.058 8.50802 1.22775 
19 1 10.1021 9.74029 2.46425 
24 1 8.30363 13.6231 2.46425 
27 1 8.83683 12.284 2.46425 
35 1 9.75054 10.3248 1.22775 
43 1 9.11311 11.6265 1.22775 
3 1 22.578 8.5082 2.46425 
7 1 21.7758 8.50806 1.22775 
11 1 20.3776 8.50799 1.22775 
20 1 23.4441 7.27393 2.46425 
36 1 23.7957 6.68957 1.22775 
44 1 24.4326 5.38753 1.22775 
47 1 19.64 8.508 2.46425 
51 1 18.2146 8.508 2.46425 
55 1 17.4874 8.508 1.22775 
17 1 23.4442 9.74234 2.46425 
33 1 23.7958 10.3267 1.22775 
41 1 24.4327 11.6288 1.22775 
15 1 26.5129 0.850049 2.46425 
23 1 25.2427 3.39121 2.46425 
28 1 24.7087 4.72987 2.46425 
31 1 26.1589 1.43306 1.22775 
39 1 25.5192 2.73388 1.22775 
2 1 27.383 17.398 2.46425 
6 1 28.1848 17.4023 1.22774 
10 1 29.5817 17.4081 1.22774 
14 1 26.5141 16.1656 2.46425 
22 1 25.2429 13.6251 2.46425 
25 1 24.7088 12.2865 2.46425 
30 1 26.1596 15.5831 1.22775 
38 1 25.5195 14.2825 1.22775 
46 1 30.3256 17.3937 2.46424 
50 1 31.74 17.3275 2.46423 
54 1 32.4811 17.286 1.22773 
ITEM: TIMESTEP
80
ITEM: NUMBER OF ATOMS
57
ITEM: BOX BOUNDS pp pp pp
0.0000000000000000e+00 3.2808000000000000e+01
0.0000000000000000e+00 1.7780000000000001e+01
0.0000000000000000e+00 2.4729999999999999e+00
ITEM: ATOMS id type x y z 
13 1 7.0212 0.850285 2.46425 
29 1 7.3765 1.4323 1.22775 
37 1 8.02073 2.7316 1.22775 
57 2 1.77302 1.27245 2.46421 
1 1 6.15842 17.3942 2.46424 
5 1 5.36217 17.3679 1.22774 
9 1 3.95582 17.3118 1.22773 
16 1 7.04001 16.1677 2.46425 
32 1 7.39234 15.5834 1.22775 
40 1 8.02765 14.2793 1.22775 
45 1 3.24859 17.3273 2.46423 
49 1 1.7981 17.6216 2.46422 
53 1 1.08141 17.2957 1.22772 
4 1 10.9671 8.50412 2.46425 
8 1 11.7694 8.50512 1.22775 
12 1 13.1682 8.50762 1.22775 
18 1 10.1017 7.26937 2.46425 
21 1 8.29934 3.38774 2.46425 
26 1 8.83635 4.72492 2.46425 
34 1 9.75055 6.68437 1.22775 
42 1 9.11373 5.38289 1.22775 
48 1 13.9049 8.50808 2.46425 
52 1 15.3307 8.50811 2.46425 
56 1 16.0577 8.50804 1.22775 
19 1 10.1028 9.74001 2.46425 
24 1 8.30299 13.6223 2.46425 
27 1 8.838 12.2844 2.46425 
35 1 9.75208 10.3251 1.22775 
43 1 9.1153 11.6263 1.22775 
3 1 22.5777 8.50845 2.46425 
7 1 21.7756 8.50826 1.22775 
11 1 20.3775 8.50801 1.22775 
20 1 23.4432 7.27365 2.46425 
36 1 23.7943 6.6886 1.22775 
44 1 24.4309 5.38662 1.22775 
47 1 19.6391 8.50799 2.46425 
51 1 18.2143 8.50799 2.46425 
55 1 17.4869 8.508 1.22775 
17 1 23.4434 9.74305 2.46425 
33 1 23.7946 10.3281 1.22775 
41 1 24.4311 11.6302 1.22775 
15 1 26.5144 0.850554 2.46425 
23 1 25.2438 3.39143 2.46425 
28 1 24.7077 4.72919 2.46425 
31 1 26.1611 1.43372 1.22775 
39 1 25.5211 2.73482 1.22775 
2 1 27.3838 17.3983 2.46425 
6 1 28.1858 17.4029 1.22774 
10 1 29.5832 17.4048 1.22774 
14 1 26.5167 16.165 2.46425 
22 1 25.2442 13.6253 2.46425 
25 1 24.7079 12.2876 2.46425 
30 1 26.1627 15.5825 1.22775 
38 1 25.5217 14.2819 1.22775 
46 1 30.3282 17.3876 2.46424 
50 1 31.7402 17.3183 2.46423 
54 1 32.483 17.2792 1.22773 
ITEM: TIMESTEP
90
ITEM: NUMBER OF ATOMS
57
ITEM: BOX BOUNDS pp pp pp
0.0000000000000000e+00 3.2808000000000000e+01
0.0000000000000000e+00 1.7780000000000001e+01
0.0000000000000000e+00 2.4729999999999999e+00
ITEM: ATOMS id type x y z 
13 1 7.02011 0.850526 2.46425 
29 1 7.37527 1.43302 1.22775 
37 1 8.01949 2.73131 1.22775 
57 2 1.77401 1.27631 2.46422 
1 1 6.15953 17.3936 2.46424 
5 1 5.36169 17.3673 1.22774 
9 1 3.95538 17.3125 1.22773 
16 1 7.04009 16.1672 2.46425 
32 1 7.39246 15.5825 1.22775 
40 1 8.02706 14.2796 1.22775 
45 1 3.24785 17.3287 2.46423 
49 1 1.79899 17.6261 2.46422 
53 1 1.0808 17.2971 1.22772 
4 1 10.9667 8.50372 2.46425 
8 1 11.7691 8.50479 1.22775 
12 1 13.1671 8.50754 1.22775 
18 1 10.102 7.26891 2.46425 
21 1 8.29881 3.38777 2.46425 
26 1 8.83682 4.72479 2.46425 
34 1 9.75107 6.68393 1.22775 
42 1 9.11394 5.38151 1.22775 
48 1 13.9053 8.50808 2.46425 
52 1 15.3303 8.50814 2.46425 
56 1 16.0578 8.50806 1.22775 
19 1 10.1031 9.73978 2.46425 
24 1 8.30289 13.6219 2.46425 
27 1 8.83864 12.2839 2.46425 
35 1 9.75272 10.3248 1.22775 
43 1 9.11544 11.6274 1.22775 
3 1 22.5779 8.50855 2.46425 
7 1 21.7757 8.50833 1.22775 
11 1 20.3774 8.50802 1.22775 
20 1 23.4429 7.27352 2.46425 
36 1 23.7937 6.68871 1.22775 
44 1 24.4303 5.38653 1.22775 
47 1 19.6401 8.50798 2.46425 
51 1 18.2142 8.50799 2.46425 
55 1 17.4872 8.508 1.22775 
17 1 23.4431 9.74335 2.46425 
33 1 23.7939 10.3282 1.22775 
41 1 24.4305 11.6304 1.22775 
15 1 26.5148 0.850732 2.46425 
23 1 25.244 3.39197 2.46425 
28 1 24.7072 4.72929 2.46425 
31 1 26.1614 1.43443 1.22775 
39 1 25.5217 2.73488 1.22775 
2 1 27.3841 17.3985 2.46424 
6 1 28.1867 17.403 1.22774 
10 1 29.5836 17.4036 1.22774 
14 1 26.5174 16.1649 2.46425 
22 1 25.2444 13.6249 2.46425 
25 1 24.7075 12.2876 2.46425 
30 1 26.1634 15.5818 1.22775 
38 1 25.5225 14.2819 1.22775 
46 1 30.3264 17.3856 2.46424 
50 1 31.7422 17.3154 2.46423 
54 1 32.4827 17.2775 1.22773 
ITEM: TIMESTEP
100
ITEM: NUMBER OF ATOMS
57
ITEM: BOX BOUNDS pp pp pp
0.0000000000000000e+00 3.2808000000000000e+01
0.0000000000000000e+00 1.7780000000000001e+01
0.0000000000000000e+00 2.4729999999999999e+00
ITEM: ATOMS id type x y z 
13 1 7.01473 0.85083 2.46424 
29 1 7.36882 1.43376 1.22775 
37 1 8.01479 2.73125 1.22775 
57 2 1.77789 1.29101 2.46422 
1 1 6.15757 17.3914 2.46424 
5 1 5.3596 17.3644 1.22774 
9 1 3.95329 17.316 1.22773 
16 1 7.03964 16.1662 2.46424 
32 1 7.39171 15.5815 1.22775 
40 1 8.02595 14.2782 1.22775 
45 1 3.2462 17.3363 2.46423 
49 1 1.79804 17.6408 2.46423 
53 1 1.08204 17.3088 1.22773 
4 1 10.9666 8.5022 2.46425 
8 1 11.7689 8.50336 1.22775 
12 1 13.1672 8.50715 1.22775 
18 1 10.1027 7.26673 2.46425 
21 1 8.29606 3.38685 2.46425 
26 1 8.83799 4.72238 2.46425 
34 1 9.75281 6.68134 1.22775 
42 1 9.11617 5.37889 1.22775 
48 1 13.9047 8.50804 2.46425 
52 1 15.3303 8.50825 2.46425 
56 1 16.0573 8.50812 1.22775 
19 1 10.1041 9.73916 2.46425 
24 1 8.30226 13.6208 2.46425 
27 1 8.84048 12.2838 2.46425 
35 1 9.75478 10.3247 1.22775 
43 1 9.11824 11.6271 1.22775 
3 1 22.5777 8.50893 2.46425 
7 1 21.7753 8.50868 1.22775 
11 1 20.3772 8.50807 1.22775 
20 1 23.4416 7.2733 2.46425 
36 1 23.7917 6.68795 1.22775 
44 1 24.4281 5.38528 1.22775 
47 1 19.6393 8.50797 2.46425 
51 1 18.2141 8.50797 2.46425 
55 1 17.4868 8.508 1.22775 
17 1 23.4419 9.74427 2.46425 
33 1 23.792 10.3296 1.22775 
41 1 24.4285 11.6323 1.22775 
15 1 26.5167 0.851566 2.46425 
23 1 25.2455 3.39231 2.46425 
28 1 24.7057 4.72875 2.46425 
31 1 26.164 1.43541 1.22775 
39 1 25.5241 2.73584 1.22775 
2 1 27.3854 17.3991 2.46424 
6 1 28.1881 17.4034 1.22774 
10 1 29.5847 17.3981 1.22774 
14 1 26.5207 16.1641 2.46425 
22 1 25.2463 13.6251 2.46425 
25 1 24.7061 12.2888 2.46425 
30 1 26.1675 15.5809 1.22775 
38 1 25.5256 14.2813 1.22775 
46 1 30.3282 17.3762 2.46424 
50 1 31.7426 17.3032 2.46423 
54 1 32.4844 17.2703 1.22773 
ITEM: TIMESTEP
102
ITEM: NUMBER OF ATOMS
57
ITEM: BOX BOUNDS pp pp pp
0.0000000000000000e+00 3.2808000000000000e+01
0.0000000000000000e+00 1.7780000000000001e+01
0.0000000000000000e+00 2.4729999999999999e+00
ITEM: ATOMS id type x y z 
13 1 7.01386 0.850706 2.46425 
29 1 7.36766 1.43326 1.22775 
37 1 8.01426 2.73151 1.22775 
57 2 1.77829 1.29238 2.46422 
1 1 6.15647 17.391 2.46424 
5 1 5.35993 17.364 1.22774 
9 1 3.9525 17.3166 1.22773 
16 1 7.03937 16.1662 2.46425 
32 1 7.39136 15.5818 1.22775 
40 1 8.026 14.2776 1.22775 
45 1 3.24563 17.3379 2.46423 
49 1 1.79808 17.642 2.46423 
53 1 1.0817 17.3114 1.22773 
4 1 10.9665 8.50206 2.46425 
8 1 11.769 8.50316 1.22775 
12 1 13.167 8.50708 1.22775 
18 1 10.1028 7.26648 2.46425 
21 1 8.29553 3.38646 2.46425 
26 1 8.83791 4.72156 2.46425 
34 1 9.75277 6.68058 1.22775 
42 1 9.11663 5.37898 1.22775 
48 1 13.9053 8.50802 2.46425 
52 1 15.3304 8.50827 2.46425 
56 1 16.0577 8.50814 1.22775 
19 1 10.1042 9.73902 2.46425 
24 1 8.30212 13.6209 2.46425 
27 1 8.84054 12.2842 2.46425 
35 1 9.75478 10.325 1.22775 
43 1 9.11874 11.6267 1.22775 
3 1 22.5774 8.50898 2.46425 
7 1 21.7754 8.50873 1.22775 
11 1 20.3768 8.50809 1.22775 
20 1 23.4415 7.27315 2.46425 
36 1 23.7915 6.68767 1.22775 
44 1 24.4273 5.38635 1.22775 
47 1 19.6396 8.50797 2.46425 
51 1 18.2139 8.50796 2.46425 
55 1 17.487 8.50801 1.22775 
17 1 23.4418 9.74451 2.46425 
33 1 23.7919 10.33 1.22775 
41 1 24.4277 11.6313 1.22775 
15 1 26.5171 0.851447 2.46425 
23 1 25.2455 3.39267 2.46425 
28 1 24.7056 4.7285 2.46425 
31 1 26.1644 1.43528 1.22775 
39 1 25.5242 2.73628 1.22775 
2 1 27.3866 17.3992 2.46424 
6 1 28.1883 17.4034 1.22774 
10 1 29.5857 17.3971 1.22774 
14 1 26.5212 16.1643 2.46425 
22 1 25.2464 13.6248 2.46425 
25 1 24.7061 12.2892 2.46425 
30 1 26.168 15.581 1.22775 
38 1 25.5259 14.2809 1.22775 
46 1 30.3292 17.3747 2.46424 
50 1 31.7427 17.3017 2.46423 
54 1 32.4851 17.2697 1.22773 
ITEM: TIMESTEP
110
ITEM: NUMBER OF ATOMS
57
ITEM: BOX BOUNDS pp pp pp
0.0000000000000000e+00 3.2808000000000000e+01
0.0000000000000000e+00 1.7780000000000001e+01
0.0000000000000000e+00 2.4729999999999999e+00
ITEM: ATOMS id type x y z 
13 1 7.01021 0.850877 2.46424 
29 1 7.3635 1.43473 1.22775 
37 1 8.01035 2.7313 1.22775 
57 2 1.78065 1.30552 2.46422 
1 1 6.15654 17.3892 2.46424 
5 1 5.3569 17.3617 1.22774 
9 1 3.95144 17.3201 1.22774 
16 1 7.03958 16.1651 2.46424 
32 1 7.39154 15.5799 1.22775 
40 1 8.02528 14.277 1.22775 
45 1 3.24567 17.3441 2.46423 
49 1 1.79717 17.6549 2.46423 
53 1 1.08319 17.3192 1.22773 
4 1 10.9667 8.50057 2.46425 
8 1 11.7685 8.50192 1.22775 
12 1 13.1673 8.50667 1.22775 
18 1 10.1034 7.26456 2.46425 
21 1 8.2934 3.3865 2.46425 
26 1 8.83901 4.72047 2.46425 
34 1 9.75443 6.67918 1.22775 
42 1 9.11797 5.37609 1.22775 
48 1 13.9035 8.50791 2.46425 
52 1 15.3303 8.50837 2.46425 
56 1 16.0567 8.50823 1.22775 
19 1 10.1049 9.73836 2.46425 
24 1 8.30227 13.6193 2.46425 
27 1 8.84235 12.2831 2.46425 
35 1 9.75665 10.3239 1.22775 
43 1 9.1205 11.6271 1.22775 
3 1 22.578 8.50932 2.46425 
7 1 21.7748 8.50905 1.22775 
11 1 20.3774 8.50817 1.22775 
20 1 23.4406 7.27324 2.46425 
36 1 23.7899 6.6874 1.22775 
44 1 24.4268 5.38302 1.22775 
47 1 19.6384 8.50797 2.46425 
51 1 18.214 8.50794 2.46425 
55 1 17.4863 8.50801 1.22775 
17 1 23.441 9.74504 2.46425 
33 1 23.7904 10.3308 1.22775 
41 1 24.4273 11.6353 1.22775 
15 1 26.5185 0.852589 2.46425 
23 1 25.2469 3.39241 2.46425 
28 1 24.7044 4.7284 2.46425 
31 1 26.1662 1.4366 1.22775 
39 1 25.5264 2.73655 1.22775 
2 1 27.3856 17.3997 2.46424 
6 1 28.1892 17.4034 1.22774 
10 1 29.585 17.3914 1.22774 
14 1 26.5234 16.1634 2.46425 
22 1 25.2483 13.6256 2.46425 
25 1 24.7049 12.2898 2.46425 
30 1 26.171 15.5799 1.22775 
38 1 25.5287 14.2809 1.22775 
46 1 30.3292 17.3663 2.46424 
50 1 31.7431 17.2928 2.46423 
54 1 32.4854 17.2651 1.22773 
ITEM: TIMESTEP
120
ITEM: NUMBER OF ATOMS
57
ITEM: BOX BOUNDS pp pp pp
0.0000000000000000e+00 3.2808000000000000e+01
0.0000000000000000e+00 1.7780000000000001e+01
0.0000000000000000e+00 2.4729999999999999e+00
ITEM: ATOMS id type x y z 
13 1 7.00027 0.850647 2.46424 
29 1 7.35128 1.43499 1.22774 
37 1 8.00071 2.73114 1.22775 
57 2 1.78607 1.33301 2.46423 
1 1 6.15235 17.3844 2.46424 
5 1 5.35468 17.3561 1.22774 
9 1 3.94743 17.3294 1.22774 
16 1 7.03863 16.1628 2.46424 
32 1 7.39033 15.5779 1.22774 
40 1 8.02408 14.2741 1.22775 
45 1 3.24138 17.3626 2.46424 
49 1 1.7962 17.6835 2.46423 
53 1 1.08312 17.3444 1.22773 
4 1 10.966 8.49733 2.46425 
8 1 11.7686 8.49881 1.22775 
12 1 13.1668 8.50559 1.22775 
18 1 10.1046 7.2603 2.46425 
21 1 8.28705 3.38428 2.46425 
26 1 8.84044 4.71506 2.46425 
34 1 9.75696 6.67333 1.22775 
42 1 9.12176 5.37069 1.22775 
48 1 13.9044 8.5076 2.46425 
52 1 15.3298 8.50864 2.46425 
56 1 16.0569 8.50848 1.22775 
19 1 10.1064 9.73627 2.46425 
24 1 8.30184 13.6175 2.46425 
27 1 8.84582 12.2829 2.46425 
35 1 9.75958 10.3235 1.22775 
43 1 9.1253 11.6266 1.22775 
3 1 22.5772 8.51014 2.46425 
7 1 21.7747 8.50984 1.22775 
11 1 20.3765 8.50838 1.22775 
20 1 23.4386 7.27269 2.46425 
36 1 23.7864 6.68601 1.22775 
44 1 24.4216 5.38331 1.22775 
47 1 19.6388 8.50798 2.46425 
51 1 18.2135 8.50788 2.46425 
55 1 17.4863 8.50804 1.22775 
17 1 23.439 9.74714 2.46425 
33 1 23.787 10.3337 1.22775 
41 1 24.4224 11.6364 1.22775 
15 1 26.5223 0.853841 2.46425 
23 1 25.2491 3.39415 2.46425 
28 1 24.7017 4.72731 2.46425 
31 1 26.1709 1.43847 1.22775 
39 1 25.5304 2.73882 1.22775 
2 1 27.39 17.4011 2.46424 
6 1 28.1925 17.4032 1.22774 
10 1 29.5892 17.3765 1.22774 
14 1 26.5292 16.1628 2.46425 
22 1 25.2517 13.6249 2.46425 
25 1 24.7027 12.2923 2.46425 
30 1 26.1782 15.5784 1.22775 
38 1 25.5346 14.2795 1.22775 
46 1 30.3325 17.3447 2.46424 
50 1 31.7463 17.2712 2.46423 
54 1 32.489 17.2553 1.22773 
ITEM: TIMESTEP
130
ITEM: NUMBER OF ATOMS
57
ITEM: BOX BOUNDS pp pp pp
0.0000000000000000e+00 3.2808000000000000e+01
0.0000000000000000e+00 1.7780000000000001e+01
0.0000000000000000e+00 2.4729999999999999e+00
ITEM: ATOMS id type x y z 
13 1 6.99794 0.850151 2.46424 
29 1 7.34839 1.43508 1.22774 
37 1 7.99766 2.73084 1.22775 
57 2 1.78644 1.34152 2.46423 
1 1 6.15181 17.3827 2.46424 
5 1 5.35383 17.3547 1.22774 
9 1 3.94666 17.3342 1.22774 
16 1 7.0384 16.1617 2.46424 
32 1 7.39044 15.5767 1.22774 
40 1 8.02434 14.2734 1.22775 
45 1 3.24059 17.3696 2.46424 
49 1 1.79571 17.6925 2.46423 
53 1 1.08317 17.3519 1.22773 
4 1 10.9657 8.49612 2.46425 
8 1 11.7683 8.49766 1.22775 
12 1 13.1666 8.50505 1.22775 
18 1 10.1049 7.25868 2.46425 
21 1 8.28489 3.38387 2.46425 
26 1 8.84036 4.71365 2.46425 
34 1 9.75763 6.67161 1.22775 
42 1 9.12221 5.36863 1.22775 
48 1 13.9043 8.50734 2.46425 
52 1 15.3297 8.50871 2.46425 
56 1 16.0569 8.5086 1.22775 
19 1 10.1066 9.73535 2.46425 
24 1 8.30246 13.6167 2.46425 
27 1 8.84694 12.2824 2.46425 
35 1 9.76019 10.3227 1.22775 
43 1 9.12632 11.6264 1.22775 
3 1 22.5773 8.51036 2.46425 
7 1 21.7748 8.51008 1.22775 
11 1 20.3765 8.5085 1.22775 
20 1 23.4381 7.27254 2.46425 
36 1 23.7856 6.6857 1.22775 
44 1 24.4208 5.38275 1.22775 
47 1 19.6388 8.50803 2.46425 
51 1 18.2134 8.50788 2.46425 
55 1 17.4862 8.50808 1.22775 
17 1 23.4385 9.74778 2.46425 
33 1 23.7862 10.3345 1.22775 
41 1 24.4216 11.6374 1.22775 
15 1 26.5237 0.85442 2.46425 
23 1 25.2497 3.39449 2.46425 
28 1 24.7011 4.72703 2.46425 
31 1 26.1722 1.43925 1.22775 
39 1 25.5315 2.73923 1.22775 
2 1 27.3906 17.4015 2.46424 
6 1 28.1935 17.4024 1.22774 
10 1 29.5899 17.3698 1.22774 
14 1 26.5304 16.1628 2.46425 
22 1 25.2529 13.6247 2.46425 
25 1 24.7024 12.2929 2.46425 
30 1 26.1798 15.578 1.22775 
38 1 25.5364 14.2792 1.22775 
46 1 30.3327 17.3368 2.46424 
50 1 31.7474 17.2666 2.46424 
54 1 32.4898 17.2546 1.22773 
ITEM: TIMESTEP
132
ITEM: NUMBER OF ATOMS
57
ITEM: BOX BOUNDS pp pp pp
0.0000000000000000e+00 3.2808000000000000e+01
0.0000000000000000e+00 1.7780000000000001e+01
0.0000000000000000e+00 2.4729999999999999e+00
ITEM: ATOMS id type x y z 
13 1 6.99746 0.850099 2.46424 
29 1 7.34759 1.4351 1.22774 
37 1 7.9967 2.73055 1.22775 
57 2 1.78655 1.34491 2.46423 
1 1 6.15201 17.3822 2.46424 
5 1 5.35338 17.3543 1.22774 
9 1 3.94635 17.3356 1.22774 
16 1 7.0386 16.1612 2.46424 
32 1 7.3905 15.5763 1.22774 
40 1 8.02441 14.2733 1.22775 
45 1 3.24063 17.3715 2.46424 
49 1 1.79609 17.6958 2.46423 
53 1 1.08344 17.3533 1.22773 
4 1 10.9659 8.49569 2.46425 
8 1 11.7685 8.49731 1.22775 
12 1 13.1666 8.50487 1.22775 
18 1 10.1051 7.25832 2.46425 
21 1 8.28425 3.38378 2.46425 
26 1 8.84046 4.71361 2.46425 
34 1 9.75807 6.67151 1.22775 
42 1 9.12236 5.36816 1.22775 
48 1 13.9041 8.50726 2.46425 
52 1 15.3295 8.50873 2.46425 
56 1 16.0566 8.50864 1.22775 
19 1 10.1068 9.73494 2.46425 
24 1 8.30269 13.6164 2.46425 
27 1 8.8474 12.2819 2.46425 
35 1 9.7606 10.3221 1.22775 
43 1 9.12669 11.6262 1.22775 
3 1 22.5774 8.51045 2.46425 
7 1 21.7746 8.51014 1.22775 
11 1 20.3767 8.50854 1.22775 
20 1 23.4379 7.27262 2.46425 
36 1 23.7852 6.68592 1.22775 
44 1 24.4205 5.38258 1.22775 
47 1 19.6388 8.50805 2.46425 
51 1 18.2134 8.50789 2.46425 
55 1 17.4862 8.5081 1.22775 
17 1 23.4383 9.74783 2.46425 
33 1 23.7858 10.3344 1.22775 
41 1 24.4214 11.6377 1.22775 