LAMMPS (3 Mar 2020)
Reading data file ...
  orthogonal box = (0 0 0) to (32.808 17.78 2.473)
  4 by 2 by 1 MPI processor grid
  reading atoms ...
  57 atoms
  read_data CPU = 0.0284539 secs
WARNING: Using 'neigh_modify every 1 delay 0 check yes' setting during minimization (../min.cpp:190)
WARNING: Total cutoff < 2*bond cutoff. May need to use an increased neighbor list skin. (../pair_reaxc.cpp:413)
Neighbor list info ...
  update every 1 steps, delay 0 steps, check yes
  max neighbors/atom: 2000, page size: 100000
  master list distance cutoff = 9.5
  ghost atom cutoff = 9.5
  binsize = 4.75, bins = 7 4 1
  2 neighbor lists, perpetual/occasional/extra = 2 0 0
  (1) pair reax/c, perpetual
      attributes: half, newton off, ghost
      pair build: half/bin/newtoff/ghost
      stencil: half/ghost/bin/3d/newtoff
      bin: standard
  (2) fix qeq/reax, perpetual, copy from (1)
      attributes: half, newton off, ghost
      pair build: copy
      stencil: none
      bin: none
Setting up cg style minimization ...
  Unit style    : real
  Current step  : 0
Per MPI rank memory allocation (min/avg/max) = 20.57 | 20.88 | 21.31 Mbytes
Step Temp E_pair E_mol TotEng Press 
       0            0   -11132.232            0   -11132.232    58190.558 
     102            0   -11206.766            0   -11206.766    5583.0388 
Loop time of 13.3426 on 8 procs for 102 steps with 57 atoms

98.8% CPU use with 8 MPI tasks x no OpenMP threads

Minimization stats:
  Stopping criterion = energy tolerance
  Energy initial, next-to-last, final = 
        -11132.2316334     -11206.7657434     -11206.7657434
  Force two-norm initial, final = 582.725 42.466
  Force max component initial, final = 435.634 22.0842
  Final line search alpha, max atom move = 0.00177904 0.0392886
  Iterations, force evaluations = 102 623

MPI task timing breakdown:
Section |  min time  |  avg time  |  max time  |%varavg| %total
---------------------------------------------------------------
Pair    | 9.9837     | 10.442     | 10.955     |   8.0 | 78.26
Neigh   | 0          | 0          | 0          |   0.0 |  0.00
Comm    | 0.051436   | 0.56219    | 1.0184     |  34.4 |  4.21
Output  | 0.0011549  | 0.001645   | 0.0023877  |   0.9 |  0.01
Modify  | 2.3119     | 2.3121     | 2.3125     |   0.0 | 17.33
Other   |            | 0.02464    |            |       |  0.18

Nlocal:    7.125 ave 11 max 3 min
Histogram: 1 1 2 0 0 0 0 2 0 2
Nghost:    716.375 ave 739 max 694 min
Histogram: 1 2 0 1 0 0 1 1 0 2
Neighs:    1113.12 ave 1716 max 472 min
Histogram: 1 1 2 0 0 0 0 2 0 2

Total # of neighbors = 8905
Ave neighs/atom = 156.228
Neighbor list builds = 0
Dangerous builds = 0
WARNING: Using 'neigh_modify every 1 delay 0 check yes' setting during minimization (../min.cpp:190)
WARNING: Total cutoff < 2*bond cutoff. May need to use an increased neighbor list skin. (../pair_reaxc.cpp:413)
Setting up cg style minimization ...
  Unit style    : real
  Current step  : 102
Per MPI rank memory allocation (min/avg/max) = 20.57 | 20.88 | 21.31 Mbytes
Step Temp E_pair E_mol TotEng Press 
     102            0   -11206.766            0   -11206.766    5583.0388 
     132            0    -11207.77            0    -11207.77    2050.4854 
Loop time of 4.05211 on 8 procs for 30 steps with 57 atoms

98.9% CPU use with 8 MPI tasks x no OpenMP threads

Minimization stats:
  Stopping criterion = energy tolerance
  Energy initial, next-to-last, final = 
        -11206.7657434     -11207.7700662     -11207.7701151
  Force two-norm initial, final = 42.466 49.67
  Force max component initial, final = 22.0842 29.6683
  Final line search alpha, max atom move = 0.000455672 0.013519
  Iterations, force evaluations = 30 189

MPI task timing breakdown:
Section |  min time  |  avg time  |  max time  |%varavg| %total
---------------------------------------------------------------
Pair    | 3.0656     | 3.1905     | 3.3432     |   4.3 | 78.74
Neigh   | 0          | 0          | 0          |   0.0 |  0.00
Comm    | 0.014196   | 0.16609    | 0.29041    |  18.6 |  4.10
Output  | 0.00028681 | 0.00042733 | 0.00063843 |   0.0 |  0.01
Modify  | 0.6875     | 0.68759    | 0.6877     |   0.0 | 16.97
Other   |            | 0.007474   |            |       |  0.18

Nlocal:    7.125 ave 11 max 3 min
Histogram: 1 1 2 0 0 0 0 2 0 2
Nghost:    716.375 ave 739 max 694 min
Histogram: 1 2 0 1 0 0 1 1 0 2
Neighs:    1111.62 ave 1720 max 472 min
Histogram: 1 1 2 0 0 0 0 2 0 2

Total # of neighbors = 8893
Ave neighs/atom = 156.018
Neighbor list builds = 0
Dangerous builds = 0
WARNING: Using 'neigh_modify every 1 delay 0 check yes' setting during minimization (../min.cpp:190)
WARNING: Total cutoff < 2*bond cutoff. May need to use an increased neighbor list skin. (../pair_reaxc.cpp:413)
Setting up cg style minimization ...
  Unit style    : real
  Current step  : 132
WARNING: Energy due to 3 extra global DOFs will be included in minimizer energies
Per MPI rank memory allocation (min/avg/max) = 20.57 | 20.88 | 21.31 Mbytes
Step Temp E_pair E_mol TotEng Press Volume 
     132            0    -11207.77            0    -11207.77    2050.4854    1442.5658 
     191            0   -11207.961            0   -11207.961   -497.59131    1442.5519 
Loop time of 2.28498 on 8 procs for 59 steps with 57 atoms

98.8% CPU use with 8 MPI tasks x no OpenMP threads

Minimization stats:
  Stopping criterion = energy tolerance
  Energy initial, next-to-last, final = 
        -11207.7701151      -11207.961215     -11207.9613121
  Force two-norm initial, final = 99.4672 25.2325
  Force max component initial, final = 70.2461 17.6767
  Final line search alpha, max atom move = 1.29262e-05 0.000228493
  Iterations, force evaluations = 59 110

MPI task timing breakdown:
Section |  min time  |  avg time  |  max time  |%varavg| %total
---------------------------------------------------------------
Pair    | 1.7767     | 1.864      | 1.9508     |   3.4 | 81.58
Neigh   | 0          | 0          | 0          |   0.0 |  0.00
Comm    | 0.0079136  | 0.094244   | 0.18138    |  14.9 |  4.12
Output  | 0.00063419 | 0.00090876 | 0.0013219  |   0.0 |  0.04
Modify  | 0.31466    | 0.31477    | 0.31526    |   0.0 | 13.78
Other   |            | 0.01104    |            |       |  0.48

Nlocal:    7.125 ave 11 max 3 min
Histogram: 1 1 2 0 0 0 0 2 0 2
Nghost:    716.375 ave 739 max 694 min
Histogram: 1 2 0 1 0 0 1 1 0 2
Neighs:    1110.12 ave 1718 max 470 min
Histogram: 1 1 2 0 0 0 0 2 0 2

Total # of neighbors = 8881
Ave neighs/atom = 155.807
Neighbor list builds = 0
Dangerous builds = 0
WARNING: Using 'neigh_modify every 1 delay 0 check yes' setting during minimization (../min.cpp:190)
WARNING: Total cutoff < 2*bond cutoff. May need to use an increased neighbor list skin. (../pair_reaxc.cpp:413)
Setting up cg style minimization ...
  Unit style    : real
  Current step  : 191
Per MPI rank memory allocation (min/avg/max) = 20.57 | 20.88 | 21.31 Mbytes
Step Temp E_pair E_mol TotEng Press 
     191            0   -11207.961            0   -11207.961   -497.59131 
     234            0   -11208.391            0   -11208.391    2023.5914 
Loop time of 5.71919 on 8 procs for 43 steps with 57 atoms

98.9% CPU use with 8 MPI tasks x no OpenMP threads

Minimization stats:
  Stopping criterion = energy tolerance
  Energy initial, next-to-last, final = 
        -11207.9613121     -11208.3914465     -11208.3914472
  Force two-norm initial, final = 9.98424 30.239
  Force max component initial, final = 2.6073 12.3287
  Final line search alpha, max atom move = 0.00294411 0.036297
  Iterations, force evaluations = 43 266

MPI task timing breakdown:
Section |  min time  |  avg time  |  max time  |%varavg| %total
---------------------------------------------------------------
Pair    | 4.272      | 4.4664     | 4.6865     |   5.2 | 78.09
Neigh   | 0          | 0          | 0          |   0.0 |  0.00
Comm    | 0.019357   | 0.23845    | 0.43196    |  22.4 |  4.17
Output  | 0.00038515 | 0.00052044 | 0.0007846  |   0.0 |  0.01
Modify  | 1.0038     | 1.0039     | 1.004      |   0.0 | 17.55
Other   |            | 0.01       |            |       |  0.17

Nlocal:    7.125 ave 11 max 3 min
Histogram: 1 1 2 0 0 0 0 2 0 2
Nghost:    716.375 ave 739 max 694 min
Histogram: 1 2 0 1 0 0 1 1 0 2
Neighs:    1111.12 ave 1718 max 472 min
Histogram: 1 1 2 0 0 0 0 2 0 2

Total # of neighbors = 8889
Ave neighs/atom = 155.947
Neighbor list builds = 0
Dangerous builds = 0
WARNING: Using 'neigh_modify every 1 delay 0 check yes' setting during minimization (../min.cpp:190)
WARNING: Total cutoff < 2*bond cutoff. May need to use an increased neighbor list skin. (../pair_reaxc.cpp:413)
Setting up cg style minimization ...
  Unit style    : real
  Current step  : 234
WARNING: Energy due to 3 extra global DOFs will be included in minimizer energies
Per MPI rank memory allocation (min/avg/max) = 20.57 | 20.88 | 21.31 Mbytes
Step Temp E_pair E_mol TotEng Press Volume 
     234            0   -11208.391            0   -11208.391    2023.5914    1442.5519 
     416            0   -11208.981            0   -11208.981    224.50353    1442.5217 
Loop time of 7.01149 on 8 procs for 182 steps with 57 atoms

98.8% CPU use with 8 MPI tasks x no OpenMP threads

Minimization stats:
  Stopping criterion = energy tolerance
  Energy initial, next-to-last, final = 
        -11208.3914472     -11208.9808681      -11208.980978
  Force two-norm initial, final = 88.138 18.5711
  Force max component initial, final = 59.1443 10.8277
  Final line search alpha, max atom move = 5.9355e-06 6.4268e-05
  Iterations, force evaluations = 182 340

MPI task timing breakdown:
Section |  min time  |  avg time  |  max time  |%varavg| %total
---------------------------------------------------------------
Pair    | 5.4798     | 5.714      | 5.9878     |   5.7 | 81.49
Neigh   | 0          | 0          | 0          |   0.0 |  0.00
Comm    | 0.022      | 0.29446    | 0.52755    |  24.9 |  4.20
Output  | 0.0017991  | 0.0025473  | 0.0036803  |   1.1 |  0.04
Modify  | 0.96771    | 0.96778    | 0.96791    |   0.0 | 13.80
Other   |            | 0.03273    |            |       |  0.47

Nlocal:    7.125 ave 11 max 3 min
Histogram: 1 1 2 0 0 0 0 2 0 2
Nghost:    716.375 ave 739 max 694 min
Histogram: 1 2 0 1 0 0 1 1 0 2
Neighs:    1111.12 ave 1716 max 472 min
Histogram: 1 1 2 0 0 0 0 2 0 2

Total # of neighbors = 8889
Ave neighs/atom = 155.947
Neighbor list builds = 0
Dangerous builds = 0
WARNING: Using 'neigh_modify every 1 delay 0 check yes' setting during minimization (../min.cpp:190)
WARNING: Total cutoff < 2*bond cutoff. May need to use an increased neighbor list skin. (../pair_reaxc.cpp:413)
Setting up cg style minimization ...
  Unit style    : real
  Current step  : 416
Per MPI rank memory allocation (min/avg/max) = 20.57 | 20.88 | 21.31 Mbytes
Step Temp E_pair E_mol TotEng Press 
     416            0   -11208.981            0   -11208.981    224.50353 
     484            0   -11210.072            0   -11210.072     -832.028 
Loop time of 9.11436 on 8 procs for 68 steps with 57 atoms

98.9% CPU use with 8 MPI tasks x no OpenMP threads

Minimization stats:
  Stopping criterion = energy tolerance
  Energy initial, next-to-last, final = 
         -11208.980978     -11210.0716081     -11210.0716425
  Force two-norm initial, final = 13.241 13.0234
  Force max component initial, final = 6.55691 4.82104
  Final line search alpha, max atom move = 0.00341643 0.0164707
  Iterations, force evaluations = 68 428

MPI task timing breakdown:
Section |  min time  |  avg time  |  max time  |%varavg| %total
---------------------------------------------------------------
Pair    | 6.869      | 7.1766     | 7.5013     |   6.3 | 78.74
Neigh   | 0          | 0          | 0          |   0.0 |  0.00
Comm    | 0.032619   | 0.35567    | 0.66188    |  28.3 |  3.90
Output  | 0.0007587  | 0.0010919  | 0.0015906  |   0.8 |  0.01
Modify  | 1.5646     | 1.5647     | 1.5649     |   0.0 | 17.17
Other   |            | 0.01628    |            |       |  0.18

Nlocal:    7.125 ave 11 max 3 min
Histogram: 1 1 2 0 0 0 0 2 0 2
Nghost:    716.375 ave 739 max 694 min
Histogram: 1 2 0 1 0 0 1 1 0 2
Neighs:    1112.12 ave 1714 max 472 min
Histogram: 1 1 2 0 0 0 0 2 0 2

Total # of neighbors = 8897
Ave neighs/atom = 156.088
Neighbor list builds = 0
Dangerous builds = 0
WARNING: Total cutoff < 2*bond cutoff. May need to use an increased neighbor list skin. (../pair_reaxc.cpp:413)
Setting up Verlet run ...
  Unit style    : real
  Current step  : 0
  Time step     : 0.25
Per MPI rank memory allocation (min/avg/max) = 19.44 | 19.76 | 20.18 Mbytes
Step Temp TotEng KinEng PotEng Press 
       0          300   -11159.994    50.077609   -11210.072    754.88852 
     200    242.17204     -11140.6    40.424656   -11181.025   -22243.894 
     400    302.58713   -11110.999    50.509466   -11161.508   -47461.662 
     600    348.25708   -11100.681    58.132939   -11158.814   -18791.272 
     800     247.9134   -11117.363    41.383034   -11158.746    74837.821 
    1000    295.53488   -11104.976    49.332267   -11154.308   -17280.327 
    1200     331.1679   -11092.011    55.280321   -11147.292    27802.115 
    1400    275.46837   -11115.589    45.982657   -11161.572    48698.242 
    1600    323.46655   -11111.969    53.994772   -11165.964    63613.434 
    1800    336.35643    -11095.75     56.14642   -11151.897    6553.3644 
    2000     288.5478   -11113.126    48.165947   -11161.292    11239.902 
    2200    266.27934   -11113.065    44.448776   -11157.514    47474.052 
    2400    397.95829   -11094.594    66.429332   -11161.024    17537.307 
    2600    373.96865   -11107.885    62.424853    -11170.31   -4378.4643 
    2800    285.93791   -11121.927     47.73029   -11169.657    39425.814 
    3000    316.86729   -11107.536    52.893188   -11160.429    4596.1689 
    3200    272.36578    -11114.64    45.464757   -11160.105   -11672.473 
    3400    265.98161   -11108.276    44.399076   -11152.675   -716.01003 
    3600    348.06558   -11095.668    58.100973   -11153.769   -15370.687 
    3800    263.22518    -11109.75    43.938959   -11153.689    16530.447 
    4000    328.72678    -11110.68    54.872837   -11165.553    -32397.53 
    4200    259.89528   -11123.001    43.383114   -11166.385   -14206.892 
    4400    332.62493   -11101.193    55.523537   -11156.717   -23272.542 
    4600     312.2062   -11114.122    52.115133   -11166.237   -22444.949 
    4800    304.00169   -11115.063    50.745592   -11165.809    9890.4842 
    5000    309.12584   -11105.258    51.600943   -11156.859    10476.599 
    5200    402.00955   -11088.873     67.10559   -11155.978    47247.767 
    5400    291.65095   -11108.277     48.68394   -11156.961   -12212.991 
    5600    249.88588   -11120.523    41.712292   -11162.235   -21430.784 
    5800    298.18103   -11120.208    49.773977   -11169.982   -32948.238 
    6000    324.46369   -11103.987    54.161219   -11158.148   -19771.386 
    6200     257.2118   -11121.249    42.935174   -11164.185   -11870.144 
    6400    317.83424   -11113.434    53.054595   -11166.489    52697.954 
    6600    320.35651   -11101.386    53.475627   -11154.862   -27245.336 
    6800    296.10777   -11111.692    49.427897    -11161.12    6764.8368 
    7000    335.45784   -11116.132    55.996421   -11172.128   -23620.915 
    7200    327.49585   -11112.492    54.667363   -11167.159   -7932.1966 
    7400    315.68627   -11111.646    52.696045   -11164.342   -34198.474 
    7600    298.41792   -11113.475     49.81352   -11163.288   -33283.567 
    7800     317.9282   -11102.159     53.07028    -11155.23    5236.7134 
    8000    298.98573     -11103.3    49.908301   -11153.209   -32083.862 
    8200    315.79944   -11108.696    52.714936   -11161.411   -2323.7329 
    8400    284.90211   -11122.049    47.557387   -11169.606    21790.295 
    8600    358.89477   -11112.192     59.90864     -11172.1   -57630.211 
    8800    317.47786   -11109.324    52.995107   -11162.319    40807.783 
    9000    273.98442   -11113.012    45.734949   -11158.747   -25837.066 
    9200    276.15098    -11117.49    46.096603   -11163.587    16493.203 
    9400    340.16734   -11098.468    56.782557   -11155.251    7871.0264 
    9600    315.66086   -11115.448    52.691804    -11168.14   -23550.639 
    9800    316.00412   -11114.032    52.749102   -11166.781    2826.2559 
   10000    316.22578   -11111.169    52.786103   -11163.955    24656.339 
   10200    248.66586   -11114.058    41.508638   -11155.567   -59307.481 
   10400    361.51565   -11100.541    60.346131   -11160.887   -20776.674 
   10600    400.84944   -11093.793    66.911937   -11160.705   -27969.922 
   10800    245.39152   -11113.006    40.962069   -11153.968    11418.554 
   11000    321.43866   -11109.559    53.656266   -11163.215   -41315.893 
   11200    325.18539   -11116.838    54.281689    -11171.12   -71156.971 
   11400     251.6894   -11124.794    42.013344   -11166.807   -17474.611 
   11600     340.1769   -11109.513    56.784152   -11166.298    55974.852 
   11800    310.46064   -11111.559    51.823755   -11163.383    78148.965 
   12000    340.58304   -11102.653    56.851948   -11159.505    42046.313 
   12200    309.16106   -11104.339    51.606822   -11155.945    7064.4619 
   12400    313.29842   -11111.828    52.297453   -11164.125    7471.7922 
   12600    350.78382   -11092.249    58.554717   -11150.804    28139.073 
   12800    309.22526   -11112.839    51.617539   -11164.457    14825.929 
   13000    340.72783   -11114.213    56.876116   -11171.089    3588.8651 
   13200    384.51295    -11102.44    64.184964   -11166.625   -77021.432 
   13400    323.56964   -11099.267    54.011979   -11153.279   -17853.378 
   13600    277.96901   -11116.863    46.400079   -11163.263   -18473.703 
   13800     351.6393   -11104.073    58.697517    -11162.77    11128.049 
   14000    288.22411   -11107.909    48.111915    -11156.02    27195.498 
   14200    257.60791   -11122.618    43.001294   -11165.619     14187.55 
   14400    349.67921   -11104.756     58.37033   -11163.126    10038.172 
   14600    309.61343   -11111.622    51.682335   -11163.304    40992.135 
   14800    266.76559   -11120.449    44.529943   -11164.979     -35397.9 
   15000    310.39509   -11109.745    51.812812   -11161.558   -32845.277 
   15200     343.3852   -11107.043    57.319699   -11164.363   -66437.511 
   15400    267.19366   -11122.153    44.601398   -11166.754     30981.96 
   15600    303.84032   -11112.686    50.718655   -11163.405   -11323.257 
   15800    425.65787   -11089.238    71.053095   -11160.291    22103.129 
   16000    311.15035   -11107.657    51.938885   -11159.596    16465.088 
   16200    282.51764   -11114.998    47.159359   -11162.157   -64931.865 
   16400    360.23509   -11096.352    60.132374   -11156.484   -1463.5853 
   16600    289.34538   -11107.999    48.299082   -11156.298   -78925.042 
   16800    244.17753   -11123.334    40.759422   -11164.093   -69289.555 
   17000     279.9145   -11120.807    46.724829   -11167.531    69356.371 
   17200    345.65111   -11109.246    57.697937   -11166.944   -27328.472 
   17400    257.10949   -11115.551    42.918095   -11158.469    58763.771 
   17600    257.67964   -11119.359    43.013267   -11162.372    47637.593 
   17800    276.37425    -11099.54    46.133872   -11145.673   -30589.911 
   18000     271.3748    -11113.29    45.299338    -11158.59     58536.05 
   18200    269.77708   -11114.521    45.032636   -11159.554   -37704.176 
   18400    329.62091   -11112.292    55.022089   -11167.314    65662.459 
   18600    328.61964   -11113.307    54.854953   -11168.162    34992.054 
   18800    278.70646   -11112.507    46.523176    -11159.03    115662.17 
   19000    267.55595   -11103.741    44.661875   -11148.403   -24075.171 
   19200    337.24354   -11092.589    56.294501   -11148.883   -36463.322 
   19400    281.82424   -11109.159    47.043613   -11156.203    25468.061 
   19600    295.10602    -11118.84    49.260679   -11168.101    50678.053 
   19800    255.79456   -11128.542    42.698599   -11171.241    18710.276 
   20000    272.57794    -11109.28    45.500171    -11154.78   -29911.551 
   20200    292.19991   -11119.784    48.775576   -11168.559   -44427.068 
   20400    363.94098   -11103.811    60.750981   -11164.562   -30354.318 
   20600    288.04649    -11102.28    48.082264   -11150.362    60991.368 
   20800    246.47506   -11118.103    41.142939   -11159.246   -21636.674 
   21000      289.475   -11106.778    48.320719   -11155.099    -44815.04 
   21200    319.61092    -11103.59    53.351169   -11156.941    25801.445 
   21400    273.27904   -11111.964    45.617202   -11157.581    28832.046 
   21600    301.84568   -11115.751      50.3857   -11166.136   -68802.714 
   21800    321.48472   -11095.771    53.663953   -11149.435    76757.596 
   22000    312.40423   -11111.163    52.148189   -11163.311   -6457.3632 
   22200    272.34045   -11110.256    45.460528   -11155.717   -38404.826 
   22400    396.54532   -11087.842    66.193472   -11154.036    71421.758 
   22600    327.73126   -11110.692    54.706659   -11165.399   -32159.815 
   22800    289.10953   -11120.033    48.259714   -11168.293   -25902.639 
   23000    292.57605   -11104.666    48.838363   -11153.505    7311.8243 
   23200    301.43505   -11103.981    50.317156   -11154.299    22315.048 
   23400    234.28172   -11125.109    39.107561   -11164.216    16580.899 
   23600    307.28148   -11106.733    51.293072   -11158.026    69764.135 
   23800    286.50545   -11109.708    47.825026   -11157.533   -38276.481 
   24000    263.56807   -11123.422    43.996195   -11167.418   -22663.795 
   24200    310.10656   -11112.489     51.76465   -11164.253    30494.094 
   24400    284.36006   -11110.193    47.466907    -11157.66   -79242.501 
   24600    282.78537    -11115.71     47.20405   -11162.914   -16641.834 
   24800    307.39546   -11108.042    51.312099   -11159.354   -1016.3712 
   25000     300.9101   -11102.871    50.229527     -11153.1   -14630.134 
   25200    307.48157   -11120.254    51.326472   -11171.581   -16601.081 
   25400    292.89597   -11101.973    48.891766   -11150.865   -19261.332 
   25600     314.3322   -11111.105    52.470017   -11163.575    49931.923 
   25800    277.32328   -11114.791    46.292289   -11161.083    17444.619 
   26000    344.20473   -11094.086    57.456499   -11151.542   -57601.936 
   26200    331.08927   -11107.924    55.267197   -11163.191   -28404.907 
   26400    269.17258   -11108.812    44.931731   -11153.743    2292.3486 
   26600    328.51816   -11097.377    54.838013   -11152.215    74695.955 
   26800    310.96289   -11117.947    51.907593   -11169.855    10541.605 
   27000    330.81503   -11113.863    55.221419   -11169.085    25669.204 
   27200    324.28558   -11103.574    54.131488   -11157.705     18905.89 
   27400     272.8621   -11124.631    45.547605   -11170.178    26331.811 
   27600    322.39104    -11109.67    53.815241   -11163.486   -17569.184 
   27800    344.22611    -11104.16    57.460068    -11161.62   -24085.775 
   28000    239.17056    -11123.99    39.923632   -11163.914    76607.301 
   28200    284.63048   -11116.089    47.512046   -11163.601   -37172.927 
   28400    345.31392   -11110.515    57.641651   -11168.156   -1299.5269 
   28600    320.84319   -11111.311    53.556865   -11164.868   -18201.655 
   28800     306.3442   -11100.694    51.136616   -11151.831    -6902.839 
   29000    349.10248   -11101.729    58.274058   -11160.003   -31163.018 
   29200    324.11047   -11111.121    54.102257   -11165.224    4810.8963 
   29400    323.17944   -11112.919    53.946846   -11166.866   -9170.0229 
   29600    332.28868   -11106.437    55.467409   -11161.904   -19304.446 
   29800    259.09972    -11119.51    43.250315    -11162.76   -20269.594 
   30000    224.18727   -11116.196    37.422542   -11153.618    -56144.28 
   30200    321.17618   -11103.326     53.61245   -11156.938    -59015.57 
   30400    271.11262   -11113.638    45.255573   -11158.894   -33355.664 
   30600    333.90817   -11091.896    55.737743   -11147.634   -86966.212 
   30800    281.00672   -11107.278    46.907149   -11154.185   -3923.9881 
   31000    310.94547   -11113.033    51.904685   -11164.938   -62871.852 
   31200    311.51214       -11116    51.999277   -11167.999    9011.8344 
   31400    264.02989   -11122.912    44.073285   -11166.985    7505.8679 
   31600    314.49809   -11104.083    52.497707   -11156.581   -44689.218 
   31800    304.85338   -11107.609    50.887761   -11158.497   -72977.174 
   32000    225.03248   -11124.293    37.563629   -11161.856    19902.029 
   32200    342.41861    -11105.91    57.158351   -11163.068    7804.2196 
   32400    272.86948   -11115.843    45.548837   -11161.392    -36679.39 
   32600    255.81971   -11119.188    42.702798    -11161.89   -5020.3205 
   32800    363.42641   -11099.362    60.665085   -11160.027    31709.146 
   33000     276.3561    -11112.57    46.130843     -11158.7   -18647.354 
   33200    305.68046    -11110.41    51.025821   -11161.436   -42724.272 
   33400    311.04992    -11105.49    51.922122   -11157.412   -18749.525 
   33600    334.08718     -11088.6    55.767624   -11144.368   -13584.516 
   33800     289.4125   -11110.951    48.310287   -11159.262    52482.525 
   34000    336.43247   -11113.391    56.159113    -11169.55   -31707.664 
   34200    346.71158   -11097.319    57.874956   -11155.194   -73633.262 
   34400    261.38586   -11107.095    43.631929   -11150.727    33403.555 
   34600    270.32728   -11108.965    45.124479    -11154.09   -96867.934 
   34800    347.45823   -11103.474    57.999591   -11161.474   -70653.388 
   35000    303.82964   -11115.798    50.716873   -11166.515   -31362.248 
   35200    242.75722   -11119.869    40.522337   -11160.392    82017.649 
   35400    278.73511   -11105.964    46.527959   -11152.492   -3933.5234 
   35600    295.08567   -11114.071    49.257283   -11163.329    48507.287 
   35800    313.13832   -11107.211    52.270727   -11159.482   -62671.745 
   36000    272.58745   -11096.735    45.501758   -11142.236    38543.357 
   36200    271.21341   -11107.584    45.272396   -11152.857    11768.294 
   36400    349.30796   -11099.601    58.308359   -11157.909     67534.52 
   36600    304.71805   -11104.494    50.865172    -11155.36    -33653.06 
   36800    307.05086   -11119.615    51.254576   -11170.869    2977.9978 
   37000    306.58847   -11120.467    51.177392   -11171.645   -23839.943 
   37200    344.09043   -11103.445     57.43742   -11160.882    42946.467 
   37400    273.95529   -11113.915    45.730086   -11159.645    1466.0935 
   37600    290.41152   -11123.222    48.477048   -11171.699    33603.647 
   37800    313.63514   -11105.472    52.353659   -11157.826    9335.7186 
   38000    297.99092   -11111.282    49.742243   -11161.024     24905.65 
   38200    234.70221   -11118.407    39.177751   -11157.585    3953.3081 
   38400    323.83005    -11100.75    54.055448   -11154.805   -61072.719 
   38600    252.13251   -11113.245    42.087312   -11155.332    17734.345 
   38800    330.21677   -11094.506    55.121554   -11149.628    50269.174 
   39000    295.09362   -11106.172     49.25861   -11155.431    13729.566 
   39200    257.91167   -11113.165       43.052   -11156.217    23156.809 
   39400    328.95083   -11101.107    54.910236   -11156.017   -9460.2986 
   39600    264.65595   -11106.811     44.17779   -11150.988    74785.179 
   39800    233.65899   -11115.798    39.003612   -11154.801    43402.933 
   40000     320.7217   -11100.895    53.536586   -11154.431   -24203.101 
   40200    307.77625   -11108.511    51.375662   -11159.887   -111477.34 
   40400    264.97831   -11112.166      44.2316   -11156.397    40463.339 
   40600    336.12771   -11100.468     56.10824   -11156.576   -52987.896 
   40800    309.46154   -11121.144     51.65698   -11172.801   -6315.3031 
   41000    273.90418   -11116.212    45.721555   -11161.934     27142.03 
   41200    328.70788   -11102.917    54.869683   -11157.787    18736.125 
   41400    286.05011   -11121.273    47.749019   -11169.022   -13581.273 
   41600    314.95636   -11106.563    52.574205   -11159.137    15007.946 
   41800    294.23586   -11102.606    49.115428   -11151.722    24586.884 
   42000    373.29133   -11108.154     62.31179   -11170.465    65450.872 
   42200    235.91266   -11126.119    39.379807   -11165.499   -45500.229 
   42400    324.09167   -11113.393     54.09912   -11167.492   -29007.638 
   42600    284.61774   -11108.526    47.509919   -11156.036    10819.744 
   42800    349.42298   -11096.245    58.327557   -11154.572    30116.656 
   43000    265.37206   -11114.355    44.297327   -11158.652    53249.581 
   43200    308.84056   -11110.244    51.553323   -11161.797   -1213.0088 
   43400    315.65387   -11093.519    52.690637    -11146.21    47089.964 
   43600    288.23324   -11110.934    48.113438   -11159.048   -27870.331 
   43800    272.00056   -11119.582    45.403792   -11164.986    8963.9132 
   44000     350.4298     -11101.4    58.495621   -11159.896   -17105.092 
   44200    310.21007   -11116.352    51.781929   -11168.134   -14538.895 
   44400    272.12504   -11110.599    45.424571   -11156.024    16214.033 
   44600    294.05099   -11102.797    49.084569   -11151.882    -36306.66 
   44800    259.02519   -11109.165    43.237873   -11152.403    4255.3223 
   45000    225.89808   -11127.467    37.708119   -11165.176   -26446.863 
   45200    263.51939   -11118.387     43.98807   -11162.375    42012.971 
   45400      291.711   -11110.035    48.693965   -11158.729   -6056.5264 
   45600    289.98176   -11118.176    48.405311   -11166.581    34569.355 
   45800    270.65516   -11121.112     45.17921   -11166.291   -75682.971 
   46000    300.37903   -11103.567    50.140878   -11153.708   -71427.192 
   46200    279.14653   -11117.468    46.596636   -11164.065    29817.563 
   46400    307.58424   -11108.185    51.343611   -11159.529    20128.213 
   46600    331.37799   -11102.761    55.315391   -11158.076    61294.415 
   46800    265.73089   -11115.795    44.357225   -11160.153   -22894.495 
   47000    356.21418    -11104.65    59.461181   -11164.111    4569.0288 
   47200    320.94588   -11098.923    53.574008   -11152.497   -27638.871 
   47400    238.01552   -11121.379    39.730827    -11161.11   -14505.856 
   47600    306.30322   -11109.355    51.129776   -11160.485     26771.33 
   47800    289.75284   -11111.111    48.367098   -11159.478       -19094 
   48000    226.12403    -11125.95    37.745835   -11163.696    1160.2067 
   48200    273.45453    -11114.09    45.646497   -11159.736     39577.22 
   48400    324.48676   -11110.377     54.16507   -11164.542   -2097.7134 
   48600    292.03276   -11117.637    48.747674   -11166.385    29307.993 
   48800    295.32218   -11114.091    49.296761   -11163.387   -57507.253 
   49000     271.5782   -11103.415     45.33329   -11148.748   -33569.863 
   49200    265.67159   -11114.451    44.347326   -11158.798    31738.679 
   49400    319.49759   -11116.809    53.332251   -11170.141    50171.318 
   49600    286.48814   -11110.213    47.822136   -11158.035    5831.0241 
   49800    256.28035   -11128.426    42.779691   -11171.206   -24339.172 
   50000    309.84508   -11112.935    51.721002   -11164.656   -59942.022 
   50200    281.48224   -11105.085    46.986525   -11152.071   -73363.347 
   50400    301.07388   -11099.422    50.256866   -11149.679    27703.508 
   50600    269.89562   -11114.261    45.052425   -11159.314    60788.852 
   50800    379.35348   -11099.485    63.323717   -11162.809    -11426.97 
   51000    302.24202   -11111.668     50.45186    -11162.12   -35498.058 
   51200    250.89421   -11108.763    41.880607   -11150.643    8939.4124 
   51400    297.05967   -11102.915    49.586794   -11152.502   -39654.827 
   51600    289.01637   -11122.962    48.244162   -11171.207    12713.778 
   51800    300.68296   -11109.135    50.191613   -11159.327   -8776.1266 
   52000    301.69575   -11114.581    50.360673   -11164.942    24662.228 
   52200    242.48041    -11127.43    40.476131   -11167.906   -30138.784 
   52400    260.15954   -11122.892    43.427225    -11166.32    12440.925 
   52600    276.88837   -11107.596    46.219692   -11153.816    28386.601 
   52800    345.80328   -11104.046    57.723338    -11161.77    2959.2345 
   53000    216.31114    -11120.69    36.107816   -11156.798    40370.774 
   53200    292.03366   -11105.926    48.747824   -11154.674     -21856.5 
   53400    296.04386   -11112.492    49.417229    -11161.91   -22630.711 
   53600    303.89948   -11113.895     50.72853   -11164.624   -17370.081 
   53800    308.93171    -11106.48    51.568537   -11158.049   -43906.466 
   54000     278.7642   -11113.693    46.532816   -11160.226   -16448.853 
   54200    272.76323   -11120.189      45.5311    -11165.72   -12324.703 
   54400     301.8725    -11106.52    50.390177    -11156.91   -6292.5387 
   54600    335.69716   -11108.067    56.036371   -11164.103   -28777.498 
   54800    252.87174   -11122.708    42.210707   -11164.919    13757.035 
   55000    303.47038   -11113.157    50.656903   -11163.814     23448.28 
   55200    332.87643   -11104.122    55.565518   -11159.687    10677.947 
   55400    286.71396   -11112.628    47.859832   -11160.487    45346.815 
   55600    346.06063     -11094.9    57.766295   -11152.667   -43818.411 
   55800    324.24533   -11101.319     54.12477   -11155.444   -26525.686 
   56000    337.66555   -11107.319    56.364945   -11163.684   -33532.258 
   56200    271.81488   -11121.135    45.372797   -11166.508   -22186.812 
   56400    265.80626   -11120.912    44.369807   -11165.282   -20977.728 
   56600    269.91819   -11109.764    45.056192    -11154.82   -39824.396 
   56800    319.18109   -11112.122     53.27942   -11165.401    -31108.42 
   57000    317.42094   -11105.848    52.985605   -11158.834   -41062.508 
   57200    253.67681   -11114.449    42.345094   -11156.795   -32519.982 
   57400    254.93443   -11125.045    42.555022     -11167.6    42021.907 
   57600    311.06298   -11104.433    51.924301   -11156.358   -32002.266 
   57800    265.36963   -11114.664    44.296922   -11158.961    4241.1075 
   58000    258.03932   -11107.328    43.073306   -11150.401    -13656.89 
   58200    343.21815   -11105.774    57.291814   -11163.066   -45765.043 
   58400    291.94617    -11119.77     48.73322   -11168.503   -24069.223 
   58600    354.67241   -11104.247     59.20382   -11163.451    17212.733 
   58800    309.44714   -11109.246    51.654575   -11160.901    10703.745 
   59000    275.19769   -11121.323    45.937474    -11167.26    67389.942 
   59200    260.45967   -11106.375    43.477324   -11149.853    -34557.28 
   59400    329.11535   -11107.099    54.937699   -11162.036    11133.119 
   59600    256.00803   -11119.332    42.734233   -11162.066   -18084.563 
   59800    297.93005   -11112.432    49.732082   -11162.164   -60332.616 
   60000    304.32881   -11103.678    50.800197   -11154.478   -19555.101 
   60200      333.484   -11103.996    55.666938   -11159.663   -13399.555 
   60400    275.20322   -11119.748    45.938397   -11165.686   -5444.3961 
   60600    293.11989   -11104.094    48.929143   -11153.024   -45921.607 
   60800    277.93243   -11122.477    46.393972   -11168.871   -16884.266 
   61000    271.12545   -11113.535    45.257715   -11158.793    51106.149 
   61200    327.87386   -11101.374    54.730463   -11156.105    10566.889 
   61400    298.79956   -11112.568    49.877226   -11162.445    30932.455 
   61600    268.07152   -11115.741    44.747936   -11160.489    5791.8519 
   61800    328.44392   -11103.477     54.82562   -11158.303    39998.763 
   62000    321.77372    -11114.74    53.712194   -11168.452   -287.82766 
   62200    266.95372    -11118.37    44.561347   -11162.932   -16070.956 
   62400    316.74777   -11102.384    52.873237   -11155.257   -8334.3661 
   62600     394.3426   -11091.301    65.825782   -11157.127    62206.093 
   62800    317.00137   -11116.771    52.915569   -11169.687   -19888.907 
   63000    298.33028   -11111.616     49.79889   -11161.415   -19821.523 
   63200    329.90313   -11096.741      55.0692   -11151.811    16902.499 
   63400    294.22022   -11109.276    49.112817   -11158.388   -806.48625 
   63600    305.25869   -11113.531    50.955418   -11164.486   -4729.7703 
   63800    374.42826   -11106.274    62.501574   -11168.775   -33880.109 
   64000    320.52069   -11106.976    53.503033   -11160.479   -33947.872 
   64200    269.61925   -11119.982    45.006291   -11164.988    28294.213 
   64400    362.65309   -11097.007    60.535999   -11157.543   -15786.375 
   64600    332.24903   -11107.399     55.46079   -11162.859   -7041.5326 
   64800    247.31123   -11117.067    41.282517   -11158.349    4549.4408 
   65000    357.28256   -11101.119    59.639522   -11160.759    17633.251 
   65200    286.44545   -11116.697    47.815011   -11164.512   -18590.047 
   65400     272.5402   -11110.282    45.493871   -11155.776   -1045.5133 
   65600    310.03066   -11101.244     51.75198   -11152.996    6488.6764 
   65800    247.58533    -11113.64    41.328271   -11154.968   -5355.8383 
   66000    321.89483   -11117.975    53.732411   -11171.707    -1786.436 
   66200    281.03792   -11116.097    46.912356    -11163.01    35117.642 
   66400    349.03521   -11100.125     58.26283   -11158.388   -48227.402 
   66600    323.27042    -11115.51    53.962033   -11169.472   -23127.201 
   66800    297.74272   -11113.084    49.700811   -11162.785   -72.123703 
   67000    316.57457   -11102.242    52.844325   -11155.087   -23568.856 
   67200    239.88411    -11125.07    40.042743   -11165.113   -5986.7309 
   67400    296.15769   -11109.627     49.43623   -11159.063   -34359.495 
   67600    251.17673   -11114.864    41.927766   -11156.792    48355.166 
   67800    232.78955   -11123.595     38.85848   -11162.453    59991.946 
   68000    349.55757   -11106.718    58.350024   -11165.068   -46530.392 
   68200    279.57873   -11118.031     46.66878     -11164.7    22566.893 
   68400    279.17184   -11110.707     46.60086   -11157.308    52710.062 
   68600    328.17945   -11103.245    54.781474   -11158.026   -23787.507 
   68800     272.0317   -11115.396    45.408989   -11160.805   -41398.118 
   69000    319.02962   -11095.131    53.254135   -11148.385    76096.471 
   69200    306.01203   -11111.618     51.08117   -11162.699     52908.86 
   69400    283.32911   -11115.327    47.294814   -11162.622    18702.601 
   69600    367.08504   -11104.699    61.275803   -11165.975   -20495.735 
   69800    281.01372   -11106.123    46.908317   -11153.031   -34021.772 
   70000    281.97628   -11112.587    47.068993   -11159.656      29675.1 
   70200    254.37973   -11115.402    42.462429   -11157.865   -46259.328 
   70400    328.62057   -11108.921    54.855108   -11163.776   -4309.1371 
   70600    263.69273   -11121.543    44.017005    -11165.56    -12916.48 
   70800    346.27603     -11101.4    57.802252   -11159.203    5955.3405 
   71000    310.71758   -11111.315    51.866645   -11163.181    18350.109 
   71200    290.25071   -11109.608    48.450205   -11158.058   -4543.8143 
   71400    314.10806   -11102.258    52.432601   -11154.691   -55956.425 
   71600     282.4546   -11114.232    47.148836   -11161.381    29684.659 
   71800    329.47398   -11102.273    54.997563    -11157.27   -14867.136 
   72000    340.64225    -11102.18    56.861831   -11159.042    70531.644 
   72200    296.77537   -11111.948    49.539336   -11161.488    18725.716 
   72400    321.42833   -11098.545     53.65454     -11152.2    52499.315 
   72600     288.6341   -11120.516    48.180352   -11168.697    11354.746 
   72800    338.10603   -11109.289    56.438471   -11165.727    32969.467 
   73000    300.07176   -11106.038    50.089587   -11156.127   -33132.211 
   73200    324.48329   -11117.796    54.164491    -11171.96    2516.5396 
   73400    291.20795   -11119.571    48.609993   -11168.181    52644.108 
   73600    327.37034   -11105.531    54.646412   -11160.178    17095.353 
   73800    325.51812   -11116.299    54.337231   -11170.637   -19583.727 
   74000    286.04604   -11124.394    47.748338   -11172.142    10280.545 
   74200    301.50063   -11103.711    50.328102   -11154.039    25558.265 
   74400    315.73797   -11104.283    52.704676   -11156.988   -36745.851 
   74600    279.84515   -11117.608    46.713253   -11164.321    42427.078 
   74800    380.50048   -11107.376     63.51518   -11170.891   -56580.502 
   75000    284.08636   -11113.952    47.421219   -11161.373    4777.8729 
   75200    260.61149   -11109.579    43.502668   -11153.082   -68030.929 
   75400    310.16626   -11105.179    51.774616   -11156.953    16117.261 
   75600    376.68258   -11103.506    62.877876   -11166.383    11611.702 
   75800    261.27938   -11117.577    43.614156   -11161.191   -30281.574 
   76000    313.20715   -11107.733    52.282218   -11160.016    42160.136 
   76200    351.48686   -11109.538    58.672072    -11168.21    10740.551 
   76400    343.18719   -11107.196    57.286647   -11164.483   -11818.581 
   76600     273.6393   -11109.951    45.677339   -11155.628     71520.37 
   76800    232.41445   -11117.245    38.795866   -11156.041    44397.135 
   77000    336.62291   -11099.516    56.190902   -11155.707    38684.707 
   77200    240.73008   -11124.299    40.183956   -11164.483   -1677.1581 
   77400    329.27525   -11109.025    54.964391   -11163.989   -26689.359 
   77600    260.99262   -11110.424    43.566288    -11153.99    29769.462 
   77800    305.84877   -11114.005    51.053917   -11165.058    6937.5603 
   78000    309.03287   -11121.173    51.585424   -11172.759   -29920.465 
   78200    333.22803   -11102.735    55.624211    -11158.36    6834.2119 
   78400    360.95284   -11108.896    60.252184   -11169.148      14968.1 
   78600    232.45012   -11126.418    38.801821    -11165.22   -19201.344 
   78800    313.94572   -11113.831    52.405504   -11166.237    17231.466 
   79000    338.66803   -11105.742    56.532284   -11162.274    32461.552 
   79200    284.04755   -11113.116    47.414741    -11160.53    18792.171 
   79400    269.37558   -11116.487    44.965616   -11161.452     50875.97 
   79600    351.00557   -11099.247    58.591732   -11157.839   -54218.033 
   79800    302.41218   -11106.339    50.480262   -11156.819   -2476.0872 
   80000    310.63587   -11113.504    51.853006   -11165.357   -1518.0688 
   80200     260.4135   -11125.438    43.469617   -11168.908     12026.37 
   80400    307.41812   -11111.003    51.315881   -11162.318   -67175.942 
   80600    285.87776   -11108.269    47.720248    -11155.99    -16461.07 
   80800    328.70306   -11092.396    54.868877   -11147.265    36600.182 
   81000    289.02447   -11111.676    48.245515   -11159.921    15089.347 
   81200     289.0142   -11105.692    48.243801   -11153.935    5833.0848 
   81400     400.1071     -11091.4    66.788023   -11158.188   -44407.612 
   81600    298.31564   -11112.861    49.796447   -11162.657    27282.885 
   81800    258.61389   -11114.134    43.169217   -11157.303   -33942.615 
   82000    322.98812   -11098.502    53.914908   -11152.417   -57976.012 
   82200    299.42059   -11113.839    49.980891    -11163.82    4679.0909 
   82400    257.62485    -11116.65    43.004122   -11159.654    36598.995 
   82600    309.93402    -11103.22    51.735848   -11154.956    50080.385 
   82800    253.84614   -11122.597     42.37336   -11164.971    3823.7585 
   83000    320.28439   -11111.673    53.463588   -11165.137    17336.199 
   83200     299.5049   -11107.122    49.994964   -11157.117    36458.296 
   83400    375.87127   -11095.723    62.742447   -11158.466    8875.2199 
   83600    275.00941    -11112.36    45.906045   -11158.266   -61047.117 
   83800    285.83441   -11104.255    47.713012   -11151.968   -13975.191 
   84000    281.25021   -11109.323    46.947793    -11156.27    32452.483 
   84200    319.64904   -11113.235    53.357532   -11166.592    -56091.67 
   84400    331.39957   -11089.752    55.318994   -11145.071    9142.4924 
   84600    300.23865   -11104.465    50.117446   -11154.583   -9308.4306 
   84800    296.01048   -11118.278    49.411657    -11167.69   -49736.177 
   85000    331.29779   -11105.828    55.302004    -11161.13    30073.763 
   85200    265.12548   -11105.485    44.256166   -11149.742   -17714.897 
   85400    306.79363    -11108.86    51.211638   -11160.072    14363.652 
   85600    268.30881   -11122.984    44.787545   -11167.771   -16250.495 
   85800    326.50259   -11107.858    54.501562    -11162.36    52909.082 
   86000    307.74061   -11109.147    51.369713   -11160.517   -9343.9257 
   86200    257.00525   -11124.828    42.900695   -11167.729   -9471.3377 
   86400    308.24105   -11108.409     51.45325   -11159.862   -70702.766 
   86600    318.60715   -11101.065    53.183614   -11154.248    35215.314 
   86800    283.08613   -11103.673    47.254255   -11150.927   -46820.597 
   87000    245.60898   -11116.311    40.998368   -11157.309   -30349.441 
   87200    283.12329   -11107.105    47.260459   -11154.366   -37516.123 
   87400    362.73809   -11098.086    60.550187   -11158.636    58634.283 
   87600    296.96227   -11116.927    49.570535   -11166.497   -13102.982 
   87800    317.06266   -11112.293    52.925799   -11165.218   -16059.476 
   88000    344.62143   -11097.918    57.526058   -11155.444    15862.864 
   88200    276.32313   -11112.648    46.125338   -11158.774    -7180.791 
   88400    331.80403   -11112.501    55.386509   -11167.887    1261.5031 
   88600    305.55602   -11098.442     51.00505   -11149.447     19498.81 
   88800    274.76754   -11110.261     45.86567   -11156.126   -18848.922 
   89000    309.45021   -11115.401    51.655089   -11167.056   -20101.628 
   89200    314.17509   -11101.514    52.443791   -11153.958    21536.622 
   89400    338.80071   -11099.923    56.554431   -11156.478   -19502.649 
   89600    297.46755   -11113.752    49.654879   -11163.407     46616.73 
   89800    254.25493   -11117.483    42.441596   -11159.925    69210.797 
   90000    343.22555    -11105.67    57.293049   -11162.963   -13264.418 
   90200    334.41177   -11113.228    55.821806    -11169.05     507.7177 
   90400    299.42713   -11118.049    49.981982   -11168.031    43349.357 
   90600    342.79108   -11100.678    57.220526   -11157.899    25904.979 
   90800    252.08845   -11111.807    42.079956   -11153.887    24207.596 
   91000    326.40831   -11096.099    54.485826   -11150.585    4855.5428 
   91200    290.57674   -11111.677    48.504628   -11160.182   -83794.083 
   91400    303.17494   -11111.972    50.607586    -11162.58    53857.336 
   91600    380.60729    -11096.59    63.533011   -11160.123    20596.266 
   91800    262.44113   -11119.238    43.808081   -11163.046    69500.256 
   92000    338.91761   -11106.619    56.573945   -11163.193    41701.346 
   92200    344.40547   -11103.253    57.490008   -11160.743    65309.177 
   92400    259.14528   -11119.974     43.25792   -11163.232   -8811.6615 
   92600     312.0498    -11106.01    52.089026   -11158.099    23424.554 
   92800    335.83377   -11103.893    56.059175   -11159.952   -10194.722 
   93000    264.98711   -11124.141    44.233069   -11168.374    73268.482 
   93200    302.49535   -11108.627    50.494146   -11159.121   -34370.114 
   93400    311.24937   -11115.179    51.955414   -11167.134   -17056.544 
   93600    265.61257   -11123.702    44.337474    -11168.04    21668.101 
   93800      251.554    -11107.83    41.990743   -11149.821   -33233.934 
   94000    348.94745   -11100.428     58.24818   -11158.677   -14888.812 
   94200    332.05467   -11098.587    55.428346   -11154.016    80934.011 
   94400    292.35454   -11117.347    48.801388   -11166.148    4507.6983 
   94600    391.72203   -11104.983    65.388342   -11170.371   -7675.1737 
   94800    299.26092   -11115.501    49.954237   -11165.456    125058.73 
   95000    266.32199   -11117.719    44.455895   -11162.174   -26237.018 
   95200     311.0921    -11099.21    51.929161   -11151.139   -11977.986 
   95400    341.38745   -11106.171    56.986224   -11163.158   -43491.819 
   95600     333.7593   -11111.767    55.712892    -11167.48    14200.591 
   95800    349.62751   -11098.848    58.361699   -11157.209     25682.56 
   96000     281.1371   -11114.845    46.928912   -11161.774    -13921.65 
   96200    310.58706   -11106.771    51.844857   -11158.616   -14833.554 
   96400    288.20597   -11106.405    48.108887   -11154.514    7236.6654 
   96600    266.86909   -11115.373     44.54722    -11159.92   -31134.957 
   96800    388.15509   -11091.899    64.792929   -11156.692    13540.979 
   97000    326.21017   -11105.684     54.45275   -11160.137    -25530.65 
   97200    299.11856    -11114.96    49.930475    -11164.89    -4901.727 
   97400    354.49883   -11094.857    59.174845   -11154.032    6640.4836 
   97600     283.7686   -11108.693    47.368177   -11156.061    32414.603 
   97800    297.91068   -11110.746    49.728849   -11160.475   -19859.281 
   98000    404.38416   -11090.108    67.501973    -11157.61    71548.473 
   98200    359.44983   -11100.208    60.001293   -11160.209    60777.547 
   98400    279.86389   -11112.963    46.716381   -11159.679    -35591.55 
   98600    314.84268   -11103.411    52.555228   -11155.966    16667.023 
   98800    276.67088   -11106.565    46.183387   -11152.749   -57943.344 
   99000    258.59125   -11115.198    43.165438   -11158.363    27946.457 
   99200    298.17064   -11103.821    49.772242   -11153.593    2699.6382 
   99400    276.48566    -11103.98    46.152469   -11150.132   -15553.186 
   99600    277.48189   -11113.007    46.318766   -11159.325    64032.326 
   99800    338.19496   -11102.088    56.453316   -11158.541    85472.115 
  100000    410.43652     -11081.2    68.512266   -11149.712    78890.917 
  100200    335.05194   -11110.283    55.928667   -11166.212   -28687.643 
  100400     331.0665   -11114.471    55.263395   -11169.734   -24282.134 
  100600    327.81954   -11102.431    54.721396   -11157.153    -11431.84 
  100800    267.84469   -11122.472    44.710072   -11167.182    39173.301 
  101000    237.13457   -11111.325    39.583774   -11150.909   -34465.479 
  101200    290.65561   -11105.558    48.517793   -11154.075    12253.072 
  101400    265.11319   -11122.934    44.254115   -11167.188    -45541.73 
  101600    261.94013   -11125.055    43.724451    -11168.78   -2676.8447 
  101800     321.7194   -11109.804    53.703128   -11163.507   -36871.312 
  102000    266.51012   -11109.953    44.487298    -11154.44    47077.878 
  102200    269.33324   -11122.788    44.958549   -11167.746    25149.022 
  102400     281.9063   -11105.334    47.057311   -11152.391   -71923.854 
  102600    300.45571   -11108.873    50.153678   -11159.027   -59670.211 
  102800    260.97114   -11116.628    43.562702   -11160.191   -91380.689 
  103000    320.00139   -11112.025    53.416349   -11165.441   -9112.4075 
  103200     278.0733   -11115.691    46.417486   -11162.109     71324.71 
  103400    244.91306   -11121.986    40.882201   -11162.868    47095.937 
  103600    325.20983   -11105.953    54.285769   -11160.239    -1360.603 
  103800    334.19661   -11109.489    55.785891   -11165.275   -2686.9164 
  104000    276.10849   -11122.453     46.08951   -11168.542    7791.3564 
  104200    373.37898   -11107.186    62.326422   -11169.513   -63077.414 
  104400    306.25571   -11115.167    51.121845   -11166.289   -14966.809 
  104600    261.28994   -11121.267    43.615917   -11164.883   -26355.083 
  104800    343.83942   -11104.338    57.395521   -11161.734    15911.975 
  105000    330.73664    -11106.19    55.208333   -11161.399     11669.19 
  105200    285.94763   -11121.901    47.731912   -11169.633   -7880.1436 
  105400    337.43111   -11107.804     56.32581    -11164.13   -397.48852 
  105600    349.34963   -11105.092    58.315313   -11163.407    35359.818 
  105800    274.30929   -11122.659    45.789177   -11168.448    38770.552 
  106000    270.66121   -11114.458     45.18022   -11159.639     -15164.6 
  106200    303.49565   -11103.048    50.661121   -11153.709     34596.43 
  106400     312.0755   -11113.652    52.093317   -11165.745   -14313.554 
  106600    318.88408   -11114.244    53.229842   -11167.474   -47210.093 
  106800    304.52139   -11105.647    50.832343   -11156.479    -14448.42 
  107000    308.44114   -11110.525    51.486649   -11162.011    1680.3507 
  107200    285.97177   -11110.563    47.735941   -11158.299    13145.279 
  107400    281.29478   -11116.193    46.955234   -11163.148     30732.19 
  107600     283.4115    -11119.46    47.308568   -11166.769    16470.785 
  107800      350.098   -11102.831    58.440235   -11161.271    10455.777 
  108000    273.86921   -11117.802    45.715718   -11163.517   -6510.2406 
  108200    282.59104   -11118.819    47.171612   -11165.991    16339.471 
  108400    315.34528   -11109.993    52.639125   -11162.633    23791.418 
  108600    298.48797   -11106.905    49.825212   -11156.731   -29710.598 
  108800    265.22104   -11119.741    44.272118   -11164.013    16.065471 
  109000    293.31984   -11115.613    48.962521   -11164.576    36105.777 
  109200    330.56383   -11102.034    55.179488   -11157.214    37994.685 
  109400    239.50169   -11117.874    39.978907   -11157.853    27570.641 
  109600    307.84041   -11112.631    51.386372   -11164.017   -32414.296 
  109800    347.04752   -11109.286    57.931034   -11167.217    61641.685 
  110000    259.10783   -11127.692    43.251668   -11170.944   -55273.754 
  110200     235.1799    -11117.74    39.257491   -11156.998    9376.4747 
  110400    313.15232   -11110.292    52.273065   -11162.565   -7218.2801 
  110600     307.3877   -11106.486    51.310803   -11157.797    40037.927 
  110800    257.98314   -11113.612     43.06393   -11156.676   -52258.117 
  111000    268.16575    -11118.66    44.763664   -11163.424   -12264.612 
  111200    367.94173   -11099.886    61.418807   -11161.305    31119.112 
  111400    284.15527   -11113.712    47.432722   -11161.145    98781.047 
  111600     298.2717    -11119.47    49.789112   -11169.259    35492.661 
  111800    318.23258   -11105.331    53.121088   -11158.452   -63406.375 
  112000    288.41827   -11116.716    48.144324    -11164.86    81325.402 
  112200    263.03245   -11116.909    43.906787   -11160.816    9843.1548 
  112400    335.92731   -11105.311    56.074788   -11161.386    64519.117 
  112600    306.22917   -11108.983    51.117416     -11160.1    63181.194 
  112800    235.69921    -11128.98    39.344176   -11168.324   -22406.691 
  113000    314.30516   -11117.035    52.465502   -11169.501   -1033.7614 
  113200    338.57983   -11106.688    56.517562   -11163.205    17559.997 
  113400    309.44148   -11100.666    51.653631   -11152.319    4378.6025 
  113600    288.35724   -11111.911    48.134136   -11160.046   -44648.957 
  113800    266.73431   -11118.582    44.524722   -11163.107    4539.5481 
  114000    326.24367   -11099.752    54.458344    -11154.21   -25368.439 
  114200    295.29812   -11116.113    49.292746   -11165.406   -49460.421 
  114400    275.65556   -11113.518    46.013904   -11159.532    25973.412 
  114600    314.58529   -11102.112    52.512264   -11154.625   -63415.021 
  114800    363.60083   -11092.856      60.6942   -11153.551    7932.4226 
  115000    307.86662   -11110.501    51.390747   -11161.892    48144.369 
  115200    297.78082   -11111.106    49.707172   -11160.813   -41983.892 
  115400    346.77523   -11095.971    57.885581   -11153.856    32074.036 
  115600    262.71752   -11116.232    43.854217   -11160.086   -26837.455 
  115800      284.033   -11110.548    47.412312   -11157.961    19289.486 
  116000    337.16004   -11102.393    56.280562   -11158.674   -4790.6179 
  116200    279.65641    -11111.97    46.681747   -11158.652    32400.405 
  116400    311.72302   -11107.316    52.034478    -11159.35    5027.0194 
  116600    376.22455   -11092.651    62.801419   -11155.453   -3652.6135 
  116800    313.60635    -11110.55    52.348854   -11162.898   -39973.738 
  117000    296.09587   -11112.646     49.42591   -11162.072    7173.1808 
  117200    331.78475    -11098.89    55.383289   -11154.274    -24783.15 
  117400    266.61948   -11119.637    44.505553   -11164.143    39278.348 
  117600    308.71146   -11110.532    51.531773   -11162.064    27959.945 
  117800     304.9401    -11107.19    50.902236   -11158.092    62504.805 
  118000     333.7415   -11110.649    55.709921   -11166.359   -53681.979 
  118200    297.37557   -11106.568    49.639525   -11156.207    64050.876 
  118400    361.17759   -11108.942      60.2897   -11169.231   -32349.759 
  118600    273.30602   -11124.553    45.621706   -11170.174   -88643.568 
  118800    302.51273   -11103.016    50.497048   -11153.513    73247.897 
  119000    338.57813   -11104.375    56.517278   -11160.893    35350.555 
  119200    276.51924   -11121.218    46.158075   -11167.376    37260.127 
  119400    272.89752   -11113.428    45.553518   -11158.981   -57124.867 
  119600    313.13033   -11107.332    52.269394   -11159.602    26467.427 
  119800    320.66591   -11104.068    53.527274   -11157.595   -92353.561 
  120000    282.53625    -11121.02    47.162465   -11168.183    45073.527 
  120200    309.93633   -11107.868    51.736235   -11159.605   -44221.209 
  120400    364.14925   -11104.591    60.785745   -11165.377   -44320.195 
  120600    271.63013   -11115.947    45.341958   -11161.289    37544.888 
  120800    368.73306   -11090.575      61.5509   -11152.126    42632.224 
  121000    323.56694    -11103.01    54.011528   -11157.022   -43086.925 
  121200    292.80639   -11116.593    48.876814   -11165.469   -3468.3188 
  121400    324.90013   -11103.462    54.234072   -11157.696    26428.936 
  121600    344.37402   -11102.586    57.484759   -11160.071    14996.721 
  121800    303.02654   -11114.469    50.582814   -11165.052    4308.7732 
  122000    305.24428   -11107.132    50.953013   -11158.085   -23746.118 
  122200    368.67167    -11093.53    61.540652   -11155.071   -19176.998 
  122400    294.29261   -11109.228      49.1249   -11158.353    46666.149 
  122600    272.40795   -11117.464    45.471796   -11162.935   -29416.214 
  122800    338.02131   -11098.509    56.424329   -11154.934    -8267.466 
  123000    295.00821   -11106.768    49.244353   -11156.012   -59766.376 
  123200    326.62657   -11113.724    54.522258   -11168.246    42711.511 
  123400    295.01699   -11109.966    49.245818   -11159.212   -18483.594 
  123600    341.73948   -11092.711    57.044987   -11149.756    23588.715 
  123800    258.73148   -11110.495    43.188846   -11153.684    61577.143 
  124000    311.58008   -11114.924    52.010618   -11166.934    -44028.82 
  124200    299.50522    -11113.31    49.995017   -11163.306   -2747.1943 
  124400    348.87497   -11095.458    58.236081   -11153.694   -13726.893 
  124600    289.15871   -11117.082    48.267922    -11165.35   -31274.379 
  124800    270.55072   -11117.788    45.161777    -11162.95    4679.4549 
  125000    298.99545   -11100.564    49.909924   -11150.473   -4960.3865 
  125200    316.45764   -11114.299    52.824806   -11167.124   -9024.1885 
  125400    237.92281   -11114.086    39.715351   -11153.801    29014.104 
  125600    376.51046   -11096.585    62.849146   -11159.434    39546.699 
  125800    297.55401   -11115.876    49.669312   -11165.545    74961.382 
  126000    312.98384   -11108.212    52.244941   -11160.457   -28110.353 
  126200    302.83977   -11090.084    50.551639   -11140.636   -26849.579 
  126400    242.30681   -11116.054    40.447152   -11156.501    156.78553 
  126600    320.87954    -11107.33    53.562933   -11160.893    1884.0046 
  126800    235.80611   -11118.073    39.362021   -11157.435    48243.787 
  127000    272.23153   -11114.586    45.442347   -11160.029    -45773.54 
  127200    313.09402   -11108.926    52.263333   -11161.189    24370.024 
  127400     249.6046   -11117.323    41.665339   -11158.988    58295.239 
  127600    345.78314   -11098.893    57.719976   -11156.613    26132.162 
  127800    306.26834   -11107.256    51.123954    -11158.38    11629.298 
  128000    288.45152    -11112.51    48.149874    -11160.66   -2117.7521 
  128200    321.89268   -11097.718    53.732052    -11151.45    -97044.48 
  128400     320.1297   -11110.014    53.437766   -11163.451    95119.576 
  128600     318.6907   -11117.562     53.19756   -11170.759    -14360.45 
  128800     342.9527   -11106.479    57.247505   -11163.726    23139.559 
  129000    347.78913   -11098.743    58.054826   -11156.798    17997.988 
  129200    267.90618   -11114.206    44.720336   -11158.926    19615.543 
  129400    279.25838   -11110.007    46.615307   -11156.622    12980.097 
  129600    310.73417   -11091.786    51.869414   -11143.656   -38936.312 
  129800    292.94232   -11112.307    48.899503   -11161.207    33969.901 
  130000    282.18628    -11114.36    47.104048   -11161.464    10087.364 
  130200    322.62371   -11099.181     53.85408   -11153.035    10827.003 
  130400    295.51757   -11113.451    49.329377   -11162.781   -13007.829 
  130600    272.73161    -11110.15    45.525823   -11155.676    104807.52 
  130800    330.87972   -11103.941    55.232218   -11159.173    6246.9871 
  131000    281.52969   -11118.851    46.994446   -11165.845   -3960.4143 
  131200    321.69521   -11109.361    53.699089    -11163.06   -71132.272 
  131400    299.50685   -11100.629     49.99529   -11150.624    12091.748 
  131600    240.71371    -11120.71    40.181224   -11160.891    -20181.58 
  131800    334.16839   -11105.397    55.781179   -11161.178   -66410.084 
  132000    321.62779   -11105.757    53.687836   -11159.445    44264.574 
  132200    292.11123   -11107.593    48.760773   -11156.353    37651.416 
  132400    277.35238   -11113.699    46.297146   -11159.996    4033.2504 
  132600    282.80692   -11110.473    47.207648   -11157.681    45807.655 
  132800    337.93199   -11100.913     56.40942   -11157.323    16783.162 
  133000    263.78629   -11118.377    44.032622   -11162.409    37090.858 
  133200    355.01921   -11104.282     59.26171   -11163.544   -4462.2374 
  133400    297.33637   -11106.935    49.632982   -11156.568    9960.2268 
  133600    303.84483   -11107.163    50.719408   -11157.883   -5384.3142 
  133800    290.28302   -11123.662    48.455598   -11172.118    27841.876 
  134000    297.22475   -11117.154    49.614349   -11166.768   -11846.185 
  134200    319.14988   -11109.485     53.27421   -11162.759   -80623.941 
  134400    218.54822    -11119.52    36.481241   -11156.001    18081.789 
  134600    278.72991   -11111.282    46.527091    -11157.81    16192.627 
  134800    328.10964   -11103.253     54.76982   -11158.023    1797.5357 
  135000    308.32556   -11117.752    51.467356   -11169.219   -25896.343 
  135200    328.19711   -11106.849    54.784422   -11161.634   -14260.137 
  135400    263.44636   -11110.602    43.975879   -11154.578   -12983.939 
  135600    272.78147   -11120.069    45.534147   -11165.603    9781.7311 
  135800    307.10317    -11110.61    51.263307   -11161.874    22626.742 
  136000    361.14092    -11093.97    60.283579   -11154.254   -10199.555 
  136200    286.87601   -11111.848    47.886882   -11159.735    21319.273 
  136400    252.89779   -11113.962    42.215056   -11156.177    32714.853 
  136600    336.39094   -11099.523     56.15218   -11155.675    -34887.28 
  136800    283.44117   -11119.636     47.31352    -11166.95    4113.3251 
  137000    333.78649   -11110.842     55.71743    -11166.56   -12953.964 
  137200    326.21468    -11102.84    54.453503   -11157.294   -24347.321 
  137400    292.61739   -11114.559    48.845265   -11163.405     4087.335 
  137600    300.15063   -11110.335    50.102754   -11160.438   -24755.255 
  137800    296.79392   -11103.916    49.542433   -11153.458   -27449.738 
  138000    228.32821   -11116.039    38.113769   -11154.153    14600.116 
  138200    292.54604   -11123.382    48.833353   -11172.215   -36590.636 
  138400    331.93477   -11102.202    55.408332   -11157.611    3365.0716 
  138600    266.63265   -11115.737    44.507753   -11160.244     15957.28 
  138800    308.71859   -11114.146    51.532963   -11165.679   -43917.557 
  139000    306.46711   -11109.979    51.157133   -11161.136    61938.542 
  139200    288.03296   -11109.022    48.080006   -11157.102     28649.16 
  139400    246.57066   -11121.649    41.158897   -11162.808   -10811.199 
  139600    297.73343   -11104.281     49.69926    -11153.98   -26134.025 
  139800    300.88552   -11113.982    50.225425   -11164.208   -40679.205 
  140000     320.0755   -11112.237    53.428718   -11165.666   -13601.874 
  140200    323.66167   -11108.821    54.027341   -11162.848   -47699.802 
  140400    256.92229   -11125.081    42.886846   -11167.968   -19355.546 
  140600     287.4664   -11108.248    47.985434   -11156.234   -27532.649 
  140800    303.45751    -11107.41    50.654755   -11158.065     2811.071 
  141000     297.5989   -11123.966    49.676804   -11173.642    5627.8008 
  141200    320.07172   -11112.145    53.428088   -11165.573   -10880.157 
  141400    344.32041   -11111.159    57.475809   -11168.635   -20091.873 
  141600    270.04233   -11114.523    45.076914     -11159.6    58893.599 
  141800    325.15588   -11097.386    54.276763   -11151.662    62649.306 
  142000     291.2774   -11115.131    48.621586   -11163.753    24068.202 
  142200     280.1548   -11115.936    46.764942   -11162.701    40877.982 
  142400    272.04633     -11111.1    45.411432   -11156.511   -24518.999 
  142600    321.24825   -11096.603    53.624482   -11150.228    32835.154 
  142800    298.74604   -11119.849    49.868292   -11169.717    -9986.427 
  143000    255.45064   -11114.382     42.64119   -11157.024   -6532.6704 
  143200    322.50573   -11106.359    53.834386   -11160.193    -10240.79 
  143400    302.21447   -11111.568     50.44726   -11162.015    35575.598 
  143600    324.19286    -11101.09    54.116011   -11155.206    104814.59 
  143800    313.72226   -11117.579    52.368202   -11169.947   -20364.926 
  144000    289.17721    -11112.33     48.27101   -11160.601   -15150.066 
  144200    294.53713   -11106.791    49.165718   -11155.957    55780.904 
  144400     247.7128   -11127.396    41.349549   -11168.746   -3426.5639 
  144600    252.66712    -11119.15     42.17655   -11161.326    21119.489 
  144800    281.89556   -11105.912    47.055519   -11152.968     8367.493 
  145000    227.76976   -11118.547    38.020551   -11156.567    30976.051 
  145200    328.82723   -11111.826    54.889604   -11166.716    26740.084 
  145400    344.08591   -11104.837    57.436665   -11162.273    3973.5173 
  145600    294.35725   -11117.609    49.135692   -11166.745   -17747.476 
  145800    285.00227   -11099.013    47.574108   -11146.587   -11043.506 
  146000    373.03181   -11082.084     62.26847   -11144.352   -22982.942 
  146200     338.6894   -11109.675    56.535852   -11166.211   -43883.549 
  146400     306.7287   -11111.648      51.2008   -11162.849   -54774.112 
  146600    335.89913   -11099.222    56.070084   -11155.292    -36680.33 
  146800    303.36538   -11120.921    50.639376   -11171.561     17424.28 
  147000    302.89625   -11107.642    50.561067   -11158.203    -76746.02 
  147200    270.74758   -11107.223    45.194637   -11152.417   -43117.383 
  147400      297.713   -11109.847     49.69585   -11159.543   -30128.575 
  147600    356.04698   -11098.617    59.433272    -11158.05    5359.0569 
  147800    312.82203   -11108.172     52.21793    -11160.39    9470.9404 
  148000    263.93695   -11115.915    44.057771   -11159.973    26523.524 
  148200    310.55633   -11104.779    51.839728   -11156.619   -47837.464 
  148400    279.01473   -11101.546    46.574635   -11148.121     14451.88 
  148600    291.34179   -11114.387    48.632334    -11163.02    38705.059 
  148800    342.53865   -11106.659    57.178389   -11163.838   -15809.248 
  149000    353.77213   -11095.349    59.053541   -11154.402    11339.702 
  149200    281.30137   -11113.951    46.956334   -11160.907    42348.703 
  149400     296.8288   -11110.663    49.548255   -11160.211    -12170.24 
  149600    410.51706   -11093.301    68.525709   -11161.827    2272.4501 
  149800    318.41324   -11111.901    53.151245   -11165.052   -56534.024 
  150000    253.26356   -11111.023    42.276111   -11153.299   -12946.005 
  150200    343.53727   -11100.372    57.345084   -11157.718   -6742.4123 
  150400    270.75373   -11119.121    45.195664   -11164.316   -16753.978 
  150600    324.70988   -11104.465    54.202314   -11158.667    80787.422 
  150800     278.0926   -11110.027    46.420708   -11156.448    30408.674 
  151000    289.68106   -11115.119    48.355115   -11163.474    27655.405 
  151200    298.69393   -11110.973    49.859593   -11160.833    33021.237 
  151400    343.13942    -11097.11    57.278672   -11154.389    26420.782 
  151600    244.09253    -11110.96    40.745234   -11151.706   -33461.894 
  151800     310.0311   -11113.526    51.752055   -11165.278    88376.325 
  152000    347.27882   -11093.005    57.969643   -11150.975    37912.695 
  152200    323.74361   -11111.436    54.041019   -11165.477   -52444.319 
  152400    272.67897    -11119.34    45.517036   -11164.857   -24841.709 
  152600     310.4215   -11102.336    51.817221   -11154.153   -16986.823 
  152800    319.59714    -11109.59    53.348869   -11162.939   -26624.495 
  153000    287.75307   -11107.147    48.033286    -11155.18   -41568.176 
  153200    309.72116    -11111.09    51.700317   -11162.791   -11037.751 
  153400    302.59409   -11118.986    50.510629   -11169.497   -33919.126 
  153600    296.51025   -11102.022    49.495081   -11151.517    40141.393 
  153800     282.7116   -11121.564    47.191737   -11168.756   -59793.786 
  154000    312.57161   -11113.084    52.176129    -11165.26    49623.193 
  154200    314.78523   -11106.887    52.545639   -11159.432   -80350.016 
  154400     287.5634   -11114.524    48.001625   -11162.526   -68522.311 
  154600    309.37906   -11116.959    51.643212   -11168.602    63185.333 
  154800    307.61286   -11104.943    51.348388   -11156.291   -102080.18 
  155000    318.04839   -11110.132    53.090342   -11163.222   -1123.0943 
  155200    254.50745    -11123.59    42.483748   -11166.074   -41903.917 
  155400    323.30515   -11106.932     53.96783     -11160.9    40434.283 
  155600    343.05996   -11103.805    57.265409    -11161.07   -35625.143 
  155800    267.68167   -11123.374     44.68286   -11168.057   -1382.3096 
  156000    289.88613   -11111.815    48.389347   -11160.204   -41809.616 
  156200    322.96902   -11109.812    53.911721   -11163.723    90877.139 
  156400    261.46689   -11122.443    43.645456   -11166.088    2024.3043 
  156600    337.25247   -11114.699    56.295992   -11170.995   -47677.053 
  156800    296.67038    -11106.93    49.521812   -11156.452    50366.809 
  157000    250.43069   -11116.818    41.803234   -11158.621     2179.188 
  157200    260.99944   -11122.054    43.567426   -11165.621   -31707.382 
  157400    313.60758   -11102.694    52.349059   -11155.043   -29528.146 
  157600    305.35338   -11112.889    50.971224    -11163.86    12922.689 
  157800    284.42283   -11117.223    47.477384   -11164.701   -36314.537 
  158000      297.956   -11111.552    49.736414   -11161.289   -24522.397 
  158200    300.42183    -11112.19    50.148023   -11162.338    9351.3911 
  158400    290.17731   -11096.184    48.437952   -11144.622    47342.392 
  158600    305.44369    -11110.78    50.986299   -11161.766   -13878.871 
  158800    288.08541   -11112.514    48.088762   -11160.603   -67615.457 
  159000    371.74581   -11097.946    62.053805       -11160    37246.693 
  159200    357.37959   -11098.287    59.655718   -11157.943    16259.059 
  159400    302.67012    -11114.01     50.52332   -11164.533   -27320.301 
  159600    352.47801   -11102.759     58.83752   -11161.596   -7459.1299 
  159800    257.40535   -11115.335    42.967481   -11158.302    124604.73 
  160000    280.53466    -11112.93     46.82835   -11159.758   -47863.412 
  160200    283.54318   -11101.107    47.330549   -11148.437   -30640.219 
  160400    282.50926   -11116.334    47.157961   -11163.492    3139.4967 
  160600    314.51335   -11111.764    52.500255   -11164.264    16031.464 
  160800    325.50907   -11096.769     54.33572   -11151.105    35685.465 
  161000    287.11876   -11116.314    47.927404   -11164.241   -28535.765 
  161200    324.10011   -11112.371    54.100528   -11166.471    3886.4239 
  161400     354.5291    -11094.89    59.179898    -11154.07    26021.357 
  161600    330.30627   -11110.257    55.136494   -11165.394   -497.06542 
  161800    288.16697   -11113.834    48.102375   -11161.936    19569.756 
  162000    396.01808   -11098.927    66.105462   -11165.032   -37572.061 
  162200    253.54658   -11119.002    42.323354   -11161.325    23811.562 
  162400    308.79146   -11106.024    51.545126   -11157.569   -7790.7049 
  162600    351.73347   -11096.576    58.713238    -11155.29    705.87044 
  162800     250.8912   -11115.353    41.880105   -11157.233    56694.254 
  163000    316.28516   -11106.935    52.796015   -11159.731   -35753.885 
  163200    328.25385   -11098.982    54.793894   -11153.776   -55642.947 
  163400     264.1062   -11122.879    44.086023   -11166.965    41015.001 
  163600    322.95355   -11107.354    53.909139   -11161.263    38794.225 
  163800    278.97535   -11115.638    46.568061   -11162.206   -5393.1641 
  164000     275.3547   -11121.151    45.963684   -11167.115     9494.613 
  164200    326.87603   -11103.618      54.5639   -11158.182    4502.1291 
  164400    281.92803   -11116.918    47.060939   -11163.979    63514.183 
  164600    253.27792   -11118.403    42.278509   -11160.682   -29610.685 
  164800    305.18179   -11110.411     50.94258   -11161.353   -21116.136 
  165000    295.91396   -11114.634    49.395545    -11164.03    62959.622 
  165200    251.83063   -11126.006     42.03692   -11168.043     14841.19 
  165400    300.27201   -11112.203    50.123015   -11162.326    4625.4802 
  165600    287.98583   -11106.218    48.072139    -11154.29    12056.011 
  165800    231.06484   -11119.134    38.570581   -11157.704   -40915.942 
  166000    309.63965   -11109.925    51.686711   -11161.612   -24786.326 
  166200    363.07983   -11102.005    60.607232   -11162.613    -23196.88 
  166400    263.18212   -11116.223    43.931771   -11160.155   -11192.479 
  166600    291.77131   -11111.951    48.704031   -11160.655   -18744.834 
  166800    309.78928   -11115.019    51.711688    -11166.73   -13810.191 
  167000    365.01547   -11101.032     60.93034   -11161.962   -23310.342 
  167200    319.33957   -11099.733    53.305874   -11153.039    32435.698 
  167400     298.3838   -11113.597    49.807823   -11163.405   -114156.01 
  167600    292.25323   -11110.262    48.784477   -11159.047   -34757.053 
  167800      335.019   -11101.399    55.923169   -11157.322    28076.517 
  168000    271.69969   -11119.094    45.353569   -11164.447    23278.323 
  168200    307.81042   -11110.481    51.381366   -11161.862    13542.506 
  168400    283.99881   -11107.346    47.406605   -11154.752   -6506.3871 
  168600    300.76196   -11110.425      50.2048    -11160.63    21033.727 
  168800    350.35713   -11107.787     58.48349    -11166.27    3664.3334 
  169000    279.19684   -11111.096    46.605033   -11157.701   -72794.796 
  169200    298.95992   -11121.733    49.903993   -11171.637    52006.599 
  169400    303.18148   -11107.558    50.608678   -11158.166   -2309.4796 
  169600    286.51438   -11103.856    47.826517   -11151.683    25945.278 
  169800    270.52123     -11119.7    45.156854   -11164.857    4972.2243 
  170000    292.16446   -11112.781    48.769659    -11161.55   -20365.902 
  170200     299.1475   -11107.051    49.935305   -11156.986   -68117.557 
  170400    320.39586   -11100.341    53.482195   -11153.823    58759.436 
  170600    324.15783   -11114.464    54.110163   -11168.575   -18087.256 
  170800    298.16818   -11117.125    49.771832   -11166.896    59675.669 
  171000    317.09922   -11111.276    52.931902   -11164.208   -59611.019 
  171200    337.75322   -11106.886    56.379579   -11163.266      41423.7 
  171400    248.79608    -11116.02    41.530375    -11157.55   -25080.798 
  171600     267.3794   -11115.909    44.632403   -11160.541   -12762.083 
  171800    347.94266   -11100.234    58.080455   -11158.315   -45025.756 
  172000    307.68464   -11114.217     51.36037   -11165.578   -78958.198 
  172200     277.7755   -11113.929    46.367775   -11160.297   -34434.495 
  172400    353.70424    -11095.79    59.042209   -11154.833   -34393.423 
  172600    263.65655   -11115.319    44.010964    -11159.33    45657.661 
  172800    287.31567   -11107.604    47.960272   -11155.564   -65460.892 
  173000    328.48108   -11095.544    54.831823   -11150.375    -46330.47 
  173200    327.37904   -11115.929    54.647864   -11170.577   -46738.092 
  173400    243.17426   -11120.846    40.591951   -11161.438   -9221.2016 
  173600    287.22952   -11104.743    47.945892   -11152.689   -23863.023 
  173800    306.48449   -11112.796    51.160035   -11163.956    14891.195 
  174000    281.40307   -11121.311     46.97331   -11168.284   -16833.779 
  174200    256.76483   -11112.882    42.860562   -11155.742    27674.221 
  174400     348.5783   -11100.672    58.186559   -11158.858   -5091.6212 
  174600    272.07327   -11113.215    45.415929   -11158.631   -15186.032 
  174800      261.641   -11117.256    43.674518    -11160.93   -46224.925 
  175000    295.57333   -11098.634    49.338686   -11147.973   -40223.503 
  175200    334.41894   -11106.282    55.823003   -11162.105   -2604.5553 
  175400    332.34915   -11108.579    55.477503   -11164.056    15827.878 
  175600    285.15048   -11115.895    47.598847   -11163.494   -3822.5253 
  175800    305.87978   -11122.104    51.059093   -11173.163    57523.106 
  176000    301.36082   -11101.319    50.304764   -11151.624    18686.848 
  176200    320.47073   -11113.878    53.494693   -11167.373    7177.5066 
  176400    273.75137   -11119.763    45.696048   -11165.459    -66860.29 
  176600    359.95427   -11099.312    60.085497   -11159.398    80930.632 
  176800    268.51894   -11116.882    44.822621   -11161.704   -15438.613 
  177000    272.84783   -11104.614    45.545222   -11150.159   -19476.429 
  177200    342.76037   -11103.642    57.215399   -11160.858   -10043.385 
  177400    295.23495    -11116.81    49.282202   -11166.092   -21208.668 
  177600    248.00416   -11128.907    41.398184   -11170.305    32511.509 
  177800    262.91748   -11113.614    43.887596   -11157.502    16318.391 
  178000    294.71109   -11113.047    49.194756   -11162.242    46594.291 
  178200    259.66649   -11123.014    43.344923   -11166.359    710.00227 
  178400    328.15155   -11104.314    54.776816    -11159.09    33533.653 
  178600    280.56235   -11102.999    46.832972   -11149.832    11773.782 
  178800    283.58768   -11120.779    47.337977   -11168.117   -8243.5441 
  179000    281.48288   -11105.977    46.986632   -11152.964    101075.84 
  179200    302.60079   -11108.022    50.511747   -11158.534   -42413.496 
  179400    261.78786    -11112.35    43.699033   -11156.049    3517.6514 
[...]
  950000    314.68151   -11098.782    52.528326    -11151.31   -24254.378 
  950200    329.34622   -11115.398    54.976237   -11170.374    77025.297 
  950400    298.37058   -11116.066    49.805617   -11165.872   -26015.924 
  950600    334.84003   -11099.957    55.893293    -11155.85   -114052.03 
  950800    255.16629    -11121.26    42.593726   -11163.853    60005.198 
  951000    294.05191   -11108.662    49.084722   -11157.746   -29147.741 
  951200    352.68502   -11096.391    58.872076   -11155.263    53743.102 
  951400    261.34823   -11115.701    43.625648   -11159.327   -17510.974 
  951600    333.73251    -11109.81    55.708421   -11165.518   -37916.839 
  951800    297.06091   -11122.685    49.587001   -11172.272   -27225.298 
  952000    278.86247    -11116.69    46.549218    -11163.24    22389.058 
  952200    338.65308   -11107.792    56.529788   -11164.322   -24252.256 
  952400    263.84258   -11120.014    44.042018   -11164.056    27451.988 
  952600    330.70159   -11100.316    55.202483   -11155.518    43043.608 
  952800    300.49784   -11113.222    50.160711   -11163.383     -18353.5 
  953000    312.21458   -11105.766    52.116531   -11157.883    18708.446 
  953200    314.83183   -11101.763    52.553417   -11154.317   -51845.102 
  953400    304.03904   -11113.211    50.751827   -11163.963    6179.6704 
  953600    324.82263   -11106.682    54.221136   -11160.903   -22481.139 
  953800     282.1738   -11117.618    47.101963    -11164.72   -8625.9916 
  954000    250.22316   -11126.726    41.768592   -11168.494    14548.024 
  954200    341.58329   -11108.525    57.018915   -11165.544     33180.35 
  954400    277.68439   -11113.136    46.352568   -11159.488    5196.4322 
  954600    297.05915   -11116.291    49.586707   -11165.878   -14086.292 
  954800    327.94027   -11101.437    54.741548   -11156.179   -29464.519 
  955000    266.98683   -11116.371    44.566873   -11160.938    74837.138 
  955200    327.86351    -11109.29    54.728735   -11164.019   -22897.417 
  955400    311.04171       -11107     51.92075   -11158.921   -2416.1196 
  955600    314.53078   -11110.724    52.503164   -11163.227    -17070.52 
  955800    303.10128   -11113.809    50.595291   -11164.404   -37733.134 
  956000    335.95457   -11102.492    56.079338   -11158.571    24254.658 
  956200    438.86754   -11085.478    73.258123   -11158.736   -15467.334 
  956400    316.24885   -11113.748    52.789955   -11166.538     52130.54 
  956600    318.67247   -11110.361    53.194518   -11163.556   -67116.824 
  956800    355.23241   -11098.646    59.297298   -11157.943     65960.48 
  957000    291.84759   -11113.478    48.716765   -11162.195    2319.1339 
  957200    284.91788   -11109.314    47.560021   -11156.874    79392.393 
  957400    324.85099     -11099.3    54.225869   -11153.526    71553.447 
  957600    323.27813   -11109.408    53.963319   -11163.372    57061.185 
  957800    266.61419    -11115.44     44.50467   -11159.945    -59912.89 
  958000    284.68567   -11107.767    47.521258   -11155.288   -35225.192 
  958200    327.79685    -11097.35    54.717608   -11152.067    559.98659 
  958400    277.24813   -11115.979    46.279744   -11162.259   -63696.723 
  958600     309.3955   -11106.758    51.645957   -11158.404   -30306.184 
  958800    311.66034   -11104.165    52.024016   -11156.189   -28484.803 
  959000    335.93495   -11109.137    56.076064   -11165.213    -5636.929 
  959200    274.62616   -11119.735    45.842071   -11165.577   -54176.791 
  959400    340.23229   -11106.823    56.793398   -11163.617     44271.67 
  959600     274.4587   -11108.153    45.814119   -11153.967   -17988.122 
  959800    278.35502     -11110.7    46.464513   -11157.164    12411.504 
  960000    352.38766   -11093.821    58.822439   -11152.643   -5546.5287 
  960200     287.7725    -11114.85    48.036528   -11162.887    58277.633 
  960400    317.62716   -11104.271    53.020029   -11157.291   -12611.981 
  960600    338.70339   -11099.555    56.538186   -11156.094    31016.805 
  960800    274.44481   -11109.904    45.811799   -11155.716    8306.6766 
  961000    259.27418   -11110.975    43.279437   -11154.254   -26915.796 
  961200    319.30247   -11105.666    53.299681   -11158.966    61440.974 
  961400    288.39173   -11122.232    48.139894   -11170.371   -69953.519 
  961600    280.32641   -11109.532    46.793588   -11156.326    36178.467 
  961800    282.12102   -11110.536    47.093153   -11157.629   -53358.641 
  962000    277.88947   -11105.493      46.3868    -11151.88    23731.911 
  962200    292.93512    -11089.21    48.898302   -11138.108   -63703.537 
  962400    254.63508   -11110.639    42.505054   -11153.144   -23940.694 
  962600    287.16524   -11119.376    47.935162   -11167.311   -14972.484 
  962800    286.79591   -11110.987    47.873512   -11158.861    6501.3902 
  963000      302.225   -11101.017    50.449018   -11151.466   -54344.551 
  963200    251.29262   -11119.697    41.947112   -11161.644    17573.639 
  963400     328.5859   -11112.718     54.84932   -11167.567    70447.693 
  963600    239.28689   -11112.485    39.943052   -11152.428    52986.024 
  963800    352.84692   -11097.704    58.899099   -11156.603   -39471.978 
  964000    333.91055   -11111.676     55.73814   -11167.414   -12815.542 
  964200    299.14094   -11107.431     49.93421   -11157.365   -43950.942 
  964400    378.67375   -11087.428    63.210254   -11150.638    12621.671 
  964600     343.3191   -11108.105    57.308666   -11165.414    20531.673 
  964800    300.85966   -11117.513    50.221108   -11167.734   -35107.205 
  965000    293.32538   -11126.195    48.963446   -11175.158    21613.582 
  965200    340.46539   -11107.372    56.832309   -11164.205    64303.887 
  965400    298.56396   -11104.106    49.837898   -11153.944    62928.207 
  965600    256.37882   -11122.882    42.796127   -11165.678   -88678.466 
  965800    305.84299   -11111.231    51.052951   -11162.284   -2451.6675 
  966000    304.29622   -11109.507    50.794757   -11160.302    2743.2522 
  966200     304.0132    -11104.62    50.747514   -11155.368   -22164.175 
  966400    355.88053   -11099.221    59.405486   -11158.626   -61154.365 
  966600    291.05446   -11116.088    48.584371   -11164.673   -2427.9918 
  966800    304.40432   -11109.684    50.812801   -11160.497   -32858.904 
  967000    356.11229     -11103.9    59.444174   -11163.344   -9645.5579 
  967200    346.17366   -11111.793    57.785164   -11169.578   -18759.403 
  967400    325.38504   -11110.661    54.315016   -11164.976   -27404.394 
  967600    286.97047   -11114.628    47.902649   -11162.531    115043.47 
  967800    363.63402   -11098.033     60.69974   -11158.733     2300.547 
  968000    303.92573   -11110.361    50.732912   -11161.094    57538.752 
  968200     254.7479   -11123.084    42.523886   -11165.608   -14903.625 
  968400    339.02573   -11105.416    56.591992   -11162.008    54609.458 
  968600    329.01596   -11114.175    54.921108   -11169.096   -86573.159 
  968800    272.80648   -11116.962     45.53832     -11162.5    20079.967 
  969000    330.39096   -11103.574    55.150632   -11158.724   -2627.4565 
  969200    259.97435    -11115.68    43.396313   -11159.076    20682.386 
  969400     305.9869   -11097.459    51.076974   -11148.536   -14383.345 
  969600    288.44409   -11104.833    48.148634   -11152.982    21672.356 
  969800    276.62049   -11110.737    46.174976   -11156.912   -903.24792 
  970000    321.76916   -11112.504    53.711434   -11166.216   -61591.705 
  970200     305.3699   -11110.487    50.973981   -11161.461   -1441.2246 
  970400    341.88515   -11109.624    57.069303   -11166.693   -46454.625 
  970600    265.25128   -11118.754    44.277166   -11163.032    52825.661 
  970800    332.71051   -11111.742    55.537822    -11167.28    27710.745 
  971000    250.48821   -11122.518    41.812835   -11164.331    48654.639 
  971200    322.32611   -11108.381    53.804403   -11162.185   -35677.232 
  971400    355.64946   -11103.976    59.366915   -11163.343    40621.752 
  971600    309.31163   -11096.457    51.631955   -11148.089   -36966.398 
  971800    301.42295   -11109.487    50.315136   -11159.802   -41057.275 
  972000    334.62368   -11112.485    55.857179   -11168.342    31971.718 
  972200    272.19175   -11125.877    45.435707   -11171.313     34025.43 
  972400    323.89939   -11111.588    54.067023   -11165.655   -75456.701 
  972600    302.84988   -11112.637    50.553327   -11163.191    -7816.233 
  972800    323.20495   -11114.105    53.951103   -11168.056    4595.1504 
  973000    337.72082   -11111.337    56.374171   -11167.711    -12219.12 
  973200    343.37943   -11102.825    57.318735   -11160.144    8858.5303 
  973400    284.14848   -11104.734    47.431588   -11152.165   -61386.008 
  973600    263.16115   -11116.286     43.92827   -11160.215   -54676.819 
  973800    356.78302   -11103.276    59.556135   -11162.832   -65232.258 
  974000    240.73977   -11116.083    40.185574   -11156.269   -53225.299 
  974200    262.39952   -11112.408    43.801135   -11156.209    28655.378 
  974400    369.69506   -11102.089    61.711482   -11163.801    -64998.19 
  974600    248.25315   -11119.124    41.439747   -11160.563    42757.848 
  974800    307.82076   -11107.606    51.383092   -11158.989   -28701.338 
  975000    300.15781   -11107.285    50.103952   -11157.389   -71994.772 
  975200    290.83621   -11114.874     48.54794   -11163.422    45353.187 
  975400    274.67513   -11115.655    45.850246   -11161.505    4400.9929 
  975600    291.89556   -11106.839    48.724772   -11155.564   -94938.567 
  975800    308.94167   -11110.515      51.5702   -11162.085   -42194.362 
  976000    312.23726   -11106.243    52.120318   -11158.364    60566.668 
  976200    249.24767   -11118.731    41.605758   -11160.337    61211.519 
  976400    327.62842   -11101.662    54.689492   -11156.351   -21657.603 
  976600    223.31136   -11123.604     37.27633   -11160.881    -23800.38 
  976800    335.33811   -11109.573    55.976436   -11165.549   -17511.368 
  977000    282.12214   -11107.391    47.093341   -11154.484   -23444.868 
  977200    349.51217    -11100.79    58.342445   -11159.132   -6045.3496 
  977400     248.6401   -11115.463    41.504338   -11156.968   -39632.706 
  977600    254.82947   -11111.276    42.537502   -11153.813    37750.043 
  977800    304.15101   -11107.111    50.770517   -11157.882    5230.9113 
  978000    290.82427    -11109.89    48.545947   -11158.436   -71792.428 
  978200    250.74846   -11120.317    41.856278   -11162.174    10622.988 
  978400    277.86807   -11114.561    46.383229   -11160.944    71910.382 
  978600    240.75602   -11112.534    40.188285   -11152.722   -67979.476 
  978800    264.03113   -11096.237    44.073493   -11140.311    6551.2658 
  979000    319.52784    -11103.64      53.3373   -11156.978    108742.64 
  979200    322.10777   -11109.569    53.767957   -11163.337    11299.008 
  979400    320.54806   -11106.477    53.507601   -11159.985    22880.535 
  979600    282.11233   -11120.387    47.091704   -11167.479   -10666.482 
  979800    357.68693    -11100.43     59.70702   -11160.137    22621.684 
  980000     292.2121   -11107.412    48.777611   -11156.189   -42763.991 
  980200    288.20849   -11112.619    48.109306   -11160.728   -25742.106 
  980400    297.47192    -11103.66    49.655608   -11153.316   -94691.903 
  980600    336.27873   -11104.343    56.133449   -11160.477   -12109.595 
  980800     261.0806   -11120.788    43.580974   -11164.369    7573.0233 
  981000    311.04356   -11106.688    51.921059   -11158.609   -14074.483 
  981200    261.48464   -11111.604    43.648418   -11155.253     20002.49 
  981400     344.4141   -11099.453    57.491448   -11156.944   -26936.721 
  981600    336.96336   -11105.218    56.247732   -11161.466   -56119.251 
  981800    318.33676   -11115.781     53.13848    -11168.92     70777.86 
  982000    274.09644   -11119.293    45.753648   -11165.047   -17888.217 
  982200    333.68985   -11100.046    55.701299   -11155.747   -17682.905 
  982400    328.67003   -11106.187    54.863364   -11161.051     51991.24 
  982600    290.24928   -11119.428    48.449967   -11167.878    3922.7292 
  982800     336.3986   -11101.599    56.153458   -11157.753   -23998.773 
  983000    308.65214   -11111.678    51.521871     -11163.2   -75940.575 
  983200    267.28881   -11113.305    44.617281   -11157.922   -36243.239 
  983400    287.78607   -11106.877    48.038794   -11154.916    18691.387 
  983600    274.70226   -11124.376    45.854774   -11170.231   -13702.812 
  983800    285.13917   -11109.415    47.596959   -11157.012    56981.647 
  984000    326.21433   -11108.281    54.453446   -11162.734   -66759.622 
  984200    293.99946    -11110.72    49.075967   -11159.796     3915.175 
  984400    332.61409   -11103.013    55.521728   -11158.535    20867.067 
  984600    372.87071   -11093.091    62.241578   -11155.333   -8486.2388 
  984800    298.31648   -11111.644    49.796587    -11161.44    32583.857 
  985000    342.19236   -11104.292    57.120585   -11161.413    -48475.86 
  985200    327.82287   -11105.743    54.721951   -11160.465    6332.8464 
  985400    314.61302   -11114.265    52.516893   -11166.782    -15400.88 
  985600     284.6611    -11119.66    47.517158   -11167.177   -24475.428 
  985800    289.30075   -11104.837    48.291633   -11153.128   -67252.453 
  986000    296.67328   -11106.618    49.522295    -11156.14   -12742.004 
  986200    279.46156   -11114.121    46.649222    -11160.77   -52680.391 
  986400    323.27437   -11106.554    53.962692   -11160.517     27378.79 
  986600    319.39503    -11106.76    53.315131   -11160.075    62827.932 
  986800    259.55186   -11117.991    43.325788   -11161.317    12760.167 
  987000    332.50496   -11110.019    55.503512   -11165.522    33310.006 
  987200    354.45112   -11097.835    59.166883   -11157.001    541.50802 
  987400    295.76644   -11115.385    49.370921   -11164.755   -11544.241 
  987600    317.46413   -11111.543    52.992815   -11164.536    2588.7712 
  987800    344.36177    -11090.09    57.482714   -11147.573    37711.387 
  988000    310.24523   -11102.513    51.787798   -11154.301   -1575.1644 
  988200    276.41649   -11112.808    46.140923   -11158.949   -61043.041 
  988400    293.12248   -11101.299    48.929577   -11150.228   -59719.728 
  988600     308.0046   -11108.937    51.413779   -11160.351   -23653.658 
  988800    273.44367   -11114.818    45.644684   -11160.463    -62024.26 
  989000    347.09159   -11101.706     57.93839   -11159.644   -29416.807 
  989200     263.5513   -11119.194    43.993396   -11163.187    24195.252 
  989400    292.05766   -11109.305    48.751831   -11158.057   -93974.126 
  989600    334.41704   -11097.991    55.822686   -11153.814    35200.404 
  989800    277.60352   -11109.971    46.339068   -11156.311   -95858.288 
  990000    281.58911   -11117.157    47.004365   -11164.162    16360.319 
  990200    310.96101   -11106.101     51.90728   -11158.008    103576.16 
  990400    283.59255   -11109.941     47.33879    -11157.28   -87794.298 
  990600    286.41434   -11111.961    47.809818   -11159.771     19024.65 
  990800    264.16954   -11113.157    44.096597   -11157.254   -23013.301 
  991000    292.99441    -11126.75    48.908198   -11175.658    34714.555 
  991200    338.93341   -11111.261    56.576583   -11167.837    82978.465 
  991400    280.84978   -11108.052    46.880952   -11154.933    -27138.64 
  991600    355.38831   -11098.186    59.323322   -11157.509    8335.7122 
  991800      280.527   -11110.159    46.827071   -11156.986     34840.06 
  992000    281.76901   -11109.431    47.034395   -11156.465   -37347.125 
  992200    274.76286   -11120.927     45.86489   -11166.792   -42601.913 
  992400    305.99845   -11106.494    51.078903   -11157.573   -16822.139 
  992600    304.02015   -11107.812    50.748673   -11158.561    37313.862 
  992800      293.025   -11114.104    48.913305   -11163.018   -75829.934 
  993000    347.65307    -11095.57    58.032114   -11153.602    59118.405 
  993200    309.72937   -11104.832    51.701687   -11156.534   -18944.772 
  993400    265.96639   -11114.126    44.396537   -11158.523    -13079.08 
  993600    322.42384   -11108.156    53.820717   -11161.977    11622.578 
  993800    321.86707   -11101.579    53.727778   -11155.307    31951.923 
  994000    258.47767   -11121.622    43.146478   -11164.768    6613.3941 
  994200    289.41938   -11112.144    48.311435   -11160.456    3307.6897 
  994400    332.89826   -11100.545    55.569163   -11156.115    49191.998 
  994600    295.40358   -11114.566    49.310349   -11163.877     -4333.77 
  994800    323.03181   -11113.673    53.922201   -11167.595    31267.266 
  995000    330.12221   -11102.897    55.105769   -11158.003   -24991.858 
  995200    318.49512   -11101.753    53.164914   -11154.918   -25013.487 
  995400    295.03197   -11107.293    49.248319   -11156.541     48066.03 
  995600    272.58499   -11117.688    45.501348    -11163.19    64753.311 
  995800    269.43472    -11115.81    44.975488   -11160.786    15737.282 
  996000    277.41443   -11106.399    46.307504   -11152.706    39800.392 
  996200    292.47745   -11113.785    48.821905   -11162.607    18897.935 
  996400    295.42595   -11124.587    49.314084   -11173.901   -35294.656 
  996600    333.99901   -11110.587    55.752906    -11166.34    72830.069 
  996800    248.03292   -11115.369    41.402985   -11156.772    14659.353 
  997000    321.08219   -11101.259    53.596761   -11154.856   -19380.625 
  997200    325.30327   -11101.486    54.301367   -11155.787   -70763.404 
  997400    277.90216   -11116.343    46.388919   -11162.732    55244.251 
  997600     307.6912   -11107.466    51.361465   -11158.828   -18093.789 
  997800    304.58142   -11112.126    50.842364   -11162.968    83023.158 
  998000    262.81383   -11121.702    43.870294   -11165.572    41856.862 
  998200    265.66778   -11124.179     44.34669   -11168.526    21731.056 
  998400    307.81815   -11105.434    51.382656   -11156.816     17865.42 
  998600    310.55433   -11109.845    51.839395   -11161.684    14984.575 
  998800    290.51562    -11115.64    48.494426   -11164.134   -10822.894 
  999000    297.85414   -11105.159     49.71941   -11154.879    5978.0714 
  999200     343.0278   -11090.386    57.260039   -11147.646   -2246.3098 
  999400    262.22247    -11111.64    43.771581   -11155.411    171.82195 
  999600    366.36638   -11100.192    61.155841   -11161.348   -22099.996 
  999800    318.31033   -11117.082    53.134067   -11170.216   -18513.023 
 1000000    288.51345   -11117.364    48.160213   -11165.524   -24660.187 
Loop time of 20072.9 on 8 procs for 1000000 steps with 57 atoms

Performance: 1.076 ns/day, 22.303 hours/ns, 49.818 timesteps/s
98.9% CPU use with 8 MPI tasks x no OpenMP threads

MPI task timing breakdown:
Section |  min time  |  avg time  |  max time  |%varavg| %total
---------------------------------------------------------------
Pair    | 14901      | 15992      | 16771      | 568.7 | 79.67
Neigh   | 1.4534     | 1.5753     | 1.7002     |   5.9 |  0.01
Comm    | 352.45     | 1131.2     | 2221.5     |2137.5 |  5.64
Output  | 0.42749    | 0.4578     | 0.62853    |   9.6 |  0.00
Modify  | 2936.4     | 2937.6     | 2939.4     |   2.0 | 14.63
Other   |            | 10.39      |            |       |  0.05

Nlocal:    7.125 ave 11 max 5 min
Histogram: 2 2 0 2 0 0 0 0 1 1
Nghost:    717.375 ave 734 max 686 min
Histogram: 1 0 0 0 1 1 1 1 1 2
Neighs:    1114.12 ave 1721 max 755 min
Histogram: 2 2 0 2 0 0 0 0 1 1

Total # of neighbors = 8913
Ave neighs/atom = 156.368
Neighbor list builds = 363
Dangerous builds = 0

Please see the log.cite file for references relevant to this simulation

Total wall time: 5:35:14
