ITEM: TIMESTEP
0
ITEM: NUMBER OF ATOMS
81
ITEM: BOX BOUNDS pp pp pp
0.0000000000000000e+00 1.3416000000000000e+01
0.0000000000000000e+00 1.3416000000000000e+01
0.0000000000000000e+00 1.3414999999999999e+01
ITEM: ATOMS id type x y z 
21 1 1.912 1.912 1.912 
22 1 2.794 2.794 2.795 
23 1 0.386 2.099 2.099 
33 1 2.098 2.099 0.386 
37 1 2.099 0.386 2.099 
41 1 4.371 4.372 4.372 
42 1 3.489 3.489 3.489 
43 1 4.184 5.897 4.185 
53 1 4.185 4.185 5.898 
57 1 5.897 4.185 4.185 
4 1 1.912 1.912 11.079 
5 1 2.794 2.794 10.197 
6 1 2.099 0.386 10.892 
16 1 2.098 2.099 12.605 
19 1 0.386 2.099 10.892 
64 1 4.371 4.372 8.62 
65 1 3.489 3.489 9.502 
66 1 5.897 4.185 8.807 
76 1 4.185 4.185 7.094 
79 1 4.184 5.897 8.807 
10 1 1.911 11.079 1.912 
11 1 2.794 10.197 2.795 
12 1 2.099 12.605 2.099 
15 1 2.099 10.892 0.386 
18 1 0.386 10.892 2.099 
67 1 4.372 8.62 4.371 
68 1 3.489 9.502 3.489 
69 1 5.897 8.807 4.185 
74 1 4.185 8.807 5.897 
80 1 4.185 7.094 4.185 
30 1 1.911 11.079 11.079 
31 1 2.794 10.197 10.197 
32 1 0.386 10.892 10.892 
35 1 2.099 10.892 12.605 
38 1 2.099 12.605 10.892 
47 1 4.372 8.62 8.62 
48 1 3.489 9.502 9.502 
49 1 4.184 7.094 8.807 
54 1 4.184 8.807 7.094 
60 1 5.897 8.807 8.807 
7 1 11.08 1.912 1.912 
8 1 10.197 2.794 2.795 
9 1 10.893 0.386 2.099 
14 1 10.893 2.099 0.386 
20 1 12.606 2.099 2.099 
70 1 8.62 4.372 4.372 
71 1 9.502 3.489 3.489 
72 1 7.094 4.185 4.185 
75 1 8.807 4.185 5.897 
78 1 8.807 5.898 4.185 
27 1 11.08 1.912 11.079 
28 1 10.197 2.794 10.197 
29 1 12.606 2.099 10.892 
34 1 10.893 2.099 12.605 
40 1 10.893 0.386 10.892 
50 1 8.62 4.372 8.62 
51 1 9.502 3.489 9.502 
52 1 8.807 5.897 8.807 
55 1 8.807 4.185 7.094 
58 1 7.094 4.185 8.807 
24 1 11.08 11.08 1.912 
25 1 10.197 10.197 2.795 
26 1 12.606 10.892 2.099 
36 1 10.893 10.892 0.386 
39 1 10.893 12.605 2.099 
44 1 8.62 8.62 4.372 
45 1 9.502 9.502 3.489 
46 1 8.807 7.094 4.185 
56 1 8.807 8.807 5.898 
59 1 7.094 8.807 4.185 
1 1 11.08 11.079 11.079 
2 1 10.197 10.197 10.197 
3 1 10.893 12.605 10.892 
13 1 10.893 10.892 12.605 
17 1 12.606 10.892 10.892 
61 1 8.62 8.62 8.62 
62 1 9.502 9.502 9.502 
63 1 7.094 8.807 8.807 
73 1 8.807 8.807 7.094 
77 1 8.807 7.094 8.807 
81 2 11.993 12.605 10.892 
ITEM: TIMESTEP
10
ITEM: NUMBER OF ATOMS
81
ITEM: BOX BOUNDS pp pp pp
0.0000000000000000e+00 1.3416000000000000e+01
0.0000000000000000e+00 1.3416000000000000e+01
0.0000000000000000e+00 1.3414999999999999e+01
ITEM: ATOMS id type x y z 
21 1 1.91065 1.91024 1.91097 
22 1 2.79431 2.79445 2.79466 
23 1 0.38472 2.10352 2.10338 
33 1 2.10244 2.10352 0.384932 
37 1 2.10348 0.38403 2.1034 
41 1 4.37251 4.3729 4.37318 
42 1 3.4887 3.48896 3.4892 
43 1 4.17968 5.89865 4.18045 
53 1 4.18049 4.18051 5.89899 
57 1 5.89851 4.18054 4.18054 
4 1 1.91607 1.90966 11.0811 
5 1 2.79514 2.79428 10.1968 
6 1 2.10374 0.37739 10.8877 
16 1 2.10265 2.10331 12.606 
19 1 0.393376 2.10496 10.8873 
64 1 4.37229 4.37314 8.6186 
65 1 3.48886 3.48902 9.50229 
66 1 5.8981 4.1805 8.81151 
76 1 4.18048 4.18052 7.09292 
79 1 4.17948 5.89869 8.81147 
10 1 1.90984 11.0809 1.91157 
11 1 2.79394 10.1969 2.7945 
12 1 2.10325 12.6063 2.10338 
15 1 2.1036 10.8876 0.386135 
18 1 0.385154 10.8876 2.10342 
67 1 4.37298 8.61853 4.37269 
68 1 3.48894 9.50248 3.48884 
69 1 5.89862 8.81145 4.18042 
74 1 4.18033 8.81133 5.89861 
80 1 4.18037 7.09266 4.18056 
30 1 1.90565 11.0826 11.0809 
31 1 2.79441 10.196 10.1959 
32 1 0.397604 10.8891 10.8882 
35 1 2.10308 10.8884 12.6027 
38 1 2.10281 12.6102 10.8885 
47 1 4.37315 8.61832 8.61847 
48 1 3.48867 9.50262 9.50239 
49 1 4.17966 7.09282 8.81142 
54 1 4.17986 8.8115 7.09259 
60 1 5.89854 8.8114 8.81141 
7 1 11.0818 1.90939 1.91652 
8 1 10.1971 2.7942 2.79574 
9 1 10.8887 0.384741 2.10363 
14 1 10.8883 2.10507 0.39025 
20 1 12.6072 2.10331 2.10363 
70 1 8.61835 4.37307 4.37285 
71 1 9.50224 3.48929 3.48892 
72 1 7.09259 4.18058 4.18055 
75 1 8.81151 4.18048 5.89829 
78 1 8.81144 5.89893 4.18053 
27 1 11.0785 1.90251 11.0718 
28 1 10.1893 2.80226 10.1891 
29 1 12.6216 2.1071 10.8847 
34 1 10.8865 2.10797 12.6212 
40 1 10.8497 0.459078 10.9179 
50 1 8.6141 4.37751 8.61414 
51 1 9.49323 3.49846 9.49346 
52 1 8.81144 5.89936 8.81143 
55 1 8.81141 4.18057 7.09201 
58 1 7.09188 4.18056 8.81141 
24 1 11.0809 11.0801 1.90925 
25 1 10.197 10.1966 2.79457 
26 1 12.6075 10.8875 2.10346 
36 1 10.8869 10.8906 0.38579 
39 1 10.8884 12.607 2.10339 
44 1 8.6184 8.61867 4.37308 
45 1 9.5025 9.50262 3.48935 
46 1 8.81147 7.09284 4.18053 
56 1 8.81145 8.81145 5.89897 
59 1 7.09276 8.81149 4.18057 
1 1 11.0942 10.9961 11.1034 
2 1 10.2007 10.1955 10.202 
3 1 10.8432 12.6543 10.838 
13 1 10.8899 10.8837 12.6022 
17 1 12.6159 10.8644 10.8859 
61 1 8.62005 8.62062 8.62014 
62 1 9.49962 9.50099 9.50002 
63 1 7.09238 8.81155 8.81154 
73 1 8.81156 8.81156 7.09269 
77 1 8.81159 7.09283 8.8116 
81 2 12.0418 12.5668 10.8963 
ITEM: TIMESTEP
20
ITEM: NUMBER OF ATOMS
81
ITEM: BOX BOUNDS pp pp pp
0.0000000000000000e+00 1.3416000000000000e+01
0.0000000000000000e+00 1.3416000000000000e+01
0.0000000000000000e+00 1.3414999999999999e+01
ITEM: ATOMS id type x y z 
21 1 1.91085 1.91037 1.91111 
22 1 2.79609 2.79603 2.79649 
23 1 0.38472 2.10526 2.10492 
33 1 2.104 2.10525 0.384982 
37 1 2.10511 0.383391 2.10507 
41 1 4.37232 4.37276 4.3729 
42 1 3.48691 3.48713 3.48739 
43 1 4.17804 5.89887 4.17876 
53 1 4.1788 4.1788 5.89913 
57 1 5.89874 4.17884 4.17887 
4 1 1.91823 1.90957 11.0813 
5 1 2.79757 2.79609 10.195 
6 1 2.1059 0.383247 10.8862 
16 1 2.10472 2.1049 12.6068 
19 1 0.397853 2.10726 10.8854 
64 1 4.37181 4.37314 8.6186 
65 1 3.48763 3.48757 9.5038 
66 1 5.89751 4.1787 8.81331 
76 1 4.17875 4.17883 7.09263 
79 1 4.17777 5.89911 8.81315 
10 1 1.91029 11.0809 1.91076 
11 1 2.79589 10.1953 2.79618 
12 1 2.10468 12.6062 2.10491 
15 1 2.10514 10.8862 0.384858 
18 1 0.383716 10.8862 2.10513 
67 1 4.37276 8.61873 4.37246 
68 1 3.48686 9.50439 3.487 
69 1 5.89888 8.81314 4.17873 
74 1 4.1786 8.813 5.89883 
80 1 4.17865 7.09249 4.17888 
30 1 1.90858 11.0811 11.0801 
31 1 2.79598 10.1944 10.194 
32 1 0.393645 10.8867 10.8865 
35 1 2.10486 10.8865 12.6073 
38 1 2.10454 12.6063 10.8863 
47 1 4.3732 8.61839 8.61847 
48 1 3.48716 9.50378 9.50369 
49 1 4.17801 7.09255 8.81309 
54 1 4.17825 8.81316 7.09238 
60 1 5.89852 8.81303 8.81308 
7 1 11.0821 1.90959 1.91851 
8 1 10.1954 2.79596 2.79799 
9 1 10.8872 0.382686 2.10577 
14 1 10.8865 2.10747 0.393879 
20 1 12.6075 2.10484 2.10563 
70 1 8.61837 4.37311 4.37223 
71 1 9.5038 3.48761 3.4876 
72 1 7.09222 4.17891 4.17883 
75 1 8.8133 4.17866 5.89767 
78 1 8.8131 5.89919 4.17881 
27 1 11.0775 1.91115 11.0767 
28 1 10.183 2.80857 10.183 
29 1 12.6236 2.1095 10.8816 
34 1 10.8839 2.11117 12.6231 
40 1 10.8525 0.466593 10.9187 
50 1 8.6128 4.37887 8.613 
51 1 9.4941 3.49749 9.49412 
52 1 8.81312 5.90051 8.81313 
55 1 8.81311 4.17887 7.09068 
58 1 7.09048 4.17886 8.81311 
24 1 11.0819 11.0808 1.90631 
25 1 10.1952 10.1948 2.79595 
26 1 12.6067 10.8864 2.10464 
36 1 10.8848 10.8915 0.387784 
39 1 10.8872 12.6057 2.10447 
44 1 8.61865 8.61898 4.37305 
45 1 9.50462 9.50459 3.48704 
46 1 8.81314 7.09268 4.17886 
56 1 8.81311 8.8131 5.89879 
59 1 7.09252 8.81317 4.17889 
1 1 11.103 10.9857 11.1045 
2 1 10.1995 10.1897 10.2014 
3 1 10.8399 12.6427 10.8257 
13 1 10.89 10.8791 12.6041 
17 1 12.6111 10.8573 10.8857 
61 1 8.62084 8.62202 8.62092 
62 1 9.50231 9.50463 9.50285 
63 1 7.09212 8.81341 8.81335 
73 1 8.81337 8.81342 7.09244 
77 1 8.81352 7.09362 8.81353 
81 2 12.0326 12.5684 10.8965 
ITEM: TIMESTEP
30
ITEM: NUMBER OF ATOMS
81
ITEM: BOX BOUNDS pp pp pp
0.0000000000000000e+00 1.3416000000000000e+01
0.0000000000000000e+00 1.3416000000000000e+01
0.0000000000000000e+00 1.3414999999999999e+01
ITEM: ATOMS id type x y z 
21 1 1.9109 1.91028 1.91122 
22 1 2.796 2.79583 2.7964 
23 1 0.385 2.10657 2.1061 
33 1 2.10519 2.10658 0.38538 
37 1 2.10632 0.383806 2.10631 
41 1 4.37228 4.37282 4.3728 
42 1 3.48706 3.48719 3.48756 
43 1 4.17681 5.89881 4.17749 
53 1 4.17753 4.17751 5.89899 
57 1 5.89862 4.17757 4.17761 
4 1 1.92008 1.90928 11.0816 
5 1 2.7981 2.79608 10.195 
6 1 2.10752 0.383548 10.885 
16 1 2.10636 2.10614 12.6073 
19 1 0.399341 2.1088 10.8836 
64 1 4.37153 4.37334 8.6184 
65 1 3.48816 3.48794 9.50344 
66 1 5.89669 4.17732 8.81469 
76 1 4.17743 4.17757 7.09255 
79 1 4.17646 5.89913 8.81441 
10 1 1.91024 11.0807 1.911 
11 1 2.79581 10.1954 2.79612 
12 1 2.10596 12.6063 2.10618 
15 1 2.10644 10.8849 0.385153 
18 1 0.384594 10.885 2.10646 
67 1 4.37269 8.61874 4.37246 
68 1 3.48711 9.50423 3.48716 
69 1 5.89884 8.81439 4.17746 
74 1 4.17731 8.81426 5.89873 
80 1 4.17735 7.09258 4.17761 
30 1 1.90913 11.0806 11.0799 
31 1 2.79606 10.1945 10.1939 
32 1 0.393208 10.8849 10.8852 
35 1 2.10622 10.8851 12.6075 
38 1 2.10582 12.6066 10.8847 
47 1 4.37318 8.61833 8.61841 
48 1 3.48736 9.50346 9.50327 
49 1 4.17677 7.09264 8.81436 
54 1 4.17704 8.8144 7.0924 
60 1 5.89845 8.81426 8.81434 
7 1 11.0823 1.90909 1.92026 
8 1 10.1955 2.79592 2.79845 
9 1 10.886 0.383225 2.1074 
14 1 10.8849 2.10923 0.397423 
20 1 12.6078 2.10605 2.10723 
70 1 8.61821 4.37328 4.37184 
71 1 9.50352 3.48788 3.48807 
72 1 7.09217 4.17765 4.17752 
75 1 8.81467 4.17728 5.89685 
78 1 8.81435 5.89927 4.1775 
27 1 11.0783 1.91729 11.0796 
28 1 10.1813 2.81048 10.1814 
29 1 12.6258 2.11168 10.8797 
34 1 10.882 2.11411 12.6251 
40 1 10.8526 0.465621 10.9175 
50 1 8.6113 4.38027 8.61146 
51 1 9.49167 3.5 9.49174 
52 1 8.81435 5.90139 8.81437 
55 1 8.81436 4.17761 7.08986 
58 1 7.08966 4.17761 8.81436 
24 1 11.0813 11.08 1.90697 
25 1 10.1952 10.1948 2.79566 
26 1 12.607 10.8849 2.1059 
36 1 10.8827 10.8915 0.387701 
39 1 10.8857 12.6061 2.10571 
44 1 8.61864 8.619 4.37316 
45 1 9.50427 9.50423 3.48721 
46 1 8.81441 7.09282 4.17762 
56 1 8.81436 8.81433 5.89862 
59 1 7.09259 8.81442 4.17764 
1 1 11.1074 10.9795 11.1066 
2 1 10.2001 10.1867 10.2021 
3 1 10.8357 12.6443 10.817 
13 1 10.8898 10.8757 12.6045 
17 1 12.6121 10.8524 10.8848 
61 1 8.62092 8.62268 8.62094 
62 1 9.50132 9.50441 9.50213 
63 1 7.09211 8.81482 8.81469 
73 1 8.81472 8.81483 7.09234 
77 1 8.815 7.09447 8.81501 
81 2 12.0281 12.5648 10.8968 
ITEM: TIMESTEP
40
ITEM: NUMBER OF ATOMS
81
ITEM: BOX BOUNDS pp pp pp
0.0000000000000000e+00 1.3416000000000000e+01
0.0000000000000000e+00 1.3416000000000000e+01
0.0000000000000000e+00 1.3414999999999999e+01
ITEM: ATOMS id type x y z 
21 1 1.91099 1.91024 1.91139 
22 1 2.79606 2.79575 2.79642 
23 1 0.385198 2.10766 2.10709 
33 1 2.10619 2.10768 0.385731 
37 1 2.10734 0.383858 2.10735 
41 1 4.37222 4.37281 4.37271 
42 1 3.48708 3.48723 3.48758 
43 1 4.17579 5.89878 4.17644 
53 1 4.17647 4.17644 5.89885 
57 1 5.8985 4.1765 4.17657 
4 1 1.92133 1.90921 11.0819 
5 1 2.79867 2.79613 10.195 
6 1 2.10891 0.383273 10.884 
16 1 2.10777 2.10717 12.6076 
19 1 0.400588 2.10995 10.882 
64 1 4.37123 4.37351 8.61823 
65 1 3.4885 3.48816 9.50323 
66 1 5.89598 4.17615 8.81586 
76 1 4.17632 4.17652 7.09244 
79 1 4.17535 5.89918 8.81546 
10 1 1.91037 11.0806 1.9112 
11 1 2.79575 10.1954 2.79621 
12 1 2.10702 12.6064 2.10723 
15 1 2.10752 10.8839 0.385113 
18 1 0.38466 10.884 2.10755 
67 1 4.37269 8.61882 4.37239 
68 1 3.48714 9.50413 3.48723 
69 1 5.8988 8.81543 4.1764 
74 1 4.17624 8.81531 5.89865 
80 1 4.17628 7.09263 4.17656 
30 1 1.90923 11.0805 11.0799 
31 1 2.7961 10.1943 10.1939 
32 1 0.394707 10.8834 10.8843 
35 1 2.1073 10.8841 12.6075 
38 1 2.10684 12.6067 10.8836 
47 1 4.37308 8.61835 8.61831 
48 1 3.48753 9.50342 9.50313 
49 1 4.17573 7.09272 8.81542 
54 1 4.17603 8.81543 7.09242 
60 1 5.89835 8.81527 8.81539 
7 1 11.0826 1.90883 1.92181 
8 1 10.1955 2.79591 2.79893 
9 1 10.885 0.383079 2.1088 
14 1 10.8836 2.11068 0.398456 
20 1 12.608 2.10705 2.10859 
70 1 8.61806 4.37343 4.37148 
71 1 9.50338 3.48804 3.48836 
72 1 7.0921 4.17661 4.17642 
75 1 8.81583 4.17611 5.89612 
78 1 8.81538 5.89935 4.17638 
27 1 11.0784 1.92086 11.0829 
28 1 10.1802 2.81191 10.1805 
29 1 12.6266 2.11342 10.8785 
34 1 10.8807 2.11652 12.6262 
40 1 10.853 0.46584 10.9159 
50 1 8.61011 4.38129 8.61017 
51 1 9.49052 3.50128 9.49069 
52 1 8.81536 5.90212 8.81538 
55 1 8.81537 4.17658 7.08916 
58 1 7.08897 4.17658 8.81538 
24 1 11.081 11.0797 1.90712 
25 1 10.195 10.1946 2.79552 
26 1 12.6074 10.8837 2.10691 
36 1 10.8811 10.8914 0.388014 
39 1 10.8845 12.6063 2.10672 
44 1 8.61866 8.61908 4.37316 
45 1 9.50411 9.50406 3.48721 
46 1 8.81547 7.09293 4.17659 
56 1 8.81542 8.81537 5.89847 
59 1 7.09264 8.81546 4.1766 
1 1 11.1096 10.9755 11.1078 
2 1 10.2009 10.1844 10.2031 
3 1 10.8328 12.6461 10.8106 
13 1 10.8895 10.873 12.605 
17 1 12.6122 10.8483 10.884 
61 1 8.62084 8.62319 8.62082 
62 1 9.50082 9.50447 9.50184 
63 1 7.09206 8.81602 8.81581 
73 1 8.81585 8.81603 7.09224 
77 1 8.81626 7.09522 8.81627 
81 2 12.0242 12.5616 10.897 
ITEM: TIMESTEP
50
ITEM: NUMBER OF ATOMS
81
ITEM: BOX BOUNDS pp pp pp
0.0000000000000000e+00 1.3416000000000000e+01
0.0000000000000000e+00 1.3416000000000000e+01
0.0000000000000000e+00 1.3414999999999999e+01
ITEM: ATOMS id type x y z 
21 1 1.9126 1.91009 1.91479 
22 1 2.79851 2.79458 2.79523 
23 1 0.388507 2.12441 2.12256 
33 1 2.12192 2.12451 0.388966 
37 1 2.12308 0.384134 2.12337 
41 1 4.37197 4.37207 4.37075 
42 1 3.48541 3.48854 3.4898 
43 1 4.16004 5.90131 4.16033 
53 1 4.16028 4.15999 5.89747 
57 1 5.8976 4.16016 4.16054 
4 1 1.9365 1.90728 11.0854 
5 1 2.80709 2.79598 10.1956 
6 1 2.1301 0.380701 10.8686 
16 1 2.1292 2.12285 12.6127 
19 1 0.406894 2.12654 10.8582 
64 1 4.36594 4.3761 8.61525 
65 1 3.49278 3.49106 9.5004 
66 1 5.88538 4.15812 8.83401 
76 1 4.15909 4.16053 7.08909 
79 1 4.15825 5.90073 8.83153 
10 1 1.91411 11.0801 1.91324 
11 1 2.79373 10.1967 2.79821 
12 1 2.12287 12.606 2.12307 
15 1 2.12376 10.8681 0.378506 
18 1 0.377072 10.8681 2.12432 
67 1 4.37177 8.61908 4.37288 
68 1 3.48987 9.50287 3.48577 
69 1 5.89997 8.8312 4.16036 
74 1 4.16012 8.83129 5.89896 
80 1 4.16012 7.09167 4.16057 
30 1 1.91246 11.0763 11.082 
31 1 2.79487 10.1921 10.191 
32 1 0.406661 10.8574 10.8691 
35 1 2.12435 10.8679 12.6161 
38 1 2.12296 12.6131 10.865 
47 1 4.37089 8.6185 8.61668 
48 1 3.49252 9.50284 9.50267 
49 1 4.15974 7.09386 8.83172 
54 1 4.16036 8.83122 7.08931 
60 1 5.89894 8.83094 8.83163 
7 1 11.0859 1.90543 1.9418 
8 1 10.1961 2.79527 2.80673 
9 1 10.87 0.38202 2.13044 
14 1 10.8631 2.13274 0.414147 
20 1 12.6115 2.1224 2.12986 
70 1 8.61553 4.376 4.36524 
71 1 9.50092 3.49051 3.49266 
72 1 7.08919 4.16074 4.15927 
75 1 8.83386 4.15805 5.88498 
78 1 8.83113 5.9013 4.15909 
27 1 11.0801 1.95239 11.1177 
28 1 10.169 2.82978 10.1747 
29 1 12.6368 2.13965 10.8632 
34 1 10.8613 2.15307 12.6459 
40 1 10.8674 0.478348 10.8876 
50 1 8.59345 4.39644 8.59305 
51 1 9.47973 3.51369 9.47915 
52 1 8.83013 5.91343 8.83016 
55 1 8.83037 4.1613 7.07921 
58 1 7.07948 4.16134 8.83036 
24 1 11.0858 11.0737 1.90384 
25 1 10.1941 10.192 2.79303 
26 1 12.6088 10.8682 2.1215 
36 1 10.8597 10.8883 0.39479 
39 1 10.8672 12.6061 2.12134 
44 1 8.61912 8.62066 4.37247 
45 1 9.50249 9.50245 3.48612 
46 1 8.83178 7.09437 4.16077 
56 1 8.83182 8.8313 5.89851 
59 1 7.09005 8.8315 4.16064 
1 1 11.1389 10.9215 11.1182 
2 1 10.2187 10.1522 10.222 
3 1 10.7951 12.6791 10.7227 
13 1 10.886 10.8355 12.6135 
17 1 12.6156 10.7903 10.8729 
61 1 8.61864 8.63193 8.61809 
62 1 9.49713 9.50802 9.50179 
63 1 7.08964 8.83446 8.83283 
73 1 8.83292 8.8345 7.08938 
77 1 8.83561 7.10551 8.83559 
81 2 11.9585 12.5147 10.8982 
ITEM: TIMESTEP
60
ITEM: NUMBER OF ATOMS
81
ITEM: BOX BOUNDS pp pp pp
0.0000000000000000e+00 1.3416000000000000e+01
0.0000000000000000e+00 1.3416000000000000e+01
0.0000000000000000e+00 1.3414999999999999e+01
ITEM: ATOMS id type x y z 
21 1 1.91305 1.9098 1.91542 
22 1 2.79855 2.79452 2.79546 
23 1 0.389364 2.12809 2.12617 
33 1 2.12563 2.12813 0.389936 
37 1 2.12656 0.382181 2.12694 
41 1 4.37177 4.37253 4.37074 
42 1 3.48575 3.4888 3.49003 
43 1 4.15666 5.90057 4.15682 
53 1 4.15681 4.15637 5.89576 
57 1 5.89604 4.15655 4.15703 
4 1 1.93781 1.90828 11.0861 
5 1 2.8086 2.79529 10.1965 
6 1 2.13491 0.382896 10.865 
16 1 2.13388 2.12627 12.6123 
19 1 0.407993 2.12995 10.8533 
64 1 4.3646 4.37661 8.6146 
65 1 3.49312 3.49116 9.50029 
66 1 5.88393 4.15402 8.83815 
76 1 4.15503 4.15696 7.08833 
79 1 4.15427 5.90202 8.83515 
10 1 1.91283 11.0807 1.91423 
11 1 2.79385 10.1967 2.79826 
12 1 2.1262 12.606 2.12626 
15 1 2.12734 10.8649 0.385613 
18 1 0.382689 10.8651 2.12768 
67 1 4.37182 8.61912 4.37228 
68 1 3.48961 9.50318 3.48557 
69 1 5.89848 8.83464 4.15694 
74 1 4.15659 8.83483 5.89807 
80 1 4.15658 7.09249 4.15713 
30 1 1.91113 11.0776 11.0812 
31 1 2.79496 10.192 10.1911 
32 1 0.403268 10.8499 10.8668 
35 1 2.128 10.8645 12.6097 
38 1 2.12639 12.6081 10.8616 
47 1 4.37126 8.61824 8.61589 
48 1 3.49269 9.50286 9.50246 
49 1 4.15626 7.09464 8.83521 
54 1 4.15693 8.83458 7.09019 
60 1 5.89758 8.83426 8.83513 
7 1 11.0867 1.90541 1.94493 
8 1 10.1966 2.79474 2.80895 
9 1 10.8665 0.379711 2.13552 
14 1 10.8589 2.13795 0.42146 
20 1 12.6123 2.12585 2.13481 
70 1 8.61496 4.37654 4.36393 
71 1 9.50045 3.49103 3.49293 
72 1 7.08873 4.15719 4.15524 
75 1 8.83798 4.15395 5.88346 
78 1 8.83466 5.90297 4.15505 
27 1 11.0814 1.95948 11.1197 
28 1 10.1696 2.83163 10.1769 
29 1 12.6336 2.14506 10.8615 
34 1 10.857 2.16072 12.6448 
40 1 10.869 0.485117 10.8789 
50 1 8.59082 4.39861 8.59015 
51 1 9.47963 3.51395 9.47916 
52 1 8.83307 5.91654 8.8331 
55 1 8.83332 4.15829 7.07707 
58 1 7.07758 4.15834 8.8333 
24 1 11.0838 11.0755 1.90345 
25 1 10.194 10.1914 2.79249 
26 1 12.6068 10.8644 2.1248 
36 1 10.8562 10.8855 0.39429 
39 1 10.8638 12.6052 2.12462 
44 1 8.61879 8.62037 4.37231 
45 1 9.50221 9.50204 3.48594 
46 1 8.83529 7.09514 4.15738 
56 1 8.83545 8.83481 5.89776 
59 1 7.09118 8.83499 4.15718 
1 1 11.1426 10.9131 11.1202 
2 1 10.2241 10.1451 10.2265 
3 1 10.7905 12.6859 10.7073 
13 1 10.8854 10.829 12.6124 
17 1 12.6229 10.78 10.8708 
61 1 8.61869 8.63377 8.61768 
62 1 9.49787 9.50954 9.50395 
63 1 7.08982 8.83868 8.83645 
73 1 8.83653 8.83873 7.08943 
77 1 8.83977 7.10818 8.83976 
81 2 11.9438 12.4993 10.8981 
ITEM: TIMESTEP
64
ITEM: NUMBER OF ATOMS
81
ITEM: BOX BOUNDS pp pp pp
0.0000000000000000e+00 1.3416000000000000e+01
0.0000000000000000e+00 1.3416000000000000e+01
0.0000000000000000e+00 1.3414999999999999e+01
ITEM: ATOMS id type x y z 
21 1 1.91304 1.90983 1.91537 
22 1 2.79852 2.79453 2.79549 
23 1 0.389393 2.12809 2.1262 
33 1 2.12566 2.12813 0.390011 
37 1 2.12658 0.382244 2.12696 
41 1 4.37172 4.37253 4.37073 
42 1 3.48579 3.48879 3.49 
43 1 4.15664 5.90045 4.1568 
53 1 4.15679 4.15635 5.89559 
57 1 5.89587 4.15653 4.15701 
4 1 1.93771 1.90833 11.0861 
5 1 2.80858 2.79526 10.1966 
6 1 2.13493 0.382857 10.865 
16 1 2.1339 2.12629 12.6123 
19 1 0.407845 2.12996 10.8533 
64 1 4.36458 4.3766 8.61459 
65 1 3.49309 3.49113 9.50032 
66 1 5.88389 4.154 8.83817 
76 1 4.155 4.15695 7.08847 
79 1 4.15424 5.90187 8.83516 
10 1 1.9127 11.0808 1.91422 
11 1 2.79388 10.1967 2.79823 
12 1 2.1262 12.6058 2.12626 
15 1 2.12735 10.8649 0.385573 
18 1 0.382788 10.8651 2.12768 
67 1 4.37188 8.61912 4.37225 
68 1 3.48959 9.50319 3.4856 
69 1 5.89856 8.83464 4.15694 
74 1 4.15658 8.83483 5.89784 
80 1 4.15657 7.09268 4.15712 
30 1 1.91099 11.0777 11.0812 
31 1 2.79501 10.192 10.1912 
32 1 0.403321 10.8498 10.8668 
35 1 2.128 10.8645 12.6097 
38 1 2.1264 12.6079 10.8616 
47 1 4.37127 8.61828 8.61591 
48 1 3.49261 9.50288 9.50246 
49 1 4.15624 7.09482 8.83523 
54 1 4.15691 8.8346 7.09035 
60 1 5.89764 8.83428 8.83515 
7 1 11.0866 1.90546 1.94485 
8 1 10.1966 2.79472 2.80897 
9 1 10.8664 0.379621 2.13556 
14 1 10.8589 2.13801 0.421231 
20 1 12.6123 2.12587 2.13485 
70 1 8.61495 4.37654 4.36391 
71 1 9.50045 3.49103 3.49292 
72 1 7.08887 4.15717 4.15521 
75 1 8.838 4.15393 5.88341 
78 1 8.83468 5.90289 4.15502 
27 1 11.0815 1.95956 11.1195 
28 1 10.1698 2.83155 10.1771 
29 1 12.6333 2.14504 10.8616 
34 1 10.857 2.16071 12.6448 
40 1 10.869 0.48501 10.8787 
50 1 8.59091 4.39853 8.59024 
51 1 9.47977 3.5138 9.47932 
52 1 8.83305 5.91654 8.83308 
55 1 8.8333 4.1583 7.07718 
58 1 7.07768 4.15835 8.83328 
24 1 11.0836 11.0757 1.90346 
25 1 10.194 10.1914 2.7925 
26 1 12.6069 10.8643 2.12481 
36 1 10.8563 10.8853 0.39415 
39 1 10.8639 12.6051 2.12464 
44 1 8.61874 8.62035 4.37228 
45 1 9.50222 9.50203 3.48593 
46 1 8.8353 7.09532 4.15737 
56 1 8.83546 8.83483 5.89742 
59 1 7.09106 8.835 4.15718 
1 1 11.1423 10.9134 11.1202 
2 1 10.2242 10.1451 10.2266 
3 1 10.7908 12.686 10.7075 
13 1 10.8854 10.8291 12.6121 
17 1 12.6229 10.78 10.8708 
61 1 8.61865 8.63378 8.61777 
62 1 9.49794 9.50955 9.50407 
63 1 7.08984 8.8387 8.83644 
73 1 8.83654 8.83875 7.08975 
77 1 8.83978 7.10826 8.83976 
81 2 11.9436 12.4991 10.8981 
ITEM: TIMESTEP
65
ITEM: NUMBER OF ATOMS
81
ITEM: BOX BOUNDS pp pp pp
0.0000000000000000e+00 1.3416000000000000e+01
0.0000000000000000e+00 1.3416000000000000e+01
0.0000000000000000e+00 1.3414999999999999e+01
ITEM: ATOMS id type x y z 
21 1 1.91304 1.90983 1.91537 
22 1 2.79852 2.79453 2.79549 
23 1 0.389393 2.12809 2.1262 
33 1 2.12566 2.12813 0.390011 
37 1 2.12658 0.382244 2.12696 
41 1 4.37172 4.37253 4.37073 
42 1 3.48579 3.48879 3.49 
43 1 4.15664 5.90045 4.1568 
53 1 4.15679 4.15635 5.89559 
57 1 5.89587 4.15653 4.15701 
4 1 1.93771 1.90833 11.0861 
5 1 2.80858 2.79526 10.1966 
6 1 2.13493 0.382857 10.865 
16 1 2.1339 2.12629 12.6123 
19 1 0.407845 2.12996 10.8533 
64 1 4.36458 4.3766 8.61459 
65 1 3.49309 3.49113 9.50032 
66 1 5.88389 4.154 8.83817 
76 1 4.155 4.15695 7.08847 
79 1 4.15424 5.90187 8.83516 
10 1 1.9127 11.0808 1.91422 
11 1 2.79388 10.1967 2.79823 
12 1 2.1262 12.6058 2.12626 
15 1 2.12735 10.8649 0.385573 
18 1 0.382788 10.8651 2.12768 
67 1 4.37188 8.61912 4.37225 
68 1 3.48959 9.50319 3.4856 
69 1 5.89856 8.83464 4.15694 
74 1 4.15658 8.83483 5.89784 
80 1 4.15657 7.09268 4.15712 
30 1 1.91099 11.0777 11.0812 
31 1 2.79501 10.192 10.1912 
32 1 0.403321 10.8498 10.8668 
35 1 2.128 10.8645 12.6097 
38 1 2.1264 12.6079 10.8616 
47 1 4.37127 8.61828 8.61591 
48 1 3.49261 9.50288 9.50246 
49 1 4.15624 7.09482 8.83523 
54 1 4.15691 8.8346 7.09035 
60 1 5.89764 8.83428 8.83515 
7 1 11.0866 1.90546 1.94485 
8 1 10.1966 2.79472 2.80897 
9 1 10.8664 0.379621 2.13556 
14 1 10.8589 2.13801 0.421231 
20 1 12.6123 2.12587 2.13485 
70 1 8.61495 4.37654 4.36391 
71 1 9.50045 3.49103 3.49292 
72 1 7.08887 4.15717 4.15521 
75 1 8.838 4.15393 5.88341 
78 1 8.83468 5.90289 4.15502 
27 1 11.0815 1.95956 11.1195 
28 1 10.1698 2.83155 10.1771 
29 1 12.6333 2.14504 10.8616 
34 1 10.857 2.16071 12.6448 
40 1 10.869 0.48501 10.8787 
50 1 8.59091 4.39853 8.59024 
51 1 9.47977 3.5138 9.47932 
52 1 8.83305 5.91654 8.83308 
55 1 8.8333 4.1583 7.07718 
58 1 7.07768 4.15835 8.83328 
24 1 11.0836 11.0757 1.90346 
25 1 10.194 10.1914 2.7925 
26 1 12.6069 10.8643 2.12481 
36 1 10.8563 10.8853 0.39415 
39 1 10.8639 12.6051 2.12464 
44 1 8.61874 8.62035 4.37228 
45 1 9.50222 9.50203 3.48593 
46 1 8.8353 7.09532 4.15737 
56 1 8.83546 8.83483 5.89742 
59 1 7.09106 8.835 4.15718 
1 1 11.1423 10.9134 11.1202 
2 1 10.2242 10.1451 10.2266 
3 1 10.7908 12.686 10.7075 
13 1 10.8854 10.8291 12.6121 
17 1 12.6229 10.78 10.8708 
61 1 8.61865 8.63378 8.61777 
62 1 9.49794 9.50955 9.50407 
63 1 7.08984 8.8387 8.83644 
73 1 8.83654 8.83875 7.08975 
77 1 8.83978 7.10826 8.83976 
81 2 11.9436 12.4991 10.8981 
ITEM: TIMESTEP
68
ITEM: NUMBER OF ATOMS
81
ITEM: BOX BOUNDS pp pp pp
8.5160156249999997e-06 1.3415991483984374e+01
1.3065195592586390e-06 1.3415998693480441e+01
2.9050055219123245e-06 1.3414997094994476e+01
ITEM: ATOMS id type x y z 
21 1 1.91305 1.90983 1.91537 
22 1 2.79853 2.79453 2.79549 
23 1 0.389401 2.12809 2.12621 
33 1 2.12566 2.12813 0.390014 
37 1 2.12659 0.382245 2.12696 
41 1 4.37173 4.37253 4.37073 
42 1 3.4858 3.48879 3.49001 
43 1 4.15664 5.90045 4.1568 
53 1 4.1568 4.15635 5.89559 
57 1 5.89587 4.15653 4.15701 
4 1 1.93771 1.90833 11.0861 
5 1 2.80859 2.79526 10.1966 
6 1 2.13494 0.382858 10.865 
16 1 2.1339 2.12629 12.6123 
19 1 0.407853 2.12996 10.8533 
64 1 4.36458 4.3766 8.61459 
65 1 3.4931 3.49113 9.50032 
66 1 5.88389 4.154 8.83817 
76 1 4.15501 4.15695 7.08847 
79 1 4.15424 5.90187 8.83516 
10 1 1.9127 11.0808 1.91422 
11 1 2.79389 10.1967 2.79823 
12 1 2.12621 12.6058 2.12626 
15 1 2.12735 10.8649 0.385576 
18 1 0.382796 10.8651 2.12768 
67 1 4.37188 8.61912 4.37225 
68 1 3.48959 9.50319 3.48561 
69 1 5.89856 8.83464 4.15694 
74 1 4.15659 8.83483 5.89784 
80 1 4.15657 7.09268 4.15713 
30 1 1.911 11.0777 11.0812 
31 1 2.79501 10.192 10.1912 
32 1 0.403329 10.8498 10.8668 
35 1 2.12801 10.8645 12.6097 
38 1 2.1264 12.6079 10.8616 
47 1 4.37128 8.61828 8.61591 
48 1 3.49262 9.50288 9.50246 
49 1 4.15624 7.09482 8.83523 
54 1 4.15691 8.8346 7.09035 
60 1 5.89764 8.83428 8.83515 
7 1 11.0866 1.90547 1.94486 
8 1 10.1966 2.79472 2.80897 
9 1 10.8664 0.379622 2.13556 
14 1 10.8589 2.13801 0.421233 
20 1 12.6123 2.12587 2.13485 
70 1 8.61495 4.37654 4.36391 
71 1 9.50045 3.49103 3.49292 
72 1 7.08887 4.15717 4.15521 
75 1 8.838 4.15393 5.88341 
78 1 8.83467 5.90289 4.15502 
27 1 11.0815 1.95956 11.1195 
28 1 10.1698 2.83155 10.1771 
29 1 12.6333 2.14505 10.8616 
34 1 10.857 2.16071 12.6448 
40 1 10.869 0.485012 10.8787 
50 1 8.59091 4.39853 8.59023 
51 1 9.47977 3.5138 9.47932 
52 1 8.83305 5.91654 8.83308 
55 1 8.8333 4.1583 7.07718 
58 1 7.07768 4.15835 8.83328 
24 1 11.0836 11.0757 1.90347 
25 1 10.194 10.1914 2.7925 
26 1 12.6069 10.8643 2.12481 
36 1 10.8563 10.8853 0.394153 
39 1 10.8639 12.6051 2.12464 
44 1 8.61873 8.62035 4.37228 
45 1 9.50221 9.50203 3.48593 
46 1 8.8353 7.09532 4.15737 
56 1 8.83546 8.83483 5.89742 
59 1 7.09106 8.835 4.15718 
1 1 11.1423 10.9134 11.1202 
2 1 10.2242 10.1451 10.2266 
3 1 10.7908 12.686 10.7075 
13 1 10.8854 10.8291 12.6121 
17 1 12.6229 10.78 10.8708 
61 1 8.61865 8.63378 8.61777 
62 1 9.49794 9.50955 9.50407 
63 1 7.08984 8.8387 8.83644 
73 1 8.83653 8.83875 7.08975 
77 1 8.83977 7.10826 8.83976 
81 2 11.9436 12.4991 10.8981 
ITEM: TIMESTEP
69
ITEM: NUMBER OF ATOMS
81
ITEM: BOX BOUNDS pp pp pp
8.5160156249999997e-06 1.3415991483984374e+01
1.3065195592586390e-06 1.3415998693480441e+01
2.9050055219123245e-06 1.3414997094994476e+01
ITEM: ATOMS id type x y z 
21 1 1.91305 1.90983 1.91537 
22 1 2.79853 2.79453 2.79549 
23 1 0.389401 2.12809 2.12621 
33 1 2.12566 2.12813 0.390014 
37 1 2.12659 0.382245 2.12696 
41 1 4.37173 4.37253 4.37073 
42 1 3.4858 3.48879 3.49001 
43 1 4.15664 5.90045 4.1568 
53 1 4.1568 4.15635 5.89559 
57 1 5.89587 4.15653 4.15701 
4 1 1.93771 1.90833 11.0861 
5 1 2.80859 2.79526 10.1966 
6 1 2.13494 0.382858 10.865 
16 1 2.1339 2.12629 12.6123 
19 1 0.407853 2.12996 10.8533 
64 1 4.36458 4.3766 8.61459 
65 1 3.4931 3.49113 9.50032 
66 1 5.88389 4.154 8.83817 
76 1 4.15501 4.15695 7.08847 
79 1 4.15424 5.90187 8.83516 
10 1 1.9127 11.0808 1.91422 
11 1 2.79389 10.1967 2.79823 
12 1 2.12621 12.6058 2.12626 
15 1 2.12735 10.8649 0.385576 
18 1 0.382796 10.8651 2.12768 
67 1 4.37188 8.61912 4.37225 
68 1 3.48959 9.50319 3.48561 
69 1 5.89856 8.83464 4.15694 
74 1 4.15659 8.83483 5.89784 
80 1 4.15657 7.09268 4.15713 
30 1 1.911 11.0777 11.0812 
31 1 2.79501 10.192 10.1912 
32 1 0.403329 10.8498 10.8668 
35 1 2.12801 10.8645 12.6097 
38 1 2.1264 12.6079 10.8616 
47 1 4.37128 8.61828 8.61591 
48 1 3.49262 9.50288 9.50246 
49 1 4.15624 7.09482 8.83523 
54 1 4.15691 8.8346 7.09035 
60 1 5.89764 8.83428 8.83515 
7 1 11.0866 1.90547 1.94486 
8 1 10.1966 2.79472 2.80897 
9 1 10.8664 0.379622 2.13556 
14 1 10.8589 2.13801 0.421233 
20 1 12.6123 2.12587 2.13485 
70 1 8.61495 4.37654 4.36391 
71 1 9.50045 3.49103 3.49292 
72 1 7.08887 4.15717 4.15521 
75 1 8.838 4.15393 5.88341 
78 1 8.83467 5.90289 4.15502 
27 1 11.0815 1.95956 11.1195 
28 1 10.1698 2.83155 10.1771 
29 1 12.6333 2.14505 10.8616 
34 1 10.857 2.16071 12.6448 
40 1 10.869 0.485012 10.8787 
50 1 8.59091 4.39853 8.59023 
51 1 9.47977 3.5138 9.47932 
52 1 8.83305 5.91654 8.83308 
55 1 8.8333 4.1583 7.07718 
58 1 7.07768 4.15835 8.83328 
24 1 11.0836 11.0757 1.90347 
25 1 10.194 10.1914 2.7925 
26 1 12.6069 10.8643 2.12481 
36 1 10.8563 10.8853 0.394153 
39 1 10.8639 12.6051 2.12464 
44 1 8.61873 8.62035 4.37228 
45 1 9.50221 9.50203 3.48593 
46 1 8.8353 7.09532 4.15737 
56 1 8.83546 8.83483 5.89742 
59 1 7.09106 8.835 4.15718 
1 1 11.1423 10.9134 11.1202 
2 1 10.2242 10.1451 10.2266 
3 1 10.7908 12.686 10.7075 
13 1 10.8854 10.8291 12.6121 
17 1 12.6229 10.78 10.8708 
61 1 8.61865 8.63378 8.61777 
62 1 9.49794 9.50955 9.50407 
63 1 7.08984 8.8387 8.83644 
73 1 8.83653 8.83875 7.08975 
77 1 8.83977 7.10826 8.83976 
81 2 11.9436 12.4991 10.8981 
ITEM: TIMESTEP
70
ITEM: NUMBER OF ATOMS
81
ITEM: BOX BOUNDS pp pp pp
9.1710929183578486e-06 1.3415990828907081e+01
1.4041706502129340e-06 1.3415998595829350e+01
3.1264477951986725e-06 1.3414996873552203e+01
ITEM: ATOMS id type x y z 
21 1 1.91305 1.90983 1.91537 
22 1 2.79853 2.79453 2.79549 
23 1 0.389402 2.12809 2.12621 
33 1 2.12566 2.12813 0.390014 
37 1 2.12659 0.382245 2.12696 
41 1 4.37173 4.37253 4.37073 
42 1 3.4858 3.48879 3.49001 
43 1 4.15664 5.90045 4.1568 
53 1 4.1568 4.15635 5.89559 
57 1 5.89587 4.15653 4.15701 
4 1 1.93771 1.90833 11.0861 
5 1 2.80859 2.79526 10.1966 
6 1 2.13494 0.382858 10.865 
16 1 2.1339 2.12629 12.6123 
19 1 0.407853 2.12996 10.8533 
64 1 4.36458 4.3766 8.61459 
65 1 3.4931 3.49113 9.50032 
66 1 5.88389 4.154 8.83817 
76 1 4.15501 4.15695 7.08847 
79 1 4.15424 5.90187 8.83516 
10 1 1.9127 11.0808 1.91422 
11 1 2.79389 10.1967 2.79823 
12 1 2.12621 12.6058 2.12626 
15 1 2.12735 10.8649 0.385576 
18 1 0.382797 10.8651 2.12768 
67 1 4.37188 8.61912 4.37225 
68 1 3.48959 9.50319 3.48561 
69 1 5.89856 8.83464 4.15694 
74 1 4.15659 8.83483 5.89784 
80 1 4.15657 7.09268 4.15713 
30 1 1.911 11.0777 11.0812 
31 1 2.79501 10.192 10.1912 
32 1 0.403329 10.8498 10.8668 
35 1 2.12801 10.8645 12.6097 
38 1 2.1264 12.6079 10.8616 
47 1 4.37128 8.61828 8.61591 
48 1 3.49262 9.50288 9.50246 
49 1 4.15624 7.09482 8.83523 
54 1 4.15691 8.8346 7.09035 
60 1 5.89764 8.83428 8.83515 