ITEM: TIMESTEP
0
ITEM: NUMBER OF ATOMS
161
ITEM: BOX BOUNDS xy xz yz pp pp pp
-6.7755000000000001e+00 1.3552000000000000e+01 -6.7755000000000001e+00
0.0000000000000000e+00 1.1735510246683001e+01 0.0000000000000000e+00
0.0000000000000000e+00 2.2149999999999999e+01 0.0000000000000000e+00
ITEM: ATOMS id type x y z 
8 1 -2.486 5.297 9.849 
87 1 3.001 4.231 10.696 
90 1 2.733 5.481 9.824 
109 1 -2.486 5.297 0.765 
158 1 2.733 5.481 0.79 
11 1 4.24 4.139 20.131 
14 1 3.031 4.094 19.728 
18 1 1.299 5.827 18.554 
33 1 2.266 4.151 20.924 
43 1 4.343 3.96 21.647 
47 1 3.32 5.732 17.88 
52 1 4.24 4.139 12.633 
76 1 2.552 4.924 14.209 
85 1 4.343 3.96 11.117 
89 1 3.32 5.732 14.883 
91 1 1.036 5.037 11.84 
102 1 3.031 4.094 13.035 
105 1 1.299 5.827 14.209 
114 1 2.266 4.151 11.84 
150 1 2.552 4.924 18.554 
156 1 3.001 4.231 22.068 
159 1 1.036 5.037 20.924 
5 1 -5.049 10.63 8.653 
9 1 -3.317 8.897 7.479 
19 1 -1.707 7.414 10.572 
21 1 -2.66 8.795 10.993 
23 1 -3.31 7.532 6.805 
25 1 -4.284 10.573 9.849 
32 1 1.503 6.367 0.79 
36 1 -1.869 7.426 9.056 
38 1 -2.209 6.086 8.653 
54 1 0.3 8.576 10.696 
57 1 1.291 8.001 9.824 
60 1 -1.707 7.414 0.042 
65 1 -3.31 7.532 3.808 
78 1 -1.869 7.426 1.558 
80 1 -2.566 8.842 1.961 
84 1 -4.57 9.799 3.135 
99 1 -3.054 9.687 0.765 
100 1 -2.96 6.142 3.135 
107 1 -5.049 10.63 1.961 
110 1 -3.317 8.897 3.135 
111 1 0.642 5.929 10.696 
113 1 1.503 6.367 9.824 
119 1 -4.284 10.573 0.765 
127 1 -2.209 6.086 1.961 
131 1 -2.318 6.148 10.993 
138 1 1.291 8.001 0.79 
142 1 -2.566 8.842 8.653 
145 1 -4.57 9.799 7.479 
151 1 -5.019 10.493 10.993 
154 1 -3.054 9.687 9.849 
155 1 -2.96 6.142 7.479 
12 1 2.53 7.1 17.202 
17 1 0.468 9.427 20.924 
24 1 -3.52 8.357 11.865 
27 1 -0.31 7.31 21.647 
29 1 0.642 5.929 22.068 
31 1 1.292 7.192 17.88 
44 1 -0.148 7.298 20.131 
46 1 0.191 8.638 19.728 
51 1 -0.31 7.31 11.117 
53 1 2.53 7.1 15.561 
56 1 1.292 7.192 14.883 
63 1 -2.318 6.148 21.771 
66 1 -3.309 6.723 20.899 
70 1 -0.148 7.298 12.633 
72 1 0.548 5.882 13.035 
92 1 0.942 8.582 14.209 
95 1 -5.019 10.493 21.771 
98 1 -4.751 9.243 20.899 
104 1 0.468 9.427 11.84 
116 1 -2.66 8.795 21.771 
118 1 -3.52 8.357 20.899 
122 1 0.191 8.638 13.035 
133 1 -3.309 6.723 11.865 
136 1 0.3 8.576 22.068 
147 1 0.548 5.882 19.728 
153 1 -4.751 9.243 11.865 
160 1 0.942 8.582 18.554 
1 1 7.976 4.694 10.572 
4 1 9.274 4.77 10.993 
20 1 8.034 4.861 9.056 
42 1 9.55 5.41 7.479 
67 1 10.043 4.578 0.765 
77 1 7.976 4.694 0.042 
94 1 8.035 4.861 1.558 
96 1 9.278 4.635 1.961 
121 1 4.688 5.417 10.696 
130 1 9.55 5.41 3.135 
134 1 10.043 4.578 9.849 
152 1 9.278 4.635 8.653 
45 1 4.688 5.417 22.068 
55 1 4.788 5.329 13.035 
106 1 9.274 4.77 21.771 
137 1 4.788 5.329 19.728 
161 2 9.274 4.77 12.093 
2 1 7.294 10.585 9.056 
3 1 9.004 7.624 6.127 
6 1 8.556 6.347 6.805 
16 1 2.314 8.72 0.79 
22 1 7.166 6.156 8.653 
26 1 7.226 8.565 7.479 
35 1 7.191 10.764 10.572 
37 1 6.846 9.307 10.993 
39 1 8.214 8.992 6.805 
41 1 6.677 7.002 9.849 
48 1 3.775 6.213 0.79 
61 1 7.294 10.585 1.558 
62 1 9.004 7.624 4.487 
64 1 6.747 9.395 1.961 
68 1 7.437 6.931 3.135 
71 1 4.29 8.493 10.696 
74 1 3.567 7.818 9.824 
81 1 8.556 6.347 3.808 
83 1 6.47 8.606 0.765 
93 1 7.191 10.764 0.042 
97 1 8.214 8.992 3.808 
101 1 2.261 9.954 10.696 
103 1 2.314 8.72 9.824 
117 1 7.166 6.156 1.961 
120 1 7.226 8.565 3.135 
123 1 3.775 6.213 9.824 
129 1 6.677 7.002 0.765 
132 1 6.747 9.395 8.653 
135 1 7.437 6.931 7.479 
141 1 7.244 6.231 10.993 
144 1 6.47 8.606 9.849 
148 1 3.567 7.818 0.79 
7 1 9.22 6.004 11.865 
10 1 3.558 10.029 21.647 
13 1 2.261 9.954 22.068 
15 1 2.978 8.376 17.88 
28 1 3.5 9.862 20.131 
30 1 4.369 8.568 19.728 
34 1 4.308 6.159 18.554 
40 1 7.76 8.511 11.865 
49 1 4.857 7.722 20.924 
50 1 1.984 9.314 18.554 
58 1 1.491 10.146 11.84 
59 1 4.097 7.793 14.209 
69 1 3.558 10.029 11.117 
73 1 2.978 8.376 14.883 
75 1 5.064 6.118 11.84 
79 1 7.244 6.231 21.771 
82 1 7.967 6.906 20.899 
86 1 3.5 9.862 12.633 
88 1 2.256 10.089 13.035 
108 1 9.22 6.004 20.899 
112 1 4.369 8.568 13.035 
115 1 4.308 6.159 14.209 
124 1 4.857 7.722 11.84 
125 1 1.984 9.314 14.209 
126 1 6.846 9.307 21.771 
128 1 7.76 8.511 20.899 
139 1 1.491 10.146 20.924 
140 1 4.097 7.793 18.554 
143 1 7.967 6.906 11.865 
146 1 4.29 8.493 22.068 
149 1 5.064 6.118 20.924 
157 1 2.256 10.089 19.728 
ITEM: TIMESTEP
10
ITEM: NUMBER OF ATOMS
161
ITEM: BOX BOUNDS xy xz yz pp pp pp
-6.7755000000000001e+00 1.3552000000000000e+01 -6.7755000000000001e+00
0.0000000000000000e+00 1.1735510246683001e+01 0.0000000000000000e+00
0.0000000000000000e+00 2.2149999999999999e+01 0.0000000000000000e+00
ITEM: ATOMS id type x y z 
8 1 -2.41058 5.37604 9.85763 
87 1 2.98082 4.27944 10.6582 
90 1 2.66642 5.45099 9.76718 
109 1 -2.42604 5.3554 0.80594 
158 1 2.66862 5.43984 0.838014 
11 1 4.29025 4.23032 20.1289 
14 1 2.90101 4.12228 19.703 
18 1 1.33846 5.8612 18.5902 
33 1 2.11745 4.26419 20.9216 
43 1 4.31072 4.15104 21.583 
47 1 3.23932 5.78515 17.8607 
52 1 4.29042 4.22965 12.6277 
76 1 2.43829 4.89749 14.1866 
85 1 4.3187 4.15218 11.1908 
89 1 3.2406 5.79015 14.9074 
91 1 0.972075 5.10393 11.8639 
102 1 2.90353 4.11837 13.0595 
105 1 1.3339 5.8563 14.1709 
114 1 2.1114 4.26355 11.8508 
150 1 2.43732 4.90246 18.5769 
156 1 2.97565 4.28687 22.0973 
159 1 0.97287 5.10517 20.9018 
5 1 -4.90409 10.5679 8.61628 
9 1 -3.29046 8.85944 7.52632 
19 1 -1.76834 7.51557 10.5711 
21 1 -2.58708 8.75822 10.9259 
23 1 -3.30579 7.56198 6.8526 
25 1 -4.162 10.477 9.82623 
32 1 1.59156 6.35026 0.778113 
36 1 -1.8774 7.53775 9.06554 
38 1 -2.16601 6.20635 8.6358 
54 1 0.307437 8.49784 10.694 
57 1 1.33999 7.99669 9.79542 
60 1 -1.74106 7.55711 0.0729705 
65 1 -3.30339 7.53849 3.78284 
78 1 -1.89677 7.55964 1.55443 
80 1 -2.5516 8.77392 1.89348 
84 1 -4.45911 9.81359 3.1137 
99 1 -2.98205 9.63168 0.791797 
100 1 -2.93255 6.25555 3.18446 
107 1 -4.9266 10.5961 1.98736 
110 1 -3.34982 8.86795 3.10418 
111 1 0.596686 5.97143 10.7499 
113 1 1.59344 6.35107 9.83323 
119 1 -4.13501 10.4725 0.786863 
127 1 -2.14797 6.21431 1.97457 
131 1 -2.3319 6.23682 11.0184 
138 1 1.34062 7.99662 0.817587 
142 1 -2.54196 8.78753 8.70539 
145 1 -4.46839 9.77102 7.48872 
151 1 -4.96341 10.3979 11.0468 
154 1 -2.99216 9.6473 9.84938 
155 1 -2.93412 6.26795 7.42353 
12 1 2.56535 7.07028 17.1154 
17 1 0.40333 9.32829 20.9288 
24 1 -3.50879 8.36489 11.8557 
27 1 -0.237095 7.22045 21.6288 
29 1 0.601115 5.97183 22.0131 
31 1 1.27913 7.19675 17.9067 
44 1 -0.108078 7.16944 20.1452 
46 1 0.136895 8.50741 19.7277 
51 1 -0.255823 7.21673 11.1374 
53 1 2.56852 7.0708 15.6484 
56 1 1.27405 7.19803 14.8624 
63 1 -2.2949 6.18264 21.7191 
66 1 -3.40105 6.73955 20.8364 
70 1 -0.105241 7.17052 12.6148 
72 1 0.544536 5.94397 12.9752 
92 1 0.913983 8.46808 14.2495 
95 1 -4.99825 10.4484 21.7275 
98 1 -4.69732 9.27601 20.8358 
104 1 0.400816 9.32873 11.8341 
116 1 -2.59891 8.75044 21.8271 
118 1 -3.60441 8.37822 20.8958 
122 1 0.136114 8.50312 13.0356 
133 1 -3.29583 6.84746 11.871 
136 1 0.309624 8.50214 22.0708 
147 1 0.546887 5.94102 19.7864 
153 1 -4.6809 9.19674 11.884 
160 1 0.915143 8.46411 18.5117 
1 1 7.8391 4.91825 10.4985 
4 1 9.18049 4.57638 11.0244 
20 1 7.86661 4.96956 9.06783 
42 1 9.47771 5.43355 7.42726 
67 1 9.9708 4.55629 0.755387 
77 1 7.8807 4.94487 0.100532 
94 1 7.87363 4.96597 1.54562 
96 1 9.17064 4.66431 1.99907 
121 1 4.66287 5.4347 10.721 
130 1 9.46374 5.41913 3.15998 
134 1 10.0157 4.54456 9.7649 
152 1 9.19178 4.65593 8.60391 
45 1 4.66517 5.44206 22.0432 
55 1 4.81526 5.48913 13.0636 
106 1 9.1726 4.78084 21.7511 
137 1 4.81369 5.4902 19.7016 
161 2 9.29279 4.86773 12.1252 
2 1 7.26215 10.5242 9.05761 
3 1 8.95601 7.71523 6.06312 
6 1 8.51531 6.38585 6.82194 
16 1 2.35392 8.6975 0.847615 
22 1 7.13427 6.19906 8.69478 
26 1 7.17612 8.42339 7.52319 
35 1 7.2517 10.5673 10.5126 
37 1 6.82299 9.26381 11.0142 
39 1 8.23264 8.91496 6.76804 
41 1 6.74095 7.01078 9.81799 
48 1 3.70601 6.37451 0.842307 
61 1 7.24606 10.4936 1.5557 
62 1 8.97358 7.66801 4.56873 
64 1 6.71774 9.2449 1.98882 
68 1 7.39744 6.98118 3.02748 
71 1 4.30549 8.53774 10.7679 
74 1 3.6149 7.78137 9.82676 
81 1 8.51462 6.38421 3.78459 
83 1 6.55134 8.44522 0.783349 
93 1 7.22027 10.5591 0.124883 
97 1 8.28409 8.92694 3.82657 
101 1 2.35472 9.95227 10.672 
103 1 2.35408 8.69657 9.76487 
117 1 7.14683 6.18634 1.90589 
120 1 7.17757 8.41088 3.06323 
123 1 3.70563 6.37596 9.76963 
129 1 6.73519 7.00586 0.792307 
132 1 6.70485 9.24286 8.62682 
135 1 7.39713 6.96204 7.58686 
141 1 7.23922 6.20983 10.9314 
144 1 6.54323 8.41633 9.81832 
148 1 3.61634 7.77947 0.785972 
7 1 9.10917 6.02661 12.1007 
10 1 3.65573 9.78006 21.6104 
13 1 2.35455 9.94863 22.0912 
15 1 3.00564 8.33224 17.9106 
28 1 3.67355 9.77775 20.1307 
30 1 4.40059 8.5252 19.7817 
34 1 4.34307 6.3058 18.6305 
40 1 7.72951 8.40073 11.8754 
49 1 4.80109 7.71319 20.8999 
50 1 2.06884 9.29885 18.5217 
58 1 1.55409 10.1611 11.8303 
59 1 4.14084 7.75213 14.1089 
69 1 3.65531 9.77796 11.1631 
73 1 3.01096 8.33164 14.8542 
75 1 4.98294 6.27782 11.8653 
79 1 7.23352 6.17854 21.8482 
82 1 7.91595 6.93891 20.9025 
86 1 3.66945 9.77129 12.63 
88 1 2.35562 10.0644 13.0762 
108 1 9.16644 6.02213 20.8396 
112 1 4.39418 8.52779 12.9783 
115 1 4.34239 6.31419 14.1309 
124 1 4.80276 7.7123 11.8676 
125 1 2.06598 9.3034 14.239 
126 1 6.87178 9.29407 21.8013 
128 1 7.81628 8.34884 20.8435 
139 1 1.55124 10.1598 20.9356 
140 1 4.13992 7.75387 18.6474 
143 1 7.85663 6.996 11.8471 
146 1 4.30551 8.53692 21.9991 
149 1 4.98017 6.27756 20.8991 
157 1 2.34685 10.066 19.6856 
ITEM: TIMESTEP
20
ITEM: NUMBER OF ATOMS
161
ITEM: BOX BOUNDS xy xz yz pp pp pp
-6.7755000000000001e+00 1.3552000000000000e+01 -6.7755000000000001e+00
0.0000000000000000e+00 1.1735510246683001e+01 0.0000000000000000e+00
0.0000000000000000e+00 2.2149999999999999e+01 0.0000000000000000e+00
ITEM: ATOMS id type x y z 
8 1 -2.42082 5.38981 9.84824 
87 1 2.96513 4.28017 10.6556 
90 1 2.66683 5.45306 9.76943 
109 1 -2.42114 5.39425 0.773286 
158 1 2.66662 5.44987 0.842723 
11 1 4.27921 4.22051 20.1237 
14 1 2.89368 4.13476 19.7036 
18 1 1.32314 5.86218 18.5832 
33 1 2.10496 4.26739 20.9076 
43 1 4.31446 4.16292 21.5806 
47 1 3.24949 5.78819 17.8505 
52 1 4.28034 4.21924 12.6402 
76 1 2.44357 4.90227 14.1804 
85 1 4.31419 4.16205 11.1859 
89 1 3.24758 5.79033 14.9127 
91 1 0.968541 5.11474 11.8496 
102 1 2.89245 4.13379 13.06 
105 1 1.32207 5.8612 14.1812 
114 1 2.10687 4.26835 11.8563 
150 1 2.44188 4.90218 18.5825 
156 1 2.96235 4.27943 22.107 
159 1 0.968531 5.11469 20.9133 
5 1 -4.90586 10.5569 8.60892 
9 1 -3.29266 8.86461 7.52763 
19 1 -1.76136 7.51926 10.5529 
21 1 -2.58224 8.7821 10.9249 
23 1 -3.3087 7.56722 6.8464 
25 1 -4.13657 10.4649 9.82474 
32 1 1.59578 6.35479 0.775387 
36 1 -1.87894 7.53391 9.06901 
38 1 -2.16515 6.22091 8.64263 
54 1 0.306622 8.5011 10.6796 
57 1 1.35923 7.99351 9.79007 
60 1 -1.76446 7.52563 0.0555475 
65 1 -3.30898 7.53386 3.78542 
78 1 -1.89056 7.54991 1.55151 
80 1 -2.5531 8.78706 1.89092 
84 1 -4.46235 9.81133 3.10657 
99 1 -2.98064 9.61617 0.776429 
100 1 -2.93165 6.26674 3.17527 
107 1 -4.90947 10.5847 1.98799 
110 1 -3.33249 8.86756 3.1045 
111 1 0.606847 5.9666 10.7464 
113 1 1.59403 6.35493 9.83801 
119 1 -4.12804 10.4611 0.785248 
127 1 -2.15812 6.22217 1.97336 
131 1 -2.33608 6.23407 11.0149 
138 1 1.36036 7.99215 0.823848 
142 1 -2.53595 8.79373 8.70925 
145 1 -4.45452 9.76201 7.49676 
151 1 -4.97115 10.3934 11.0476 
154 1 -2.986 9.63476 9.84694 
155 1 -2.93319 6.27406 7.43143 
12 1 2.55969 7.07663 17.1335 
17 1 0.405194 9.33246 20.9142 
24 1 -3.50482 8.35836 11.859 
27 1 -0.248122 7.19866 21.6323 
29 1 0.608307 5.96622 22.0186 
31 1 1.28463 7.19433 17.9009 
44 1 -0.119326 7.16937 20.1386 
46 1 0.139656 8.5 19.7201 
51 1 -0.259756 7.19511 11.13 
53 1 2.55983 7.077 15.6296 
56 1 1.28423 7.19529 14.8627 
63 1 -2.32782 6.21961 21.7516 
66 1 -3.37673 6.72969 20.8641 
70 1 -0.118406 7.16988 12.6235 
72 1 0.541454 5.9315 12.974 
92 1 0.915188 8.45666 14.2482 
95 1 -4.98154 10.4457 21.7314 
98 1 -4.68659 9.27367 20.84 
104 1 0.405066 9.33136 11.8485 
116 1 -2.6179 8.75314 21.8254 
118 1 -3.60525 8.3745 20.9081 
122 1 0.140435 8.50038 13.043 
133 1 -3.30917 6.84703 11.8782 
136 1 0.309256 8.50639 22.0854 
147 1 0.541003 5.93156 19.7888 
153 1 -4.67333 9.19143 11.8912 
160 1 0.914803 8.45738 18.5156 
1 1 7.84092 4.92354 10.5037 
4 1 9.16892 4.5829 11.0207 
20 1 7.85997 4.95786 9.07084 
42 1 9.46139 5.44878 7.41973 
67 1 9.97339 4.563 0.761207 
77 1 7.87219 4.94296 0.0881364 
94 1 7.85461 4.94868 1.55249 
96 1 9.17922 4.66159 2.00004 
121 1 4.66167 5.46195 10.7098 
130 1 9.45876 5.43967 3.17408 
134 1 10.0114 4.55098 9.77242 
152 1 9.19271 4.66264 8.60099 
45 1 4.66232 5.46501 22.0541 
55 1 4.82117 5.50216 13.0678 
106 1 9.16754 4.78663 21.7482 
137 1 4.81953 5.50123 19.6952 
161 2 9.29137 4.87453 12.1189 
2 1 7.26916 10.5095 9.05496 
3 1 8.95553 7.69375 6.07408 
6 1 8.52259 6.40101 6.82484 
16 1 2.35695 8.69568 0.848916 
22 1 7.12037 6.19441 8.69887 
26 1 7.16952 8.42785 7.53362 
35 1 7.24986 10.5531 10.5067 
37 1 6.83182 9.25813 11.0087 
39 1 8.22912 8.92244 6.75502 
41 1 6.73078 7.01112 9.82541 
48 1 3.70186 6.36251 0.835215 
61 1 7.25178 10.5072 1.56974 
62 1 8.97467 7.6541 4.55399 
64 1 6.70809 9.22334 1.99148 
68 1 7.40448 6.96926 3.04647 
71 1 4.31042 8.52917 10.7618 
74 1 3.60486 7.78707 9.82165 
81 1 8.5216 6.39542 3.7866 
83 1 6.55065 8.4349 0.784329 
93 1 7.22935 10.5541 0.117226 
97 1 8.27793 8.92694 3.83734 
101 1 2.36536 9.93739 10.672 
103 1 2.35594 8.69594 9.76463 
117 1 7.12596 6.19407 1.90507 
120 1 7.181 8.41962 3.06931 
123 1 3.70101 6.36414 9.77677 
129 1 6.72951 7.00535 0.78496 
132 1 6.70942 9.23039 8.63027 
135 1 7.40564 6.95629 7.56096 
141 1 7.23906 6.20621 10.9327 
144 1 6.54326 8.42841 9.813 
148 1 3.60583 7.78561 0.791784 
7 1 9.09249 6.03312 12.1084 
10 1 3.66315 9.78156 21.6026 
13 1 2.36631 9.93584 22.0924 
15 1 3.00639 8.32883 17.9051 
28 1 3.68055 9.77858 20.1377 
30 1 4.41031 8.53428 19.7879 
34 1 4.33747 6.30206 18.6213 
40 1 7.72216 8.39198 11.8779 
49 1 4.80539 7.72038 20.9062 
50 1 2.07373 9.28835 18.5169 
58 1 1.55942 10.1581 11.8371 
59 1 4.13675 7.7599 14.1242 
69 1 3.66095 9.77942 11.163 
73 1 3.00749 8.32981 14.8568 
75 1 4.98516 6.28702 11.8589 
79 1 7.22543 6.19042 21.8384 
82 1 7.92278 6.93339 20.8979 
86 1 3.68145 9.77825 12.6272 
88 1 2.35545 10.0614 13.0712 
108 1 9.17739 6.02949 20.8372 
112 1 4.40797 8.53169 12.9745 
115 1 4.33679 6.30516 14.1406 
124 1 4.80699 7.71776 11.8594 
125 1 2.07251 9.28887 14.2465 
126 1 6.86749 9.26544 21.7882 
128 1 7.82485 8.35671 20.8462 
139 1 1.55887 10.1587 20.9263 
140 1 4.13832 7.75886 18.6347 
143 1 7.87044 6.98161 11.8569 
146 1 4.31037 8.52993 22.0034 
149 1 4.98242 6.28916 20.9052 
157 1 2.35478 10.0615 19.6929 
ITEM: TIMESTEP
30
ITEM: NUMBER OF ATOMS
161
ITEM: BOX BOUNDS xy xz yz pp pp pp
-6.7755000000000001e+00 1.3552000000000000e+01 -6.7755000000000001e+00
0.0000000000000000e+00 1.1735510246683001e+01 0.0000000000000000e+00
0.0000000000000000e+00 2.2149999999999999e+01 0.0000000000000000e+00
ITEM: ATOMS id type x y z 
8 1 -2.45826 5.43295 9.84167 
87 1 2.95472 4.29314 10.6547 
90 1 2.63968 5.44651 9.76199 
109 1 -2.44104 5.43031 0.791805 
158 1 2.64026 5.44466 0.852437 
11 1 4.26204 4.24954 20.1175 
14 1 2.87103 4.16457 19.7127 
18 1 1.29013 5.84892 18.5633 
33 1 2.07895 4.28153 20.8998 
43 1 4.28561 4.22164 21.5628 
47 1 3.23977 5.806 17.8243 
52 1 4.26623 4.2477 12.648 
76 1 2.43254 4.9331 14.1898 
85 1 4.28193 4.22547 11.2017 
89 1 3.23639 5.80858 14.9386 
91 1 0.950212 5.13024 11.8382 
102 1 2.86762 4.16523 13.0506 
105 1 1.29012 5.8487 14.2013 
114 1 2.08071 4.28252 11.8637 
150 1 2.43159 4.93224 18.5733 
156 1 2.95129 4.29122 22.1091 
159 1 0.948492 5.13065 20.9239 
5 1 -4.87311 10.5098 8.61434 
9 1 -3.2736 8.86551 7.51754 
19 1 -1.74293 7.54197 10.5481 
21 1 -2.53629 8.82637 10.9579 
23 1 -3.30713 7.56684 6.83123 
25 1 -4.09696 10.4381 9.8193 
32 1 1.60167 6.38245 0.787579 
36 1 -1.85284 7.56317 9.05923 
38 1 -2.15918 6.24832 8.64208 
54 1 0.324818 8.47406 10.6786 
57 1 1.37177 7.97296 9.79186 
60 1 -1.76946 7.55772 0.0486959 
65 1 -3.29659 7.55269 3.79907 
78 1 -1.86145 7.57314 1.54897 
80 1 -2.52455 8.79869 1.90745 
84 1 -4.44432 9.78924 3.11674 
99 1 -2.96187 9.59643 0.753756 
100 1 -2.9389 6.28612 3.17021 
107 1 -4.88747 10.5651 1.97161 
110 1 -3.30795 8.87122 3.12358 
111 1 0.598501 5.96501 10.7103 
113 1 1.60142 6.38257 9.8272 
119 1 -4.09875 10.4433 0.790308 
127 1 -2.15791 6.24729 1.96887 
131 1 -2.37258 6.27052 11.0094 
138 1 1.37386 7.97071 0.823575 
142 1 -2.49335 8.81901 8.70039 
145 1 -4.45198 9.73528 7.49341 
151 1 -4.95785 10.3515 11.0351 
154 1 -2.94448 9.60681 9.84907 
155 1 -2.94162 6.30222 7.44074 
12 1 2.56788 7.07448 17.1487 
17 1 0.426327 9.29706 20.9047 
24 1 -3.48269 8.34173 11.8585 
27 1 -0.246799 7.17662 21.6386 
29 1 0.598709 5.96605 22.0535 
31 1 1.27812 7.18119 17.8922 
44 1 -0.149179 7.14353 20.1411 
46 1 0.137213 8.47506 19.7191 
51 1 -0.262074 7.16818 11.1234 
53 1 2.56575 7.0732 15.6117 
56 1 1.28124 7.18138 14.8721 
63 1 -2.34111 6.23567 21.7481 
66 1 -3.39135 6.75019 20.8622 
70 1 -0.150057 7.14648 12.6216 
72 1 0.508078 5.92248 12.9766 
92 1 0.921752 8.4376 14.245 
95 1 -4.965 10.4373 21.7258 
98 1 -4.66761 9.2877 20.8311 
104 1 0.424825 9.29428 11.858 
116 1 -2.60765 8.75338 21.8 
118 1 -3.61663 8.33768 20.895 
122 1 0.139906 8.4725 13.0455 
133 1 -3.33039 6.85013 11.8905 
136 1 0.324835 8.48563 22.0886 
147 1 0.506318 5.9235 19.7877 
153 1 -4.66627 9.16902 11.9057 
160 1 0.920478 8.43651 18.5164 
1 1 7.809 4.92495 10.5089 
4 1 9.138 4.59126 11.0198 
20 1 7.83091 4.96114 9.07469 
42 1 9.45102 5.47783 7.42922 
67 1 9.95529 4.59511 0.771709 
77 1 7.82807 4.94176 0.0922503 
94 1 7.81425 4.9434 1.5495 
96 1 9.14429 4.69695 2.00839 
121 1 4.63188 5.51341 10.6831 
130 1 9.44022 5.46787 3.16823 
134 1 9.97965 4.5789 9.77891 
152 1 9.1683 4.69689 8.59602 
45 1 4.63098 5.51573 22.0791 
55 1 4.8131 5.53688 13.0608 
106 1 9.13352 4.81779 21.7651 
137 1 4.81191 5.5347 19.6979 
161 2 9.28293 4.91032 12.0956 
2 1 7.29077 10.4687 9.03951 
3 1 8.94888 7.70434 6.08169 
6 1 8.50798 6.41454 6.80447 
16 1 2.37127 8.70044 0.869979 
22 1 7.07949 6.1894 8.68388 
26 1 7.17417 8.40456 7.51669 
35 1 7.26223 10.5082 10.5005 
37 1 6.84753 9.21496 11.0146 
39 1 8.23004 8.92836 6.73274 
41 1 6.70402 6.99238 9.82637 
48 1 3.70255 6.35645 0.837461 
61 1 7.26378 10.4792 1.57448 
62 1 8.97062 7.64862 4.53833 
64 1 6.71305 9.1926 1.9921 
68 1 7.38184 6.96307 3.06448 
71 1 4.32488 8.51895 10.7367 
74 1 3.59528 7.79617 9.79647 
81 1 8.50587 6.39408 3.80821 
83 1 6.54543 8.39942 0.795516 
93 1 7.25503 10.4891 0.14304 
97 1 8.29107 8.91213 3.86291 
101 1 2.39695 9.90813 10.6896 
103 1 2.36819 8.70042 9.74404 
117 1 7.08253 6.17658 1.91959 
120 1 7.19464 8.40495 3.08283 
123 1 3.70165 6.35738 9.77713 
129 1 6.69948 6.9868 0.77574 
132 1 6.71308 9.19694 8.63144 
135 1 7.3778 6.9457 7.55058 
141 1 7.22971 6.20639 10.9357 
144 1 6.53266 8.40514 9.80477 
148 1 3.59702 7.79631 0.817356 
7 1 9.04296 6.04382 12.1559 
10 1 3.70885 9.78305 21.5988 
13 1 2.39858 9.90745 22.0741 
15 1 3.02445 8.3288 17.8831 
28 1 3.72192 9.77876 20.1377 
30 1 4.45216 8.54754 19.7711 
34 1 4.33543 6.31664 18.6089 
40 1 7.73534 8.36757 11.8918 
49 1 4.83389 7.74125 20.9091 
50 1 2.09202 9.26064 18.5218 
58 1 1.57904 10.1266 11.8472 
59 1 4.15081 7.76424 14.1317 
69 1 3.70745 9.78006 11.1675 
73 1 3.02867 8.32869 14.8788 
75 1 4.99445 6.32214 11.8745 
79 1 7.20799 6.2028 21.8099 
82 1 7.93371 6.92448 20.8721 
86 1 3.72319 9.77677 12.6259 
88 1 2.38833 10.0298 13.0759 
108 1 9.16212 6.01971 20.8185 
112 1 4.44879 8.54246 12.9945 
115 1 4.33562 6.3234 14.1518 
124 1 4.83264 7.73722 11.8562 
125 1 2.08716 9.25986 14.2392 
126 1 6.9004 9.20954 21.7567 
128 1 7.83393 8.36602 20.8494 
139 1 1.5783 10.1267 20.9144 
140 1 4.1528 7.76503 18.6252 
143 1 7.87662 6.95258 11.8943 
146 1 4.32682 8.52083 22.0287 
149 1 4.98743 6.32385 20.8913 
157 1 2.38877 10.0303 19.6912 
ITEM: TIMESTEP
40
ITEM: NUMBER OF ATOMS
161
ITEM: BOX BOUNDS xy xz yz pp pp pp
-6.7755000000000001e+00 1.3552000000000000e+01 -6.7755000000000001e+00
0.0000000000000000e+00 1.1735510246683001e+01 0.0000000000000000e+00
0.0000000000000000e+00 2.2149999999999999e+01 0.0000000000000000e+00
ITEM: ATOMS id type x y z 
8 1 -2.47979 5.45493 9.83901 
87 1 2.93977 4.302 10.6509 
90 1 2.63431 5.44296 9.7499 
109 1 -2.45384 5.44805 0.785888 
158 1 2.63511 5.44234 0.86414 
11 1 4.2531 4.26719 20.1118 
14 1 2.85764 4.18036 19.7121 
18 1 1.27487 5.84631 18.5568 
33 1 2.06718 4.29048 20.9037 
43 1 4.27044 4.25173 21.5505 
47 1 3.23484 5.80463 17.8212 
52 1 4.25458 4.26684 12.6532 
76 1 2.41839 4.93973 14.1922 
85 1 4.26949 4.25523 11.2155 
89 1 3.23431 5.80659 14.943 
91 1 0.932704 5.13901 11.8339 
102 1 2.85794 4.18091 13.0516 
105 1 1.27476 5.84538 14.2072 
114 1 2.06852 4.29028 11.86 
150 1 2.41883 4.93932 18.5709 
156 1 2.93861 4.30177 22.1116 
159 1 0.931716 5.13934 20.929 
5 1 -4.86217 10.4941 8.62242 
9 1 -3.25453 8.86418 7.51395 
19 1 -1.74232 7.56191 10.5476 
21 1 -2.5051 8.82945 10.9744 
23 1 -3.30205 7.57632 6.82569 
25 1 -4.07911 10.4198 9.82563 
32 1 1.59474 6.38337 0.803517 
36 1 -1.83133 7.57906 9.05797 
38 1 -2.15485 6.26633 8.64204 
54 1 0.334491 8.46047 10.6811 
57 1 1.3824 7.97843 9.78624 
60 1 -1.76847 7.55879 0.0466706 
65 1 -3.29577 7.54264 3.80131 
78 1 -1.84806 7.5925 1.54964 
80 1 -2.50998 8.8073 1.90867 
84 1 -4.43623 9.78585 3.1154 
99 1 -2.9479 9.58575 0.758089 
100 1 -2.93693 6.29518 3.16817 
107 1 -4.87572 10.5468 1.97489 
110 1 -3.29429 8.87593 3.12895 
111 1 0.585462 5.9603 10.7042 
113 1 1.59494 6.38341 9.81128 
119 1 -4.08572 10.4326 0.78411 
127 1 -2.15245 6.26904 1.97253 
131 1 -2.39056 6.29281 11.0068 
138 1 1.3836 7.97814 0.827114 
142 1 -2.46748 8.82865 8.68734 
145 1 -4.43731 9.72178 7.48121 
151 1 -4.94501 10.3297 11.0277 
154 1 -2.91958 9.60691 9.85369 
155 1 -2.93909 6.30835 7.44519 
12 1 2.57103 7.0711 17.1445 
17 1 0.435964 9.27602 20.9027 
24 1 -3.46932 8.34145 11.8639 
27 1 -0.248771 7.1661 21.643 
29 1 0.585491 5.96352 22.0588 
31 1 1.27852 7.18201 17.8921 
44 1 -0.166709 7.13084 20.1395 
46 1 0.134967 8.45535 19.7164 
51 1 -0.266123 7.15294 11.12 
53 1 2.57156 7.07099 15.6133 
56 1 1.27921 7.18225 14.8739 
63 1 -2.352 6.25611 21.7534 
66 1 -3.40117 6.74853 20.8608 
70 1 -0.16731 7.12977 12.6244 
72 1 0.492964 5.91554 12.9825 
92 1 0.918731 8.42998 14.2422 
95 1 -4.95491 10.4213 21.724 
98 1 -4.65223 9.28248 20.8227 
104 1 0.43695 9.27383 11.8603 
116 1 -2.60287 8.75919 21.7817 
118 1 -3.61195 8.336 20.8853 
122 1 0.135294 8.45392 13.047 
133 1 -3.34627 6.8521 11.899 
136 1 0.333848 8.46854 22.0872 
147 1 0.492207 5.91498 19.7811 
153 1 -4.65638 9.15636 11.9117 
160 1 0.919 8.4291 18.5212 
1 1 7.78735 4.92009 10.5113 
4 1 9.12164 4.59641 11.0181 
20 1 7.81093 4.96389 9.07378 
42 1 9.441 5.49335 7.42664 
67 1 9.93868 4.61855 0.783083 
77 1 7.79774 4.94071 0.0911689 
94 1 7.78571 4.94577 1.55398 
96 1 9.12418 4.71017 2.0001 
121 1 4.62699 5.53674 10.682 
130 1 9.43476 5.47816 3.16824 
134 1 9.9603 4.5961 9.78455 
152 1 9.14715 4.71041 8.59947 
45 1 4.62487 5.53717 22.0798 
55 1 4.81176 5.5522 13.0658 
106 1 9.11691 4.83299 21.7698 
137 1 4.81022 5.55174 19.6949 
161 2 9.27711 4.92745 12.0837 
2 1 7.30429 10.4444 9.04135 
3 1 8.93731 7.71146 6.08378 
6 1 8.50618 6.419 6.79651 
16 1 2.37772 8.70233 0.878204 
22 1 7.05205 6.17079 8.67934 
26 1 7.17017 8.40383 7.50211 
35 1 7.27264 10.4821 10.4915 
37 1 6.85517 9.19334 11.0193 
39 1 8.22009 8.92754 6.72251 
41 1 6.68576 6.97539 9.82852 
48 1 3.69197 6.35797 0.855325 
61 1 7.27614 10.4586 1.58527 
62 1 8.96504 7.65361 4.54455 
64 1 6.71697 9.17418 1.99447 
68 1 7.3689 6.95041 3.07171 
71 1 4.33524 8.51615 10.7259 
74 1 3.59776 7.80972 9.78275 
81 1 8.50152 6.39833 3.81204 
83 1 6.54426 8.38618 0.796703 
93 1 7.2713 10.4613 0.150787 
97 1 8.29792 8.91974 3.86337 
101 1 2.41615 9.89205 10.6942 
103 1 2.37624 8.70364 9.73476 
117 1 7.0558 6.16927 1.92649 
120 1 7.19923 8.39774 3.09105 
123 1 3.69201 6.35764 9.7599 
129 1 6.68352 6.96676 0.777778 
132 1 6.71398 9.18203 8.62313 
135 1 7.36461 6.93735 7.53034 
141 1 7.21594 6.20354 10.9355 
144 1 6.52362 8.39101 9.80733 
148 1 3.59938 7.80923 0.830607 
7 1 9.04089 6.04483 12.1854 
10 1 3.73734 9.78551 21.5997 
13 1 2.41797 9.89102 22.0691 
15 1 3.03015 8.32819 17.8791 
28 1 3.74927 9.77794 20.1356 
30 1 4.47961 8.55657 19.761 
34 1 4.33377 6.32662 18.5975 
40 1 7.73916 8.36491 11.903 
49 1 4.85056 7.75963 20.9103 
50 1 2.09807 9.24841 18.523 
58 1 1.59296 10.1064 11.8558 
59 1 4.16111 7.77146 14.1439 
69 1 3.73578 9.78343 11.1652 
73 1 3.02988 8.32844 14.8869 
75 1 5.00019 6.33663 11.8687 
79 1 7.1956 6.20552 21.7996 
82 1 7.93539 6.91266 20.8579 
86 1 3.74807 9.77704 12.6282 
88 1 2.40964 10.0161 13.0723 
108 1 9.15704 6.02155 20.8111 
112 1 4.47987 8.55532 13.0025 
115 1 4.33479 6.32739 14.1635 
124 1 4.84837 7.75537 11.8532 
125 1 2.09689 9.2485 14.2398 
126 1 6.90984 9.18505 21.7551 
128 1 7.84239 8.36625 20.8341 
139 1 1.5936 10.1077 20.9073 
140 1 4.1633 7.77347 18.618 
143 1 7.8638 6.93752 11.9202 
146 1 4.33867 8.51851 22.0392 
149 1 4.98942 6.33873 20.8923 
157 1 2.41065 10.0153 19.6919 
ITEM: TIMESTEP
50
ITEM: NUMBER OF ATOMS
161
ITEM: BOX BOUNDS xy xz yz pp pp pp
-6.7755000000000001e+00 1.3552000000000000e+01 -6.7755000000000001e+00
0.0000000000000000e+00 1.1735510246683001e+01 0.0000000000000000e+00
0.0000000000000000e+00 2.2149999999999999e+01 0.0000000000000000e+00
ITEM: ATOMS id type x y z 
8 1 -2.52691 5.50674 9.83124 
87 1 2.9218 4.34134 10.6392 
90 1 2.61448 5.46491 9.70611 
109 1 -2.48499 5.49678 0.794208 
158 1 2.61488 5.46267 0.907349 
11 1 4.23209 4.31509 20.083 
14 1 2.82815 4.20051 19.7189 
18 1 1.25183 5.85588 18.5488 
33 1 2.04571 4.31553 20.9202 
43 1 4.23043 4.31601 21.5236 
47 1 3.2203 5.7894 17.8432 
52 1 4.23601 4.31907 12.6842 
76 1 2.38186 4.92223 14.1994 
85 1 4.2341 4.3177 11.2371 
89 1 3.21429 5.79774 14.9235 
91 1 0.894147 5.14001 11.8277 
102 1 2.82673 4.20151 13.0455 
105 1 1.25171 5.85448 14.213 
114 1 2.04706 4.31471 11.8452 
150 1 2.38061 4.92464 18.5632 
156 1 2.91933 4.34083 22.1242 
159 1 0.892275 5.14141 20.9346 
5 1 -4.82427 10.4464 8.62548 
9 1 -3.20831 8.86655 7.50393 
19 1 -1.73834 7.58575 10.5406 
21 1 -2.46817 8.8404 10.9897 
23 1 -3.30803 7.58374 6.82537 
25 1 -4.04318 10.3686 9.8273 
32 1 1.56397 6.38771 0.839746 
36 1 -1.77582 7.61266 9.04806 
38 1 -2.1505 6.30955 8.64627 
54 1 0.367505 8.42146 10.6828 
57 1 1.40216 7.97012 9.76593 
60 1 -1.75981 7.58092 0.052132 
65 1 -3.29907 7.53796 3.81025 
78 1 -1.81048 7.62348 1.55387 
80 1 -2.46889 8.83166 1.92295 
84 1 -4.39733 9.79995 3.13063 
99 1 -2.91161 9.58579 0.749485 
100 1 -2.93298 6.29011 3.16201 
107 1 -4.84476 10.5292 1.96818 
110 1 -3.26356 8.87084 3.14327 
111 1 0.566142 5.94645 10.6912 
113 1 1.5639 6.38623 9.77607 
119 1 -4.06457 10.4094 0.768027 
127 1 -2.14009 6.30171 1.97045 
131 1 -2.43053 6.33157 11.0049 
138 1 1.40015 7.97213 0.846743 
142 1 -2.40507 8.85515 8.68058 
145 1 -4.40999 9.70099 7.46868 
151 1 -4.92197 10.2813 11.0268 
154 1 -2.84444 9.61633 9.85739 
155 1 -2.93344 6.31765 7.44445 
12 1 2.57875 7.05858 17.1496 
17 1 0.467062 9.22848 20.898 
24 1 -3.43126 8.35231 11.9017 
27 1 -0.258415 7.14443 21.6379 
29 1 0.566747 5.95472 22.0718 
31 1 1.28208 7.19199 17.8905 
44 1 -0.204805 7.09706 20.1336 
46 1 0.120664 8.4209 19.7214 
51 1 -0.273163 7.12642 11.1287 
53 1 2.57665 7.05498 15.6051 
56 1 1.29563 7.18603 14.8835 
63 1 -2.37874 6.28871 21.7523 
66 1 -3.41698 6.7489 20.8414 
70 1 -0.20734 7.09549 12.6307 
72 1 0.460576 5.89103 13.0026 
92 1 0.914202 8.44367 14.2343 
95 1 -4.93317 10.3831 21.7169 
98 1 -4.63456 9.26208 20.7797 
104 1 0.470858 9.22446 11.8666 
116 1 -2.58054 8.76603 21.7676 
118 1 -3.58013 8.33907 20.8467 
122 1 0.117984 8.41659 13.0426 
133 1 -3.36805 6.8752 11.9136 
136 1 0.363747 8.43519 22.0874 
147 1 0.457789 5.89308 19.7649 
153 1 -4.641 9.12344 11.9308 
160 1 0.912704 8.4331 18.5272 
1 1 7.73687 4.91587 10.5079 
4 1 9.07709 4.61407 11.0126 
20 1 7.75153 4.96019 9.07171 
42 1 9.4281 5.51742 7.43286 
67 1 9.89776 4.67181 0.789571 
77 1 7.72565 4.91805 0.0869313 
94 1 7.7212 4.94831 1.55921 
96 1 9.06617 4.74249 2.00103 
121 1 4.59482 5.57312 10.6799 
130 1 9.42295 5.49196 3.15822 
134 1 9.91246 4.64108 9.79293 
152 1 9.08701 4.74199 8.60521 
45 1 4.59238 5.57671 22.0818 
55 1 4.80771 5.59094 13.0745 
106 1 9.06964 4.86085 21.7834 
137 1 4.80488 5.59226 19.6843 
161 2 9.25911 4.95351 12.0641 
2 1 7.33567 10.3845 9.03803 
3 1 8.92302 7.73543 6.0864 
6 1 8.50579 6.42742 6.7946 
16 1 2.40159 8.70858 0.893554 
22 1 6.98987 6.1351 8.65948 
26 1 7.14426 8.39386 7.47349 
35 1 7.30116 10.4272 10.482 
37 1 6.87959 9.14969 11.0203 
39 1 8.20849 8.93618 6.72801 
41 1 6.64201 6.94215 9.82798 
48 1 3.66779 6.38306 0.896059 
61 1 7.30198 10.4045 1.60043 
62 1 8.95546 7.66934 4.54937 
64 1 6.7246 9.13378 2.00485 
68 1 7.33719 6.92467 3.0915 
71 1 4.36171 8.5137 10.7221 
74 1 3.62234 7.82555 9.75428 
81 1 8.48926 6.40368 3.81594 
83 1 6.54469 8.35624 0.791629 
93 1 7.30064 10.4096 0.165204 
97 1 8.31398 8.9214 3.8531 
101 1 2.46283 9.86017 10.7069 
103 1 2.40081 8.70891 9.71811 
117 1 6.98605 6.14383 1.94935 
120 1 7.20019 8.37568 3.11255 
123 1 3.66718 6.38235 9.71819 
129 1 6.64053 6.93296 0.776733 
132 1 6.715 9.13917 8.61302 
135 1 7.32232 6.91905 7.49719 
141 1 7.17996 6.20011 10.9511 
144 1 6.51041 8.35031 9.80458 
148 1 3.62375 7.82535 0.857959 
7 1 9.02625 6.0525 12.2378 
10 1 3.81087 9.81123 21.6052 
13 1 2.4659 9.86078 22.0571 
15 1 3.04429 8.32506 17.8862 
28 1 3.81301 9.7739 20.1297 
30 1 4.54612 8.57882 19.7401 
34 1 4.32768 6.34857 18.5782 
40 1 7.74395 8.33727 11.9302 
49 1 4.89387 7.79328 20.9095 
50 1 2.10883 9.23688 18.531 
58 1 1.63331 10.0507 11.8599 
59 1 4.19077 7.79849 14.1607 
69 1 3.81131 9.81328 11.1612 
73 1 3.04745 8.3171 14.8787 
75 1 5.00155 6.36389 11.8666 
79 1 7.16229 6.20539 21.7901 
82 1 7.90918 6.89706 20.8315 