ITEM: TIMESTEP
0
ITEM: NUMBER OF ATOMS
99
ITEM: BOX BOUNDS pp pp pp
0.0000000000000000e+00 1.6524999999999999e+01
0.0000000000000000e+00 1.6526000000000000e+01
0.0000000000000000e+00 1.6526000000000000e+01
ITEM: ATOMS id type x y z 
1 1 1.813 1.813 1.813 
10 1 5.821 5.821 5.821 
17 1 3.388 3.388 3.388 
26 1 4.246 4.246 4.246 
33 1 0.284 2 2 
41 1 2 0.284 2 
49 1 2 2 0.283 
58 1 7.351 5.634 5.634 
66 1 5.634 7.351 5.634 
74 1 5.634 5.634 7.351 
81 1 2.689 2.689 2.689 
90 1 4.945 4.945 4.945 
4 1 1.813 1.813 14.084 
11 1 5.821 5.821 10.076 
20 1 3.388 3.388 12.509 
27 1 4.246 4.246 11.651 
36 1 0.284 2 13.897 
46 1 2 0.284 13.897 
56 1 2 2 15.614 
59 1 7.351 5.634 10.263 
69 1 5.634 7.351 10.263 
79 1 5.634 5.634 8.546 
84 1 2.689 2.689 13.208 
91 1 4.945 4.945 10.952 
6 1 1.813 14.084 1.813 
13 1 5.821 10.076 5.821 
22 1 3.388 12.509 3.388 
29 1 4.246 11.651 4.246 
38 1 0.284 13.897 2 
48 1 2 15.614 2 
52 1 2 13.897 0.283 
61 1 7.351 10.263 5.634 
71 1 5.634 8.546 5.634 
75 1 5.634 10.263 7.351 
86 1 2.689 13.208 2.689 
93 1 4.945 10.952 4.945 
7 1 1.813 14.084 14.084 
16 1 5.821 10.076 10.076 
23 1 3.388 12.509 12.509 
32 1 4.246 11.651 11.651 
39 1 0.284 13.897 13.897 
43 1 2 15.614 13.897 
53 1 2 13.897 15.614 
64 1 7.351 10.263 10.263 
68 1 5.634 8.547 10.263 
78 1 5.634 10.263 8.546 
87 1 2.689 13.208 13.208 
96 1 4.945 10.952 10.952 
8 1 14.084 1.813 1.813 
15 1 10.076 5.821 5.821 
24 1 12.509 3.388 3.388 
31 1 11.651 4.246 4.246 
40 1 15.613 2 2 
44 1 13.897 0.284 2 
54 1 13.897 2 0.283 
63 1 8.547 5.634 5.634 
67 1 10.263 7.351 5.634 
77 1 10.263 5.634 7.351 
88 1 13.208 2.689 2.689 
95 1 10.952 4.945 4.945 
97 2 13.598 2.297 3.918 
98 2 14.79 2.238 4.852 
99 3 14.535 2.884 5.563 
5 1 14.084 1.813 14.084 
14 1 10.076 5.821 10.076 
21 1 12.509 3.388 12.509 
30 1 11.651 4.246 11.651 
37 1 15.613 2 13.897 
47 1 13.897 0.284 13.897 
51 1 13.897 2 15.614 
62 1 8.546 5.634 10.263 
72 1 10.263 7.351 10.263 
76 1 10.263 5.634 8.546 
85 1 13.208 2.689 13.208 
94 1 10.952 4.945 10.952 
3 1 14.084 14.084 1.813 
12 1 10.076 10.076 5.821 
19 1 12.509 12.509 3.388 
28 1 11.651 11.651 4.246 
35 1 15.613 13.897 2 
45 1 13.897 15.614 2 
55 1 13.897 13.897 0.283 
60 1 8.547 10.263 5.634 
70 1 10.263 8.547 5.634 
80 1 10.263 10.263 7.351 
83 1 13.208 13.208 2.689 
92 1 10.952 10.952 4.945 
2 1 14.084 14.084 14.084 
9 1 10.076 10.076 10.076 
18 1 12.509 12.509 12.509 
25 1 11.651 11.651 11.651 
34 1 15.613 13.897 13.897 
42 1 13.897 15.614 13.897 
50 1 13.897 13.897 15.614 
57 1 8.546 10.263 10.263 
65 1 10.263 8.546 10.263 
73 1 10.263 10.263 8.547 
82 1 13.208 13.208 13.208 
89 1 10.952 10.952 10.952 
ITEM: TIMESTEP
10
ITEM: NUMBER OF ATOMS
99
ITEM: BOX BOUNDS pp pp pp
0.0000000000000000e+00 1.6524999999999999e+01
0.0000000000000000e+00 1.6526000000000000e+01
0.0000000000000000e+00 1.6526000000000000e+01
ITEM: ATOMS id type x y z 
1 1 1.8156 1.81462 1.81443 
10 1 5.81843 5.81962 5.81961 
17 1 3.39112 3.39119 3.3913 
26 1 4.24318 4.24297 4.24297 
33 1 0.284054 2.00388 2.00489 
41 1 2.00384 0.280868 2.00385 
49 1 2.00382 2.00385 0.279711 
58 1 7.35325 5.63018 5.63021 
66 1 5.6303 7.35237 5.63029 
74 1 5.63031 5.63027 7.35234 
81 1 2.69443 2.69432 2.69415 
90 1 4.93984 4.94021 4.94019 
4 1 1.81456 1.81517 14.0826 
11 1 5.81967 5.81994 10.0773 
20 1 3.39111 3.3911 12.5058 
27 1 4.24305 4.24312 11.6539 
36 1 0.281606 2.00379 13.8932 
46 1 2.00385 0.281931 13.8932 
56 1 2.0038 2.00375 15.6169 
59 1 7.35197 5.63036 10.2666 
69 1 5.63037 7.35267 10.2666 
79 1 5.63038 5.63037 8.54494 
84 1 2.69426 2.69426 13.2028 
91 1 4.93996 4.93987 10.957 
6 1 1.81477 14.0827 1.81437 
13 1 5.82 10.0773 5.81963 
22 1 3.39095 12.506 3.39104 
29 1 4.2431 11.654 4.24303 
38 1 0.282747 13.8933 2.00375 
48 1 2.00368 15.6161 2.00371 
52 1 2.00371 13.8933 0.281586 
61 1 7.35227 10.2666 5.63037 
71 1 5.63039 8.54496 5.63038 
75 1 5.63037 10.2666 7.35236 
86 1 2.69429 13.2028 2.69415 
93 1 4.93985 10.957 4.93993 
7 1 1.81444 14.0829 14.0826 
16 1 5.81969 10.0774 10.0773 
23 1 3.39091 12.506 12.5061 
32 1 4.243 11.6539 11.654 
39 1 0.283204 13.8933 13.8933 
43 1 2.00366 15.6145 13.8934 
53 1 2.00366 13.8933 15.6153 
64 1 7.35227 10.2667 10.2666 
68 1 5.63034 8.54492 10.2667 
78 1 5.63037 10.2667 8.54459 
87 1 2.69427 13.2029 13.2028 
96 1 4.93992 10.9572 10.9571 
8 1 14.088 1.80905 1.78734 
15 1 10.0817 5.81568 5.81576 
24 1 12.4198 3.47721 3.3506 
31 1 11.6475 4.24943 4.2458 
40 1 15.6175 2.00333 2.00309 
44 1 13.8937 0.278996 2.00301 
54 1 13.8926 2.00443 0.277893 
63 1 8.54227 5.6299 5.62988 
67 1 10.2671 7.35536 5.6299 
77 1 10.2671 5.62992 7.35485 
88 1 13.2366 2.65692 2.76392 
95 1 10.9468 4.95038 4.95153 
97 2 13.644 2.24302 3.90098 
98 2 14.7882 2.25809 4.87809 
99 3 14.5473 2.86455 5.54938 
5 1 14.0822 1.81477 14.0825 
14 1 10.0774 5.81971 10.0789 
21 1 12.5059 3.39109 12.5059 
30 1 11.6541 4.24303 11.654 
37 1 15.616 2.00383 13.8931 
47 1 13.8932 0.282449 13.8932 
51 1 13.8928 2.00419 15.6086 
62 1 8.54456 5.63022 10.2667 
72 1 10.2668 7.3523 10.2667 
76 1 10.2669 5.63012 8.54398 
85 1 13.2025 2.69447 13.2026 
94 1 10.9567 4.94005 10.957 
3 1 14.0822 14.0818 1.81449 
12 1 10.0775 10.079 5.81995 
19 1 12.5058 12.5059 3.3912 
28 1 11.654 11.6539 4.24309 
35 1 15.6148 13.8932 2.00384 
45 1 13.8932 15.6138 2.00475 
55 1 13.8932 13.8932 0.282391 
60 1 8.54491 10.2667 5.6303 
70 1 10.2668 8.54429 5.6302 
80 1 10.2667 10.2667 7.35252 
83 1 13.2028 13.2027 2.69409 
92 1 10.9569 10.9572 4.93993 
2 1 14.082 14.0823 14.0821 
9 1 10.0774 10.0773 10.0774 
18 1 12.506 12.506 12.5059 
25 1 11.654 11.654 11.654 
34 1 15.6148 13.8931 13.8932 
42 1 13.8932 15.615 13.8932 
50 1 13.8932 13.8932 15.6147 
57 1 8.54453 10.2667 10.2667 
65 1 10.2667 8.54492 10.2667 
73 1 10.2667 10.2667 8.54521 
82 1 13.2027 13.2028 13.203 
89 1 10.9571 10.9571 10.9572 
ITEM: TIMESTEP
20
ITEM: NUMBER OF ATOMS
99
ITEM: BOX BOUNDS pp pp pp
0.0000000000000000e+00 1.6524999999999999e+01
0.0000000000000000e+00 1.6526000000000000e+01
0.0000000000000000e+00 1.6526000000000000e+01
ITEM: ATOMS id type x y z 
1 1 1.81714 1.81573 1.81549 
10 1 5.81664 5.81896 5.81895 
17 1 3.39177 3.39213 3.39217 
26 1 4.24269 4.24222 4.24222 
33 1 0.2824 2.00547 2.00736 
41 1 2.00571 0.282874 2.0057 
49 1 2.00571 2.0057 0.282295 
58 1 7.34904 5.62834 5.62835 
66 1 5.62848 7.35333 5.62851 
74 1 5.6285 5.62848 7.35329 
81 1 2.69465 2.69393 2.69388 
90 1 4.93954 4.94049 4.94048 
4 1 1.81627 1.81592 14.0814 
11 1 5.81886 5.81838 10.0781 
20 1 3.39174 3.39194 12.505 
27 1 4.24236 4.24233 11.6546 
36 1 0.281502 2.00572 13.8912 
46 1 2.00565 0.283059 13.8913 
56 1 2.00563 2.00571 15.6145 
59 1 7.35301 5.62859 10.2684 
69 1 5.62856 7.35205 10.2684 
79 1 5.62863 5.62861 8.54391 
84 1 2.69435 2.69396 13.2032 
91 1 4.94016 4.94025 10.9568 
6 1 1.81601 14.0813 1.8158 
13 1 5.81906 10.0782 5.81822 
22 1 3.3918 12.5051 3.39189 
29 1 4.24228 11.6547 4.24247 
38 1 0.283301 13.8914 2.00565 
48 1 2.0056 15.6145 2.00563 
52 1 2.00561 13.8914 0.283078 
61 1 7.35333 10.2683 5.62858 
71 1 5.62864 8.54389 5.6286 
75 1 5.62857 10.2684 7.3518 
86 1 2.6941 13.2032 2.69395 
93 1 4.94029 10.9567 4.93989 
7 1 1.81619 14.0814 14.0813 
16 1 5.81882 10.0783 10.0781 
23 1 3.39182 12.5051 12.5051 
32 1 4.24236 11.6546 11.6546 
39 1 0.282683 13.8913 13.8914 
43 1 2.00562 15.6144 13.8914 
53 1 2.00561 13.8914 15.6139 
64 1 7.35105 10.2684 10.2684 
68 1 5.62858 8.54613 10.2684 
78 1 5.62861 10.2684 8.54584 
87 1 2.69409 13.2032 13.2031 
96 1 4.94009 10.9569 10.9569 
8 1 14.0828 1.81423 1.78747 
15 1 10.0828 5.8146 5.8152 
24 1 12.4085 3.48838 3.33998 
31 1 11.6464 4.25067 4.23739 
40 1 15.6149 2.00438 2.00293 
44 1 13.8927 0.281755 2.0028 
54 1 13.8903 2.00675 0.276515 
63 1 8.54391 5.62757 5.62758 
67 1 10.2694 7.35358 5.62759 
77 1 10.2695 5.62757 7.35341 
88 1 13.2536 2.63826 2.80343 
95 1 10.9467 4.95055 4.95172 
97 2 13.6487 2.24012 3.88208 
98 2 14.7873 2.26038 4.87993 
99 3 14.5487 2.86168 5.54824 
5 1 14.0817 1.81662 14.0815 
14 1 10.078 5.81895 10.0805 
21 1 12.5046 3.39229 12.5047 
30 1 11.6546 4.24237 11.6541 
37 1 15.6156 2.00563 13.8911 
47 1 13.8912 0.281531 13.8912 
51 1 13.8907 2.00621 15.6091 
62 1 8.5436 5.62843 10.2686 
72 1 10.2686 7.35331 10.2686 
76 1 10.2687 5.62827 8.54827 
85 1 13.2029 2.69426 13.2027 
94 1 10.9564 4.94057 10.9575 
3 1 14.0811 14.0802 1.81558 
12 1 10.0782 10.0807 5.81914 
19 1 12.505 12.5052 3.39201 
28 1 11.6549 11.6544 4.24206 
35 1 15.6139 13.8913 2.00571 
45 1 13.8916 15.6153 2.00721 
55 1 13.8913 13.8913 0.281895 
60 1 8.54383 10.2686 5.62851 
70 1 10.2687 8.54842 5.62833 
80 1 10.2685 10.2685 7.35358 
83 1 13.2031 13.2025 2.6939 
92 1 10.9566 10.9576 4.94057 
2 1 14.0814 14.0817 14.0815 
9 1 10.0788 10.0782 10.0783 
18 1 12.5053 12.5053 12.5053 
25 1 11.6547 11.6548 11.6548 
34 1 15.6135 13.8914 13.8915 
42 1 13.8914 15.6137 13.8915 
50 1 13.8914 13.8915 15.6143 
57 1 8.54508 10.2685 10.2685 
65 1 10.2685 8.54387 10.2684 
73 1 10.2685 10.2684 8.54409 
82 1 13.2029 13.203 13.203 
89 1 10.957 10.9568 10.9568 
ITEM: TIMESTEP
30
ITEM: NUMBER OF ATOMS
99
ITEM: BOX BOUNDS pp pp pp
0.0000000000000000e+00 1.6524999999999999e+01
0.0000000000000000e+00 1.6526000000000000e+01
0.0000000000000000e+00 1.6526000000000000e+01
ITEM: ATOMS id type x y z 
1 1 1.81675 1.81623 1.81592 
10 1 5.81516 5.81823 5.81822 
17 1 3.39204 3.39206 3.39213 
26 1 4.24235 4.24205 4.24205 
33 1 0.280562 2.00663 2.00921 
41 1 2.00734 0.281447 2.00719 
49 1 2.00731 2.00722 0.282142 
58 1 7.35134 5.62658 5.62656 
66 1 5.62664 7.35263 5.62682 
74 1 5.62666 5.62678 7.35262 
81 1 2.69451 2.6943 2.69417 
90 1 4.93936 4.9402 4.9402 
4 1 1.81677 1.81643 14.0807 
11 1 5.81817 5.81827 10.0788 
20 1 3.39202 3.39204 12.5049 
27 1 4.24223 4.24235 11.6548 
36 1 0.282197 2.00734 13.8896 
46 1 2.00734 0.281882 13.8897 
56 1 2.0073 2.00735 15.6153 
59 1 7.35165 5.62691 10.2699 
69 1 5.627 7.35282 10.27 
79 1 5.62709 5.62694 8.54531 
84 1 2.6944 2.69431 13.2028 
91 1 4.94002 4.93985 10.957 
6 1 1.81659 14.0811 1.81617 
13 1 5.81844 10.0787 5.81797 
22 1 3.39194 12.505 3.39199 
29 1 4.24222 11.6548 4.24224 
38 1 0.281433 13.8898 2.00729 
48 1 2.00717 15.616 2.00725 
52 1 2.00721 13.8898 0.281165 
61 1 7.35183 10.2699 5.6269 
71 1 5.62712 8.54535 5.62692 
75 1 5.62702 10.27 7.35256 
86 1 2.69432 13.2029 2.69421 
93 1 4.94 10.9571 4.93989 
7 1 1.81639 14.0811 14.081 
16 1 5.81792 10.0792 10.079 
23 1 3.39189 12.5051 12.5051 
32 1 4.24215 11.6548 11.6548 
39 1 0.282365 13.8898 13.8898 
43 1 2.00718 15.6151 13.8898 
53 1 2.00719 13.8898 15.6157 
64 1 7.35288 10.2701 10.2701 
68 1 5.62689 8.5443 10.2701 
78 1 5.62691 10.2701 8.54401 
87 1 2.69429 13.2029 13.2028 
96 1 4.93992 10.9571 10.9571 
8 1 14.0784 1.8185 1.78812 
15 1 10.0823 5.81504 5.81585 
24 1 12.404 3.49259 3.33056 
31 1 11.645 4.25214 4.22836 
40 1 15.6142 2.00533 2.00262 
44 1 13.8919 0.282583 2.00241 
54 1 13.8877 2.00929 0.276202 
63 1 8.54149 5.62568 5.62577 
67 1 10.2713 7.35594 5.62579 
77 1 10.2714 5.62567 7.35626 
88 1 13.2664 2.62397 2.83109 
95 1 10.9446 4.9527 4.9536 
97 2 13.6514 2.23717 3.87001 
98 2 14.7882 2.26157 4.88179 
99 3 14.5499 2.86017 5.54889 
5 1 14.0806 1.81624 14.0811 
14 1 10.0787 5.8183 10.082 
21 1 12.5047 3.39228 12.5045 
30 1 11.6547 4.24227 11.6544 
37 1 15.6159 2.00731 13.8894 
47 1 13.8897 0.281763 13.8895 
51 1 13.8889 2.00808 15.6084 
62 1 8.5442 5.62674 10.2704 
72 1 10.2702 7.35272 10.2704 
76 1 10.2705 5.6265 8.54619 
85 1 13.2023 2.69483 13.2025 
94 1 10.9566 4.9404 10.9574 
3 1 14.0809 14.0806 1.81564 
12 1 10.0789 10.0822 5.81842 
19 1 12.5051 12.505 3.39198 
28 1 11.655 11.6547 4.24194 
35 1 15.615 13.8897 2.00716 
45 1 13.8905 15.6169 2.00896 
55 1 13.8898 13.8898 0.282038 
60 1 8.54454 10.2704 5.62682 
70 1 10.2705 8.54609 5.62655 
80 1 10.2702 10.2704 7.35286 
83 1 13.2028 13.2026 2.69411 
92 1 10.9569 10.9578 4.9402 
2 1 14.0805 14.08 14.0806 
9 1 10.079 10.0788 10.0789 
18 1 12.505 12.5051 12.505 
25 1 11.6548 11.6548 11.6548 
34 1 15.6152 13.8897 13.8896 
42 1 13.8896 15.6153 13.8896 
50 1 13.8896 13.8898 15.6161 
57 1 8.54433 10.27 10.2701 
65 1 10.2701 8.54527 10.27 
73 1 10.2701 10.27 8.54556 
82 1 13.2028 13.2027 13.2028 
89 1 10.9571 10.957 10.9571 
ITEM: TIMESTEP
40
ITEM: NUMBER OF ATOMS
99
ITEM: BOX BOUNDS pp pp pp
0.0000000000000000e+00 1.6524999999999999e+01
0.0000000000000000e+00 1.6526000000000000e+01
0.0000000000000000e+00 1.6526000000000000e+01
ITEM: ATOMS id type x y z 
1 1 1.81503 1.81668 1.81797 
10 1 5.81349 5.81806 5.81811 
17 1 3.39223 3.39194 3.39183 
26 1 4.24218 4.24147 4.24148 
33 1 0.277305 2.00866 2.0118 
41 1 2.01008 0.281665 2.00977 
49 1 2.00997 2.01 0.280307 
58 1 7.35083 5.62367 5.62361 
66 1 5.62368 7.35298 5.62399 
74 1 5.6237 5.62396 7.35265 
81 1 2.69394 2.69422 2.69442 
90 1 4.93833 4.94024 4.94025 
4 1 1.81837 1.81579 14.0815 
11 1 5.81699 5.81696 10.0799 
20 1 3.39197 3.39233 12.5046 
27 1 4.24207 4.24201 11.6549 
36 1 0.281851 2.01001 13.8867 
46 1 2.00986 0.282202 13.8871 
56 1 2.00984 2.00998 15.6154 
59 1 7.35253 5.62389 10.2727 
69 1 5.62407 7.35387 10.2729 
79 1 5.62426 5.62392 8.54426 
84 1 2.69502 2.69418 13.2029 
91 1 4.93979 4.93997 10.9572 
6 1 1.81707 14.0807 1.81646 
13 1 5.81732 10.0798 5.81666 
22 1 3.39195 12.5049 3.39207 
29 1 4.24189 11.6551 4.24199 
38 1 0.281169 13.8871 2.00996 
48 1 2.0099 15.6163 2.00989 
52 1 2.0099 13.8871 0.281626 
61 1 7.35289 10.2727 5.6239 
71 1 5.62431 8.54422 5.62392 
75 1 5.62412 10.2729 7.3535 
86 1 2.69454 13.2028 2.69429 
93 1 4.93996 10.9571 4.93967 
7 1 1.81717 14.0796 14.0805 
16 1 5.81796 10.0791 10.0789 
23 1 3.39209 12.505 12.5049 
32 1 4.24195 11.655 11.655 
39 1 0.281629 13.887 13.8868 
43 1 2.01004 15.6171 13.8869 
53 1 2.01009 13.887 15.616 
64 1 7.3517 10.2727 10.2726 
68 1 5.62434 8.54545 10.2727 
78 1 5.62435 10.2727 8.54539 
87 1 2.69439 13.2026 13.2027 
96 1 4.93983 10.9573 10.9572 
8 1 14.0735 1.8233 1.78989 
15 1 10.0818 5.81563 5.81757 
24 1 12.4019 3.49405 3.31764 
31 1 11.6386 4.25875 4.21475 
40 1 15.6104 2.00673 2.00156 
44 1 13.8906 0.285625 2.00126 
54 1 13.8829 2.01405 0.276801 
63 1 8.54216 5.62273 5.62294 
67 1 10.2743 7.35547 5.62286 
77 1 10.2744 5.6226 7.35614 
88 1 13.2791 2.6089 2.86306 
95 1 10.946 4.95153 4.95092 
97 2 13.6574 2.22826 3.86223 
98 2 14.7919 2.26274 4.88549 
99 3 14.552 2.85879 5.55192 
5 1 14.0808 1.81736 14.0811 
14 1 10.0788 5.81819 10.0834 
21 1 12.5047 3.3925 12.5045 
30 1 11.6552 4.24185 11.6542 
37 1 15.6155 2.00986 13.8866 
47 1 13.8871 0.280573 13.8867 
51 1 13.8859 2.01102 15.6078 
62 1 8.54409 5.62394 10.2734 
72 1 10.273 7.35282 10.2734 
76 1 10.2734 5.62354 8.54666 
85 1 13.202 2.6948 13.202 
94 1 10.956 4.94088 10.9584 
3 1 14.08 14.0824 1.81715 
12 1 10.0791 10.0839 5.81823 
19 1 12.5052 12.5047 3.39179 
28 1 11.6556 11.6548 4.24144 
35 1 15.615 13.887 2.00976 
45 1 13.8886 15.6207 2.01146 
55 1 13.8871 13.8872 0.281376 
60 1 8.54414 10.2734 5.62399 
70 1 10.2734 8.54613 5.62359 
80 1 10.2731 10.2734 7.35279 
83 1 13.2027 13.2033 2.69417 
92 1 10.9568 10.9589 4.9402 
2 1 14.0804 14.0798 14.081 
9 1 10.0802 10.08 10.0801 
18 1 12.5048 12.505 12.5048 
25 1 11.6551 11.6551 11.6551 
34 1 15.6147 13.887 13.887 
42 1 13.887 15.6148 13.8869 
50 1 13.887 13.8871 15.6157 
57 1 8.54327 10.273 10.273 
65 1 10.2732 8.54438 10.2728 
73 1 10.2732 10.2728 8.54468 
82 1 13.2027 13.2024 13.2029 
89 1 10.9573 10.9572 10.9573 
ITEM: TIMESTEP
46
ITEM: NUMBER OF ATOMS
99
ITEM: BOX BOUNDS pp pp pp
0.0000000000000000e+00 1.6524999999999999e+01
0.0000000000000000e+00 1.6526000000000000e+01
0.0000000000000000e+00 1.6526000000000000e+01
ITEM: ATOMS id type x y z 
1 1 1.81478 1.81668 1.81786 
10 1 5.81349 5.81799 5.81804 
17 1 3.39225 3.39194 3.39182 
26 1 4.24216 4.24149 4.24149 
33 1 0.276961 2.00866 2.01181 
41 1 2.01012 0.281885 2.00981 
49 1 2.01 2.01002 0.280583 
58 1 7.35134 5.6236 5.62354 
66 1 5.62359 7.35283 5.62391 
74 1 5.62362 5.62389 7.35265 
81 1 2.69387 2.69419 2.69441 
90 1 4.93834 4.9402 4.94021 
4 1 1.81837 1.81589 14.0814 
11 1 5.817 5.81713 10.0799 
20 1 3.39195 3.39233 12.5046 
27 1 4.24205 4.24202 11.6549 
36 1 0.282217 2.01007 13.8867 
46 1 2.00995 0.28213 13.887 
56 1 2.00993 2.01005 15.6155 
59 1 7.3523 5.62383 10.2728 
69 1 5.62403 7.35382 10.273 
79 1 5.62422 5.62386 8.54445 
84 1 2.69505 2.69418 13.2029 
91 1 4.93981 4.93995 10.9571 
6 1 1.8171 14.0806 1.81651 
13 1 5.81732 10.0798 5.8168 
22 1 3.392 12.5049 3.3921 
29 1 4.24193 11.655 4.24201 
38 1 0.281335 13.887 2.01002 
48 1 2.00998 15.6162 2.00995 
52 1 2.00998 13.8871 0.281659 
61 1 7.35258 10.2727 5.62384 
71 1 5.62427 8.54452 5.62386 
75 1 5.62407 10.273 7.35347 
86 1 2.69449 13.2028 2.69427 
93 1 4.93992 10.9571 4.93967 
7 1 1.81706 14.0797 14.0804 
16 1 5.81789 10.0792 10.079 
23 1 3.39211 12.505 12.5049 
32 1 4.24199 11.655 11.655 
39 1 0.281683 13.887 13.8868 
43 1 2.01009 15.6169 13.8869 
53 1 2.01014 13.887 15.6158 
64 1 7.35195 10.2728 10.2727 
68 1 5.62426 8.54518 10.2727 
78 1 5.62427 10.2727 8.54512 
87 1 2.69436 13.2026 13.2028 
96 1 4.93978 10.9573 10.9572 
8 1 14.0734 1.82341 1.7899 
15 1 10.0816 5.81567 5.81757 
24 1 12.402 3.49395 3.31743 
31 1 11.6387 4.25867 4.21413 
40 1 15.6108 2.00676 2.00155 
44 1 13.8905 0.285669 2.00124 
54 1 13.8828 2.01417 0.276538 
63 1 8.5418 5.62268 5.6229 
67 1 10.2744 7.35553 5.62282 
77 1 10.2745 5.62255 7.3561 
88 1 13.2792 2.60877 2.86337 
95 1 10.9458 4.95174 4.95107 
97 2 13.6575 2.22794 3.86237 
98 2 14.7921 2.26276 4.88561 
99 3 14.5521 2.85878 5.55205 
5 1 14.0807 1.81721 14.0811 
14 1 10.0789 5.81813 10.0834 
21 1 12.5046 3.39256 12.5044 
30 1 11.6551 4.24193 11.6542 
37 1 15.6152 2.00993 13.8865 
47 1 13.887 0.280561 13.8866 
51 1 13.8858 2.0111 15.608 
62 1 8.54414 5.62387 10.2735 
72 1 10.2731 7.35277 10.2735 
76 1 10.2735 5.62346 8.54668 
85 1 13.2021 2.69475 13.2021 
94 1 10.9561 4.94081 10.9584 
3 1 14.08 14.0825 1.81704 
12 1 10.0792 10.0839 5.81817 
19 1 12.5053 12.5048 3.39174 
28 1 11.6556 11.6548 4.24142 
35 1 15.6147 13.887 2.00982 
45 1 13.8886 15.6207 2.01149 
55 1 13.8871 13.8872 0.281457 
60 1 8.54431 10.2735 5.62392 
70 1 10.2735 8.546 5.62351 
80 1 10.2731 10.2735 7.35298 
83 1 13.2027 13.2034 2.6942 
92 1 10.9569 10.9589 4.94021 
2 1 14.0803 14.0797 14.0809 
9 1 10.08 10.08 10.08 
18 1 12.5048 12.505 12.5048 
25 1 11.6551 11.6551 11.6551 
34 1 15.615 13.8869 13.8869 
42 1 13.8869 15.6151 13.8868 
50 1 13.887 13.887 15.6159 
57 1 8.54333 10.273 10.273 
65 1 10.2732 8.54461 10.2729 
73 1 10.2732 10.2728 8.54471 
82 1 13.2027 13.2025 13.2029 
89 1 10.9573 10.9572 10.9573 
ITEM: TIMESTEP
47
ITEM: NUMBER OF ATOMS
99
ITEM: BOX BOUNDS pp pp pp
0.0000000000000000e+00 1.6524999999999999e+01
0.0000000000000000e+00 1.6526000000000000e+01
0.0000000000000000e+00 1.6526000000000000e+01
ITEM: ATOMS id type x y z 
1 1 1.81478 1.81668 1.81786 
10 1 5.81349 5.81799 5.81804 
17 1 3.39225 3.39194 3.39182 
26 1 4.24216 4.24149 4.24149 
33 1 0.276961 2.00866 2.01181 
41 1 2.01012 0.281885 2.00981 
49 1 2.01 2.01002 0.280583 
58 1 7.35134 5.6236 5.62354 
66 1 5.62359 7.35283 5.62391 
74 1 5.62362 5.62389 7.35265 
81 1 2.69387 2.69419 2.69441 
90 1 4.93834 4.9402 4.94021 
4 1 1.81837 1.81589 14.0814 
11 1 5.817 5.81713 10.0799 
20 1 3.39195 3.39233 12.5046 
27 1 4.24205 4.24202 11.6549 
36 1 0.282217 2.01007 13.8867 
46 1 2.00995 0.28213 13.887 
56 1 2.00993 2.01005 15.6155 
59 1 7.3523 5.62383 10.2728 
69 1 5.62403 7.35382 10.273 
79 1 5.62422 5.62386 8.54445 
84 1 2.69505 2.69418 13.2029 
91 1 4.93981 4.93995 10.9571 
6 1 1.8171 14.0806 1.81651 
13 1 5.81732 10.0798 5.8168 
22 1 3.392 12.5049 3.3921 
29 1 4.24193 11.655 4.24201 
38 1 0.281335 13.887 2.01002 
48 1 2.00998 15.6162 2.00995 
52 1 2.00998 13.8871 0.281659 
61 1 7.35258 10.2727 5.62384 
71 1 5.62427 8.54452 5.62386 
75 1 5.62407 10.273 7.35347 
86 1 2.69449 13.2028 2.69427 
93 1 4.93992 10.9571 4.93967 
7 1 1.81706 14.0797 14.0804 
16 1 5.81789 10.0792 10.079 
23 1 3.39211 12.505 12.5049 
32 1 4.24199 11.655 11.655 
39 1 0.281683 13.887 13.8868 
43 1 2.01009 15.6169 13.8869 
53 1 2.01014 13.887 15.6158 
64 1 7.35195 10.2728 10.2727 
68 1 5.62426 8.54518 10.2727 
78 1 5.62427 10.2727 8.54512 
87 1 2.69436 13.2026 13.2028 
96 1 4.93978 10.9573 10.9572 
8 1 14.0734 1.82341 1.7899 
15 1 10.0816 5.81567 5.81757 
24 1 12.402 3.49395 3.31743 
31 1 11.6387 4.25867 4.21413 
40 1 15.6108 2.00676 2.00155 
44 1 13.8905 0.285669 2.00124 
54 1 13.8828 2.01417 0.276538 
63 1 8.5418 5.62268 5.6229 
67 1 10.2744 7.35553 5.62282 
77 1 10.2745 5.62255 7.3561 
88 1 13.2792 2.60877 2.86337 
95 1 10.9458 4.95174 4.95107 
97 2 13.6575 2.22794 3.86237 
98 2 14.7921 2.26276 4.88561 
99 3 14.5521 2.85878 5.55205 
5 1 14.0807 1.81721 14.0811 
14 1 10.0789 5.81813 10.0834 
21 1 12.5046 3.39256 12.5044 
30 1 11.6551 4.24193 11.6542 
37 1 15.6152 2.00993 13.8865 
47 1 13.887 0.280561 13.8866 
51 1 13.8858 2.0111 15.608 
62 1 8.54414 5.62387 10.2735 
72 1 10.2731 7.35277 10.2735 
76 1 10.2735 5.62346 8.54668 
85 1 13.2021 2.69475 13.2021 
94 1 10.9561 4.94081 10.9584 
3 1 14.08 14.0825 1.81704 
12 1 10.0792 10.0839 5.81817 
19 1 12.5053 12.5048 3.39174 
28 1 11.6556 11.6548 4.24142 
35 1 15.6147 13.887 2.00982 
45 1 13.8886 15.6207 2.01149 
55 1 13.8871 13.8872 0.281457 
60 1 8.54431 10.2735 5.62392 
70 1 10.2735 8.546 5.62351 
80 1 10.2731 10.2735 7.35298 
83 1 13.2027 13.2034 2.6942 
92 1 10.9569 10.9589 4.94021 
2 1 14.0803 14.0797 14.0809 
9 1 10.08 10.08 10.08 
18 1 12.5048 12.505 12.5048 
25 1 11.6551 11.6551 11.6551 
34 1 15.615 13.8869 13.8869 
42 1 13.8869 15.6151 13.8868 
50 1 13.887 13.887 15.6159 
57 1 8.54333 10.273 10.273 
65 1 10.2732 8.54461 10.2729 
73 1 10.2732 10.2728 8.54471 
82 1 13.2027 13.2025 13.2029 
89 1 10.9573 10.9572 10.9573 
ITEM: TIMESTEP
50
ITEM: NUMBER OF ATOMS
99
ITEM: BOX BOUNDS pp pp pp
-7.4736818315530558e-04 1.6525747368183154e+01
-5.0953299254535367e-04 1.6526509532992545e+01
-5.0799030645548126e-04 1.6526507990306456e+01
ITEM: ATOMS id type x y z 
1 1 1.81418 1.81628 1.81745 
10 1 5.81327 5.81783 5.81788 
17 1 3.39181 3.39164 3.39152 
26 1 4.24179 4.24124 4.24125 
33 1 0.27624 2.00827 2.01142 
41 1 2.00955 0.281383 2.00943 
49 1 2.00943 2.00964 0.280105 
58 1 7.35128 5.62343 5.62337 
66 1 5.62334 7.35278 5.62375 
74 1 5.62337 5.62372 7.35263 
81 1 2.69336 2.69384 2.69407 
90 1 4.93804 4.93999 4.94 
4 1 1.81779 1.8155 14.0817 
11 1 5.81679 5.81699 10.08 
20 1 3.3915 3.39203 12.5049 
27 1 4.24169 4.24177 11.6551 
36 1 0.281473 2.00969 13.887 
46 1 2.00939 0.281601 13.8873 
56 1 2.00937 2.00967 15.6159 
59 1 7.35223 5.62367 10.2729 
69 1 5.62379 7.35376 10.2731 
79 1 5.62398 5.6237 8.54446 
84 1 2.69455 2.69384 13.2032 
91 1 4.93951 4.93975 10.9573 
6 1 1.81651 14.081 1.81612 
13 1 5.81711 10.0799 5.81667 
22 1 3.39156 12.5052 3.3918 
29 1 4.24157 11.6553 4.24176 
38 1 0.280613 13.8874 2.00964 
48 1 2.00942 15.6167 2.00957 
52 1 2.00942 13.8874 0.281119 
61 1 7.35249 10.2729 5.62367 
71 1 5.62403 8.54455 5.62369 
75 1 5.62383 10.2731 7.35343 
86 1 2.69398 13.2031 2.69393 
93 1 4.93961 10.9573 4.93947 
7 1 1.81647 14.0801 14.0808 
16 1 5.81766 10.0793 10.0791 
23 1 3.39167 12.5052 12.5051 
32 1 4.24163 11.6552 11.6552 
39 1 0.280954 13.8873 13.8871 
43 1 2.00952 15.6173 13.8872 
53 1 2.00957 13.8873 15.6163 
64 1 7.35188 10.2729 10.2728 
68 1 5.62401 8.54517 10.2729 
78 1 5.62403 10.2729 8.54508 
87 1 2.69385 13.2029 13.2031 
96 1 4.93947 10.9574 10.9574 
8 1 14.0739 1.82302 1.7895 
15 1 10.0818 5.81552 5.81743 
24 1 12.4024 3.49366 3.31712 
31 1 11.639 4.25843 4.21384 
40 1 15.6115 2.00638 2.00116 
44 1 13.891 0.285191 2.00085 
54 1 13.8833 2.0138 0.276008 
63 1 8.54182 5.62252 5.62273 
67 1 10.2746 7.35549 5.62266 
77 1 10.2747 5.62238 7.35605 
88 1 13.2796 2.60841 2.86306 
95 1 10.946 4.95153 4.95085 
97 2 13.658 2.22754 3.86212 
98 2 14.7927 2.26239 4.88542 
99 3 14.5526 2.85845 5.55189 
5 1 14.0812 1.8168 14.0815 
14 1 10.079 5.81798 10.0835 
21 1 12.5049 3.39226 12.5046 
30 1 11.6554 4.24168 11.6544 
37 1 15.6159 2.00955 13.8869 
47 1 13.8875 0.280067 13.887 
51 1 13.8863 2.01071 15.6085 
62 1 8.54413 5.6237 10.2736 
72 1 10.2733 7.35275 10.2736 
76 1 10.2737 5.62329 8.54668 
85 1 13.2025 2.69441 13.2024 
94 1 10.9563 4.9406 10.9586 
3 1 14.0805 14.0829 1.81664 
12 1 10.0793 10.084 5.81801 
19 1 12.5056 12.505 3.39143 
28 1 11.6559 11.6551 4.24117 
35 1 15.6154 13.8873 2.00944 
45 1 13.8891 15.6211 2.01111 
55 1 13.8876 13.8875 0.280985 
60 1 8.54433 10.2736 5.62375 
70 1 10.2737 8.546 5.62335 
80 1 10.2733 10.2736 7.35294 
83 1 13.2031 13.2037 2.69386 
92 1 10.9571 10.9591 4.94 
2 1 14.0808 14.0801 14.0812 
9 1 10.0802 10.0801 10.0802 
18 1 12.5052 12.5052 12.505 
25 1 11.6554 11.6553 11.6553 
34 1 15.6157 13.8873 13.8873 
42 1 13.8874 15.6155 13.8871 
50 1 13.8875 13.8874 15.6163 
57 1 8.54336 10.2731 10.2732 
65 1 10.2734 8.54462 10.273 
73 1 10.2734 10.2729 8.54474 
82 1 13.2031 13.2028 13.2032 
89 1 10.9575 10.9574 10.9574 
ITEM: TIMESTEP
55
ITEM: NUMBER OF ATOMS
99
ITEM: BOX BOUNDS pp pp pp
-7.2638917924905562e-04 1.6525726389179251e+01
-4.9261424215085931e-04 1.6526492614242148e+01
-4.9273828929581359e-04 1.6526492738289299e+01
ITEM: ATOMS id type x y z 
1 1 1.8142 1.81629 1.81746 
10 1 5.81327 5.81784 5.81789 
17 1 3.39182 3.39165 3.39153 
26 1 4.2418 4.24125 4.24125 
33 1 0.276261 2.00829 2.01143 
41 1 2.00957 0.281399 2.00944 
49 1 2.00945 2.00965 0.28012 
58 1 7.35128 5.62344 5.62337 
66 1 5.62335 7.35278 5.62375 
74 1 5.62338 5.62373 7.35263 
81 1 2.69338 2.69385 2.69408 
90 1 4.93805 4.94 4.94001 
4 1 1.8178 1.81551 14.0817 
11 1 5.8168 5.81699 10.08 
20 1 3.39152 3.39204 12.5049 
27 1 4.2417 4.24178 11.6551 
36 1 0.281493 2.00971 13.887 
46 1 2.0094 0.281617 13.8873 
56 1 2.00939 2.00968 15.6159 
59 1 7.35223 5.62367 10.2729 
69 1 5.6238 7.35376 10.2731 
79 1 5.62399 5.6237 8.54446 
84 1 2.69457 2.69385 13.2032 
91 1 4.93952 4.93975 10.9573 
6 1 1.81653 14.081 1.81613 
13 1 5.81711 10.0799 5.81667 
22 1 3.39158 12.5052 3.39181 
29 1 4.24158 11.6552 4.24177 
38 1 0.280633 13.8874 2.00966 
48 1 2.00943 15.6167 2.00959 
52 1 2.00944 13.8874 0.281133 
61 1 7.35249 10.2729 5.62367 
71 1 5.62403 8.54455 5.6237 
75 1 5.62384 10.2731 7.35343 
86 1 2.69399 13.2031 2.69394 
93 1 4.93962 10.9573 4.93948 
7 1 1.81649 14.0801 14.0808 
16 1 5.81766 10.0793 10.0791 
23 1 3.39168 12.5052 12.5051 
32 1 4.24164 11.6552 11.6552 
39 1 0.280974 13.8873 13.8871 
43 1 2.00954 15.6173 13.8872 
53 1 2.00959 13.8873 15.6163 
64 1 7.35189 10.2729 10.2728 
68 1 5.62402 8.54517 10.2729 
78 1 5.62404 10.2729 8.54508 
87 1 2.69387 13.2029 13.2031 
96 1 4.93948 10.9574 10.9574 
8 1 14.0739 1.82304 1.78951 
15 1 10.0818 5.81553 5.81743 
24 1 12.4024 3.49366 3.31713 
31 1 11.6389 4.25844 4.21385 
40 1 15.6115 2.00639 2.00118 
44 1 13.891 0.285207 2.00086 
54 1 13.8833 2.01381 0.276022 
63 1 8.54182 5.62252 5.62274 
67 1 10.2746 7.35549 5.62266 
77 1 10.2747 5.62238 7.35605 
88 1 13.2796 2.60842 2.86307 
95 1 10.946 4.95154 4.95086 
97 2 13.658 2.22755 3.86212 
98 2 14.7926 2.2624 4.88542 
99 3 14.5526 2.85846 5.55189 
5 1 14.0812 1.81681 14.0815 
14 1 10.079 5.81798 10.0835 
21 1 12.5049 3.39227 12.5046 
30 1 11.6554 4.24169 11.6544 
37 1 15.6158 2.00956 13.8869 
47 1 13.8875 0.280083 13.887 
51 1 13.8863 2.01073 15.6085 
62 1 8.54412 5.6237 10.2736 
72 1 10.2733 7.35275 10.2736 
76 1 10.2737 5.6233 8.54668 
85 1 13.2025 2.69442 13.2024 
94 1 10.9563 4.9406 10.9586 
3 1 14.0805 14.0829 1.81665 
12 1 10.0793 10.084 5.81802 
19 1 12.5056 12.505 3.39144 
28 1 11.6559 11.655 4.24118 
35 1 15.6154 13.8873 2.00945 
45 1 13.8891 15.6211 2.01112 
55 1 13.8875 13.8875 0.281 
60 1 8.54433 10.2736 5.62375 
70 1 10.2737 8.546 5.62335 
80 1 10.2733 10.2736 7.35294 
83 1 13.2031 13.2037 2.69387 
92 1 10.9571 10.9591 4.94001 
2 1 14.0808 14.0801 14.0812 
9 1 10.0802 10.0801 10.0802 
18 1 12.5052 12.5052 12.505 
25 1 11.6554 11.6553 11.6553 
34 1 15.6156 13.8873 13.8873 
42 1 13.8874 15.6155 13.8871 
50 1 13.8874 13.8874 15.6163 
57 1 8.54336 10.2731 10.2732 
65 1 10.2734 8.54462 10.273 
73 1 10.2734 10.2729 8.54474 
82 1 13.2031 13.2028 13.2032 
89 1 10.9575 10.9574 10.9574 
ITEM: TIMESTEP
56
ITEM: NUMBER OF ATOMS
99
ITEM: BOX BOUNDS pp pp pp
-7.2638917924905562e-04 1.6525726389179251e+01
-4.9261424215085931e-04 1.6526492614242148e+01
-4.9273828929581359e-04 1.6526492738289299e+01
ITEM: ATOMS id type x y z 
1 1 1.8142 1.81629 1.81746 
10 1 5.81327 5.81784 5.81789 
17 1 3.39182 3.39165 3.39153 
26 1 4.2418 4.24125 4.24125 
33 1 0.276261 2.00829 2.01143 
41 1 2.00957 0.281399 2.00944 
49 1 2.00945 2.00965 0.28012 
58 1 7.35128 5.62344 5.62337 
66 1 5.62335 7.35278 5.62375 
74 1 5.62338 5.62373 7.35263 
81 1 2.69338 2.69385 2.69408 
90 1 4.93805 4.94 4.94001 
4 1 1.8178 1.81551 14.0817 
11 1 5.8168 5.81699 10.08 
20 1 3.39152 3.39204 12.5049 
27 1 4.2417 4.24178 11.6551 
36 1 0.281493 2.00971 13.887 
46 1 2.0094 0.281617 13.8873 
56 1 2.00939 2.00968 15.6159 
59 1 7.35223 5.62367 10.2729 
69 1 5.6238 7.35376 10.2731 
79 1 5.62399 5.6237 8.54446 
84 1 2.69457 2.69385 13.2032 
91 1 4.93952 4.93975 10.9573 
6 1 1.81653 14.081 1.81613 
13 1 5.81711 10.0799 5.81667 
22 1 3.39158 12.5052 3.39181 
29 1 4.24158 11.6552 4.24177 
38 1 0.280633 13.8874 2.00966 
48 1 2.00943 15.6167 2.00959 
52 1 2.00944 13.8874 0.281133 
61 1 7.35249 10.2729 5.62367 
71 1 5.62403 8.54455 5.6237 
75 1 5.62384 10.2731 7.35343 
86 1 2.69399 13.2031 2.69394 
93 1 4.93962 10.9573 4.93948 
7 1 1.81649 14.0801 14.0808 
16 1 5.81766 10.0793 10.0791 
23 1 3.39168 12.5052 12.5051 
32 1 4.24164 11.6552 11.6552 
39 1 0.280974 13.8873 13.8871 
43 1 2.00954 15.6173 13.8872 
53 1 2.00959 13.8873 15.6163 
64 1 7.35189 10.2729 10.2728 
68 1 5.62402 8.54517 10.2729 
78 1 5.62404 10.2729 8.54508 
87 1 2.69387 13.2029 13.2031 
96 1 4.93948 10.9574 10.9574 
8 1 14.0739 1.82304 1.78951 
15 1 10.0818 5.81553 5.81743 
24 1 12.4024 3.49366 3.31713 
31 1 11.6389 4.25844 4.21385 
40 1 15.6115 2.00639 2.00118 
44 1 13.891 0.285207 2.00086 
54 1 13.8833 2.01381 0.276022 
63 1 8.54182 5.62252 5.62274 
67 1 10.2746 7.35549 5.62266 
77 1 10.2747 5.62238 7.35605 
88 1 13.2796 2.60842 2.86307 