ITEM: TIMESTEP
0
ITEM: NUMBER OF ATOMS
129
ITEM: BOX BOUNDS xy xz yz pp pp pp
0.0000000000000000e+00 2.3654499999999999e+01 7.8845000000000001e+00
0.0000000000000000e+00 1.3658086643083999e+01 0.0000000000000000e+00
0.0000000000000000e+00 2.5747000000000000e+01 0.0000000000000000e+00
ITEM: ATOMS id type x y z 
18 1 10.522 6.683 2.644 
28 1 5.247 4.273 12.803 
31 1 9.65 6.514 0.446 
62 1 9.171 5.15 12.405 
91 1 9.65 6.514 11.889 
92 1 10.81 6.18 11.007 
106 1 10.522 6.683 9.691 
127 1 10.81 6.18 1.328 
4 1 4.402 5.735 13.319 
5 1 3.307 5.568 14.201 
43 1 4.549 6.796 15.517 
52 1 9.172 5.15 25.677 
66 1 4.402 5.735 24.762 
67 1 5.003 6.76 23.881 
88 1 5.247 4.273 25.278 
107 1 3.307 5.568 23.881 
116 1 4.549 6.796 22.565 
117 1 5.003 6.76 14.201 
11 1 11.272 7.494 3.321 
12 1 10.477 8.871 4.018 
14 1 9.018 11.397 0.446 
15 1 10.114 11.565 1.328 
16 1 8.412 9.024 0.654 
19 1 10.477 8.871 5.569 
29 1 10.927 10.156 3.321 
32 1 8.77 7.648 1.328 
35 1 12.036 9.594 2.644 
45 1 9.231 8.963 3.321 
47 1 12.762 8.702 0.446 
49 1 11.224 11 0.654 
51 1 8.872 10.337 2.644 
53 1 11.272 7.494 9.014 
54 1 10.477 8.871 8.317 
56 1 9.018 11.397 11.889 
57 1 8.418 10.372 11.007 
58 1 11.224 11 11.681 
60 1 12.255 7.901 9.691 
61 1 10.477 8.871 6.766 
73 1 9.231 8.963 9.014 
75 1 12.762 8.702 11.889 
76 1 12.202 10.061 11.007 
79 1 9.224 7.617 9.691 
80 1 8.174 12.859 12.405 
89 1 10.927 10.156 9.014 
93 1 8.412 9.024 11.681 
95 1 9.951 11.095 9.691 
105 1 10.114 11.565 11.007 
109 1 8.77 7.648 11.007 
110 1 12.036 9.594 9.691 
114 1 8.872 10.337 9.691 
119 1 8.418 10.372 1.328 
120 1 12.255 7.901 2.644 
123 1 12.202 10.061 1.328 
124 1 9.224 7.617 2.644 
128 1 9.951 11.095 2.644 
6 1 5.009 8.108 13.527 
13 1 9.663 10.28 25.128 
17 1 9.204 8.965 25.162 
30 1 10.016 7.556 25.128 
34 1 11.289 7.464 25.162 
36 1 8.174 12.859 25.677 
46 1 11.752 8.777 25.128 
50 1 10.937 10.184 25.162 
55 1 9.663 10.28 12.954 
59 1 10.937 10.184 12.919 
74 1 11.752 8.777 12.954 
78 1 11.289 7.464 12.919 
90 1 10.016 7.556 12.954 
94 1 9.204 8.965 12.919 
101 1 5.009 8.108 24.555 
33 1 11.795 6.589 0.654 
77 1 11.795 6.589 11.681 
41 1 17.967 6.132 13.527 
68 1 17.967 6.132 24.554 
103 1 19.24 6.037 22.565 
126 1 19.24 6.037 15.517 
3 1 19.528 6.852 12.254 
7 1 19.987 8.167 12.289 
10 1 15.106 8.528 12.804 
22 1 19.175 9.576 12.254 
26 1 17.902 9.668 12.289 
38 1 17.439 8.356 12.254 
42 1 18.254 6.949 12.289 
44 1 20.019 11.982 12.804 
48 1 12.546 7.4 1.328 
65 1 19.528 6.852 0.081 
69 1 18.254 6.949 0.046 
82 1 17.439 8.356 0.081 
86 1 17.902 9.668 0.046 
96 1 14.084 8.604 12.405 
98 1 19.175 9.576 0.081 
102 1 19.987 8.167 0.046 
113 1 12.546 7.4 11.007 
1 1 17.919 9.638 16.194 
2 1 18.714 8.261 16.892 
8 1 18.669 10.449 15.517 
9 1 18.714 8.261 18.442 
20 1 14.084 8.604 25.677 
21 1 18.264 6.977 16.194 
23 1 19.541 10.618 13.32 
24 1 20.421 9.484 14.201 
25 1 17.396 10.544 13.527 
27 1 17.155 7.538 15.517 
37 1 19.96 8.169 16.194 
39 1 16.429 8.43 13.319 
40 1 16.644 9.732 14.201 
63 1 17.919 9.638 21.888 
64 1 18.714 8.261 21.19 
70 1 16.936 9.231 22.565 
71 1 18.714 8.261 19.64 
72 1 20.019 11.982 25.278 
81 1 19.96 8.169 21.888 
83 1 16.429 8.43 24.762 
84 1 16.989 7.071 23.881 
85 1 17.396 10.544 24.555 
87 1 19.967 9.515 22.565 
97 1 18.263 6.977 21.888 
99 1 19.541 10.618 24.762 
100 1 18.38 10.953 23.881 
104 1 15.106 8.528 25.278 
108 1 18.669 10.449 22.565 
111 1 20.421 9.484 23.881 
112 1 17.155 7.538 22.565 
115 1 16.644 9.732 23.881 
118 1 16.936 9.231 15.517 
121 1 16.989 7.071 14.201 
122 1 19.967 9.515 15.517 
125 1 18.38 10.953 14.201 
129 2 16.715 11.3 13.125 
ITEM: TIMESTEP
10
ITEM: NUMBER OF ATOMS
129
ITEM: BOX BOUNDS xy xz yz pp pp pp
0.0000000000000000e+00 2.3654499999999999e+01 7.8845000000000001e+00
0.0000000000000000e+00 1.3658086643083999e+01 0.0000000000000000e+00
0.0000000000000000e+00 2.5747000000000000e+01 0.0000000000000000e+00
ITEM: ATOMS id type x y z 
18 1 10.385 6.69904 2.68277 
28 1 5.14514 4.48017 12.8649 
31 1 9.42282 6.47008 0.39848 
62 1 9.14961 5.26385 12.3727 
91 1 9.42125 6.46422 11.926 
92 1 10.8536 6.16441 11.0207 
106 1 10.3887 6.69819 9.6652 
127 1 10.8431 6.14711 1.31247 
4 1 4.44704 5.7883 13.2483 
5 1 3.22941 5.54769 14.2137 
43 1 4.60668 6.91423 15.4818 
52 1 9.15029 5.26278 25.7092 
66 1 4.43979 5.78618 24.8276 
67 1 5.08328 6.9074 23.8999 
88 1 5.14837 4.47525 25.2174 
107 1 3.22423 5.58445 23.8647 
116 1 4.59427 6.92627 22.5896 
117 1 5.09099 6.90567 14.1846 
11 1 11.3481 7.58013 3.38089 
12 1 10.4876 8.8286 4.12057 
14 1 8.98188 11.3469 0.384448 
15 1 10.2021 11.5567 1.34133 
16 1 8.4401 8.96105 0.702767 
19 1 10.4722 8.86726 5.54658 
29 1 10.9486 10.1565 3.34834 
32 1 8.72361 7.68788 1.27264 
35 1 12.0296 9.58507 2.59178 
45 1 9.23954 8.96418 3.27132 
47 1 12.7734 8.74268 0.535667 
49 1 11.2848 11.0019 0.682168 
51 1 8.82323 10.2026 2.61341 
53 1 11.3631 7.58301 8.9727 
54 1 10.506 8.83679 8.21641 
56 1 8.99156 11.3494 11.9312 
57 1 8.34119 10.2408 11.0318 
58 1 11.3121 10.9339 11.6747 
60 1 12.2637 8.02621 9.62936 
61 1 10.4745 8.87044 6.77743 
73 1 9.21769 8.96298 9.06345 
75 1 12.7466 8.77813 11.7719 
76 1 12.2337 10.0504 11.0219 
79 1 9.18551 7.66791 9.78093 
80 1 8.27828 12.6486 12.3413 
89 1 10.9526 10.1566 8.99623 
93 1 8.43801 8.94755 11.631 
95 1 10.0307 11.0609 9.71007 
105 1 10.2138 11.5319 11.0079 
109 1 8.73033 7.68872 11.0555 
110 1 12.042 9.5942 9.75287 
114 1 8.82337 10.2082 9.72976 
119 1 8.32953 10.23 1.31441 
120 1 12.2761 8.04041 2.71044 
123 1 12.2164 10.0607 1.23816 
124 1 9.18788 7.68352 2.57443 
128 1 10.027 11.0597 2.62831 
6 1 4.96756 8.16867 13.5712 
13 1 9.57175 10.325 25.1309 
17 1 9.18421 8.94637 25.167 
30 1 9.95357 7.70267 25.0881 
34 1 11.2919 7.4728 25.1206 
36 1 8.27486 12.6534 25.737 
46 1 11.6797 8.7962 25.0585 
50 1 11.0513 10.1119 25.2407 
55 1 9.60721 10.2854 12.973 
59 1 10.9786 10.1106 12.8812 
74 1 11.6718 8.84357 13.0084 
78 1 11.2908 7.49359 12.9518 
90 1 9.93761 7.70517 13.0005 
94 1 9.1912 8.96044 12.9016 
101 1 4.96669 8.17779 24.5084 
33 1 11.74 6.5651 0.674173 
77 1 11.7297 6.57284 11.652 
41 1 17.8938 6.1302 13.5385 
68 1 17.9229 6.10265 24.5135 
103 1 19.1513 6.07976 22.5793 
126 1 19.1589 6.08346 15.5224 
3 1 19.6303 6.80261 12.2672 
7 1 20.0049 8.17982 12.2996 
10 1 15.1312 8.47864 12.8378 
22 1 19.2138 9.41186 12.2172 
26 1 17.9031 9.63538 12.2413 
38 1 17.547 8.34544 12.151 
42 1 18.148 7.02014 12.3836 
44 1 20.0513 11.9033 12.8175 
48 1 12.6073 7.52667 1.38007 
65 1 19.6663 6.80323 0.0679216 
69 1 18.1816 7.04867 -0.0308638 
82 1 17.5101 8.37169 0.1744 
86 1 17.8933 9.67696 0.090568 
96 1 14.038 8.65958 12.3636 
98 1 19.2321 9.4206 0.109006 
102 1 19.9547 8.13922 0.0309657 
113 1 12.5967 7.53561 10.958 
1 1 17.9668 9.57146 16.2798 
2 1 18.6507 8.36921 16.98 
8 1 18.7953 10.4167 15.5451 
9 1 18.7143 8.26693 18.4385 
20 1 14.041 8.65648 25.716 
21 1 18.2369 6.98461 16.2114 
23 1 19.7063 10.6757 13.3406 
24 1 20.4473 9.42397 14.1569 
25 1 17.3205 10.5623 13.4932 
27 1 17.1545 7.55509 15.4765 
37 1 19.9827 8.1711 16.1392 
39 1 16.4182 8.3937 13.4163 
40 1 16.5528 9.56568 14.2791 
63 1 17.9096 9.59067 21.7855 
64 1 18.7051 8.29281 21.1015 
70 1 16.8544 9.06219 22.5432 
71 1 18.7193 8.26212 19.6455 
72 1 20.0429 11.8774 25.2482 
81 1 19.9431 8.17353 21.9386 
83 1 16.3989 8.41151 24.6664 
84 1 16.9743 7.05696 23.9876 
85 1 17.4444 10.5661 24.5296 
87 1 19.9949 9.45321 22.652 
97 1 18.2559 6.98634 21.8654 
99 1 19.7751 10.6493 24.803 
100 1 18.3489 10.9793 23.8814 
104 1 15.1437 8.4751 25.2391 
108 1 18.8166 10.4202 22.5425 
111 1 20.4441 9.4251 23.9364 
112 1 17.1746 7.55044 22.5907 
115 1 16.5848 9.60468 23.8277 
118 1 16.8858 9.0456 15.5463 
121 1 16.9823 7.05485 14.096 
122 1 20.0034 9.45071 15.4376 
125 1 18.5314 10.9388 14.2807 
129 2 16.684 11.3973 13.0735 
ITEM: TIMESTEP
20
ITEM: NUMBER OF ATOMS
129
ITEM: BOX BOUNDS xy xz yz pp pp pp
0.0000000000000000e+00 2.3654499999999999e+01 7.8845000000000001e+00
0.0000000000000000e+00 1.3658086643083999e+01 0.0000000000000000e+00
0.0000000000000000e+00 2.5747000000000000e+01 0.0000000000000000e+00
ITEM: ATOMS id type x y z 
18 1 10.3916 6.7598 2.63714 
28 1 5.11695 4.55171 12.8797 
31 1 9.43086 6.5259 0.414702 
62 1 9.11614 5.27431 12.3755 
91 1 9.45178 6.51363 11.8964 
92 1 10.7015 6.19671 10.9514 
106 1 10.3967 6.74758 9.7109 
127 1 10.7302 6.16866 1.39638 
4 1 4.4462 5.80216 13.2844 
5 1 3.20549 5.59894 14.2095 
43 1 4.58839 6.94395 15.4856 
52 1 9.11114 5.27055 25.7024 
66 1 4.44449 5.79219 24.8032 
67 1 5.07831 6.9375 23.8897 
88 1 5.11681 4.55495 25.1981 
107 1 3.20026 5.61495 23.8712 
116 1 4.57983 6.94573 22.5949 
117 1 5.07777 6.9216 14.1866 
11 1 11.3326 7.57847 3.36912 
12 1 10.49 8.85235 4.09115 
14 1 8.97741 11.3271 0.404443 
15 1 10.2289 11.5244 1.33531 
16 1 8.39778 8.92195 0.689602 
19 1 10.4698 8.86576 5.56336 
29 1 10.9489 10.1393 3.33818 
32 1 8.70987 7.66891 1.27455 
35 1 12.0375 9.61516 2.57982 
45 1 9.22802 8.94109 3.2656 
47 1 12.7394 8.77862 0.534102 
49 1 11.3364 10.9753 0.662817 
51 1 8.83701 10.181 2.61507 
53 1 11.3329 7.57924 8.97455 
54 1 10.4899 8.85201 8.24552 
56 1 8.98805 11.3262 11.9257 
57 1 8.34456 10.2079 11.0272 
58 1 11.3489 10.9458 11.675 
60 1 12.2612 8.03258 9.60511 
61 1 10.4717 8.86807 6.77271 
73 1 9.2297 8.93753 9.07234 
75 1 12.7171 8.81122 11.7867 
76 1 12.2613 10.0745 10.9996 
79 1 9.20096 7.66155 9.7773 
80 1 8.31412 12.5656 12.3193 
89 1 10.9514 10.137 8.99927 
93 1 8.38643 8.92389 11.6391 
95 1 10.0293 11.0421 9.69734 
105 1 10.2353 11.4972 11.0123 
109 1 8.71314 7.66004 11.0565 
110 1 12.0477 9.61815 9.73238 
114 1 8.84545 10.1851 9.72722 
119 1 8.33836 10.2054 1.31239 
120 1 12.2644 8.03141 2.71969 
123 1 12.2426 10.0734 1.30437 
124 1 9.20186 7.65903 2.55831 
128 1 10.0271 11.043 2.6426 
6 1 5.02343 8.19975 13.5639 
13 1 9.63197 10.2658 25.1006 
17 1 9.16857 8.93737 25.168 
30 1 9.92377 7.7075 25.0813 
34 1 11.2657 7.49024 25.1685 
36 1 8.30908 12.5682 25.7548 
46 1 11.6793 8.82467 25.0697 
50 1 11.0033 10.1338 25.2194 
55 1 9.61433 10.2668 13.008 
59 1 10.9881 10.1322 12.8902 
74 1 11.6779 8.84492 13.0105 
78 1 11.2699 7.50571 12.9103 
90 1 9.91397 7.69448 13.006 
94 1 9.16099 8.93964 12.9131 
101 1 5.01399 8.19312 24.5061 
33 1 11.7857 6.6623 0.633264 
77 1 11.7739 6.65766 11.7022 
41 1 17.8526 6.15007 13.536 
68 1 17.865 6.16064 24.5256 
103 1 19.1567 6.09988 22.5615 
126 1 19.1525 6.10149 15.5279 
3 1 19.5596 6.8581 12.2306 
7 1 20.0308 8.18993 12.2803 
10 1 15.1422 8.47077 12.844 
22 1 19.2546 9.42012 12.214 
26 1 17.9269 9.61101 12.2678 
38 1 17.5171 8.29772 12.1788 
42 1 18.1925 6.98957 12.3452 
44 1 20.0753 11.8942 12.8134 
48 1 12.5657 7.52679 1.38573 
65 1 19.589 6.80559 0.110818 
69 1 18.2277 7.04554 -0.00949314 
82 1 17.4989 8.3325 0.121843 
86 1 17.9074 9.65195 0.081391 
96 1 14.0439 8.67524 12.3634 
98 1 19.2469 9.43699 0.122017 
102 1 19.9786 8.15585 0.0576395 
113 1 12.5732 7.52332 10.9491 
1 1 17.9549 9.5626 16.2902 
2 1 18.672 8.33306 16.9425 
8 1 18.8186 10.3913 15.5399 
9 1 18.7137 8.27369 18.4361 
20 1 14.0505 8.66811 25.7131 
21 1 18.2469 7.01011 16.1987 
23 1 19.7063 10.6275 13.3541 
24 1 20.4714 9.45296 14.1614 
25 1 17.3206 10.5644 13.4957 
27 1 17.1417 7.51778 15.4521 
37 1 19.98 8.18334 16.1426 
39 1 16.4727 8.34806 13.4094 
40 1 16.5833 9.54339 14.2935 
63 1 17.9546 9.57336 21.8042 
64 1 18.6828 8.30974 21.1398 
70 1 16.8784 9.03941 22.533 
71 1 18.7208 8.26341 19.6396 
72 1 20.0792 11.8712 25.2514 
81 1 19.9683 8.18918 21.9448 
83 1 16.4593 8.34404 24.6971 
84 1 16.971 7.05421 23.9247 
85 1 17.4644 10.542 24.5115 
87 1 19.9874 9.4665 22.6458 
97 1 18.2455 7.00574 21.8775 
99 1 19.7622 10.6086 24.7967 
100 1 18.3886 10.9431 23.8475 
104 1 15.1411 8.46286 25.242 
108 1 18.798 10.3634 22.5518 
111 1 20.4812 9.44803 23.9307 
112 1 17.1468 7.53354 22.6336 
115 1 16.5991 9.5902 23.7964 
118 1 16.8875 9.04674 15.5403 
121 1 16.9531 7.04481 14.1679 
122 1 20.0191 9.4479 15.4393 
125 1 18.5565 10.8913 14.2753 
129 2 16.6893 11.3968 13.0763 
ITEM: TIMESTEP
30
ITEM: NUMBER OF ATOMS
129
ITEM: BOX BOUNDS xy xz yz pp pp pp
0.0000000000000000e+00 2.3654499999999999e+01 7.8845000000000001e+00
0.0000000000000000e+00 1.3658086643083999e+01 0.0000000000000000e+00
0.0000000000000000e+00 2.5747000000000000e+01 0.0000000000000000e+00
ITEM: ATOMS id type x y z 
18 1 10.3804 6.76103 2.66729 
28 1 5.10028 4.60655 12.8916 
31 1 9.4598 6.56482 0.445905 
62 1 9.06984 5.26334 12.3926 
91 1 9.44045 6.56452 11.8926 
92 1 10.6352 6.24903 10.9662 
106 1 10.3681 6.76119 9.6825 
127 1 10.6204 6.25668 1.34763 
4 1 4.41672 5.8515 13.2894 
5 1 3.17724 5.6641 14.204 
43 1 4.57496 6.95845 15.4771 
52 1 9.07357 5.28418 25.6976 
66 1 4.42899 5.83883 24.7903 
67 1 5.07688 6.974 23.8937 
88 1 5.1073 4.59582 25.1888 
107 1 3.16069 5.66101 23.8739 
116 1 4.57461 6.96803 22.6012 
117 1 5.0748 6.96597 14.1872 
11 1 11.3299 7.59556 3.3636 
12 1 10.4932 8.8445 4.09075 
14 1 9.00624 11.2741 0.41275 
15 1 10.2431 11.4644 1.32648 
16 1 8.3395 8.89576 0.665557 
19 1 10.4678 8.86706 5.55653 
29 1 10.9466 10.1234 3.33392 
32 1 8.67018 7.64584 1.26665 
35 1 12.0618 9.62953 2.6032 
45 1 9.22466 8.93067 3.26073 
47 1 12.6751 8.8204 0.537551 
49 1 11.3745 10.9634 0.644566 
51 1 8.85371 10.1664 2.60721 
53 1 11.3302 7.59398 8.96503 
54 1 10.4898 8.84785 8.24469 
56 1 9.00619 11.2653 11.932 
57 1 8.35361 10.1654 11.0268 
58 1 11.3792 10.9442 11.6893 
60 1 12.267 8.05521 9.59305 
61 1 10.4668 8.86482 6.77965 
73 1 9.22753 8.92905 9.07324 
75 1 12.6882 8.83909 11.8019 
76 1 12.2921 10.0792 10.9956 
79 1 9.18801 7.65202 9.77677 
80 1 8.33023 12.5136 12.3089 
89 1 10.9472 10.1213 8.99509 
93 1 8.32872 8.89184 11.6663 
95 1 10.0373 11.0404 9.69107 
105 1 10.2499 11.4533 11.0129 
109 1 8.67171 7.64926 11.0549 
110 1 12.0752 9.63254 9.71859 
114 1 8.85346 10.1682 9.73264 
119 1 8.34727 10.1578 1.31074 
120 1 12.2667 8.04451 2.73119 
123 1 12.283 10.0843 1.32958 
124 1 9.18402 7.65545 2.55957 
128 1 10.0253 11.0429 2.64952 
6 1 5.0795 8.22945 13.5462 
13 1 9.63842 10.2289 25.0778 
17 1 9.14889 8.9223 25.1641 
30 1 9.90815 7.71024 25.0793 
34 1 11.2544 7.51056 25.2049 
36 1 8.32469 12.5152 25.7655 
46 1 11.6711 8.85109 25.0955 
50 1 11.0047 10.1376 25.2097 
55 1 9.6226 10.2328 13.014 
59 1 10.9968 10.1411 12.8863 
74 1 11.6699 8.85294 12.9847 
78 1 11.2659 7.51391 12.878 
90 1 9.90833 7.71386 13.0132 
94 1 9.14304 8.93277 12.9189 
101 1 5.04662 8.22737 24.5208 
33 1 11.7662 6.69312 0.624878 
77 1 11.7519 6.69489 11.7247 
41 1 17.8185 6.16357 13.5194 
68 1 17.8469 6.19933 24.5395 
103 1 19.15 6.09455 22.5496 
126 1 19.1569 6.09153 15.5288 
3 1 19.5521 6.89488 12.2104 
7 1 20.0587 8.19681 12.2713 
10 1 15.1509 8.4668 12.8442 
22 1 19.2739 9.42495 12.208 
26 1 17.9512 9.58013 12.2856 
38 1 17.4939 8.26928 12.2239 
42 1 18.1939 6.97081 12.3238 
44 1 20.1077 11.885 12.8081 
48 1 12.5627 7.57589 1.38226 
65 1 19.5969 6.82356 0.13404 
69 1 18.24 7.02516 0.0407386 
82 1 17.4843 8.31824 0.0932202 
86 1 17.9283 9.64286 0.0737972 
96 1 14.0586 8.68103 12.3694 
98 1 19.2637 9.43663 0.139593 
102 1 19.9912 8.17069 0.068683 
113 1 12.582 7.58339 10.9481 
1 1 17.9526 9.54634 16.2905 
2 1 18.6759 8.34125 16.9305 
8 1 18.8347 10.3773 15.5452 
9 1 18.7157 8.27586 18.4352 
20 1 14.0522 8.6747 25.7133 
21 1 18.2536 7.01964 16.1952 
23 1 19.7333 10.5914 13.3529 
24 1 20.5167 9.46645 14.1623 
25 1 17.3366 10.5562 13.4955 
27 1 17.1062 7.50584 15.4845 
37 1 19.9953 8.19234 16.1372 
39 1 16.5008 8.29841 13.41 
40 1 16.6063 9.49134 14.2672 
63 1 17.9554 9.55397 21.7909 
64 1 18.679 8.32831 21.1439 
70 1 16.8788 9.02562 22.5292 
71 1 18.7202 8.26827 19.6399 
72 1 20.1272 11.856 25.2529 
81 1 19.9834 8.19261 21.9498 
83 1 16.5153 8.30145 24.6827 
84 1 16.9147 7.02862 23.8954 
85 1 17.4704 10.4949 24.5029 
87 1 20.009 9.46987 22.6545 
97 1 18.2538 7.0192 21.8861 
99 1 19.7939 10.5741 24.7943 
100 1 18.4102 10.9127 23.8345 
104 1 15.1463 8.45287 25.2436 
108 1 18.83 10.3497 22.5469 
111 1 20.5194 9.46724 23.9364 
112 1 17.1114 7.5221 22.6024 
115 1 16.615 9.54346 23.8092 
118 1 16.8879 9.02915 15.5478 
121 1 16.8989 7.04394 14.178 
122 1 20.0415 9.45117 15.4447 
125 1 18.5701 10.8423 14.2672 
129 2 16.6989 11.3925 13.0815 
ITEM: TIMESTEP
40
ITEM: NUMBER OF ATOMS
129
ITEM: BOX BOUNDS xy xz yz pp pp pp
0.0000000000000000e+00 2.3654499999999999e+01 7.8845000000000001e+00
0.0000000000000000e+00 1.3658086643083999e+01 0.0000000000000000e+00
0.0000000000000000e+00 2.5747000000000000e+01 0.0000000000000000e+00
ITEM: ATOMS id type x y z 
18 1 10.3526 6.76342 2.63859 
28 1 5.08483 4.6506 12.9016 
31 1 9.40227 6.58144 0.415259 
62 1 9.04606 5.28813 12.3939 
91 1 9.40964 6.57078 11.9138 
92 1 10.6284 6.27404 10.9674 
106 1 10.3661 6.77956 9.67791 
127 1 10.6576 6.27245 1.39804 
4 1 4.40948 5.88167 13.2856 
5 1 3.16874 5.67797 14.1941 
43 1 4.57628 6.96236 15.478 
52 1 9.03525 5.26136 25.6769 
66 1 4.42017 5.85577 24.7892 
67 1 5.07799 6.98984 23.9037 
88 1 5.09761 4.62942 25.1789 
107 1 3.16473 5.68036 23.8789 
116 1 4.57146 6.96594 22.6036 
117 1 5.07723 6.97232 14.1679 
11 1 11.3451 7.60578 3.37348 
12 1 10.4882 8.84228 4.09446 
14 1 9.00928 11.2396 0.403869 
15 1 10.2584 11.4518 1.32284 
16 1 8.30662 8.87643 0.665841 
19 1 10.4656 8.8645 5.55775 
29 1 10.948 10.1252 3.33706 
32 1 8.6348 7.65389 1.28986 
35 1 12.0756 9.63294 2.61164 
45 1 9.22536 8.92198 3.26786 
47 1 12.6995 8.84427 0.524715 
49 1 11.3903 10.9513 0.656068 
51 1 8.85126 10.1597 2.60208 
53 1 11.3299 7.59589 8.9705 
54 1 10.4909 8.83615 8.23938 
56 1 9.01391 11.2382 11.9366 
57 1 8.34696 10.1409 11.0352 
58 1 11.3916 10.9374 11.6827 
60 1 12.264 8.06283 9.59293 
61 1 10.4651 8.8639 6.77533 
73 1 9.22666 8.92947 9.0702 
75 1 12.6979 8.85551 11.8084 
76 1 12.3167 10.0888 10.9905 
79 1 9.16928 7.65184 9.77478 
80 1 8.33915 12.4808 12.3039 
89 1 10.9553 10.1208 8.99652 
93 1 8.3082 8.8779 11.6698 
95 1 10.0373 11.026 9.6919 
105 1 10.2632 11.4414 11.0191 
109 1 8.64387 7.63685 11.0629 
110 1 12.0814 9.64126 9.71243 
114 1 8.85697 10.16 9.73682 
119 1 8.34714 10.1483 1.29947 
120 1 12.2638 8.0615 2.73141 
123 1 12.3064 10.0962 1.3379 
124 1 9.16815 7.65269 2.55755 
128 1 10.036 11.029 2.64576 
6 1 5.10296 8.24545 13.5321 
13 1 9.62485 10.2333 25.0823 
17 1 9.13433 8.92046 25.1519 
30 1 9.91593 7.72508 25.0596 
34 1 11.2567 7.51706 25.1947 
36 1 8.33668 12.4766 25.7732 
46 1 11.6655 8.84692 25.0956 
50 1 11.0047 10.1469 25.1973 
55 1 9.62535 10.2327 13.0105 
59 1 10.9941 10.1446 12.8932 
74 1 11.6642 8.85352 12.9819 
78 1 11.2482 7.52031 12.8921 
90 1 9.91507 7.71762 13.0049 
94 1 9.13049 8.91693 12.9253 
101 1 5.05936 8.24268 24.5348 
33 1 11.749 6.70619 0.652933 
77 1 11.7548 6.71975 11.6793 
41 1 17.8015 6.18001 13.5217 
68 1 17.8318 6.21923 24.5534 
103 1 19.1493 6.10422 22.5524 
126 1 19.1474 6.10313 15.5252 
3 1 19.5673 6.89441 12.2151 
7 1 20.0745 8.20673 12.2682 
10 1 15.1379 8.45523 12.8357 
22 1 19.2832 9.40233 12.2064 
26 1 17.9441 9.59106 12.2766 
38 1 17.5279 8.26255 12.216 
42 1 18.1843 6.96588 12.31 
44 1 20.1261 11.8659 12.8106 
48 1 12.5609 7.59729 1.38561 
65 1 19.6107 6.82007 0.144657 
69 1 18.2382 7.03114 0.0432264 
82 1 17.5127 8.31699 0.0961158 
86 1 17.9218 9.64345 0.0762836 
96 1 14.0508 8.69126 12.3671 
98 1 19.2604 9.43558 0.148559 
102 1 20.0024 8.16272 0.0694409 
113 1 12.5598 7.59553 10.957 
1 1 17.9494 9.55365 16.2854 
2 1 18.6813 8.34761 16.9382 
8 1 18.8378 10.3597 15.5519 
9 1 18.7169 8.27746 18.4367 
20 1 14.0502 8.67991 25.7141 
21 1 18.2575 7.02307 16.1925 
23 1 19.754 10.587 13.3495 
24 1 20.545 9.48281 14.1617 
25 1 17.3334 10.5476 13.5033 
27 1 17.0936 7.48909 15.4929 
37 1 19.9934 8.19251 16.1397 
39 1 16.4935 8.27701 13.4192 
40 1 16.6178 9.48244 14.2713 
63 1 17.9597 9.55829 21.7945 
64 1 18.6888 8.33396 21.1388 
70 1 16.8779 9.01301 22.5212 
71 1 18.72 8.2721 19.6416 
72 1 20.1574 11.8373 25.2498 
81 1 19.9835 8.20543 21.9479 
83 1 16.4904 8.27545 24.6788 
84 1 16.8833 7.03391 23.8936 
85 1 17.4852 10.4766 24.4946 
87 1 20.029 9.46859 22.6576 
97 1 18.2455 7.0277 21.8854 
99 1 19.81 10.574 24.7979 
100 1 18.4248 10.8941 23.8396 
104 1 15.1451 8.44368 25.2469 
108 1 18.835 10.3366 22.5367 
111 1 20.5449 9.47811 23.9377 
112 1 17.0984 7.50358 22.5869 
115 1 16.6232 9.51423 23.8092 
118 1 16.8909 9.01349 15.5487 
121 1 16.8698 7.01902 14.2001 
122 1 20.0604 9.45649 15.4411 
125 1 18.5951 10.8274 14.2577 
129 2 16.7072 11.3877 13.0863 
ITEM: TIMESTEP
50
ITEM: NUMBER OF ATOMS
129
ITEM: BOX BOUNDS xy xz yz pp pp pp
0.0000000000000000e+00 2.3654499999999999e+01 7.8845000000000001e+00
0.0000000000000000e+00 1.3658086643083999e+01 0.0000000000000000e+00
0.0000000000000000e+00 2.5747000000000000e+01 0.0000000000000000e+00
ITEM: ATOMS id type x y z 
18 1 10.3594 6.78039 2.65714 
28 1 5.09117 4.64576 12.898 
31 1 9.40492 6.57527 0.422122 
62 1 9.033 5.287 12.3983 
91 1 9.40466 6.57355 11.9111 
92 1 10.6193 6.28285 10.9665 
106 1 10.3572 6.78055 9.68024 
127 1 10.6246 6.2836 1.37343 
4 1 4.40503 5.88974 13.2842 
5 1 3.15341 5.68713 14.1992 
43 1 4.5775 6.96713 15.4693 
52 1 9.02968 5.29211 25.6849 
66 1 4.41906 5.86579 24.7926 
67 1 5.08059 7.00184 23.8981 
88 1 5.1028 4.62668 25.1799 
107 1 3.14923 5.68947 23.8774 
116 1 4.57361 6.97133 22.6071 
117 1 5.08208 6.99358 14.1794 
11 1 11.3299 7.59802 3.36952 
12 1 10.4934 8.83586 4.09376 
14 1 9.01402 11.233 0.405388 
15 1 10.2646 11.4437 1.3252 
16 1 8.3028 8.87353 0.660365 
19 1 10.4647 8.86362 5.55847 
29 1 10.9505 10.1187 3.33655 
32 1 8.6341 7.63632 1.27595 
35 1 12.079 9.64485 2.61496 
45 1 9.22299 8.92537 3.26363 
47 1 12.6949 8.85178 0.528119 
49 1 11.3929 10.9478 0.650649 
51 1 8.8516 10.1546 2.59635 
53 1 11.3343 7.59972 8.96715 
54 1 10.4931 8.83566 8.24056 
56 1 9.01542 11.23 11.9346 
57 1 8.34484 10.1335 11.0317 
58 1 11.3961 10.9344 11.6868 
60 1 12.2649 8.06685 9.59402 
61 1 10.4644 8.86285 6.77591 
73 1 9.22497 8.92616 9.07164 
75 1 12.6942 8.85868 11.8048 
76 1 12.3263 10.0913 10.9884 
79 1 9.16005 7.65364 9.77752 
80 1 8.33799 12.4759 12.3047 
89 1 10.9536 10.1174 8.99554 
93 1 8.30039 8.87177 11.6755 
95 1 10.0399 11.0247 9.6942 
105 1 10.2672 11.4354 11.0156 
109 1 8.63307 7.63402 11.0566 
110 1 12.0873 9.64369 9.71046 
114 1 8.85481 10.156 9.74128 
119 1 8.3431 10.1318 1.30599 
120 1 12.267 8.06414 2.73704 
123 1 12.3177 10.0954 1.34214 
124 1 9.15898 7.6527 2.556 
128 1 10.034 11.0282 2.64253 
6 1 5.10996 8.24832 13.5299 
13 1 9.63223 10.22 25.0772 
17 1 9.12535 8.91657 25.1544 
30 1 9.91173 7.71618 25.0689 
34 1 11.2517 7.52022 25.2004 
36 1 8.33308 12.4761 25.7712 
46 1 11.6637 8.85056 25.0977 
50 1 11.0044 10.1463 25.1958 
55 1 9.62497 10.221 13.013 
59 1 10.9994 10.1467 12.8934 
74 1 11.6646 8.85329 12.9813 
78 1 11.2535 7.52168 12.8849 
90 1 9.91013 7.7187 13.0109 
94 1 9.12342 8.91794 12.9279 
101 1 5.06759 8.24561 24.5357 
33 1 11.7471 6.71975 0.648116 
77 1 11.7457 6.72746 11.6878 
41 1 17.7978 6.18207 13.5233 
68 1 17.8309 6.22495 24.5497 
103 1 19.1459 6.1066 22.5541 
126 1 19.1471 6.10473 15.5215 
3 1 19.5601 6.90853 12.2063 
7 1 20.0813 8.20761 12.2689 
10 1 15.1452 8.45094 12.8383 
22 1 19.2799 9.413 12.2051 
26 1 17.9566 9.5726 12.2905 
38 1 17.5156 8.27085 12.2229 
42 1 18.1879 6.96404 12.3053 
44 1 20.1375 11.8685 12.8069 
48 1 12.559 7.60495 1.38115 
65 1 19.608 6.82504 0.150464 
69 1 18.2447 7.0292 0.0497133 
82 1 17.5033 8.31597 0.092434 
86 1 17.929 9.63949 0.0745557 
96 1 14.0563 8.69428 12.3693 
98 1 19.265 9.43652 0.150704 
102 1 20.0016 8.16999 0.0757621 
113 1 12.5613 7.61256 10.952 
1 1 17.9484 9.54633 16.2866 
2 1 18.6795 8.34824 16.9345 
8 1 18.8421 10.3581 15.5446 
9 1 18.7173 8.27871 18.4346 
20 1 14.052 8.68391 25.7133 
21 1 18.2547 7.03007 16.194 
23 1 19.7575 10.5802 13.3462 
24 1 20.5589 9.48101 14.1624 
25 1 17.3444 10.5394 13.4966 
27 1 17.0889 7.48349 15.4994 
37 1 19.9967 8.19484 16.1376 
39 1 16.4912 8.2693 13.4168 
40 1 16.6205 9.47026 14.2702 
63 1 17.9575 9.5546 21.7938 
64 1 18.6867 8.33815 21.1385 
70 1 16.8796 9.00784 22.519 
71 1 18.7205 8.27343 19.6389 
72 1 20.1729 11.8391 25.252 
81 1 19.987 8.20147 21.9509 
83 1 16.4954 8.27186 24.6815 
84 1 16.8769 7.02619 23.8881 
85 1 17.4862 10.4654 24.4916 
87 1 20.0349 9.47049 22.6578 
97 1 18.2486 7.03031 21.8853 
99 1 19.8145 10.5668 24.8006 
100 1 18.4295 10.8864 23.8387 
104 1 15.1442 8.43892 25.248 
108 1 18.8407 10.3356 22.5394 
111 1 20.5548 9.4812 23.9368 
112 1 17.0913 7.50048 22.5853 
115 1 16.6297 9.50784 23.8081 
118 1 16.8945 9.00968 15.5478 
121 1 16.8599 7.02154 14.1978 
122 1 20.0668 9.45573 15.4421 
125 1 18.5948 10.8172 14.2586 
129 2 16.7115 11.3843 13.0891 
ITEM: TIMESTEP
60
ITEM: NUMBER OF ATOMS
129
ITEM: BOX BOUNDS xy xz yz pp pp pp
0.0000000000000000e+00 2.3654499999999999e+01 7.8845000000000001e+00
0.0000000000000000e+00 1.3658086643083999e+01 0.0000000000000000e+00
0.0000000000000000e+00 2.5747000000000000e+01 0.0000000000000000e+00
ITEM: ATOMS id type x y z 
18 1 10.3461 6.79118 2.65535 
28 1 5.08585 4.669 12.9009 
31 1 9.39507 6.58197 0.422307 
62 1 9.00869 5.29291 12.4045 
91 1 9.3924 6.58025 11.912 
92 1 10.6037 6.30051 10.9679 
106 1 10.3483 6.792 9.68077 
127 1 10.6044 6.29798 1.36903 
4 1 4.3993 5.90661 13.2846 
5 1 3.14839 5.6997 14.1931 
43 1 4.57723 6.97182 15.4664 
52 1 9.00516 5.2961 25.6782 
66 1 4.41771 5.87886 24.793 
67 1 5.08187 7.01212 23.903 
88 1 5.1016 4.64246 25.1751 
107 1 3.14483 5.70316 23.8818 
116 1 4.57452 6.97505 22.6103 
117 1 5.086 7.0029 14.1716 
11 1 11.3325 7.6023 3.37113 
12 1 10.4934 8.83227 4.09393 
14 1 9.01803 11.2166 0.406462 
15 1 10.2706 11.4312 1.32116 
16 1 8.28696 8.86267 0.65395 
19 1 10.4632 8.86118 5.55792 
29 1 10.9513 10.1139 3.33738 
32 1 8.61173 7.62957 1.2777 
35 1 12.0895 9.64805 2.62257 
45 1 9.22271 8.92256 3.26434 
47 1 12.6938 8.86546 0.529755 
49 1 11.4026 10.9403 0.649124 
51 1 8.85167 10.1501 2.59152 
53 1 11.3315 7.60136 8.96573 
54 1 10.4939 8.8312 8.24056 
56 1 9.01886 11.2138 11.9328 
57 1 8.34045 10.1188 11.0354 
58 1 11.4047 10.9304 11.6876 
60 1 12.2667 8.07608 9.59196 
61 1 10.4631 8.86072 6.7759 
73 1 9.22448 8.92435 9.07135 
75 1 12.6972 8.86797 11.8032 
76 1 12.3417 10.0986 10.9843 
79 1 9.14621 7.65219 9.7773 
80 1 8.33943 12.4586 12.3044 
89 1 10.9551 10.112 8.99638 
93 1 8.28546 8.86117 11.6805 
95 1 10.0401 11.0176 9.69664 
105 1 10.2742 11.4239 11.0175 
109 1 8.6115 7.62857 11.0572 
110 1 12.0953 9.65068 9.70634 
114 1 8.85453 10.1503 9.74517 
119 1 8.33868 10.1194 1.30212 
120 1 12.2662 8.07508 2.74031 
123 1 12.3356 10.1015 1.34608 
124 1 9.14665 7.65116 2.55787 
128 1 10.0346 11.0201 2.64051 
6 1 5.1267 8.25923 13.5237 
13 1 9.62972 10.2107 25.0759 
17 1 9.11391 8.91105 25.1486 
30 1 9.90817 7.71973 25.0678 
34 1 11.2501 7.52049 25.2004 
36 1 8.33565 12.4568 25.7725 
46 1 11.6618 8.85286 25.0999 
50 1 11.0059 10.1499 25.1909 
55 1 9.62603 10.2114 13.0129 
59 1 11.0019 10.1489 12.8969 
74 1 11.6633 8.85503 12.9808 
78 1 11.25 7.52238 12.8851 
90 1 9.90764 7.72079 13.0131 
94 1 9.11189 8.91176 12.9327 
101 1 5.07801 8.25489 24.5433 
33 1 11.7391 6.73668 0.652341 
77 1 11.7385 6.74168 11.6811 
41 1 17.7872 6.18998 13.5193 
68 1 17.8222 6.23507 24.5534 
103 1 19.1451 6.11423 22.556 
126 1 19.1466 6.11306 15.5191 
3 1 19.5635 6.91659 12.2074 
7 1 20.0938 8.21133 12.2656 
10 1 15.1434 8.44284 12.8368 
22 1 19.2784 9.40384 12.2035 
26 1 17.956 9.56718 12.2882 
38 1 17.5288 8.27064 12.2321 
42 1 18.1813 6.96684 12.2986 
44 1 20.1571 11.8626 12.8045 
48 1 12.556 7.62285 1.38386 
65 1 19.6142 6.82926 0.158783 
69 1 18.2488 7.03309 0.0545778 
82 1 17.5047 8.31376 0.0926152 
86 1 17.9323 9.63657 0.075298 
96 1 14.0556 8.70195 12.3686 
98 1 19.2693 9.43642 0.155848 
102 1 20.0054 8.17239 0.079126 
113 1 12.5565 7.62933 10.9521 
1 1 17.9478 9.54698 16.2842 
2 1 18.6802 8.35291 16.9341 
8 1 18.8484 10.3465 15.5412 
9 1 18.7181 8.28108 18.4343 
20 1 14.0525 8.69089 25.7137 
21 1 18.2543 7.03383 16.1937 
23 1 19.7729 10.5741 13.3442 
24 1 20.5804 9.48846 14.1614 
25 1 17.3498 10.531 13.5034 
27 1 17.0765 7.47689 15.5078 
37 1 19.9991 8.19681 16.1361 
39 1 16.4927 8.25515 13.4178 
40 1 16.6261 9.45948 14.268 
63 1 17.9603 9.55197 21.7938 
64 1 18.6883 8.34372 21.1378 
70 1 16.8801 8.99766 22.5143 
71 1 18.7214 8.27651 19.6384 
72 1 20.2017 11.8334 25.2533 
81 1 19.9895 8.20364 21.9522 
83 1 16.4952 8.26076 24.6797 
84 1 16.8611 7.01886 23.8825 
85 1 17.4936 10.4498 24.4873 
87 1 20.0472 9.47239 22.6587 
97 1 18.2481 7.03561 21.8852 
99 1 19.8268 10.5616 24.8034 
100 1 18.4412 10.8725 23.8407 
104 1 15.1411 8.43089 25.2502 
108 1 18.8487 10.3283 22.539 
111 1 20.5723 9.48738 23.9384 
112 1 17.0806 7.49291 22.5771 
115 1 16.6355 9.49192 23.8059 
118 1 16.8998 8.99401 15.5476 
121 1 16.8421 7.01382 14.2033 
122 1 20.0807 9.45835 15.4406 
125 1 18.6046 10.8034 14.252 
129 2 16.7201 11.3779 13.0945 
ITEM: TIMESTEP
70
ITEM: NUMBER OF ATOMS
129
ITEM: BOX BOUNDS xy xz yz pp pp pp
0.0000000000000000e+00 2.3654499999999999e+01 7.8845000000000001e+00
0.0000000000000000e+00 1.3658086643083999e+01 0.0000000000000000e+00
0.0000000000000000e+00 2.5747000000000000e+01 0.0000000000000000e+00
ITEM: ATOMS id type x y z 
18 1 10.3384 6.80134 2.65478 
28 1 5.08511 4.68368 12.9008 
31 1 9.37941 6.58596 0.419666 
62 1 8.98438 5.30035 12.4102 
91 1 9.3779 6.58501 11.916 
92 1 10.5934 6.31232 10.9701 
106 1 10.3393 6.80144 9.68025 
127 1 10.5933 6.31087 1.36692 
4 1 4.39723 5.91974 13.2844 
5 1 3.14135 5.70993 14.1904 
43 1 4.57912 6.97662 15.462 
52 1 8.9811 5.30318 25.6724 
66 1 4.41679 5.88987 24.7953 
67 1 5.08525 7.02211 23.9062 
88 1 5.10306 4.65357 25.1716 
107 1 3.14026 5.71491 23.8852 
116 1 4.57683 6.9786 22.6141 
117 1 5.09101 7.01303 14.1695 
11 1 11.331 7.60426 3.37064 
12 1 10.4936 8.82811 4.09431 
14 1 9.01996 11.2026 0.406072 
15 1 10.2767 11.4204 1.31881 
16 1 8.27402 8.8539 0.649008 
19 1 10.4619 8.85851 5.55875 
29 1 10.9523 10.1091 3.33632 
32 1 8.59301 7.6241 1.27854 
35 1 12.0979 9.65534 2.62773 
45 1 9.22082 8.92155 3.26431 
47 1 12.6958 8.87637 0.530685 
49 1 11.4099 10.935 0.648265 
51 1 8.84983 10.1451 2.58693 
53 1 11.33 7.60348 8.96366 
54 1 10.4943 8.8271 8.23958 
56 1 9.02073 11.2003 11.9329 