LAMMPS (3 Mar 2020)
# Alpha
clear
units		real
dimension 3
boundary        p p p
atom_style	charge
newton on
read_data       H_1.lmp
  orthogonal box = (0 0 0) to (21.884 21.886 21.885)
  2 by 2 by 2 MPI processor grid
  reading atoms ...
  145 atoms
  read_data CPU = 0.00206596 secs

timestep 0.25

# ---------- Define Interatomic Potential ---------------------
pair_style      reax/c NULL checkqeq no
pair_coeff      * * ffield.reax C H
fix             2 all qeq/reax 1 0.0 10.0 1.0e-6 reax/c

#------------ Equilibration of the system -------------------------
reset_timestep 0

dump 1 all custom 10 min.lammpstrj id type x y z

minimize 1.0e-8 1.0e-8 100000 100000
WARNING: Using 'neigh_modify every 1 delay 0 check yes' setting during minimization (../min.cpp:190)
WARNING: Total cutoff < 2*bond cutoff. May need to use an increased neighbor list skin. (../pair_reaxc.cpp:413)
Neighbor list info ...
  update every 1 steps, delay 0 steps, check yes
  max neighbors/atom: 2000, page size: 100000
  master list distance cutoff = 9.5
  ghost atom cutoff = 9.5
  binsize = 4.75, bins = 5 5 5
  2 neighbor lists, perpetual/occasional/extra = 2 0 0
  (1) pair reax/c, perpetual
      attributes: half, newton off, ghost
      pair build: half/bin/newtoff/ghost
      stencil: half/ghost/bin/3d/newtoff
      bin: standard
  (2) fix qeq/reax, perpetual, copy from (1)
      attributes: half, newton off, ghost
      pair build: copy
      stencil: none
      bin: none
Per MPI rank memory allocation (min/avg/max) = 12.67 | 13.32 | 15.25 Mbytes
Step Temp E_pair E_mol TotEng Press 
       0            0    -26166.91            0    -26166.91    3309.2619 
     120            0   -26257.597            0   -26257.597    8149.6225 
Loop time of 1.66944 on 8 procs for 120 steps with 145 atoms

99.5% CPU use with 8 MPI tasks x no OpenMP threads

Minimization stats:
  Stopping criterion = energy tolerance
  Energy initial, next-to-last, final = 
         -26166.910309     -26257.5965262     -26257.5965298
  Force two-norm initial, final = 327.38 54.6494
  Force max component initial, final = 126.474 18.4969
  Final line search alpha, max atom move = 0.00254551 0.0470839
  Iterations, force evaluations = 120 592

MPI task timing breakdown:
Section |  min time  |  avg time  |  max time  |%varavg| %total
---------------------------------------------------------------
Pair    | 0.3664     | 0.44008    | 0.66295    |  19.0 | 26.36
Neigh   | 0          | 0          | 0          |   0.0 |  0.00
Comm    | 0.02637    | 0.24283    | 0.32121    |  24.7 | 14.55
Output  | 0.00064936 | 0.00075398 | 0.0008916  |   0.0 |  0.05
Modify  | 0.97054    | 0.97442    | 0.97774    |   0.3 | 58.37
Other   |            | 0.01136    |            |       |  0.68

Nlocal:    18.125 ave 73 max 0 min
Histogram: 6 0 0 0 0 0 0 0 0 2
Nghost:    310.375 ave 319 max 307 min
Histogram: 5 0 1 0 0 0 1 0 0 1
Neighs:    596.375 ave 2407 max 0 min
Histogram: 6 0 0 0 0 0 0 0 0 2

Total # of neighbors = 4771
Ave neighs/atom = 32.9034
Neighbor list builds = 0
Dangerous builds = 0

###
min_style cg
minimize 1.0e-8 1.0e-8 100000 100000
WARNING: Using 'neigh_modify every 1 delay 0 check yes' setting during minimization (../min.cpp:190)
WARNING: Total cutoff < 2*bond cutoff. May need to use an increased neighbor list skin. (../pair_reaxc.cpp:413)
Per MPI rank memory allocation (min/avg/max) = 12.67 | 13.34 | 15.25 Mbytes
Step Temp E_pair E_mol TotEng Press 
     120            0   -26257.597            0   -26257.597    8149.6225 
     167            0   -26259.019            0   -26259.019    8201.1281 
Loop time of 0.830231 on 8 procs for 47 steps with 145 atoms

99.5% CPU use with 8 MPI tasks x no OpenMP threads

Minimization stats:
  Stopping criterion = energy tolerance
  Energy initial, next-to-last, final = 
        -26257.5965298     -26259.0184915     -26259.0186466
  Force two-norm initial, final = 54.6494 43.1611
  Force max component initial, final = 18.4969 15.7444
  Final line search alpha, max atom move = 0.000236345 0.0037211
  Iterations, force evaluations = 47 309

MPI task timing breakdown:
Section |  min time  |  avg time  |  max time  |%varavg| %total
---------------------------------------------------------------
Pair    | 0.19156    | 0.23136    | 0.3453     |  13.6 | 27.87
Neigh   | 0          | 0          | 0          |   0.0 |  0.00
Comm    | 0.015246   | 0.12621    | 0.16623    |  18.0 | 15.20
Output  | 0.00024241 | 0.00030401 | 0.00037498 |   0.0 |  0.04
Modify  | 0.46581    | 0.46753    | 0.46896    |   0.2 | 56.31
Other   |            | 0.004832   |            |       |  0.58

Nlocal:    18.125 ave 72 max 0 min
Histogram: 6 0 0 0 0 0 0 0 0 2
Nghost:    312.5 ave 328 max 307 min
Histogram: 4 1 1 0 1 0 0 0 0 1
Neighs:    595.25 ave 2366 max 0 min
Histogram: 6 0 0 0 0 0 0 0 0 2

Total # of neighbors = 4762
Ave neighs/atom = 32.8414
Neighbor list builds = 0
Dangerous builds = 0

###
fix 1 all box/relax aniso 0.0
min_style cg
minimize 1.0e-8 1.0e-8 100000 100000
WARNING: Using 'neigh_modify every 1 delay 0 check yes' setting during minimization (../min.cpp:190)
WARNING: Total cutoff < 2*bond cutoff. May need to use an increased neighbor list skin. (../pair_reaxc.cpp:413)
Per MPI rank memory allocation (min/avg/max) = 12.67 | 13.34 | 15.25 Mbytes
Step Temp E_pair E_mol TotEng Press Volume 
     167            0   -26259.019            0   -26259.019    8201.1281    10481.891 
     642            0   -26269.117            0   -26269.117   -210.07105    10596.265 
Loop time of 1.52805 on 8 procs for 475 steps with 145 atoms

99.5% CPU use with 8 MPI tasks x no OpenMP threads

Minimization stats:
  Stopping criterion = linesearch alpha is zero
  Energy initial, next-to-last, final = 
        -26259.0186466      -26269.117496      -26269.117496
  Force two-norm initial, final = 2172.14 59.6116
  Force max component initial, final = 1277.53 34.8238
  Final line search alpha, max atom move = 2.358e-12 8.21144e-11
  Iterations, force evaluations = 475 768

MPI task timing breakdown:
Section |  min time  |  avg time  |  max time  |%varavg| %total
---------------------------------------------------------------
Pair    | 0.46821    | 0.56233    | 0.84251    |  21.1 | 36.80
Neigh   | 0          | 0          | 0          |   0.0 |  0.00
Comm    | 0.031068   | 0.30441    | 0.40561    |  27.8 | 19.92
Output  | 0.0027735  | 0.0031729  | 0.0036151  |   0.5 |  0.21
Modify  | 0.62819    | 0.63265    | 0.63648    |   0.4 | 41.40
Other   |            | 0.02547    |            |       |  1.67

Nlocal:    18.125 ave 72 max 0 min
Histogram: 6 0 0 0 0 0 0 0 0 2
Nghost:    311.75 ave 326 max 307 min
Histogram: 3 2 1 0 1 0 0 0 0 1
Neighs:    594.625 ave 2365 max 0 min
Histogram: 6 0 0 0 0 0 0 0 0 2

Total # of neighbors = 4757
Ave neighs/atom = 32.8069
Neighbor list builds = 0
Dangerous builds = 0

unfix 1
###
min_style cg
minimize 1.0e-8 1.0e-8 100000 100000
WARNING: Using 'neigh_modify every 1 delay 0 check yes' setting during minimization (../min.cpp:190)
WARNING: Total cutoff < 2*bond cutoff. May need to use an increased neighbor list skin. (../pair_reaxc.cpp:413)
Per MPI rank memory allocation (min/avg/max) = 12.67 | 13.34 | 15.25 Mbytes
Step Temp E_pair E_mol TotEng Press 
     642            0   -26269.117            0   -26269.117   -210.07105 
     643            0   -26269.117            0   -26269.117   -210.07105 
Loop time of 0.119204 on 8 procs for 1 steps with 145 atoms

99.3% CPU use with 8 MPI tasks x no OpenMP threads

Minimization stats:
  Stopping criterion = linesearch alpha is zero
  Energy initial, next-to-last, final = 
         -26269.117496      -26269.117496      -26269.117496
  Force two-norm initial, final = 19.807 19.807
  Force max component initial, final = 6.00554 6.00554
  Final line search alpha, max atom move = 3.10154e-11 1.86265e-10
  Iterations, force evaluations = 1 56

MPI task timing breakdown:
Section |  min time  |  avg time  |  max time  |%varavg| %total
---------------------------------------------------------------
Pair    | 0.034343   | 0.041449   | 0.062382   |   5.7 | 34.77
Neigh   | 0          | 0          | 0          |   0.0 |  0.00
Comm    | 0.0025602  | 0.022758   | 0.030149   |   7.4 | 19.09
Output  | 0          | 0          | 0          |   0.0 |  0.00
Modify  | 0.053437   | 0.053796   | 0.054107   |   0.1 | 45.13
Other   |            | 0.001201   |            |       |  1.01

Nlocal:    18.125 ave 72 max 0 min
Histogram: 6 0 0 0 0 0 0 0 0 2
Nghost:    309.5 ave 318 max 305 min
Histogram: 2 2 1 1 0 0 0 0 1 1
Neighs:    590.125 ave 2350 max 0 min
Histogram: 6 0 0 0 0 0 0 0 0 2

Total # of neighbors = 4721
Ave neighs/atom = 32.5586
Neighbor list builds = 0
Dangerous builds = 0

###
fix 1 all box/relax aniso 0.0
min_style cg
minimize 1.0e-8 1.0e-8 100000 100000
WARNING: Using 'neigh_modify every 1 delay 0 check yes' setting during minimization (../min.cpp:190)
WARNING: Total cutoff < 2*bond cutoff. May need to use an increased neighbor list skin. (../pair_reaxc.cpp:413)
Per MPI rank memory allocation (min/avg/max) = 12.67 | 13.34 | 15.25 Mbytes
Step Temp E_pair E_mol TotEng Press Volume 
     643            0   -26269.117            0   -26269.117   -210.07105    10596.265 
     647            0   -26269.127            0   -26269.127  -0.28612105    10595.154 
Loop time of 0.106664 on 8 procs for 4 steps with 145 atoms

99.5% CPU use with 8 MPI tasks x no OpenMP threads

Minimization stats:
  Stopping criterion = linesearch alpha is zero
  Energy initial, next-to-last, final = 
         -26269.117496     -26269.1268483     -26269.1268483
  Force two-norm initial, final = 59.8086 12.7883
  Force max component initial, final = 34.9737 4.39538
  Final line search alpha, max atom move = 3.98933e-11 1.75347e-10
  Iterations, force evaluations = 4 53

MPI task timing breakdown:
Section |  min time  |  avg time  |  max time  |%varavg| %total
---------------------------------------------------------------
Pair    | 0.032485   | 0.039196   | 0.059124   |   5.6 | 36.75
Neigh   | 0          | 0          | 0          |   0.0 |  0.00
Comm    | 0.0023382  | 0.021515   | 0.028579   |   7.2 | 20.17
Output  | 0          | 0          | 0          |   0.0 |  0.00
Modify  | 0.043858   | 0.044194   | 0.044492   |   0.1 | 41.43
Other   |            | 0.001758   |            |       |  1.65

Nlocal:    18.125 ave 72 max 0 min
Histogram: 6 0 0 0 0 0 0 0 0 2
Nghost:    309.5 ave 318 max 305 min
Histogram: 2 2 1 1 0 0 0 0 1 1
Neighs:    590.125 ave 2350 max 0 min
Histogram: 6 0 0 0 0 0 0 0 0 2

Total # of neighbors = 4721
Ave neighs/atom = 32.5586
Neighbor list builds = 0
Dangerous builds = 0

unfix 1
###
min_style cg
minimize 1.0e-8 1.0e-8 100000 100000
WARNING: Using 'neigh_modify every 1 delay 0 check yes' setting during minimization (../min.cpp:190)
WARNING: Total cutoff < 2*bond cutoff. May need to use an increased neighbor list skin. (../pair_reaxc.cpp:413)
Per MPI rank memory allocation (min/avg/max) = 12.67 | 13.34 | 15.25 Mbytes
Step Temp E_pair E_mol TotEng Press 
     647            0   -26269.127            0   -26269.127  -0.28612106 
     663            0    -26269.58            0    -26269.58     1147.417 
Loop time of 0.223189 on 8 procs for 16 steps with 145 atoms

99.5% CPU use with 8 MPI tasks x no OpenMP threads

Minimization stats:
  Stopping criterion = energy tolerance
  Energy initial, next-to-last, final = 
        -26269.1268483     -26269.5796261     -26269.5797066
  Force two-norm initial, final = 11.5609 27.6625
  Force max component initial, final = 2.87571 8.04169
  Final line search alpha, max atom move = 0.00756757 0.0608561
  Iterations, force evaluations = 16 83

MPI task timing breakdown:
Section |  min time  |  avg time  |  max time  |%varavg| %total
---------------------------------------------------------------
Pair    | 0.051024   | 0.061685   | 0.093407   |   7.1 | 27.64
Neigh   | 0          | 0          | 0          |   0.0 |  0.00
Comm    | 0.0033288  | 0.03404    | 0.045286   |   9.2 | 15.25
Output  | 0.00011608 | 0.00013359 | 0.00015355 |   0.0 |  0.06
Modify  | 0.12493    | 0.12546    | 0.12594    |   0.1 | 56.21
Other   |            | 0.001871   |            |       |  0.84

Nlocal:    18.125 ave 72 max 0 min
Histogram: 6 0 0 0 0 0 0 0 0 2
Nghost:    309.5 ave 318 max 305 min
Histogram: 2 2 1 1 0 0 0 0 1 1
Neighs:    590.625 ave 2352 max 0 min
Histogram: 6 0 0 0 0 0 0 0 0 2

Total # of neighbors = 4725
Ave neighs/atom = 32.5862
Neighbor list builds = 0
Dangerous builds = 0

undump 1
#############
#----------- Thermo ------------
reset_timestep 0
thermo  200

thermo_style    custom step temp etotal ke pe press
velocity all create 300 12345 mom yes rot yes
fix 1 all npt temp 300 300 25.0 iso 0.0 0.0 250.0

variable vpe equal pe
variable vtemp equal temp
variable vstep equal step

fix output all print 2500 "${vstep} ${vtemp} ${vpe}" file temp-tpdh-Pt.dat screen no

dump 1 all custom 2500 thermo-tpdh-Pt.lammpstrj id type x y z

run 1000000
WARNING: Total cutoff < 2*bond cutoff. May need to use an increased neighbor list skin. (../pair_reaxc.cpp:413)
Per MPI rank memory allocation (min/avg/max) = 11.54 | 12.34 | 14.12 Mbytes
Step Temp TotEng KinEng PotEng Press 
       0          300   -26140.809    128.77099    -26269.58    1702.9932 
     200    212.95814   -26096.324    91.409437   -26187.733    971.15623 
     400    303.82525   -26031.227    130.41293    -26161.64   -212.08136 
     600    299.13532   -26007.769    128.39984   -26136.169   -1620.7926 
     800     271.5784   -26019.465     116.5714   -26136.037    2110.8148 
    1000    311.28504   -26002.203    133.61495   -26135.818   -964.57081 
    1200    269.34407   -26026.741    115.61234   -26142.353   -2622.0072 
    1400    331.87407   -26005.587    142.45251   -26148.039    719.02631 
    1600    310.11972   -26026.532    133.11475   -26159.647    3232.8553 
    1800    294.67456   -26034.325    126.48512    -26160.81    389.31653 
    2000    288.13313   -26017.224     123.6773   -26140.902    1044.0361 
    2200    267.05461   -26025.243    114.62963   -26139.873    -927.1814 
    2400    269.02708   -26032.056    115.47628   -26147.532   -712.97325 
    2600    282.17359   -26020.299    121.11925   -26141.419    2623.0568 
    2800    334.47871   -25993.231    143.57052   -26136.801    102.23733 
    3000    310.14217   -26007.056    133.12438    -26140.18   -1423.6799 
    3200    351.94484   -25986.718    151.06762   -26137.785    473.27567 
    3400    268.36049   -26016.768    115.19016   -26131.958    4594.7897 
    3600    303.35727   -26009.081    130.21206   -26139.293     1203.494 
    3800    273.49671   -26041.205    117.39481     -26158.6    1306.9851 
    4000    265.95254   -26032.391    114.15657   -26146.547    2396.7368 
    4200    337.16208   -26004.402    144.72232   -26149.124    1213.6636 
    4400    293.11366   -26029.078    125.81513   -26154.894    6224.0984 
    4600     322.5361   -26006.673    138.44431   -26145.117    4387.2208 
    4800    303.33734   -26002.674     130.2035   -26132.878    3159.6983 
    5000    312.90041   -26015.938    134.30832   -26150.247    3305.0168 
    5200    299.68703   -26018.872    128.63666   -26147.509    1272.9875 
    5400    310.58614   -26009.903    133.31495   -26143.218   -6672.1887 
    5600    300.68707   -26029.179    129.06591   -26158.244    -2674.022 
    5800    291.54565   -26040.646    125.14208   -26165.789    856.82402 
    6000    266.00929   -26032.104    114.18093   -26146.285    1804.7039 
    6200    284.08352   -26028.949    121.93906   -26150.888    1950.7486 
    6400    325.74544   -26003.933    139.82188   -26143.754   -952.12552 
    6600    313.45912   -26023.916    134.54814   -26158.464   -2515.8541 
    6800    285.61391    -26050.87    122.59596   -26173.466   -280.62165 
    7000    335.50785   -26024.185    144.01227   -26168.197    828.79447 
    7200    309.25781   -26024.553    132.74479   -26157.297    2637.9115 
    7400    327.85818   -26017.181    140.72875    -26157.91    839.48238 
    7600    256.42573    -26043.64    110.06732   -26153.707     750.6677 
    7800    279.05962   -26021.303    119.78262   -26141.086   -1555.0191 
    8000    281.83578   -26010.286    120.97425    -26131.26   -5153.7955 
    8200    281.83079   -26006.216     120.9721   -26127.188   -8461.4266 
    8400    292.34995   -26031.765    125.48731   -26157.252   -2677.2652 
    8600    313.35977   -26012.372     134.5055   -26146.877    5226.2773 
    8800    308.02117   -26009.192    132.21397   -26141.406    5659.3156 
    9000    312.56611   -26019.618    134.16483   -26153.783   -3324.3489 
    9200    352.81625   -25996.863    151.44166   -26148.305   -2161.1791 
    9400     284.3177   -26029.236    122.03958   -26151.275    1173.9302 
    9600    291.61944   -26015.657    125.17375   -26140.831   -2703.9923 
    9800    299.67535   -25995.223    128.63164   -26123.855   -400.84667 
   10000    312.04714   -26018.323    133.94207   -26152.265    2644.5693 
   10200    287.40225   -26016.892    123.36358   -26140.256   -3030.4154 
   10400    306.17642   -26001.286    131.42214   -26132.708   -839.80617 
   10600    269.61739   -26025.226    115.72966   -26140.956   -1681.1909 
   10800    278.75174   -26029.877    119.65046   -26149.527   -720.34882 
   11000    307.64998   -26010.986    132.05465   -26143.041    3813.6351 
   11200    291.24142   -26024.962    125.01149   -26149.973    -116.9254 
   11400    350.54567    -25998.91    150.46705   -26149.377   -2054.3711 
   11600    309.33478   -26025.301    132.77782   -26158.079   -2980.0032 
   11800    273.85906   -26035.295    117.55034   -26152.845    -175.3159 
   12000    302.11062   -26004.286    129.67695   -26133.963     875.5337 
   12200    258.27824   -26019.266    110.86249   -26130.129    2076.8806 
   12400    320.21172   -26008.046    137.44661   -26145.493   -1265.4658 
   12600    305.33825   -26026.435    131.06237   -26157.498   -3282.0821 
   12800    301.53741   -26036.134    129.43091   -26165.565    410.48271 
   13000    318.44477   -26003.443    136.68817   -26140.131    828.98258 
   13200    275.71363   -26030.145    118.34639   -26148.491   -2493.1702 
   13400    273.42232   -26015.387    117.36288    -26132.75   -2870.1697 
   13600    328.86219   -25994.616     141.1597   -26135.776    1360.9444 
   13800    345.60397   -25996.208    148.34589   -26144.554    1426.0736 
   14000    297.78796   -26021.164     127.8215   -26148.985    1991.4779 
   14200    317.15866   -26013.465    136.13612   -26149.601    1585.5751 
   14400    301.04348   -26011.259    129.21889   -26140.478   -1785.6764 
   14600    265.79904   -26037.815    114.09069   -26151.906   -578.37233 
   14800    310.41284   -26016.754    133.24057   -26149.994   -2540.1453 
   15000    312.14201   -26013.599    133.98279   -26147.582   -2784.6238 
   15200    338.70557   -25991.005    145.38484    -26136.39   -2801.0657 
   15400    295.61769   -26010.901    126.88995   -26137.791   -1202.6098 
   15600     323.6237   -26023.842    138.91115   -26162.753    586.08532 
   15800    301.68332   -25998.696    129.49354   -26128.189    4626.8562 
   16000    325.31346   -26007.612    139.63646   -26147.249   -3488.6662 
   16200    317.71731   -26010.485    136.37591   -26146.861   -458.85834 
   16400    268.24922   -26034.952     115.1424   -26150.095    1124.0444 
   16600    316.11563    -26010.79    135.68841   -26146.479    5143.8439 
   16800    292.61093   -26020.949    125.59933   -26146.548   -946.78496 
   17000    326.65385    -26012.75     140.2118   -26152.961   -2610.3729 
   17200    289.93532   -26028.084    124.45086   -26152.535   -1443.4249 
   17400    273.93338   -26033.018    117.58224     -26150.6    782.13223 
   17600    314.39618   -26003.388    134.95036   -26138.339   -4040.4011 
   17800     282.0367   -26022.819    121.06049   -26143.879   -5790.5071 
   18000    285.40792   -26020.362    122.50754   -26142.869    -1256.146 
   18200     310.9646   -26019.689     133.4774   -26153.167   -1240.9926 
   18400    308.07096   -26033.825    132.23535   -26166.061   -2724.0191 
   18600    327.76163   -26003.019     140.6873   -26143.706   -957.90556 
   18800    291.34275   -26025.421    125.05499   -26150.476    4221.6109 
   19000    290.17303   -26028.592     124.5529   -26153.145   -3007.3325 
   19200    311.59616    -25994.18    133.74849   -26127.929   -3286.9805 
   19400    302.22851   -26007.044    129.72755   -26136.772    867.34412 
   19600    289.16474   -26019.689     124.1201   -26143.809    5299.3408 
   19800    300.10889   -26022.215    128.81773   -26151.033    2202.8552 
   20000    345.97183   -25998.374    148.50379   -26146.878    6475.7385 
   20200    286.51231   -26026.374    122.98158   -26149.356    693.17432 
   20400    290.76631    -26030.24    124.80756   -26155.047   -1888.5912 
   20600    309.65151   -26005.199    132.91378   -26138.112   -1843.4451 
   20800    283.85133   -26011.102    121.83939   -26132.942   -1288.1224 
   21000    321.57992   -25979.727    138.03389   -26117.761    1934.1776 
   21200    323.04069   -26011.834     138.6609   -26150.495   -4720.3216 
   21400    276.97563   -26023.008    118.88809   -26141.896   -3938.0197 
   21600    303.67198   -26010.238    130.34714   -26140.585   -2812.6191 
   21800     327.3836   -25999.131    140.52504   -26139.656    1614.1357 
   22000    304.44035   -26026.992    130.67696   -26157.669    3377.3761 
   22200    307.19932   -26010.567    131.86121   -26142.428   -721.66373 
   22400    301.05578   -26011.913    129.22417   -26141.137    153.75255 
   22600    260.96189   -26053.192    112.01441   -26165.206     349.2609 
   22800    261.48233   -26043.379     112.2378   -26155.617    4476.2423 
   23000    316.73119   -26016.999    135.95263   -26152.952   -2495.6852 
   23200    280.58044   -26021.984    120.43541   -26142.419   -2533.7099 
   23400    295.11105   -26034.399    126.67248   -26161.072   -5107.8218 
   23600    292.21778   -26007.832    125.43058   -26133.262   -1088.9224 
   23800     285.3242   -26028.928     122.4716   -26151.399    464.74983 
   24000    304.94977   -26007.434    130.89562    -26138.33   -2478.1956 
   24200    293.17413   -26016.074    125.84108   -26141.915   -6204.7449 
   24400    278.74263   -26034.351    119.64655   -26153.998   -4897.2628 
   24600    306.16161   -26015.079    131.41578   -26146.495    2536.4711 
   24800    303.14154   -26003.699    130.11946   -26133.818   -2994.5953 
   25000    283.37731   -26026.185    121.63593   -26147.821   -1950.0267 
   25200    306.40763   -26015.235    131.52138   -26146.756   -1542.2865 
   25400    310.05672    -25998.29    133.08771   -26131.378    277.41173 
   25600    314.81329   -26024.324     135.1294   -26159.454    740.68429 
   25800     272.8007   -26032.806    117.09606   -26149.902     5130.953 
   26000    324.68572   -26012.023    139.36701    -26151.39    2434.5579 
   26200    303.52083   -26025.578    130.28227    -26155.86    2732.5195 
   26400     310.1458   -26019.364    133.12595   -26152.489     2821.623 
   26600    312.28453   -26003.848    134.04396   -26137.892    1998.2798 
   26800    299.76091   -26002.479    128.66837   -26131.147    853.16052 
   27000    295.63273   -26030.717     126.8964   -26157.613   -2433.3335 
   27200    298.56684   -26007.586    128.15583   -26135.742    1799.6858 
   27400    306.66471   -26008.074    131.63173   -26139.706    2139.0478 
   27600    300.03833   -26025.618    128.78745   -26154.406    1799.4209 
   27800    277.98538   -26015.564    119.32151   -26134.886    1366.7985 
   28000    313.66843   -25996.503    134.63799   -26131.141    2121.4293 
   28200    291.69328   -26024.975    125.20545    -26150.18    3490.6148 
   28400    294.50489   -26023.534    126.41229   -26149.946   -1597.2504 
   28600    334.16081   -25995.569    143.43406   -26139.003    -111.9729 
   28800     327.1881   -25990.847    140.44112   -26131.288    4316.3773 
   29000    316.25271   -26017.115    135.74725   -26152.862    1039.0694 
   29200    276.59407    -26024.04    118.72431   -26142.764    -2609.522 
   29400    328.11003   -25995.908    140.83685   -26136.745    -3876.259 
   29600    286.39611   -26014.464     122.9317   -26137.396    1146.8719 
   29800    282.98693   -26027.579    121.46836   -26149.048   -323.79181 
   30000    285.72268   -26033.931    122.64264   -26156.574    2508.8042 
   30200    288.63964   -26028.013    123.89471   -26151.908     3265.172 
   30400    309.32356   -26013.371    132.77301   -26146.144     1381.825 
   30600    286.96003   -26036.693    123.17376   -26159.867    273.50613 
   30800    327.06632   -26005.596    140.38885   -26145.985    2201.9673 
   31000    307.76726   -26022.907    132.10499   -26155.012    1572.8574 
   31200     273.3776   -26045.212    117.34369   -26162.556   -563.87156 
   31400    296.17219   -26045.184    127.12796   -26172.312    -2268.799 
   31600    314.02537   -26018.457     134.7912   -26153.248    2557.2776 
   31800    312.93097   -26026.665    134.32144   -26160.986    519.04994 
   32000    264.59497   -26032.318    113.57386   -26145.892    2801.9193 
   32200    298.56757   -26014.557    128.15614   -26142.713   -446.35904 
   32400    265.62001   -26034.269    114.01384   -26148.283    3304.5534 
   32600    285.22653   -26010.133    122.42968   -26132.563    1881.4904 
   32800    322.54027   -26008.785     138.4461   -26147.231   -3970.4435 
   33000    295.70064   -26029.109    126.92555   -26156.034   -2595.3797 
   33200    321.52735   -25998.681    138.01132   -26136.692    3747.5647 
   33400    285.88532   -26010.585    122.71246   -26133.298    3116.9127 
   33600    288.25567   -26027.986     123.7299   -26151.715   -1288.7476 
   33800     296.6074   -26018.899    127.31477   -26146.214   -1985.7764 
   34000     315.9235   -26005.222    135.60594   -26140.828   -5170.7942 
   34200    252.18757   -26035.615    108.24815   -26143.864   -3531.2572 
   34400    272.20266   -26014.719    116.83936   -26131.559   -3405.3384 
   34600    298.12165   -26014.798    127.96474   -26142.763    466.88861 
   34800    277.86967   -26041.383    119.27184   -26160.655    3163.3879 
   35000    300.01002   -26021.101    128.77529   -26149.877    3870.5047 
   35200     312.3957   -26000.301    134.09168   -26134.393   -1261.7505 
   35400    307.28873   -26025.051    131.89958    -26156.95   -1056.2885 
   35600    287.18307   -26031.747     123.2695   -26155.016   -2466.4364 
   35800    296.80217   -26014.081    127.39837   -26141.479   -181.82083 
   36000    294.11672   -26011.106    126.24567   -26137.352   -5092.6321 
   36200     303.2818   -26025.976    130.17966   -26156.155    4115.5639 
   36400    350.64836   -25991.613    150.51112   -26142.124    3036.0456 
   36600    302.53355    -26007.99    129.85849   -26137.849    1490.7906 
   36800    305.67196   -26023.267    131.20561   -26154.473    -1324.282 
   37000    299.78973   -26023.719    128.68074   -26152.399   -4443.0359 
   37200    279.75119   -26031.776    120.07946   -26151.855   -2297.1754 
   37400    285.56839   -26032.186    122.57642   -26154.763    631.68596 
   37600    324.04111   -26021.461    139.09032   -26160.552    952.92841 
   37800     315.0346   -26011.179     135.2244   -26146.404   -2440.3822 
   38000    279.12536   -26033.084    119.81083   -26152.895   -915.22725 
   38200    288.40017    -26016.04    123.79192   -26139.832    3467.7719 
   38400    310.52024   -26018.511    133.28667   -26151.797   -2468.0963 
   38600    290.49973    -26039.01    124.69313   -26163.703   -3084.9009 
   38800     330.9119   -26024.233    142.03952   -26166.273    3004.4975 
   39000    304.08349   -26010.919    130.52378   -26141.442    5338.1731 
   39200    292.77755    -25994.79    125.67085   -26120.461   -1743.6367 
   39400    289.95905   -26026.693    124.46105   -26151.154   -2067.9571 
   39600    322.47866   -26001.604    138.41966   -26140.024    6734.9018 
   39800    302.74678   -26009.456    129.95001   -26139.406    7086.7714 
   40000    299.12175   -26009.657    128.39402   -26138.051    6317.5347 
   40200    309.52234   -26013.263    132.85833   -26146.122   -625.87509 
   40400    326.59188   -25983.641     140.1852   -26123.826   -4805.5025 
   40600    317.45993   -26012.711    136.26544   -26148.977   -1181.0499 
   40800    258.16366   -26025.128    110.81331   -26135.942   -89.621229 
   41000    287.73443   -25997.468    123.50616   -26120.974    1146.8725 
   41200    276.00162   -26030.755    118.47001   -26149.225   -2564.3772 
   41400    273.03658   -26011.339    117.19731   -26128.536   -1130.0293 
   41600    331.40718   -26006.628    142.25211    -26148.88    3243.9053 
   41800    273.24587   -26032.063    117.28714    -26149.35    790.83723 
   42000    295.15355   -26011.628    126.69072   -26138.319   -1266.2965 
   42200    292.17756   -26021.241    125.41332   -26146.655   -2691.4502 
   42400    290.14107   -26035.845    124.53918   -26160.384   -1288.4572 
   42600    318.59493   -26016.575    136.75262   -26153.328    4561.8403 
   42800     298.8796   -26023.962    128.29008   -26152.252    3262.3692 
   43000    292.51639    -26027.79    125.55875   -26153.349    4573.7745 
   43200    305.46516    -26020.48    131.11684   -26151.596    2131.8025 
   43400    306.75734   -26020.952    131.67149   -26152.624    2299.9415 
   43600    278.44854   -26031.347    119.52032   -26150.867   -3222.0279 
   43800     312.7806    -26016.17     134.2569   -26150.427   -3701.7498 
   44000    319.89975   -26007.443    137.31269   -26144.756    2193.0742 
   44200    291.60573   -26025.597    125.16787   -26150.764    3169.7221 
   44400    274.84508   -26027.645    117.97358   -26145.618    2810.3638 
   44600    351.54637   -26001.079    150.89658   -26151.976     2375.656 
   44800    290.08925   -26025.772    124.51694   -26150.289   -58.135648 
   45000    272.18531   -26021.453    116.83191   -26138.285    -400.1356 
   45200    316.68885   -26011.138    135.93446   -26147.073    -5005.363 
   45400    275.24019   -26016.577    118.14317    -26134.72   -683.03513 
   45600    280.96597   -26011.621    120.60089   -26132.222    40.442233 
   45800    310.24612    -26004.33    133.16901   -26137.499   -4816.4978 
   46000    322.98574   -26005.971    138.63732   -26144.609   -2344.4666 
   46200    305.61842   -26034.477    131.18263   -26165.659   -1814.6419 
   46400    281.75836   -26007.117    120.94101   -26128.058    3680.8897 
   46600    288.20617   -26004.552    123.70865   -26128.261   -2379.0293 
   46800    295.00894    -26027.44    126.62865   -26154.069   -963.70418 
   47000    292.33963   -26011.848    125.48288    -26137.33    -815.6408 
   47200    341.60666    -25996.26     146.6301    -26142.89   -1370.5985 
   47400    272.26063   -26023.057    116.86424   -26139.921    -1396.781 
   47600    300.70375   -26013.551    129.07307   -26142.624    1401.1032 
   47800    282.63882   -26032.973    121.31894   -26154.292    1106.7285 
   48000    296.48754   -26028.275    127.26332   -26155.538       3240.5 
   48200    323.82777   -26011.965    138.99875   -26150.964    6057.8628 
   48400    264.57472   -26040.835    113.56516     -26154.4    241.15324 
   48600    249.24213   -26031.794    106.98386   -26138.778    1195.1139 
   48800    276.63826   -26021.341    118.74328   -26140.084   -1982.6445 
   49000    303.65386   -26022.395    130.33936   -26152.735    -1978.799 
   49200    315.99445   -26024.302     135.6364   -26159.938   -1692.1961 
   49400    316.68145   -26014.019    135.93129   -26149.951    44.963802 
   49600    324.30075   -26014.924    139.20177   -26154.126    1692.4034 
   49800    294.73438   -26032.562     126.5108   -26159.072   -1483.3188 
   50000     290.2606   -26006.666    124.59049   -26131.256    -2278.719 
   50200     287.8436   -26027.556    123.55302   -26151.109    1425.6279 
   50400    301.75284   -26021.781    129.52338   -26151.305   -3310.8606 
   50600    347.24927   -26008.094    149.05211   -26157.146   -2602.7386 
   50800    254.36523   -26037.558    109.18288   -26146.741   -198.22497 
   51000    280.10985   -26013.728    120.23341   -26133.962    6106.4568 
   51200    302.76233   -26013.318    129.95669   -26143.274   -47.497336 
   51400    289.52316   -26045.033    124.27395   -26169.307   -166.42092 
   51600    306.61731   -26026.091    131.61139   -26157.702    6319.1602 
   51800    298.83745   -26012.914    128.27198   -26141.186    6045.3029 
   52000    327.95815   -26003.903    140.77166   -26144.675     3327.323 
   52200    291.63075   -26022.776    125.17861   -26147.955    3526.2253 
   52400     282.6344   -26021.681    121.31704   -26142.998    4557.7608 
   52600    309.44672   -26000.757    132.82587   -26133.583   -63.595151 
   52800    312.54461   -25998.243     134.1556   -26132.399    1069.7774 
   53000    288.74505   -26022.857    123.93996   -26146.797   -2167.1905 
   53200    271.11677   -26027.996    116.37325   -26144.369    1177.2684 
   53400    309.44217   -26001.193    132.82392   -26134.017   -1005.4804 
   53600    257.07266   -26026.072    110.34501   -26136.417   -3539.0867 
   53800    271.59411   -26019.852    116.57814    -26136.43    15.022887 
   54000    313.49515   -26019.179    134.56361   -26153.743    7286.2957 
   54200    284.99483   -26043.875    122.33023   -26166.205   -374.27442 
   54400    298.53585   -26021.137    128.14253    -26149.28   -1299.4385 
   54600    315.35038   -26011.918    135.35994   -26147.278   -3433.7708 
   54800    280.09889   -26040.583    120.22871   -26160.812   -1930.2458 
   55000    283.28336   -26030.914     121.5956   -26152.509   -3051.5778 
   55200    335.02813   -26017.885    143.80635   -26161.691   -5859.3481 
   55400    299.29868   -26032.037    128.46996   -26160.507   -927.32925 
   55600    307.15057   -26037.994    131.84028   -26169.834    1651.6377 
   55800    304.24185   -26016.866    130.59175   -26147.457     1226.825 
   56000    298.19815   -26030.366    127.99757   -26158.364    264.73556 
   56200    273.76089   -26045.976    117.50821   -26163.485    1464.6238 
   56400     325.4345   -26013.293    139.68841   -26152.981   -80.145241 
   56600    288.63432   -26023.108    123.89243       -26147    2199.4628 
   56800    283.57768   -26033.203    121.72193   -26154.925   -1506.3902 
   57000     282.9847   -26008.121     121.4674   -26129.589   -4443.6246 
   57200    280.74358   -26028.668    120.50543   -26149.174   -2046.2259 
   57400     272.3882   -26022.515      116.919   -26139.434    1022.6079 
   57600    291.74735   -26012.216    125.22865   -26137.445    1550.5031 
   57800    343.03811   -25989.975    147.24453   -26137.219   -2785.8866 
   58000    288.15288   -26018.244    123.68577    -26141.93   -3669.7763 
   58200     314.8965   -26008.752    135.16512   -26143.917   -2684.6904 
   58400    342.07511   -25979.133    146.83118   -26125.964   -2596.1111 
   58600    297.54785   -26008.035    127.71844   -26135.753   -3768.8267 
   58800    278.10372   -26023.131    119.37231   -26142.503    2868.5193 
   59000    272.82616   -26031.669    117.10699   -26148.776    1674.3842 
   59200    290.99637    -26003.58    124.90631   -26128.486    598.47789 
   59400    288.53556   -26017.386    123.85004   -26141.236      4066.59 
   59600    297.32455   -26031.038    127.62259   -26158.661    947.71475 
   59800    305.33883   -26015.589    131.06261   -26146.652    106.93973 
   60000    292.64131   -26007.162    125.61238   -26132.774   -10849.293 
   60200    283.89322   -26026.813    121.85738   -26148.671   -5139.5898 
   60400    274.09349   -26026.373    117.65097   -26144.024   -4104.8302 
   60600    317.50761   -26014.626     136.2859   -26150.912   -7372.1542 
   60800    295.49194   -26031.484    126.83597    -26158.32   -3982.9409 
   61000    300.63701   -26037.787    129.04442   -26166.831   -5611.2313 
   61200    320.66922   -26015.678    137.64298   -26153.321   -1373.8405 
   61400     271.0451   -26039.077    116.34249    -26155.42   -1242.2246 
   61600    283.73745   -26029.139    121.79051   -26150.929   -2407.9574 
   61800    311.24189   -26017.402    133.59642   -26150.998    1179.3536 
   62000    278.52871   -26032.316    119.55473   -26151.871    679.69103 
   62200    271.11416   -26038.663    116.37213   -26155.035   -952.36524 
   62400    313.75458   -26017.419    134.67496   -26152.094    3376.9612 
   62600    318.72181   -26018.944    136.80708   -26155.751    5462.2018 
   62800    287.09714   -26030.003    123.23261   -26153.236   -5700.5071 
   63000    277.38498   -26033.922     119.0638   -26152.986    1992.3131 
   63200    305.26829   -26000.538    131.03234    -26131.57    2418.0012 
   63400    281.43034   -26015.072    120.80022   -26135.872   -2040.7099 
   63600     282.4442   -26026.517     121.2354   -26147.752   -107.09459 
   63800    301.14441   -26012.144    129.26222   -26141.406   -2987.3655 
   64000    331.04769   -25993.984     142.0978   -26136.082   -4401.4528 
   64200    294.20474   -26008.704    126.28346   -26134.987    773.56121 
   64400    283.03869   -26026.255    121.49058   -26147.746     2496.785 
   64600    296.78229   -25998.167    127.38983   -26125.557    1142.1865 
   64800    296.85766   -26007.343    127.42219   -26134.765   -1827.4619 
   65000    291.91917   -26020.267     125.3024    -26145.57   -3617.3306 
   65200    318.82192   -26003.976    136.85005   -26140.826   -259.96556 
   65400     295.3827   -25995.184    126.78908   -26121.973    1969.9074 
   65600    286.17911   -26012.917    122.83856   -26135.755   -2071.8445 
   65800    329.73932   -25999.351     141.5362   -26140.887   -6409.6248 
   66000    288.73674    -26020.38    123.93639   -26144.316   -3637.4362 
   66200    319.80351   -26017.762    137.27139   -26155.034    2360.5951 
   66400    353.27465   -25991.535    151.63843   -26143.174    -506.9274 
   66600    279.50185   -26021.691    119.97244   -26141.663   -3676.3326 
   66800    302.50489   -26023.909    129.84618   -26153.755   -3526.4238 
   67000    330.17255   -26016.313    141.72216   -26158.035    -6463.921 
   67200    298.37496   -26026.783    128.07347   -26154.857    -681.6689 
   67400     334.9838   -26002.392    143.78732   -26146.179    1610.3844 
   67600    315.97176    -26023.77    135.62666   -26159.396    4276.6528 
   67800    299.15168   -26035.042    128.40687   -26163.449   -2164.1522 
   68000    325.48584   -26007.857    139.71045   -26147.568   -1089.9187 
   68200    315.35288   -26018.278    135.36101   -26153.639    1114.6789 
   68400    286.31593   -26025.488    122.89729   -26148.386   -3619.0698 
   68600    351.96437   -26003.296    151.07601   -26154.372   -4117.6807 
   68800    331.00527   -26013.276    142.07959   -26155.355    6727.3932 
   69000    286.05761   -26022.021    122.78641   -26144.807    3764.4338 
   69200     333.2717   -26001.891    143.05243   -26144.943    2290.1269 
   69400    296.20937   -26029.085    127.14392   -26156.229    281.48581 
   69600     307.2267   -26013.229    131.87296   -26145.102   -3835.3899 
   69800    292.29966   -26011.187    125.46572   -26136.653   -2283.6539 
   70000    267.75358   -26038.563    114.92965   -26153.493    -2865.764 
   70200    292.42135    -26012.88    125.51796   -26138.398    -384.4734 
   70400    282.70159   -26021.237    121.34588   -26142.583    3512.3174 
   70600    285.83287   -26030.808    122.68994   -26153.498   -887.30685 
   70800    309.39302   -26006.675    132.80282   -26139.477    4837.3719 
   71000    301.87858   -25999.727    129.57735   -26129.305   -3419.6276 
   71200    301.12602   -26030.034    129.25432   -26159.289   -775.05311 
   71400    323.30015   -26006.311    138.77227   -26145.083   -139.65538 
   71600      306.246   -26010.892    131.45201   -26142.344    1832.2978 
   71800     313.3951   -26015.359    134.52066    -26149.88     1054.249 
   72000    247.88754   -26054.851    106.40242   -26161.254   -1298.6239 
   72200    299.74992   -26021.637    128.66365     -26150.3    -2615.685 
   72400    329.03101   -26010.621    141.23217   -26151.853    1540.2313 
   72600    268.13708   -26034.189    115.09426   -26149.283   -4189.8323 
   72800    320.10735   -26011.986    137.40181   -26149.388   -3134.9076 
   73000    287.82555   -26015.701    123.54527   -26139.247    -1657.839 
   73200    294.79794    -26035.13    126.53808   -26161.668   -3936.1197 
   73400    321.95042    -26020.43    138.19292   -26158.623   -3641.8109 
   73600    312.48019    -26012.15    134.12795   -26146.277    2281.5388 
   73800    262.52383   -26037.357    112.68485   -26150.042   -92.950897 
   74000    291.61658   -26025.785    125.17252   -26150.958   -1264.3947 
   74200    272.68046     -26032.9    117.04445   -26149.945    1313.4465 
   74400    297.38843   -26021.548    127.65001   -26149.198   -2131.5803 
   74600    307.79082   -26011.588     132.1151   -26143.703    1451.9907 
   74800    256.31303   -26033.257    110.01894   -26143.276    3058.3691 
   75000    279.20514   -26047.617    119.84508   -26167.462   -2039.6759 
   75200    324.20409   -26015.554    139.16028   -26154.714     -717.208 
   75400    336.47081   -26003.104     144.4256    -26147.53    844.55286 
   75600    274.99252   -26028.614    118.03687   -26146.651   -2281.7936 
   75800    289.35052   -26027.873    124.19985   -26152.073   -1842.6831 
   76000    310.36811   -25994.948    133.22137   -26128.169    481.66563 
   76200    333.85263   -26010.859    143.30178    -26154.16   -230.35386 
   76400    293.63808   -26019.411    126.04022   -26145.452   -2079.3204 
   76600    307.04822    -26007.19    131.79635   -26138.986    71.118302 
   76800    339.41352   -25995.094    145.68872   -26140.783   -5700.6934 
   77000    282.85721   -26009.932    121.41268   -26131.344   -2215.2166 
   77200    283.29129   -26017.441      121.599    -26139.04   -1944.1967 
   77400    275.99703   -26039.531    118.46804   -26157.999    -6145.109 
   77600    296.17694   -26007.858       127.13   -26134.988     475.1111 
   77800    305.27131   -26016.165    131.03363   -26147.198    1170.0327 
   78000    297.09343   -26033.771    127.52339   -26161.294    1511.9241 
   78200    290.47639   -26010.271    124.68311   -26134.954    326.06609 
   78400    308.16888   -25999.932    132.27738    -26132.21   -3263.6351 
   78600    269.63207    -26031.23    115.73596   -26146.966   -2188.5381 
   78800    304.77453   -26020.672     130.8204   -26151.492    1278.9557 
   79000    303.24322   -25996.408     130.1631   -26126.571    650.70523 
   79200    312.10309   -26017.027    133.96608   -26150.993   -1900.0957 
   79400    300.28194   -26025.314    128.89201   -26154.206   -2200.9936 
   79600    300.42258   -26027.212    128.95238   -26156.165    2725.3346 
   79800     281.4764   -26019.162    120.81999   -26139.982    3373.3701 
   80000    315.43914   -26002.455    135.39804   -26137.853   -1239.4391 
   80200    282.29301   -26036.082     121.1705   -26157.252   -1643.0526 
   80400    328.20936   -26013.452    140.87948   -26154.332   -3209.3823 
   80600    294.16807   -26027.969    126.26772   -26154.237   -3196.1114 
   80800    330.83826   -26015.565    142.00791   -26157.573   -1798.6842 
   81000    330.27892   -26011.766    141.76782   -26153.534    4112.0855 
   81200    274.72236    -26033.64    117.92091   -26151.561    1013.3888 
   81400    319.60241   -26004.006    137.18507   -26141.191    3569.1575 
   81600    330.05951   -26010.335    141.67364   -26152.008   -1158.3674 
   81800    296.25637   -26022.497    127.16409   -26149.661   -1125.2573 
   82000    274.32008   -26042.106    117.74823   -26159.854    -1466.261 
   82200    286.04827   -26014.291     122.7824   -26137.073    2284.1467 
   82400    329.48564   -26004.805    141.42731   -26146.232    408.51972 
   82600    285.58734   -26034.317    122.58455   -26156.901    1669.4586 
   82800    279.37072   -26016.677    119.91615   -26136.593   -733.32233 
   83000    325.13681   -26009.191    139.56064   -26148.752   -2011.9857 
   83200    286.48977    -26022.94    122.97191   -26145.912    2417.4907 
   83400    341.36695   -25991.041     146.5272   -26137.569    1757.9164 
   83600    287.06332   -26011.709     123.2181   -26134.927    450.65967 
   83800    295.41581   -26017.843    126.80329   -26144.646    2252.2286 
   84000    331.24828   -25993.443     142.1839   -26135.627    775.46325 
   84200    303.00845   -26018.029    130.06233   -26148.091     5008.626 
   84400    321.04202   -26017.907      137.803    -26155.71    5668.1782 
   84600    320.99635   -26005.535     137.7834   -26143.318    1654.0927 
   84800    326.35123   -26011.265    140.08191   -26151.347    247.89018 
   85000    317.88022    -26018.64    136.44584   -26155.086    3580.6766 
   85200    309.27079   -25997.754    132.75036   -26130.505   -3082.3287 
   85400    272.92681   -26017.264    117.15019   -26134.415   -5654.0165 
   85600    267.89953    -26030.49    114.99229   -26145.482    935.08711 
   85800    331.72523   -26001.252    142.38862   -26143.641   -435.91721 
   86000    307.25635   -26017.149    131.88569   -26149.035   -5123.1656 
   86200    300.06461   -26032.418    128.79873   -26161.217    1625.6893 
   86400    278.21054   -26045.296    119.41816   -26164.714    5557.9185 
   86600    274.99081   -26025.863    118.03613     -26143.9   -1010.4678 
   86800    308.32066   -26006.154    132.34253   -26138.496   -942.06205 
   87000    279.55998   -26034.033    119.99739   -26154.031   -48.402151 
   87200     296.9571   -26030.334    127.46487   -26157.799   -4419.6603 
   87400    339.76367     -25994.5    145.83902   -26140.339   -1542.6076 
   87600    299.36113   -26021.959    128.49677   -26150.456   -2118.0964 
   87800    273.73384   -26028.721     117.4966   -26146.218   -2381.3574 
   88000    324.38179   -25999.914    139.23655    -26139.15   -2961.7234 
   88200    292.21218   -26022.718    125.42818   -26148.147    4601.8198 
   88400    331.46294   -26024.137    142.27604   -26166.413    286.53187 
   88600    320.09922   -26010.781    137.39831    -26148.18    245.80035 
   88800       304.48   -25996.496    130.69397    -26127.19    5116.0796 
   89000    300.92819   -26022.918    129.16941   -26152.087    2313.3719 
   89200    326.81946   -26003.947    140.28289    -26144.23    1890.9028 
   89400    332.03203    -26004.41    142.52032    -26146.93   -2615.0981 
   89600    279.65303   -26018.823    120.03733    -26138.86   -1372.8086 
   89800    307.15658   -26013.325    131.84286   -26145.168    3204.9562 
   90000    277.19749   -26029.178    118.98332   -26148.162    5281.4162 
   90200    300.73751    -26011.01    129.08756   -26140.097    4254.0869 
   90400    284.94532   -26020.668    122.30897   -26142.977   -1350.2037 
   90600    310.44535   -25988.988    133.25452   -26122.242    47.926613 
   90800    305.14798   -26015.873     130.9807   -26146.854     4266.547 
   91000    282.03175   -26011.053    121.05836   -26132.112    1050.8579 
   91200    296.34328   -26020.249    127.20139   -26147.451   -708.31646 
   91400    303.47793   -26021.617    130.26385   -26151.881    1436.9518 
   91600    325.12167   -26009.219    139.55413   -26148.773    3299.1507 
   91800    270.19329   -26039.123    115.97686     -26155.1   -990.78841 
   92000    293.04089   -26031.722    125.78389   -26157.506    -610.6078 
   92200    277.58922   -26022.711    119.15147   -26141.862    4529.8418 
   92400    328.55079   -26006.771    141.02604   -26147.797   -1207.6353 
   92600    324.61452   -26016.731    139.33645   -26156.067   -2079.6104 
   92800    268.57018   -26030.499    115.28016   -26145.779   -1475.9999 
   93000     301.8784   -26006.414    129.57727   -26135.991    2572.0509 
   93200    299.37828   -26005.901    128.50413   -26134.405    138.66766 
   93400     282.0972    -26036.09    121.08646   -26157.177    6562.9324 
   93600    303.09689   -26014.524    130.10029   -26144.625   -964.51284 
   93800    302.80085   -26002.945    129.97322   -26132.918   -2523.5409 
   94000     264.3766   -26036.365    113.48013   -26149.845   -367.11835 
   94200    298.01067    -26009.53     127.9171   -26137.447    3078.7547 
   94400     321.1203   -26008.731     137.8366   -26146.568   -3629.1213 
   94600    305.50506   -26035.657    131.13397   -26166.791    1230.4216 
   94800    299.74862   -26011.399    128.66309   -26140.062    1171.3133 
   95000    307.80021   -26002.123    132.11913   -26134.242   -1729.1305 
   95200     233.9422   -26031.598    100.41656   -26132.014   -2661.9443 
   95400     259.9891   -26010.459    111.59685   -26122.056      1218.57 
   95600    303.18897   -26013.626    130.13982   -26143.766   -1409.9222 
   95800    273.66393   -26032.014    117.46659    -26149.48   -337.04122 
   96000    328.05576    -26005.65    140.81355   -26146.464   -2809.4668 
   96200    285.22592   -26014.873    122.42942   -26137.303    2039.9606 
   96400    278.64925   -26020.109    119.60647   -26139.715   -1477.1732 
   96600    277.01632   -26033.922    118.90556   -26152.828   -1242.6634 
   96800    319.58189   -26010.398    137.17626   -26147.575    -1190.741 
   97000    267.28981   -26029.828    114.73058   -26144.559    131.69443 
   97200    308.64807   -26026.415    132.48306   -26158.898    2390.4836 
   97400    291.46578    -26014.52    125.10779   -26139.627    3829.7664 
   97600    276.47765   -26032.016    118.67434    -26150.69    1574.1963 
   97800    336.19954   -26004.612    144.30916   -26148.921   -100.07884 
   98000     272.5732   -26017.911    116.99841   -26134.909    3972.0735 
   98200    258.66746   -26055.573    111.02955   -26166.602    692.79563 
   98400     275.7136    -26037.48    118.34638   -26155.827    2752.4198 
   98600    310.03219   -26015.968    133.07718   -26149.045    2873.9468 
   98800    302.52574   -26009.186    129.85513   -26139.041   -1489.4287 
   99000    269.48928   -26028.401    115.67467   -26144.076     832.7024 
   99200    301.84114   -26040.656    129.56128   -26170.217    3078.1377 
   99400    297.64302   -26005.231    127.75929   -26132.991   -180.57784 
   99600    300.18761   -26018.278    128.85153    -26147.13   -2855.5742 
   99800    281.23873   -26045.474    120.71797   -26166.192   -1150.6457 
  100000    275.56673   -26044.569    118.28334   -26162.852    973.40049 
  100200    312.41033   -26011.632    134.09796    -26145.73     -2170.07 
  100400    316.55509   -26006.529    135.87704   -26142.406   -388.56998 
  100600    270.28986   -26035.415    116.01831   -26151.433   -4684.8536 
  100800    295.63786   -26008.549     126.8986   -26135.447    977.56026 
  101000     306.1465   -26004.805     131.4093   -26136.214    781.50859 
  101200    271.24881    -26017.03    116.42993    -26133.46    2613.8206 
  101400    312.73716   -26010.069    134.23825   -26144.307   -3328.9069 
  101600    316.85817   -26010.942    136.00714   -26146.949   -358.69153 
  101800    288.42415   -26027.151    123.80221   -26150.953    2923.1916 
  102000    301.77211   -25998.229    129.53165    -26127.76    1809.5182 
  102200    339.81966   -25985.045    145.86305   -26130.908   -5912.5739 
  102400    300.40602   -26017.361    128.94527   -26146.306   -1645.9995 
  102600     285.6091   -26026.276    122.59389    -26148.87   -730.26048 
  102800    298.36113   -25997.584    128.06753   -26125.651    -3859.318 
  103000    298.56702   -26018.257    128.15591   -26146.413    -1746.952 
  103200     297.2855   -26034.794    127.60583   -26162.399    2349.9374 
  103400     297.9428   -26019.674    127.88797   -26147.562   -1415.8268 
  103600    298.47142   -26011.797    128.11487   -26139.912   -2002.1226 
  103800    303.08024   -26024.286    130.09315   -26154.379    1686.8885 
  104000    285.20753    -26022.94    122.42152   -26145.361    1226.1169 
  104200    294.72668     -26015.8    126.50749   -26142.307   -1.9075315 
  104400    270.62717   -26034.689     116.1631   -26150.852    1310.0613 
  104600    303.58359   -26013.244     130.3092   -26143.553    143.11499 
  104800    337.72467   -25996.005     144.9638   -26140.969   -1431.0208 
  105000    291.06575   -26025.998    124.93609   -26150.934   -5710.5948 
  105200    333.17736   -26018.883    143.01193   -26161.895    2632.9772 
  105400    298.42553   -26021.476    128.09518   -26149.571   -2249.9741 
  105600    277.23903   -26032.252    119.00115   -26151.253   -118.17767 
  105800    315.95885    -26002.27    135.62112   -26137.891   -2265.0244 
  106000    285.75246   -26017.593    122.65543   -26140.248   -2884.6562 
  106200    268.41929   -26037.195    115.21539    -26152.41    2845.3606 
  106400    243.64304   -26030.221    104.58052   -26134.802    1828.8894 
  106600    305.84834   -26005.545    131.28131   -26136.826   -3967.5584 
  106800    269.30457   -26024.918    115.59539   -26140.513   -5712.3183 
  107000    313.38849   -26018.451    134.51782   -26152.969   -5316.2797 
  107200    298.88064   -26002.729    128.29052    -26131.02   -1475.7888 
  107400    293.85358   -26025.052    126.13273   -26151.185    3108.9737 
  107600    309.44589   -26019.492    132.82552   -26152.317      998.907 
  107800    315.11474   -26003.156     135.2588   -26138.415   -4275.2401 
  108000    279.51658   -26027.015    119.97876   -26146.994   -3593.4561 
  108200    281.76582   -26017.454    120.94421   -26138.398   -2516.8508 
  108400    335.27672   -25996.852    143.91306   -26140.765    1018.2534 
  108600    310.76432   -26026.696    133.39144   -26160.087   -2292.4729 
  108800    330.07503   -26013.303     141.6803   -26154.983   -1725.4854 
  109000    297.45015     -26018.8    127.67651   -26146.477   -660.99329 
  109200    277.06079   -26034.521    118.92464   -26153.446    2142.0491 
  109400    316.40532   -26006.855    135.81276   -26142.667   -1176.0752 
  109600    318.88331   -26021.611     136.8764   -26158.487    2124.7593 
  109800    288.16258   -26023.968    123.68994   -26147.658    1510.7118 
  110000    318.28362   -26010.125    136.61899   -26146.744    1057.0875 
  110200    291.12243   -26030.637    124.96042   -26155.597   -2458.8757 
  110400    290.81653   -26034.223    124.82911   -26159.052   -2997.8412 
  110600    311.34244   -26009.892    133.63959   -26143.531   -87.574325 
  110800    315.64167   -26038.819    135.48497   -26174.304    580.28641 
  111000    295.76065   -26030.945    126.95131   -26157.896   -981.54471 
  111200    293.19502   -26013.889    125.85005   -26139.739   -6784.6209 
  111400    302.07373   -26026.941    129.66112   -26156.602   -4887.3999 
  111600    262.59623   -26037.413    112.71593   -26150.129   -50.481188 
  111800    298.01822   -26009.596    127.92034   -26137.516    409.34808 
  112000    292.64715   -26029.446    125.61488   -26155.061    1976.0566 
  112200    275.58398   -26039.357    118.29074   -26157.648   -3259.3336 
  112400    316.42966   -26008.799    135.82321   -26144.623   -8975.2582 
  112600    308.07467   -26012.976    132.23694   -26145.213   -5593.6493 
  112800     290.1869   -26034.573    124.55885   -26159.132    2046.3152 
  113000    315.35818    -26003.92    135.36329   -26139.283    2643.2892 
  113200    300.98563   -26004.411    129.19406   -26133.605   -728.02476 
  113400    269.77757   -26033.094    115.79842   -26148.892   -2423.9638 
  113600    261.98239   -26022.587    112.45244   -26135.039    2237.6857 
  113800     303.7117    -26010.32    130.36419   -26140.684   -29.892566 
  114000    280.39686    -26021.72    120.35661   -26142.077   -2052.5574 
  114200    257.05685   -26038.423    110.33822   -26148.762   -4246.5199 
  114400    292.93413   -26010.183    125.73806   -26135.921    5946.5548 
  114600    288.87248   -26009.288    123.99465   -26133.283    1809.2685 
  114800    296.65477   -26011.487     127.3351   -26138.822    -3695.683 
  115000    292.39828     -26030.3    125.50806   -26155.808   -1691.5372 
  115200    308.83366   -26002.946    132.56273   -26135.509    4385.1864 
  115400    278.43534   -26012.907    119.51465   -26132.421    9935.8976 
  115600    307.13487    -26018.34    131.83354   -26150.173    7153.5282 
  115800    308.77237   -26019.447    132.53642   -26151.983    3155.7357 
  116000    321.61485       -26024    138.04888   -26162.049   -1001.5392 
  116200    268.83227   -26041.661    115.39266   -26157.054    2149.4047 
  116400    305.64843   -26009.142    131.19551   -26140.338    3973.6179 
  116600    273.09567   -26028.324    117.22267   -26145.547   -4354.2807 
  116800    301.93872   -26023.238    129.60316   -26152.841   -4616.3659 
  117000    297.20545   -25999.541    127.57147   -26127.113    2274.1891 
  117200    311.12262   -26016.347    133.54523   -26149.892    1184.6619 
  117400    298.94444   -26028.688    128.31791   -26157.006    1980.7675 
  117600    355.40666   -26004.748    152.55356   -26157.302   -3327.6051 
  117800    256.93972   -26036.589    110.28794   -26146.876    332.98356 
  118000    293.55931   -26022.394    126.00642   -26148.401   -2101.4068 
  118200    284.42058   -26019.997    122.08374   -26142.081   -3532.0466 
  118400    301.14023   -26020.109    129.26042    -26149.37    186.07668 
  118600    312.76513   -26015.785    134.25026   -26150.035    1153.9871 
  118800       285.97   -26021.014     122.7488   -26143.763      4084.22 
  119000    334.07487   -25995.174    143.39718   -26138.571    4165.7826 
  119200    277.98067   -26022.903    119.31949   -26142.223    1711.4492 
  119400    290.51609   -26028.012    124.70015   -26152.712    3558.5985 
  119600     302.5779   -26007.866    129.87752   -26137.744     1947.513 
  119800    327.05719   -26001.368    140.38493   -26141.753    1489.9879 
  120000    286.38975   -26017.159    122.92898   -26140.088    4085.3829 
  120200    301.42683   -26016.493    129.38344   -26145.876    5065.0539 
  120400    316.93343   -25991.893    136.03944   -26127.933    2403.7923 
  120600    293.40748   -26022.318    125.94124    -26148.26    2196.1322 
  120800    260.75016   -26025.258    111.92352   -26137.182   -585.91423 
  121000     337.1321   -26005.866    144.70945   -26150.576    -994.9842 
  121200    299.63995    -26021.74    128.61645   -26150.357   -3141.5763 
  121400    319.01919   -26002.386    136.93473    -26139.32   -891.51429 
  121600    303.04945   -26010.964    130.07993   -26141.044    3175.8906 
  121800    293.44441   -26024.602    125.95709   -26150.559    2334.5831 
  122000    308.66587   -26015.821     132.4907   -26148.312   -375.39243 
  122200     307.5538   -26013.936    132.01336    -26145.95    514.17429 
  122400    282.49642   -26033.067    121.25782   -26154.324    3778.2592 
  122600    324.49267   -26016.212    139.28415   -26155.496    3591.4356 
  122800    312.34514   -26007.226    134.06998   -26141.296     -1462.61 
  123000    296.41917   -26021.361    127.23397   -26148.595   -5400.4009 
  123200    307.50522   -26028.011    131.99251   -26160.003   -5525.0734 
  123400    301.82075   -26016.119    129.55253   -26145.671   -153.72408 
  123600    292.12057   -26018.154    125.38886   -26143.543    4455.1685 
  123800    252.72229   -26028.871    108.47767   -26137.349   -363.91695 
  124000    314.30537   -26005.303    134.91138   -26140.214   -709.33522 
  124200    277.86713   -26018.593    119.27075   -26137.863    1398.0617 
  124400    258.10225   -26041.049    110.78694   -26151.836    2454.2752 
  124600    292.06904   -26010.456    125.36674   -26135.822    11.340977 
  124800    300.22163   -26025.492    128.86612   -26154.358    1447.6417 
  125000    303.69878   -26022.827    130.35865   -26153.186    2206.9954 
  125200    318.18963    -26006.65    136.57865   -26143.228    2434.1246 
  125400    297.51107   -26023.691    127.70265   -26151.394   -2132.0418 
  125600    277.54402   -26045.931    119.13206   -26165.063   -2206.3879 
  125800    288.52644   -26014.354    123.84612     -26138.2   -174.94198 
  126000    310.05432   -26000.444    133.08668   -26133.531   -2690.4656 
  126200    271.65624   -26028.407    116.60481   -26145.012   -3776.4785 
  126400    293.34274   -26021.288    125.91345   -26147.201   -956.48491 
  126600    306.31478   -26014.056    131.48153   -26145.537   -534.28911 
  126800     296.5047   -26004.247    127.27069   -26131.517    1112.1641 
  127000    309.03956   -26015.046     132.6511   -26147.697    90.075776 
  127200    293.53185   -26036.012    125.99463   -26162.007    1509.8209 
  127400    328.45183   -26016.925    140.98356   -26157.909    326.36655 
  127600    277.05857   -26021.113    118.92369   -26140.036    -3541.411 
  127800    259.57533   -26027.502    111.41924   -26138.921    7187.6331 
  128000    311.23076   -26012.976    133.59165   -26146.568    6348.0347 
  128200    303.89775   -26007.743    130.44405   -26138.188   -6863.0516 
  128400    319.56247    -26011.53    137.16792   -26148.698   -4014.6779 
  128600    297.30575   -26028.128    127.61452   -26155.743    -2741.565 
  128800    313.77587    -26010.05     134.6841   -26144.734   -3039.7934 
  129000    285.20672   -26037.028    122.42118   -26159.449    2253.5276 
  129200    292.83831   -26018.654    125.69693   -26144.351    307.34149 
  129400     318.9288   -26012.601    136.89593   -26149.497   -532.15204 
  129600    275.90766   -26035.733    118.42968   -26154.163   -3814.4565 
  129800    305.00175   -26011.295    130.91793   -26142.213    -67.63682 
  130000    301.17674   -26015.665    129.27609   -26144.941    1868.5072 
  130200    261.97477    -26040.99    112.44917   -26153.439    2950.9117 
  130400    292.77985   -26016.824    125.67184   -26142.496   -2340.5917 
  130600    292.59234   -26015.211    125.59136   -26140.802    -590.9983 
  130800    292.14656       -26031    125.40001     -26156.4    5212.5856 
  131000    322.86933    -26018.98    138.58735   -26157.567    2201.0655 
  131200    318.05493   -26004.205    136.52083   -26140.726   -1186.5794 
  131400    286.25566   -26035.449    122.87142    -26158.32   -1107.4889 
  131600    294.89814   -26012.877    126.58109   -26139.458    3094.4945 
  131800    315.00665   -26015.809     135.2124   -26151.021    2047.8403 
  132000    258.05207   -26038.689     110.7654   -26149.454   -1136.2069 
  132200    291.58915   -26007.356    125.16075   -26132.517   -1781.5822 
  132400    308.25723   -25999.015     132.3153   -26131.331   -1224.9358 
  132600    293.83345     -26030.2    126.12408   -26156.324   -4042.6259 
  132800    286.29979   -26017.405    122.89036   -26140.295   -2932.8947 
  133000    314.08727   -26005.807    134.81777   -26140.625    3185.9743 
  133200    303.93782   -26026.793    130.46125   -26157.254    940.04896 
  133400    314.98134   -26019.857    135.20153   -26155.059    100.61111 
  133600    340.62876   -25980.223    146.21035   -26126.433   -1812.1261 
  133800    295.15481   -26006.081    126.69126   -26132.772    -3032.189 
  134000    300.30587     -26011.5    128.90228   -26140.402   -1119.1319 
  134200    288.55991   -26036.544    123.86049   -26160.405   -1032.7437 
  134400    324.66524   -26003.081    139.35822    -26142.44     1062.078 
  134600    331.33957   -25997.648    142.22309   -26139.871    2078.3298 
  134800    288.84766   -26032.331      123.984   -26156.315    1053.8868 
  135000    298.77724   -26028.736    128.24614   -26156.982    1570.8821 
  135200    301.63872   -26009.706    129.47439    -26139.18   -152.52641 
  135400    320.65185   -26018.738    137.63552   -26156.374    2185.6025 
  135600    289.66034    -26027.34    124.33283   -26151.673    4228.5154 
  135800      303.896   -26016.786     130.4433   -26147.229    1668.1037 
  136000    345.32308   -25986.234    148.22532    -26134.46    1637.1552 
  136200    285.25972   -26014.329    122.44393   -26136.773    3036.5499 
  136400    292.80682   -26024.191    125.68342   -26149.875   -2321.3004 
  136600     234.8403   -26050.618    100.80207   -26151.421   -3663.8545 
  136800    291.00611    -26015.83    124.91049    -26140.74     -5902.26 
  137000     328.9968   -26017.563    141.21748    -26158.78   -3645.3878 
  137200    273.06773   -26040.774    117.21068   -26157.984   -868.10347 
  137400    315.42858   -26008.955    135.39351   -26144.349   -931.06987 
  137600    280.09507   -26018.786    120.22707   -26139.013    1627.2641 
  137800    273.07746   -26026.961    117.21486   -26144.176    1802.4667 
  138000    303.65107   -26000.578    130.33817   -26130.916    3514.4883 
  138200    308.62348   -26010.834    132.47251   -26143.307    3529.8455 
  138400    310.76487   -26022.386    133.39167   -26155.777   -47.068647 
  138600    338.22171   -26010.896    145.17715   -26156.073    1288.7359 
  138800    286.70649   -26041.304    123.06493   -26164.369    1652.1441 
  139000    305.05466    -26015.93    130.94064    -26146.87    257.25722 
  139200    306.75523   -26014.644    131.67059   -26146.315    -6154.033 
  139400    276.34966   -26028.826     118.6194   -26147.445   -1507.0506 
  139600    289.41025   -26020.573    124.22549   -26144.799   -2942.7556 
  139800    284.01848   -26002.157    121.91114   -26124.068   -3558.6313 
  140000    299.94786   -26015.099    128.74861   -26143.848     -4102.78 
  140200    274.06738   -26044.839    117.63976   -26162.479   -3161.4821 
  140400    286.18188   -26023.097    122.83975   -26145.937   -4027.0022 
  140600    323.02328   -26018.247    138.65343     -26156.9   -898.61517 
  140800    288.00909   -26027.809    123.62406   -26151.433   -1868.8431 
  141000    274.95014   -26043.598    118.01868   -26161.617   -1890.8508 
  141200    293.46866    -26023.11    125.96751   -26149.077     1397.303 
  141400     313.5698    -26006.65    134.59565   -26141.246   -325.73402 
  141600     308.6764   -25986.542    132.49522   -26119.037   -6326.4999 
  141800    304.23232   -26019.932    130.58766   -26150.519   -1010.3828 
  142000    275.35808   -26031.799    118.19378   -26149.992   -1557.2086 
  142200    309.32137   -26007.725    132.77207   -26140.497   -560.43332 
  142400    279.03462   -26036.207    119.77188   -26155.979    1378.9654 
  142600    278.33515   -26024.612    119.47165   -26144.083   -2498.0391 
  142800    293.15705   -26012.178    125.83375   -26138.012    39.247902 
  143000    281.56299   -26017.309    120.85715   -26138.166   -2104.3764 
  143200    305.02542   -26012.645    130.92809   -26143.573    3581.2787 
  143400    257.25833   -26044.459     110.4247   -26154.883    3337.3203 
  143600    290.93179   -26016.788    124.87859   -26141.666   -1056.4592 
  143800    310.63148   -26013.215    133.33441   -26146.549    1148.1547 
  144000    274.35028   -26038.359    117.76119    -26156.12    1311.9121 
  144200    336.08356    -26002.69    144.25938    -26146.95   -205.18412 
  144400    304.21777   -26010.196    130.58142   -26140.777   -1899.0273 
  144600    262.88791    -26038.88    112.84113   -26151.721    625.57376 
  144800    309.49053   -26013.929    132.84468   -26146.773   -915.58427 
  145000    287.55401   -26008.901    123.42872    -26132.33    788.50857 
  145200    273.21454   -26035.107    117.27369    -26152.38   -2315.7501 
  145400    317.59518   -26009.826    136.32349    -26146.15   -709.40945 
  145600    313.90207   -26021.687    134.73827   -26156.425    5049.5488 
  145800    314.71645   -26025.507    135.08783   -26160.595   -1247.7849 
  146000    313.45613   -25997.642    134.54686   -26132.189    774.39022 
  146200    281.55066   -26028.672    120.85186   -26149.524    2986.3499 
  146400    294.70496   -26029.883    126.49817   -26156.381   -4137.7865 
  146600     291.5323   -26002.463    125.13635   -26127.599   -1581.1196 
  146800    293.71225   -26014.528    126.07206     -26140.6    2224.9996 
  147000    276.63112    -26017.69    118.74021   -26136.431   -373.06773 
  147200     315.2426   -26014.497    135.31368   -26149.811   -1796.7258 
  147400    278.82948   -26041.391    119.68383   -26161.074    -7172.324 
  147600    279.71897   -26026.634    120.06563   -26146.699   -3536.6904 
  147800    306.86314   -26019.002    131.71691   -26150.719   -1569.7665 
  148000    272.60121    -26037.19    117.01043     -26154.2   -3712.4053 
  148200    311.37133   -26026.149    133.65198   -26159.801    24.373024 
  148400    327.81604   -26009.708    140.71066   -26150.418    859.94293 
  148600    273.64209   -26025.551    117.45721   -26143.008    1263.5889 
  148800    324.02565   -25994.391    139.08368   -26133.474   -2776.3032 
  149000    293.75557   -26017.853    126.09066   -26143.943   -1121.5427 
  149200    285.76026   -26042.066    122.65878   -26164.725    3057.1846 
  149400    292.14761   -26045.711    125.40046   -26171.112    1489.7665 
  149600    297.93059   -26016.612    127.88273   -26144.495     4179.983 
  149800    306.37671   -26010.859    131.50811   -26142.367    883.50107 
  150000    268.97231   -26037.459    115.45277   -26152.912    533.49858 
  150200    314.58909    -26009.32    135.03317   -26144.353   -1561.0192 
  150400    316.10432   -26008.511    135.68356   -26144.194    1333.8856 
  150600    353.09345   -25989.764    151.56065   -26141.325   -1706.9518 
  150800    281.86685   -26026.218    120.98758   -26147.205   -4599.4677 
  151000    305.44552   -26010.622    131.10841    -26141.73    2875.3529 
  151200    290.31529   -26016.903    124.61396   -26141.517   -1637.6679 
  151400    296.91039    -26024.47    127.44482   -26151.915   -1209.4907 
  151600    325.59502   -25996.095    139.75731   -26135.852   -4550.2828 
  151800    282.82071   -26022.985    121.39701   -26144.382   -6573.5576 
  152000    294.23486   -26026.394    126.29638    -26152.69   -763.43253 
  152200    320.85603   -26000.155    137.72317   -26137.878   -3293.8427 
  152400    282.25046   -26026.925    121.15224   -26148.077    2187.4471 
  152600    290.81767   -26029.452     124.8296   -26154.282   -1862.5669 
  152800    318.65488   -26004.642    136.77835   -26141.421   -2110.7928 
  153000    305.62647   -26022.765    131.18608   -26153.951    1456.4406 
  153200    277.08533   -26020.768    118.93518   -26139.703    909.60631 
  153400    291.35499   -26014.066    125.06024   -26139.126   -3794.3806 
  153600    269.39426    -26044.59    115.63389   -26160.224   -1212.0193 
  153800    293.02602   -26018.671    125.77751   -26144.449   -2066.0718 
  154000    301.87127   -26011.371    129.57421   -26140.945   -141.14618 
  154200    277.97437    -26035.65    119.31679   -26154.967   -1237.8394 
  154400     320.8382   -26006.895    137.71551    -26144.61   -3293.7179 
  154600    265.42842   -26025.222     113.9316   -26139.154   -2541.4804 
  154800    287.14479   -26019.913    123.25307   -26143.166    1285.0361 
  155000    313.61098    -26022.21    134.61333   -26156.823     2783.069 
  155200    333.07434   -26006.507    142.96771   -26149.475    5157.5244 
  155400    319.54375   -26009.361    137.15989   -26146.521    6982.5819 
  155600    299.94249   -26016.664    128.74631   -26145.411   -1956.7628 
  155800    306.58831   -26007.332    131.59894   -26138.931   -2473.7043 
  156000    268.58395   -26037.717    115.28608   -26153.003   -2530.7679 
  156200    280.96426   -26015.831    120.60016   -26136.431   -860.14273 
  156400    291.66956   -26025.179    125.19526   -26150.374   -556.61126 
  156600    271.53649   -26040.559    116.55341   -26157.112   -3390.8647 
  156800    294.27177   -26013.172    126.31223   -26139.485   -3485.3782 
  157000    290.15942   -26007.572    124.54706   -26132.119    2869.6444 
  157200    285.27642   -26014.965    122.45109   -26137.416   -1180.6786 
  157400    268.97715   -26033.983    115.45485   -26149.437   -531.14982 
  157600    299.03451   -26009.993    128.35657   -26138.349   -2170.5243 
  157800    282.28691   -26024.191    121.16788   -26145.359   -3042.6151 
  158000    292.79205   -26015.225    125.67708   -26140.902   -2387.9551 
  158200    315.77756    -26013.91     135.5433   -26149.453    4022.5826 
  158400    276.77103   -26025.413    118.80027   -26144.213    6127.5029 
  158600    348.59682     -25993.2    149.63053   -26142.831     -475.759 
  158800    296.53748   -26019.387    127.28475   -26146.672   -4117.2503 
  159000    305.17275   -26017.384    130.99133   -26148.375   -787.43366 
  159200    279.22511   -26032.553    119.85365   -26152.407     2041.605 
  159400    285.57774   -26015.614    122.58043   -26138.194    4974.2366 
  159600    321.87865   -26013.795    138.16211   -26151.957    747.49954 
  159800    301.03349   -26035.843     129.2146   -26165.057    1375.5579 
  160000    279.44744   -26046.852    119.94908   -26166.801    1431.6514 
  160200    279.64773   -26021.689    120.03505   -26141.724   -690.54854 
  160400    334.91185   -26003.348    143.75644   -26147.105   -1314.8706 
  160600    293.18272   -26023.662    125.84477   -26149.507   -1936.1103 
  160800    304.85688    -26020.55    130.85575   -26151.406    3206.1779 
  161000    297.84602    -26023.65    127.84643   -26151.496   -2420.7097 
  161200    273.03133    -26027.69    117.19505   -26144.885    865.31192 
  161400    308.99859   -26005.255    132.63352   -26137.888   -588.86151 
  161600    285.61593   -26026.311    122.59682   -26148.908    434.12858 
  161800    282.91672   -26028.431    121.43822   -26149.869   -196.92457 
  162000    304.88613   -26011.137     130.8683   -26142.006    823.54163 
  162200    341.01138   -25982.031    146.37458   -26128.405   -3362.8614 
  162400    310.61219   -26013.694    133.32613    -26147.02   -5764.7936 
  162600    304.68803   -26027.632    130.78327   -26158.415   -1902.4906 
  162800    308.74825   -26001.036    132.52606   -26133.562     249.4873 
  163000    322.84742    -25995.66    138.57795   -26134.238     3204.975 
  163200    293.14224    -26010.83    125.82739   -26136.657    1707.2681 
  163400    270.59493   -26024.918    116.14926   -26141.067   -3959.8235 
  163600     324.4785   -26015.346    139.27806   -26154.624   -3519.1694 
  163800    282.84858   -26013.847    121.40898   -26135.256   -2088.2312 
  164000    297.89282   -26036.147    127.86652   -26164.014   -689.68041 
  164200    327.71415   -26002.345    140.66692   -26143.012    373.49123 
  164400    302.69337   -26027.388    129.92709   -26157.315    572.99012 
  164600    306.71041   -26012.489    131.65135    -26144.14    1050.8055 
  164800    334.53351   -25998.922    143.59404   -26142.516    1183.3363 
  165000    295.44376   -26024.202    126.81529   -26151.017    -2314.367 
  165200    262.10439    -26028.54    112.50481   -26141.045   -4459.8684 
  165400    330.79759   -25994.721    141.99045   -26136.712   -929.26733 
  165600    289.29925   -26020.011    124.17784   -26144.189     -4631.73 
  165800      271.658   -26034.225    116.60557    -26150.83    340.64783 
  166000    311.77662   -26007.855    133.82595   -26141.681   -165.76546 
  166200    274.97127   -26024.895    118.02775   -26142.923    998.57604 
  166400    293.62132   -26030.424    126.03303   -26156.457    1928.7827 
  166600    311.70334   -26020.174     133.7945   -26153.968    4784.9984 
  166800    289.85912   -26017.391    124.41816   -26141.809    2731.1814 
  167000     330.4702   -25998.189    141.84992   -26140.039    4360.8558 
  167200    281.02318   -26025.559    120.62545   -26146.184    1628.6565 
  167400    283.60405   -26025.899    121.73325   -26147.633   -137.33665 
  167600    280.20591   -26017.595    120.27464    -26137.87   -780.30671 
  167800    308.27766   -26025.631    132.32407   -26157.955   -393.32715 
  168000    283.09468   -26032.446    121.51461   -26153.961    2317.7222 
  168200    315.56775   -26002.251    135.45324   -26137.705    -1760.997 
  168400    299.65921   -26019.393    128.62472   -26148.018    2382.9135 
  168600    283.01858   -26026.918    121.48194     -26148.4    17.364583 
  168800     324.5681   -26008.211    139.31652   -26147.527   -796.84841 
  169000    297.36433   -26024.424    127.63967   -26152.063    318.77188 
  169200    260.44384   -26036.766    111.79204   -26148.558    -185.4538 
  169400     307.1674   -26017.174    131.84751   -26149.022    982.70888 
  169600    296.43107   -26025.859    127.23908   -26153.098    1738.2854 
  169800    268.80231   -26040.178     115.3798   -26155.558   -3566.4808 
  170000    255.90275   -26016.937    109.84284    -26126.78    1324.5531 
  170200    314.76438   -26003.459    135.10841   -26138.567    2781.4195 
  170400    276.16053   -26034.517    118.53822   -26153.055   -1022.4024 
  170600    302.70809   -26021.382    129.93341   -26151.315   -1963.3578 
  170800    324.87464   -26000.272     139.4481    -26139.72   -85.687184 
  171000     306.6744   -25993.941    131.63589   -26125.577   -2021.4148 
  171200    275.97882   -26026.404    118.46022   -26144.864    -3131.993 
  171400    288.61782   -26025.897    123.88535   -26149.782   -5309.6506 
  171600    281.64096   -26006.607    120.89062   -26127.497   -3555.7265 
  171800     285.8712   -26013.944    122.70639   -26136.651   -2424.2571 
  172000    309.21611   -26015.803    132.72689    -26148.53   -1117.3583 
  172200    279.35796   -26046.831    119.91067   -26166.742     2236.297 
  172400     285.7628   -26022.059    122.65987   -26144.719    3270.4896 
  172600    320.34337    -26016.94    137.50311   -26154.443   -4805.6355 
  172800    241.82685   -26043.979    103.80094    -26147.78   -1949.1838 
  173000    306.27784   -26019.598    131.46567   -26151.064   -720.70849 
  173200    296.64522   -26019.471      127.331   -26146.802   -1815.3669 
  173400    281.26282   -26031.035    120.72831   -26151.763   -1327.9941 
  173600    299.39734   -26018.545    128.51231   -26147.058   -3429.8572 
  173800    308.19419   -26005.521    132.28824    -26137.81    1008.4191 
  174000    285.19649   -26024.118    122.41678   -26146.535    3845.0548 
  174200    292.17189    -26011.11    125.41088   -26136.521    4539.0906 
  174400    314.70757   -25994.214    135.08402   -26129.298     2009.768 
  174600    286.47094   -26033.574    122.96383   -26156.538     -805.356 
  174800    313.00177   -26018.215    134.35183   -26152.567   -3040.6948 
  175000    299.21963   -26009.421    128.43603   -26137.857    1579.8218 
  175200    295.46416    -26035.96    126.82404   -26162.784   -184.98407 
  175400    331.66407   -26017.925    142.36237   -26160.288   -224.34454 
  175600    287.53227   -26010.989    123.41939   -26134.408    9138.8367 
  175800    348.63774   -25994.315     149.6481   -26143.963    547.63297 
  176000    286.33902   -26018.372     122.9072   -26141.279   -1004.9779 
  176200    271.02335   -26025.556    116.33316    -26141.89    2514.3231 
  176400    341.51035   -25995.989    146.58876   -26142.577    3606.6877 
  176600    292.33135   -26023.696    125.47933   -26149.175   -1043.8106 
  176800    292.42781   -26032.011    125.52073   -26157.531    131.82304 
  177000    289.14753   -26011.248    124.11272   -26135.361    5632.1026 
  177200    303.16078   -26003.372    130.12772     -26133.5     467.8221 
  177400    281.67188   -26025.735    120.90389   -26146.639   -2048.5124 
  177600    330.02619   -26008.048    141.65933   -26149.707     2557.297 
  177800    348.69833   -25979.929     149.6741   -26129.603     208.2733 
[...]
  950000    277.95934   -26015.728    119.31033   -26135.039    2660.4799 
  950200    265.12189   -26035.491    113.80003   -26149.291   -2369.2936 
  950400    300.99074   -26005.317    129.19625   -26134.513   -1786.8032 
  950600    283.47167   -26020.477    121.67643   -26142.153      1802.08 
  950800    300.47481   -26028.455     128.9748   -26157.429   -1434.5021 
  951000    296.90313   -26028.241     127.4417   -26155.683    -2538.895 
  951200    288.77762   -26002.521    123.95394   -26126.475    -6669.755 
  951400    267.59357   -26031.023    114.86097   -26145.884   -3445.3303 
  951600    299.78963   -26022.988     128.6807   -26151.668   -257.32229 
  951800    296.66558   -26014.363    127.33974   -26141.702    4780.6913 
  952000    272.71128   -26039.599    117.05767   -26156.657   -1503.7248 
  952200    303.70538   -26010.806    130.36148   -26141.168    2108.7961 
  952400    292.64231   -26012.383    125.61281   -26137.995   -1324.5176 
  952600    260.35748   -26041.349    111.75497   -26153.104   -250.75262 
  952800    312.03066   -26020.268      133.935   -26154.203    -4068.048 
  953000    285.15011   -26018.054    122.39688   -26140.451   -2687.8258 
  953200    296.14085   -26017.539    127.11451   -26144.654     1788.643 
  953400     321.3383   -26011.728    137.93018   -26149.659   -927.62017 
  953600     267.3494   -26035.367    114.75616   -26150.123        -1017 
  953800    294.78871   -26003.827    126.53412   -26130.361    -6632.228 
  954000    283.83075   -26016.103    121.83056   -26137.933   -2841.7037 
  954200    273.24675   -26034.649    117.28752   -26151.936   -1376.8801 
  954400    277.03306   -26030.511    118.91274   -26149.424   -4432.7973 
  954600    316.19528   -26003.558     135.7226   -26139.281   -3919.0728 
  954800     277.3702   -26029.945    119.05746   -26149.002    2188.4887 
  955000    317.79331   -26027.498    136.40853   -26163.906    3085.5771 
  955200    315.42995   -26015.542     135.3941   -26150.936   -35.450456 
  955400    318.37987    -25991.96    136.66031    -26128.62     3713.831 
  955600    292.77875   -26016.235    125.67137   -26141.907    1987.2807 
  955800     301.3765   -26021.716    129.36184   -26151.078   -8056.8774 
  956000    326.42106   -26002.891    140.11188   -26143.002    -1287.233 
  956200    293.73148   -26020.781    126.08032   -26146.861    57.999501 
  956400    277.58412   -26020.616    119.14928   -26139.766    308.24517 
  956600    309.05894    -26008.83    132.65942   -26141.489   -3372.2241 
  956800    254.58528    -26033.05    109.27733   -26142.328   -4100.9474 
  957000    296.14834   -26006.482    127.11772     -26133.6   -1457.2769 
  957200    302.07589   -26020.213    129.66204   -26149.875    1982.1238 
  957400    306.36956   -26027.777    131.50504   -26159.282    3796.4245 
  957600    264.16676   -26029.224    113.39005   -26142.614   -349.38417 
  957800    316.85995   -26009.319     136.0079   -26145.327     3688.032 
  958000    288.45973   -26035.167    123.81749   -26158.984    1479.1775 
  958200    278.76195   -26019.379    119.65484   -26139.034    1464.4274 
  958400    322.93198   -26015.294    138.61424   -26153.908   -1673.0383 
  958600    264.41854   -26037.969    113.49813   -26151.468   -2635.2236 
  958800    290.76481   -26006.151    124.80691   -26130.958    871.61004 
  959000    297.61738   -26015.268    127.74829   -26143.016    3004.2182 
  959200    289.60298   -26035.509    124.30821   -26159.817    3113.6446 
  959400    296.51563   -26031.438    127.27537   -26158.714    1894.9946 
  959600     332.6425   -26010.451    142.78235   -26153.233    1024.4421 
  959800    309.92152   -26013.542    133.02967   -26146.572    680.36577 
  960000    285.95605   -26040.297    122.74282    -26163.04    3204.8461 
  960200    304.67546   -26012.884    130.77787   -26143.662    3615.8646 
  960400    304.62814   -26012.936    130.75756   -26143.694    2150.6972 
  960600    271.29679   -26041.059    116.45053   -26157.509   -409.83642 
  960800     328.1233   -26018.547    140.84255    -26159.39   -741.02288 
  961000    298.85545   -26013.419    128.27971   -26141.699   -4108.7273 
  961200    301.10754   -26002.494    129.24639   -26131.741    1180.3174 
  961400    323.46899   -26011.304    138.84475   -26150.148   -2061.9909 
  961600    275.53732   -26027.011    118.27071   -26145.281   -5772.7561 
  961800     330.4995    -26002.33     141.8625   -26144.192    82.705331 
  962000    264.15154   -26032.268    113.38352   -26145.652    2937.1682 
  962200    303.49186   -26020.054    130.26983   -26150.324   -3751.7953 
  962400    293.69057   -26011.379    126.06275   -26137.442   -573.94229 
  962600    279.07276   -26025.473    119.78826   -26145.261   -2741.0964 
  962800    311.88971   -26012.684    133.87449   -26146.558   -2249.7055 
  963000    319.85749   -26013.749    137.29456   -26151.044   -433.37088 
  963200     310.2184   -26024.677    133.15711   -26157.834   -1633.0273 
  963400    311.03188   -26002.866    133.50628   -26136.373    2763.3474 
  963600      309.783   -26034.361    132.97022   -26167.332   -364.45324 
  963800    275.72836   -26022.193    118.35271   -26140.545   -2275.0782 
  964000     290.5746   -26011.453    124.72527   -26136.178   -2066.5523 
  964200    280.82414   -26041.374    120.54001   -26161.914   -500.50675 
  964400    283.60515   -26031.179    121.73372   -26152.913    1711.5212 
  964600    292.07584    -26018.62    125.36965   -26143.989   -869.49314 
  964800     314.2869   -25998.848    134.90346   -26133.752   -7629.4761 
  965000    310.04323   -26019.594    133.08192   -26152.675   -2073.4459 
  965200    306.33545   -26022.031     131.4904   -26153.521    44.851616 
  965400    276.90564   -26019.488    118.85805   -26138.346   -2038.2865 
  965600    288.99512   -26015.821     124.0473   -26139.869   -264.73538 
  965800    316.45854   -26007.005     135.8356    -26142.84    1218.9909 
  966000    281.11202   -26029.412    120.66358   -26150.076   -1177.8201 
  966200    307.87407   -26010.261    132.15083   -26142.412   -586.06941 
  966400    273.96816    -26033.87    117.59717   -26151.467    51.324016 
  966600    293.99879   -26027.789    126.19505   -26153.984     3573.073 
  966800    320.97515   -26012.825     137.7743   -26150.599   -194.24625 
  967000    299.35278   -26033.574    128.49318   -26162.067     390.8054 
  967200     297.8313   -26021.772    127.84011   -26149.612    2049.5177 
  967400    290.08804   -26015.189    124.51642   -26139.706    3262.7243 
  967600    282.60972   -26032.207    121.30645   -26153.513   -1036.4606 
  967800    281.35917     -26039.2    120.76967    -26159.97    396.22276 
  968000    314.58934   -26009.952    135.03327   -26144.986   -3410.3821 
  968200     288.0916   -26015.224    123.65947   -26138.883    1633.0044 
  968400    294.13996   -26033.239    126.25565   -26159.494    2308.1174 
  968600     332.6847   -26012.409    142.80047   -26155.209    243.29477 
  968800    307.90031   -26025.975     132.1621   -26158.137    4763.4593 
  969000    254.13004   -26051.274    109.08193   -26160.356    4996.0293 
  969200    287.30237   -26021.614    123.32071   -26144.934   -2212.3758 
  969400    309.73467   -26015.666    132.94947   -26148.616   -1442.1714 
  969600    278.03438   -26039.724    119.34255   -26159.067   -5301.3004 
  969800    322.93357   -26013.328    138.61492   -26151.943   -1551.9894 
  970000    281.36434   -26019.886    120.77189   -26140.658    3272.7675 
  970200    298.70325   -26024.828    128.21438   -26153.043    3993.1613 
  970400    317.26847   -26016.511    136.18325   -26152.694   -336.72752 
  970600    323.40111   -26006.838    138.81561   -26145.653    2822.4885 
  970800    274.89772   -26038.541    117.99618   -26156.537    38.494829 
  971000    301.95859   -26019.539    129.61169   -26149.151    -4644.086 
  971200    294.50627   -26016.381    126.41288   -26142.794    -2998.714 
  971400     302.3592   -26021.725    129.78365   -26151.508    1222.5058 
  971600    292.93423   -26032.859    125.73811   -26158.597     2146.869 
  971800    308.84294   -26007.419    132.56671   -26139.986    471.41288 
  972000    268.94066   -26016.466    115.43919   -26131.905   -753.03268 
  972200    289.52293   -26013.383    124.27385   -26137.657   -2362.3984 
  972400    326.49519   -26001.917     140.1437   -26142.061   -2335.2075 
  972600    279.49429   -26030.383    119.96919   -26150.352    1362.5876 
  972800    314.21851   -26008.499     134.8741   -26143.374    1098.2104 
  973000    318.19945   -26001.759    136.58287   -26138.342   -877.24018 
  973200    289.31896   -26017.877     124.1863   -26142.064    1129.1248 
  973400      276.921   -26037.739    118.86464   -26156.603    5935.0998 
  973600    289.17189   -26007.368    124.12317   -26131.491    2551.2377 
  973800    295.66642   -26016.414    126.91086   -26143.325   -626.76646 
  974000    295.85875   -26027.989    126.99342   -26154.983    202.97878 
  974200    316.29732   -26004.065     135.7664   -26139.832   -596.97099 
  974400    315.12551   -26013.899    135.26342   -26149.162    1468.2991 
  974600    292.03991    -26021.44    125.35423   -26146.794   -2206.3928 
  974800     326.0164   -26009.945    139.93819   -26149.883   -2907.2012 
  975000    323.41124   -26030.974    138.81996   -26169.794   -2250.7597 
  975200    335.84617   -26004.433    144.15748    -26148.59   -1267.1396 
  975400    317.45002   -26008.913    136.26118   -26145.174    2316.9623 
  975600    275.80571   -26027.954    118.38592    -26146.34   -2969.7456 
  975800    282.30719   -26016.943    121.17659    -26138.12   -3124.0912 
  976000     303.3661   -26007.284    130.21585     -26137.5   -1155.3906 
  976200    262.47548   -26028.503    112.66409   -26141.168   -281.77386 
  976400    298.83413   -26021.372    128.27056   -26149.643   -477.42743 
  976600    311.58596   -26000.116    133.74411    -26133.86    1701.4383 
  976800     277.6209   -26028.122    119.16507   -26147.287   -4853.7168 
  977000    301.60967   -26013.283    129.46192   -26142.744    1881.3323 
  977200    320.96261   -25996.443    137.76892   -26134.212    2333.8727 
  977400    302.89123   -26020.705    130.01202   -26150.717    1810.5225 
  977600    336.97991   -26000.642    144.64413   -26145.286   -12.372226 
  977800    298.80585   -26016.718    128.25842   -26144.976    3503.8593 
  978000    307.89207   -26020.805    132.15856   -26152.964     1538.014 
  978200    324.42562    -26004.18    139.25537   -26143.435    603.96001 
  978400    296.98792   -26008.703     127.4781   -26136.181   -4207.3862 
  978600     304.1591   -26027.691    130.55623   -26158.248   -3414.4299 
  978800    327.73678    -26000.08    140.67664   -26140.757    765.80932 
  979000    330.02078    -26011.63    141.65701   -26153.287   -783.91226 
  979200    301.63873   -26018.116     129.4744    -26147.59   -3074.6557 
  979400    300.83869    -26029.59    129.13099   -26158.721   -3273.2134 
  979600    314.34245   -26021.351     134.9273   -26156.278    2187.3091 
  979800    316.26571   -26005.748    135.75283   -26141.501    7023.6611 
  980000    287.13498   -26026.197    123.24886   -26149.446     3598.957 
  980200    295.70419    -26028.92    126.92707   -26155.847   -1108.8094 
  980400    289.17782   -26014.015    124.12572   -26138.141   -2788.0932 
  980600    278.27856   -26038.816    119.44736   -26158.263    2022.6101 
  980800    297.34832    -26027.12    127.63279   -26154.753   -4284.4431 
  981000     323.5409   -26014.983    138.87561   -26153.859   -5315.7811 
  981200    275.52009   -26038.512    118.26332   -26156.775   -3470.8193 
  981400    303.23597   -26025.429    130.15999   -26155.589   -82.295985 
  981600    306.25331    -26009.32    131.45514   -26140.775    4951.0081 
  981800    262.85827    -26031.65     112.8284   -26144.479    1337.4235 
  982000    303.91715   -26025.268    130.45238    -26155.72    200.69792 
  982200    306.62847   -26013.198    131.61618   -26144.814    3714.5951 
  982400    298.47035   -26038.192    128.11441   -26166.307    599.30624 
  982600    282.93296   -26014.247    121.44519   -26135.692   -4212.2556 
  982800    296.90756   -26013.527     127.4436   -26140.971    25.587639 
  983000    291.61303   -26028.804      125.171   -26153.975   -4238.5387 
  983200    310.95058   -26022.587    133.47139   -26156.059    -1301.901 
  983400    318.94555    -26008.51    136.90312   -26145.413   -1349.1394 
  983600    282.56522   -26035.686    121.28735   -26156.973    2633.6849 
  983800    260.51478   -26039.671    111.82249   -26151.494    3567.5278 
  984000    294.10004   -26020.591    126.23851    -26146.83    993.93216 
  984200    335.78775   -25999.265    144.13241   -26143.397    4433.8206 
  984400    288.00097   -26030.246    123.62057   -26153.866    1820.4431 
  984600    309.17002   -26022.374     132.7071   -26155.081    1748.0813 
  984800    292.55771   -26012.233    125.57649    -26137.81    2217.4855 
  985000    323.08357   -25998.381    138.67931    -26137.06    436.85761 
  985200    297.35562   -26027.984    127.63593    -26155.62    601.90487 
  985400    291.23431   -26024.744    125.00844   -26149.752    90.000302 
  985600    346.78928   -25989.872    148.85467   -26138.726   -2148.3982 
  985800    286.37246   -26017.648    122.92155    -26140.57   -5040.3415 
  986000    299.93416   -26020.545    128.74273   -26149.288    -4457.105 
  986200    265.88341   -26047.197     114.1269   -26161.324    -3577.044 
  986400    284.35896   -26024.506    122.05729   -26146.563   -2770.7314 
  986600    316.29888   -26006.602    135.76707    -26142.37   -1857.9074 
  986800    299.85094   -26032.295    128.70701   -26161.002    1191.2688 
  987000    295.91021   -26024.108    127.01551   -26151.124   -1335.2562 
  987200    305.75728   -26001.839    131.24223   -26133.081    754.29624 
  987400    307.28859   -26015.403    131.89953   -26147.303   -4384.7679 
  987600    315.12574   -26022.653    135.26352   -26157.916   -6088.3965 
  987800    304.27097   -26031.204    130.60425   -26161.808    1060.1279 
  988000    306.69933   -26002.772    131.64659   -26134.419    7006.9823 
  988200    295.38802   -26021.125    126.79136   -26147.916    -1592.786 
  988400     233.6011   -26051.442    100.27015   -26151.712   -6207.3339 
  988600    267.74612    -26038.15    114.92645   -26153.077    1010.6727 
  988800    302.44525   -26015.716    129.82058   -26145.537     6071.132 
  989000    303.11534   -26012.992    130.10821   -26143.101    3008.0212 
  989200    297.24111   -26031.351    127.58678   -26158.938   -500.72588 
  989400    324.07909   -26011.451    139.10662   -26150.558   -4749.0265 
  989600    290.88739   -26026.266    124.85953   -26151.126   -1778.0367 
  989800    279.99063   -26041.469    120.18224   -26161.651    202.08429 
  990000    286.06702   -26019.376    122.79045   -26142.167   -2313.5357 
  990200    305.84084   -26012.524     131.2781   -26143.802    3478.6808 
  990400    338.32613    -26000.99    145.22197   -26146.212    1174.7223 
  990600    251.45002   -26025.977    107.93156   -26133.909    1621.8983 
  990800    310.41436   -26011.139    133.24122    -26144.38   -271.47687 
  991000     263.9791   -26016.487     113.3095   -26129.796   -6229.2024 
  991200    296.46879   -26030.046    127.25527   -26157.301   -4895.4333 
  991400    332.59483   -25999.919    142.76189   -26142.681    1545.7778 
  991600    280.68756   -26026.518    120.48139   -26146.999   -1092.5773 
  991800    287.41542   -26031.756    123.36923   -26155.125   -247.82486 
  992000    304.14781   -26005.975    130.55139   -26136.527   -1403.8139 
  992200    278.32673   -26011.487    119.46803   -26130.955   -2053.4823 
  992400    292.82104   -26026.273    125.68952   -26151.963    651.40053 
  992600    303.84605   -26022.206    130.42186   -26152.627    5107.8874 
  992800     308.7205   -26005.975    132.51415   -26138.489   -1626.4185 
  993000    296.96657   -26034.867    127.46893   -26162.336   -1673.2918 
  993200     310.5435    -26023.62    133.29665   -26156.917    3847.2297 
  993400    305.33834   -26024.271     131.0624   -26155.333    3721.5527 
  993600    330.43087   -26000.591    141.83304   -26142.424    278.89269 
  993800    305.50573   -26020.364    131.13426   -26151.498   -2273.4704 
  994000    278.07218   -26030.782    119.35877   -26150.141     2180.647 
  994200    315.35406   -26011.696    135.36152   -26147.058   -3799.3624 
  994400    288.30338   -26028.107    123.75038   -26151.858   -5520.3678 
  994600    328.15698    -26008.78      140.857   -26149.637    -4447.943 
  994800    279.52794   -26026.693    119.98364   -26146.676   -2434.2125 
  995000    299.59429   -26025.356    128.59685   -26153.953   -2785.2682 
  995200     304.4486   -26010.667    130.68049   -26141.348   -241.51649 
  995400    326.25071   -25987.459    140.03876   -26127.498    1218.7791 
  995600    317.41783   -26022.964    136.24737   -26159.211    5016.7861 
  995800    264.08177   -26024.569    113.35358   -26137.922    1066.4172 
  996000     310.8417   -26003.633    133.42465   -26137.058   -735.66904 
  996200    305.69489   -26031.692    131.21545   -26162.907    2963.2331 
  996400    317.15704   -26020.196    136.13542   -26156.331    3350.3246 
  996600    298.99274   -26013.074    128.33864   -26141.412   -5077.2069 
  996800    253.12739   -26042.627    108.65155   -26151.278   -5568.3318 
  997000    288.96753   -26013.834    124.03546   -26137.869    776.26344 
  997200     294.7074   -26015.775    126.49922   -26142.274    4079.6832 
  997400    306.18188   -26028.583    131.42448   -26160.007    3220.3091 
  997600    322.92649   -26021.576    138.61188   -26160.188   -775.82915 
  997800    316.75504   -26000.806    135.96287   -26136.769   -995.00759 
  998000    282.95691   -26031.779    121.45548   -26153.234   -780.22199 
  998200    296.57151   -26014.029    127.29936   -26141.329   -767.44442 
  998400    343.87528   -26006.971    147.60387   -26154.575    2248.2458 
  998600    282.73685   -26038.003    121.36102   -26159.364   -3366.0007 
  998800    308.84582   -26008.471    132.56795   -26141.039   -2897.6198 
  999000    283.63778   -26017.688    121.74773   -26139.435    1006.5301 
  999200    263.26357   -26037.989    113.00237   -26150.991    2374.5228 
  999400     295.0727   -26016.543    126.65602   -26143.199    2978.7337 
  999600    314.76479   -26020.463    135.10859   -26155.572   -755.19309 
  999800    302.54056   -26046.076     129.8615   -26175.938   -4005.5168 
 1000000    323.04089   -26015.728    138.66099   -26154.389   -2998.8293 
Loop time of 1981.81 on 8 procs for 1000000 steps with 145 atoms

Performance: 10.899 ns/day, 2.202 hours/ns, 504.588 timesteps/s
99.5% CPU use with 8 MPI tasks x no OpenMP threads

MPI task timing breakdown:
Section |  min time  |  avg time  |  max time  |%varavg| %total
---------------------------------------------------------------
Pair    | 653.3      | 797.39     | 1184.9     | 764.5 | 40.24
Neigh   | 0.10056    | 0.10871    | 0.12472    |   2.5 |  0.01
Comm    | 51.86      | 433.06     | 575.55     |1019.6 | 21.85
Output  | 0.10412    | 0.11089    | 0.13348    |   2.7 |  0.01
Modify  | 740.18     | 747.85     | 757.05     |  20.8 | 37.74
Other   |            | 3.298      |            |       |  0.17

Nlocal:    18.125 ave 68 max 1 min
Histogram: 6 0 0 0 0 0 0 0 0 2
Nghost:    319.25 ave 347 max 305 min
Histogram: 3 0 1 1 1 1 0 0 0 1
Neighs:    620 ave 2288 max 40 min
Histogram: 6 0 0 0 0 0 0 0 0 2

Total # of neighbors = 4960
Ave neighs/atom = 34.2069
Neighbor list builds = 469
Dangerous builds = 0

unfix 1
unfix output
undump 1

Please see the log.cite file for references relevant to this simulation

Total wall time: 0:33:06
