ITEM: TIMESTEP
0
ITEM: NUMBER OF ATOMS
145
ITEM: BOX BOUNDS pp pp pp
0.0000000000000000e+00 2.1884000000000000e+01
0.0000000000000000e+00 2.1885999999999999e+01
0.0000000000000000e+00 2.1885000000000002e+01
ITEM: ATOMS id type x y z 
16 1 1.605 12.547 12.547 
32 1 0.024 10.965 10.965 
64 1 4.318 12.218 12.218 
68 1 1.276 15.26 12.218 
78 1 1.276 12.218 15.26 
112 1 3.118 12.317 12.317 
116 1 1.375 14.061 12.317 
126 1 1.375 12.317 14.061 
144 1 0.722 11.664 11.663 
9 1 8.524 12.547 12.547 
25 1 10.105 10.965 10.965 
57 1 5.811 12.218 12.218 
65 1 8.853 15.26 12.218 
73 1 8.853 12.219 15.26 
105 1 7.01 12.317 12.317 
113 1 8.754 14.061 12.317 
121 1 8.754 12.317 14.061 
137 1 9.407 11.664 11.664 
11 1 1.605 19.466 12.547 
27 1 0.023 21.047 10.964 
59 1 4.318 19.795 12.218 
69 1 1.276 16.754 12.218 
79 1 1.276 19.795 15.26 
107 1 3.119 19.696 12.317 
117 1 1.375 17.953 12.317 
127 1 1.375 19.696 14.061 
139 1 0.721 20.349 11.663 
14 1 8.524 19.467 12.547 
30 1 10.106 21.049 10.966 
62 1 5.811 19.795 12.218 
72 1 8.853 16.753 12.218 
76 1 8.853 19.796 15.26 
110 1 7.01 19.696 12.317 
120 1 8.754 17.953 12.317 
124 1 8.754 19.697 14.061 
142 1 9.407 20.35 11.664 
13 1 1.605 12.547 19.466 
29 1 0.023 10.966 21.048 
61 1 4.318 12.218 19.795 
71 1 1.276 15.26 19.795 
75 1 1.276 12.218 16.754 
109 1 3.119 12.317 19.696 
119 1 1.375 14.061 19.696 
123 1 1.375 12.317 17.953 
141 1 0.721 11.664 20.35 
12 1 8.524 12.547 19.466 
28 1 10.106 10.965 21.047 
60 1 5.811 12.219 19.795 
70 1 8.853 15.26 19.796 
80 1 8.853 12.219 16.754 
108 1 7.011 12.317 19.696 
118 1 8.754 14.061 19.696 
128 1 8.754 12.318 17.953 
140 1 9.408 11.664 20.349 
10 1 1.604 19.466 19.466 
26 1 0.023 21.047 21.049 
58 1 4.317 19.796 19.795 
66 1 1.276 16.754 19.795 
74 1 1.276 19.795 16.753 
106 1 3.118 19.696 19.696 
114 1 1.375 17.953 19.696 
122 1 1.375 19.696 17.952 
138 1 0.721 20.349 20.35 
15 1 8.524 19.467 19.466 
31 1 10.106 21.048 21.049 
63 1 5.811 19.796 19.795 
67 1 8.853 16.754 19.795 
77 1 8.853 19.796 16.753 
111 1 7.01 19.697 19.696 
115 1 8.754 17.953 19.696 
125 1 8.754 19.697 17.952 
143 1 9.407 20.35 20.35 
8 1 12.547 1.604 1.605 
24 1 10.965 0.023 0.022 
40 1 15.26 1.275 1.276 
44 1 12.218 4.317 1.276 
54 1 12.218 1.275 4.318 
88 1 14.061 1.374 1.375 
92 1 12.317 3.118 1.375 
102 1 12.317 1.374 3.119 
136 1 11.664 0.721 0.721 
1 1 19.466 1.604 1.604 
17 1 21.048 0.023 0.022 
33 1 16.753 1.275 1.276 
41 1 19.795 4.317 1.276 
49 1 19.795 1.275 4.317 
81 1 17.952 1.374 1.375 
89 1 19.696 3.118 1.375 
97 1 19.696 1.374 3.118 
129 1 20.35 0.722 0.721 
145 2 20.566 1.604 1.604 
3 1 12.546 8.524 1.604 
19 1 10.965 10.106 0.024 
35 1 15.26 8.852 1.276 
45 1 12.218 5.811 1.275 
55 1 12.218 8.852 4.317 
83 1 14.06 8.753 1.375 
93 1 12.317 7.01 1.374 
103 1 12.317 8.753 3.118 
131 1 11.663 9.407 0.722 
6 1 19.466 8.524 1.605 
22 1 21.048 10.105 0.023 
38 1 16.753 8.852 1.276 
48 1 19.795 5.811 1.276 
52 1 19.795 8.853 4.318 
86 1 17.952 8.754 1.375 
96 1 19.696 7.01 1.375 
100 1 19.696 8.754 3.118 
134 1 20.35 9.407 0.721 
5 1 12.547 1.604 8.524 
21 1 10.965 0.022 10.105 
37 1 15.26 1.275 8.853 
47 1 12.218 4.317 8.853 
51 1 12.218 1.276 5.811 
85 1 14.06 1.374 8.754 
95 1 12.317 3.118 8.754 
99 1 12.317 1.375 7.01 
133 1 11.663 0.72 9.407 
4 1 19.466 1.605 8.524 
20 1 21.048 0.024 10.107 
36 1 16.753 1.275 8.853 
46 1 19.795 4.317 8.853 
56 1 19.795 1.275 5.811 
84 1 17.952 1.374 8.754 
94 1 19.695 3.118 8.754 
104 1 19.696 1.374 7.01 
132 1 20.35 0.722 9.408 
2 1 12.547 8.524 8.524 
18 1 10.965 10.106 10.106 
34 1 15.26 8.853 8.853 
42 1 12.218 5.811 8.853 
50 1 12.218 8.852 5.811 
82 1 14.061 8.754 8.754 
90 1 12.317 7.01 8.754 
98 1 12.317 8.754 7.01 
130 1 11.664 9.407 9.407 
7 1 19.466 8.524 8.524 
23 1 21.047 10.106 10.106 
39 1 16.753 8.853 8.853 
43 1 19.795 5.811 8.853 
53 1 19.795 8.853 5.811 
87 1 17.952 8.754 8.754 
91 1 19.696 7.01 8.754 
101 1 19.696 8.754 7.01 
135 1 20.349 9.407 9.407 
ITEM: TIMESTEP
10
ITEM: NUMBER OF ATOMS
145
ITEM: BOX BOUNDS pp pp pp
0.0000000000000000e+00 2.1884000000000000e+01
0.0000000000000000e+00 2.1885999999999999e+01
0.0000000000000000e+00 2.1885000000000002e+01
ITEM: ATOMS id type x y z 
16 1 1.60488 12.5468 12.5471 
32 1 0.0233676 10.9646 10.9647 
64 1 4.31683 12.2185 12.2185 
68 1 1.27651 15.2599 12.2185 
78 1 1.27654 12.2185 15.2599 
112 1 3.11899 12.3173 12.3173 
116 1 1.3753 14.0609 12.3173 
126 1 1.37531 12.3174 14.0609 
144 1 0.72243 11.6646 11.6637 
9 1 8.5238 12.5473 12.5469 
25 1 10.1058 10.9648 10.9643 
57 1 5.80993 12.2184 12.2184 
65 1 8.8526 15.2609 12.2184 
73 1 8.85249 12.2193 15.2598 
105 1 7.01198 12.3175 12.3176 
113 1 8.75351 14.0593 12.3175 
121 1 8.75367 12.3177 14.0607 
137 1 9.40589 11.6644 11.6649 
11 1 1.60485 19.4662 12.5466 
27 1 0.0244688 21.0461 10.9656 
59 1 4.31765 19.7945 12.2185 
69 1 1.2764 16.7532 12.2184 
79 1 1.27634 19.7947 15.2582 
107 1 3.11949 19.6958 12.3172 
117 1 1.37514 17.9522 12.3172 
127 1 1.37529 19.6957 14.0601 
139 1 0.722565 20.3486 11.6646 
14 1 8.52422 19.4668 12.5472 
30 1 10.1048 21.0479 10.9669 
62 1 5.81153 19.7945 12.2185 
72 1 8.85242 16.7543 12.2186 
76 1 8.85249 19.7955 15.2596 
110 1 7.00992 19.6959 12.3173 
120 1 8.75378 17.952 12.3173 
124 1 8.75369 19.6966 14.0611 
142 1 9.4082 20.3507 11.6629 
13 1 1.60527 12.5472 19.4666 
29 1 0.0247748 10.9673 21.0465 
61 1 4.31921 12.2185 19.7946 
71 1 1.27636 15.2588 19.7947 
75 1 1.27644 12.2184 16.7532 
109 1 3.11757 12.3174 19.6957 
119 1 1.37538 14.0601 19.6957 
123 1 1.37514 12.3172 17.9522 
141 1 0.722028 11.6646 20.3488 
12 1 8.52436 12.5472 19.4663 
28 1 10.1059 10.9652 21.0474 
60 1 5.81242 12.2191 19.7944 
70 1 8.85251 15.2602 19.795 
80 1 8.85256 12.2195 16.7536 
108 1 7.00987 12.3176 19.6959 
118 1 8.75373 14.0615 19.6961 
128 1 8.7538 12.3181 17.9525 
140 1 9.40768 11.6637 20.3494 
10 1 1.59241 19.4794 19.4783 
26 1 0.0187415 21.0464 21.0503 
58 1 4.31863 19.7952 19.7945 
66 1 1.27652 16.7523 19.7945 
74 1 1.27657 19.7944 16.7525 
106 1 3.11854 19.6979 19.6975 
114 1 1.37334 17.9524 19.6976 
122 1 1.37336 19.6976 17.9518 
138 1 0.731812 20.3362 20.3388 
15 1 8.52395 19.467 19.466 
31 1 10.1048 21.0472 21.0473 
63 1 5.81214 19.7957 19.7946 
67 1 8.85251 16.7535 19.7947 
77 1 8.85249 19.7955 16.7536 
111 1 7.01101 19.6966 19.6956 
115 1 8.75364 17.9529 19.6957 
125 1 8.75376 19.6968 17.9515 
143 1 9.40582 20.3483 20.3488 
8 1 12.5373 1.60522 1.60639 
24 1 10.9638 0.0202049 0.0202159 
40 1 15.2278 1.27126 1.27229 
44 1 12.2182 4.31955 1.27555 
54 1 12.2182 1.27489 4.31966 
88 1 14.0328 1.37463 1.37559 
92 1 12.3154 3.12124 1.37485 
102 1 12.3153 1.37376 3.12217 
136 1 11.66 0.720266 0.719477 
1 1 19.4347 1.64565 1.64913 
17 1 21.0982 -0.0468976 -0.0425049 
33 1 16.7273 1.26448 1.26524 
41 1 19.8013 4.35086 1.26259 
49 1 19.8016 1.26144 4.35211 
81 1 17.924 1.36357 1.36493 
89 1 19.681 3.15733 1.36986 
97 1 19.6816 1.36768 3.15858 
129 1 20.4608 0.71122 0.693701 
145 2 20.5893 1.52145 1.52064 
3 1 12.5462 8.52389 1.60444 
19 1 10.9646 10.1062 0.0230847 
35 1 15.2562 8.85156 1.2764 
45 1 12.2183 5.8126 1.27543 
55 1 12.2185 8.85148 4.31749 
83 1 14.0594 8.75287 1.37513 
93 1 12.3171 7.01107 1.37431 
103 1 12.317 8.75293 3.11882 
131 1 11.6631 9.40777 0.721278 
6 1 19.4646 8.53483 1.60646 
22 1 21.0502 10.1066 0.0210451 
38 1 16.7488 8.85231 1.2755 
48 1 19.8001 5.84689 1.27165 
52 1 19.7953 8.85285 4.31933 
86 1 17.9505 8.75538 1.37476 
96 1 19.6955 7.042 1.37584 
100 1 19.6964 8.7559 3.12273 
134 1 20.3515 9.41148 0.718658 
5 1 12.5463 1.6043 8.52416 
21 1 10.9639 0.0210453 10.1058 
37 1 15.2566 1.27532 8.85264 
47 1 12.2185 4.31757 8.85252 
51 1 12.2183 1.27619 5.81348 
85 1 14.0593 1.3743 8.75372 
95 1 12.3172 3.11846 8.75379 
99 1 12.3173 1.37517 7.01145 
133 1 11.664 0.721111 9.407 
4 1 19.4644 1.60617 8.53496 
20 1 21.0504 0.0213052 10.1079 
36 1 16.749 1.27445 8.85301 
46 1 19.7951 4.31997 8.85294 
56 1 19.8002 1.27054 5.84779 
84 1 17.9503 1.374 8.75566 
94 1 19.6958 3.12203 8.75577 
104 1 19.6954 1.37509 7.043 
132 1 20.3509 0.719578 9.41219 
2 1 12.5468 8.52409 8.52378 
18 1 10.9651 10.1058 10.1055 
34 1 15.2592 8.85247 8.85246 
42 1 12.2186 5.81109 8.85243 
50 1 12.2186 8.85174 5.81125 
82 1 14.061 8.75366 8.75366 
90 1 12.3173 7.00984 8.75365 
98 1 12.3173 8.75336 7.01018 
130 1 11.6643 9.40669 9.40751 
7 1 19.4659 8.52409 8.5244 
23 1 21.0473 10.1056 10.1057 
39 1 16.7533 8.85252 8.85252 
43 1 19.7947 5.81316 8.85271 
53 1 19.7949 8.85284 5.81225 
87 1 17.9516 8.75372 8.75374 
91 1 19.6956 7.0117 8.75361 
101 1 19.6955 8.75349 7.01328 
135 1 20.3493 9.40808 9.4076 
ITEM: TIMESTEP
20
ITEM: NUMBER OF ATOMS
145
ITEM: BOX BOUNDS pp pp pp
0.0000000000000000e+00 2.1884000000000000e+01
0.0000000000000000e+00 2.1885999999999999e+01
0.0000000000000000e+00 2.1885000000000002e+01
ITEM: ATOMS id type x y z 
16 1 1.60517 12.547 12.5464 
32 1 0.0245968 10.9665 10.9658 
64 1 4.31722 12.2192 12.2192 
68 1 1.27684 15.2582 12.2189 
78 1 1.27688 12.2189 15.2583 
112 1 3.12045 12.3175 12.3174 
116 1 1.37578 14.059 12.3177 
126 1 1.37575 12.3177 14.0593 
144 1 0.72234 11.664 11.6648 
9 1 8.52425 12.5468 12.5469 
25 1 10.1049 10.9652 10.9661 
57 1 5.8111 12.2192 12.2192 
65 1 8.85171 15.2598 12.2193 
73 1 8.85184 12.2199 15.26 
105 1 7.0105 12.3178 12.3178 
113 1 8.75317 14.061 12.3177 
121 1 8.75314 12.3182 14.0602 
137 1 9.40797 11.6637 11.6628 
11 1 1.60706 19.4641 12.5465 
27 1 0.0285602 21.0429 10.9698 
59 1 4.32065 19.7946 12.2184 
69 1 1.2763 16.7504 12.2184 
79 1 1.2756 19.7954 15.2496 
107 1 3.12125 19.6959 12.3167 
117 1 1.37502 17.9495 12.3166 
127 1 1.37574 19.6953 14.0515 
139 1 0.727439 20.3441 11.6673 
14 1 8.52472 19.4659 12.5468 
30 1 10.105 21.0474 10.9664 
62 1 5.81272 19.7942 12.2188 
72 1 8.85168 16.7541 12.2193 
76 1 8.85209 19.7952 15.2589 
110 1 7.01264 19.6954 12.3178 
120 1 8.75363 17.9507 12.3176 
124 1 8.75336 19.696 14.0586 
142 1 9.40588 20.3494 11.6642 
13 1 1.60731 12.5464 19.4638 
29 1 0.0284502 10.9687 21.043 
61 1 4.32089 12.2187 19.7946 
71 1 1.27567 15.2496 19.7953 
75 1 1.2763 12.2185 16.7506 
109 1 3.12202 12.3168 19.696 
119 1 1.37593 14.0525 19.6953 
123 1 1.37521 12.3167 17.9496 
141 1 0.726852 11.6705 20.3442 
12 1 8.5243 12.5476 19.4666 
28 1 10.1044 10.9668 21.0479 
60 1 5.81394 12.2193 19.794 
70 1 8.85207 15.2589 19.7944 
80 1 8.8519 12.2201 16.7531 
108 1 7.01104 12.3181 19.6957 
118 1 8.75338 14.0599 19.6959 
128 1 8.75343 12.3185 17.9521 
140 1 9.40834 11.6632 20.3459 
10 1 1.61199 19.4611 19.4607 
26 1 0.0262795 21.0188 21.0284 
58 1 4.33357 19.7985 19.7978 
66 1 1.27318 16.7383 19.7976 
74 1 1.2731 19.7977 16.7376 
106 1 3.13277 19.7052 19.7046 
114 1 1.36692 17.9388 19.7043 
122 1 1.36695 19.7045 17.9397 
138 1 0.747518 20.3116 20.3156 
15 1 8.52445 19.4647 19.4644 
31 1 10.1018 21.0438 21.0445 
63 1 5.82191 19.7963 19.7952 
67 1 8.85245 16.751 19.7947 
77 1 8.85248 19.7956 16.7507 
111 1 7.01911 19.696 19.6953 
115 1 8.75396 17.9503 19.696 
125 1 8.75398 19.6966 17.9505 
143 1 9.40544 20.347 20.3442 
8 1 12.5144 1.60891 1.60964 
24 1 10.9604 0.0161837 0.0165064 
40 1 15.2106 1.26346 1.26438 
44 1 12.2178 4.32519 1.27336 
54 1 12.2177 1.2728 4.32586 
88 1 14.0166 1.37148 1.37221 
92 1 12.3074 3.12524 1.37478 
102 1 12.3073 1.37413 3.1249 
136 1 11.6501 0.71765 0.718691 
1 1 19.4366 1.66515 1.6691 
17 1 21.1148 -0.0633095 -0.0628632 
33 1 16.7096 1.24901 1.24985 
41 1 19.7989 4.38766 1.24305 
49 1 19.8001 1.2408 4.3901 
81 1 17.9009 1.36097 1.36258 
89 1 19.6627 3.19845 1.38131 
97 1 19.6642 1.37731 3.20038 
129 1 20.539 0.702982 0.672281 
145 2 20.5815 1.4464 1.44505 
3 1 12.5433 8.52617 1.60529 
19 1 10.964 10.1069 0.0206792 
35 1 15.2508 8.85188 1.27522 
45 1 12.2182 5.81663 1.27456 
55 1 12.2187 8.85135 4.31936 
83 1 14.0531 8.75333 1.37515 
93 1 12.3165 7.016 1.37451 
103 1 12.3165 8.75328 3.12027 
131 1 11.66 9.41034 0.722185 
6 1 19.4603 8.56313 1.6107 
22 1 21.0566 10.1118 0.0139504 
38 1 16.7427 8.8529 1.27291 
48 1 19.8109 5.87755 1.25925 
52 1 19.7982 8.8536 4.32709 
86 1 17.9423 8.76507 1.37426 
96 1 19.7008 7.0728 1.37286 
100 1 19.6966 8.76561 3.12876 
134 1 20.3522 9.4223 0.718874 
5 1 12.5435 1.60528 8.52715 
21 1 10.9639 0.0202547 10.1073 
37 1 15.2503 1.27408 8.85278 
47 1 12.2188 4.31935 8.85232 
51 1 12.2182 1.27492 5.81684 
85 1 14.0531 1.37461 8.75419 
95 1 12.3166 3.12029 8.7543 
99 1 12.3167 1.37525 7.01716 
133 1 11.6607 0.719914 9.40901 
4 1 19.4601 1.61073 8.56461 
20 1 21.0563 0.0140827 10.112 
36 1 16.7425 1.27175 8.85357 
46 1 19.7979 4.32781 8.85361 
56 1 19.8114 1.25804 5.87972 
84 1 17.9419 1.37353 8.76577 
94 1 19.6962 3.12806 8.76576 
104 1 19.7008 1.37213 7.075 
132 1 20.3527 0.718106 9.42427 
2 1 12.5467 8.52393 8.52516 
18 1 10.9658 10.1049 10.107 
34 1 15.2585 8.85216 8.85201 
42 1 12.219 5.81209 8.85191 
50 1 12.219 8.85133 5.81247 
82 1 14.0582 8.75308 8.75338 
90 1 12.3178 7.01161 8.7534 
98 1 12.3178 8.75264 7.01211 
130 1 11.661 9.40981 9.40533 
7 1 19.465 8.52727 8.52731 
23 1 21.0496 10.107 10.1068 
39 1 16.7505 8.85244 8.85243 
43 1 19.7959 5.81915 8.85294 
53 1 19.7959 8.85288 5.81923 
87 1 17.9508 8.75421 8.75429 
91 1 19.6955 7.01825 8.7542 
101 1 19.6955 8.75418 7.01775 
135 1 20.3501 9.41017 9.41019 
ITEM: TIMESTEP
30
ITEM: NUMBER OF ATOMS
145
ITEM: BOX BOUNDS pp pp pp
0.0000000000000000e+00 2.1884000000000000e+01
0.0000000000000000e+00 2.1885999999999999e+01
0.0000000000000000e+00 2.1885000000000002e+01
ITEM: ATOMS id type x y z 
16 1 1.6075 12.5453 12.5454 
32 1 0.025242 10.9664 10.966 
64 1 4.31953 12.2188 12.2188 
68 1 1.27557 15.2556 12.2179 
78 1 1.27557 12.218 15.2554 
112 1 3.12183 12.3168 12.3168 
116 1 1.37543 14.0574 12.3168 
126 1 1.37548 12.3168 14.0573 
144 1 0.723464 11.6653 11.6653 
9 1 8.52399 12.5469 12.5462 
25 1 10.1049 10.9655 10.9648 
57 1 5.81165 12.219 12.2191 
65 1 8.85187 15.2599 12.2191 
73 1 8.85175 12.2199 15.258 
105 1 7.01331 12.318 12.3178 
113 1 8.75309 14.0578 12.3178 
121 1 8.75329 12.3182 14.0596 
137 1 9.40754 11.664 11.6663 
11 1 1.61085 19.4578 12.5404 
27 1 0.0296352 21.0391 10.9688 
59 1 4.32345 19.7965 12.2171 
69 1 1.2744 16.7475 12.2171 
79 1 1.27114 19.7997 15.2432 
107 1 3.12601 19.6955 12.3143 
117 1 1.37562 17.9457 12.3144 
127 1 1.37539 19.6957 14.046 
139 1 0.73194 20.3442 11.6665 
14 1 8.52604 19.4645 12.5462 
30 1 10.1047 21.0474 10.9668 
62 1 5.81613 19.7954 12.218 
72 1 8.8522 16.7516 12.2189 
76 1 8.85287 19.7961 15.2555 
110 1 7.01408 19.6956 12.3169 
120 1 8.75408 17.9505 12.3171 
124 1 8.75422 19.6963 14.0582 
142 1 9.40618 20.3474 11.6636 
13 1 1.6116 12.5416 19.4596 
29 1 0.0304155 10.9708 21.041 
61 1 4.32517 12.2171 19.7966 
71 1 1.27116 15.2448 19.7998 
75 1 1.27449 12.217 16.7476 
109 1 3.12356 12.3148 19.6953 
119 1 1.37569 14.0448 19.6954 
123 1 1.37565 12.3146 17.9464 
141 1 0.729732 11.665 20.3417 
12 1 8.5256 12.5453 19.4642 
28 1 10.1048 10.965 21.0454 
60 1 5.81593 12.2184 19.7956 
70 1 8.85275 15.2564 19.7958 
80 1 8.85209 12.2198 16.7516 
108 1 7.015 12.3172 19.6954 
118 1 8.75453 14.0585 19.6957 
128 1 8.75435 12.3177 17.9488 
140 1 9.40751 11.6667 20.349 
10 1 1.62541 19.4423 19.4453 
26 1 0.031386 20.9935 21.0109 
58 1 4.34068 19.806 19.8051 
66 1 1.26615 16.7317 19.8048 
74 1 1.26611 19.8049 16.7323 
106 1 3.13827 19.7013 19.7007 
114 1 1.37224 17.9342 19.6994 
122 1 1.37181 19.7 17.9336 
138 1 0.761064 20.2972 20.2981 
15 1 8.53136 19.4622 19.4606 
31 1 10.1042 21.0461 21.0434 
63 1 5.82847 19.8003 19.7996 
67 1 8.85331 16.7487 19.7964 
77 1 8.85332 19.7971 16.7488 
111 1 7.02757 19.6964 19.6954 
115 1 8.75663 17.9473 19.6953 
125 1 8.75672 19.6963 17.9458 
143 1 9.40822 20.3429 20.3458 
8 1 12.5128 1.60987 1.61067 
24 1 10.9593 0.017431 0.0179782 
40 1 15.217 1.25653 1.25731 
44 1 12.215 4.32468 1.27286 
54 1 12.2149 1.27253 4.32427 
88 1 14.0167 1.36865 1.36933 
92 1 12.301 3.12586 1.37495 
102 1 12.3009 1.37433 3.12671 
136 1 11.6449 0.722796 0.723567 
1 1 19.4319 1.67785 1.68417 
17 1 21.1281 -0.072995 -0.0731789 
33 1 16.7123 1.24703 1.24783 
41 1 19.7868 4.39886 1.24337 
49 1 19.7889 1.23991 4.40183 
81 1 17.9065 1.36765 1.36961 
89 1 19.6528 3.20803 1.39466 
97 1 19.6551 1.38917 3.21108 
129 1 20.5323 0.688043 0.638039 
145 2 20.5538 1.44927 1.45046 
3 1 12.5381 8.52858 1.60707 
19 1 10.9617 10.108 0.0214906 
35 1 15.2478 8.85192 1.27251 
45 1 12.2184 5.81732 1.27271 
55 1 12.2182 8.85194 4.32055 
83 1 14.0492 8.75521 1.37433 
93 1 12.314 7.0152 1.37376 
103 1 12.3143 8.75507 3.12253 
131 1 11.6609 9.4109 0.720344 
6 1 19.4575 8.57623 1.61382 
22 1 21.0562 10.1142 0.0140949 
38 1 16.739 8.85639 1.27098 
48 1 19.8155 5.88799 1.2464 
52 1 19.8001 8.85734 4.33039 
86 1 17.9402 8.77562 1.37462 
96 1 19.7066 7.08565 1.36636 
100 1 19.6964 8.77634 3.13056 
134 1 20.3502 9.43419 0.721107 
5 1 12.5392 1.60717 8.53034 
21 1 10.9631 0.0204201 10.1093 
37 1 15.2475 1.27152 8.85288 
47 1 12.2182 4.32051 8.85293 
51 1 12.2185 1.27316 5.81861 
85 1 14.0488 1.37351 8.75587 
95 1 12.3143 3.12213 8.75592 
99 1 12.3142 1.37398 7.015 
133 1 11.6587 0.719413 9.40843 
4 1 19.4571 1.61388 8.57798 
20 1 21.0567 0.013695 10.1155 
36 1 16.7385 1.26978 8.85717 
46 1 19.7999 4.33054 8.8573 
56 1 19.8163 1.24497 5.89094 
84 1 17.9403 1.37396 8.77665 
94 1 19.6962 3.13139 8.77703 
104 1 19.7067 1.36577 7.08812 
132 1 20.3496 0.721402 9.4352 
2 1 12.5446 8.52582 8.52497 
18 1 10.9627 10.1079 10.1059 
34 1 15.2551 8.85219 8.85249 
42 1 12.2189 5.81372 8.85248 
50 1 12.2188 8.8515 5.81391 
82 1 14.0586 8.75412 8.75384 
90 1 12.3169 7.01228 8.75377 
98 1 12.317 8.75343 7.01225 
130 1 11.6635 9.40702 9.40931 
7 1 19.4633 8.53078 8.53219 
23 1 21.0505 10.1079 10.1094 
39 1 16.7494 8.85304 8.85306 
43 1 19.7986 5.82297 8.85299 
53 1 19.7988 8.85308 5.82177 
87 1 17.947 8.75675 8.7566 
91 1 19.6967 7.02057 8.75657 
101 1 19.6966 8.75659 7.02145 
135 1 20.3499 9.41254 9.4098 
ITEM: TIMESTEP
40
ITEM: NUMBER OF ATOMS
145
ITEM: BOX BOUNDS pp pp pp
0.0000000000000000e+00 2.1884000000000000e+01
0.0000000000000000e+00 2.1885999999999999e+01
0.0000000000000000e+00 2.1885000000000002e+01
ITEM: ATOMS id type x y z 
16 1 1.60804 12.5447 12.5449 
32 1 0.0246882 10.9668 10.9675 
64 1 4.32165 12.218 12.218 
68 1 1.27367 15.2532 12.2167 
78 1 1.27374 12.2167 15.2536 
112 1 3.12256 12.316 12.3161 
116 1 1.37532 14.0547 12.3157 
126 1 1.3753 12.3157 14.0551 
144 1 0.726274 11.6643 11.6634 
9 1 8.52515 12.5462 12.5464 
25 1 10.1051 10.9658 10.9654 
57 1 5.81386 12.2186 12.2187 
65 1 8.85225 15.2579 12.2187 
73 1 8.85228 12.2194 15.2574 
105 1 7.0126 12.3174 12.3171 
113 1 8.75369 14.0591 12.3171 
121 1 8.75361 12.3179 14.0585 
137 1 9.40745 11.6635 11.665 
11 1 1.61524 19.457 12.5373 
27 1 0.0324418 21.0392 10.9688 
59 1 4.32611 19.7982 12.2157 
69 1 1.27271 16.7452 12.2155 
79 1 1.2665 19.8046 15.2379 
107 1 3.12768 19.6944 12.3119 
117 1 1.37608 17.9436 12.3117 
127 1 1.37487 19.6957 14.04 
139 1 0.733485 20.3395 11.6634 
14 1 8.52693 19.463 12.5444 
30 1 10.1047 21.0469 10.9661 
62 1 5.81809 19.7971 12.2169 
72 1 8.85278 16.7501 12.2183 
76 1 8.85383 19.7978 15.2545 
110 1 7.01666 19.6958 12.3159 
120 1 8.75502 17.9492 12.3164 
124 1 8.75539 19.6964 14.056 
142 1 9.40763 20.3475 11.6647 
13 1 1.61478 12.5374 19.457 
29 1 0.0319898 10.9692 21.0398 
61 1 4.32635 12.2159 19.7981 
71 1 1.26647 15.2372 19.8044 
75 1 1.27285 12.2155 16.7454 
109 1 3.12811 12.3122 19.6948 
119 1 1.37516 14.0395 19.6959 
123 1 1.37625 12.3121 17.9438 
141 1 0.732314 11.6633 20.3387 
12 1 8.52715 12.5454 19.4633 
28 1 10.1045 10.9659 21.0466 
60 1 5.81812 12.2173 19.7972 
70 1 8.85377 15.255 19.7972 
80 1 8.85284 12.2192 16.7499 
108 1 7.01689 12.3161 19.6957 
118 1 8.75532 14.0564 19.6958 
128 1 8.75505 12.3168 17.949 
140 1 9.40831 11.6656 20.3474 
10 1 1.6375 19.4374 19.4354 
26 1 0.0407366 20.9764 20.997 
58 1 4.34639 19.8109 19.8099 
66 1 1.26149 16.7256 19.8099 
74 1 1.26154 19.8101 16.7259 
106 1 3.15001 19.6978 19.6976 
114 1 1.37546 17.922 19.696 
122 1 1.37504 19.6962 17.9223 
138 1 0.768072 20.2783 20.2878 
15 1 8.53681 19.4595 19.4598 
31 1 10.1056 21.0454 21.0447 
63 1 5.83533 19.8046 19.8038 
67 1 8.85446 16.7476 19.7976 
77 1 8.85469 19.7984 16.7468 
111 1 7.03318 19.6971 19.6961 
115 1 8.75909 17.9461 19.6948 
125 1 8.75929 19.696 17.9455 
143 1 9.41324 20.3432 20.3443 
8 1 12.5124 1.61104 1.61153 
24 1 10.9562 0.0212772 0.020915 
40 1 15.2149 1.25221 1.25281 
44 1 12.2117 4.32408 1.27247 
54 1 12.2116 1.27228 4.32492 
88 1 14.0209 1.36569 1.36634 
92 1 12.2979 3.12469 1.37519 
102 1 12.2978 1.37462 3.12543 
136 1 11.6442 0.724185 0.725108 
1 1 19.4279 1.69059 1.69903 
17 1 21.1353 -0.0795351 -0.0821194 
33 1 16.7138 1.24594 1.24664 
41 1 19.7781 4.40973 1.24512 
49 1 19.7811 1.24029 4.41411 
81 1 17.9049 1.37226 1.37475 
89 1 19.6433 3.22123 1.40483 
97 1 19.6464 1.39745 3.22518 
129 1 20.5271 0.689966 0.618814 
145 2 20.5319 1.43347 1.43628 
3 1 12.5365 8.52938 1.6074 
19 1 10.962 10.1081 0.0206107 
35 1 15.2449 8.85272 1.27063 
45 1 12.2175 5.81714 1.27152 
55 1 12.2173 8.85289 4.32173 
83 1 14.0462 8.75576 1.37327 
93 1 12.3126 7.01594 1.37307 
103 1 12.3122 8.75626 3.12232 
131 1 11.6591 9.41101 0.721618 
6 1 19.455 8.58722 1.61642 
22 1 21.0552 10.1202 0.0154787 
38 1 16.7377 8.86057 1.26986 
48 1 19.8173 5.89987 1.23746 
52 1 19.8015 8.86184 4.33268 
86 1 17.9371 8.78342 1.37486 
96 1 19.7104 7.09452 1.35926 
100 1 19.6965 8.78427 3.13305 
134 1 20.3478 9.43979 0.722531 
5 1 12.5362 1.60721 8.52939 
21 1 10.9625 0.0202295 10.1088 
37 1 15.2447 1.26947 8.8535 
47 1 12.2174 4.32177 8.85383 
51 1 12.2176 1.27184 5.81763 
85 1 14.046 1.37242 8.75679 
95 1 12.3124 3.12236 8.75732 
99 1 12.313 1.37337 7.01652 
133 1 11.6575 0.721252 9.4097 
4 1 19.4546 1.61671 8.58963 
20 1 21.0552 0.0146411 10.1208 
36 1 16.7372 1.26873 8.86149 
46 1 19.8014 4.3331 8.86199 
56 1 19.8186 1.23565 5.90362 
84 1 17.9366 1.37417 8.78478 
94 1 19.6962 3.13349 8.78521 
104 1 19.7105 1.35883 7.09814 
132 1 20.3476 0.722488 9.44153 
2 1 12.5439 8.52598 8.52696 
18 1 10.9634 10.1073 10.1067 
34 1 15.255 8.85294 8.85311 
42 1 12.2184 5.81418 8.853 
50 1 12.2183 8.8521 5.81419 
82 1 14.0559 8.75475 8.75452 
90 1 12.3161 7.01323 8.7545 
98 1 12.316 8.75432 7.01327 
130 1 11.6616 9.40866 9.40869 
7 1 19.4622 8.53405 8.53361 
23 1 21.0507 10.1092 10.1094 
39 1 16.7471 8.85418 8.85415 
43 1 19.8009 5.82497 8.85391 
53 1 19.8009 8.85403 5.82487 
87 1 17.9465 8.75864 8.75874 
91 1 19.6978 7.02365 8.75819 
101 1 19.6977 8.75798 7.02334 
135 1 20.3492 9.41317 9.41178 
ITEM: TIMESTEP
50
ITEM: NUMBER OF ATOMS
145
ITEM: BOX BOUNDS pp pp pp
0.0000000000000000e+00 2.1884000000000000e+01
0.0000000000000000e+00 2.1885999999999999e+01
0.0000000000000000e+00 2.1885000000000002e+01
ITEM: ATOMS id type x y z 
16 1 1.62081 12.5359 12.5334 
32 1 0.034067 10.9652 10.9561 
64 1 4.32844 12.2099 12.2106 
68 1 1.26042 15.2465 12.2061 
78 1 1.26061 12.2054 15.2431 
112 1 3.12835 12.3092 12.3083 
116 1 1.37002 14.0487 12.3054 
126 1 1.37069 12.3069 14.0456 
144 1 0.721193 11.6557 11.6735 
9 1 8.53026 12.5466 12.5418 
25 1 10.1116 10.9649 10.9672 
57 1 5.81914 12.2117 12.2105 
65 1 8.85865 15.2545 12.2108 
73 1 8.8587 12.2127 15.2575 
105 1 7.01753 12.3112 12.3128 
113 1 8.76074 14.0561 12.3131 
121 1 8.76096 12.3116 14.0587 
137 1 9.40066 11.6602 11.6567 
11 1 1.62443 19.4414 12.5101 
27 1 0.0435864 21.0385 10.9669 
59 1 4.34016 19.804 12.201 
69 1 1.26495 16.7379 12.2014 
79 1 1.2364 19.8322 15.2082 
107 1 3.14213 19.6964 12.2961 
117 1 1.37995 17.9356 12.2964 
127 1 1.36548 19.711 14.0135 
139 1 0.735439 20.3125 11.6449 
14 1 8.54019 19.4595 12.5429 
30 1 10.1152 21.0434 10.9645 
62 1 5.83382 19.8091 12.2066 
72 1 8.85981 16.7471 12.2112 
76 1 8.86137 19.8066 15.2528 
110 1 7.03078 19.701 12.3085 
120 1 8.7632 17.9467 12.3098 
124 1 8.76392 19.7008 14.0545 
142 1 9.40525 20.3503 11.6568 
13 1 1.62959 12.507 19.4452 
29 1 0.040031 10.9571 21.0299 
61 1 4.33883 12.2031 19.8052 
71 1 1.23806 15.2124 19.8334 
75 1 1.26469 12.2023 16.7357 
109 1 3.14086 12.2941 19.6934 
119 1 1.36294 14.0162 19.7086 
123 1 1.37842 12.2933 17.9338 
141 1 0.73898 11.6595 20.3348 
12 1 8.53865 12.541 19.4581 
28 1 10.1132 10.9688 21.0491 
60 1 5.83174 12.2058 19.808 
70 1 8.86137 15.2511 19.8058 
80 1 8.85921 12.2106 16.7494 
108 1 7.0297 12.3107 19.7022 
118 1 8.76405 14.053 19.7014 
128 1 8.76345 12.3132 17.9482 
140 1 9.40938 11.6503 20.3396 
10 1 1.67545 19.3824 19.3976 
26 1 0.103341 20.8967 20.972 
58 1 4.38223 19.8172 19.8181 
66 1 1.25535 16.6998 19.8147 
74 1 1.25217 19.816 16.7006 
106 1 3.19191 19.6827 19.6783 
114 1 1.40476 17.8882 19.6721 
122 1 1.40149 19.68 17.8884 
138 1 0.778598 20.1822 20.2463 
15 1 8.57152 19.4594 19.4535 
31 1 10.1171 21.0478 21.052 
63 1 5.87453 19.8319 19.83 
67 1 8.86607 16.7432 19.802 
77 1 8.86537 19.8037 16.7429 
111 1 7.06966 19.7091 19.7101 
115 1 8.77895 17.9421 19.6968 
125 1 8.7795 19.6949 17.9421 
143 1 9.42746 20.351 20.3426 
8 1 12.522 1.61053 1.61085 
24 1 10.945 0.0336439 0.0350827 
40 1 15.2166 1.23657 1.23571 
44 1 12.1948 4.32346 1.27024 
54 1 12.1947 1.26993 4.32175 
88 1 14.0224 1.35144 1.35164 
92 1 12.2962 3.12549 1.37608 
102 1 12.2963 1.37635 3.1242 
136 1 11.6481 0.730683 0.730909 
1 1 19.4057 1.75964 1.78164 
17 1 21.1691 -0.0928967 -0.149491 
33 1 16.716 1.2456 1.2463 
41 1 19.7404 4.46747 1.26469 
49 1 19.7516 1.24785 4.48309 
81 1 17.9004 1.40058 1.40823 
89 1 19.6003 3.2846 1.46602 
97 1 19.6103 1.44148 3.29872 
129 1 20.4933 0.716544 0.470738 
145 2 20.3792 1.31039 1.32619 
3 1 12.53 8.51781 1.60745 
19 1 10.9632 10.1069 0.0247253 
35 1 15.2348 8.86543 1.26198 
45 1 12.2014 5.81403 1.26898 
55 1 12.2078 8.86017 4.32162 
83 1 14.0375 8.75423 1.36553 
93 1 12.3078 7.01214 1.36989 
103 1 12.3048 8.75971 3.123 
131 1 11.6505 9.40968 0.735204 
6 1 19.4452 8.62489 1.62154 
22 1 21.0469 10.1432 0.0178385 
38 1 16.7268 8.89182 1.26668 
48 1 19.8092 5.95302 1.20527 
52 1 19.808 8.89323 4.33957 
86 1 17.9257 8.81726 1.37741 
96 1 19.7126 7.14983 1.32121 
100 1 19.6944 8.8166 3.14111 
134 1 20.3351 9.49067 0.747351 
5 1 12.5333 1.60853 8.52503 
21 1 10.9622 0.0218463 10.104 
37 1 15.2319 1.26066 8.86765 
47 1 12.2089 4.31995 8.8624 
51 1 12.2023 1.26807 5.81299 
85 1 14.0349 1.36468 8.75253 
95 1 12.3032 3.12171 8.75803 
99 1 12.3052 1.36998 7.011 
133 1 11.6494 0.739145 9.41361 
4 1 19.4444 1.62265 8.63424 
20 1 21.0525 0.0209975 10.1473 
36 1 16.724 1.26495 8.8934 
46 1 19.8086 4.34323 8.89446 
56 1 19.8154 1.19921 5.9671 
84 1 17.9228 1.37718 8.82152 
94 1 19.6952 3.14491 8.82066 
104 1 19.7141 1.32094 7.16343 
132 1 20.3313 0.740072 9.49335 
2 1 12.5382 8.5276 8.52284 
18 1 10.9659 10.105 10.1086 
34 1 15.2507 8.86072 8.85892 
42 1 12.2118 5.8135 8.85879 
50 1 12.2121 8.85935 5.8146 
82 1 14.052 8.75893 8.7621 
90 1 12.3108 7.01225 8.76213 
98 1 12.3109 8.75851 7.01307 
130 1 11.6601 9.40903 9.40306 
7 1 19.4531 8.5407 8.53923 
23 1 21.0416 10.1171 10.1093 
39 1 16.7437 8.86392 8.86508 
43 1 19.8118 5.83692 8.87096 
53 1 19.812 8.86947 5.83258 
87 1 17.9422 8.76906 8.76697 
91 1 19.7043 7.03343 8.76209 
101 1 19.7039 8.76516 7.02954 
135 1 20.343 9.4095 9.42027 
ITEM: TIMESTEP
60
ITEM: NUMBER OF ATOMS
145
ITEM: BOX BOUNDS pp pp pp
0.0000000000000000e+00 2.1884000000000000e+01
0.0000000000000000e+00 2.1885999999999999e+01
0.0000000000000000e+00 2.1885000000000002e+01
ITEM: ATOMS id type x y z 
16 1 1.61566 12.537 12.5385 
32 1 0.0273797 10.9641 10.9648 
64 1 4.32792 12.2093 12.209 
68 1 1.26096 15.2437 12.2039 
78 1 1.26136 12.2047 15.2438 
112 1 3.12957 12.308 12.3078 
116 1 1.36996 14.046 12.3056 
126 1 1.37058 12.3064 14.0464 
144 1 0.729611 11.6599 11.6623 
9 1 8.52898 12.5436 12.5446 
25 1 10.1066 10.9633 10.9644 
57 1 5.82004 12.2104 12.2106 
65 1 8.85999 15.255 12.2109 
73 1 8.85986 12.2114 15.255 
105 1 7.01815 12.3118 12.3118 
113 1 8.7604 14.0568 12.3115 
121 1 8.76017 12.3121 14.0561 
137 1 9.40791 11.6624 11.6617 
11 1 1.63013 19.4435 12.5146 
27 1 0.0397825 21.0305 10.9664 
59 1 4.34024 19.8057 12.2005 
69 1 1.2648 16.7351 12.2002 
79 1 1.23998 19.8316 15.205 
107 1 3.14219 19.693 12.2936 
117 1 1.37978 17.9328 12.2943 
127 1 1.36176 19.7101 14.0121 
139 1 0.744484 20.3196 11.6473 
14 1 8.53723 19.4607 12.5414 
30 1 10.1088 21.0461 10.9623 
62 1 5.83185 19.8085 12.2053 
72 1 8.86088 16.7472 12.2101 
76 1 8.86288 19.8065 15.2509 
110 1 7.02988 19.702 12.3082 
120 1 8.76429 17.9457 12.31 
124 1 8.76459 19.7011 14.0521 
142 1 9.41389 20.3441 11.6607 
13 1 1.62857 12.5148 19.4449 
29 1 0.0376412 10.9653 21.0313 
61 1 4.3397 12.2005 19.8049 
71 1 1.24011 15.2024 19.8309 
75 1 1.26494 12.1997 16.7352 
109 1 3.14238 12.2938 19.6932 
119 1 1.36244 14.0099 19.7097 
123 1 1.37863 12.2934 17.9327 
141 1 0.745055 11.6511 20.3278 
12 1 8.53755 12.541 19.4601 
28 1 10.11 10.9629 21.0458 
60 1 5.83105 12.2062 19.8087 
70 1 8.86278 15.2508 19.8059 
80 1 8.86098 12.2112 16.7475 
108 1 7.02829 12.3083 19.702 
118 1 8.76475 14.0524 19.701 
128 1 8.76366 12.3107 17.9467 
140 1 9.4141 11.6592 20.3428 
10 1 1.69602 19.3754 19.3804 
26 1 0.089239 20.8829 20.9614 
58 1 4.38054 19.8181 19.8161 
66 1 1.2572 16.6935 19.8154 
74 1 1.25533 19.8184 16.6972 
106 1 3.19258 19.6751 19.6749 
114 1 1.40659 17.8804 19.6675 
122 1 1.40121 19.6725 17.885 
138 1 0.804938 20.1877 20.2559 
15 1 8.56898 19.4574 19.456 
31 1 10.1141 21.0521 21.0505 
63 1 5.87454 19.8292 19.8286 
67 1 8.86811 16.7434 19.8032 
77 1 8.86845 19.8038 16.7428 
111 1 7.06815 19.7133 19.7123 
115 1 8.78131 17.9425 19.6961 
125 1 8.78118 19.6969 17.9422 
143 1 9.4312 20.3447 20.345 
8 1 12.5251 1.61159 1.61055 
24 1 10.95 0.0322664 0.0330333 
40 1 15.2247 1.23601 1.2354 
44 1 12.196 4.32114 1.27004 
54 1 12.1962 1.26977 4.32072 
88 1 14.0316 1.35148 1.35057 
92 1 12.2951 3.12244 1.37537 
102 1 12.2952 1.37559 3.12208 
136 1 11.6453 0.731861 0.7344 
1 1 19.3977 1.76209 1.78593 
17 1 21.174 -0.0826867 -0.151539 
33 1 16.7223 1.25031 1.25209 
41 1 19.7379 4.46175 1.27162 
49 1 19.75 1.25206 4.47749 
81 1 17.9046 1.40715 1.41611 
89 1 19.6041 3.2801 1.47218 
97 1 19.6144 1.44641 3.29505 
129 1 20.4844 0.721673 0.453373 