ITEM: TIMESTEP
0
ITEM: NUMBER OF ATOMS
130
ITEM: BOX BOUNDS xy xz yz pp pp pp
0.0000000000000000e+00 2.3654499999999999e+01 7.8845000000000001e+00
0.0000000000000000e+00 1.3658086643083999e+01 0.0000000000000000e+00
0.0000000000000000e+00 2.5747000000000000e+01 0.0000000000000000e+00
ITEM: ATOMS id type x y z 
18 1 10.522 6.683 2.644 
28 1 5.247 4.273 12.803 
31 1 9.65 6.514 0.446 
62 1 9.171 5.15 12.405 
91 1 9.65 6.514 11.889 
92 1 10.81 6.18 11.007 
106 1 10.522 6.683 9.691 
127 1 10.81 6.18 1.328 
4 1 4.402 5.735 13.319 
5 1 3.307 5.568 14.201 
43 1 4.549 6.796 15.517 
52 1 9.172 5.15 25.677 
66 1 4.402 5.735 24.762 
67 1 5.003 6.76 23.881 
88 1 5.247 4.273 25.278 
107 1 3.307 5.568 23.881 
116 1 4.549 6.796 22.565 
117 1 5.003 6.76 14.201 
11 1 11.272 7.494 3.321 
12 1 10.477 8.871 4.018 
14 1 9.018 11.397 0.446 
15 1 10.114 11.565 1.328 
16 1 8.412 9.024 0.654 
19 1 10.477 8.871 5.569 
29 1 10.927 10.156 3.321 
32 1 8.77 7.648 1.328 
35 1 12.036 9.594 2.644 
45 1 9.231 8.963 3.321 
47 1 12.762 8.702 0.446 
49 1 11.224 11 0.654 
51 1 8.872 10.337 2.644 
53 1 11.272 7.494 9.014 
54 1 10.477 8.871 8.317 
56 1 9.018 11.397 11.889 
57 1 8.418 10.372 11.007 
58 1 11.224 11 11.681 
60 1 12.255 7.901 9.691 
61 1 10.477 8.871 6.766 
73 1 9.231 8.963 9.014 
75 1 12.762 8.702 11.889 
76 1 12.202 10.061 11.007 
79 1 9.224 7.617 9.691 
80 1 8.174 12.859 12.405 
89 1 10.927 10.156 9.014 
93 1 8.412 9.024 11.681 
95 1 9.951 11.095 9.691 
105 1 10.114 11.565 11.007 
109 1 8.77 7.648 11.007 
110 1 12.036 9.594 9.691 
114 1 8.872 10.337 9.691 
119 1 8.418 10.372 1.328 
120 1 12.255 7.901 2.644 
123 1 12.202 10.061 1.328 
124 1 9.224 7.617 2.644 
128 1 9.951 11.095 2.644 
6 1 5.009 8.108 13.527 
13 1 9.663 10.28 25.128 
17 1 9.204 8.965 25.162 
30 1 10.016 7.556 25.128 
34 1 11.289 7.464 25.162 
36 1 8.174 12.859 25.677 
46 1 11.752 8.777 25.128 
50 1 10.937 10.184 25.162 
55 1 9.663 10.28 12.954 
59 1 10.937 10.184 12.919 
74 1 11.752 8.777 12.954 
78 1 11.289 7.464 12.919 
90 1 10.016 7.556 12.954 
94 1 9.204 8.965 12.919 
101 1 5.009 8.108 24.555 
33 1 11.795 6.589 0.654 
77 1 11.795 6.589 11.681 
41 1 17.967 6.132 13.527 
68 1 17.967 6.132 24.554 
103 1 19.24 6.037 22.565 
126 1 19.24 6.037 15.517 
129 2 17.78 4.793 13.406 
130 3 17.78 3.817 13.406 
3 1 19.528 6.852 12.254 
7 1 19.987 8.167 12.289 
10 1 15.106 8.528 12.804 
22 1 19.175 9.576 12.254 
26 1 17.902 9.668 12.289 
38 1 17.439 8.356 12.254 
42 1 18.254 6.949 12.289 
44 1 20.019 11.982 12.804 
48 1 12.546 7.4 1.328 
65 1 19.528 6.852 0.081 
69 1 18.254 6.949 0.046 
82 1 17.439 8.356 0.081 
86 1 17.902 9.668 0.046 
96 1 14.084 8.604 12.405 
98 1 19.175 9.576 0.081 
102 1 19.987 8.167 0.046 
113 1 12.546 7.4 11.007 
1 1 17.919 9.638 16.194 
2 1 18.714 8.261 16.892 
8 1 18.669 10.449 15.517 
9 1 18.714 8.261 18.442 
20 1 14.084 8.604 25.677 
21 1 18.264 6.977 16.194 
23 1 19.541 10.618 13.32 
24 1 20.421 9.484 14.201 
25 1 17.396 10.544 13.527 
27 1 17.155 7.538 15.517 
37 1 19.96 8.169 16.194 
39 1 16.429 8.43 13.319 
40 1 16.644 9.732 14.201 
63 1 17.919 9.638 21.888 
64 1 18.714 8.261 21.19 
70 1 16.936 9.231 22.565 
71 1 18.714 8.261 19.64 
72 1 20.019 11.982 25.278 
81 1 19.96 8.169 21.888 
83 1 16.429 8.43 24.762 
84 1 16.989 7.071 23.881 
85 1 17.396 10.544 24.555 
87 1 19.967 9.515 22.565 
97 1 18.263 6.977 21.888 
99 1 19.541 10.618 24.762 
100 1 18.38 10.953 23.881 
104 1 15.106 8.528 25.278 
108 1 18.669 10.449 22.565 
111 1 20.421 9.484 23.881 
112 1 17.155 7.538 22.565 
115 1 16.644 9.732 23.881 
118 1 16.936 9.231 15.517 
121 1 16.989 7.071 14.201 
122 1 19.967 9.515 15.517 
125 1 18.38 10.953 14.201 
ITEM: TIMESTEP
10
ITEM: NUMBER OF ATOMS
130
ITEM: BOX BOUNDS xy xz yz pp pp pp
0.0000000000000000e+00 2.3654499999999999e+01 7.8845000000000001e+00
0.0000000000000000e+00 1.3658086643083999e+01 0.0000000000000000e+00
0.0000000000000000e+00 2.5747000000000000e+01 0.0000000000000000e+00
ITEM: ATOMS id type x y z 
18 1 10.3923 6.73634 2.63051 
28 1 5.14061 4.49123 12.8676 
31 1 9.42789 6.47219 0.435396 
62 1 9.13842 5.24392 12.3841 
91 1 9.43633 6.50838 11.9195 
92 1 10.7797 6.17879 10.9387 
106 1 10.4022 6.75312 9.71003 
127 1 10.8488 6.19657 1.33374 
4 1 4.45622 5.75876 13.2665 
5 1 3.29692 5.59719 14.2403 
43 1 4.62108 6.95247 15.4812 
52 1 9.13643 5.23111 25.6953 
66 1 4.46032 5.72782 24.8326 
67 1 5.09829 6.90777 23.883 
88 1 5.13377 4.50583 25.2079 
107 1 3.16923 5.6086 23.8743 
116 1 4.58939 6.9515 22.5826 
117 1 5.09278 6.90735 14.1801 
11 1 11.3322 7.57261 3.3644 
12 1 10.4762 8.86466 4.09824 
14 1 8.96476 11.3946 0.379184 
15 1 10.2526 11.508 1.34053 
16 1 8.41392 8.91272 0.698718 
19 1 10.4738 8.86991 5.5625 
29 1 10.9416 10.1523 3.33965 
32 1 8.76064 7.7027 1.27754 
35 1 12.0415 9.59597 2.59962 
45 1 9.23547 8.92229 3.28395 
47 1 12.717 8.7884 0.539873 
49 1 11.302 10.9082 0.681681 
51 1 8.84948 10.1941 2.62648 
53 1 11.3213 7.56925 8.98723 
54 1 10.4752 8.85659 8.24036 
56 1 8.98983 11.3564 11.948 
57 1 8.35458 10.2265 11.0306 
58 1 11.3028 10.9146 11.651 
60 1 12.2595 8.01714 9.60812 
61 1 10.4731 8.87002 6.77521 
73 1 9.24143 8.92663 9.06029 
75 1 12.7164 8.80406 11.8013 
76 1 12.2321 10.0534 11.0185 
79 1 9.20794 7.66894 9.80667 
80 1 8.28741 12.6282 12.3335 
89 1 10.9451 10.1508 9.00562 
93 1 8.43005 8.90386 11.6304 
95 1 10.0453 11.0494 9.70827 
105 1 10.2251 11.5038 10.9878 
109 1 8.7567 7.71831 11.0356 
110 1 12.0353 9.60527 9.74454 
114 1 8.85845 10.1913 9.71739 
119 1 8.33645 10.2281 1.31867 
120 1 12.283 8.01934 2.70039 
123 1 12.2316 10.0691 1.29725 
124 1 9.20453 7.66954 2.53592 
128 1 10.0492 11.0585 2.6404 
6 1 5.01607 8.23164 13.5659 
13 1 9.57163 10.3888 25.0901 
17 1 9.20819 9.01584 25.1513 
30 1 9.95874 7.65944 25.0979 
34 1 11.3085 7.48741 25.156 
36 1 8.28612 12.6287 25.7465 
46 1 11.6992 8.77632 25.0991 
50 1 10.9296 10.1009 25.1771 
55 1 9.57439 10.3467 12.9672 
59 1 10.9372 10.1156 12.9241 
74 1 11.6869 8.79119 12.9724 
78 1 11.2765 7.49381 12.9581 
90 1 9.95308 7.69603 12.963 
94 1 9.22732 8.97597 12.9198 
101 1 4.98993 8.23251 24.5128 
33 1 11.73 6.5739 0.698435 
77 1 11.7687 6.56687 11.6783 
41 1 17.7748 6.01782 13.5165 
68 1 17.8881 6.22489 24.5322 
103 1 19.1514 6.04644 22.5624 
126 1 19.1823 6.01704 15.5528 
129 2 17.7111 4.83909 13.3911 
130 3 17.7676 3.80087 13.392 
3 1 19.5829 6.83531 12.2482 
7 1 19.9643 8.16363 12.2678 
10 1 15.1155 8.47457 12.8357 
22 1 19.2511 9.46387 12.2407 
26 1 17.9128 9.63663 12.2767 
38 1 17.5274 8.3329 12.197 
42 1 18.2719 7.06023 12.232 
44 1 20.0511 11.8908 12.8254 
48 1 12.598 7.5616 1.3534 
65 1 19.635 6.74168 0.129108 
69 1 18.2706 7.02676 0.0386709 
82 1 17.4833 8.35001 0.129164 
86 1 17.9022 9.66057 0.0722054 
96 1 14.0692 8.66124 12.3742 
98 1 19.2416 9.46177 0.101504 
102 1 19.9578 8.15311 0.0528314 
113 1 12.599 7.54877 10.954 
1 1 17.9475 9.59989 16.2756 
2 1 18.6896 8.31113 16.9865 
8 1 18.7839 10.3916 15.4951 
9 1 18.7194 8.25926 18.4409 
20 1 14.0896 8.6244 25.7135 
21 1 18.1984 7.02562 16.2284 
23 1 19.7504 10.6303 13.2973 
24 1 20.4295 9.44257 14.176 
25 1 17.411 10.5322 13.517 
27 1 17.1506 7.54921 15.4847 
37 1 19.9587 8.18951 16.1576 
39 1 16.4637 8.32837 13.4146 
40 1 16.5998 9.60606 14.2574 
63 1 17.843 9.54543 21.8474 
64 1 18.719 8.28877 21.1039 
70 1 16.9053 9.12108 22.5235 
71 1 18.7169 8.2636 19.6473 
72 1 20.053 11.8952 25.2582 
81 1 19.9637 8.21425 21.928 
83 1 16.4657 8.35266 24.6401 
84 1 16.9541 7.06547 23.8984 
85 1 17.441 10.5569 24.4992 
87 1 20.0054 9.45004 22.6892 
97 1 18.216 6.98028 21.862 
99 1 19.7614 10.6329 24.7877 
100 1 18.3428 10.939 23.8794 
104 1 15.0934 8.51537 25.2385 
108 1 18.8036 10.4121 22.5697 
111 1 20.4317 9.42002 23.9088 
112 1 17.1427 7.53618 22.6192 
115 1 16.6058 9.55949 23.8534 
118 1 16.8503 9.0714 15.5437 
121 1 16.9385 7.09975 14.1878 
122 1 19.9897 9.48787 15.3941 
125 1 18.4239 10.9484 14.273 
ITEM: TIMESTEP
20
ITEM: NUMBER OF ATOMS
130
ITEM: BOX BOUNDS xy xz yz pp pp pp
0.0000000000000000e+00 2.3654499999999999e+01 7.8845000000000001e+00
0.0000000000000000e+00 1.3658086643083999e+01 0.0000000000000000e+00
0.0000000000000000e+00 2.5747000000000000e+01 0.0000000000000000e+00
ITEM: ATOMS id type x y z 
18 1 10.3962 6.78068 2.63213 
28 1 5.11438 4.55833 12.8835 
31 1 9.42126 6.50399 0.416985 
62 1 9.1076 5.26113 12.3857 
91 1 9.42456 6.52316 11.9271 
92 1 10.7952 6.20399 10.9709 
106 1 10.3902 6.76984 9.6974 
127 1 10.8018 6.19697 1.35979 
4 1 4.46259 5.79772 13.2818 
5 1 3.25546 5.63442 14.2494 
43 1 4.59596 6.96781 15.4806 
52 1 9.10722 5.25329 25.6987 
66 1 4.44301 5.7883 24.8198 
67 1 5.06807 6.94804 23.8915 
88 1 5.1074 4.569 25.1912 
107 1 3.16937 5.6382 23.8775 
116 1 4.57647 6.95633 22.603 
117 1 5.08718 6.96209 14.1794 
11 1 11.3369 7.57741 3.35236 
12 1 10.483 8.8544 4.09845 
14 1 8.97485 11.3463 0.39506 
15 1 10.257 11.4944 1.3323 
16 1 8.39759 8.9307 0.687246 
19 1 10.47 8.86875 5.55824 
29 1 10.9557 10.1355 3.34236 
32 1 8.71996 7.68338 1.26066 
35 1 12.0473 9.61593 2.60426 
45 1 9.23572 8.93513 3.26718 
47 1 12.6955 8.813 0.528506 
49 1 11.321 10.9055 0.667628 
51 1 8.84258 10.1702 2.60916 
53 1 11.3292 7.57844 8.97777 
54 1 10.4884 8.85153 8.2369 
56 1 8.9783 11.3334 11.9376 
57 1 8.35955 10.1816 11.0252 
58 1 11.3218 10.908 11.6677 
60 1 12.2681 8.03269 9.60756 
61 1 10.4717 8.86861 6.77761 
73 1 9.23202 8.93529 9.0676 
75 1 12.6997 8.81059 11.8018 
76 1 12.262 10.067 11.0116 
79 1 9.20648 7.65928 9.78641 
80 1 8.30886 12.5729 12.3196 
89 1 10.9539 10.1333 8.99368 
93 1 8.39508 8.92291 11.64 
95 1 10.04 11.0415 9.69608 
105 1 10.2599 11.4907 11.0033 
109 1 8.70886 7.69053 11.0567 
110 1 12.0488 9.61645 9.7282 
114 1 8.84421 10.1717 9.72823 
119 1 8.3551 10.1879 1.31269 
120 1 12.2775 8.03536 2.72358 
123 1 12.2668 10.0694 1.32046 
124 1 9.20743 7.66128 2.54014 
128 1 10.0408 11.0393 2.64052 
6 1 5.03678 8.21163 13.5575 
13 1 9.57474 10.3476 25.084 
17 1 9.19175 8.98468 25.1479 
30 1 9.93425 7.70629 25.0956 
34 1 11.2695 7.48833 25.1525 
36 1 8.31218 12.5654 25.7638 
46 1 11.6877 8.81539 25.1111 
50 1 10.9469 10.1048 25.1651 
55 1 9.58366 10.329 12.9978 
59 1 10.9527 10.1125 12.9239 
74 1 11.6852 8.81513 12.9714 
78 1 11.2709 7.49389 12.9287 
90 1 9.93705 7.6999 12.982 
94 1 9.20682 8.96701 12.9366 
101 1 5.02168 8.19837 24.5155 
33 1 11.7477 6.60661 0.701127 
77 1 11.7315 6.61724 11.6458 
41 1 17.7645 6.03142 13.5257 
68 1 17.8751 6.22943 24.5433 
103 1 19.156 6.08714 22.569 
126 1 19.1725 6.11209 15.5565 
129 2 17.6663 4.84049 13.3751 
130 3 17.7589 3.81125 13.3843 
3 1 19.5735 6.83657 12.2387 
7 1 19.994 8.19156 12.2686 
10 1 15.1398 8.45923 12.8491 
22 1 19.2595 9.46384 12.2337 
26 1 17.9182 9.63847 12.3179 
38 1 17.5366 8.30401 12.2042 
42 1 18.2437 7.0511 12.258 
44 1 20.078 11.8702 12.8254 
48 1 12.5714 7.56913 1.38202 
65 1 19.6175 6.78888 0.122173 
69 1 18.2416 7.02906 0.046902 
82 1 17.5082 8.31954 0.0999597 
86 1 17.9183 9.63013 0.0726502 
96 1 14.0506 8.68027 12.3642 
98 1 19.2579 9.43403 0.108499 
102 1 19.9941 8.15558 0.0615365 
113 1 12.565 7.56225 10.9511 
1 1 17.9464 9.55602 16.2818 
2 1 18.6654 8.32821 16.9505 
8 1 18.7872 10.3898 15.5146 
9 1 18.7187 8.26436 18.4386 
20 1 14.0447 8.6527 25.7275 
21 1 18.2352 7.01523 16.2053 
23 1 19.7282 10.6169 13.3055 
24 1 20.475 9.46099 14.1481 
25 1 17.4097 10.4682 13.5109 
27 1 17.1452 7.5353 15.4543 
37 1 19.9685 8.19498 16.1313 
39 1 16.4999 8.28633 13.4124 
40 1 16.6098 9.58444 14.2641 
63 1 17.854 9.55315 21.86 
64 1 18.7068 8.29103 21.1181 
70 1 16.9116 9.10134 22.4882 
71 1 18.7213 8.26359 19.6467 
72 1 20.0817 11.8734 25.2555 
81 1 19.957 8.19605 21.9406 
83 1 16.4892 8.31609 24.6746 
84 1 16.9282 7.05579 23.8876 
85 1 17.441 10.5282 24.5059 
87 1 19.986 9.47077 22.6649 
97 1 18.239 6.99791 21.8698 
99 1 19.7704 10.6123 24.8017 
100 1 18.3871 10.9351 23.8486 
104 1 15.1385 8.4883 25.2247 
108 1 18.7966 10.3543 22.5769 
111 1 20.4737 9.44721 23.9368 
112 1 17.1367 7.50915 22.6066 
115 1 16.6216 9.56572 23.8258 
118 1 16.8714 9.05519 15.5462 
121 1 16.9536 7.06813 14.1924 
122 1 20.0059 9.45643 15.4292 
125 1 18.4911 10.9164 14.2544 
ITEM: TIMESTEP
30
ITEM: NUMBER OF ATOMS
130
ITEM: BOX BOUNDS xy xz yz pp pp pp
0.0000000000000000e+00 2.3654499999999999e+01 7.8845000000000001e+00
0.0000000000000000e+00 1.3658086643083999e+01 0.0000000000000000e+00
0.0000000000000000e+00 2.5747000000000000e+01 0.0000000000000000e+00
ITEM: ATOMS id type x y z 
18 1 10.3849 6.79042 2.63804 
28 1 5.11133 4.57905 12.8866 
31 1 9.40877 6.52628 0.413024 
62 1 9.08442 5.26901 12.3867 
91 1 9.40481 6.5383 11.9259 
92 1 10.788 6.21318 10.9713 
106 1 10.3796 6.78353 9.69101 
127 1 10.793 6.20718 1.3605 
4 1 4.45322 5.8248 13.2928 
5 1 3.24574 5.65574 14.2488 
43 1 4.60462 6.98004 15.4824 
52 1 9.08376 5.26261 25.6984 
66 1 4.4322 5.8181 24.8071 
67 1 5.06987 6.95942 23.8954 
88 1 5.10609 4.5816 25.1885 
107 1 3.16859 5.65919 23.8809 
116 1 4.56741 6.96127 22.6019 
117 1 5.09482 6.97821 14.1818 
11 1 11.3361 7.58606 3.36 
12 1 10.4879 8.84894 4.09654 
14 1 8.98883 11.3167 0.405243 
15 1 10.2557 11.4731 1.32857 
16 1 8.38064 8.91395 0.685374 
19 1 10.4685 8.86796 5.55828 
29 1 10.953 10.1286 3.34342 
32 1 8.69447 7.67195 1.2596 
35 1 12.0641 9.62555 2.61141 
45 1 9.23022 8.93081 3.26311 
47 1 12.6886 8.82052 0.535397 
49 1 11.3402 10.9067 0.662014 
51 1 8.85299 10.1675 2.60699 
53 1 11.329 7.58431 8.97244 
54 1 10.4894 8.84675 8.23812 
56 1 8.99048 11.3105 11.9312 
57 1 8.35401 10.1694 11.0252 
58 1 11.3405 10.9062 11.6733 
60 1 12.2709 8.045 9.602 
61 1 10.4698 8.86738 6.77678 
73 1 9.22901 8.93167 9.06905 
75 1 12.697 8.81911 11.7978 
76 1 12.2769 10.0759 11.0043 
79 1 9.20341 7.65527 9.78482 
80 1 8.31513 12.5505 12.3138 
89 1 10.9527 10.1288 8.992 
93 1 8.37927 8.91049 11.6475 
95 1 10.037 11.0386 9.68875 
105 1 10.2574 11.4707 11.0089 
109 1 8.68748 7.67328 11.0637 
110 1 12.0638 9.62355 9.72164 
114 1 8.85476 10.1683 9.72912 
119 1 8.35253 10.1722 1.31163 
120 1 12.2784 8.04699 2.73327 
123 1 12.2796 10.0784 1.33063 
124 1 9.20553 7.65831 2.54013 
128 1 10.0368 11.0381 2.64766 
6 1 5.05091 8.22835 13.5484 
13 1 9.57851 10.3289 25.0703 
17 1 9.18842 8.97821 25.1349 
30 1 9.92246 7.70608 25.0867 
34 1 11.2602 7.49727 25.1424 
36 1 8.31383 12.5522 25.7671 
46 1 11.6876 8.82225 25.1156 
50 1 10.9482 10.109 25.1592 
55 1 9.58229 10.3208 13.0112 
59 1 10.9513 10.1104 12.9273 
74 1 11.6891 8.82207 12.9644 
78 1 11.2672 7.49851 12.9478 
90 1 9.92743 7.69894 12.9926 
94 1 9.19735 8.97311 12.9452 
101 1 5.03854 8.21664 24.5205 
33 1 11.7351 6.62009 0.702268 
77 1 11.7253 6.62651 11.6354 
41 1 17.7615 6.01804 13.5169 
68 1 17.8561 6.22702 24.548 
103 1 19.1566 6.09087 22.5623 
126 1 19.1738 6.11735 15.5564 
129 2 17.6381 4.83866 13.3629 
130 3 17.7497 3.82059 13.378 
3 1 19.57 6.84677 12.2299 
7 1 19.997 8.19154 12.262 
10 1 15.143 8.4548 12.8476 
22 1 19.26 9.45914 12.2269 
26 1 17.9193 9.6401 12.3294 
38 1 17.5339 8.296 12.2102 
42 1 18.248 7.0461 12.2732 
44 1 20.099 11.8737 12.8181 
48 1 12.562 7.58296 1.38987 
65 1 19.6125 6.80888 0.138858 
69 1 18.2426 7.02486 0.0522082 
82 1 17.5045 8.30951 0.0934665 
86 1 17.9257 9.63056 0.0716112 
96 1 14.0561 8.68455 12.3708 
98 1 19.2656 9.43112 0.120718 
102 1 20.0008 8.15729 0.0713555 
113 1 12.5571 7.5847 10.9454 
1 1 17.9461 9.55607 16.2813 
2 1 18.6588 8.33477 16.9471 
8 1 18.8107 10.3793 15.5295 
9 1 18.717 8.2689 18.438 
20 1 14.0455 8.66998 25.7154 
21 1 18.2392 7.02653 16.2046 
23 1 19.7287 10.597 13.3144 
24 1 20.4995 9.4686 14.1487 
25 1 17.4121 10.4479 13.5134 
27 1 17.1387 7.53143 15.4526 
37 1 19.9756 8.20035 16.1312 
39 1 16.5092 8.26668 13.4056 
40 1 16.6076 9.55755 14.258 
63 1 17.8551 9.54487 21.8521 
64 1 18.7021 8.28969 21.1243 
70 1 16.9118 9.08557 22.4786 
71 1 18.7243 8.26329 19.6508 
72 1 20.1049 11.8658 25.2566 
81 1 19.9641 8.20102 21.9428 
83 1 16.498 8.31032 24.671 
84 1 16.9128 7.04898 23.8798 
85 1 17.4557 10.5108 24.5107 
87 1 19.9869 9.47677 22.6633 
97 1 18.2398 7.00379 21.8666 
99 1 19.7844 10.5945 24.8022 
100 1 18.3955 10.923 23.8488 
104 1 15.1401 8.47094 25.2361 
108 1 18.8068 10.3436 22.5725 
111 1 20.5002 9.45949 23.9429 
112 1 17.1219 7.50476 22.5984 
115 1 16.6313 9.54995 23.8198 
118 1 16.8702 9.04243 15.5485 
121 1 16.94 7.05989 14.1895 
122 1 20.0098 9.46386 15.4304 
125 1 18.5196 10.8931 14.2465 
ITEM: TIMESTEP
40
ITEM: NUMBER OF ATOMS
130
ITEM: BOX BOUNDS xy xz yz pp pp pp
0.0000000000000000e+00 2.3654499999999999e+01 7.8845000000000001e+00
0.0000000000000000e+00 1.3658086643083999e+01 0.0000000000000000e+00
0.0000000000000000e+00 2.5747000000000000e+01 0.0000000000000000e+00
ITEM: ATOMS id type x y z 
18 1 10.3659 6.81737 2.64806 
28 1 5.09961 4.65497 12.9005 
31 1 9.35611 6.57848 0.398553 
62 1 8.9987 5.29626 12.3883 
91 1 9.35133 6.58 11.9332 
92 1 10.756 6.25815 10.9712 
106 1 10.3596 6.81691 9.68521 
127 1 10.7593 6.25243 1.36615 
4 1 4.43395 5.90032 13.3249 
5 1 3.22156 5.71265 14.2439 
43 1 4.6236 7.01036 15.4841 
52 1 8.99838 5.29517 25.6974 
66 1 4.41832 5.89673 24.7972 
67 1 5.07781 7.01891 23.9067 
88 1 5.09435 4.64252 25.1727 
107 1 3.13948 5.71694 23.8839 
116 1 4.55768 6.97487 22.6088 
117 1 5.11722 7.03985 14.1827 
11 1 11.3327 7.60924 3.37866 
12 1 10.493 8.82293 4.09734 
14 1 9.00506 11.2368 0.412979 
15 1 10.2825 11.4153 1.32419 
16 1 8.33547 8.87144 0.663805 
19 1 10.4633 8.86338 5.55705 
29 1 10.955 10.1145 3.34162 
32 1 8.61393 7.64022 1.26172 
35 1 12.1041 9.65568 2.639 
45 1 9.22811 8.9209 3.25776 
47 1 12.6896 8.85389 0.551539 
49 1 11.3772 10.8934 0.650955 
51 1 8.8664 10.1544 2.59747 
53 1 11.3311 7.60467 8.95685 
54 1 10.4923 8.8262 8.23505 
56 1 9.00694 11.2381 11.9255 
57 1 8.34249 10.1129 11.0292 
58 1 11.3779 10.8862 11.6873 
60 1 12.2739 8.08967 9.57671 
61 1 10.4631 8.86251 6.77582 
73 1 9.22736 8.92087 9.0739 
75 1 12.7053 8.85723 11.7925 
76 1 12.3269 10.1057 10.9853 
79 1 9.17191 7.65065 9.79372 
80 1 8.33118 12.4814 12.2953 
89 1 10.9545 10.1145 8.99191 
93 1 8.33802 8.87354 11.6733 
95 1 10.0404 11.0241 9.68207 
105 1 10.2818 11.4143 11.0134 
109 1 8.61362 7.63614 11.0712 
110 1 12.1004 9.65454 9.69873 
114 1 8.8666 10.1525 9.73813 
119 1 8.34425 10.1097 1.30334 
120 1 12.2778 8.09033 2.76029 
123 1 12.3239 10.1102 1.35231 
124 1 9.17803 7.6523 2.53531 
128 1 10.0377 11.0253 2.65527 
6 1 5.09391 8.27269 13.5213 
13 1 9.57402 10.3046 25.033 
17 1 9.17995 8.9689 25.1157 
30 1 9.9085 7.70543 25.0503 
34 1 11.2465 7.51096 25.1214 
36 1 8.32648 12.4905 25.7844 
46 1 11.6767 8.82502 25.1244 
50 1 10.9412 10.1074 25.1509 
55 1 9.57487 10.3087 13.0506 
59 1 10.9419 10.1021 12.927 
74 1 11.6874 8.82133 12.9553 
78 1 11.2524 7.50762 12.9601 
90 1 9.9176 7.70618 13.0334 
94 1 9.18011 8.96969 12.9561 
101 1 5.08629 8.26039 24.5435 
33 1 11.6953 6.67626 0.706571 
77 1 11.6941 6.67943 11.6264 
41 1 17.7355 5.99512 13.5017 
68 1 17.8143 6.23835 24.5589 
103 1 19.1551 6.10913 22.5576 
126 1 19.1832 6.1498 15.5483 
129 2 17.5605 4.8458 13.3293 
130 3 17.7133 3.845 13.3541 
3 1 19.5843 6.85456 12.2001 
7 1 20.0057 8.19858 12.2502 
10 1 15.1561 8.43018 12.8435 
22 1 19.2559 9.44571 12.2094 
26 1 17.9228 9.64278 12.3433 
38 1 17.523 8.28583 12.2234 
42 1 18.2663 7.03563 12.3065 
44 1 20.17 11.8625 12.7994 
48 1 12.5272 7.63137 1.40572 
65 1 19.6169 6.82842 0.177727 
69 1 18.2517 7.02514 0.0575691 
82 1 17.5098 8.30626 0.08232 
86 1 17.9397 9.62493 0.0861343 
96 1 14.0707 8.69868 12.3871 
98 1 19.2763 9.42394 0.161446 
102 1 20.0124 8.16481 0.0891115 
113 1 12.5276 7.6386 10.935 
1 1 17.9442 9.55602 16.2789 
2 1 18.6554 8.35972 16.9458 
8 1 18.8576 10.3554 15.5611 
9 1 18.7126 8.2846 18.437 
20 1 14.0523 8.70556 25.7007 
21 1 18.2466 7.05469 16.1988 
23 1 19.7697 10.5531 13.3125 
24 1 20.5781 9.49564 14.1481 
25 1 17.4317 10.389 13.5417 
27 1 17.1205 7.51284 15.4491 
37 1 19.9884 8.21867 16.1404 
39 1 16.5214 8.19758 13.383 
40 1 16.6005 9.4738 14.2452 
63 1 17.8582 9.52214 21.8335 
64 1 18.6966 8.3079 21.1255 
70 1 16.9142 9.03924 22.4488 
71 1 18.7321 8.26457 19.6483 
72 1 20.1896 11.8348 25.258 
81 1 19.965 8.2118 21.9517 
83 1 16.5014 8.277 24.6618 
84 1 16.8654 7.02303 23.8595 
85 1 17.4956 10.4561 24.5077 
87 1 20.0162 9.48331 22.672 
97 1 18.2355 7.01729 21.8669 
99 1 19.8356 10.5542 24.8091 
100 1 18.4334 10.8757 23.8474 
104 1 15.1372 8.43487 25.25 
108 1 18.8248 10.3148 22.5633 
111 1 20.5799 9.49269 23.9459 
112 1 17.0844 7.47619 22.5742 
115 1 16.6626 9.49785 23.8061 
118 1 16.8713 9.00215 15.5588 
121 1 16.8819 7.02264 14.1829 
122 1 20.0533 9.47649 15.4343 
125 1 18.5825 10.8239 14.2439 
ITEM: TIMESTEP
50
ITEM: NUMBER OF ATOMS
130
ITEM: BOX BOUNDS xy xz yz pp pp pp
0.0000000000000000e+00 2.3654499999999999e+01 7.8845000000000001e+00
0.0000000000000000e+00 1.3658086643083999e+01 0.0000000000000000e+00
0.0000000000000000e+00 2.5747000000000000e+01 0.0000000000000000e+00
ITEM: ATOMS id type x y z 
18 1 10.3608 6.8246 2.64529 
28 1 5.10584 4.6605 12.9017 
31 1 9.34806 6.57568 0.392505 
62 1 8.97082 5.30781 12.3873 
91 1 9.34853 6.57882 11.9445 
92 1 10.7392 6.27379 10.9745 
106 1 10.3574 6.82411 9.68813 
127 1 10.7432 6.26855 1.36074 
4 1 4.43502 5.90643 13.3219 
5 1 3.21913 5.71897 14.2401 
43 1 4.62713 7.01665 15.4791 
52 1 8.97042 5.30563 25.6974 
66 1 4.41932 5.89741 24.8065 
67 1 5.08311 7.03132 23.9031 
88 1 5.09385 4.65912 25.1676 
107 1 3.13499 5.71895 23.8856 
116 1 4.56929 6.98253 22.6183 
117 1 5.12195 7.055 14.1865 
11 1 11.3337 7.60724 3.37698 
12 1 10.4936 8.82242 4.09893 
14 1 9.00191 11.2349 0.405089 
15 1 10.287 11.4135 1.3247 
16 1 8.33319 8.8655 0.653103 
19 1 10.4614 8.85986 5.55776 
29 1 10.9571 10.1115 3.34364 
32 1 8.60248 7.63723 1.26506 
35 1 12.1059 9.66641 2.64164 
45 1 9.22924 8.92011 3.25599 
47 1 12.697 8.86759 0.546808 
49 1 11.3738 10.8816 0.652085 
51 1 8.85519 10.1468 2.59111 
53 1 11.3312 7.60563 8.95924 
54 1 10.4935 8.82316 8.23518 
56 1 9.00433 11.2306 11.9319 
57 1 8.34026 10.0993 11.0295 
58 1 11.3762 10.8801 11.6818 
60 1 12.2723 8.09535 9.57505 
61 1 10.4613 8.86004 6.77581 
73 1 9.22852 8.91969 9.07683 
75 1 12.7094 8.86833 11.7938 
76 1 12.3395 10.1099 10.9831 
79 1 9.15688 7.65176 9.79835 
80 1 8.32647 12.4752 12.2936 
89 1 10.957 10.1108 8.99144 
93 1 8.33132 8.86479 11.6757 
95 1 10.0433 11.0164 9.69134 
105 1 10.2911 11.4106 11.0109 
109 1 8.60027 7.63767 11.0675 
110 1 12.1042 9.66484 9.6956 
114 1 8.85596 10.1468 9.74295 
119 1 8.34066 10.1007 1.30469 
120 1 12.2752 8.09691 2.76278 
123 1 12.3364 10.1134 1.3539 
124 1 9.16199 7.65267 2.53205 
128 1 10.0429 11.0164 2.6443 
6 1 5.10175 8.2785 13.5163 
13 1 9.56781 10.3107 25.0349 
17 1 9.17503 8.96624 25.1185 
30 1 9.91096 7.70293 25.0442 
34 1 11.2508 7.50297 25.1238 
36 1 8.32748 12.4731 25.7897 
46 1 11.6758 8.82277 25.1248 
50 1 10.9363 10.0981 25.1498 
55 1 9.5728 10.3048 13.047 
59 1 10.9411 10.0948 12.9341 
74 1 11.6813 8.8217 12.9579 
78 1 11.2541 7.50276 12.9592 
90 1 9.91475 7.705 13.0345 
94 1 9.17825 8.96272 12.9635 
101 1 5.08824 8.2663 24.5536 
33 1 11.6881 6.68782 0.707551 
77 1 11.6883 6.69016 11.6253 
41 1 17.7287 6.00166 13.5078 
68 1 17.8176 6.25004 24.5579 
103 1 19.1507 6.1173 22.5663 
126 1 19.1808 6.15401 15.5396 
129 2 17.5585 4.85536 13.3292 
130 3 17.6983 3.84681 13.3451 
3 1 19.5922 6.85683 12.2006 
7 1 20.013 8.20386 12.2493 
10 1 15.1472 8.41569 12.8382 
22 1 19.2606 9.45221 12.2129 
26 1 17.9212 9.63307 12.3319 
38 1 17.5364 8.28126 12.2156 
42 1 18.2697 7.0422 12.2935 
44 1 20.1896 11.8444 12.7988 
48 1 12.5241 7.64535 1.40557 
65 1 19.6244 6.82297 0.173825 
69 1 18.2543 7.0345 0.058847 
82 1 17.5135 8.30953 0.0861908 
86 1 17.9386 9.62766 0.0883343 
96 1 14.0654 8.70072 12.3806 
98 1 19.2775 9.42962 0.165136 
102 1 20.0149 8.16747 0.0884806 
113 1 12.5247 7.64995 10.9319 
1 1 17.9451 9.55555 16.2763 
2 1 18.6598 8.36555 16.9482 
8 1 18.8544 10.3509 15.5524 
9 1 18.7141 8.28782 18.4358 
20 1 14.0517 8.70196 25.71 
21 1 18.2483 7.05972 16.1943 
23 1 19.7908 10.5573 13.2982 
24 1 20.5897 9.50415 14.1496 
25 1 17.4413 10.3799 13.5536 
27 1 17.1151 7.49694 15.4511 
37 1 19.9934 8.22348 16.1408 
39 1 16.5134 8.18608 13.3897 
40 1 16.6125 9.4733 14.2557 
63 1 17.8589 9.52196 21.8339 
64 1 18.6974 8.30957 21.1208 
70 1 16.9156 9.03436 22.4489 
71 1 18.7314 8.2692 19.647 
72 1 20.2184 11.8262 25.2585 
81 1 19.9617 8.21167 21.9533 
83 1 16.4925 8.2632 24.6639 
84 1 16.8536 7.01673 23.8569 
85 1 17.5011 10.444 24.5021 
87 1 20.0308 9.48224 22.6766 
97 1 18.2332 7.02175 21.8668 
99 1 19.8426 10.5543 24.8175 
100 1 18.4487 10.8618 23.8514 
104 1 15.1349 8.43752 25.2429 
108 1 18.8314 10.3063 22.5663 
111 1 20.5909 9.49487 23.9422 
112 1 17.0833 7.46452 22.5698 
115 1 16.667 9.48785 23.8037 
118 1 16.8706 9.00277 15.5604 
121 1 16.8669 7.00497 14.1947 
122 1 20.0789 9.47607 15.4349 
125 1 18.5804 10.8126 14.2506 
ITEM: TIMESTEP
60
ITEM: NUMBER OF ATOMS
130
ITEM: BOX BOUNDS xy xz yz pp pp pp
0.0000000000000000e+00 2.3654499999999999e+01 7.8845000000000001e+00
0.0000000000000000e+00 1.3658086643083999e+01 0.0000000000000000e+00
0.0000000000000000e+00 2.5747000000000000e+01 0.0000000000000000e+00
ITEM: ATOMS id type x y z 
18 1 10.3541 6.83052 2.64513 
28 1 5.10988 4.6679 12.9036 
31 1 9.33965 6.58086 0.390258 
62 1 8.94598 5.31014 12.3901 
91 1 9.33866 6.58302 11.9445 
92 1 10.7313 6.28278 10.9787 
106 1 10.3502 6.83054 9.68876 
127 1 10.7335 6.27812 1.35613 
4 1 4.43883 5.91244 13.3237 
5 1 3.2176 5.72473 14.2341 
43 1 4.62852 7.02013 15.4782 
52 1 8.94535 5.30789 25.6947 
66 1 4.41989 5.90468 24.8027 
67 1 5.08552 7.03544 23.9096 
88 1 5.09915 4.66233 25.1668 
107 1 3.13547 5.72543 23.8898 
116 1 4.57056 6.98503 22.619 
117 1 5.1238 7.05939 14.1831 
11 1 11.3326 7.60819 3.37629 
12 1 10.4938 8.82182 4.09799 
14 1 9.00252 11.228 0.407505 
15 1 10.2863 11.4072 1.32061 
16 1 8.32412 8.86083 0.652322 
19 1 10.4599 8.85725 5.55831 
29 1 10.9565 10.1095 3.34328 
32 1 8.59372 7.63309 1.26132 
35 1 12.1116 9.66981 2.64463 
45 1 9.22725 8.91907 3.25579 
47 1 12.6946 8.87411 0.547631 
49 1 11.3771 10.8789 0.651305 
51 1 8.85391 10.1449 2.58992 
53 1 11.3308 7.60748 8.96016 
54 1 10.4937 8.82216 8.23638 
56 1 9.00434 11.2267 11.9284 
57 1 8.33797 10.0957 11.0343 
58 1 11.38 10.8754 11.6843 
60 1 12.2717 8.10198 9.57295 
61 1 10.46 8.8574 6.77599 
73 1 9.22664 8.91931 9.07741 
75 1 12.7103 8.87475 11.7939 
76 1 12.3454 10.1157 10.9799 
79 1 9.14966 7.65013 9.79715 
80 1 8.32405 12.4666 12.2913 
89 1 10.9565 10.1086 8.99222 
93 1 8.3246 8.86038 11.6817 
95 1 10.0405 11.0111 9.69243 
105 1 10.2876 11.4045 11.0158 
109 1 8.59237 7.63297 11.0706 
110 1 12.1106 9.66828 9.69325 
114 1 8.85435 10.1446 9.74466 
119 1 8.33751 10.0952 1.29981 
120 1 12.2738 8.10282 2.76427 
123 1 12.3424 10.119 1.35738 
124 1 9.15387 7.65106 2.53449 
128 1 10.0397 11.0116 2.64365 
6 1 5.11068 8.28574 13.5148 
13 1 9.56744 10.3009 25.0315 
17 1 9.17404 8.96114 25.1125 
30 1 9.90983 7.70241 25.0404 
34 1 11.2484 7.50401 25.1207 
36 1 8.32183 12.4703 25.7905 
46 1 11.6768 8.82118 25.124 
50 1 10.9347 10.0962 25.148 
55 1 9.57033 10.2995 13.0507 
59 1 10.9381 10.0926 12.9338 
74 1 11.6827 8.81931 12.9593 
78 1 11.2539 7.50383 12.962 
90 1 9.91416 7.70163 13.0401 
94 1 9.17554 8.96116 12.9654 
101 1 5.09769 8.27136 24.5552 
33 1 11.6848 6.6962 0.71081 
77 1 11.685 6.69898 11.623 
41 1 17.7275 6.00578 13.5048 
68 1 17.8142 6.253 24.5579 
103 1 19.153 6.12147 22.5676 
126 1 19.1838 6.15934 15.5359 
129 2 17.5558 4.85993 13.3289 
130 3 17.6852 3.85155 13.3373 
3 1 19.5948 6.86099 12.1974 
7 1 20.0159 8.20732 12.2484 
10 1 15.1495 8.40808 12.8392 
22 1 19.2602 9.45032 12.2097 
26 1 17.9231 9.63095 12.3326 
38 1 17.5338 8.27855 12.222 
42 1 18.2748 7.04236 12.2938 
44 1 20.2094 11.8426 12.7938 
48 1 12.5204 7.65281 1.4067 
65 1 19.624 6.83234 0.177412 
69 1 18.2563 7.0366 0.0613704 
82 1 17.5126 8.31039 0.0864913 
86 1 17.9395 9.62779 0.0900175 
96 1 14.0705 8.69871 12.3793 
98 1 19.2796 9.43 0.169155 
102 1 20.0165 8.17174 0.0944297 
113 1 12.5216 7.65694 10.9316 
1 1 17.9463 9.55343 16.2758 
2 1 18.6627 8.3693 16.9465 
8 1 18.8637 10.3434 15.5527 
9 1 18.7151 8.29131 18.4355 
20 1 14.054 8.70293 25.712 
21 1 18.2511 7.06429 16.1912 
23 1 19.795 10.5555 13.3004 
24 1 20.6021 9.50655 14.1502 
25 1 17.4466 10.3708 13.55 
27 1 17.109 7.49425 15.4549 
37 1 19.9974 8.22691 16.1405 
39 1 16.5087 8.17911 13.3915 
40 1 16.615 9.45817 14.2509 
63 1 17.8606 9.5204 21.8348 
64 1 18.6969 8.30908 21.1217 
70 1 16.9172 9.02791 22.4462 
71 1 18.7311 8.27248 19.6456 
72 1 20.2435 11.8242 25.2614 
81 1 19.9648 8.21258 21.9531 
83 1 16.4942 8.25743 24.6633 
84 1 16.8477 7.01144 23.8537 
85 1 17.5057 10.4361 24.5007 
87 1 20.0392 9.48364 22.6747 
97 1 18.2345 7.02379 21.8667 
99 1 19.8518 10.5496 24.8198 
100 1 18.4577 10.8523 23.8547 
104 1 15.1337 8.43621 25.2409 
108 1 18.8372 10.3008 22.5665 
111 1 20.5992 9.4996 23.9468 
112 1 17.077 7.46145 22.5672 
115 1 16.67 9.4789 23.8035 
118 1 16.8716 8.99421 15.5649 
121 1 16.856 7.00354 14.1935 
122 1 20.089 9.48192 15.4371 
125 1 18.5905 10.805 14.2441 
ITEM: TIMESTEP
70
ITEM: NUMBER OF ATOMS
130
ITEM: BOX BOUNDS xy xz yz pp pp pp
0.0000000000000000e+00 2.3654499999999999e+01 7.8845000000000001e+00
0.0000000000000000e+00 1.3658086643083999e+01 0.0000000000000000e+00
0.0000000000000000e+00 2.5747000000000000e+01 0.0000000000000000e+00
ITEM: ATOMS id type x y z 
18 1 10.3489 6.83528 2.64377 
28 1 5.1154 4.67373 12.9051 
31 1 9.33184 6.58114 0.386708 
62 1 8.92095 5.31623 12.3918 
91 1 9.3319 6.58481 11.9487 
92 1 10.7218 6.29236 10.9824 
106 1 10.3465 6.83529 9.68992 
127 1 10.723 6.28801 1.35237 
4 1 4.44065 5.91818 13.322 
5 1 3.21804 5.73094 14.231 
43 1 4.63171 7.02447 15.4757 
52 1 8.92021 5.31391 25.6928 
66 1 4.42108 5.90922 24.8053 
67 1 5.0894 7.04199 23.9113 
88 1 5.10275 4.66972 25.1648 
107 1 3.13518 5.73109 23.892 
116 1 4.57395 6.9883 22.6232 
117 1 5.12862 7.06688 14.1819 
11 1 11.3307 7.60997 3.37529 
12 1 10.493 8.82025 4.09825 
14 1 9.00055 11.2231 0.404995 
15 1 10.2864 11.402 1.31854 
16 1 8.31935 8.85671 0.64643 
19 1 10.4584 8.85447 5.55848 
29 1 10.9561 10.1073 3.34218 
32 1 8.58488 7.63126 1.26215 
35 1 12.1149 9.67489 2.64717 