ITEM: TIMESTEP
0
ITEM: NUMBER OF ATOMS
145
ITEM: BOX BOUNDS pp pp pp
0.0000000000000000e+00 2.1884000000000000e+01
0.0000000000000000e+00 2.1885999999999999e+01
0.0000000000000000e+00 2.1885000000000002e+01
ITEM: ATOMS id type x y z 
145 2 5.811 10.86 12.218 
9 1 8.524 12.547 12.547 
10 1 1.604 19.466 19.466 
11 1 1.605 19.466 12.547 
12 1 8.524 12.547 19.466 
13 1 1.605 12.547 19.466 
14 1 8.524 19.467 12.547 
15 1 8.524 19.467 19.466 
16 1 1.605 12.547 12.547 
25 1 10.105 10.965 10.965 
26 1 0.023 21.047 21.049 
27 1 0.023 21.047 10.964 
28 1 10.106 10.965 21.047 
29 1 0.023 10.966 21.048 
30 1 10.106 21.049 10.966 
31 1 10.106 21.048 21.049 
32 1 0.024 10.965 10.965 
57 1 5.811 12.218 12.218 
58 1 4.317 19.796 19.795 
59 1 4.318 19.795 12.218 
60 1 5.811 12.219 19.795 
61 1 4.318 12.218 19.795 
62 1 5.811 19.795 12.218 
63 1 5.811 19.796 19.795 
64 1 4.318 12.218 12.218 
65 1 8.853 15.26 12.218 
66 1 1.276 16.754 19.795 
67 1 8.853 16.754 19.795 
68 1 1.276 15.26 12.218 
69 1 1.276 16.754 12.218 
70 1 8.853 15.26 19.796 
71 1 1.276 15.26 19.795 
72 1 8.853 16.753 12.218 
73 1 8.853 12.219 15.26 
74 1 1.276 19.795 16.753 
75 1 1.276 12.218 16.754 
76 1 8.853 19.796 15.26 
77 1 8.853 19.796 16.753 
78 1 1.276 12.218 15.26 
79 1 1.276 19.795 15.26 
80 1 8.853 12.219 16.754 
105 1 7.01 12.317 12.317 
106 1 3.118 19.696 19.696 
107 1 3.119 19.696 12.317 
108 1 7.011 12.317 19.696 
109 1 3.119 12.317 19.696 
110 1 7.01 19.696 12.317 
111 1 7.01 19.697 19.696 
112 1 3.118 12.317 12.317 
113 1 8.754 14.061 12.317 
114 1 1.375 17.953 19.696 
115 1 8.754 17.953 19.696 
116 1 1.375 14.061 12.317 
117 1 1.375 17.953 12.317 
118 1 8.754 14.061 19.696 
119 1 1.375 14.061 19.696 
120 1 8.754 17.953 12.317 
121 1 8.754 12.317 14.061 
122 1 1.375 19.696 17.952 
123 1 1.375 12.317 17.953 
124 1 8.754 19.697 14.061 
125 1 8.754 19.697 17.952 
126 1 1.375 12.317 14.061 
127 1 1.375 19.696 14.061 
128 1 8.754 12.318 17.953 
137 1 9.407 11.664 11.664 
138 1 0.721 20.349 20.35 
139 1 0.721 20.349 11.663 
140 1 9.408 11.664 20.349 
141 1 0.721 11.664 20.35 
142 1 9.407 20.35 11.664 
143 1 9.407 20.35 20.35 
144 1 0.722 11.664 11.663 
1 1 19.466 1.604 1.604 
2 1 12.547 8.524 8.524 
3 1 12.546 8.524 1.604 
4 1 19.466 1.605 8.524 
5 1 12.547 1.604 8.524 
6 1 19.466 8.524 1.605 
7 1 19.466 8.524 8.524 
8 1 12.547 1.604 1.605 
17 1 21.048 0.023 0.022 
18 1 10.965 10.106 10.106 
19 1 10.965 10.106 0.024 
20 1 21.048 0.024 10.107 
21 1 10.965 0.022 10.105 
22 1 21.048 10.105 0.023 
23 1 21.047 10.106 10.106 
24 1 10.965 0.023 0.022 
33 1 16.753 1.275 1.276 
34 1 15.26 8.853 8.853 
35 1 15.26 8.852 1.276 
36 1 16.753 1.275 8.853 
37 1 15.26 1.275 8.853 
38 1 16.753 8.852 1.276 
39 1 16.753 8.853 8.853 
40 1 15.26 1.275 1.276 
41 1 19.795 4.317 1.276 
42 1 12.218 5.811 8.853 
43 1 19.795 5.811 8.853 
44 1 12.218 4.317 1.276 
45 1 12.218 5.811 1.275 
46 1 19.795 4.317 8.853 
47 1 12.218 4.317 8.853 
48 1 19.795 5.811 1.276 
49 1 19.795 1.275 4.317 
50 1 12.218 8.852 5.811 
51 1 12.218 1.276 5.811 
52 1 19.795 8.853 4.318 
53 1 19.795 8.853 5.811 
54 1 12.218 1.275 4.318 
55 1 12.218 8.852 4.317 
56 1 19.795 1.275 5.811 
81 1 17.952 1.374 1.375 
82 1 14.061 8.754 8.754 
83 1 14.06 8.753 1.375 
84 1 17.952 1.374 8.754 
85 1 14.06 1.374 8.754 
86 1 17.952 8.754 1.375 
87 1 17.952 8.754 8.754 
88 1 14.061 1.374 1.375 
89 1 19.696 3.118 1.375 
90 1 12.317 7.01 8.754 
91 1 19.696 7.01 8.754 
92 1 12.317 3.118 1.375 
93 1 12.317 7.01 1.374 
94 1 19.695 3.118 8.754 
95 1 12.317 3.118 8.754 
96 1 19.696 7.01 1.375 
97 1 19.696 1.374 3.118 
98 1 12.317 8.754 7.01 
99 1 12.317 1.375 7.01 
100 1 19.696 8.754 3.118 
101 1 19.696 8.754 7.01 
102 1 12.317 1.374 3.119 
103 1 12.317 8.753 3.118 
104 1 19.696 1.374 7.01 
129 1 20.35 0.722 0.721 
130 1 11.664 9.407 9.407 
131 1 11.663 9.407 0.722 
132 1 20.35 0.722 9.408 
133 1 11.663 0.72 9.407 
134 1 20.35 9.407 0.721 
135 1 20.349 9.407 9.407 
136 1 11.664 0.721 0.721 
ITEM: TIMESTEP
10
ITEM: NUMBER OF ATOMS
145
ITEM: BOX BOUNDS pp pp pp
0.0000000000000000e+00 2.1884000000000000e+01
0.0000000000000000e+00 2.1885999999999999e+01
0.0000000000000000e+00 2.1885000000000002e+01
ITEM: ATOMS id type x y z 
145 2 5.90141 10.8291 12.2149 
9 1 8.54286 12.5699 12.5535 
10 1 1.6148 19.4558 19.4555 
11 1 1.61568 19.456 12.5572 
12 1 8.51363 12.5577 19.4593 
13 1 1.61544 12.5577 19.4559 
14 1 8.51414 19.458 12.5567 
15 1 8.51383 19.4564 19.4555 
16 1 1.61577 12.556 12.5523 
25 1 10.1078 10.962 10.9632 
26 1 0.0205608 21.0495 21.0512 
27 1 0.0204829 21.0495 10.9618 
28 1 10.1089 10.9628 21.0497 
29 1 0.0203881 10.9635 21.0504 
30 1 10.108 21.051 10.9634 
31 1 10.1078 21.0501 21.0508 
32 1 0.0215922 10.9637 10.9634 
57 1 5.7456 12.1959 12.1957 
58 1 4.30717 19.7941 19.7934 
59 1 4.30805 19.7933 12.2196 
60 1 5.81968 12.2202 19.7933 
61 1 4.30824 12.2198 19.7934 
62 1 5.81713 19.7936 12.2193 
63 1 5.81892 19.7945 19.7934 
64 1 4.24861 12.2836 12.2196 
65 1 8.85327 15.2624 12.2178 
66 1 1.27771 16.7628 19.7934 
67 1 8.85132 16.7624 19.7935 
68 1 1.27707 15.2557 12.2194 
69 1 1.27767 16.7634 12.2197 
70 1 8.85161 15.2524 19.7941 
71 1 1.27766 15.251 19.7933 
72 1 8.85189 16.7663 12.219 
73 1 8.85259 12.2185 15.2562 
74 1 1.27769 19.7933 16.7631 
75 1 1.27767 12.2197 16.7635 
76 1 8.85166 19.7946 15.2538 
77 1 8.85139 19.7944 16.7625 
78 1 1.27715 12.2194 15.2552 
79 1 1.27758 19.7934 15.2507 
80 1 8.85197 12.2202 16.769 
105 1 7.06935 12.2682 12.3308 
106 1 3.12126 19.6966 19.6965 
107 1 3.12125 19.6962 12.3167 
108 1 7.00833 12.3168 19.6965 
109 1 3.12133 12.3166 19.6963 
110 1 7.00978 19.6965 12.3165 
111 1 7.00912 19.6971 19.6961 
112 1 3.03989 12.3275 12.3284 
113 1 8.75931 14.0737 12.3153 
114 1 1.37445 17.9499 19.6964 
115 1 8.75412 17.9515 19.6961 
116 1 1.37592 14.0617 12.3154 
117 1 1.37464 17.9497 12.3166 
118 1 8.75445 14.0635 19.6966 
119 1 1.37455 14.0638 19.6964 
120 1 8.75417 17.9553 12.3169 
121 1 8.76009 12.3156 14.0682 
122 1 1.37435 19.6963 17.9493 
123 1 1.37455 12.3166 17.9497 
124 1 8.75447 19.6974 14.0613 
125 1 8.75412 19.6971 17.9506 
126 1 1.37558 12.3155 14.0624 
127 1 1.37466 19.6963 14.0628 
128 1 8.75456 12.3175 17.9539 
137 1 9.41856 11.6564 11.6583 
138 1 0.716569 20.3537 20.3545 
139 1 0.716946 20.3537 11.6588 
140 1 9.41218 11.6588 20.3537 
141 1 0.717101 11.6593 20.3544 
142 1 9.41171 20.3549 11.6598 
143 1 9.41155 20.3545 20.3544 
144 1 0.718901 11.6587 11.6579 
1 1 19.456 1.61483 1.61472 
2 1 12.558 8.51267 8.51264 
3 1 12.557 8.51409 1.6141 
4 1 19.4555 1.61466 8.51332 
5 1 12.5575 1.61403 8.51394 
6 1 19.4561 8.51402 1.6156 
7 1 19.4556 8.51353 8.51319 
8 1 12.5571 1.61453 1.61532 
17 1 21.0507 0.0207325 0.019949 
18 1 10.9681 10.1026 10.1024 
19 1 10.9623 10.1085 0.0213131 
20 1 21.0504 0.021568 10.1091 
21 1 10.9623 0.0194862 10.1075 
22 1 21.0504 10.1075 0.0201993 
23 1 21.049 10.1075 10.1074 
24 1 10.9631 0.0208777 0.0201615 
33 1 16.7618 1.27652 1.27759 
34 1 15.2519 8.85151 8.85151 
35 1 15.2512 8.85037 1.27759 
36 1 16.763 1.27668 8.8513 
37 1 15.2502 1.27667 8.85133 
38 1 16.762 8.85055 1.27768 
39 1 16.7621 8.85143 8.85142 
40 1 15.2517 1.27651 1.2775 
41 1 19.7934 4.30843 1.27769 
42 1 12.2196 5.81955 8.85134 
43 1 19.7934 5.8196 8.85134 
44 1 12.2196 4.30855 1.27754 
45 1 12.2195 5.818 1.2766 
46 1 19.7932 4.30918 8.85154 
47 1 12.2197 4.30859 8.85135 
48 1 19.7933 5.81924 1.27761 
49 1 19.7934 1.27662 4.30838 
50 1 12.2197 8.85049 5.81969 
51 1 12.2196 1.27754 5.81987 
52 1 19.7933 8.85135 4.30799 
53 1 19.7933 8.85132 5.82099 
54 1 12.2195 1.27667 4.3093 
55 1 12.2195 8.85041 4.31017 
56 1 19.7933 1.27671 5.82076 
81 1 17.9509 1.37388 1.3747 
82 1 14.0615 8.75432 8.7543 
83 1 14.062 8.75333 1.37468 
84 1 17.9491 1.37368 8.75449 
85 1 14.0629 1.37369 8.75426 
86 1 17.9498 8.75426 1.37451 
87 1 17.9508 8.75412 8.75413 
88 1 14.0615 1.37391 1.37488 
89 1 19.6962 3.12011 1.37476 
90 1 12.3166 7.00779 8.75441 
91 1 19.6962 7.00804 8.75417 
92 1 12.3168 3.11974 1.37492 
93 1 12.3165 7.00832 1.37356 
94 1 19.6957 3.12012 8.75423 
95 1 12.3166 3.12069 8.7545 
96 1 19.6965 7.00733 1.37454 
97 1 19.6963 1.37386 3.11989 
98 1 12.3165 8.75426 7.00749 
99 1 12.3167 1.3745 7.00797 
100 1 19.6963 8.75432 3.12075 
101 1 19.6962 8.7542 7.00769 
102 1 12.3169 1.37387 3.11992 
103 1 12.3165 8.75347 3.11977 
104 1 19.6965 1.3737 7.00702 
129 1 20.3537 0.71696 0.716306 
130 1 11.664 9.40738 9.40749 
131 1 11.6586 9.41151 0.717198 
132 1 20.354 0.717408 9.41224 
133 1 11.6591 0.716069 9.4114 
134 1 20.354 9.41151 0.717148 
135 1 20.3534 9.41169 9.41207 
136 1 11.6595 0.716455 0.716621 
ITEM: TIMESTEP
20
ITEM: NUMBER OF ATOMS
145
ITEM: BOX BOUNDS pp pp pp
0.0000000000000000e+00 2.1884000000000000e+01
0.0000000000000000e+00 2.1885999999999999e+01
0.0000000000000000e+00 2.1885000000000002e+01
ITEM: ATOMS id type x y z 
145 2 6.02651 10.8034 12.2141 
9 1 8.52887 12.5759 12.5591 
10 1 1.61527 19.4551 19.4552 
11 1 1.61568 19.4552 12.5577 
12 1 8.51348 12.5583 19.462 
13 1 1.61595 12.5584 19.456 
14 1 8.51307 19.4588 12.5582 
15 1 8.51315 19.4555 19.4554 
16 1 1.54353 12.561 12.5594 
25 1 10.109 10.9602 10.9632 
26 1 0.0238309 21.0466 21.0478 
27 1 0.0236047 21.0466 10.9654 
28 1 10.1058 10.9654 21.0467 
29 1 0.0239411 10.9665 21.0472 
30 1 10.1054 21.0481 10.9659 
31 1 10.1048 21.0476 21.0478 
32 1 0.0185069 10.9598 10.9594 
57 1 5.71527 12.1927 12.18 
58 1 4.31595 19.7931 19.7925 
59 1 4.31523 19.7925 12.2205 
60 1 5.81121 12.2206 19.7922 
61 1 4.3156 12.2207 19.7925 
62 1 5.81263 19.7924 12.2202 
63 1 5.81271 19.7934 19.7924 
64 1 4.1979 12.358 12.2269 
65 1 8.85386 15.2748 12.2169 
66 1 1.2786 16.7562 19.7924 
67 1 8.85036 16.7565 19.7926 
68 1 1.27763 15.2718 12.2179 
69 1 1.27781 16.7599 12.2203 
70 1 8.85101 15.2603 19.7928 
71 1 1.27858 15.2572 19.7923 
72 1 8.85184 16.7666 12.2189 
73 1 8.8518 12.2184 15.2579 
74 1 1.27848 19.7924 16.755 
75 1 1.27776 12.2203 16.7599 
76 1 8.85076 19.7935 15.2594 
77 1 8.85039 19.7934 16.7562 
78 1 1.27777 12.2178 15.2709 
79 1 1.27853 19.7924 15.2576 
80 1 8.85146 12.2204 16.7668 
105 1 7.08354 12.1867 12.3361 
106 1 3.12671 19.6966 19.6962 
107 1 3.12705 19.6963 12.3168 
108 1 7.00111 12.3167 19.6971 
109 1 3.12707 12.3167 19.6964 
110 1 7.00042 19.6971 12.3163 
111 1 7.00117 19.6971 19.6962 
112 1 3.05892 12.3258 12.32 
113 1 8.76559 14.0852 12.3157 
114 1 1.37455 17.9441 19.6963 
115 1 8.75379 17.9454 19.6958 
116 1 1.36961 14.0804 12.3121 
117 1 1.37521 17.9494 12.3171 
118 1 8.75454 14.0709 19.6973 
119 1 1.3746 14.0702 19.6964 
120 1 8.75376 17.9562 12.3173 
121 1 8.76858 12.3188 14.0753 
122 1 1.37462 19.6963 17.944 
123 1 1.375 12.3171 17.9496 
124 1 8.75461 19.6977 14.0699 
125 1 8.75417 19.697 17.9438 
126 1 1.37004 12.313 14.078 
127 1 1.37466 19.6965 14.0697 
128 1 8.75479 12.3173 17.9493 
137 1 9.43146 11.6575 11.6591 
138 1 0.718228 20.3518 20.3529 
139 1 0.718603 20.3523 11.6598 
140 1 9.41085 11.6606 20.3531 
141 1 0.718326 11.6611 20.3528 
142 1 9.41032 20.3543 11.6608 
143 1 9.41034 20.3527 20.3529 
144 1 0.713557 11.6564 11.655 
1 1 19.4552 1.61524 1.6153 
2 1 12.5603 8.51035 8.51043 
3 1 12.5573 8.512 1.61589 
4 1 19.4545 1.61595 8.51329 
5 1 12.558 1.61529 8.51301 
6 1 19.4555 8.5121 1.61593 
7 1 19.455 8.51206 8.51314 
8 1 12.558 1.61512 1.61594 
17 1 21.0472 0.0237909 0.0232531 
18 1 10.9721 10.0985 10.0985 
19 1 10.9657 10.1048 0.0245373 
20 1 21.0471 0.024607 10.1056 
21 1 10.966 0.022962 10.1042 
22 1 21.047 10.1045 0.0237071 
23 1 21.044 10.1025 10.1028 
24 1 10.9661 0.023386 0.0230713 
33 1 16.7546 1.27753 1.2786 
34 1 15.2589 8.85062 8.85061 
35 1 15.2572 8.84931 1.27866 
36 1 16.7554 1.27762 8.85045 
37 1 15.2576 1.27755 8.85039 
38 1 16.7553 8.84963 1.27869 
39 1 16.7557 8.8504 8.85039 
40 1 15.2578 1.2776 1.27863 
41 1 19.7923 4.31437 1.27868 
42 1 12.2204 5.81231 8.85058 
43 1 19.7924 5.81345 8.85037 
44 1 12.2207 4.31456 1.27851 
45 1 12.2206 5.81307 1.27777 
46 1 19.7921 4.31513 8.85053 
47 1 12.2206 4.31438 8.85041 
48 1 19.7924 5.81331 1.27863 
49 1 19.7923 1.27768 4.31478 
50 1 12.2205 8.84985 5.81242 
51 1 12.2206 1.27849 5.81345 
52 1 19.7924 8.85043 4.31605 
53 1 19.7925 8.85047 5.81213 
54 1 12.2206 1.27778 4.31534 
55 1 12.2206 8.84935 4.31438 
56 1 19.7924 1.27769 5.81281 
81 1 17.9441 1.37407 1.37479 
82 1 14.0706 8.75419 8.75417 
83 1 14.0687 8.75313 1.37486 
84 1 17.9443 1.37415 8.7541 
85 1 14.0683 1.37395 8.75399 
86 1 17.9435 8.75411 1.37466 
87 1 17.9428 8.75414 8.75421 
88 1 14.0693 1.3741 1.37507 
89 1 19.6961 3.12701 1.37473 
90 1 12.3169 7.00062 8.75409 
91 1 19.6961 7.00114 8.75386 
92 1 12.3171 3.12659 1.37518 
93 1 12.3169 7.00182 1.37398 
94 1 19.6954 3.12614 8.75394 
95 1 12.3168 3.12616 8.75443 
96 1 19.6962 7.00217 1.37511 
97 1 19.6963 1.37383 3.12768 
98 1 12.3168 8.75383 7.0008 
99 1 12.3169 1.37444 7.00152 
100 1 19.6961 8.75396 3.12624 
101 1 19.6962 8.75396 7.00156 
102 1 12.3171 1.3741 3.12706 
103 1 12.317 8.75303 3.12559 
104 1 19.6964 1.37382 7.00088 
129 1 20.3525 0.718579 0.718057 
130 1 11.6658 9.40505 9.40485 
131 1 11.6609 9.41001 0.719069 
132 1 20.3523 0.718906 9.41049 
133 1 11.6607 0.717984 9.40944 
134 1 20.3523 9.40965 0.718602 
135 1 20.3492 9.40751 9.40734 
136 1 11.6605 0.718179 0.718115 
ITEM: TIMESTEP
30
ITEM: NUMBER OF ATOMS
145
ITEM: BOX BOUNDS pp pp pp
0.0000000000000000e+00 2.1884000000000000e+01
0.0000000000000000e+00 2.1885999999999999e+01
0.0000000000000000e+00 2.1885000000000002e+01
ITEM: ATOMS id type x y z 
145 2 6.1233 10.8194 12.2159 
9 1 8.51959 12.5745 12.5657 
10 1 1.6184 19.4527 19.4524 
11 1 1.6181 19.4557 12.5602 
12 1 8.5092 12.5628 19.4644 
13 1 1.61875 12.5596 19.4544 
14 1 8.51034 19.4591 12.5609 
15 1 8.50965 19.453 19.4539 
16 1 1.52968 12.5653 12.5641 
25 1 10.1146 10.9571 10.96 
26 1 0.0225999 21.0478 21.0489 
27 1 0.0221633 21.0485 10.9636 
28 1 10.1076 10.9635 21.0484 
29 1 0.0221254 10.9649 21.0489 
30 1 10.1073 21.0498 10.964 
31 1 10.1059 21.0485 21.0487 
32 1 0.0152613 10.9542 10.9535 
57 1 5.69923 12.1921 12.1693 
58 1 4.31272 19.7927 19.792 
59 1 4.31432 19.7923 12.2206 
60 1 5.81525 12.2206 19.7914 
61 1 4.31172 12.221 19.7922 
62 1 5.81366 19.7922 12.2203 
63 1 5.81559 19.7929 19.7919 
64 1 4.1945 12.3987 12.2294 
65 1 8.85585 15.2776 12.217 
66 1 1.27891 16.7582 19.7921 
67 1 8.85 16.7598 19.7922 
68 1 1.28038 15.2737 12.2149 
69 1 1.27726 16.7649 12.2199 
70 1 8.85084 15.2572 19.792 
71 1 1.27845 15.2605 19.7924 
72 1 8.85197 16.7708 12.2182 
73 1 8.85409 12.22 15.2545 
74 1 1.27891 19.792 16.7581 
75 1 1.27749 12.2203 16.7683 
76 1 8.85065 19.7932 15.258 
77 1 8.85033 19.7933 16.7563 
78 1 1.28076 12.215 15.2715 
79 1 1.27874 19.7923 15.2572 
80 1 8.85092 12.2198 16.7652 
105 1 7.07664 12.1083 12.3379 
106 1 3.12392 19.6951 19.6947 
107 1 3.12374 19.695 12.318 
108 1 7.00412 12.318 19.6968 
109 1 3.12553 12.3178 19.6954 
110 1 7.00336 19.6961 12.3174 
111 1 7.00405 19.6956 19.6948 
112 1 3.02279 12.3336 12.323 
113 1 8.76439 14.0847 12.317 
114 1 1.37608 17.9479 19.6948 
115 1 8.75235 17.9479 19.6947 
116 1 1.36058 14.0817 12.3127 
117 1 1.37637 17.9565 12.3189 
118 1 8.75345 14.0682 19.697 
119 1 1.37577 14.0652 19.6953 
120 1 8.75239 17.9617 12.3184 
121 1 8.76963 12.322 14.07 
122 1 1.37612 19.6947 17.9472 
123 1 1.37616 12.3187 17.9544 
124 1 8.75353 19.6969 14.0683 
125 1 8.75269 19.6956 17.9494 
126 1 1.36139 12.3136 14.0806 
127 1 1.3758 19.6952 14.0672 
128 1 8.7539 12.3181 17.9514 
137 1 9.43996 11.6607 11.6627 
138 1 0.71759 20.3528 20.3536 
139 1 0.717063 20.3536 11.659 
140 1 9.41092 11.6606 20.355 
141 1 0.717446 11.6597 20.3542 
142 1 9.41126 20.3558 11.6598 
143 1 9.41108 20.3537 20.3535 
144 1 0.703151 11.654 11.6525 
1 1 19.452 1.61836 1.61784 
2 1 12.5636 8.5071 8.5069 
3 1 12.5605 8.50964 1.61816 
4 1 19.4517 1.61857 8.51045 
5 1 12.5609 1.6178 8.5101 
6 1 19.4538 8.50957 1.61912 
7 1 19.4529 8.5091 8.50917 
8 1 12.5607 1.61823 1.61867 
17 1 21.0482 0.0226896 0.0221615 
18 1 10.9713 10.0985 10.0988 
19 1 10.965 10.106 0.0233986 
20 1 21.0478 0.0236845 10.1063 
21 1 10.9654 0.0222794 10.1049 
22 1 21.0478 10.1053 0.0228821 
23 1 21.0428 10.1011 10.1011 
24 1 10.9651 0.0225678 0.0222549 
33 1 16.7577 1.27806 1.27909 
34 1 15.2567 8.85051 8.85049 
35 1 15.2554 8.84892 1.27909 
36 1 16.758 1.27813 8.84994 
37 1 15.2551 1.27806 8.84987 
38 1 16.7546 8.84946 1.27893 
39 1 16.756 8.85038 8.85037 
40 1 15.2552 1.27806 1.27911 
41 1 19.7918 4.31287 1.27914 
42 1 12.2206 5.81358 8.85034 
43 1 19.792 5.81476 8.85002 
44 1 12.2212 4.31258 1.279 
45 1 12.2211 5.81478 1.27822 
46 1 19.7916 4.3123 8.85002 
47 1 12.221 4.31214 8.85012 
48 1 19.7918 5.81551 1.27921 
49 1 19.7919 1.27807 4.31337 
50 1 12.2207 8.84963 5.8136 
51 1 12.2211 1.27883 5.8152 
52 1 19.7918 8.84989 4.31103 
53 1 19.7919 8.84995 5.81668 
54 1 12.2211 1.27831 4.31315 
55 1 12.221 8.84903 4.31216 
56 1 19.7919 1.27811 5.81481 
81 1 17.9468 1.37564 1.3763 
82 1 14.0676 8.75251 8.7525 
83 1 14.066 8.75163 1.37633 
84 1 17.9467 1.37571 8.75265 
85 1 14.0665 1.37538 8.75256 
86 1 17.9479 8.75253 1.37597 
87 1 17.9478 8.7524 8.75284 
88 1 14.0662 1.37562 1.37654 
89 1 19.6946 3.12395 1.37629 
90 1 12.3184 7.00251 8.75251 
91 1 19.6946 7.00313 8.75266 
92 1 12.3186 3.12354 1.37673 
93 1 12.3182 7.00393 1.37544 
94 1 19.6939 3.12369 8.75249 
95 1 12.3183 3.12261 8.75278 
96 1 19.6949 7.00352 1.37635 
97 1 19.6948 1.37543 3.12369 
98 1 12.3184 8.75222 7.00266 
99 1 12.3183 1.37605 7.00453 
100 1 19.6949 8.75253 3.12484 
101 1 19.695 8.75272 7.00159 
102 1 12.3186 1.37566 3.12412 
103 1 12.3183 8.75154 3.12283 
104 1 19.6948 1.37539 7.00426 
129 1 20.3534 0.717684 0.717623 
130 1 11.6667 9.4038 9.40403 
131 1 11.6601 9.41006 0.718511 
132 1 20.3527 0.718398 9.41084 
133 1 11.6603 0.717828 9.40974 
134 1 20.3529 9.41024 0.717932 
135 1 20.347 9.40494 9.40574 
136 1 11.6602 0.717325 0.717581 
ITEM: TIMESTEP
40
ITEM: NUMBER OF ATOMS
145
ITEM: BOX BOUNDS pp pp pp
0.0000000000000000e+00 2.1884000000000000e+01
0.0000000000000000e+00 2.1885999999999999e+01
0.0000000000000000e+00 2.1885000000000002e+01
ITEM: ATOMS id type x y z 
145 2 6.20049 10.8361 12.2182 
9 1 8.51451 12.566 12.5672 
10 1 1.61876 19.4523 19.4523 
11 1 1.61872 19.4566 12.5617 
12 1 8.50915 12.5631 19.4599 
13 1 1.61937 12.5609 19.4564 
14 1 8.5093 19.4591 12.5621 
15 1 8.50951 19.4528 19.4525 
16 1 1.5174 12.5677 12.5668 
25 1 10.1157 10.9594 10.9624 
26 1 0.0227756 21.0476 21.0486 
27 1 0.0218827 21.0487 10.9635 
28 1 10.107 10.9641 21.0479 
29 1 0.0219021 10.9645 21.049 
30 1 10.1073 21.0498 10.9637 
31 1 10.1059 21.0484 21.0483 
32 1 0.0133159 10.9506 10.9498 
57 1 5.68479 12.1964 12.1599 
58 1 4.31402 19.7924 19.7917 
59 1 4.3133 19.7919 12.2207 
60 1 5.81529 12.2209 19.7912 
61 1 4.31386 12.221 19.7918 
62 1 5.81437 19.7919 12.2203 
63 1 5.81515 19.7925 19.7915 
64 1 4.19985 12.4206 12.2322 
65 1 8.85639 15.2772 12.2177 
66 1 1.27908 16.7583 19.7919 
67 1 8.84969 16.7592 19.7917 
68 1 1.28092 15.2761 12.2131 
69 1 1.2775 16.7704 12.2192 
70 1 8.85054 15.2578 19.7916 
71 1 1.27874 15.2584 19.7919 
72 1 8.85201 16.7717 12.2182 
73 1 8.85572 12.2226 15.2522 
74 1 1.27915 19.7918 16.7576 
75 1 1.2776 12.2194 16.77 
76 1 8.85055 19.7929 15.2578 
77 1 8.84986 19.7927 16.7597 
78 1 1.28143 12.2133 15.2752 
79 1 1.27895 19.7918 15.2569 
80 1 8.8501 12.2202 16.7642 
105 1 7.05988 12.0534 12.3421 
106 1 3.1229 19.6941 19.6938 
107 1 3.12383 19.6947 12.3187 
108 1 7.0054 12.3192 19.6962 
109 1 3.1248 12.3184 19.6949 
110 1 7.00412 19.6957 12.3185 
111 1 7.00404 19.6949 19.6942 
112 1 3.01476 12.3438 12.3249 
113 1 8.7595 14.0832 12.3189 
114 1 1.37718 17.95 19.6937 
115 1 8.75155 17.9481 19.6941 
116 1 1.35375 14.0836 12.3124 
117 1 1.37691 17.9613 12.3202 
118 1 8.7523 14.0671 19.6965 
119 1 1.37639 14.0672 19.6949 
120 1 8.75139 17.9625 12.3191 
121 1 8.76765 12.3243 14.0661 
122 1 1.37705 19.6938 17.9488 
123 1 1.37681 12.3199 17.96 
124 1 8.75254 19.6964 14.0677 
125 1 8.7519 19.6949 17.9487 
126 1 1.35467 12.3131 14.0829 
127 1 1.37663 19.6948 14.0675 
128 1 8.75239 12.3189 17.9517 
137 1 9.44524 11.6651 11.6677 
138 1 0.717785 20.353 20.3536 
139 1 0.716925 20.3544 11.6586 
140 1 9.41077 11.6609 20.3558 
141 1 0.71738 11.6593 20.3548 
142 1 9.41156 20.3567 11.6597 
143 1 9.41066 20.3537 20.3537 
144 1 0.695673 11.6535 11.6523 
1 1 19.4516 1.61904 1.61903 
2 1 12.5648 8.50578 8.50567 
3 1 12.561 8.50851 1.61861 
4 1 19.4511 1.61893 8.50906 
5 1 12.5617 1.61861 8.50899 
6 1 19.4518 8.50852 1.61868 
7 1 19.4507 8.50726 8.50792 
8 1 12.5615 1.61877 1.61934 
17 1 21.0479 0.0229974 0.0227776 
18 1 10.9714 10.098 10.0986 
19 1 10.9653 10.1054 0.0236952 
20 1 21.0472 0.0241583 10.1056 
21 1 10.9659 0.0230103 10.1043 
22 1 21.0472 10.1049 0.0234704 
23 1 21.0401 10.098 10.0982 
24 1 10.9655 0.0227856 0.0226311 
33 1 16.7578 1.27855 1.27956 
34 1 15.256 8.85035 8.85031 
35 1 15.2553 8.84861 1.27946 
36 1 16.7578 1.27857 8.84954 
37 1 15.2554 1.27847 8.84948 
38 1 16.7567 8.84899 1.27942 
39 1 16.7577 8.85009 8.85017 
40 1 15.2552 1.27854 1.27959 
41 1 19.7914 4.31251 1.27958 
42 1 12.2209 5.81331 8.8501 
43 1 19.7917 5.8143 8.8498 
44 1 12.2216 4.31238 1.27944 
45 1 12.2215 5.81461 1.27867 
46 1 19.7912 4.31199 8.84969 
47 1 12.2213 4.31138 8.8498 
48 1 19.7915 5.81529 1.27965 
49 1 19.7914 1.27856 4.31256 
50 1 12.2209 8.84941 5.81321 
51 1 12.2215 1.27924 5.81535 
52 1 19.7917 8.84965 4.31186 
53 1 19.7918 8.84987 5.81461 
54 1 12.2215 1.27878 4.3129 
55 1 12.2213 8.84869 4.31154 
56 1 19.7915 1.27856 5.81541 
81 1 17.947 1.3767 1.37731 
82 1 14.067 8.75127 8.75123 
83 1 14.0651 8.75063 1.37724 
84 1 17.947 1.3767 8.75159 
85 1 14.0662 1.37642 8.7515 
86 1 17.9477 8.75141 1.3769 
87 1 17.9471 8.75137 8.7519 
88 1 14.066 1.37666 1.37756 
89 1 19.6935 3.12332 1.37734 
90 1 12.3196 7.00244 8.75126 
91 1 19.6937 7.00289 8.75166 
92 1 12.3197 3.12313 1.37773 
93 1 12.3192 7.00429 1.37643 
94 1 19.6929 3.12262 8.75147 
95 1 12.3194 3.12194 8.75168 
96 1 19.6939 7.00453 1.3774 
97 1 19.6936 1.37654 3.12327 
98 1 12.3196 8.75098 7.00254 
99 1 12.3194 1.37707 7.00464 
100 1 19.6941 8.75151 3.12313 
101 1 19.6941 8.75165 7.0027 
102 1 12.3196 1.37672 3.12364 
103 1 12.3192 8.7506 3.12244 
104 1 19.6936 1.37648 7.0046 
129 1 20.3529 0.717749 0.717467 
130 1 11.6664 9.40349 9.40382 
131 1 11.6604 9.41014 0.718394 
132 1 20.3523 0.718675 9.41049 
133 1 11.661 0.717948 9.40952 
134 1 20.3527 9.40967 0.718257 
135 1 20.3445 9.40196 9.40246 
136 1 11.6602 0.717513 0.717737 
ITEM: TIMESTEP
50
ITEM: NUMBER OF ATOMS
145
ITEM: BOX BOUNDS pp pp pp
0.0000000000000000e+00 2.1884000000000000e+01
0.0000000000000000e+00 2.1885999999999999e+01
0.0000000000000000e+00 2.1885000000000002e+01
ITEM: ATOMS id type x y z 
145 2 6.25981 10.8327 12.2194 
9 1 8.51144 12.5568 12.5681 
10 1 1.61949 19.4529 19.4519 
11 1 1.61929 19.4601 12.5624 
12 1 8.5088 12.5632 19.4576 
13 1 1.62026 12.5625 19.4592 
14 1 8.50914 19.4593 12.5626 
15 1 8.50858 19.4522 19.4527 
16 1 1.51484 12.5699 12.5683 
25 1 10.1164 10.9632 10.9665 
26 1 0.0227982 21.0479 21.0486 
27 1 0.021471 21.0491 10.963 
28 1 10.1067 10.9643 21.048 
29 1 0.0216709 10.9639 21.0492 
30 1 10.1075 21.0498 10.9635 
31 1 10.1057 21.0485 21.0485 
32 1 0.0113591 10.9474 10.9467 
57 1 5.6702 12.2095 12.1504 
58 1 4.31327 19.7919 19.7912 
59 1 4.31424 19.7916 12.2207 
60 1 5.81605 12.2214 19.791 
61 1 4.31497 12.221 19.7912 
62 1 5.81445 19.7916 12.2205 
63 1 5.81524 19.7921 19.7911 
64 1 4.20866 12.4311 12.2357 
65 1 8.85512 15.2733 12.2189 
66 1 1.27951 16.759 19.7914 
67 1 8.84933 16.7589 19.7911 
68 1 1.28056 15.2786 12.212 
69 1 1.27796 16.7726 12.2185 
70 1 8.84992 15.2574 19.7914 
71 1 1.279 15.2586 19.7914 
72 1 8.85194 16.7694 12.2187 
73 1 8.85638 12.2259 15.2502 
74 1 1.27953 19.7914 16.7587 
75 1 1.27811 12.2187 16.7722 
76 1 8.85023 19.7925 15.2584 
77 1 8.84953 19.7923 16.7596 
78 1 1.28124 12.2122 15.2781 
79 1 1.27906 19.7915 15.2583 
80 1 8.84925 12.2213 16.759 
105 1 7.05049 12.0271 12.3488 
106 1 3.12358 19.6934 19.693 
107 1 3.12425 19.6947 12.3195 
108 1 7.00589 12.3202 19.6953 
109 1 3.12538 12.3192 19.6947 
110 1 7.00402 19.6953 12.3193 
111 1 7.00468 19.6939 19.6931 
112 1 3.01411 12.3572 12.3282 
113 1 8.75109 14.0792 12.3216 
114 1 1.37782 17.9485 19.6932 
115 1 8.75061 17.9484 19.6932 
116 1 1.34704 14.0854 12.3119 
117 1 1.37692 17.9631 12.3206 
118 1 8.75158 14.0677 19.6958 
119 1 1.3771 14.0688 19.6949 
120 1 8.75084 17.9595 12.3194 
121 1 8.76444 12.3264 14.0625 
122 1 1.37792 19.6931 17.9485 
123 1 1.37705 12.3204 17.9626 
124 1 8.75185 19.6961 14.0691 
125 1 8.75095 19.694 17.9489 
126 1 1.34916 12.3125 14.0856 
127 1 1.37725 19.6948 14.0684 
128 1 8.75136 12.3189 17.9465 
137 1 9.44841 11.6695 11.6732 
138 1 0.717512 20.3529 20.3537 
139 1 0.716539 20.3551 11.6586 
140 1 9.41067 11.6613 20.3558 
141 1 0.717045 11.6594 20.3554 
142 1 9.41148 20.3573 11.6597 
143 1 9.41099 20.3538 20.3535 
144 1 0.688721 11.6536 11.6519 
1 1 19.4512 1.61913 1.61902 
2 1 12.565 8.5048 8.50478 
3 1 12.5613 8.50821 1.61889 
4 1 19.4508 1.61905 8.50869 
5 1 12.5624 1.61875 8.50853 
6 1 19.4514 8.50842 1.61919 
7 1 19.4491 8.50593 8.50628 
8 1 12.5617 1.61888 1.61955 
17 1 21.0476 0.0230604 0.0227455 
18 1 10.97 10.0991 10.0997 
19 1 10.9656 10.1055 0.0236342 
20 1 21.0469 0.0244686 10.1052 
21 1 10.9663 0.0233037 10.104 
22 1 21.047 10.1045 0.0238439 
23 1 21.0383 10.0956 10.0959 
24 1 10.9656 0.022847 0.0229386 
33 1 16.7574 1.27906 1.28003 
34 1 15.2564 8.85012 8.85008 
35 1 15.2558 8.84816 1.27998 
36 1 16.7573 1.27902 8.84914 
37 1 15.2559 1.27891 8.84908 
38 1 16.7567 8.8485 1.27993 
39 1 16.7569 8.84991 8.85008 
40 1 15.2556 1.27904 1.28009 
41 1 19.7909 4.31314 1.28006 
42 1 12.2213 5.8126 8.84979 
43 1 19.7915 5.81271 8.84965 
44 1 12.2221 4.31269 1.27991 
45 1 12.2219 5.8141 1.27916 
46 1 19.7909 4.31178 8.84935 
47 1 12.2216 4.31158 8.84948 
48 1 19.7911 5.81401 1.28014 
49 1 19.7909 1.27906 4.31303 
50 1 12.2213 8.84913 5.81275 
51 1 12.2219 1.27966 5.81468 
52 1 19.7914 8.84935 4.31188 
53 1 19.7917 8.84972 5.81321 
54 1 12.222 1.27928 4.31323 
55 1 12.2216 8.84841 4.31165 
56 1 19.791 1.27903 5.81458 
81 1 17.9467 1.37757 1.37819 
82 1 14.0673 8.75022 8.75017 
83 1 14.0665 8.74996 1.37782 
84 1 17.9466 1.37752 8.75068 
85 1 14.0666 1.37727 8.7506 
86 1 17.9462 8.7506 1.37759 
87 1 17.9459 8.75051 8.75097 
88 1 14.0664 1.37751 1.37841 
89 1 19.6926 3.12385 1.37819 
90 1 12.3207 7.00171 8.75016 
91 1 19.6928 7.00166 8.75075 
92 1 12.3205 3.12345 1.37855 
93 1 12.32 7.00364 1.37725 
94 1 19.6921 3.12244 8.75054 
95 1 12.3202 3.12223 8.7508 
96 1 19.6931 7.00382 1.3781 
97 1 19.6928 1.37741 3.12387 
98 1 12.3207 8.74987 7.00196 
99 1 12.3202 1.37789 7.00396 
100 1 19.6931 8.75054 3.12186 
101 1 19.6931 8.75068 7.00223 
102 1 12.3204 1.37757 3.12392 
103 1 12.3201 8.74967 3.122 
104 1 19.6928 1.37733 7.0038 
129 1 20.353 0.717792 0.717959 
130 1 11.6647 9.40475 9.40508 
131 1 11.6603 9.40975 0.718261 
132 1 20.3518 0.718863 9.40996 
133 1 11.6612 0.718171 9.40905 
134 1 20.3519 9.40944 0.718454 
135 1 20.3424 9.39948 9.39981 
136 1 11.6604 0.71768 0.71766 
ITEM: TIMESTEP
60
ITEM: NUMBER OF ATOMS
145
ITEM: BOX BOUNDS pp pp pp
0.0000000000000000e+00 2.1884000000000000e+01
0.0000000000000000e+00 2.1885999999999999e+01
0.0000000000000000e+00 2.1885000000000002e+01
ITEM: ATOMS id type x y z 
145 2 6.31517 10.8175 12.217 
9 1 8.51543 12.5514 12.5684 
10 1 1.61926 19.4519 19.4524 
11 1 1.61938 19.4634 12.5636 
12 1 8.50946 12.5641 19.4509 
13 1 1.62048 12.5641 19.4634 
14 1 8.50886 19.4575 12.5636 
15 1 8.50929 19.4526 19.4527 
16 1 1.53408 12.5706 12.5688 
25 1 10.1176 10.9707 10.975 
26 1 0.0224671 21.0479 21.0487 
27 1 0.0206131 21.0496 10.9623 
28 1 10.1055 10.9657 21.0481 
29 1 0.0210133 10.9631 21.0495 
30 1 10.1068 21.0499 10.9639 
31 1 10.106 21.0485 21.0481 
32 1 0.010124 10.9461 10.9452 
57 1 5.67124 12.2155 12.1375 
58 1 4.31422 19.791 19.7904 
59 1 4.31565 19.7908 12.2207 
60 1 5.81793 12.2225 19.7906 
61 1 4.3175 12.2211 19.7903 
62 1 5.81567 19.7911 12.2211 
63 1 5.81436 19.7913 19.7903 
64 1 4.21063 12.4336 12.2415 
65 1 8.84934 15.2626 12.2211 
66 1 1.28005 16.7603 19.7907 
67 1 8.84859 16.7579 19.7902 
68 1 1.2768 15.2785 12.2118 
69 1 1.27926 16.7768 12.2172 
70 1 8.84862 15.2562 19.7909 
71 1 1.27919 15.2592 19.7908 
72 1 8.8514 16.7647 12.2201 
73 1 8.85629 12.2312 15.2458 
74 1 1.28005 19.7906 16.7596 
75 1 1.27928 12.2174 16.7768 
76 1 8.84945 19.7918 15.2578 
77 1 8.84893 19.7916 16.7599 
78 1 1.27826 12.2116 15.2792 
79 1 1.27926 19.7908 15.2598 
80 1 8.84799 12.2236 16.7526 
105 1 7.03732 12.0196 12.3604 
106 1 3.12489 19.6924 19.6919 
107 1 3.12554 19.6953 12.3201 
108 1 7.00759 12.322 19.6935 
109 1 3.1278 12.3203 19.6949 
110 1 7.00584 19.6944 12.3209 
111 1 7.00365 19.6926 19.692 
112 1 3.0089 12.3874 12.3374 
113 1 8.73781 14.0717 12.3277 
114 1 1.37934 17.9501 19.6918 
115 1 8.74942 17.9471 19.692 
116 1 1.3398 14.0864 12.311 
117 1 1.37765 17.9672 12.321 
118 1 8.74974 14.0663 19.6937 
119 1 1.37839 14.0691 19.6949 
120 1 8.75007 17.9538 12.3204 
121 1 8.75929 12.3297 14.0554 
122 1 1.37927 19.692 17.9493 
123 1 1.37806 12.3213 17.9674 
124 1 8.75034 19.695 14.0683 
125 1 8.74951 19.6926 17.9493 
126 1 1.34301 12.312 14.0849 
127 1 1.37785 19.6955 14.0699 
128 1 8.74891 12.32 17.9413 
137 1 9.45211 11.6746 11.6813 
138 1 0.717751 20.3538 20.3539 
139 1 0.716487 20.3569 11.6586 
140 1 9.41033 11.6612 20.3546 
141 1 0.71693 11.6593 20.357 
142 1 9.41144 20.3572 11.6601 
143 1 9.41036 20.3538 20.3542 
144 1 0.680893 11.6546 11.6528 
1 1 19.4512 1.61958 1.6199 
2 1 12.565 8.50405 8.50421 
3 1 12.5621 8.50737 1.61851 
4 1 19.45 1.61892 8.50754 
5 1 12.5629 1.61928 8.50737 
6 1 19.4493 8.50716 1.61802 
7 1 19.4463 8.50274 8.50322 
8 1 12.5623 1.61936 1.61954 
17 1 21.0476 0.0231639 0.0234387 
18 1 10.9673 10.1018 10.1021 
19 1 10.9653 10.105 0.0234453 
20 1 21.0463 0.0248635 10.1046 
21 1 10.9663 0.0235801 10.1035 
22 1 21.0461 10.1042 0.0243726 
23 1 21.0356 10.0913 10.0916 
24 1 10.966 0.0230824 0.022784 
33 1 16.7574 1.27996 1.28091 
34 1 15.2551 8.84967 8.84963 