 # File generated with Atomsk by madmaxiiemus on 2024-09-02 17:06:13
  
           3  atoms
           2  atom types
 
      0.000000000000       8.000000000000  xlo xhi
      0.000000000000       8.000000000000  ylo yhi
      0.000000000000       8.000000000000  zlo zhi
 
Masses
 
            1   15.99900000             # O
            2   1.00800000              # H
 
Atoms # charge
 
         1    1   0.000000        4.000000000000       4.000000000000       4.398000000000
         2    2   0.000000        4.000000000000       4.763000000000       3.801000000000
         3    2   0.000000        4.000000000000       3.237000000000       3.801000000000
