ITEM: TIMESTEP
0
ITEM: NUMBER OF ATOMS
49
ITEM: BOX BOUNDS pp pp pp
0.0000000000000000e+00 1.1000000000000000e+01
0.0000000000000000e+00 1.1002000000000001e+01
0.0000000000000000e+00 1.1000000000000000e+01
ITEM: ATOMS id type x y z 
10 1 4.603 4.603 4.603 
11 1 3.085 3.085 3.085 
12 1 3.796 3.796 3.796 
46 1 0.726 0.725 0.725 
47 1 2.26 2.259 2.26 
48 1 1.551 1.55 1.55 
49 2 4.625 4.8 3.529 
19 1 4.546 4.545 6.226 
20 1 3.013 3.013 7.764 
21 1 3.721 3.721 7.053 
31 1 0.668 0.667 10.103 
32 1 2.187 2.187 8.589 
33 1 1.476 1.475 9.298 
16 1 4.546 6.225 4.546 
17 1 3.013 7.765 3.013 
18 1 3.721 7.053 3.722 
25 1 0.668 10.103 0.668 
26 1 2.188 8.589 2.188 
27 1 1.476 9.298 1.476 
4 1 4.608 6.169 6.169 
5 1 3.086 7.684 7.684 
6 1 3.799 6.974 6.974 
37 1 0.729 10.046 10.046 
38 1 2.259 8.509 8.508 
39 1 1.552 9.219 9.219 
13 1 6.225 4.546 4.546 
14 1 7.764 3.013 3.013 
15 1 7.053 3.721 3.722 
28 1 10.102 0.667 0.668 
29 1 8.589 2.187 2.188 
30 1 9.298 1.475 1.476 
1 1 6.168 4.608 6.169 
2 1 7.684 3.086 7.684 
3 1 6.974 3.799 6.974 
40 1 10.045 0.728 10.046 
41 1 8.508 2.259 8.508 
42 1 9.218 1.551 9.218 
7 1 6.169 6.169 4.608 
8 1 7.684 7.684 3.086 
9 1 6.974 6.974 3.799 
43 1 10.046 10.047 0.729 
44 1 8.508 8.509 2.259 
45 1 9.219 9.219 1.552 
22 1 6.229 6.229 6.229 
23 1 7.764 7.765 7.765 
24 1 7.055 7.056 7.055 
34 1 10.108 10.108 10.107 
35 1 8.59 8.59 8.59 
36 1 9.301 9.301 9.3 
ITEM: TIMESTEP
10
ITEM: NUMBER OF ATOMS
49
ITEM: BOX BOUNDS pp pp pp
0.0000000000000000e+00 1.1000000000000000e+01
0.0000000000000000e+00 1.1002000000000001e+01
0.0000000000000000e+00 1.1000000000000000e+01
ITEM: ATOMS id type x y z 
10 1 4.62399 4.60188 4.62728 
11 1 3.04061 3.04064 3.02654 
12 1 3.73902 3.7474 3.78493 
46 1 0.74044 0.739676 0.73976 
47 1 2.27356 2.26946 2.27254 
48 1 1.5563 1.55391 1.55565 
49 2 4.60393 4.76848 3.43174 
19 1 4.54245 4.54009 6.28513 
20 1 2.99953 2.99968 7.77199 
21 1 3.712 3.71133 7.07296 
31 1 0.673121 0.672655 10.0921 
32 1 2.19095 2.19115 8.58568 
33 1 1.48166 1.48058 9.29048 
16 1 4.53984 6.32906 4.57483 
17 1 2.99405 7.77868 2.99267 
18 1 3.70457 7.0795 3.70737 
25 1 0.673576 10.0905 0.674756 
26 1 2.19024 8.5854 2.19117 
27 1 1.48358 9.29215 1.48235 
4 1 4.59717 6.17405 6.1892 
5 1 3.07964 7.69087 7.68924 
6 1 3.79026 6.9816 6.98558 
37 1 0.736917 10.0386 10.0386 
38 1 2.26676 8.5013 8.50077 
39 1 1.56267 9.20845 9.2078 
13 1 6.30483 4.54016 4.56466 
14 1 7.77389 2.99873 2.99786 
15 1 7.07533 3.70759 3.71019 
28 1 10.0906 0.672365 0.673452 
29 1 8.58617 2.18982 2.19066 
30 1 9.29145 1.4811 1.48234 
1 1 6.17393 4.59807 6.1793 
2 1 7.68942 3.08207 7.68831 
3 1 6.98034 3.78979 6.98313 
40 1 10.0378 0.735277 10.0382 
41 1 8.50084 2.26598 8.5007 
42 1 9.20689 1.56264 9.20708 
7 1 6.18562 6.17734 4.59883 
8 1 7.68924 7.69027 3.07936 
9 1 6.98395 6.98221 3.79164 
43 1 10.0383 10.039 0.73679 
44 1 8.5005 8.50109 2.26652 
45 1 9.2078 9.2082 1.56347 
22 1 6.24159 6.23883 6.24026 
23 1 7.7724 7.77441 7.77379 
24 1 7.06785 7.06672 7.06693 
34 1 10.1015 10.1032 10.1015 
35 1 8.58546 8.5867 8.58558 
36 1 9.29444 9.29243 9.2934 
ITEM: TIMESTEP
20
ITEM: NUMBER OF ATOMS
49
ITEM: BOX BOUNDS pp pp pp
0.0000000000000000e+00 1.1000000000000000e+01
0.0000000000000000e+00 1.1002000000000001e+01
0.0000000000000000e+00 1.1000000000000000e+01
ITEM: ATOMS id type x y z 
10 1 4.6607 4.64258 4.61167 
11 1 3.04213 3.04443 3.02502 
12 1 3.70878 3.7296 3.81579 
46 1 0.728733 0.729199 0.728988 
47 1 2.26172 2.25254 2.25447 
48 1 1.54537 1.54005 1.54172 
49 2 4.5942 4.74667 3.38476 
19 1 4.55467 4.55053 6.29852 
20 1 2.99606 2.99657 7.76709 
21 1 3.71829 3.7166 7.08743 
31 1 0.672499 0.672604 10.0747 
32 1 2.19172 2.19089 8.58706 
33 1 1.47771 1.47868 9.28522 
16 1 4.55972 6.35468 4.59377 
17 1 2.99245 7.76974 2.98953 
18 1 3.71096 7.09744 3.71994 
25 1 0.670268 10.0787 0.671868 
26 1 2.19025 8.59059 2.18845 
27 1 1.47454 9.28734 1.47675 
4 1 4.59753 6.16745 6.19686 
5 1 3.07793 7.69357 7.69207 
6 1 3.78696 6.98133 6.99126 
37 1 0.739298 10.0359 10.0341 
38 1 2.26704 8.50148 8.50053 
39 1 1.56251 9.20904 9.20738 
13 1 6.328 4.55385 4.57836 
14 1 7.76992 2.99346 2.99119 
15 1 7.09322 3.71132 3.71809 
28 1 10.0749 0.669761 0.671448 
29 1 8.58923 2.18893 2.18923 
30 1 9.2882 1.47592 1.47725 
1 1 6.16851 4.59635 6.19117 
2 1 7.69245 3.07998 7.68992 
3 1 6.97955 3.7877 6.98831 
40 1 10.0348 0.738622 10.0342 
41 1 8.49988 2.26786 8.49947 
42 1 9.20637 1.56249 9.2063 
7 1 6.18083 6.17999 4.60405 
8 1 7.68943 7.68837 3.07999 
9 1 6.98327 6.98367 3.79235 
43 1 10.0333 10.0349 0.739877 
44 1 8.49845 8.49934 2.26893 
45 1 9.20558 9.20649 1.56426 
22 1 6.25427 6.24576 6.24907 
23 1 7.77729 7.77859 7.7783 
24 1 7.07034 7.0698 7.0695 
34 1 10.0953 10.098 10.0974 
35 1 8.58619 8.5874 8.58658 
36 1 9.29577 9.29422 9.29476 
ITEM: TIMESTEP
30
ITEM: NUMBER OF ATOMS
49
ITEM: BOX BOUNDS pp pp pp
0.0000000000000000e+00 1.1000000000000000e+01
0.0000000000000000e+00 1.1002000000000001e+01
0.0000000000000000e+00 1.1000000000000000e+01
ITEM: ATOMS id type x y z 
10 1 4.6663 4.65102 4.59702 
11 1 3.04066 3.04382 3.02908 
12 1 3.69894 3.72195 3.82928 
46 1 0.727035 0.727367 0.726943 
47 1 2.26067 2.25009 2.25043 
48 1 1.54444 1.53845 1.53921 
49 2 4.59587 4.74575 3.37603 
19 1 4.55631 4.5527 6.29617 
20 1 2.99936 2.99967 7.76608 
21 1 3.72042 3.71889 7.08476 
31 1 0.671104 0.671754 10.0724 
32 1 2.19222 2.19189 8.58486 
33 1 1.47909 1.47923 9.28327 
16 1 4.56162 6.35568 4.59533 
17 1 2.99235 7.76725 2.98936 
18 1 3.71451 7.10383 3.72513 
25 1 0.668164 10.0758 0.671356 
26 1 2.18957 8.5887 2.18835 
27 1 1.47547 9.28691 1.47615 
4 1 4.5986 6.16612 6.20137 
5 1 3.07799 7.69318 7.69105 
6 1 3.78866 6.9794 6.99368 
37 1 0.73705 10.0352 10.0325 
38 1 2.2679 8.50118 8.49979 
39 1 1.56226 9.20862 9.20694 
13 1 6.32971 4.55492 4.57962 
14 1 7.76745 2.99395 2.99129 
15 1 7.09858 3.71439 3.72271 
28 1 10.073 0.66744 0.670177 
29 1 8.58778 2.18901 2.18944 
30 1 9.28657 1.47604 1.47669 
1 1 6.1671 4.59689 6.19502 
2 1 7.69214 3.07967 7.68907 
3 1 6.97856 3.78916 6.99042 
40 1 10.0332 0.736893 10.0321 
41 1 8.49948 2.26849 8.49899 
42 1 9.20633 1.56245 9.20577 
7 1 6.18325 6.18355 4.60697 
8 1 7.68803 7.6873 3.08005 
9 1 6.98393 6.98347 3.79481 
43 1 10.0312 10.0328 0.738255 
44 1 8.49747 8.498 2.27029 
45 1 9.2041 9.20556 1.56472 
22 1 6.25472 6.24618 6.25149 
23 1 7.77852 7.78047 7.77932 
24 1 7.07246 7.07015 7.07155 
34 1 10.0955 10.0973 10.0977 
35 1 8.58695 8.58707 8.58653 
36 1 9.2945 9.29542 9.29537 
ITEM: TIMESTEP
40
ITEM: NUMBER OF ATOMS
49
ITEM: BOX BOUNDS pp pp pp
0.0000000000000000e+00 1.1000000000000000e+01
0.0000000000000000e+00 1.1002000000000001e+01
0.0000000000000000e+00 1.1000000000000000e+01
ITEM: ATOMS id type x y z 
10 1 4.69028 4.70339 4.42324 
11 1 3.02494 3.03454 3.09887 
12 1 3.56173 3.59591 4.0353 
46 1 0.699618 0.695596 0.694853 
47 1 2.25429 2.22743 2.20485 
48 1 1.53635 1.53127 1.5144 
49 2 4.68369 4.8155 3.23407 
19 1 4.56009 4.56215 6.24213 
20 1 3.02726 3.02537 7.76053 
21 1 3.74012 3.7404 7.06258 
31 1 0.670162 0.670846 10.0515 
32 1 2.20325 2.20338 8.56224 
33 1 1.4867 1.48742 9.2534 
16 1 4.58181 6.35346 4.60716 
17 1 3.00007 7.7479 2.99646 
18 1 3.74479 7.17286 3.77398 
25 1 0.656972 10.0591 0.663861 
26 1 2.19112 8.56838 2.1832 
27 1 1.46893 9.26476 1.47859 
4 1 4.60999 6.14952 6.23078 
5 1 3.07704 7.69218 7.69084 
6 1 3.79764 6.96438 7.0174 
37 1 0.730405 10.0287 10.0192 
38 1 2.2741 8.49981 8.49585 
39 1 1.55817 9.20594 9.19756 
13 1 6.32798 4.57499 4.59471 
14 1 7.75028 3.00315 2.99667 
15 1 7.15429 3.74116 3.76893 
28 1 10.0594 0.655512 0.664428 
29 1 8.57131 2.19049 2.18616 
30 1 9.26322 1.47122 1.47422 
1 1 6.14929 4.60146 6.21797 
2 1 7.68907 3.07793 7.692 
3 1 6.97291 3.79498 7.00135 
40 1 10.0234 0.731778 10.0178 
41 1 8.49679 2.27406 8.49498 
42 1 9.20424 1.5613 9.19731 
7 1 6.19995 6.20027 4.64667 
8 1 7.68156 7.67849 3.08155 
9 1 6.98445 6.98589 3.81488 
43 1 10.011 10.0156 0.737938 
44 1 8.48692 8.4875 2.28299 
45 1 9.19165 9.19119 1.56557 
22 1 6.27014 6.25847 6.28595 
23 1 7.79123 7.7964 7.79027 
24 1 7.08999 7.07447 7.09043 
34 1 10.0867 10.0908 10.0999 
35 1 8.58804 8.59357 8.59276 
36 1 9.30376 9.30008 9.29675 
ITEM: TIMESTEP
50
ITEM: NUMBER OF ATOMS
49
ITEM: BOX BOUNDS pp pp pp
0.0000000000000000e+00 1.1000000000000000e+01
0.0000000000000000e+00 1.1002000000000001e+01
0.0000000000000000e+00 1.1000000000000000e+01
ITEM: ATOMS id type x y z 
10 1 4.6357 4.65152 4.40061 
11 1 3.01675 3.023 3.14293 
12 1 3.5851 3.61105 4.05387 
46 1 0.701392 0.698625 0.695833 
47 1 2.26054 2.239 2.21002 
48 1 1.54618 1.53791 1.5159 
49 2 4.72649 4.85897 3.2207 
19 1 4.55183 4.55376 6.23601 
20 1 3.03072 3.02906 7.76062 
21 1 3.73746 3.73842 7.05188 
31 1 0.67496 0.675958 10.0536 
32 1 2.20595 2.2057 8.55998 
33 1 1.48918 1.48975 9.2517 
16 1 4.57286 6.34705 4.60365 
17 1 3.00697 7.76807 3.00654 
18 1 3.74245 7.15058 3.76938 
25 1 0.658428 10.0636 0.665801 
26 1 2.18819 8.56236 2.18228 
27 1 1.46996 9.26421 1.47523 
4 1 4.60759 6.1403 6.21539 
5 1 3.08184 7.68689 7.69634 
6 1 3.79401 6.96598 7.00713 
37 1 0.736179 10.0336 10.0247 
38 1 2.26986 8.50083 8.49654 
39 1 1.55975 9.20841 9.19834 
13 1 6.32054 4.56792 4.58783 
14 1 7.76688 3.01053 3.00859 
15 1 7.13268 3.73939 3.7622 
28 1 10.063 0.658788 0.666673 
29 1 8.56429 2.18968 2.18541 
30 1 9.26246 1.47398 1.47527 
1 1 6.14147 4.59731 6.19843 
2 1 7.68867 3.0825 7.69283 
3 1 6.96643 3.78934 6.99925 
40 1 10.031 0.736045 10.0238 
41 1 8.50025 2.27014 8.49574 
42 1 9.20368 1.56188 9.19985 
7 1 6.19158 6.18803 4.6486 
8 1 7.68048 7.68052 3.084 
9 1 6.98812 6.98246 3.81616 
43 1 10.0182 10.0227 0.741113 
44 1 8.4881 8.48976 2.27604 
45 1 9.19478 9.1935 1.56622 
22 1 6.26137 6.25069 6.28492 
23 1 7.79127 7.79364 7.78808 
24 1 7.08366 7.07253 7.09034 
34 1 10.0937 10.097 10.1044 
35 1 8.59229 8.59595 8.59259 
36 1 9.30172 9.30201 9.30168 
ITEM: TIMESTEP
60
ITEM: NUMBER OF ATOMS
49
ITEM: BOX BOUNDS pp pp pp
0.0000000000000000e+00 1.1000000000000000e+01
0.0000000000000000e+00 1.1002000000000001e+01
0.0000000000000000e+00 1.1000000000000000e+01
ITEM: ATOMS id type x y z 
10 1 4.62449 4.64431 4.3781 
11 1 2.99444 2.99783 3.17332 
12 1 3.58677 3.60726 4.04424 
46 1 0.716702 0.712728 0.703831 
47 1 2.26503 2.24459 2.21345 
48 1 1.54754 1.54308 1.51555 
49 2 4.74309 4.87062 3.21624 
19 1 4.54878 4.55075 6.24287 
20 1 3.02811 3.02865 7.75719 
21 1 3.74036 3.73736 7.0529 
31 1 0.679954 0.67981 10.0564 
32 1 2.2079 2.20596 8.55988 
33 1 1.48899 1.49251 9.25129 
16 1 4.57265 6.35507 4.60224 
17 1 3.01115 7.78796 3.0136 
18 1 3.73472 7.13606 3.76039 
25 1 0.66197 10.0659 0.668686 
26 1 2.18529 8.55895 2.18004 
27 1 1.47184 9.26567 1.4756 
4 1 4.60181 6.13433 6.20741 
5 1 3.08648 7.68412 7.69878 
6 1 3.78826 6.96208 7.00322 
37 1 0.738708 10.0402 10.0278 
38 1 2.26758 8.50183 8.49679 
39 1 1.55986 9.21029 9.20052 
13 1 6.32538 4.56725 4.58555 
14 1 7.78417 3.01441 3.01627 
15 1 7.1174 3.73375 3.75192 
28 1 10.0661 0.664534 0.670474 
29 1 8.56256 2.18888 2.18417 
30 1 9.26169 1.47297 1.47494 
1 1 6.13417 4.59029 6.1909 
2 1 7.68518 3.0868 7.69351 
3 1 6.96196 3.78412 6.99464 
40 1 10.0387 0.7395 10.0279 
41 1 8.50159 2.26941 8.49558 
42 1 9.20535 1.55997 9.20348 
7 1 6.1898 6.18369 4.64762 
8 1 7.67975 7.67855 3.08972 
9 1 6.98457 6.98063 3.8172 
43 1 10.0248 10.029 0.742676 
44 1 8.48868 8.48947 2.27249 
45 1 9.1958 9.19587 1.56605 
22 1 6.25632 6.24435 6.28339 
23 1 7.78705 7.78847 7.78432 
24 1 7.07952 7.06921 7.08863 
34 1 10.0983 10.1016 10.1095 
35 1 8.59307 8.59592 8.5939 
36 1 9.30263 9.30444 9.29988 
ITEM: TIMESTEP
70
ITEM: NUMBER OF ATOMS
49
ITEM: BOX BOUNDS pp pp pp
0.0000000000000000e+00 1.1000000000000000e+01
0.0000000000000000e+00 1.1002000000000001e+01
0.0000000000000000e+00 1.1000000000000000e+01
ITEM: ATOMS id type x y z 
10 1 4.62559 4.64604 4.37505 
11 1 2.99188 2.99458 3.17986 
12 1 3.58862 3.60843 4.04435 
46 1 0.714737 0.713695 0.702736 
47 1 2.26332 2.24645 2.21328 
48 1 1.55078 1.54069 1.51576 
49 2 4.74505 4.87161 3.21515 
19 1 4.54966 4.55022 6.24323 
20 1 3.02871 3.02751 7.75825 
21 1 3.73778 3.73758 7.05163 
31 1 0.679332 0.68012 10.055 
32 1 2.20636 2.20611 8.55716 
33 1 1.49285 1.4937 9.25543 
16 1 4.57187 6.35401 4.60098 
17 1 3.01197 7.78932 3.01556 
18 1 3.73462 7.13471 3.75906 
25 1 0.661659 10.0673 0.669664 
26 1 2.18462 8.55963 2.18066 
27 1 1.47271 9.26529 1.47391 
4 1 4.59987 6.13393 6.20621 
5 1 3.08506 7.68343 7.69884 
6 1 3.78983 6.96288 7.00449 
37 1 0.738313 10.0403 10.0274 
38 1 2.26673 8.50147 8.4958 
39 1 1.56177 9.21076 9.20218 
13 1 6.32377 4.56644 4.58414 
14 1 7.78581 3.0146 3.01756 
15 1 7.116 3.73366 3.7502 
28 1 10.066 0.663575 0.670393 
29 1 8.56118 2.18783 2.18368 
30 1 9.26481 1.47506 1.47601 
1 1 6.13328 4.58868 6.19055 
2 1 7.68447 3.08548 7.69388 
3 1 6.96315 3.78483 6.99503 
40 1 10.0378 0.739321 10.0287 
41 1 8.50007 2.26876 8.49581 
42 1 9.20736 1.56234 9.20249 
7 1 6.18909 6.18357 4.64829 
8 1 7.68032 7.67915 3.08938 
9 1 6.9853 6.98123 3.81711 
43 1 10.0252 10.0289 0.742736 
44 1 8.4887 8.48861 2.27128 
45 1 9.19596 9.19753 1.56759 
22 1 6.25631 6.24223 6.28311 
23 1 7.78806 7.78724 7.78506 
24 1 7.07728 7.07095 7.08787 
34 1 10.0991 10.1018 10.1079 
35 1 8.59389 8.59635 8.59179 
36 1 9.30047 9.30301 9.3028 
ITEM: TIMESTEP
80
ITEM: NUMBER OF ATOMS
49
ITEM: BOX BOUNDS pp pp pp
0.0000000000000000e+00 1.1000000000000000e+01
0.0000000000000000e+00 1.1002000000000001e+01
0.0000000000000000e+00 1.1000000000000000e+01
ITEM: ATOMS id type x y z 
10 1 4.63109 4.65298 4.3619 
11 1 2.97789 2.97994 3.20739 
12 1 3.59497 3.6108 4.04476 
46 1 0.715912 0.715022 0.698425 
47 1 2.26531 2.24884 2.21378 
48 1 1.55039 1.54126 1.51845 
49 2 4.75367 4.87544 3.20787 
19 1 4.54892 4.55124 6.24581 
20 1 3.02827 3.02774 7.75805 
21 1 3.7369 3.73559 7.04801 
31 1 0.681794 0.682939 10.056 
32 1 2.20688 2.20672 8.55661 
33 1 1.49416 1.49468 9.25627 
16 1 4.56946 6.35109 4.59755 
17 1 3.01267 7.79766 3.02104 
18 1 3.73394 7.12934 3.75332 
25 1 0.662349 10.0694 0.669201 
26 1 2.18278 8.55991 2.17972 
27 1 1.47458 9.26954 1.47375 
4 1 4.59574 6.13133 6.20543 
5 1 3.08446 7.68215 7.70051 
6 1 3.78766 6.96103 7.00552 
37 1 0.740113 10.0415 10.0291 
38 1 2.26673 8.50142 8.49747 
39 1 1.56097 9.21274 9.20106 
13 1 6.31857 4.5641 4.57867 
14 1 7.7928 3.01461 3.02255 
15 1 7.10986 3.73317 3.74316 
28 1 10.069 0.665091 0.670855 
29 1 8.56277 2.18747 2.18429 
30 1 9.2663 1.47626 1.47506 
1 1 6.13047 4.58386 6.18972 
2 1 7.68349 3.08409 7.69486 
3 1 6.96112 3.78238 6.99582 
40 1 10.0358 0.738148 10.0294 
41 1 8.49684 2.26407 8.49659 
42 1 9.21615 1.56977 9.20403 
7 1 6.18995 6.18476 4.6508 
8 1 7.68217 7.68041 3.09028 
9 1 6.98609 6.98178 3.81644 
43 1 10.0262 10.0303 0.745165 
44 1 8.489 8.48922 2.26899 
45 1 9.19619 9.1976 1.56864 
22 1 6.25263 6.23878 6.28198 
23 1 7.78611 7.78481 7.78518 
24 1 7.07649 7.0699 7.08668 
34 1 10.0984 10.1018 10.1071 
35 1 8.59281 8.5952 8.59128 
36 1 9.30025 9.30303 9.30047 
ITEM: TIMESTEP
90
ITEM: NUMBER OF ATOMS
49
ITEM: BOX BOUNDS pp pp pp
0.0000000000000000e+00 1.1000000000000000e+01
0.0000000000000000e+00 1.1002000000000001e+01
0.0000000000000000e+00 1.1000000000000000e+01
ITEM: ATOMS id type x y z 
10 1 4.63435 4.65736 4.34885 
11 1 2.96689 2.96708 3.23001 
12 1 3.59923 3.61257 4.04441 
46 1 0.717877 0.717645 0.69979 
47 1 2.26437 2.249 2.21863 
48 1 1.55445 1.54578 1.517 
49 2 4.76003 4.87763 3.19933 
19 1 4.54933 4.55041 6.24684 
20 1 3.02725 3.02618 7.75461 
21 1 3.73792 3.73786 7.05013 
31 1 0.683073 0.684214 10.056 
32 1 2.20772 2.20749 8.55607 
33 1 1.49525 1.49585 9.25647 
16 1 4.56825 6.34823 4.59424 
17 1 3.01258 7.80196 3.02255 
18 1 3.73336 7.13033 3.75241 
25 1 0.663548 10.0727 0.668975 
26 1 2.18466 8.56343 2.18014 
27 1 1.471 9.26709 1.47347 
4 1 4.59282 6.12898 6.20448 
5 1 3.08362 7.68164 7.70164 
6 1 3.7859 6.95855 7.00738 
37 1 0.739187 10.043 10.0282 
38 1 2.26605 8.50217 8.49709 
39 1 1.56204 9.21259 9.20306 
13 1 6.31381 4.56327 4.57475 
14 1 7.79565 3.01459 3.0233 
15 1 7.11023 3.73259 3.74252 
28 1 10.0696 0.665219 0.67043 
29 1 8.56414 2.18809 2.18397 
30 1 9.26844 1.47569 1.47675 
1 1 6.12689 4.58101 6.18899 
2 1 7.68199 3.08308 7.696 
3 1 6.95965 3.77945 6.9952 
40 1 10.0377 0.738265 10.0302 
41 1 8.49651 2.26433 8.49707 
42 1 9.21696 1.57139 9.20373 
7 1 6.19082 6.18537 4.65188 
8 1 7.68277 7.68008 3.09036 
9 1 6.98715 6.98343 3.81878 
43 1 10.0275 10.0318 0.745004 
44 1 8.48889 8.48914 2.2681 
45 1 9.19774 9.19939 1.5672 
22 1 6.25097 6.23651 6.27981 
23 1 7.78467 7.78335 7.78369 
24 1 7.07401 7.06649 7.08755 
34 1 10.0986 10.1023 10.1071 
35 1 8.5927 8.59524 8.58937 
36 1 9.29882 9.30119 9.3015 
ITEM: TIMESTEP
100
ITEM: NUMBER OF ATOMS
49
ITEM: BOX BOUNDS pp pp pp
0.0000000000000000e+00 1.1000000000000000e+01
0.0000000000000000e+00 1.1002000000000001e+01
0.0000000000000000e+00 1.1000000000000000e+01
ITEM: ATOMS id type x y z 
10 1 4.63462 4.65813 4.34424 
11 1 2.96448 2.96433 3.23448 
12 1 3.5998 3.61267 4.04431 
46 1 0.718985 0.718847 0.699849 
47 1 2.26395 2.24878 2.22055 
48 1 1.55471 1.54611 1.51737 
49 2 4.76076 4.87755 3.19576 
19 1 4.54966 4.55071 6.24851 
20 1 3.02728 3.0261 7.75382 
21 1 3.73828 3.73846 7.05016 
31 1 0.682845 0.68423 10.0565 
32 1 2.2078 2.20759 8.55578 
33 1 1.49564 1.49621 9.2566 
16 1 4.56844 6.34895 4.59507 
17 1 3.01287 7.80283 3.02333 
18 1 3.73355 7.12971 3.75191 
25 1 0.663099 10.0727 0.66899 
26 1 2.18386 8.56333 2.18046 
27 1 1.47248 9.26898 1.47344 
4 1 4.59224 6.1278 6.20413 
5 1 3.08381 7.68075 7.70242 
6 1 3.78515 6.95874 7.00625 
37 1 0.738663 10.0431 10.0279 
38 1 2.26609 8.50234 8.49725 
39 1 1.56196 9.21259 9.20323 
13 1 6.31465 4.56345 4.57536 
14 1 7.7961 3.01508 3.02355 
15 1 7.10979 3.73244 3.74251 
28 1 10.0703 0.66546 0.670412 
29 1 8.56473 2.18798 2.18433 
30 1 9.26901 1.47594 1.47674 
1 1 6.12608 4.58026 6.18829 
2 1 7.68136 3.08297 7.69588 
3 1 6.95887 3.77886 6.99484 
40 1 10.0395 0.739586 10.03 
41 1 8.49828 2.26635 8.49756 
42 1 9.21411 1.56809 9.20354 
7 1 6.19055 6.18555 4.65191 
8 1 7.68302 7.68019 3.09086 
9 1 6.98703 6.98333 3.8187 
43 1 10.0278 10.032 0.744348 
44 1 8.48888 8.48907 2.26829 
45 1 9.19737 9.19917 1.56706 
22 1 6.25087 6.23619 6.27986 
23 1 7.78438 7.78291 7.78374 
24 1 7.07369 7.06613 7.08742 
34 1 10.0984 10.1021 10.1071 
35 1 8.59259 8.59484 8.5894 
36 1 9.29858 9.3015 9.30094 
ITEM: TIMESTEP
110
ITEM: NUMBER OF ATOMS
49
ITEM: BOX BOUNDS pp pp pp
0.0000000000000000e+00 1.1000000000000000e+01
0.0000000000000000e+00 1.1002000000000001e+01
0.0000000000000000e+00 1.1000000000000000e+01
ITEM: ATOMS id type x y z 
10 1 4.66638 4.69712 4.06386 
11 1 2.87381 2.85608 3.53223 
12 1 3.6529 3.63997 4.01093 
46 1 0.752981 0.749214 0.699267 
47 1 2.23208 2.22798 2.36927 
48 1 1.58881 1.58427 1.559 
49 2 4.81033 4.88041 2.97848 
19 1 4.55276 4.57118 6.32123 
20 1 3.01293 3.02655 7.72381 
21 1 3.76842 3.74028 7.04918 
31 1 0.695379 0.709732 10.0817 
32 1 2.21722 2.21897 8.54154 
33 1 1.51305 1.50998 9.24899 
16 1 4.56269 6.26889 4.55589 
17 1 3.02452 7.83108 3.03764 
18 1 3.73693 7.15695 3.76869 
25 1 0.672045 10.1167 0.664191 
26 1 2.18494 8.59374 2.19432 
27 1 1.48014 9.31353 1.4889 
4 1 4.56217 6.09223 6.17707 
5 1 3.07668 7.66475 7.70916 
6 1 3.75236 6.91891 7.02961 
37 1 0.717064 10.0472 10.0269 
38 1 2.27233 8.5064 8.51461 
39 1 1.55282 9.22193 9.20045 
13 1 6.2366 4.5642 4.54343 
14 1 7.80879 3.02751 3.02785 
15 1 7.13065 3.73861 3.75542 
28 1 10.1146 0.67965 0.656464 
29 1 8.59339 2.18543 2.19447 
30 1 9.31429 1.48876 1.49686 
1 1 6.07072 4.54236 6.16557 
2 1 7.66363 3.06461 7.70043 
3 1 6.93816 3.74492 6.99561 
40 1 10.0802 0.751583 10.0353 
41 1 8.56326 2.31995 8.52584 
42 1 9.10522 1.46803 9.19323 
7 1 6.1831 6.18387 4.66298 
8 1 7.69675 7.67958 3.09426 
9 1 6.99737 7.00533 3.84856 
43 1 10.0315 10.0475 0.721552 
44 1 8.49497 8.49575 2.26487 
45 1 9.19955 9.20321 1.55002 
22 1 6.24407 6.22349 6.26543 
23 1 7.76759 7.75984 7.78173 
24 1 7.05457 7.03838 7.09026 
34 1 10.0894 10.1134 10.1009 
35 1 8.58274 8.581 8.58159 
36 1 9.2841 9.30014 9.2855 
ITEM: TIMESTEP
120
ITEM: NUMBER OF ATOMS
49
ITEM: BOX BOUNDS pp pp pp
0.0000000000000000e+00 1.1000000000000000e+01
0.0000000000000000e+00 1.1002000000000001e+01
0.0000000000000000e+00 1.1000000000000000e+01
ITEM: ATOMS id type x y z 
10 1 4.68453 4.70893 4.0233 
11 1 2.87836 2.85912 3.5055 
12 1 3.65499 3.6461 4.01132 
46 1 0.758815 0.751525 0.707415 
47 1 2.22092 2.21513 2.40534 
48 1 1.59062 1.58749 1.57159 
49 2 4.81421 4.88409 2.93205 
19 1 4.56865 4.57477 6.35501 
20 1 3.00973 3.01476 7.72522 
21 1 3.75854 3.74277 7.06392 
31 1 0.702652 0.708103 10.0839 
32 1 2.21018 2.21035 8.53958 
33 1 1.506 1.51104 9.26235 
16 1 4.54603 6.23995 4.53959 
17 1 3.02348 7.83524 3.04593 
18 1 3.7388 7.15108 3.76518 
25 1 0.671417 10.1306 0.670411 
26 1 2.18537 8.60592 2.19656 
27 1 1.48084 9.30592 1.48052 
4 1 4.56188 6.08545 6.17821 
5 1 3.07153 7.6621 7.7163 
6 1 3.75284 6.92493 7.0202 
37 1 0.724447 10.0552 10.0308 
38 1 2.26659 8.51192 8.51425 
39 1 1.5542 9.22095 9.21089 
13 1 6.21015 4.54605 4.52667 
14 1 7.81276 3.02588 3.03563 
15 1 7.12374 3.73968 3.75103 
28 1 10.1289 0.681969 0.669375 
29 1 8.60163 2.18972 2.1997 
30 1 9.30807 1.48889 1.48625 
1 1 6.07632 4.5417 6.16459 
2 1 7.67429 3.07027 7.70026 
3 1 6.93167 3.74127 6.99898 
40 1 10.0543 0.745539 10.0319 
41 1 8.53806 2.30267 8.519 
42 1 9.13762 1.48795 9.20285 
7 1 6.18804 6.19338 4.66817 
8 1 7.69714 7.68761 3.10123 
9 1 7.00055 6.99936 3.83556 
43 1 10.0368 10.0507 0.728366 
44 1 8.50143 8.49795 2.25604 
45 1 9.20319 9.21031 1.55276 
22 1 6.23593 6.21491 6.26102 
23 1 7.7656 7.75599 7.78629 
24 1 7.05836 7.04246 7.08525 
34 1 10.0897 10.1138 10.0974 
35 1 8.58203 8.58637 8.57958 
36 1 9.28508 9.29308 9.29174 
ITEM: TIMESTEP
130
ITEM: NUMBER OF ATOMS
49
ITEM: BOX BOUNDS pp pp pp
0.0000000000000000e+00 1.1000000000000000e+01
0.0000000000000000e+00 1.1002000000000001e+01
0.0000000000000000e+00 1.1000000000000000e+01
ITEM: ATOMS id type x y z 
10 1 4.70568 4.72912 3.9011 
11 1 2.91799 2.90369 3.46542 
12 1 3.68116 3.67678 4.01049 
46 1 0.760731 0.764088 0.715753 
47 1 2.19121 2.18121 2.45634 
48 1 1.57323 1.56835 1.60061 
49 2 4.81398 4.88688 2.80556 
19 1 4.58956 4.58783 6.45026 
20 1 2.99579 2.9811 7.72576 
21 1 3.74604 3.75481 7.11969 
31 1 0.69338 0.70101 10.1014 
32 1 2.18912 2.19402 8.54455 
33 1 1.48631 1.49953 9.27266 
16 1 4.53844 6.21352 4.53392 
17 1 3.03321 7.8432 3.0582 
18 1 3.72942 7.1233 3.76004 
25 1 0.677868 10.1169 0.675506 
26 1 2.19435 8.59736 2.19616 
27 1 1.49344 9.33091 1.50962 
4 1 4.54905 6.07983 6.16914 
5 1 3.06511 7.64912 7.72045 
6 1 3.75343 6.95049 6.99171 
37 1 0.743494 10.0653 10.0436 
38 1 2.25959 8.50206 8.51437 
39 1 1.57229 9.23118 9.21654 
13 1 6.195 4.53963 4.51285 
14 1 7.82707 3.03097 3.04924 
15 1 7.09612 3.72812 3.73985 
28 1 10.124 0.69004 0.688696 
29 1 8.60189 2.19935 2.20769 
30 1 9.31211 1.50328 1.49173 
1 1 6.07893 4.5355 6.15072 
2 1 7.66886 3.08268 7.70136 
3 1 6.94904 3.75246 6.97745 
40 1 10.0389 0.721112 10.0526 
41 1 8.48422 2.24332 8.51014 
42 1 9.21687 1.56559 9.21697 
7 1 6.17707 6.18185 4.65668 
8 1 7.69873 7.69595 3.11627 
9 1 6.98895 6.98383 3.81049 
43 1 10.0482 10.0591 0.749949 
44 1 8.49746 8.49469 2.25752 
45 1 9.21195 9.2151 1.5705 
22 1 6.23766 6.22614 6.23378 
23 1 7.7584 7.74616 7.78875 
24 1 7.05705 7.04506 7.0679 
34 1 10.0896 10.1003 10.1096 
35 1 8.57502 8.57738 8.59124 
36 1 9.28998 9.30194 9.27422 
ITEM: TIMESTEP
140
ITEM: NUMBER OF ATOMS
49
ITEM: BOX BOUNDS pp pp pp
0.0000000000000000e+00 1.1000000000000000e+01
0.0000000000000000e+00 1.1002000000000001e+01
0.0000000000000000e+00 1.1000000000000000e+01
ITEM: ATOMS id type x y z 
10 1 4.70761 4.73358 3.88691 
11 1 2.91833 2.90453 3.46701 
12 1 3.68628 3.682 4.00044 
46 1 0.757294 0.759948 0.722935 
47 1 2.19373 2.18416 2.46322 
48 1 1.57143 1.56603 1.61459 
49 2 4.81602 4.88704 2.78568 
19 1 4.59533 4.59451 6.45964 
20 1 2.99288 2.98435 7.728 
21 1 3.74967 3.75233 7.1233 
31 1 0.689942 0.700039 10.1018 
32 1 2.1857 2.19107 8.54333 
33 1 1.48664 1.4936 9.2722 
16 1 4.5317 6.21029 4.52829 
17 1 3.03125 7.84161 3.058 
18 1 3.7293 7.12255 3.76006 
25 1 0.678725 10.1264 0.681937 
26 1 2.19932 8.60947 2.20699 
27 1 1.49224 9.31504 1.49833 
4 1 4.55507 6.08603 6.1678 
5 1 3.06534 7.65567 7.71415 
6 1 3.74805 6.94173 6.99597 
37 1 0.738663 10.0602 10.0467 
38 1 2.26327 8.50552 8.51757 
39 1 1.56556 9.22562 9.21779 
13 1 6.19035 4.53505 4.50963 
14 1 7.82607 3.03081 3.05007 
15 1 7.095 3.72831 3.74068 
28 1 10.1239 0.687989 0.686072 
29 1 8.60511 2.20504 2.20673 
30 1 9.31256 1.49808 1.4992 
1 1 6.08252 4.54294 6.15026 
2 1 7.67333 3.07603 7.69676 
3 1 6.9444 3.74884 6.98403 
40 1 10.0387 0.730693 10.0484 
41 1 8.48957 2.25214 8.51074 
42 1 9.20724 1.55823 9.21699 
7 1 6.17725 6.18056 4.64795 
8 1 7.69667 7.69225 3.1068 
9 1 6.99233 6.99101 3.82092 
43 1 10.0501 10.0555 0.747873 
44 1 8.50132 8.4996 2.26153 
45 1 9.2117 9.21327 1.56709 
22 1 6.23589 6.22417 6.23199 
23 1 7.75887 7.74788 7.78666 
24 1 7.05565 7.04374 7.07188 
34 1 10.0965 10.1032 10.1072 
35 1 8.57793 8.58061 8.58419 
36 1 9.28465 9.29175 9.28875 
ITEM: TIMESTEP
150
ITEM: NUMBER OF ATOMS
49
ITEM: BOX BOUNDS pp pp pp
0.0000000000000000e+00 1.1000000000000000e+01
0.0000000000000000e+00 1.1002000000000001e+01
0.0000000000000000e+00 1.1000000000000000e+01
ITEM: ATOMS id type x y z 
10 1 4.71223 4.73832 3.87043 
11 1 2.9194 2.90584 3.46925 
12 1 3.69044 3.68699 3.99198 
46 1 0.755297 0.75907 0.727628 
47 1 2.19158 2.18202 2.46788 
48 1 1.56637 1.56105 1.62377 
49 2 4.81871 4.88767 2.76812 
19 1 4.59799 4.59861 6.46847 
20 1 2.99029 2.98688 7.72886 
21 1 3.75498 3.75157 7.13018 
31 1 0.688239 0.698648 10.1051 
32 1 2.18346 2.18738 8.54141 
33 1 1.48484 1.49144 9.27186 
16 1 4.53201 6.20812 4.52563 
17 1 3.03062 7.84224 3.05903 
18 1 3.72776 7.12092 3.75988 
25 1 0.681301 10.1256 0.684142 
26 1 2.20109 8.61309 2.20852 
27 1 1.49205 9.31656 1.49934 
4 1 4.55402 6.08724 6.16662 
5 1 3.06382 7.65977 7.7085 
6 1 3.74847 6.93757 7.00045 
37 1 0.736119 10.0588 10.0471 
38 1 2.26482 8.50826 8.51775 
39 1 1.56189 9.21994 9.2206 
13 1 6.18781 4.53621 4.50747 
14 1 7.82575 3.0313 3.0509 
15 1 7.09337 3.72773 3.74127 
28 1 10.1236 0.686945 0.687349 
29 1 8.60884 2.20644 2.20866 
30 1 9.31323 1.49787 1.4998 
1 1 6.08303 4.544 6.15137 
2 1 7.67276 3.07299 7.6927 
3 1 6.94273 3.74907 6.984 
40 1 10.04 0.732061 10.0496 
41 1 8.49245 2.25478 8.51125 
42 1 9.20478 1.55607 9.21816 
7 1 6.17684 6.17961 4.64638 
8 1 7.69606 7.69203 3.10607 
9 1 6.99187 6.99086 3.81937 
43 1 10.0493 10.0539 0.745566 
44 1 8.50233 8.50064 2.26377 
45 1 9.2122 9.21338 1.56803 
22 1 6.23702 6.22534 6.2294 
23 1 7.75886 7.74802 7.78713 
24 1 7.0569 7.04596 7.06908 
34 1 10.096 10.1016 10.1067 
35 1 8.57851 8.58149 8.58509 
36 1 9.28495 9.28913 9.29335 
ITEM: TIMESTEP
160
ITEM: NUMBER OF ATOMS
49
ITEM: BOX BOUNDS pp pp pp
0.0000000000000000e+00 1.1000000000000000e+01
0.0000000000000000e+00 1.1002000000000001e+01
0.0000000000000000e+00 1.1000000000000000e+01
ITEM: ATOMS id type x y z 
10 1 4.71409 4.74063 3.8627 
11 1 2.91987 2.90649 3.46992 
12 1 3.69265 3.68968 3.98722 
46 1 0.754486 0.758314 0.729478 
47 1 2.19053 2.18104 2.47107 
48 1 1.56411 1.55885 1.62877 
49 2 4.82044 4.8883 2.75935 
19 1 4.6 4.59986 6.47324 
20 1 2.9902 2.98688 7.73018 
21 1 3.75501 3.75234 7.13304 
31 1 0.687676 0.698051 10.1062 
32 1 2.18201 2.18573 8.5404 
33 1 1.48391 1.49039 9.27196 
16 1 4.53175 6.20704 4.52446 
17 1 3.03045 7.84234 3.05988 
18 1 3.72734 7.11989 3.75991 
25 1 0.681241 10.1253 0.684575 
26 1 2.20166 8.61427 2.2099 
27 1 1.49355 9.31773 1.49981 
4 1 4.55416 6.08715 6.16697 
5 1 3.06347 7.66042 7.70737 
6 1 3.74814 6.93823 6.99943 
37 1 0.734946 10.0572 10.0479 
38 1 2.26472 8.50793 8.51801 
39 1 1.56174 9.21984 9.221 
13 1 6.18673 4.53631 4.50655 
14 1 7.82571 3.03131 3.0514 
15 1 7.0927 3.72766 3.74131 
28 1 10.1227 0.686313 0.687596 
29 1 8.60988 2.20702 2.20976 
30 1 9.31438 1.49868 1.50076 
1 1 6.08365 4.54516 6.15133 
2 1 7.67265 3.07155 7.69119 
3 1 6.94257 3.74844 6.98376 
40 1 10.0404 0.732727 10.0502 
41 1 8.49335 2.25574 8.51133 
42 1 9.20419 1.55565 9.21852 
7 1 6.17625 6.1791 4.64534 
8 1 7.69577 7.69187 3.10534 
9 1 6.99169 6.99089 3.8193 
43 1 10.049 10.0531 0.745524 
44 1 8.5029 8.50124 2.26514 
45 1 9.21227 9.21325 1.56798 
22 1 6.23722 6.22617 6.22827 
23 1 7.75877 7.74824 7.78667 
24 1 7.05726 7.04644 7.06816 
34 1 10.0959 10.1009 10.1071 
35 1 8.57825 8.58073 8.58583 
36 1 9.28467 9.28852 9.29393 
ITEM: TIMESTEP
170
ITEM: NUMBER OF ATOMS
49
ITEM: BOX BOUNDS pp pp pp
0.0000000000000000e+00 1.1000000000000000e+01
0.0000000000000000e+00 1.1002000000000001e+01
0.0000000000000000e+00 1.1000000000000000e+01
ITEM: ATOMS id type x y z 
10 1 4.72543 4.75294 3.81817 
11 1 2.92276 2.91061 3.47255 
12 1 3.70538 3.70509 3.95704 
46 1 0.751088 0.755104 0.739671 
47 1 2.18195 2.1734 2.49131 
48 1 1.54987 1.54479 1.65735 
49 2 4.83293 4.89369 2.70985 
19 1 4.61042 4.6075 6.50022 
20 1 2.99011 2.98555 7.7387 
21 1 3.75341 3.75901 7.15048 
31 1 0.684322 0.694185 10.1134 
32 1 2.1736 2.1757 8.53528 
33 1 1.47794 1.48392 9.27228 
16 1 4.52972 6.2003 4.51923 
17 1 3.02975 7.84332 3.06515 
18 1 3.72458 7.11406 3.76042 
25 1 0.683139 10.1248 0.687432 
26 1 2.20714 8.62294 2.21755 
27 1 1.49816 9.3223 1.50429 
4 1 4.55466 6.08666 6.16576 
5 1 3.06159 7.66594 7.69909 
6 1 3.74606 6.9392 6.99563 
37 1 0.730753 10.0517 10.0515 
38 1 2.26439 8.5071 8.51893 
39 1 1.56045 9.21677 9.22292 
13 1 6.18044 4.53643 4.50104 
14 1 7.82574 3.0319 3.05523 
15 1 7.08847 3.72735 3.74156 
28 1 10.1195 0.68498 0.689435 
29 1 8.61777 2.21191 2.21714 
30 1 9.31721 1.50086 1.50596 
1 1 6.08681 4.54948 6.15045 
2 1 7.67069 3.06294 7.68424 
3 1 6.94468 3.74536 6.97803 
40 1 10.0414 0.733924 10.0541 
41 1 8.49637 2.25768 8.51187 
42 1 9.20611 1.55817 9.22037 
7 1 6.17327 6.17634 4.63881 
8 1 7.69469 7.69194 3.10423 
9 1 6.98892 6.98888 3.81477 
43 1 10.0482 10.0508 0.74646 
44 1 8.50649 8.50489 2.27437 
45 1 9.21065 9.2105 1.5658 
22 1 6.23766 6.23051 6.22243 