ITEM: TIMESTEP
0
ITEM: NUMBER OF ATOMS
33
ITEM: BOX BOUNDS pp pp pp
0.0000000000000000e+00 7.0970000000000004e+00
0.0000000000000000e+00 7.0970000000000004e+00
0.0000000000000000e+00 2.4588000000000001e+01
ITEM: ATOMS id type x y z 
2 1 3.339 1.632 13.319 
5 1 4.651 1.581 18.133 
7 1 3.391 1.602 15.981 
8 1 2.166 1.581 18.134 
18 1 3.408 1.581 17.416 
21 1 3.338 2.875 12.602 
23 1 3.367 1.619 14.753 
24 1 3.338 0.39 12.601 
17 1 7.023 2.875 24.28 
19 1 6.997 1.619 22.129 
20 1 7.023 0.39 24.281 
22 1 6.957 1.581 19.466 
25 1 5.714 1.581 18.748 
27 1 6.974 1.602 20.9 
28 1 1.102 1.581 18.748 
30 1 7.024 1.631 23.563 
10 1 6.954 5.232 5.122 
13 1 7.023 3.938 0.307 
15 1 6.994 5.194 2.459 
16 1 7.023 6.423 0.307 
26 1 7.022 5.181 1.025 
29 1 5.711 5.232 5.839 
31 1 6.97 5.211 3.688 
32 1 1.098 5.232 5.84 
1 1 4.647 5.232 6.454 
3 1 3.388 5.211 8.606 
4 1 2.163 5.232 6.454 
6 1 3.338 5.182 11.269 
9 1 3.338 3.939 11.986 
11 1 3.365 5.194 9.834 
12 1 3.338 6.423 11.987 
14 1 3.404 5.232 7.171 
33 2 3.177 4.191 13.313 
ITEM: TIMESTEP
10
ITEM: NUMBER OF ATOMS
33
ITEM: BOX BOUNDS pp pp pp
0.0000000000000000e+00 7.0970000000000004e+00
0.0000000000000000e+00 7.0970000000000004e+00
0.0000000000000000e+00 2.4588000000000001e+01
ITEM: ATOMS id type x y z 
2 1 3.34079 1.62355 13.3104 
5 1 4.6505 1.58111 18.1327 
7 1 3.3905 1.60174 15.9762 
8 1 2.16656 1.58119 18.1337 
18 1 3.40765 1.5811 17.4174 
21 1 3.32879 2.89421 12.6691 
23 1 3.36718 1.61869 14.7494 
24 1 3.33926 0.394301 12.6018 
17 1 7.02341 2.87518 24.2793 
19 1 6.99672 1.61908 22.1286 
20 1 7.02349 0.390407 24.2818 
22 1 6.95725 1.58114 19.4656 
25 1 5.71408 1.58111 18.7482 
27 1 6.97399 1.60177 20.9003 
28 1 1.10204 1.58107 18.7479 
30 1 7.02342 1.63126 23.5629 
10 1 6.95402 5.23185 5.1219 
13 1 7.02273 3.93768 0.307872 
15 1 6.99376 5.19385 2.45929 
16 1 7.02275 6.42223 0.306273 
26 1 7.0218 5.18133 1.02491 
29 1 5.71077 5.23205 5.83886 
31 1 6.97014 5.21119 3.68755 
32 1 1.09809 5.23196 5.83997 
1 1 4.64754 5.23156 6.45409 
3 1 3.38799 5.21134 8.60463 
4 1 2.16244 5.23192 6.45377 
6 1 3.33872 5.19577 11.2574 
9 1 3.34286 3.93335 11.9226 
11 1 3.3656 5.19647 9.83357 
12 1 3.33783 6.42609 11.9873 
14 1 3.40406 5.23168 7.17367 
33 2 3.17827 4.16279 13.336 
ITEM: TIMESTEP
20
ITEM: NUMBER OF ATOMS
33
ITEM: BOX BOUNDS pp pp pp
0.0000000000000000e+00 7.0970000000000004e+00
0.0000000000000000e+00 7.0970000000000004e+00
0.0000000000000000e+00 2.4588000000000001e+01
ITEM: ATOMS id type x y z 
2 1 3.34228 1.61753 13.3194 
5 1 4.65065 1.58147 18.1326 
7 1 3.39014 1.60113 15.9795 
8 1 2.16726 1.58108 18.1351 
18 1 3.40727 1.58184 17.4148 
21 1 3.32577 2.9039 12.6836 
23 1 3.36759 1.61504 14.7503 
24 1 3.33958 0.394254 12.6006 
17 1 7.02318 2.87505 24.2795 
19 1 6.99665 1.61899 22.1283 
20 1 7.02332 0.390338 24.2816 
22 1 6.95749 1.58159 19.4654 
25 1 5.71368 1.58145 18.7481 
27 1 6.97389 1.60181 20.9002 
28 1 1.10166 1.58035 18.7467 
30 1 7.02348 1.63153 23.563 
10 1 6.95413 5.23166 5.1216 
13 1 7.02253 3.93779 0.307754 
15 1 6.99377 5.19384 2.45918 
16 1 7.0226 6.42239 0.306415 
26 1 7.0218 5.18105 1.02484 
29 1 5.71058 5.23246 5.83783 
31 1 6.97015 5.2112 3.68737 
32 1 1.09765 5.23163 5.83991 
1 1 4.64839 5.23144 6.45462 
3 1 3.38854 5.21284 8.5994 
4 1 2.16212 5.23155 6.45334 
6 1 3.33934 5.18904 11.2624 
9 1 3.34003 3.92884 11.9168 
11 1 3.36618 5.19882 9.8279 
12 1 3.33825 6.42467 11.9848 
14 1 3.40397 5.23103 7.16851 
33 2 3.18108 4.1724 13.3337 
ITEM: TIMESTEP
30
ITEM: NUMBER OF ATOMS
33
ITEM: BOX BOUNDS pp pp pp
0.0000000000000000e+00 7.0970000000000004e+00
0.0000000000000000e+00 7.0970000000000004e+00
0.0000000000000000e+00 2.4588000000000001e+01
ITEM: ATOMS id type x y z 
2 1 3.34436 1.61015 13.3271 
5 1 4.65116 1.58251 18.1322 
7 1 3.38978 1.59612 15.9813 
8 1 2.16654 1.5816 18.1346 
18 1 3.40731 1.58359 17.4134 
21 1 3.31883 2.9185 12.7144 
23 1 3.36856 1.60513 14.7508 
24 1 3.34176 0.390046 12.5962 
17 1 7.02279 2.87472 24.2797 
19 1 6.9965 1.61915 22.128 
20 1 7.02312 0.390433 24.2813 
22 1 6.95728 1.58071 19.4655 
25 1 5.71384 1.58158 18.7482 
27 1 6.97369 1.60153 20.8997 
28 1 1.10135 1.58223 18.7467 
30 1 7.02316 1.63162 23.5625 
10 1 6.95387 5.23253 5.1201 
13 1 7.02226 3.93775 0.307414 
15 1 6.99376 5.19358 2.45789 
16 1 7.02217 6.42269 0.306362 
26 1 7.02148 5.18101 1.02411 
29 1 5.71253 5.23004 5.83648 
31 1 6.97023 5.21142 3.686 
32 1 1.09597 5.2316 5.83859 
1 1 4.64936 5.23227 6.45238 
3 1 3.38969 5.21607 8.59921 
4 1 2.16045 5.2302 6.45245 
6 1 3.34011 5.1785 11.2623 
9 1 3.33295 3.91331 11.912 
11 1 3.36701 5.20333 9.82804 
12 1 3.34026 6.41992 11.9806 
14 1 3.40464 5.23051 7.16228 
33 2 3.18822 4.20564 13.3269 
ITEM: TIMESTEP
40
ITEM: NUMBER OF ATOMS
33
ITEM: BOX BOUNDS pp pp pp
0.0000000000000000e+00 7.0970000000000004e+00
0.0000000000000000e+00 7.0970000000000004e+00
0.0000000000000000e+00 2.4588000000000001e+01
ITEM: ATOMS id type x y z 
2 1 3.34467 1.60947 13.3254 
5 1 4.65118 1.58278 18.1321 
7 1 3.38983 1.59437 15.9809 
8 1 2.16646 1.58218 18.1344 
18 1 3.40722 1.58408 17.4133 
21 1 3.31702 2.92132 12.7212 
23 1 3.36887 1.60188 14.7505 
24 1 3.3421 0.388357 12.5947 
17 1 7.02267 2.87448 24.2797 
19 1 6.99638 1.61904 22.128 
20 1 7.02283 0.390532 24.2811 
22 1 6.95729 1.58082 19.4656 
25 1 5.71375 1.58178 18.7481 
27 1 6.97369 1.60169 20.8998 
28 1 1.10133 1.58175 18.7466 
30 1 7.02319 1.63166 23.5624 
10 1 6.95409 5.23186 5.11988 
13 1 7.02216 3.93773 0.30713 
15 1 6.99369 5.19374 2.45743 
16 1 7.02223 6.42284 0.306279 
26 1 7.0214 5.18099 1.02357 
29 1 5.71152 5.23128 5.83568 
31 1 6.97029 5.2111 3.68561 
32 1 1.09639 5.23135 5.83894 
1 1 4.64908 5.23141 6.45257 
3 1 3.38978 5.21628 8.59996 
4 1 2.16135 5.23081 6.45189 
6 1 3.34006 5.17761 11.2625 
9 1 3.33155 3.91154 11.9127 
11 1 3.36736 5.2035 9.82867 
12 1 3.34083 6.41851 11.9797 
14 1 3.40439 5.23044 7.16504 
33 2 3.19033 4.21278 13.3234 
ITEM: TIMESTEP
50
ITEM: NUMBER OF ATOMS
33
ITEM: BOX BOUNDS pp pp pp
0.0000000000000000e+00 7.0970000000000004e+00
0.0000000000000000e+00 7.0970000000000004e+00
0.0000000000000000e+00 2.4588000000000001e+01
ITEM: ATOMS id type x y z 
2 1 3.34548 1.60778 13.3242 
5 1 4.6511 1.58329 18.1316 
7 1 3.39005 1.59054 15.9794 
8 1 2.16651 1.58316 18.1342 
18 1 3.40708 1.58484 17.4126 
21 1 3.31317 2.92729 12.7353 
23 1 3.36927 1.59466 14.749 
24 1 3.34321 0.386564 12.5928 
17 1 7.02252 2.87429 24.2796 
19 1 6.99627 1.61912 22.1279 
20 1 7.02232 0.390665 24.2808 
22 1 6.95727 1.58095 19.4655 
25 1 5.71352 1.58214 18.7479 
27 1 6.97358 1.60156 20.8996 
28 1 1.10126 1.58164 18.7462 
30 1 7.02316 1.63161 23.5622 
10 1 6.95411 5.23127 5.11938 
13 1 7.02197 3.93771 0.306684 
15 1 6.99372 5.19364 2.45695 
16 1 7.02184 6.4229 0.305859 
26 1 7.02132 5.18111 1.02307 
29 1 5.71047 5.23103 5.83504 
31 1 6.97034 5.21108 3.68519 
32 1 1.09712 5.23147 5.83892 
1 1 4.64845 5.23119 6.45245 
3 1 3.39009 5.21647 8.60195 
4 1 2.1624 5.23124 6.45115 
6 1 3.34054 5.1745 11.2631 
9 1 3.32879 3.90602 11.9129 
11 1 3.36783 5.20367 9.83085 
12 1 3.34104 6.41728 11.9769 
14 1 3.40437 5.23087 7.16755 
33 2 3.19485 4.22847 13.3183 
ITEM: TIMESTEP
60
ITEM: NUMBER OF ATOMS
33
ITEM: BOX BOUNDS pp pp pp
0.0000000000000000e+00 7.0970000000000004e+00
0.0000000000000000e+00 7.0970000000000004e+00
0.0000000000000000e+00 2.4588000000000001e+01
ITEM: ATOMS id type x y z 
2 1 3.34558 1.60731 13.3244 
5 1 4.65097 1.5834 18.1315 
7 1 3.39003 1.58938 15.9792 
8 1 2.16633 1.58322 18.1337 
18 1 3.40716 1.58495 17.4121 
21 1 3.31215 2.92901 12.7388 
23 1 3.36946 1.59248 14.7486 
24 1 3.34324 0.386565 12.5919 
17 1 7.02239 2.87428 24.2796 
19 1 6.99619 1.61907 22.1277 
20 1 7.02245 0.390571 24.2806 
22 1 6.95716 1.58093 19.4652 
25 1 5.71344 1.58223 18.7478 
27 1 6.97358 1.60164 20.8995 
28 1 1.10155 1.58186 18.7465 
30 1 7.02293 1.63164 23.5621 
10 1 6.95395 5.23122 5.11933 
13 1 7.02186 3.93777 0.306578 
15 1 6.99363 5.19375 2.45697 
16 1 7.02195 6.42297 0.30593 
26 1 7.02112 5.18106 1.02294 
29 1 5.71062 5.23111 5.8354 
31 1 6.97042 5.21083 3.68522 
32 1 1.09735 5.23133 5.83868 
1 1 4.64812 5.23118 6.452 
3 1 3.39021 5.21666 8.6023 
4 1 2.16238 5.23122 6.45127 
6 1 3.34042 5.17358 11.2635 
9 1 3.32806 3.9041 11.9128 
11 1 3.36791 5.2034 9.83139 
12 1 3.34165 6.41694 11.9762 
14 1 3.40454 5.23106 7.16787 
33 2 3.19621 4.23327 13.3177 
ITEM: TIMESTEP
70
ITEM: NUMBER OF ATOMS
33
ITEM: BOX BOUNDS pp pp pp
0.0000000000000000e+00 7.0970000000000004e+00
0.0000000000000000e+00 7.0970000000000004e+00
0.0000000000000000e+00 2.4588000000000001e+01
ITEM: ATOMS id type x y z 
2 1 3.34641 1.60597 13.3246 
5 1 4.65066 1.58382 18.1308 
7 1 3.39023 1.58424 15.9779 
8 1 2.16568 1.58345 18.1316 
18 1 3.40717 1.58519 17.4102 
21 1 3.30802 2.93592 12.7529 
23 1 3.36988 1.58304 14.7472 
24 1 3.34112 0.386949 12.5873 
17 1 7.02216 2.87411 24.2796 
19 1 6.99612 1.61903 22.127 
20 1 7.02237 0.390327 24.2797 
22 1 6.95699 1.58094 19.4644 
25 1 5.71309 1.58252 18.747 
27 1 6.97329 1.60174 20.8987 
28 1 1.10255 1.58313 18.7471 
30 1 7.02212 1.63169 23.5615 
10 1 6.9539 5.23046 5.1195 
13 1 7.02192 3.93794 0.305958 
15 1 6.99365 5.19371 2.45695 
16 1 7.02158 6.42326 0.306 
26 1 7.02034 5.18105 1.02284 
29 1 5.71079 5.23129 5.83653 
31 1 6.97037 5.21053 3.68523 
32 1 1.09835 5.23093 5.83794 
1 1 4.64701 5.23124 6.45083 
3 1 3.39062 5.21662 8.60382 
4 1 2.16252 5.23147 6.45186 
6 1 3.33856 5.17043 11.2641 
9 1 3.32506 3.8963 11.9126 
11 1 3.36862 5.20237 9.8332 
12 1 3.34701 6.41539 11.975 
14 1 3.40467 5.232 7.1695 
33 2 3.20217 4.25295 13.3155 
ITEM: TIMESTEP
80
ITEM: NUMBER OF ATOMS
33
ITEM: BOX BOUNDS pp pp pp
0.0000000000000000e+00 7.0970000000000004e+00
0.0000000000000000e+00 7.0970000000000004e+00
0.0000000000000000e+00 2.4588000000000001e+01
ITEM: ATOMS id type x y z 
2 1 3.34585 1.60576 13.3245 
5 1 4.65065 1.58377 18.1307 
7 1 3.39026 1.58361 15.9778 
8 1 2.16572 1.58372 18.1316 
18 1 3.40709 1.58521 17.41 
21 1 3.30756 2.93756 12.7556 
23 1 3.36995 1.58213 14.747 
24 1 3.34377 0.386576 12.5869 
17 1 7.022 2.87409 24.2796 
19 1 6.99593 1.61904 22.1269 
20 1 7.022 0.390476 24.2799 
22 1 6.957 1.58128 19.4643 
25 1 5.71305 1.58255 18.7469 
27 1 6.97334 1.60175 20.8986 
28 1 1.10259 1.58272 18.7471 
30 1 7.02261 1.63166 23.5613 
10 1 6.954 5.23041 5.11959 
13 1 7.02147 3.9378 0.306116 
15 1 6.9935 5.19368 2.457 
16 1 7.02148 6.42318 0.305817 
26 1 7.02081 5.18117 1.02275 
29 1 5.71069 5.23097 5.83638 
31 1 6.97042 5.2105 3.68525 
32 1 1.09838 5.23103 5.83794 
1 1 4.64704 5.23152 6.45099 
3 1 3.3909 5.21655 8.60444 
4 1 2.16256 5.23148 6.45193 
6 1 3.34016 5.17015 11.2644 
9 1 3.3246 3.89748 11.9131 
11 1 3.36822 5.20221 9.83357 
12 1 3.3437 6.41542 11.9743 
14 1 3.4046 5.23202 7.16971 
33 2 3.20309 4.25253 13.3132 
ITEM: TIMESTEP
90
ITEM: NUMBER OF ATOMS
33
ITEM: BOX BOUNDS pp pp pp
0.0000000000000000e+00 7.0970000000000004e+00
0.0000000000000000e+00 7.0970000000000004e+00
0.0000000000000000e+00 2.4588000000000001e+01
ITEM: ATOMS id type x y z 
2 1 3.34581 1.6058 13.3243 
5 1 4.65065 1.5838 18.1305 
7 1 3.39032 1.58288 15.9776 
8 1 2.16577 1.58375 18.1315 
18 1 3.40706 1.58513 17.4098 
21 1 3.30715 2.93833 12.7571 
23 1 3.36996 1.58086 14.7467 
24 1 3.34484 0.386678 12.5865 
17 1 7.0219 2.8742 24.2793 
19 1 6.99587 1.61903 22.1268 
20 1 7.02205 0.390469 24.2798 
22 1 6.95709 1.58141 19.4644 
25 1 5.713 1.58264 18.7468 
27 1 6.9733 1.60181 20.8985 
28 1 1.1025 1.5827 18.7468 
30 1 7.02251 1.6316 23.5613 
10 1 6.95407 5.23027 5.11965 
13 1 7.02142 3.93776 0.306149 
15 1 6.99348 5.19368 2.45704 
16 1 7.0214 6.42319 0.305751 
26 1 7.02074 5.18116 1.02282 
29 1 5.71057 5.23099 5.83632 
31 1 6.9704 5.21044 3.68529 
32 1 1.09847 5.23101 5.83796 
1 1 4.64708 5.23154 6.45117 
3 1 3.39091 5.21652 8.60465 
4 1 2.16262 5.23152 6.45203 
6 1 3.34097 5.16986 11.2647 
9 1 3.32424 3.89689 11.9132 
11 1 3.36838 5.20192 9.83381 
12 1 3.34197 6.41551 11.9739 
14 1 3.40456 5.23216 7.16993 
33 2 3.20396 4.25448 13.313 
ITEM: TIMESTEP
100
ITEM: NUMBER OF ATOMS
33
ITEM: BOX BOUNDS pp pp pp
0.0000000000000000e+00 7.0970000000000004e+00
0.0000000000000000e+00 7.0970000000000004e+00
0.0000000000000000e+00 2.4588000000000001e+01
ITEM: ATOMS id type x y z 
2 1 3.34585 1.60566 13.3238 
5 1 4.6509 1.58406 18.1294 
7 1 3.39046 1.57885 15.9764 
8 1 2.16587 1.58374 18.1309 
18 1 3.40693 1.58449 17.4087 
21 1 3.30502 2.94284 12.7652 
23 1 3.37022 1.57421 14.7455 
24 1 3.34403 0.38776 12.5832 
17 1 7.0222 2.87496 24.278 
19 1 6.99541 1.61896 22.1265 
20 1 7.02191 0.39054 24.2799 
22 1 6.95718 1.58216 19.4639 
25 1 5.7128 1.58276 18.7464 
27 1 6.97323 1.60209 20.8981 
28 1 1.10217 1.58304 18.7454 
30 1 7.02169 1.63146 23.561 
10 1 6.95433 5.22982 5.11992 
13 1 7.02135 3.93746 0.306625 
15 1 6.99324 5.19364 2.45735 
16 1 7.02102 6.42262 0.304748 
26 1 7.02006 5.18137 1.02308 
29 1 5.70995 5.23035 5.83598 
31 1 6.97039 5.21013 3.68562 
32 1 1.09877 5.23112 5.83833 
1 1 4.64741 5.23144 6.45236 
3 1 3.39124 5.21616 8.60581 
4 1 2.16289 5.23204 6.45242 
6 1 3.34072 5.16858 11.2653 
9 1 3.3224 3.89474 11.9143 
11 1 3.36867 5.20044 9.8351 
12 1 3.34346 6.41536 11.9729 
14 1 3.40444 5.2331 7.17116 
33 2 3.2088 4.26404 13.3117 
ITEM: TIMESTEP
110
ITEM: NUMBER OF ATOMS
33
ITEM: BOX BOUNDS pp pp pp
0.0000000000000000e+00 7.0970000000000004e+00
0.0000000000000000e+00 7.0970000000000004e+00
0.0000000000000000e+00 2.4588000000000001e+01
ITEM: ATOMS id type x y z 
2 1 3.34548 1.60586 13.3236 
5 1 4.65084 1.5835 18.1288 
7 1 3.39054 1.57624 15.9759 
8 1 2.16557 1.58355 18.13 
18 1 3.40722 1.58388 17.4077 
21 1 3.30401 2.94546 12.7698 
23 1 3.37033 1.57019 14.7448 
24 1 3.34389 0.38867 12.5813 
17 1 7.02107 2.87461 24.2784 
19 1 6.99574 1.61888 22.126 
20 1 7.02127 0.390185 24.2792 
22 1 6.95693 1.58293 19.4634 
25 1 5.7128 1.58316 18.7457 
27 1 6.97285 1.60235 20.8977 
28 1 1.10239 1.58314 18.7452 
30 1 7.0222 1.63192 23.5606 
10 1 6.95407 5.22899 5.12014 
13 1 7.02048 3.93776 0.306013 
15 1 6.99329 5.19367 2.45749 
16 1 7.02087 6.42301 0.305169 
26 1 7.02053 5.1809 1.02301 
29 1 5.71014 5.23132 5.83662 
31 1 6.9703 5.2099 3.68578 
32 1 1.09894 5.23042 5.83873 
1 1 4.64717 5.2323 6.45234 
3 1 3.3913 5.21565 8.60652 
4 1 2.163 5.23173 6.4528 
6 1 3.34061 5.16813 11.2659 
9 1 3.32146 3.89403 11.9152 
11 1 3.36896 5.19951 9.83582 
12 1 3.34376 6.4159 11.9716 
14 1 3.40486 5.23342 7.17214 
33 2 3.21215 4.26885 13.3118 
ITEM: TIMESTEP
120
ITEM: NUMBER OF ATOMS
33
ITEM: BOX BOUNDS pp pp pp
0.0000000000000000e+00 7.0970000000000004e+00
0.0000000000000000e+00 7.0970000000000004e+00
0.0000000000000000e+00 2.4588000000000001e+01
ITEM: ATOMS id type x y z 
2 1 3.34533 1.6059 13.3235 
5 1 4.65086 1.58334 18.1286 
7 1 3.39061 1.5755 15.9756 
8 1 2.16557 1.5834 18.1297 
18 1 3.40713 1.5836 17.4075 
21 1 3.30381 2.94605 12.7709 
23 1 3.37031 1.56922 14.7446 
24 1 3.34426 0.388961 12.5809 
17 1 7.02121 2.87465 24.2783 
19 1 6.99536 1.6189 22.1259 
20 1 7.02128 0.390236 24.2792 
22 1 6.95697 1.58307 19.4633 
25 1 5.71279 1.58329 18.7456 
27 1 6.973 1.60245 20.8975 
28 1 1.10238 1.58331 18.745 
30 1 7.02191 1.63174 23.5605 
10 1 6.95416 5.22903 5.12029 
13 1 7.02079 3.93772 0.306001 
15 1 6.99312 5.19362 2.45753 
16 1 7.02088 6.42297 0.305074 
26 1 7.02011 5.18105 1.02307 
29 1 5.71011 5.23078 5.83667 
31 1 6.97037 5.20984 3.68581 
32 1 1.09903 5.23064 5.83876 
1 1 4.64719 5.23213 6.45246 
3 1 3.39144 5.21564 8.60674 
4 1 2.16299 5.23204 6.45302 
6 1 3.34098 5.16806 11.266 
9 1 3.32123 3.89394 11.9156 
11 1 3.36884 5.19918 9.83605 
12 1 3.3431 6.41619 11.9712 
14 1 3.40481 5.23358 7.17219 
33 2 3.21307 4.26996 13.3119 
ITEM: TIMESTEP
130
ITEM: NUMBER OF ATOMS
33
ITEM: BOX BOUNDS pp pp pp
0.0000000000000000e+00 7.0970000000000004e+00
0.0000000000000000e+00 7.0970000000000004e+00
0.0000000000000000e+00 2.4588000000000001e+01
ITEM: ATOMS id type x y z 
2 1 3.34315 1.60694 13.3222 
5 1 4.65152 1.58121 18.1252 
7 1 3.39156 1.56315 15.9727 
8 1 2.16555 1.58144 18.1271 
18 1 3.40642 1.57791 17.4045 
21 1 3.30057 2.95667 12.7888 
23 1 3.37024 1.55227 14.7416 
24 1 3.34399 0.395063 12.5706 
17 1 7.02041 2.87457 24.2781 
19 1 6.99444 1.61923 22.1241 
20 1 7.02006 0.390144 24.2783 
22 1 6.95771 1.58679 19.4614 
25 1 5.71276 1.58418 18.7429 
27 1 6.97246 1.60445 20.8958 
28 1 1.10115 1.58498 18.7403 
30 1 7.01994 1.63049 23.559 
10 1 6.95504 5.22727 5.12163 
13 1 7.01962 3.93798 0.304574 
15 1 6.99264 5.19288 2.4584 
16 1 7.01941 6.42256 0.304204 
26 1 7.01843 5.18236 1.02369 
29 1 5.71006 5.229 5.83804 
31 1 6.97017 5.20866 3.68681 
32 1 1.10003 5.23078 5.83917 
1 1 4.64834 5.23228 6.45566 
3 1 3.39244 5.21407 8.60923 
4 1 2.16247 5.23367 6.45643 
6 1 3.34179 5.16778 11.2674 
9 1 3.31762 3.89366 11.9221 
11 1 3.36909 5.19419 9.83848 
12 1 3.34184 6.41859 11.9672 
14 1 3.40447 5.23588 7.17461 
33 2 3.22961 4.28891 13.3149 
ITEM: TIMESTEP
140
ITEM: NUMBER OF ATOMS
33
ITEM: BOX BOUNDS pp pp pp
0.0000000000000000e+00 7.0970000000000004e+00
0.0000000000000000e+00 7.0970000000000004e+00
0.0000000000000000e+00 2.4588000000000001e+01
ITEM: ATOMS id type x y z 
2 1 3.34284 1.60724 13.322 
5 1 4.65145 1.58097 18.125 
7 1 3.39151 1.56205 15.9725 
8 1 2.1653 1.58138 18.1265 
18 1 3.40689 1.57725 17.4042 
21 1 3.30064 2.95748 12.7895 
23 1 3.37026 1.55152 14.7414 
24 1 3.34335 0.395329 12.5703 
17 1 7.0197 2.87453 24.2781 
19 1 6.9944 1.61923 22.124 
20 1 7.01983 0.389917 24.2781 
22 1 6.95726 1.58768 19.4609 
25 1 5.71289 1.58409 18.7427 
27 1 6.97249 1.60469 20.8957 
28 1 1.10128 1.58436 18.7404 
30 1 7.02021 1.63096 23.559 
10 1 6.95488 5.22696 5.12148 
13 1 7.01926 3.93815 0.304526 
15 1 6.99241 5.19296 2.45846 
16 1 7.01939 6.42277 0.304417 
26 1 7.01866 5.1817 1.02345 
29 1 5.71021 5.22964 5.83835 
31 1 6.97029 5.20846 3.68676 
32 1 1.09989 5.23051 5.83975 
1 1 4.6483 5.23248 6.45566 
3 1 3.39245 5.21381 8.60932 
4 1 2.16261 5.23316 6.45622 
6 1 3.34141 5.16763 11.2678 
9 1 3.31756 3.89417 11.9228 
11 1 3.36901 5.19404 9.83878 
12 1 3.34257 6.41938 11.9662 
14 1 3.40479 5.23612 7.17517 
33 2 3.231 4.28941 13.3156 
ITEM: TIMESTEP
150
ITEM: NUMBER OF ATOMS
33
ITEM: BOX BOUNDS pp pp pp
0.0000000000000000e+00 7.0970000000000004e+00
0.0000000000000000e+00 7.0970000000000004e+00
0.0000000000000000e+00 2.4588000000000001e+01
ITEM: ATOMS id type x y z 
2 1 3.34251 1.60756 13.322 
5 1 4.6513 1.58065 18.125 
7 1 3.3916 1.56169 15.9724 
8 1 2.16499 1.58075 18.1259 
18 1 3.40721 1.57642 17.404 
21 1 3.30099 2.95757 12.7895 
23 1 3.37016 1.55135 14.7413 
24 1 3.34317 0.395703 12.5703 
17 1 7.01953 2.87474 24.2775 
19 1 6.99437 1.61925 22.1239 
20 1 7.01969 0.389739 24.2778 
22 1 6.95688 1.58821 19.4607 
25 1 5.71299 1.5842 18.7424 
27 1 6.97253 1.60499 20.8956 
28 1 1.10163 1.58421 18.7408 
30 1 7.02013 1.63139 23.5592 
10 1 6.95468 5.22674 5.12143 
13 1 7.01907 3.93787 0.305003 
15 1 6.99246 5.19293 2.45831 
16 1 7.01922 6.42295 0.304672 
26 1 7.01858 5.18124 1.02319 
29 1 5.71047 5.23018 5.83871 
31 1 6.97026 5.20843 3.6866 
32 1 1.09967 5.23 5.84036 
1 1 4.64818 5.23292 6.45547 
3 1 3.39235 5.21372 8.60944 
4 1 2.16284 5.23278 6.45596 
6 1 3.34134 5.16772 11.2679 
9 1 3.31773 3.89488 11.9234 
11 1 3.36899 5.19399 9.83887 
12 1 3.34239 6.42019 11.9655 
14 1 3.40513 5.23601 7.17536 
33 2 3.23198 4.28902 13.3167 
ITEM: TIMESTEP
160
ITEM: NUMBER OF ATOMS
33
ITEM: BOX BOUNDS pp pp pp
0.0000000000000000e+00 7.0970000000000004e+00
0.0000000000000000e+00 7.0970000000000004e+00
0.0000000000000000e+00 2.4588000000000001e+01
ITEM: ATOMS id type x y z 
2 1 3.34198 1.60794 13.3219 
5 1 4.65123 1.57994 18.1248 
7 1 3.39176 1.56068 15.9723 
8 1 2.16467 1.57986 18.1251 
18 1 3.40717 1.57478 17.4037 
21 1 3.30159 2.9578 12.7896 
23 1 3.36998 1.55123 14.7412 
24 1 3.34266 0.396435 12.5699 
17 1 7.01959 2.87475 24.2772 
19 1 6.99423 1.6195 22.1238 
20 1 7.0192 0.389717 24.2777 
22 1 6.95694 1.58911 19.4605 
25 1 5.71305 1.58426 18.7419 
27 1 6.97249 1.60546 20.8954 
28 1 1.10192 1.58415 18.7411 
30 1 7.01977 1.63144 23.5588 
10 1 6.95477 5.2266 5.1215 
13 1 7.01917 3.9377 0.305055 
15 1 6.99223 5.19287 2.45821 
16 1 7.01875 6.42306 0.304704 
26 1 7.01828 5.18105 1.02332 
29 1 5.71083 5.22986 5.83908 
31 1 6.97034 5.20818 3.68653 
32 1 1.09926 5.23021 5.84129 
1 1 4.64823 5.23267 6.45533 
3 1 3.39231 5.21357 8.60952 
4 1 2.16313 5.23298 6.45569 
6 1 3.34115 5.1683 11.2681 
9 1 3.31803 3.89623 11.9247 
11 1 3.36882 5.19385 9.83891 
12 1 3.34229 6.42128 11.9645 
14 1 3.40527 5.23595 7.17523 
33 2 3.2339 4.28859 13.3184 
ITEM: TIMESTEP
161
ITEM: NUMBER OF ATOMS
33
ITEM: BOX BOUNDS pp pp pp
0.0000000000000000e+00 7.0970000000000004e+00
0.0000000000000000e+00 7.0970000000000004e+00
0.0000000000000000e+00 2.4588000000000001e+01
ITEM: ATOMS id type x y z 
2 1 3.34198 1.60794 13.3219 
5 1 4.65123 1.57994 18.1248 
7 1 3.39176 1.56068 15.9723 
8 1 2.16467 1.57986 18.1251 
18 1 3.40717 1.57478 17.4037 
21 1 3.30159 2.9578 12.7896 
23 1 3.36998 1.55123 14.7412 
24 1 3.34266 0.396435 12.5699 
17 1 7.01959 2.87475 24.2772 
19 1 6.99423 1.6195 22.1238 
20 1 7.0192 0.389717 24.2777 
22 1 6.95694 1.58911 19.4605 
25 1 5.71305 1.58426 18.7419 
27 1 6.97249 1.60546 20.8954 
28 1 1.10192 1.58415 18.7411 
30 1 7.01977 1.63144 23.5588 
10 1 6.95477 5.2266 5.1215 
13 1 7.01917 3.9377 0.305055 
15 1 6.99223 5.19287 2.45821 
16 1 7.01875 6.42306 0.304704 
26 1 7.01828 5.18105 1.02332 
29 1 5.71083 5.22986 5.83908 
31 1 6.97034 5.20818 3.68653 
32 1 1.09926 5.23021 5.84129 
1 1 4.64823 5.23267 6.45533 
3 1 3.39231 5.21357 8.60952 
4 1 2.16313 5.23298 6.45569 
6 1 3.34115 5.1683 11.2681 
9 1 3.31803 3.89623 11.9247 
11 1 3.36882 5.19385 9.83891 
12 1 3.34229 6.42128 11.9645 
14 1 3.40527 5.23595 7.17523 
33 2 3.2339 4.28859 13.3184 
ITEM: TIMESTEP
170
ITEM: NUMBER OF ATOMS
33
ITEM: BOX BOUNDS pp pp pp
0.0000000000000000e+00 7.0970000000000004e+00
0.0000000000000000e+00 7.0970000000000004e+00
0.0000000000000000e+00 2.4588000000000001e+01
ITEM: ATOMS id type x y z 
2 1 3.34187 1.608 13.3219 
5 1 4.65126 1.57977 18.1248 
7 1 3.39179 1.56054 15.9722 
8 1 2.16469 1.57969 18.1251 
18 1 3.40714 1.57445 17.4037 
21 1 3.3017 2.95786 12.7897 
23 1 3.36994 1.55115 14.7412 
24 1 3.34269 0.396614 12.5698 
17 1 7.01933 2.87476 24.2772 
19 1 6.99417 1.61951 22.1237 
20 1 7.01938 0.389694 24.2777 
22 1 6.95697 1.5893 19.4606 
25 1 5.71307 1.58423 18.7419 
27 1 6.97249 1.60561 20.8953 
28 1 1.10186 1.58412 18.741 
30 1 7.01975 1.63144 23.5588 
10 1 6.95476 5.22664 5.12157 
13 1 7.01885 3.93765 0.305101 
15 1 6.99233 5.19278 2.45827 
16 1 7.01888 6.42306 0.304726 
26 1 7.01823 5.18109 1.02324 
29 1 5.71087 5.2299 5.8391 
31 1 6.97028 5.20824 3.68656 
32 1 1.09931 5.23001 5.84126 
1 1 4.64825 5.23272 6.45534 
3 1 3.39231 5.21356 8.60947 
4 1 2.16309 5.23283 6.45578 
6 1 3.34122 5.16838 11.2681 
9 1 3.31809 3.89647 11.9249 
11 1 3.36877 5.19381 9.83886 
12 1 3.34206 6.42146 11.9643 
14 1 3.40531 5.23604 7.17522 
33 2 3.23429 4.28862 13.3187 
ITEM: TIMESTEP
171
ITEM: NUMBER OF ATOMS
33
ITEM: BOX BOUNDS pp pp pp
0.0000000000000000e+00 7.0970000000000004e+00
0.0000000000000000e+00 7.0970000000000004e+00
0.0000000000000000e+00 2.4588000000000001e+01
ITEM: ATOMS id type x y z 
2 1 3.34187 1.60801 13.3219 
5 1 4.65126 1.57977 18.1248 
7 1 3.39179 1.56054 15.9722 
8 1 2.16469 1.57969 18.1251 
18 1 3.40714 1.57445 17.4037 
21 1 3.3017 2.95786 12.7897 
23 1 3.36994 1.55115 14.7412 
24 1 3.34269 0.396616 12.5698 
17 1 7.01933 2.87476 24.2772 
19 1 6.99417 1.61951 22.1237 
20 1 7.01937 0.389694 24.2777 
22 1 6.95697 1.5893 19.4606 
25 1 5.71307 1.58423 18.7419 
27 1 6.97249 1.60561 20.8953 
28 1 1.10186 1.58412 18.741 
30 1 7.01975 1.63144 23.5588 
10 1 6.95476 5.22664 5.12157 
13 1 7.01885 3.93765 0.3051 
15 1 6.99233 5.19278 2.45827 
16 1 7.01888 6.42305 0.304725 
26 1 7.01824 5.18108 1.02324 
29 1 5.71087 5.2299 5.8391 
31 1 6.97028 5.20824 3.68656 
32 1 1.09931 5.23001 5.84126 
1 1 4.64825 5.23272 6.45534 
3 1 3.39231 5.21356 8.60947 
4 1 2.16309 5.23283 6.45578 
6 1 3.34121 5.16838 11.2681 
9 1 3.31809 3.89647 11.9249 
11 1 3.36877 5.19381 9.83886 
12 1 3.34206 6.42147 11.9643 
14 1 3.40531 5.23604 7.17522 
33 2 3.2343 4.28861 13.3187 
ITEM: TIMESTEP
180
ITEM: NUMBER OF ATOMS
33
ITEM: BOX BOUNDS pp pp pp
1.2239788510749658e-03 7.0957760211489269e+00
3.1936499999999993e-03 7.0938063500000013e+00
8.4165350169881795e-04 2.4587158346498306e+01
ITEM: ATOMS id type x y z 
2 1 3.34194 1.60963 13.3219 
5 1 4.65079 1.58151 18.1243 
7 1 3.39185 1.5623 15.972 
8 1 2.16524 1.58146 18.1246 
18 1 3.40719 1.57617 17.4033 
21 1 3.3018 2.95793 12.7899 
23 1 3.37 1.55294 14.741 
24 1 3.34273 0.399738 12.5699 
17 1 7.01811 2.87512 24.2762 
19 1 6.99299 1.62126 22.123 
20 1 7.01813 0.392791 24.2767 
22 1 6.95578 1.5911 19.4601 
25 1 5.71243 1.58599 18.7415 
27 1 6.9713 1.60737 20.8947 
28 1 1.10264 1.58587 18.7406 
30 1 7.01857 1.63316 23.5579 
10 1 6.95359 5.22511 5.12206 
13 1 7.01766 3.93755 0.306058 
15 1 6.99113 5.1913 2.45892 
16 1 7.01765 6.42021 0.305687 
26 1 7.01706 5.17961 1.02407 
29 1 5.71023 5.22839 5.83949 
31 1 6.96911 5.20675 3.6872 
32 1 1.10006 5.22849 5.84163 
1 1 4.64777 5.23122 6.4558 
3 1 3.39236 5.21206 8.60966 
4 1 2.16367 5.23131 6.45626 
6 1 3.34126 5.16685 11.2681 
9 1 3.31818 3.89643 11.9247 
11 1 3.36886 5.19233 9.83883 
12 1 3.34214 6.41884 11.9643 
14 1 3.40536 5.23451 7.17557 
33 2 3.23445 4.2882 13.3188 
ITEM: TIMESTEP
190
ITEM: NUMBER OF ATOMS
33
ITEM: BOX BOUNDS pp pp pp
3.0082961042805115e-03 7.0939917038957230e+00
6.2468431941811158e-03 7.0907531568058202e+00
-5.8597897701660210e-03 2.4593859789770171e+01
ITEM: ATOMS id type x y z 
2 1 3.34202 1.61091 13.3232 
5 1 4.65003 1.58309 18.1273 
7 1 3.39193 1.56387 15.9737 
8 1 2.16613 1.58307 18.1276 
18 1 3.40726 1.57762 17.4059 
21 1 3.30199 2.95775 12.7904 
23 1 3.37008 1.5546 14.7429 
24 1 3.34276 0.403425 12.5705 
17 1 7.01634 2.87524 24.2825 
19 1 6.99125 1.62295 22.1278 
20 1 7.01633 0.395933 24.2829 
22 1 6.95405 1.59291 19.4641 
25 1 5.71156 1.58768 18.7451 
27 1 6.96955 1.60912 20.8996 
28 1 1.10369 1.58753 18.7443 
30 1 7.01679 1.63482 23.5636 
10 1 6.95187 5.22364 5.11803 
13 1 7.01589 3.93767 0.299781 
15 1 6.98935 5.18987 2.45413 
16 1 7.01587 6.41731 0.299457 
26 1 7.01529 5.17819 1.01837 
29 1 5.70938 5.22696 5.83585 
31 1 6.9674 5.20529 3.68225 
32 1 1.10111 5.22702 5.83793 
1 1 4.64703 5.22978 6.45276 
3 1 3.39242 5.21063 8.60735 
4 1 2.16454 5.22984 6.45328 
6 1 3.34132 5.16492 11.2675 
9 1 3.31828 3.89637 11.9249 
11 1 3.36898 5.1909 9.8363 
12 1 3.34224 6.41653 11.964 
14 1 3.40546 5.23304 7.17276 
33 2 3.23487 4.28837 13.3193 
ITEM: TIMESTEP
200
ITEM: NUMBER OF ATOMS
33
ITEM: BOX BOUNDS pp pp pp
4.1067627771242130e-03 7.0928932372228788e+00
8.2914112154055444e-03 7.0887085887845966e+00
-1.0623576570191700e-02 2.4598623576570194e+01
ITEM: ATOMS id type x y z 
2 1 3.34205 1.61189 13.3244 
5 1 4.64962 1.58409 18.1294 
7 1 3.39199 1.56484 15.9751 
8 1 2.1666 1.58401 18.1297 
18 1 3.40729 1.57848 17.4076 
21 1 3.30212 2.95789 12.791 
23 1 3.37012 1.55566 14.7445 
24 1 3.34275 0.405639 12.5707 
17 1 7.01522 2.87544 24.2869 
19 1 6.99015 1.62409 22.131 
20 1 7.01522 0.397894 24.2873 
22 1 6.95298 1.59413 19.467 
25 1 5.71097 1.58879 18.7477 
27 1 6.96848 1.61033 20.903 
28 1 1.10442 1.58878 18.747 
30 1 7.01568 1.63593 23.5672 
10 1 6.95082 5.22265 5.11501 
13 1 7.01477 3.93762 0.295302 
15 1 6.98826 5.18891 2.45088 
16 1 7.01476 6.41551 0.295035 
26 1 7.01418 5.17722 1.01471 
29 1 5.70884 5.22599 5.83326 
31 1 6.96635 5.20431 3.67885 
32 1 1.1018 5.22602 5.83528 
1 1 4.64666 5.22881 6.45057 
3 1 3.39247 5.20967 8.60574 
4 1 2.16498 5.22884 6.45117 
6 1 3.34136 5.16367 11.2665 
9 1 3.31834 3.89648 11.9253 
11 1 3.36905 5.18991 9.83454 
12 1 3.34227 6.41492 11.9636 
14 1 3.40553 5.23208 7.17077 
33 2 3.23532 4.28861 13.3196 
ITEM: TIMESTEP
210
ITEM: NUMBER OF ATOMS
33
ITEM: BOX BOUNDS pp pp pp
4.9644676970337660e-03 7.0920355323029680e+00
1.0690052717387391e-02 7.0863099472826159e+00
-1.5568259732688961e-02 2.4603568259732690e+01
ITEM: ATOMS id type x y z 
2 1 3.34203 1.61318 13.3263 
5 1 4.64938 1.58521 18.1316 
7 1 3.39203 1.56587 15.977 
8 1 2.16693 1.58531 18.132 
18 1 3.40731 1.57922 17.4093 
21 1 3.30227 2.95841 12.7919 
23 1 3.37015 1.55682 14.7463 
24 1 3.34269 0.407896 12.5708 
17 1 7.01428 2.87582 24.2914 
19 1 6.98927 1.62546 22.1342 
20 1 7.01433 0.400047 24.2918 
22 1 6.95214 1.59572 19.4703 
25 1 5.71046 1.5901 18.7503 
27 1 6.96761 1.6118 20.9062 
28 1 1.10505 1.58996 18.7498 
30 1 7.01477 1.63722 23.5704 
10 1 6.95002 5.22147 5.11169 
13 1 7.01384 3.93741 0.290765 
15 1 6.98739 5.18776 2.44764 
16 1 7.01387 6.41354 0.290579 
26 1 7.01327 5.1761 1.01144 
29 1 5.70843 5.22484 5.83053 
31 1 6.96551 5.20315 3.67556 
32 1 1.10239 5.22484 5.83246 
1 1 4.64647 5.22768 6.44831 
3 1 3.39251 5.20852 8.60397 
4 1 2.16523 5.22767 6.44901 
6 1 3.34137 5.1623 11.2649 
9 1 3.31839 3.8966 11.9258 
11 1 3.36909 5.18868 9.83271 
12 1 3.34224 6.41301 11.9628 
14 1 3.40559 5.23096 7.16881 
33 2 3.236 4.28919 13.3199 
ITEM: TIMESTEP
220
ITEM: NUMBER OF ATOMS
33
ITEM: BOX BOUNDS pp pp pp
5.4895187673920263e-03 7.0915104812326097e+00
1.1855026388382151e-02 7.0851449736116212e+00
-1.9450920231537223e-02 2.4607450920231535e+01
ITEM: ATOMS id type x y z 
2 1 3.342 1.61378 13.3276 
5 1 4.64928 1.5857 18.1332 
7 1 3.39206 1.56624 15.9784 
8 1 2.16713 1.58571 18.1338 
18 1 3.40733 1.5795 17.4107 
21 1 3.30238 2.95876 12.7927 
23 1 3.37015 1.5573 14.7477 
24 1 3.34264 0.408956 12.571 
17 1 7.01371 2.87604 24.2948 
19 1 6.98871 1.62616 22.1367 
20 1 7.01375 0.401042 24.2952 
22 1 6.95166 1.59663 19.4728 
25 1 5.71011 1.59068 18.7524 
27 1 6.96707 1.61256 20.9087 
28 1 1.10539 1.59056 18.7518 
30 1 7.0142 1.63785 23.573 
10 1 6.94954 5.2209 5.10913 
13 1 7.01326 3.93726 0.287261 
15 1 6.98685 5.18719 2.44504 
16 1 7.01329 6.41263 0.287128 
26 1 7.0127 5.17555 1.00884 
29 1 5.70814 5.22426 5.82839 
31 1 6.965 5.20257 3.67303 
32 1 1.10277 5.2243 5.83029 
1 1 4.64639 5.22714 6.44654 
3 1 3.39255 5.20793 8.60255 
4 1 2.1654 5.22694 6.44723 
6 1 3.34137 5.1616 11.2637 
9 1 3.31842 3.89676 11.926 
11 1 3.3691 5.18802 9.83134 