ITEM: TIMESTEP
0
ITEM: NUMBER OF ATOMS
51
ITEM: BOX BOUNDS pp pp pp
0.0000000000000000e+00 1.1000000000000000e+01
0.0000000000000000e+00 1.1002000000000001e+01
0.0000000000000000e+00 1.1000000000000000e+01
ITEM: ATOMS id type x y z 
10 1 4.603 4.603 4.603 
11 1 3.085 3.085 3.085 
12 1 3.796 3.796 3.796 
46 1 0.726 0.725 0.725 
47 1 2.26 2.259 2.26 
48 1 1.551 1.55 1.55 
19 1 4.546 4.545 6.226 
20 1 3.013 3.013 7.764 
21 1 3.721 3.721 7.053 
31 1 0.668 0.667 10.103 
32 1 2.187 2.187 8.589 
33 1 1.476 1.475 9.298 
16 1 4.546 6.225 4.546 
17 1 3.013 7.765 3.013 
18 1 3.721 7.053 3.722 
25 1 0.668 10.103 0.668 
26 1 2.188 8.589 2.188 
27 1 1.476 9.298 1.476 
4 1 4.608 6.169 6.169 
5 1 3.086 7.684 7.684 
6 1 3.799 6.974 6.974 
37 1 0.729 10.046 10.046 
38 1 2.259 8.509 8.508 
39 1 1.552 9.219 9.219 
49 2 2.078 8.71 10.358 
50 2 3.249 7.785 10.247 
51 3 3.89 8.115 10.924 
13 1 6.225 4.546 4.546 
14 1 7.764 3.013 3.013 
15 1 7.053 3.721 3.722 
28 1 10.102 0.667 0.668 
29 1 8.589 2.187 2.188 
30 1 9.298 1.475 1.476 
1 1 6.168 4.608 6.169 
2 1 7.684 3.086 7.684 
3 1 6.974 3.799 6.974 
40 1 10.045 0.728 10.046 
41 1 8.508 2.259 8.508 
42 1 9.218 1.551 9.218 
7 1 6.169 6.169 4.608 
8 1 7.684 7.684 3.086 
9 1 6.974 6.974 3.799 
43 1 10.046 10.047 0.729 
44 1 8.508 8.509 2.259 
45 1 9.219 9.219 1.552 
22 1 6.229 6.229 6.229 
23 1 7.764 7.765 7.765 
24 1 7.055 7.056 7.055 
34 1 10.108 10.108 10.107 
35 1 8.59 8.59 8.59 
36 1 9.301 9.301 9.3 
ITEM: TIMESTEP
10
ITEM: NUMBER OF ATOMS
51
ITEM: BOX BOUNDS pp pp pp
0.0000000000000000e+00 1.1000000000000000e+01
0.0000000000000000e+00 1.1002000000000001e+01
0.0000000000000000e+00 1.1000000000000000e+01
ITEM: ATOMS id type x y z 
10 1 4.59667 4.5963 4.59803 
11 1 3.08181 3.07977 3.0819 
12 1 3.78778 3.79141 3.78744 
46 1 0.733214 0.738005 0.744042 
47 1 2.27296 2.27043 2.2712 
48 1 1.56247 1.56458 1.565 
19 1 4.53867 4.53711 6.23328 
20 1 3.00316 3.00319 7.77369 
21 1 3.70987 3.70958 7.06444 
31 1 0.674651 0.68337 10.0959 
32 1 2.19343 2.19202 8.58271 
33 1 1.48455 1.48676 9.28931 
16 1 4.53851 6.23275 4.5376 
17 1 3.00292 7.77456 3.00348 
18 1 3.70989 7.06495 3.70997 
25 1 0.671956 10.099 0.679006 
26 1 2.19144 8.58476 2.19263 
27 1 1.48296 9.29151 1.48503 
4 1 4.59713 6.17946 6.17769 
5 1 3.07411 7.69855 7.69494 
6 1 3.79235 6.97882 6.98305 
37 1 0.68021 10.097 10.0476 
38 1 2.29515 8.47282 8.44279 
39 1 1.6225 9.14265 9.25028 
49 2 2.08591 8.70024 10.3218 
50 2 3.27776 7.78413 10.2652 
51 3 3.87688 8.1049 10.9086 
13 1 6.23306 4.53807 4.53907 
14 1 7.77447 3.0019 3.00344 
15 1 7.0652 3.70992 3.70817 
28 1 10.0951 0.67422 0.67626 
29 1 8.58463 2.19152 2.19203 
30 1 9.29052 1.48216 1.4841 
1 1 6.17393 4.6016 6.17557 
2 1 7.68807 3.0819 7.68779 
3 1 6.98098 3.79184 6.98145 
40 1 10.0244 0.748663 10.0388 
41 1 8.4967 2.27037 8.49433 
42 1 9.20251 1.56659 9.20715 
7 1 6.17472 6.17502 4.60193 
8 1 7.6888 7.68772 3.08182 
9 1 6.9803 6.98249 3.79114 
43 1 10.0326 10.0394 0.747363 
44 1 8.49704 8.4967 2.26941 
45 1 9.20519 9.20776 1.56701 
22 1 6.23745 6.2368 6.23629 
23 1 7.77302 7.77439 7.77394 
24 1 7.06653 7.06657 7.06646 
34 1 10.0911 10.101 10.0999 
35 1 8.58486 8.58346 8.58345 
36 1 9.28887 9.29225 9.29145 
ITEM: TIMESTEP
20
ITEM: NUMBER OF ATOMS
51
ITEM: BOX BOUNDS pp pp pp
0.0000000000000000e+00 1.1000000000000000e+01
0.0000000000000000e+00 1.1002000000000001e+01
0.0000000000000000e+00 1.1000000000000000e+01
ITEM: ATOMS id type x y z 
10 1 4.59606 4.59824 4.59658 
11 1 3.08355 3.08218 3.08354 
12 1 3.79103 3.79303 3.79003 
46 1 0.731412 0.738573 0.749903 
47 1 2.2743 2.27201 2.27145 
48 1 1.56238 1.5646 1.56835 
19 1 4.53788 4.53177 6.23384 
20 1 3.0041 3.00459 7.7728 
21 1 3.71161 3.70947 7.06259 
31 1 0.670629 0.686529 10.0967 
32 1 2.19454 2.19192 8.58234 
33 1 1.483 1.48817 9.28984 
16 1 4.5381 6.23365 4.53159 
17 1 3.00269 7.77469 3.00411 
18 1 3.71032 7.06453 3.70852 
25 1 0.668938 10.1026 0.671799 
26 1 2.18829 8.5878 2.19055 
27 1 1.47939 9.294 1.48286 
4 1 4.5992 6.17644 6.17639 
5 1 3.08416 7.68585 7.67902 
6 1 3.80126 6.97293 6.96916 
37 1 0.681246 10.095 10.0379 
38 1 2.27373 8.49389 8.42746 
39 1 1.64248 9.12088 9.3205 
49 2 2.07584 8.70735 10.3054 
50 2 3.29371 7.77608 10.2692 
51 3 3.87991 8.10065 10.9085 
13 1 6.2349 4.53712 4.53651 
14 1 7.77389 3.00274 3.00331 
15 1 7.06478 3.70974 3.70977 
28 1 10.0941 0.675142 0.676807 
29 1 8.58525 2.19056 2.1918 
30 1 9.29123 1.48198 1.48284 
1 1 6.17526 4.60086 6.17555 
2 1 7.68651 3.08376 7.68559 
3 1 6.97835 3.79348 6.97924 
40 1 10.0174 0.754703 10.0447 
41 1 8.49573 2.27063 8.49151 
42 1 9.20003 1.5709 9.20966 
7 1 6.17298 6.17583 4.60067 
8 1 7.68656 7.68655 3.08328 
9 1 6.97917 6.97923 3.793 
43 1 10.0325 10.0412 0.752984 
44 1 8.49607 8.49555 2.26996 
45 1 9.20503 9.20852 1.56884 
22 1 6.24253 6.23739 6.23628 
23 1 7.77108 7.77319 7.77272 
24 1 7.0662 7.06401 7.06382 
34 1 10.0878 10.1044 10.1008 
35 1 8.58501 8.58191 8.58333 
36 1 9.28692 9.2941 9.29115 
ITEM: TIMESTEP
30
ITEM: NUMBER OF ATOMS
51
ITEM: BOX BOUNDS pp pp pp
0.0000000000000000e+00 1.1000000000000000e+01
0.0000000000000000e+00 1.1002000000000001e+01
0.0000000000000000e+00 1.1000000000000000e+01
ITEM: ATOMS id type x y z 
10 1 4.59679 4.60141 4.59499 
11 1 3.08503 3.08454 3.08386 
12 1 3.79216 3.79222 3.79176 
46 1 0.731111 0.73822 0.751549 
47 1 2.27472 2.27263 2.27213 
48 1 1.56242 1.56459 1.57029 
19 1 4.53881 4.53046 6.23236 
20 1 3.00416 3.00452 7.77273 
21 1 3.71142 3.70783 7.06286 
31 1 0.666746 0.680323 10.0979 
32 1 2.19281 2.19048 8.585 
33 1 1.48104 1.48706 9.29044 
16 1 4.53796 6.23407 4.5287 
17 1 2.99982 7.77734 3.00206 
18 1 3.70761 7.06722 3.70455 
25 1 0.6663 10.1059 0.656991 
26 1 2.1826 8.59278 2.18848 
27 1 1.47661 9.29637 1.47685 
4 1 4.60318 6.17258 6.17189 
5 1 3.07823 7.6931 7.66754 
6 1 3.79669 6.97524 6.9657 
37 1 0.678985 10.0962 10.0329 
38 1 2.25199 8.51338 8.40508 
39 1 1.66837 9.09279 9.35535 
49 2 2.07128 8.70607 10.3327 
50 2 3.31399 7.76214 10.2699 
51 3 3.89112 8.09513 10.9132 
13 1 6.23623 4.53604 4.53483 
14 1 7.77421 3.00252 3.00315 
15 1 7.06504 3.70923 3.70903 
28 1 10.0947 0.675275 0.678194 
29 1 8.58487 2.19131 2.19202 
30 1 9.29035 1.48204 1.48464 
1 1 6.1746 4.60047 6.17358 
2 1 7.68484 3.08492 7.68393 
3 1 6.97803 3.79435 6.9767 
40 1 10.0135 0.759653 10.0505 
41 1 8.49517 2.27231 8.49035 
42 1 9.19663 1.57266 9.21113 
7 1 6.17158 6.17533 4.59838 
8 1 7.68577 7.68522 3.08425 
9 1 6.97777 6.97905 3.79247 
43 1 10.0331 10.0416 0.753812 
44 1 8.49616 8.49574 2.27008 
45 1 9.20498 9.20851 1.57057 
22 1 6.24415 6.23585 6.23472 
23 1 7.7715 7.7728 7.77276 
24 1 7.06732 7.06468 7.06399 
34 1 10.0932 10.1087 10.1013 
35 1 8.58527 8.58349 8.58496 
36 1 9.28806 9.29468 9.29196 
ITEM: TIMESTEP
40
ITEM: NUMBER OF ATOMS
51
ITEM: BOX BOUNDS pp pp pp
0.0000000000000000e+00 1.1000000000000000e+01
0.0000000000000000e+00 1.1002000000000001e+01
0.0000000000000000e+00 1.1000000000000000e+01
ITEM: ATOMS id type x y z 
10 1 4.59846 4.60182 4.60244 
11 1 3.08859 3.06774 3.09702 
12 1 3.78578 3.82548 3.76327 
46 1 0.731279 0.737054 0.746887 
47 1 2.27265 2.2699 2.27325 
48 1 1.56203 1.5635 1.56965 
19 1 4.53587 4.53306 6.23256 
20 1 3.00188 2.99989 7.77593 
21 1 3.70792 3.70529 7.0654 
31 1 0.663373 0.664385 10.0963 
32 1 2.18719 2.18985 8.59098 
33 1 1.47864 1.47818 9.29172 
16 1 4.53726 6.23618 4.53007 
17 1 2.99686 7.7793 3.00032 
18 1 3.70394 7.07094 3.70227 
25 1 0.667843 10.1059 0.627919 
26 1 2.17206 8.60112 2.18632 
27 1 1.4739 9.29976 1.46397 
4 1 4.60027 6.17296 6.17512 
5 1 3.05326 7.70842 7.64441 
6 1 3.7812 7.00593 6.93972 
37 1 0.690816 10.0834 10.0213 
38 1 2.21798 8.54479 8.36892 
39 1 1.70412 9.05195 9.39326 
49 2 2.05765 8.70337 10.4304 
50 2 3.36099 7.73129 10.2701 
51 3 3.92086 8.08012 10.9238 
13 1 6.236 4.53749 4.53183 
14 1 7.77448 3.00196 3.00327 
15 1 7.06517 3.70958 3.70753 
28 1 10.0982 0.674481 0.682287 
29 1 8.58508 2.19124 2.19175 
30 1 9.29143 1.48034 1.48639 
1 1 6.17538 4.60326 6.17089 
2 1 7.68389 3.0851 7.68198 
3 1 6.9789 3.79514 6.97293 
40 1 10.0122 0.76115 10.0582 
41 1 8.49393 2.27334 8.49187 
42 1 9.19522 1.57478 9.21539 
7 1 6.16065 6.17728 4.59679 
8 1 7.68704 7.68436 3.08362 
9 1 6.97377 6.98087 3.78975 
43 1 10.0339 10.0414 0.749827 
44 1 8.49844 8.49733 2.27164 
45 1 9.20676 9.21048 1.56834 
22 1 6.23975 6.23702 6.23163 
23 1 7.77265 7.77119 7.77227 
24 1 7.06751 7.06581 7.06412 
34 1 10.1083 10.1116 10.097 
35 1 8.58594 8.58719 8.5889 
36 1 9.29178 9.29708 9.29345 
ITEM: TIMESTEP
50
ITEM: NUMBER OF ATOMS
51
ITEM: BOX BOUNDS pp pp pp
0.0000000000000000e+00 1.1000000000000000e+01
0.0000000000000000e+00 1.1002000000000001e+01
0.0000000000000000e+00 1.1000000000000000e+01
ITEM: ATOMS id type x y z 
10 1 4.59384 4.61393 4.59621 
11 1 3.08632 3.0859 3.08311 
12 1 3.78945 3.7977 3.78622 
46 1 0.733305 0.736392 0.742862 
47 1 2.27189 2.26599 2.27522 
48 1 1.56155 1.56108 1.56775 
19 1 4.53787 4.53851 6.23146 
20 1 3.00604 3.00244 7.7719 
21 1 3.70917 3.71061 7.06406 
31 1 0.664308 0.661383 10.0931 
32 1 2.18762 2.19226 8.59071 
33 1 1.48131 1.47566 9.28782 
16 1 4.53158 6.24081 4.53031 
17 1 2.99298 7.78295 2.99669 
18 1 3.69921 7.07435 3.70201 
25 1 0.669511 10.1022 0.627045 
26 1 2.17064 8.60173 2.1866 
27 1 1.47488 9.2994 1.46087 
4 1 4.59633 6.1824 6.17475 
5 1 3.04434 7.73342 7.61395 
6 1 3.77081 6.98729 6.95331 
37 1 0.692367 10.0796 10.0214 
38 1 2.21598 8.54567 8.37457 
39 1 1.71308 9.04099 9.41202 
49 2 2.0487 8.70489 10.4477 
50 2 3.37932 7.72125 10.2711 
51 3 3.93269 8.07289 10.9262 
13 1 6.23371 4.54018 4.53514 
14 1 7.77395 3.00442 3.00513 
15 1 7.06116 3.70987 3.7077 
28 1 10.0973 0.670176 0.682429 
29 1 8.58355 2.18854 2.19255 
30 1 9.29507 1.48461 1.48699 
1 1 6.16786 4.60363 6.17074 
2 1 7.68485 3.0856 7.67951 
3 1 6.97689 3.79448 6.97543 
40 1 10.0139 0.757566 10.0561 
41 1 8.49355 2.27317 8.49589 
42 1 9.19771 1.57375 9.21419 
7 1 6.16517 6.17904 4.59603 
8 1 7.68639 7.6858 3.08182 
9 1 6.9763 6.98129 3.78965 
43 1 10.0357 10.04 0.745188 
44 1 8.50213 8.50002 2.271 
45 1 9.20552 9.20941 1.56642 
22 1 6.23581 6.23861 6.23352 
23 1 7.77301 7.77075 7.77162 
24 1 7.06595 7.06636 7.06535 
34 1 10.1091 10.1097 10.0948 
35 1 8.58262 8.58733 8.58969 
36 1 9.2966 9.29495 9.28923 
ITEM: TIMESTEP
60
ITEM: NUMBER OF ATOMS
51
ITEM: BOX BOUNDS pp pp pp
0.0000000000000000e+00 1.1000000000000000e+01
0.0000000000000000e+00 1.1002000000000001e+01
0.0000000000000000e+00 1.1000000000000000e+01
ITEM: ATOMS id type x y z 
10 1 4.59309 4.61361 4.59463 
11 1 3.08591 3.08551 3.08196 
12 1 3.78926 3.79868 3.78783 
46 1 0.732971 0.736318 0.741237 
47 1 2.27139 2.26555 2.27503 
48 1 1.56239 1.56056 1.56784 
19 1 4.53566 4.54028 6.23205 
20 1 3.00522 3.00274 7.77265 
21 1 3.70946 3.70958 7.06393 
31 1 0.665763 0.659672 10.0912 
32 1 2.18895 2.19115 8.58953 
33 1 1.48018 1.47815 9.28818 
16 1 4.53128 6.24215 4.53082 
17 1 2.99245 7.78273 2.99761 
18 1 3.69948 7.07485 3.70173 
25 1 0.669843 10.1028 0.626177 
26 1 2.17115 8.60182 2.18643 
27 1 1.47363 9.29914 1.46151 
4 1 4.5959 6.18125 6.17461 
5 1 3.0355 7.73642 7.60865 
6 1 3.76886 6.99388 6.95126 
37 1 0.693918 10.0783 10.0201 
38 1 2.21784 8.5466 8.37653 
39 1 1.71513 9.03763 9.41682 
49 2 2.04761 8.70314 10.4555 
50 2 3.38623 7.71726 10.2712 
51 3 3.93764 8.07014 10.9274 
13 1 6.23148 4.54118 4.53423 
14 1 7.77202 3.00407 3.00504 
15 1 7.06297 3.71177 3.7088 
28 1 10.0998 0.671298 0.681536 
29 1 8.58506 2.19064 2.19314 
30 1 9.292 1.48125 1.48757 
1 1 6.16873 4.60402 6.17125 
2 1 7.68522 3.08521 7.67979 
3 1 6.97649 3.79457 6.97512 
40 1 10.0157 0.756812 10.0552 
41 1 8.4946 2.27331 8.49614 
42 1 9.19653 1.57319 9.21573 
7 1 6.16437 6.17887 4.59692 
8 1 7.68686 7.68577 3.0816 
9 1 6.97567 6.98208 3.78945 
43 1 10.0347 10.0401 0.743454 
44 1 8.50126 8.49992 2.27074 
45 1 9.20812 9.21003 1.56648 
22 1 6.23456 6.23985 6.23336 
23 1 7.77269 7.77034 7.77196 
24 1 7.06505 7.06624 7.06404 
34 1 10.1105 10.1089 10.0932 
35 1 8.58333 8.58642 8.58881 
36 1 9.29454 9.29536 9.28913 
ITEM: TIMESTEP
70
ITEM: NUMBER OF ATOMS
51
ITEM: BOX BOUNDS pp pp pp
0.0000000000000000e+00 1.1000000000000000e+01
0.0000000000000000e+00 1.1002000000000001e+01
0.0000000000000000e+00 1.1000000000000000e+01
ITEM: ATOMS id type x y z 
10 1 4.59196 4.61306 4.59376 
11 1 3.08571 3.08506 3.08212 
12 1 3.78875 3.79909 3.78781 
46 1 0.733181 0.736093 0.739928 
47 1 2.27149 2.26548 2.27475 
48 1 1.56247 1.56055 1.56749 
19 1 4.53409 4.54127 6.23228 
20 1 3.00547 3.00264 7.77283 
21 1 3.70855 3.71042 7.06394 
31 1 0.666952 0.658883 10.0893 
32 1 2.18924 2.19103 8.58911 
33 1 1.48046 1.4778 9.2876 
16 1 4.53174 6.24281 4.5315 
17 1 2.99213 7.78266 2.99828 
18 1 3.69934 7.0752 3.70264 
25 1 0.669128 10.1037 0.625041 
26 1 2.17063 8.60182 2.18678 
27 1 1.47357 9.29951 1.46182 
4 1 4.59342 6.17979 6.17764 
5 1 3.028 7.73711 7.60448 
6 1 3.76628 7.00543 6.94052 
37 1 0.695481 10.077 10.0192 
38 1 2.21774 8.54752 8.38015 
39 1 1.71688 9.03523 9.42373 
49 2 2.04737 8.69935 10.4647 
50 2 3.39519 7.71211 10.2711 
51 3 3.9442 8.0665 10.9289 
13 1 6.23046 4.54256 4.53389 
14 1 7.7715 3.00467 3.0055 
15 1 7.06227 3.71224 3.70899 
28 1 10.1 0.671368 0.681156 
29 1 8.58505 2.19034 2.19375 
30 1 9.29213 1.48161 1.48775 
1 1 6.16921 4.60447 6.17112 
2 1 7.68527 3.08496 7.6799 
3 1 6.97654 3.79451 6.97518 
40 1 10.0167 0.756002 10.0546 
41 1 8.4945 2.2734 8.49694 
42 1 9.19701 1.5732 9.21602 
7 1 6.16271 6.17979 4.59699 
8 1 7.68693 7.68608 3.08163 
9 1 6.97553 6.98231 3.789 
43 1 10.0348 10.0403 0.742121 
44 1 8.50201 8.50018 2.27043 
45 1 9.20833 9.21024 1.56604 
22 1 6.23301 6.24039 6.23303 
23 1 7.77213 7.76987 7.77184 
24 1 7.06415 7.06628 7.06349 
34 1 10.1116 10.1084 10.0917 
35 1 8.58295 8.58591 8.58833 
36 1 9.29486 9.29484 9.28812 
ITEM: TIMESTEP
80
ITEM: NUMBER OF ATOMS
51
ITEM: BOX BOUNDS pp pp pp
0.0000000000000000e+00 1.1000000000000000e+01
0.0000000000000000e+00 1.1002000000000001e+01
0.0000000000000000e+00 1.1000000000000000e+01
ITEM: ATOMS id type x y z 
10 1 4.59152 4.61372 4.59393 
11 1 3.08532 3.08491 3.08195 
12 1 3.78816 3.79856 3.78792 
46 1 0.733438 0.736221 0.739094 
47 1 2.27141 2.2651 2.27444 
48 1 1.56244 1.56053 1.56675 
19 1 4.53335 4.54252 6.23216 
20 1 3.00557 3.003 7.77264 
21 1 3.70855 3.71113 7.06395 
31 1 0.667567 0.657691 10.0882 
32 1 2.18961 2.19099 8.58859 
33 1 1.48094 1.47751 9.2869 
16 1 4.53112 6.24306 4.53229 
17 1 2.99171 7.78284 2.9989 
18 1 3.69894 7.07564 3.70309 
25 1 0.669118 10.1039 0.62493 
26 1 2.17006 8.6022 2.18725 
27 1 1.47328 9.29951 1.46182 
4 1 4.59131 6.18217 6.17902 
5 1 3.02489 7.74241 7.59906 
6 1 3.76065 7.00999 6.93295 
37 1 0.696481 10.076 10.0189 
38 1 2.21665 8.54625 8.38437 
39 1 1.71931 9.03261 9.43013 
49 2 2.04721 8.6957 10.4716 
50 2 3.40364 7.70742 10.2711 
51 3 3.95019 8.06303 10.9302 
13 1 6.22962 4.54299 4.53414 
14 1 7.77123 3.00501 3.00578 
15 1 7.06164 3.71266 3.70904 
28 1 10.1001 0.671654 0.68077 
29 1 8.58508 2.19029 2.19432 
30 1 9.29203 1.4817 1.48804 
1 1 6.16862 4.60479 6.17079 
2 1 7.68497 3.08489 7.67989 
3 1 6.97676 3.79471 6.97509 
40 1 10.0175 0.755452 10.0541 
41 1 8.49446 2.27377 8.4977 
42 1 9.19716 1.57285 9.21594 
7 1 6.16197 6.18065 4.59648 
8 1 7.68731 7.68615 3.08143 
9 1 6.97504 6.98322 3.78878 
43 1 10.0347 10.0407 0.740768 
44 1 8.50251 8.50051 2.27018 
45 1 9.2089 9.21027 1.56546 
22 1 6.2316 6.24049 6.23345 
23 1 7.77178 7.76963 7.77142 
24 1 7.06304 7.06614 7.06365 
34 1 10.1126 10.1078 10.0904 
35 1 8.58283 8.58559 8.58798 
36 1 9.2952 9.29442 9.28735 
ITEM: TIMESTEP
90
ITEM: NUMBER OF ATOMS
51
ITEM: BOX BOUNDS pp pp pp
0.0000000000000000e+00 1.1000000000000000e+01
0.0000000000000000e+00 1.1002000000000001e+01
0.0000000000000000e+00 1.1000000000000000e+01
ITEM: ATOMS id type x y z 
10 1 4.5914 4.61371 4.59402 
11 1 3.08524 3.08492 3.08202 
12 1 3.78829 3.79854 3.78781 
46 1 0.733407 0.736257 0.739063 
47 1 2.27137 2.26513 2.27442 
48 1 1.56251 1.56046 1.56676 
19 1 4.53339 4.54252 6.23217 
20 1 3.00562 3.00296 7.77264 
21 1 3.7085 3.71127 7.06392 
31 1 0.667543 0.657761 10.0882 
32 1 2.18958 2.19111 8.58865 
33 1 1.48102 1.47728 9.28676 
16 1 4.53114 6.24309 4.53227 
17 1 2.99171 7.78289 2.99884 
18 1 3.69885 7.07561 3.70318 
25 1 0.669147 10.1039 0.624902 
26 1 2.17009 8.60223 2.18725 
27 1 1.47319 9.29947 1.46185 
4 1 4.59135 6.18221 6.17907 
5 1 3.02484 7.74256 7.59898 
6 1 3.76043 7.01002 6.93276 
37 1 0.696501 10.076 10.0189 
38 1 2.21666 8.54622 8.38445 
39 1 1.71934 9.03256 9.43028 
49 2 2.04721 8.69562 10.4717 
50 2 3.40383 7.70732 10.2711 
51 3 3.95032 8.06296 10.9302 
13 1 6.22957 4.54295 4.53411 
14 1 7.77115 3.005 3.00577 
15 1 7.0618 3.71268 3.70903 
28 1 10.1001 0.671667 0.680751 
29 1 8.58508 2.1903 2.19432 
30 1 9.29202 1.48168 1.48806 
1 1 6.16858 4.60482 6.17082 
2 1 7.68496 3.08488 7.67988 
3 1 6.97677 3.79473 6.9751 
40 1 10.0174 0.755378 10.054 
41 1 8.49441 2.2737 8.49771 
42 1 9.19726 1.57299 9.21595 
7 1 6.16195 6.1807 4.59649 
8 1 7.68729 7.68615 3.08141 
9 1 6.97509 6.98324 3.78882 
43 1 10.0347 10.0407 0.740777 
44 1 8.50255 8.50047 2.27025 
45 1 9.20883 9.21034 1.56533 
22 1 6.23154 6.24052 6.23342 
23 1 7.77174 7.76966 7.77136 
24 1 7.06304 7.06604 7.0637 
34 1 10.1126 10.1078 10.0903 
35 1 8.58287 8.58561 8.58791 
36 1 9.29513 9.29436 9.28743 
ITEM: TIMESTEP
100
ITEM: NUMBER OF ATOMS
51
ITEM: BOX BOUNDS pp pp pp
0.0000000000000000e+00 1.1000000000000000e+01
0.0000000000000000e+00 1.1002000000000001e+01
0.0000000000000000e+00 1.1000000000000000e+01
ITEM: ATOMS id type x y z 
10 1 4.5889 4.61224 4.59556 
11 1 3.08392 3.08508 3.08199 
12 1 3.78813 3.79722 3.78849 
46 1 0.732678 0.737495 0.735578 
47 1 2.2706 2.26547 2.27252 
48 1 1.56369 1.55797 1.5666 
19 1 4.53186 4.54758 6.23317 
20 1 3.0067 3.00516 7.77254 
21 1 3.70876 3.71327 7.06113 
31 1 0.669697 0.656243 10.0849 
32 1 2.19034 2.19116 8.58773 
33 1 1.48249 1.4751 9.28423 
16 1 4.52831 6.24539 4.53381 
17 1 2.98886 7.78439 3.0004 
18 1 3.69732 7.07826 3.70178 
25 1 0.6683 10.1044 0.624375 
26 1 2.16908 8.60304 2.18789 
27 1 1.47085 9.3004 1.46405 
4 1 4.58578 6.19055 6.17609 
5 1 3.00987 7.76088 7.5764 
6 1 3.74759 7.01564 6.92701 
37 1 0.70047 10.0719 10.0182 
38 1 2.21778 8.54441 8.39709 
39 1 1.72505 9.02369 9.44832 
49 2 2.04805 8.68409 10.4905 
50 2 3.42876 7.69357 10.271 
51 3 3.96803 8.0527 10.9341 
13 1 6.22769 4.54499 4.53406 
14 1 7.76972 3.00654 3.00642 
15 1 7.0609 3.71292 3.70989 
28 1 10.1 0.671359 0.679908 
29 1 8.58542 2.18968 2.19614 
30 1 9.29177 1.48255 1.48784 
1 1 6.1658 4.60552 6.17074 
2 1 7.68387 3.08447 7.67966 
3 1 6.97722 3.79621 6.97507 
40 1 10.0197 0.754552 10.0526 
41 1 8.49482 2.27492 8.50023 
42 1 9.19659 1.57186 9.21466 
7 1 6.16117 6.18272 4.59654 
8 1 7.6871 7.68711 3.0804 
9 1 6.97612 6.98477 3.78915 
43 1 10.0344 10.0422 0.737247 
44 1 8.50337 8.50066 2.27001 
45 1 9.21182 9.21195 1.56226 
22 1 6.2256 6.24174 6.23427 
23 1 7.76951 7.7699 7.7711 
24 1 7.06181 7.06383 7.06247 
34 1 10.1156 10.1068 10.086 
35 1 8.58342 8.58504 8.58446 
36 1 9.29376 9.2914 9.28841 
ITEM: TIMESTEP
110
ITEM: NUMBER OF ATOMS
51
ITEM: BOX BOUNDS pp pp pp
0.0000000000000000e+00 1.1000000000000000e+01
0.0000000000000000e+00 1.1002000000000001e+01
0.0000000000000000e+00 1.1000000000000000e+01
ITEM: ATOMS id type x y z 
10 1 4.58963 4.61263 4.59523 
11 1 3.08423 3.08447 3.08194 
12 1 3.78686 3.79794 3.78838 
46 1 0.733224 0.73658 0.735689 
47 1 2.27126 2.26427 2.27325 
48 1 1.56262 1.56007 1.56485 
19 1 4.53133 4.54733 6.23242 
20 1 3.00643 3.00432 7.7719 
21 1 3.70792 3.71417 7.06345 
31 1 0.669602 0.654417 10.0846 
32 1 2.19089 2.19097 8.58721 
33 1 1.48254 1.47568 9.28402 
16 1 4.5291 6.2453 4.53287 
17 1 2.98923 7.78478 2.99969 
18 1 3.69664 7.07756 3.70399 
25 1 0.668525 10.1048 0.624061 
26 1 2.16789 8.60342 2.18872 
27 1 1.4717 9.3007 1.46271 
4 1 4.5841 6.18963 6.17688 
5 1 3.00721 7.76013 7.57606 
6 1 3.74797 7.02116 6.92285 
37 1 0.700311 10.0721 10.0191 
38 1 2.21778 8.54469 8.39851 
39 1 1.72476 9.02341 9.45121 
49 2 2.04826 8.68251 10.4921 
50 2 3.43197 7.69186 10.271 
51 3 3.97026 8.05138 10.9345 
13 1 6.22735 4.54516 4.53438 
14 1 7.7699 3.00596 3.00666 
15 1 7.06048 3.71396 3.70941 
28 1 10.1 0.672725 0.678971 
29 1 8.58531 2.18994 2.19611 
30 1 9.29176 1.48235 1.48843 
1 1 6.16681 4.60607 6.17067 
2 1 7.68436 3.08517 7.67961 
3 1 6.97609 3.79518 6.97525 
40 1 10.02 0.753417 10.0519 
41 1 8.49407 2.27455 8.49979 
42 1 9.1979 1.57262 9.2157 
7 1 6.16108 6.18267 4.59685 
8 1 7.68778 7.68731 3.08076 
9 1 6.97508 6.98499 3.78825 
43 1 10.0342 10.0417 0.737137 
44 1 8.50452 8.50096 2.26957 
45 1 9.20944 9.21087 1.56329 
22 1 6.22627 6.24146 6.2339 
23 1 7.77013 7.7686 7.77031 
24 1 7.0598 7.06588 7.06334 
34 1 10.1159 10.1062 10.0866 
35 1 8.58231 8.58415 8.58649 
36 1 9.29623 9.29284 9.2844 
ITEM: TIMESTEP
120
ITEM: NUMBER OF ATOMS
51
ITEM: BOX BOUNDS pp pp pp
0.0000000000000000e+00 1.1000000000000000e+01
0.0000000000000000e+00 1.1002000000000001e+01
0.0000000000000000e+00 1.1000000000000000e+01
ITEM: ATOMS id type x y z 
10 1 4.58961 4.61305 4.59519 
11 1 3.08409 3.08433 3.08198 
12 1 3.78666 3.7979 3.78835 
46 1 0.733146 0.736953 0.735321 
47 1 2.27126 2.26409 2.27308 
48 1 1.56255 1.56019 1.56456 
19 1 4.53084 4.54802 6.23248 
20 1 3.00636 3.00433 7.7719 
21 1 3.7078 3.71461 7.06359 
31 1 0.669792 0.653893 10.0841 
32 1 2.19092 2.19083 8.58697 
33 1 1.48282 1.47537 9.28391 
16 1 4.52904 6.24528 4.53293 
17 1 2.98907 7.78484 3.00006 
18 1 3.69655 7.07757 3.70417 
25 1 0.668254 10.105 0.624168 
26 1 2.16753 8.60378 2.18913 
27 1 1.4715 9.30072 1.46264 
4 1 4.58333 6.19002 6.17746 
5 1 3.00586 7.76106 7.5749 
6 1 3.74617 7.02393 6.91921 
37 1 0.700563 10.0717 10.0192 
38 1 2.21768 8.54458 8.40019 
39 1 1.72525 9.02248 9.45377 
49 2 2.04871 8.6805 10.494 
50 2 3.43555 7.68995 10.2709 
51 3 3.97275 8.0499 10.9351 
13 1 6.22717 4.54539 4.53433 
14 1 7.76983 3.00606 3.00681 
15 1 7.06028 3.71406 3.70936 
28 1 10.0999 0.672769 0.67859 
29 1 8.58534 2.18994 2.19628 
30 1 9.29166 1.4824 1.48847 
1 1 6.1668 4.60619 6.17075 
2 1 7.68428 3.08521 7.67968 
3 1 6.97598 3.79525 6.9753 
40 1 10.0202 0.753069 10.0515 
41 1 8.49396 2.27463 8.49985 
42 1 9.19802 1.57273 9.21571 
7 1 6.16083 6.18289 4.5967 
8 1 7.68777 7.68737 3.08077 
9 1 6.97508 6.98516 3.78833 
43 1 10.0339 10.0418 0.736669 
44 1 8.50479 8.50103 2.26936 
45 1 9.20945 9.21101 1.56307 
22 1 6.22546 6.24187 6.23391 
23 1 7.76994 7.76849 7.77028 
24 1 7.0594 7.066 7.06336 
34 1 10.1163 10.106 10.086 
35 1 8.58246 8.58418 8.58624 
36 1 9.29645 9.29256 9.28435 
ITEM: TIMESTEP
130
ITEM: NUMBER OF ATOMS
51
ITEM: BOX BOUNDS pp pp pp
0.0000000000000000e+00 1.1000000000000000e+01
0.0000000000000000e+00 1.1002000000000001e+01
0.0000000000000000e+00 1.1000000000000000e+01
ITEM: ATOMS id type x y z 
10 1 4.58957 4.61305 4.59522 
11 1 3.08404 3.08434 3.08201 
12 1 3.78674 3.79786 3.7883 
46 1 0.733157 0.736927 0.735329 
47 1 2.27128 2.26404 2.2731 
48 1 1.56252 1.56027 1.56451 
19 1 4.53083 4.54804 6.23249 
20 1 3.00637 3.00435 7.77189 
21 1 3.70779 3.71462 7.06359 
31 1 0.669801 0.653875 10.0841 
32 1 2.19092 2.19083 8.58696 
33 1 1.48282 1.47536 9.2839 
16 1 4.52904 6.24529 4.5329 
17 1 2.98906 7.78485 3.00003 
18 1 3.69651 7.07759 3.70421 
25 1 0.668248 10.105 0.624172 
26 1 2.16751 8.6038 2.18915 
27 1 1.4715 9.30072 1.46263 
4 1 4.58333 6.19007 6.17748 
5 1 3.00583 7.76114 7.57484 
6 1 3.74606 7.02393 6.91914 
37 1 0.700577 10.0717 10.0192 
38 1 2.21768 8.54457 8.40025 
39 1 1.72527 9.02244 9.45386 
49 2 2.04873 8.68043 10.4941 
50 2 3.43567 7.68988 10.2709 
51 3 3.97283 8.04985 10.9351 
13 1 6.22716 4.5454 4.53433 
14 1 7.76981 3.00606 3.00681 
15 1 7.06029 3.71406 3.70938 
28 1 10.0999 0.672781 0.678572 
29 1 8.58534 2.18994 2.19628 
30 1 9.29168 1.4824 1.48848 
1 1 6.1668 4.60623 6.17074 
2 1 7.6843 3.08523 7.67967 
3 1 6.97594 3.79523 6.97531 
40 1 10.0202 0.753074 10.0515 
41 1 8.49396 2.27463 8.4999 
42 1 9.19804 1.57273 9.21564 
7 1 6.16084 6.18289 4.59671 
8 1 7.68777 7.68738 3.08077 
9 1 6.97508 6.98516 3.78833 
43 1 10.0339 10.0418 0.736651 
44 1 8.50479 8.501 2.26937 
45 1 9.20943 9.21106 1.56306 
22 1 6.22546 6.24185 6.2339 
23 1 7.76996 7.76846 7.77027 
24 1 7.05931 7.06605 7.06337 
34 1 10.1164 10.106 10.086 
35 1 8.58246 8.58418 8.58623 
36 1 9.29645 9.29255 9.28434 
ITEM: TIMESTEP
140
ITEM: NUMBER OF ATOMS
51
ITEM: BOX BOUNDS pp pp pp
0.0000000000000000e+00 1.1000000000000000e+01
0.0000000000000000e+00 1.1002000000000001e+01
0.0000000000000000e+00 1.1000000000000000e+01
ITEM: ATOMS id type x y z 
10 1 4.58957 4.61304 4.59522 
11 1 3.08404 3.08434 3.08201 
12 1 3.78674 3.79786 3.7883 
46 1 0.73316 0.736919 0.73533 
47 1 2.27128 2.26403 2.27311 
48 1 1.56251 1.56029 1.56449 
19 1 4.53083 4.54805 6.23249 
20 1 3.00637 3.00435 7.77189 
21 1 3.70779 3.71463 7.06359 
31 1 0.669804 0.653871 10.0841 
32 1 2.19092 2.19082 8.58696 
33 1 1.48282 1.47535 9.2839 
16 1 4.52904 6.24529 4.5329 
17 1 2.98905 7.78486 3.00003 
18 1 3.69651 7.07759 3.70421 
25 1 0.668248 10.105 0.624172 
26 1 2.16751 8.6038 2.18916 
27 1 1.4715 9.30072 1.46263 
4 1 4.58333 6.19008 6.17748 
5 1 3.00582 7.76116 7.57482 
6 1 3.74605 7.02394 6.91913 
37 1 0.70058 10.0717 10.0192 
38 1 2.21768 8.54456 8.40026 
39 1 1.72527 9.02244 9.45388 
49 2 2.04873 8.68041 10.4941 
50 2 3.4357 7.68987 10.2709 
51 3 3.97286 8.04984 10.9351 
13 1 6.22716 4.5454 4.53433 
14 1 7.76981 3.00606 3.00681 
15 1 7.06028 3.71406 3.70938 
28 1 10.0999 0.672784 0.678569 
29 1 8.58534 2.18994 2.19628 
30 1 9.29168 1.4824 1.48848 
1 1 6.1668 4.60623 6.17074 
2 1 7.6843 3.08523 7.67967 
3 1 6.97594 3.79522 6.97532 
40 1 10.0202 0.753071 10.0515 
41 1 8.49397 2.27462 8.4999 
42 1 9.19803 1.57273 9.21564 
7 1 6.16085 6.18289 4.59672 
8 1 7.68777 7.68738 3.08077 
9 1 6.97508 6.98516 3.78833 
43 1 10.0339 10.0418 0.736649 
44 1 8.50479 8.501 2.26937 
45 1 9.20943 9.21105 1.56306 
22 1 6.22545 6.24185 6.2339 
23 1 7.76996 7.76846 7.77027 
24 1 7.05931 7.06605 7.06337 
34 1 10.1164 10.106 10.086 
35 1 8.58246 8.58418 8.58623 
36 1 9.29646 9.29255 9.28434 
ITEM: TIMESTEP
141
ITEM: NUMBER OF ATOMS
51
ITEM: BOX BOUNDS pp pp pp
0.0000000000000000e+00 1.1000000000000000e+01
0.0000000000000000e+00 1.1002000000000001e+01
0.0000000000000000e+00 1.1000000000000000e+01
ITEM: ATOMS id type x y z 
10 1 4.58957 4.61304 4.59522 
11 1 3.08404 3.08434 3.08201 
12 1 3.78674 3.79786 3.7883 
46 1 0.73316 0.736919 0.73533 
47 1 2.27128 2.26403 2.27311 
48 1 1.56251 1.56029 1.56449 
19 1 4.53083 4.54805 6.23249 
20 1 3.00637 3.00435 7.77189 
21 1 3.70779 3.71463 7.06359 
31 1 0.669804 0.653871 10.0841 
32 1 2.19092 2.19082 8.58696 
33 1 1.48282 1.47535 9.2839 
16 1 4.52904 6.24529 4.5329 
17 1 2.98905 7.78486 3.00003 
18 1 3.69651 7.07759 3.70421 
25 1 0.668248 10.105 0.624172 
26 1 2.16751 8.6038 2.18916 
27 1 1.4715 9.30072 1.46263 
4 1 4.58333 6.19008 6.17748 
5 1 3.00582 7.76116 7.57482 
6 1 3.74605 7.02394 6.91913 
37 1 0.70058 10.0717 10.0192 
38 1 2.21768 8.54456 8.40026 
39 1 1.72527 9.02244 9.45388 
49 2 2.04873 8.68041 10.4941 
50 2 3.4357 7.68987 10.2709 
51 3 3.97286 8.04984 10.9351 
13 1 6.22716 4.5454 4.53433 
14 1 7.76981 3.00606 3.00681 
15 1 7.06028 3.71406 3.70938 
28 1 10.0999 0.672784 0.678568 
29 1 8.58534 2.18994 2.19628 
30 1 9.29168 1.4824 1.48848 
1 1 6.1668 4.60623 6.17074 
2 1 7.6843 3.08523 7.67967 
3 1 6.97594 3.79522 6.97531 
40 1 10.0202 0.753071 10.0515 
41 1 8.49397 2.27462 8.4999 
42 1 9.19803 1.57273 9.21564 
7 1 6.16085 6.18289 4.59672 
8 1 7.68777 7.68738 3.08077 
9 1 6.97508 6.98516 3.78833 
43 1 10.0339 10.0418 0.736648 
44 1 8.50479 8.501 2.26937 
45 1 9.20943 9.21105 1.56306 
22 1 6.22545 6.24185 6.2339 
23 1 7.76996 7.76846 7.77027 
24 1 7.05931 7.06605 7.06337 
34 1 10.1164 10.106 10.086 
35 1 8.58246 8.58418 8.58623 
36 1 9.29646 9.29255 9.28434 
ITEM: TIMESTEP
143
ITEM: NUMBER OF ATOMS
51
ITEM: BOX BOUNDS pp pp pp
0.0000000000000000e+00 1.1000000000000000e+01
0.0000000000000000e+00 1.1002000000000001e+01
0.0000000000000000e+00 1.1000000000000000e+01
ITEM: ATOMS id type x y z 
10 1 4.58957 4.61304 4.59522 
11 1 3.08404 3.08434 3.08201 
12 1 3.78674 3.79786 3.7883 
46 1 0.73316 0.736919 0.73533 
47 1 2.27129 2.26403 2.27311 
48 1 1.56251 1.56029 1.56449 
19 1 4.53083 4.54805 6.23249 
20 1 3.00637 3.00435 7.77189 
21 1 3.70779 3.71463 7.06359 
31 1 0.669804 0.653871 10.0841 
32 1 2.19092 2.19082 8.58696 
33 1 1.48282 1.47535 9.2839 
16 1 4.52904 6.24529 4.5329 
17 1 2.98905 7.78486 3.00003 
18 1 3.69651 7.07759 3.70421 
25 1 0.668247 10.105 0.624172 
26 1 2.16751 8.6038 2.18916 
27 1 1.4715 9.30072 1.46263 
4 1 4.58333 6.19008 6.17748 
5 1 3.00582 7.76116 7.57482 
6 1 3.74605 7.02394 6.91913 
37 1 0.70058 10.0717 10.0192 
38 1 2.21768 8.54456 8.40026 
39 1 1.72527 9.02244 9.45388 
49 2 2.04873 8.68041 10.4941 
50 2 3.4357 7.68987 10.2709 
51 3 3.97286 8.04984 10.9351 
13 1 6.22716 4.5454 4.53433 
14 1 7.76981 3.00606 3.00681 
15 1 7.06029 3.71406 3.70938 
28 1 10.0999 0.672784 0.678568 
29 1 8.58534 2.18994 2.19628 
30 1 9.29168 1.4824 1.48848 
1 1 6.1668 4.60623 6.17074 
2 1 7.6843 3.08523 7.67967 
3 1 6.97594 3.79522 6.97531 
40 1 10.0202 0.753071 10.0515 
41 1 8.49397 2.27462 8.4999 
42 1 9.19803 1.57273 9.21564 
7 1 6.16085 6.18289 4.59672 
8 1 7.68777 7.68738 3.08077 
9 1 6.97508 6.98516 3.78833 
43 1 10.0339 10.0418 0.736648 
44 1 8.50479 8.501 2.26937 
45 1 9.20943 9.21105 1.56306 
22 1 6.22545 6.24185 6.2339 
23 1 7.76996 7.76846 7.77027 
24 1 7.05931 7.06605 7.06337 
34 1 10.1164 10.106 10.086 
35 1 8.58246 8.58418 8.58623 
36 1 9.29646 9.29255 9.28434 
ITEM: TIMESTEP
150
ITEM: NUMBER OF ATOMS
51
ITEM: BOX BOUNDS pp pp pp
-3.2406810184706560e-03 1.1003240681018474e+01
-2.1066385712918477e-03 1.1004106638571294e+01
-3.6555896564772292e-03 1.1003655589656478e+01
ITEM: ATOMS id type x y z 
10 1 4.58923 4.6129 4.59482 
11 1 3.08266 3.08348 3.08046 
12 1 3.78567 3.79714 3.78711 
46 1 0.730201 0.734916 0.732008 
47 1 2.26934 2.2627 2.27091 
48 1 1.56004 1.55871 1.56173 
19 1 4.53041 4.54786 6.23282 
20 1 3.00497 3.00346 7.77333 
21 1 3.70686 3.71408 7.06451 
31 1 0.666788 0.651732 10.0873 