 # C1
  
         128  atoms
           1  atom types
 
      0.000000000000      15.427800000000  xlo xhi
      0.000000000000      13.360866724506  ylo yhi
      0.000000000000      25.208400000000  zlo zhi
     -7.713900000000       0.000000000000       0.000000000000  xy xz yz
 
Masses
 
            1   12.01100000             # C
 
Atoms # charge
 
         1    1   0.000000        7.713900000000       5.830147803905      16.178751120000
         2    1   0.000000        7.713977139000       4.453577705279      16.862655012000
         3    1   0.000000        7.713977139000       3.035722528475      12.207167700000
         4    1   0.000000        7.713900000000       1.925835329670      13.283062212000
         5    1   0.000000        6.522179589000       2.341491893470      14.170145808000
         6    1   0.000000        9.682872975000       3.316835164359      13.491787764000
         7    1   0.000000        8.924056632000       3.754937984255      12.262878264000
         8    1   0.000000        8.934701814000       6.015062199372      15.476949264000
         9    1   0.000000        7.713977139000       4.453577705279      18.302054652000
        10    1   0.000000        4.349868210000       6.395846901021      12.803346360000
        11    1   0.000000        0.000000000000       7.530718920600       3.574551120000
        12    1   0.000000       -0.000077139000       8.907289019226       4.258455012000
        13    1   0.000000       -0.000077139000      10.325144196031      24.811367700000
        14    1   0.000000        0.000000000000      11.435031394835       0.678862212000
        15    1   0.000000        1.191720411000      11.019374831036       1.565945808000
        16    1   0.000000       -1.968972975000      10.044031560147       0.887587764000
        17    1   0.000000       -1.210156632000       9.605928740251      24.867078264000
        18    1   0.000000       -1.220801814000       7.345804525133       2.872749264000
        19    1   0.000000       -0.000077139000       8.907289019226       5.697854652000
        20    1   0.000000        3.364031790000       6.965019823485       0.199146360000
        21    1   0.000000        6.521793894000       3.765359460300      16.178751120000
        22    1   0.000000        8.941798602000       5.162638902349      12.207167700000
        23    1   0.000000        9.903027681000       5.717515697418      13.283062212000
        24    1   0.000000       10.138918743000       4.477627265384      14.170145808000
        25    1   0.000000        7.713900000000       6.727196395789      13.491787764000
        26    1   0.000000        7.713900000000       5.850990755995      12.262878264000
        27    1   0.000000        5.751252423000       4.730147646477      15.476949264000
        28    1   0.000000        7.713900000000       0.569172922464      12.803346360000
        29    1   0.000000        1.192106106000       9.595507264205       3.574551120000
        30    1   0.000000       -1.227898602000       8.198227822157      24.811367700000
        31    1   0.000000       -2.189127681000       7.643351027088       0.678862212000
        32    1   0.000000       -2.425018743000       8.883239459122       1.565945808000
        33    1   0.000000        0.000000000000       6.633670328717       0.887587764000
        34    1   0.000000        0.000000000000       7.509875968510      24.867078264000
        35    1   0.000000        1.962647577000       8.630719078029       2.872749264000
        36    1   0.000000        0.000000000000      12.791693802042       0.199146360000
        37    1   0.000000        8.906006106000       3.765359460300      16.178751120000
        38    1   0.000000        6.485924259000       5.162505293682      12.207167700000
        39    1   0.000000        5.524772319000       5.717515697418      13.283062212000
        40    1   0.000000        6.480601668000       6.541747565652      14.170145808000
        41    1   0.000000        5.744927025000       3.316835164359      13.491787764000
        42    1   0.000000        6.503743368000       3.754937984255      12.262878264000
        43    1   0.000000        8.455745763000       2.615656878656      15.476949264000
        44    1   0.000000       11.077931790000       6.395846901021      12.803346360000
        45    1   0.000000       -1.192106106000       9.595507264205       3.574551120000
        46    1   0.000000        1.227975741000       8.198361430824      24.811367700000
        47    1   0.000000        2.189127681000       7.643351027088       0.678862212000
        48    1   0.000000        1.233298332000       6.819119158853       1.565945808000
        49    1   0.000000        1.968972975000      10.044031560147       0.887587764000
        50    1   0.000000        1.210156632000       9.605928740251      24.867078264000
        51    1   0.000000       -0.741845763000      10.745209845849       2.872749264000
        52    1   0.000000       -3.364031790000       6.965019823485       0.199146360000
        53    1   0.000000        0.000000000000       7.530718920600       9.029648880000
        54    1   0.000000        0.000077139000       8.907289019226       8.345744988000
        55    1   0.000000        0.000077139000      10.325144196031      13.001232300000
        56    1   0.000000        0.000000000000      11.435031394835      11.925337788000
        57    1   0.000000       -1.191720411000      11.019374831036      11.038254192000
        58    1   0.000000        1.968972975000      10.044031560147      11.716612236000
        59    1   0.000000        1.210156632000       9.605928740251      12.945521736000
        60    1   0.000000        1.220801814000       7.345804525133       9.731450736000
        61    1   0.000000        0.000077139000       8.907289019226       6.906345348000
        62    1   0.000000       -3.364031790000       6.965019823485      12.405053640000
        63    1   0.000000        7.713900000000       5.830147803905      21.633848880000
        64    1   0.000000        7.713822861000       4.453577705279      20.949944988000
        65    1   0.000000        7.713822861000       3.035722528475       0.397032300000
        66    1   0.000000        7.713900000000       1.925835329670      24.529537788000
        67    1   0.000000        8.905620411000       2.341491893470      23.642454192000
        68    1   0.000000        5.744927025000       3.316835164359      24.320812236000
        69    1   0.000000        6.503743368000       3.754937984255       0.341321736000
        70    1   0.000000        6.493098186000       6.015062199372      22.335650736000
        71    1   0.000000        7.713822861000       4.453577705279      19.510545348000
        72    1   0.000000       11.077931790000       6.395846901021      25.009253640000
        73    1   0.000000       -1.192106106000       9.595507264205       9.029648880000
        74    1   0.000000        1.227898602000       8.198227822157      13.001232300000
        75    1   0.000000        2.189127681000       7.643351027088      11.925337788000
        76    1   0.000000        2.425018743000       8.883239459122      11.038254192000
        77    1   0.000000        0.000000000000       6.633670328717      11.716612236000
        78    1   0.000000        0.000000000000       7.509875968510      12.945521736000
        79    1   0.000000       -1.962647577000       8.630719078029       9.731450736000
        80    1   0.000000        0.000000000000      12.791693802042      12.405053640000
        81    1   0.000000        8.906006106000       3.765359460300      21.633848880000
        82    1   0.000000        6.486001398000       5.162638902349       0.397032300000
        83    1   0.000000        5.524772319000       5.717515697418      24.529537788000
        84    1   0.000000        5.288881257000       4.477627265384      23.642454192000
        85    1   0.000000        7.713900000000       6.727196395789      24.320812236000
        86    1   0.000000        7.713900000000       5.850990755995       0.341321736000
        87    1   0.000000        9.676547577000       4.730147646477      22.335650736000
        88    1   0.000000        7.713900000000       0.569172922464      25.009253640000
        89    1   0.000000        1.192106106000       9.595507264205       9.029648880000
        90    1   0.000000       -1.227975741000       8.198361430824      13.001232300000
        91    1   0.000000       -2.189127681000       7.643351027088      11.925337788000
        92    1   0.000000       -1.233298332000       6.819119158853      11.038254192000
        93    1   0.000000       -1.968972975000      10.044031560147      11.716612236000
        94    1   0.000000       -1.210156632000       9.605928740251      12.945521736000
        95    1   0.000000        0.741845763000      10.745209845849       9.731450736000
        96    1   0.000000        3.364031790000       6.965019823485      12.405053640000
        97    1   0.000000        6.521793894000       3.765359460300      21.633848880000
        98    1   0.000000        8.941875741000       5.162505293682       0.397032300000
        99    1   0.000000        9.903027681000       5.717515697418      24.529537788000
       100    1   0.000000        8.947198332000       6.541747565652      23.642454192000
       101    1   0.000000        9.682872975000       3.316835164359      24.320812236000
       102    1   0.000000        8.924056632000       3.754937984255       0.341321736000
       103    1   0.000000        6.972054237000       2.615656878656      22.335650736000
       104    1   0.000000        4.349868210000       6.395846901021      25.009253640000
       105    1   0.000000        1.191720411000      11.019374831036      11.038254192000
       106    1   0.000000       -1.220801814000       7.345804525133       9.731450736000
       107    1   0.000000        6.522179589000       2.341491893470      23.642454192000
       108    1   0.000000        8.934701814000       6.015062199372      22.335650736000
       109    1   0.000000       -2.425018743000       8.883239459122      11.038254192000
       110    1   0.000000        1.962647577000       8.630719078029       9.731450736000
       111    1   0.000000       10.138918743000       4.477627265384      23.642454192000
       112    1   0.000000        5.751252423000       4.730147646477      22.335650736000
       113    1   0.000000        1.233298332000       6.819119158853      11.038254192000
       114    1   0.000000       -0.741845763000      10.745209845849       9.731450736000
       115    1   0.000000        6.480601668000       6.541747565652      23.642454192000
       116    1   0.000000        8.455745763000       2.615656878656      22.335650736000
       117    1   0.000000        8.905620411000       2.341491893470      14.170145808000
       118    1   0.000000        6.493098186000       6.015062199372      15.476949264000
       119    1   0.000000       -1.191720411000      11.019374831036       1.565945808000
       120    1   0.000000        1.220801814000       7.345804525133       2.872749264000
       121    1   0.000000        5.288881257000       4.477627265384      14.170145808000
       122    1   0.000000        9.676547577000       4.730147646477      15.476949264000
       123    1   0.000000        2.425018743000       8.883239459122       1.565945808000
       124    1   0.000000       -1.962647577000       8.630719078029       2.872749264000
       125    1   0.000000        8.947198332000       6.541747565652      14.170145808000
       126    1   0.000000        6.972054237000       2.615656878656      15.476949264000
       127    1   0.000000       -1.233298332000       6.819119158853       1.565945808000
       128    1   0.000000        0.741845763000      10.745209845849       2.872749264000
