ITEM: TIMESTEP
0
ITEM: NUMBER OF ATOMS
128
ITEM: BOX BOUNDS xy xz yz pp pp pp
-7.7138999999999998e+00 1.5427800000000000e+01 -7.7138999999999998e+00
0.0000000000000000e+00 1.3360866724506000e+01 0.0000000000000000e+00
0.0000000000000000e+00 2.5208400000000001e+01 0.0000000000000000e+00
ITEM: ATOMS id type x y z 
33 1 0 6.63367 0.887588 
77 1 0 6.63367 11.7166 
41 1 5.74493 3.31684 13.4918 
68 1 5.74493 3.31684 24.3208 
11 1 0 7.53072 3.57455 
12 1 -7.7139e-05 8.90729 4.25846 
14 1 0 11.435 0.678862 
15 1 1.19172 11.0194 1.56595 
16 1 -1.96897 10.044 0.887588 
18 1 -1.2208 7.3458 2.87275 
19 1 -7.7139e-05 8.90729 5.69785 
20 1 3.36403 6.96502 0.199146 
29 1 1.19211 9.59551 3.57455 
31 1 -2.18913 7.64335 0.678862 
32 1 -2.42502 8.88324 1.56595 
35 1 1.96265 8.63072 2.87275 
36 1 0 12.7917 0.199146 
45 1 -1.19211 9.59551 3.57455 
47 1 2.18913 7.64335 0.678862 
48 1 1.2333 6.81912 1.56595 
51 1 -0.741846 10.7452 2.87275 
52 1 -3.36403 6.96502 0.199146 
53 1 0 7.53072 9.02965 
54 1 7.7139e-05 8.90729 8.34574 
56 1 0 11.435 11.9253 
57 1 -1.19172 11.0194 11.0383 
60 1 1.2208 7.3458 9.73145 
61 1 7.7139e-05 8.90729 6.90635 
62 1 -3.36403 6.96502 12.4051 
73 1 -1.19211 9.59551 9.02965 
75 1 2.18913 7.64335 11.9253 
76 1 2.42502 8.88324 11.0383 
79 1 -1.96265 8.63072 9.73145 
80 1 0 12.7917 12.4051 
89 1 1.19211 9.59551 9.02965 
91 1 -2.18913 7.64335 11.9253 
92 1 -1.2333 6.81912 11.0383 
93 1 -1.96897 10.044 11.7166 
95 1 0.741846 10.7452 9.73145 
96 1 3.36403 6.96502 12.4051 
105 1 1.19172 11.0194 11.0383 
106 1 -1.2208 7.3458 9.73145 
109 1 -2.42502 8.88324 11.0383 
110 1 1.96265 8.63072 9.73145 
113 1 1.2333 6.81912 11.0383 
114 1 -0.741846 10.7452 9.73145 
119 1 -1.19172 11.0194 1.56595 
120 1 1.2208 7.3458 2.87275 
123 1 2.42502 8.88324 1.56595 
124 1 -1.96265 8.63072 2.87275 
127 1 -1.2333 6.81912 1.56595 
128 1 0.741846 10.7452 2.87275 
13 1 -7.7139e-05 10.3251 24.8114 
17 1 -1.21016 9.60593 24.8671 
30 1 -1.2279 8.19823 24.8114 
34 1 0 7.50988 24.8671 
46 1 1.22798 8.19836 24.8114 
50 1 1.21016 9.60593 24.8671 
55 1 7.7139e-05 10.3251 13.0012 
59 1 1.21016 9.60593 12.9455 
74 1 1.2279 8.19823 13.0012 
78 1 0 7.50988 12.9455 
90 1 -1.22798 8.19836 13.0012 
94 1 -1.21016 9.60593 12.9455 
3 1 7.71398 3.03572 12.2072 
7 1 8.92406 3.75494 12.2629 
22 1 8.9418 5.16264 12.2072 
26 1 7.7139 5.85099 12.2629 
38 1 6.48592 5.16251 12.2072 
42 1 6.50374 3.75494 12.2629 
65 1 7.71382 3.03572 0.397032 
69 1 6.50374 3.75494 0.341322 
82 1 6.486 5.16264 0.397032 
86 1 7.7139 5.85099 0.341322 
98 1 8.94188 5.16251 0.397032 
102 1 8.92406 3.75494 0.341322 
1 1 7.7139 5.83015 16.1788 
2 1 7.71398 4.45358 16.8627 
4 1 7.7139 1.92584 13.2831 
5 1 6.52218 2.34149 14.1701 
6 1 9.68287 3.31684 13.4918 
8 1 8.9347 6.01506 15.4769 
9 1 7.71398 4.45358 18.3021 
10 1 4.34987 6.39585 12.8033 
21 1 6.52179 3.76536 16.1788 
23 1 9.90303 5.71752 13.2831 
24 1 10.1389 4.47763 14.1701 
27 1 5.75125 4.73015 15.4769 
28 1 7.7139 0.569173 12.8033 
37 1 8.90601 3.76536 16.1788 
39 1 5.52477 5.71752 13.2831 
40 1 6.4806 6.54175 14.1701 
43 1 8.45575 2.61566 15.4769 
44 1 11.0779 6.39585 12.8033 
63 1 7.7139 5.83015 21.6338 
64 1 7.71382 4.45358 20.9499 
66 1 7.7139 1.92584 24.5295 
67 1 8.90562 2.34149 23.6425 
70 1 6.4931 6.01506 22.3357 
71 1 7.71382 4.45358 19.5105 
72 1 11.0779 6.39585 25.0093 
81 1 8.90601 3.76536 21.6338 
83 1 5.52477 5.71752 24.5295 
84 1 5.28888 4.47763 23.6425 
87 1 9.67655 4.73015 22.3357 
88 1 7.7139 0.569173 25.0093 
97 1 6.52179 3.76536 21.6338 
99 1 9.90303 5.71752 24.5295 
100 1 8.9472 6.54175 23.6425 
101 1 9.68287 3.31684 24.3208 
103 1 6.97205 2.61566 22.3357 
104 1 4.34987 6.39585 25.0093 
107 1 6.52218 2.34149 23.6425 
108 1 8.9347 6.01506 22.3357 
111 1 10.1389 4.47763 23.6425 
112 1 5.75125 4.73015 22.3357 
115 1 6.4806 6.54175 23.6425 
116 1 8.45575 2.61566 22.3357 
117 1 8.90562 2.34149 14.1701 
118 1 6.4931 6.01506 15.4769 
121 1 5.28888 4.47763 14.1701 
122 1 9.67655 4.73015 15.4769 
125 1 8.9472 6.54175 14.1701 
126 1 6.97205 2.61566 15.4769 
49 1 1.96897 10.044 0.887588 
58 1 1.96897 10.044 11.7166 
25 1 7.7139 6.7272 13.4918 
85 1 7.7139 6.7272 24.3208 
ITEM: TIMESTEP
10
ITEM: NUMBER OF ATOMS
128
ITEM: BOX BOUNDS xy xz yz pp pp pp
-7.7138999999999998e+00 1.5427800000000000e+01 -7.7138999999999998e+00
0.0000000000000000e+00 1.3360866724506000e+01 0.0000000000000000e+00
0.0000000000000000e+00 2.5208400000000001e+01 0.0000000000000000e+00
ITEM: ATOMS id type x y z 
33 1 -4.84217e-05 6.57647 0.862249 
77 1 4.84217e-05 6.57647 11.742 
41 1 5.69537 3.2882 13.4665 
68 1 5.69539 3.28826 24.3462 
11 1 0.000101264 7.46434 3.59722 
12 1 -0.000352854 8.90722 4.17828 
14 1 2.58239e-05 11.3611 0.704647 
15 1 1.24815 11.0514 1.5807 
16 1 -2.01851 10.0726 0.862226 
18 1 -1.25348 7.30198 2.91006 
19 1 -0.00226661 8.90742 5.74383 
20 1 3.36821 6.96273 0.198413 
29 1 1.24986 9.62878 3.59738 
31 1 -2.12512 7.68031 0.704665 
32 1 -2.48095 8.91619 1.5808 
35 1 2.01706 8.62444 2.91008 
36 1 -2.99524e-05 12.7965 0.198437 
45 1 -1.24935 9.6286 3.59706 
47 1 2.12512 7.68031 0.704629 
48 1 1.23277 6.75419 1.58075 
51 1 -0.763452 10.7955 2.91001 
52 1 -3.36806 6.96257 0.198423 
53 1 -0.000101264 7.46434 9.00698 
54 1 0.000352854 8.90722 8.42592 
56 1 -2.58239e-05 11.3611 11.8996 
57 1 -1.24815 11.0514 11.0235 
60 1 1.25348 7.30198 9.69414 
61 1 0.00226661 8.90742 6.86037 
62 1 -3.36821 6.96273 12.4058 
73 1 -1.24986 9.62878 9.00682 
75 1 2.12512 7.68031 11.8995 
76 1 2.48095 8.91619 11.0234 
79 1 -2.01706 8.62444 9.69412 
80 1 2.99524e-05 12.7965 12.4058 
89 1 1.24935 9.6286 9.00714 
91 1 -2.12512 7.68031 11.8996 
92 1 -1.23277 6.75419 11.0235 
93 1 -2.01853 10.0727 11.7419 
95 1 0.763452 10.7955 9.69419 
96 1 3.36806 6.96257 12.4058 
105 1 1.2482 11.0514 11.0234 
106 1 -1.25353 7.30184 9.69416 
109 1 -2.48096 8.91608 11.0235 
110 1 2.01696 8.62425 9.69419 
113 1 1.23279 6.75428 11.0235 
114 1 -0.763569 10.7954 9.6941 
119 1 -1.2482 11.0514 1.58078 
120 1 1.25353 7.30184 2.91004 
123 1 2.48096 8.91608 1.58066 
124 1 -2.01696 8.62425 2.91001 
127 1 -1.23279 6.75428 1.58074 
128 1 0.763569 10.7954 2.9101 
13 1 -2.24451e-05 10.331 24.7488 
17 1 -1.25473 9.63164 24.8242 
30 1 -1.23303 8.19534 24.7489 
34 1 5.22786e-06 7.45843 24.8242 
46 1 1.23303 8.19536 24.7488 
50 1 1.25469 9.63167 24.8242 
55 1 2.24451e-05 10.331 13.0638 
59 1 1.25473 9.63164 12.9884 
74 1 1.23303 8.19534 13.0637 
78 1 -5.22797e-06 7.45843 12.9884 
90 1 -1.23303 8.19536 13.0638 
94 1 -1.25469 9.63167 12.9884 
3 1 7.71392 3.02985 12.1446 
7 1 8.96863 3.72923 12.22 
22 1 8.94693 5.16552 12.1447 
26 1 7.71389 5.90243 12.22 
38 1 6.48087 5.1655 12.1446 
42 1 6.45921 3.7292 12.22 
65 1 7.71388 3.02985 0.459566 
69 1 6.45917 3.72923 0.384202 
82 1 6.48087 5.16552 0.459544 
86 1 7.71391 5.90243 0.384218 
98 1 8.94693 5.1655 0.459574 
102 1 8.96859 3.7292 0.38424 
1 1 7.7138 5.89653 16.2014 
2 1 7.71425 4.45365 16.7825 
4 1 7.71387 1.99975 13.3088 
5 1 6.46575 2.30949 14.1849 
6 1 9.73241 3.28826 13.4664 
8 1 8.96738 6.05888 15.5143 
9 1 7.71617 4.45345 18.348 
10 1 4.34569 6.39813 12.8026 
21 1 6.46404 3.73208 16.2016 
23 1 9.83902 5.68056 13.3089 
24 1 10.1949 4.44468 14.185 
27 1 5.69684 4.73643 15.5143 
28 1 7.71393 0.564407 12.8026 
37 1 8.96325 3.73226 16.2013 
39 1 5.58878 5.68056 13.3088 
40 1 6.48113 6.60668 14.1849 
43 1 8.47735 2.56534 15.5142 
44 1 11.082 6.39829 12.8026 
63 1 7.714 5.89653 21.6112 
64 1 7.71355 4.45365 21.0301 
66 1 7.71393 1.99975 24.5038 
67 1 8.96205 2.30949 23.6277 
70 1 6.46042 6.05888 22.2983 
71 1 7.71163 4.45345 19.4646 
72 1 11.0821 6.39813 25.01 
81 1 8.96376 3.73208 21.611 
83 1 5.58878 5.68056 24.5037 
84 1 5.23295 4.44468 23.6276 
87 1 9.73096 4.73643 22.2983 
88 1 7.71387 0.564407 25.01 
97 1 6.46455 3.73226 21.6113 
99 1 9.83902 5.68056 24.5038 
100 1 8.94667 6.60668 23.6277 
101 1 9.73243 3.2882 24.3461 
103 1 6.95045 2.56534 22.2984 
104 1 4.34584 6.39829 25.01 
107 1 6.4657 2.30952 23.6276 
108 1 8.96743 6.05903 22.2984 
111 1 10.1949 4.44478 23.6277 
112 1 5.69694 4.73662 22.2984 
115 1 6.48111 6.60659 23.6277 
116 1 8.47747 2.56547 22.2983 
117 1 8.9621 2.30952 14.185 
118 1 6.46037 6.05903 15.5142 
121 1 5.23294 4.44478 14.1849 
122 1 9.73086 4.73662 15.5142 
125 1 8.94669 6.60659 14.1849 
126 1 6.95033 2.56547 15.5143 
49 1 2.01853 10.0727 0.862289 
58 1 2.01851 10.0726 11.742 
25 1 7.71395 6.7844 13.4664 
85 1 7.71385 6.7844 24.3462 
ITEM: TIMESTEP
20
ITEM: NUMBER OF ATOMS
128
ITEM: BOX BOUNDS xy xz yz pp pp pp
-7.7138999999999998e+00 1.5427800000000000e+01 -7.7138999999999998e+00
0.0000000000000000e+00 1.3360866724506000e+01 0.0000000000000000e+00
0.0000000000000000e+00 2.5208400000000001e+01 0.0000000000000000e+00
ITEM: ATOMS id type x y z 
33 1 1.04423e-05 6.56382 0.853197 
77 1 -1.04423e-05 6.56382 11.751 
41 1 5.68444 3.28192 13.4574 
68 1 5.68443 3.2819 24.3552 
11 1 4.5471e-05 7.46786 3.58673 
12 1 -6.2124e-05 8.90728 4.18609 
14 1 -2.28633e-07 11.3654 0.704093 
15 1 1.24702 11.0423 1.58406 
16 1 -2.02947 10.079 0.853185 
18 1 -1.26411 7.29523 2.9195 
19 1 -0.00172591 8.90728 5.704 
20 1 3.36844 6.96255 0.19907 
29 1 1.24666 9.62696 3.58683 
31 1 -2.12886 7.67817 0.704094 
32 1 -2.47255 8.91967 1.58399 
35 1 2.02811 8.61841 2.91949 
36 1 -2.08403e-05 12.7968 0.199092 
45 1 -1.24657 9.62696 3.58658 
47 1 2.12884 7.67813 0.704083 
48 1 1.2255 6.75977 1.584 
51 1 -0.763881 10.8081 2.91946 
52 1 -3.36837 6.96244 0.199069 
53 1 -4.5471e-05 7.46786 9.01747 
54 1 6.21241e-05 8.90728 8.41811 
56 1 2.28425e-07 11.3654 11.9001 
57 1 -1.24702 11.0423 11.0201 
60 1 1.26411 7.29523 9.6847 
61 1 0.00172591 8.90728 6.9002 
62 1 -3.36844 6.96255 12.4051 
73 1 -1.24666 9.62696 9.01737 
75 1 2.12886 7.67817 11.9001 
76 1 2.47255 8.91967 11.0202 
79 1 -2.02811 8.61841 9.68471 
80 1 2.08406e-05 12.7968 12.4051 
89 1 1.24657 9.62696 9.01762 
91 1 -2.12884 7.67813 11.9001 
92 1 -1.2255 6.75977 11.0202 
93 1 -2.02946 10.0789 11.751 
95 1 0.763881 10.8081 9.68474 
96 1 3.36837 6.96244 12.4051 
105 1 1.24702 11.0423 11.0202 
106 1 -1.26422 7.29529 9.68472 
109 1 -2.47248 8.91968 11.0202 
110 1 2.0281 8.61842 9.68473 
113 1 1.22548 6.75977 11.0202 
114 1 -0.763977 10.808 9.68468 
119 1 -1.24702 11.0423 1.58398 
120 1 1.26422 7.29529 2.91948 
123 1 2.47248 8.91968 1.58404 
124 1 -2.0281 8.61842 2.91947 
127 1 -1.22548 6.75977 1.58404 
128 1 0.763977 10.808 2.91952 
13 1 -1.49516e-05 10.3223 24.7537 
17 1 -1.2653 9.63775 24.8135 
30 1 -1.22545 8.19972 24.7538 
34 1 4.20395e-06 7.4462 24.8135 
46 1 1.22546 8.19974 24.7537 
50 1 1.26529 9.63778 24.8135 
55 1 1.49517e-05 10.3223 13.0589 
59 1 1.2653 9.63775 12.9991 
74 1 1.22545 8.19972 13.0588 
78 1 -4.20397e-06 7.4462 12.9991 
90 1 -1.22546 8.19974 13.0589 
94 1 -1.26529 9.63778 12.9991 
3 1 7.71391 3.03859 12.1495 
7 1 8.9792 3.72312 12.2093 
22 1 8.93935 5.16115 12.1496 
26 1 7.7139 5.91466 12.2093 
38 1 6.48844 5.16113 12.1495 
42 1 6.44861 3.72309 12.2093 
65 1 7.71389 3.03859 0.454656 
69 1 6.4486 3.72312 0.394858 
82 1 6.48845 5.16115 0.454649 
86 1 7.7139 5.91466 0.394857 
98 1 8.93936 5.16113 0.454663 
102 1 8.97919 3.72309 0.394856 
1 1 7.71385 5.893 16.1909 
2 1 7.71396 4.45358 16.7903 
4 1 7.7139 1.99544 13.3083 
5 1 6.46688 2.31861 14.1883 
6 1 9.74337 3.2819 13.4574 
8 1 8.97801 6.06563 15.5237 
9 1 7.71563 4.45359 18.3082 
10 1 4.34546 6.39832 12.8033 
21 1 6.46724 3.7339 16.191 
23 1 9.84276 5.6827 13.3083 
24 1 10.1864 4.4412 14.1882 
27 1 5.68579 4.74246 15.5237 
28 1 7.71392 0.564114 12.8033 
37 1 8.96047 3.7339 16.1908 
39 1 5.58506 5.68273 13.3083 
40 1 6.4884 6.60109 14.1882 
43 1 8.47778 2.5528 15.5237 
44 1 11.0823 6.39843 12.8033 
63 1 7.71395 5.893 21.6217 
64 1 7.71384 4.45358 21.0223 
66 1 7.7139 1.99544 24.5043 
67 1 8.96092 2.31861 23.6243 
70 1 6.44979 6.06563 22.2889 
71 1 7.71217 4.45359 19.5044 
72 1 11.0823 6.39832 25.0093 
81 1 8.96056 3.7339 21.6216 
83 1 5.58504 5.6827 24.5043 
84 1 5.24135 4.4412 23.6244 
87 1 9.74201 4.74246 22.2889 
88 1 7.71388 0.564114 25.0093 
97 1 6.46733 3.7339 21.6218 
99 1 9.84274 5.68273 24.5043 
100 1 8.9394 6.60109 23.6244 
101 1 9.74336 3.28192 24.3552 
103 1 6.95002 2.5528 22.2889 
104 1 4.34553 6.39843 25.0093 
107 1 6.46688 2.31856 23.6244 
108 1 8.97812 6.06558 22.2889 
111 1 10.1864 4.44118 23.6244 
112 1 5.6858 4.74244 22.2889 
115 1 6.48842 6.6011 23.6244 
116 1 8.47788 2.55286 22.2889 
117 1 8.96092 2.31856 14.1882 
118 1 6.44968 6.06558 15.5237 
121 1 5.24142 4.44118 14.1882 
122 1 9.742 4.74244 15.5237 
125 1 8.93938 6.6011 14.1882 
126 1 6.94992 2.55286 15.5237 
49 1 2.02946 10.0789 0.853205 
58 1 2.02947 10.079 11.751 
25 1 7.71389 6.79704 13.4574 
85 1 7.71391 6.79704 24.3552 
ITEM: TIMESTEP
30
ITEM: NUMBER OF ATOMS
128
ITEM: BOX BOUNDS xy xz yz pp pp pp
-7.7138999999999998e+00 1.5427800000000000e+01 -7.7138999999999998e+00
0.0000000000000000e+00 1.3360866724506000e+01 0.0000000000000000e+00
0.0000000000000000e+00 2.5208400000000001e+01 0.0000000000000000e+00
ITEM: ATOMS id type x y z 
33 1 -5.87386e-05 6.5594 0.849749 
77 1 5.87396e-05 6.5594 11.7545 
41 1 5.68059 3.27974 13.454 
68 1 5.68057 3.27964 24.3587 
11 1 -9.31869e-06 7.46873 3.58122 
12 1 -4.92983e-05 8.90724 4.18359 
14 1 3.59853e-05 11.3637 0.706011 
15 1 1.24607 11.0372 1.5847 
16 1 -2.03333 10.0812 0.849673 
18 1 -1.2689 7.29234 2.92325 
19 1 -0.000153312 8.90729 5.70401 
20 1 3.36889 6.96308 0.198966 
29 1 1.24579 9.6265 3.58122 
31 1 -2.12743 7.67907 0.705882 
32 1 -2.46783 8.92165 1.58485 
35 1 2.03297 8.61583 2.9233 
36 1 -9.50152e-06 12.7969 0.199095 
45 1 -1.2459 9.62654 3.58118 
47 1 2.1273 7.67879 0.705959 
48 1 1.22143 6.76291 1.58483 
51 1 -0.764065 10.8136 2.92327 
52 1 -3.36816 6.96178 0.19895 
53 1 9.32091e-06 7.46873 9.02298 
54 1 4.92979e-05 8.90724 8.42061 
56 1 -3.59858e-05 11.3637 11.8982 
57 1 -1.24607 11.0372 11.0195 
60 1 1.2689 7.29234 9.68095 
61 1 0.000153312 8.90729 6.90019 
62 1 -3.36889 6.96308 12.4052 
73 1 -1.24579 9.6265 9.02298 
75 1 2.12743 7.67907 11.8983 
76 1 2.46783 8.92165 11.0193 
79 1 -2.03297 8.61583 9.6809 
80 1 9.50175e-06 12.7969 12.4051 
89 1 1.2459 9.62654 9.02302 
91 1 -2.1273 7.67879 11.8982 
92 1 -1.22143 6.76291 11.0194 
93 1 -2.03331 10.0811 11.7544 
95 1 0.764065 10.8136 9.68093 
96 1 3.36816 6.96178 12.4052 
105 1 1.24602 11.0373 11.0196 
106 1 -1.26891 7.2924 9.68086 
109 1 -2.46753 8.92119 11.0196 
110 1 2.03299 8.61575 9.68092 
113 1 1.22169 6.76333 11.0197 
114 1 -0.764035 10.8135 9.68088 
119 1 -1.24602 11.0373 1.58462 
120 1 1.26891 7.2924 2.92334 
123 1 2.46753 8.92119 1.58457 
124 1 -2.03299 8.61575 2.92328 
127 1 -1.22169 6.76333 1.58449 
128 1 0.764035 10.8135 2.92332 
13 1 -1.04109e-05 10.318 24.7569 
17 1 -1.26947 9.64017 24.8098 
30 1 -1.22191 8.20182 24.757 
34 1 1.32724e-06 7.44134 24.8099 
46 1 1.22187 8.20183 24.7569 
50 1 1.26951 9.64019 24.8099 
55 1 1.04094e-05 10.318 13.0557 
59 1 1.26947 9.64017 13.0028 
74 1 1.22191 8.20182 13.0556 
78 1 -1.33035e-06 7.44134 13.0027 
90 1 -1.22187 8.20183 13.0557 
94 1 -1.26951 9.64019 13.0027 
3 1 7.71391 3.04282 12.1527 
7 1 8.98337 3.7207 12.2056 
22 1 8.93581 5.15905 12.1528 
26 1 7.7139 5.91953 12.2057 
38 1 6.49203 5.15904 12.1527 
42 1 6.44439 3.72068 12.2057 
65 1 7.71389 3.04282 0.451544 
69 1 6.44443 3.7207 0.398571 
82 1 6.49199 5.15905 0.451432 
86 1 7.7139 5.91953 0.398544 
98 1 8.93577 5.15904 0.45149 
102 1 8.98341 3.72068 0.398521 
1 1 7.71391 5.89213 16.1854 
2 1 7.71395 4.45363 16.7878 
4 1 7.71386 1.99713 13.3102 
5 1 6.46783 2.32368 14.1889 
6 1 9.74723 3.27964 13.4539 
8 1 8.9828 6.06853 15.5274 
9 1 7.71405 4.45357 18.3082 
10 1 4.34501 6.39779 12.8032 
21 1 6.46811 3.73437 16.1854 
23 1 9.84133 5.6818 13.3101 
24 1 10.1817 4.43922 14.1891 
27 1 5.68093 4.74504 15.5275 
28 1 7.71391 0.563991 12.8033 
37 1 8.9598 3.73432 16.1854 
39 1 5.5866 5.68208 13.3102 
40 1 6.49247 6.59795 14.189 
43 1 8.47796 2.54724 15.5275 
44 1 11.0821 6.39908 12.8032 
63 1 7.71389 5.89213 21.6272 
64 1 7.71385 4.45363 21.0248 
66 1 7.71394 1.99713 24.5024 
67 1 8.95997 2.32368 23.6237 
70 1 6.445 6.06853 22.2852 
71 1 7.71375 4.45357 19.5044 
72 1 11.0828 6.39779 25.0094 
81 1 8.95969 3.73437 21.6272 
83 1 5.58647 5.6818 24.5025 
84 1 5.24607 4.43922 23.6235 
87 1 9.74687 4.74504 22.2851 
88 1 7.71389 0.563991 25.0093 
97 1 6.468 3.73432 21.6272 
99 1 9.8412 5.68208 24.5024 
100 1 8.93533 6.59795 23.6236 
101 1 9.74721 3.27974 24.3586 
103 1 6.94984 2.54724 22.2851 
104 1 4.34574 6.39908 25.0094 
107 1 6.46788 2.32359 23.6238 
108 1 8.98281 6.06847 22.2851 
111 1 10.1814 4.43968 23.6238 
112 1 5.68091 4.74512 22.2851 
115 1 6.49221 6.59753 23.6239 
116 1 8.47794 2.54732 22.2851 
117 1 8.95992 2.32359 14.1888 
118 1 6.44499 6.06847 15.5275 
121 1 5.24637 4.43968 14.1888 
122 1 9.74689 4.74512 15.5275 
125 1 8.93559 6.59753 14.1887 
126 1 6.94986 2.54732 15.5275 
49 1 2.03331 10.0811 0.84977 
58 1 2.03333 10.0812 11.7545 
25 1 7.71396 6.80147 13.4539 
85 1 7.71384 6.80147 24.3587 
ITEM: TIMESTEP
31
ITEM: NUMBER OF ATOMS
128
ITEM: BOX BOUNDS xy xz yz pp pp pp
-7.7138999999999998e+00 1.5427800000000000e+01 -7.7138999999999998e+00
0.0000000000000000e+00 1.3360866724506000e+01 0.0000000000000000e+00
0.0000000000000000e+00 2.5208400000000001e+01 0.0000000000000000e+00
ITEM: ATOMS id type x y z 
33 1 -5.66682e-05 6.55937 0.849735 
77 1 5.66684e-05 6.55937 11.7545 
41 1 5.68058 3.27973 13.454 
68 1 5.68055 3.27963 24.3587 
11 1 -1.05865e-05 7.46872 3.58122 
12 1 -6.26094e-05 8.90724 4.1836 
14 1 3.34477e-05 11.3637 0.706001 
15 1 1.24608 11.0372 1.58471 
16 1 -2.03335 10.0812 0.849663 
18 1 -1.26892 7.29232 2.92327 
19 1 -0.000106419 8.90729 5.704 
20 1 3.36888 6.96308 0.198953 
29 1 1.2458 9.6265 3.58121 
31 1 -2.12742 7.67905 0.705875 
32 1 -2.46783 8.92166 1.58485 
35 1 2.033 8.61582 2.92332 
36 1 -8.49297e-06 12.7969 0.199066 
45 1 -1.24591 9.62655 3.58117 
47 1 2.12731 7.6788 0.705955 
48 1 1.22142 6.76291 1.58483 
51 1 -0.764072 10.8137 2.92329 
52 1 -3.36817 6.96181 0.198943 
53 1 1.05889e-05 7.46872 9.02298 
54 1 6.26091e-05 8.90724 8.4206 
56 1 -3.34482e-05 11.3637 11.8982 
57 1 -1.24608 11.0372 11.0195 
60 1 1.26892 7.29232 9.68093 
61 1 0.000106419 8.90729 6.9002 
62 1 -3.36888 6.96308 12.4052 
73 1 -1.2458 9.6265 9.02299 
75 1 2.12742 7.67905 11.8983 
76 1 2.46783 8.92166 11.0193 
79 1 -2.033 8.61582 9.68088 
80 1 8.49303e-06 12.7969 12.4051 
89 1 1.24591 9.62655 9.02303 
91 1 -2.12731 7.6788 11.8982 
92 1 -1.22142 6.76291 11.0194 
93 1 -2.03332 10.0811 11.7544 
95 1 0.764072 10.8137 9.68091 
96 1 3.36817 6.96181 12.4053 
105 1 1.24603 11.0373 11.0196 
106 1 -1.26893 7.29238 9.68084 
109 1 -2.46753 8.9212 11.0196 
110 1 2.03302 8.61574 9.6809 
113 1 1.22169 6.76332 11.0197 
114 1 -0.764042 10.8136 9.68086 
119 1 -1.24603 11.0373 1.58462 
120 1 1.26893 7.29238 2.92336 
123 1 2.46753 8.9212 1.58457 
124 1 -2.03302 8.61574 2.9233 
127 1 -1.22169 6.76332 1.5845 
128 1 0.764042 10.8136 2.92334 
13 1 -9.84315e-06 10.3181 24.7569 
17 1 -1.26948 9.64017 24.8098 
30 1 -1.22191 8.20182 24.757 
34 1 1.73989e-06 7.44133 24.8098 
46 1 1.22187 8.20183 24.7569 
50 1 1.26952 9.64019 24.8099 
55 1 9.84137e-06 10.3181 13.0557 
59 1 1.26948 9.64017 13.0028 
74 1 1.22191 8.20182 13.0556 
78 1 -1.7419e-06 7.44133 13.0028 
90 1 -1.22187 8.20183 13.0557 
94 1 -1.26952 9.64019 13.0027 
3 1 7.71391 3.04282 12.1527 
7 1 8.98338 3.7207 12.2056 
22 1 8.93581 5.15905 12.1528 
26 1 7.7139 5.91954 12.2056 
38 1 6.49203 5.15904 12.1527 
42 1 6.44438 3.72068 12.2057 
65 1 7.71389 3.04282 0.451531 
69 1 6.44442 3.7207 0.398594 
82 1 6.49199 5.15905 0.451428 
86 1 7.7139 5.91954 0.398563 
98 1 8.93577 5.15904 0.451482 
102 1 8.98342 3.72068 0.398539 
1 1 7.71391 5.89215 16.1854 
2 1 7.71396 4.45363 16.7878 
4 1 7.71387 1.99713 13.3102 
5 1 6.46782 2.32368 14.1889 
6 1 9.74725 3.27963 13.4539 
8 1 8.98282 6.06855 15.5275 
9 1 7.71401 4.45357 18.3082 
10 1 4.34502 6.39779 12.8032 
21 1 6.4681 3.73436 16.1854 
23 1 9.84132 5.68181 13.3101 
24 1 10.1817 4.43921 14.1891 
27 1 5.6809 4.74505 15.5275 
28 1 7.71391 0.564011 12.8033 
37 1 8.95981 3.73432 16.1854 
39 1 5.58659 5.68207 13.3102 
40 1 6.49248 6.59796 14.189 
43 1 8.47797 2.54721 15.5275 
44 1 11.0821 6.39906 12.8031 
63 1 7.71389 5.89215 21.6272 
64 1 7.71384 4.45363 21.0248 
66 1 7.71393 1.99713 24.5024 
67 1 8.95998 2.32368 23.6237 
70 1 6.44498 6.06855 22.2851 
71 1 7.71379 4.45357 19.5044 
72 1 11.0828 6.39779 25.0094 
81 1 8.9597 3.73436 21.6272 
83 1 5.58648 5.68181 24.5025 
84 1 5.24607 4.43921 23.6235 
87 1 9.7469 4.74505 22.2851 
88 1 7.71389 0.564011 25.0093 
97 1 6.46799 3.73432 21.6272 
99 1 9.84121 5.68207 24.5024 
100 1 8.93532 6.59796 23.6236 
101 1 9.74722 3.27973 24.3586 
103 1 6.94983 2.54721 22.2851 
104 1 4.34573 6.39906 25.0095 
107 1 6.46787 2.32359 23.6238 
108 1 8.98283 6.06849 22.285 
111 1 10.1814 4.43967 23.6238 
112 1 5.68088 4.74512 22.2851 
115 1 6.49221 6.59754 23.6239 
116 1 8.47794 2.54729 22.2851 
117 1 8.95993 2.32359 14.1888 
118 1 6.44497 6.06849 15.5276 
121 1 5.24637 4.43967 14.1888 
122 1 9.74692 4.74512 15.5275 
125 1 8.93559 6.59754 14.1887 
126 1 6.94986 2.54729 15.5275 
49 1 2.03332 10.0811 0.849754 
58 1 2.03335 10.0812 11.7545 
25 1 7.71396 6.80149 13.4539 
85 1 7.71384 6.80149 24.3587 
ITEM: TIMESTEP
38
ITEM: NUMBER OF ATOMS
128
ITEM: BOX BOUNDS xy xz yz pp pp pp
-7.7138999999999998e+00 1.5427800000000000e+01 -7.7138999999999998e+00
0.0000000000000000e+00 1.3360866724506000e+01 0.0000000000000000e+00
0.0000000000000000e+00 2.5208400000000001e+01 0.0000000000000000e+00
ITEM: ATOMS id type x y z 
33 1 -3.61779e-05 6.55939 0.849708 
77 1 3.6174e-05 6.55939 11.7545 
41 1 5.6806 3.27974 13.454 
68 1 5.68056 3.27965 24.3587 
11 1 -3.13631e-05 7.46873 3.58128 
12 1 -8.83963e-05 8.90727 4.18361 
14 1 1.16178e-05 11.3637 0.70581 
15 1 1.24615 11.0372 1.58474 
16 1 -2.03334 10.0812 0.849688 
18 1 -1.26888 7.29231 2.92326 
19 1 -3.7211e-05 8.90727 5.70407 
20 1 3.36892 6.96287 0.199303 
29 1 1.24578 9.62649 3.5813 
31 1 -2.12741 7.67902 0.705722 
32 1 -2.46788 8.92162 1.58481 
35 1 2.033 8.61584 2.92331 
36 1 2.1134e-05 12.797 0.199282 
45 1 -1.24587 9.62655 3.58125 
47 1 2.12735 7.67891 0.70577 
48 1 1.22148 6.76286 1.58484 
51 1 -0.764123 10.8136 2.92328 
52 1 -3.36836 6.96186 0.199294 
53 1 3.13655e-05 7.46873 9.02292 
54 1 8.83962e-05 8.90727 8.42059 
56 1 -1.16183e-05 11.3637 11.8984 
57 1 -1.24615 11.0372 11.0195 
60 1 1.26888 7.29231 9.68094 
61 1 3.72108e-05 8.90727 6.90013 
62 1 -3.36892 6.96287 12.4049 
73 1 -1.24578 9.62649 9.0229 
75 1 2.12741 7.67902 11.8985 
76 1 2.46788 8.92162 11.0194 
79 1 -2.033 8.61584 9.68089 
80 1 -2.11345e-05 12.797 12.4049 
89 1 1.24587 9.62655 9.02295 
91 1 -2.12735 7.67891 11.8984 
92 1 -1.22148 6.76286 11.0194 
93 1 -2.0333 10.0811 11.7544 
95 1 0.764123 10.8136 9.68092 
96 1 3.36836 6.96186 12.4049 
105 1 1.24611 11.0373 11.0195 
106 1 -1.2689 7.29235 9.68086 
109 1 -2.46762 8.92124 11.0196 
110 1 2.03303 8.61578 9.68091 
113 1 1.2217 6.76321 11.0196 
114 1 -0.764078 10.8136 9.68087 
119 1 -1.24611 11.0373 1.58467 
120 1 1.2689 7.29235 2.92334 
123 1 2.46762 8.92124 1.58463 
124 1 -2.03303 8.61578 2.92329 
127 1 -1.2217 6.76321 1.58459 
128 1 0.764078 10.8136 2.92333 
13 1 5.71892e-07 10.3181 24.7569 
17 1 -1.26947 9.64018 24.8098 
30 1 -1.22192 8.20177 24.7569 
34 1 2.64887e-06 7.44137 24.8099 
46 1 1.2219 8.20177 24.7569 
50 1 1.2695 9.64018 24.8099 
55 1 -5.75161e-07 10.3181 13.0557 
59 1 1.26947 9.64018 13.0028 
74 1 1.22192 8.20177 13.0557 
78 1 -2.64487e-06 7.44137 13.0027 
90 1 -1.2219 8.20177 13.0557 
94 1 -1.2695 9.64018 13.0027 
3 1 7.7139 3.04273 12.1527 
7 1 8.98337 3.72069 12.2056 
22 1 8.93582 5.1591 12.1527 
26 1 7.7139 5.91949 12.2057 
38 1 6.492 5.1591 12.1527 
42 1 6.4444 3.72068 12.2057 
65 1 7.7139 3.04273 0.45152 
69 1 6.44443 3.72069 0.398566 
82 1 6.49198 5.1591 0.451463 
86 1 7.7139 5.91949 0.398533 
98 1 8.9358 5.1591 0.451483 
102 1 8.9834 3.72068 0.398519 
1 1 7.71393 5.89214 16.1855 
2 1 7.71399 4.45359 16.7878 
4 1 7.71389 1.99713 13.31 
5 1 6.46775 2.32363 14.1889 
6 1 9.74724 3.27965 13.4539 
8 1 8.98278 6.06856 15.5275 
9 1 7.71394 4.4536 18.3083 
10 1 4.34498 6.398 12.8035 
21 1 6.46812 3.73438 16.1855 
23 1 9.84131 5.68185 13.3099 
24 1 10.1818 4.43924 14.189 
27 1 5.6809 4.74503 15.5275 
28 1 7.71388 0.563861 12.8035 
37 1 8.95977 3.73431 16.1854 
39 1 5.58655 5.68196 13.31 
40 1 6.49242 6.59801 14.189 
43 1 8.47802 2.54725 15.5275 
44 1 11.0823 6.399 12.8035 
63 1 7.71387 5.89214 21.6271 
64 1 7.71381 4.45359 21.0248 
66 1 7.71391 1.99713 24.5026 
67 1 8.96005 2.32363 23.6237 
70 1 6.44502 6.06856 22.2851 
71 1 7.71386 4.4536 19.5043 
72 1 11.0828 6.398 25.0091 
81 1 8.95968 3.73438 21.6271 
83 1 5.58649 5.68185 24.5027 
84 1 5.24602 4.43924 23.6236 
87 1 9.7469 4.74503 22.2851 
88 1 7.71392 0.563861 25.0091 
97 1 6.46803 3.73431 21.6272 
99 1 9.84125 5.68196 24.5026 
100 1 8.93538 6.59801 23.6236 
101 1 9.7472 3.27974 24.3586 
103 1 6.94978 2.54725 22.2851 
104 1 4.34554 6.399 25.0091 
107 1 6.46779 2.32354 23.6237 
108 1 8.9828 6.06851 22.2851 
111 1 10.1815 4.43962 23.6238 
112 1 5.68087 4.74509 22.2851 
115 1 6.4922 6.59766 23.6238 
116 1 8.47798 2.5473 22.2851 
117 1 8.96001 2.32354 14.1889 
118 1 6.445 6.06851 15.5275 
121 1 5.24628 4.43962 14.1888 
122 1 9.74693 4.74509 15.5275 
125 1 8.9356 6.59766 14.1888 
126 1 6.94982 2.5473 15.5275 
49 1 2.0333 10.0811 0.849754 
58 1 2.03334 10.0812 11.7545 
25 1 7.71394 6.80147 13.4539 
85 1 7.71386 6.80147 24.3587 
ITEM: TIMESTEP
40
ITEM: NUMBER OF ATOMS
128
ITEM: BOX BOUNDS xy xz yz pp pp pp
-7.7169855599999995e+00 1.5429342780000001e+01 -7.7154427799999992e+00
-1.3360866724506002e-03 1.3362202811178449e+01 0.0000000000000000e+00
-2.5208399999999999e-03 2.5210920840000004e+01 0.0000000000000000e+00
ITEM: ATOMS id type x y z 
33 1 -0.00157896 6.55937 0.847358 
77 1 -0.0015066 6.55937 11.7543 
41 1 5.68019 3.27906 13.4541 
68 1 5.68016 3.27897 24.3611 
11 1 -0.00157415 7.46889 3.57948 
12 1 -0.00163123 8.90772 4.18193 
14 1 -0.00153115 11.3647 0.70343 
15 1 1.24486 11.0381 1.58254 
16 1 -2.03529 10.0819 0.847337 
18 1 -1.27067 7.29243 2.92133 
19 1 -0.00157987 8.90772 5.70269 
20 1 3.36805 6.96292 0.196822 
29 1 1.24449 9.62708 3.57949 
31 1 -2.12938 7.67922 0.703342 
32 1 -2.46992 8.92207 1.58261 
35 1 2.03186 8.61623 2.92137 
36 1 -0.00152165 12.7982 0.196801 
45 1 -1.24766 9.62714 3.57944 
47 1 2.12623 7.67911 0.70339 
48 1 1.22018 6.76288 1.58264 
51 1 -0.765819 10.8144 2.92135 
52 1 -3.37057 6.96192 0.196813 
53 1 -0.00151141 7.46889 9.0222 
54 1 -0.00145433 8.90772 8.41975 
56 1 -0.00155441 11.3647 11.8982 
57 1 -1.24794 11.0381 11.0191 
60 1 1.26759 7.29243 9.68035 
61 1 -0.00150569 8.90772 6.89899 
62 1 -3.37113 6.96292 12.4049 
73 1 -1.24757 9.62708 9.02219 
75 1 2.12629 7.67922 11.8983 
76 1 2.46683 8.92207 11.0191 
79 1 -2.03495 8.61623 9.68031 
80 1 -0.00156391 12.7982 12.4049 
89 1 1.24457 9.62714 9.02224 
91 1 -2.12932 7.67911 11.8983 
92 1 -1.22327 6.76288 11.019 
93 1 -2.03525 10.0818 11.7543 
95 1 0.762733 10.8144 9.68033 
96 1 3.36749 6.96192 12.4049 
105 1 1.24481 11.0382 11.0192 
106 1 -1.2707 7.29248 9.68027 
109 1 -2.46966 8.92169 11.0193 
110 1 2.03189 8.61617 9.68032 
113 1 1.2204 6.76323 11.0193 
114 1 -0.765774 10.8144 9.68029 
119 1 -1.2479 11.0382 1.58246 
120 1 1.26761 7.29248 2.92141 
123 1 2.46657 8.92169 1.58242 
124 1 -2.03498 8.61617 2.92136 
127 1 -1.22348 6.76323 1.58239 
128 1 0.762688 10.8144 2.92139 
13 1 -0.00154221 10.3189 24.7593 
17 1 -1.27127 9.64077 24.8123 
30 1 -1.22371 8.20207 24.7594 
34 1 -0.00154013 7.44152 24.8123 
46 1 1.2206 8.20208 24.7593 
50 1 1.26821 9.64077 24.8123 
55 1 -0.00154336 10.3189 13.0558 
59 1 1.26818 9.64077 13.0028 
74 1 1.22062 8.20207 13.0558 
78 1 -0.00154543 7.44152 13.0028 
90 1 -1.22368 8.20208 13.0558 
94 1 -1.27129 9.64077 13.0028 
3 1 7.7139 3.04201 12.1526 
7 1 8.98362 3.7201 12.2056 
22 1 8.93606 5.15879 12.1526 
26 1 7.7139 5.91934 12.2056 
38 1 6.49176 5.15879 12.1526 
42 1 6.44415 3.72009 12.2056 
65 1 7.7139 3.04201 0.44909 
69 1 6.44418 3.7201 0.396125 
82 1 6.49174 5.15879 0.449032 
86 1 7.7139 5.91934 0.396092 
98 1 8.93604 5.15879 0.449053 
102 1 8.98365 3.72009 0.396078 
1 1 7.71393 5.89198 16.1862 
2 1 7.71399 4.45315 16.7886 
4 1 7.71389 1.99619 13.3102 
5 1 6.4675 2.32276 14.1893 
6 1 9.74764 3.27897 13.4541 
8 1 8.98303 6.06844 15.528 
9 1 7.71394 4.45315 18.3094 
10 1 4.34431 6.39794 12.8035 
21 1 6.46787 3.73379 16.1862 
23 1 9.84173 5.68165 13.3101 
24 1 10.1823 4.4388 14.1893 
27 1 5.6805 4.74464 15.5281 
28 1 7.71388 0.562638 12.8035 
37 1 8.96002 3.73372 16.1862 
39 1 5.58612 5.68176 13.3101 
40 1 6.49217 6.59799 14.1894 
43 1 8.47818 2.54642 15.5281 
44 1 11.0829 6.39895 12.8035 
63 1 7.71387 5.89198 21.6289 
64 1 7.71381 4.45315 21.0265 
66 1 7.71391 1.99619 24.505 
67 1 8.9603 2.32276 23.6259 
70 1 6.44477 6.06844 22.2871 
71 1 7.71386 4.45315 19.5057 
72 1 11.0835 6.39794 25.0116 
81 1 8.95993 3.73379 21.6289 
83 1 5.58607 5.68165 24.5051 
84 1 5.24552 4.4388 23.6258 
87 1 9.7473 4.74464 22.287 
88 1 7.71392 0.562638 25.0116 
97 1 6.46778 3.73372 21.629 
99 1 9.84168 5.68176 24.505 
100 1 8.93563 6.59799 23.6258 
101 1 9.74761 3.27906 24.361 
103 1 6.94962 2.54642 22.2871 
104 1 4.34487 6.39895 25.0116 
107 1 6.46754 2.32267 23.6259 
108 1 8.98305 6.06839 22.287 
111 1 10.182 4.43917 23.626 
112 1 5.68046 4.7447 22.287 
115 1 6.49196 6.59764 23.626 
116 1 8.47813 2.54647 22.287 
117 1 8.96026 2.32267 14.1892 
118 1 6.44475 6.06839 15.5281 
121 1 5.24579 4.43917 14.1891 
122 1 9.74734 4.7447 15.5281 
125 1 8.93584 6.59764 14.1891 
126 1 6.94967 2.54647 15.5281 
49 1 2.03216 10.0818 0.847403 
58 1 2.0322 10.0819 11.7543 
25 1 7.71394 6.8015 13.4541 
85 1 7.71386 6.8015 24.361 
ITEM: TIMESTEP
50
ITEM: NUMBER OF ATOMS
128
ITEM: BOX BOUNDS xy xz yz pp pp pp
-7.7324133599999945e+00 1.5437056680000007e+01 -7.7231566799999944e+00
-8.0165200347036038e-03 1.3368883244540694e+01 0.0000000000000000e+00
-1.5125039999999999e-02 2.5223525040000016e+01 0.0000000000000000e+00
ITEM: ATOMS id type x y z 
33 1 -0.00929287 6.55925 0.835604 
77 1 -0.00922049 6.55925 11.7535 