ITEM: TIMESTEP
0
ITEM: NUMBER OF ATOMS
163
ITEM: BOX BOUNDS xy xz yz pp pp pp
-6.7755000000000001e+00 1.3552000000000000e+01 -6.7755000000000001e+00
0.0000000000000000e+00 1.1735510246683001e+01 0.0000000000000000e+00
0.0000000000000000e+00 2.2149999999999999e+01 0.0000000000000000e+00
ITEM: ATOMS id type x y z 
8 1 -2.486 5.297 9.849 
87 1 3.001 4.231 10.696 
90 1 2.733 5.481 9.824 
109 1 -2.486 5.297 0.765 
158 1 2.733 5.481 0.79 
11 1 4.24 4.139 20.131 
14 1 3.031 4.094 19.728 
18 1 1.299 5.827 18.554 
33 1 2.266 4.151 20.924 
43 1 4.343 3.96 21.647 
47 1 3.32 5.732 17.88 
52 1 4.24 4.139 12.633 
76 1 2.552 4.924 14.209 
85 1 4.343 3.96 11.117 
89 1 3.32 5.732 14.883 
91 1 1.036 5.037 11.84 
102 1 3.031 4.094 13.035 
105 1 1.299 5.827 14.209 
114 1 2.266 4.151 11.84 
150 1 2.552 4.924 18.554 
156 1 3.001 4.231 22.068 
159 1 1.036 5.037 20.924 
5 1 -5.049 10.63 8.653 
9 1 -3.317 8.897 7.479 
19 1 -1.707 7.414 10.572 
21 1 -2.66 8.795 10.993 
23 1 -3.31 7.532 6.805 
25 1 -4.284 10.573 9.849 
32 1 1.503 6.367 0.79 
36 1 -1.869 7.426 9.056 
38 1 -2.209 6.086 8.653 
54 1 0.3 8.576 10.696 
57 1 1.291 8.001 9.824 
60 1 -1.707 7.414 0.042 
65 1 -3.31 7.532 3.808 
78 1 -1.869 7.426 1.558 
80 1 -2.566 8.842 1.961 
84 1 -4.57 9.799 3.135 
99 1 -3.054 9.687 0.765 
100 1 -2.96 6.142 3.135 
107 1 -5.049 10.63 1.961 
110 1 -3.317 8.897 3.135 
111 1 0.642 5.929 10.696 
113 1 1.503 6.367 9.824 
119 1 -4.284 10.573 0.765 
127 1 -2.209 6.086 1.961 
131 1 -2.318 6.148 10.993 
138 1 1.291 8.001 0.79 
142 1 -2.566 8.842 8.653 
145 1 -4.57 9.799 7.479 
151 1 -5.019 10.493 10.993 
154 1 -3.054 9.687 9.849 
155 1 -2.96 6.142 7.479 
12 1 2.53 7.1 17.202 
17 1 0.468 9.427 20.924 
24 1 -3.52 8.357 11.865 
27 1 -0.31 7.31 21.647 
29 1 0.642 5.929 22.068 
31 1 1.292 7.192 17.88 
44 1 -0.148 7.298 20.131 
46 1 0.191 8.638 19.728 
51 1 -0.31 7.31 11.117 
53 1 2.53 7.1 15.561 
56 1 1.292 7.192 14.883 
63 1 -2.318 6.148 21.771 
66 1 -3.309 6.723 20.899 
70 1 -0.148 7.298 12.633 
72 1 0.548 5.882 13.035 
92 1 0.942 8.582 14.209 
95 1 -5.019 10.493 21.771 
98 1 -4.751 9.243 20.899 
104 1 0.468 9.427 11.84 
116 1 -2.66 8.795 21.771 
118 1 -3.52 8.357 20.899 
122 1 0.191 8.638 13.035 
133 1 -3.309 6.723 11.865 
136 1 0.3 8.576 22.068 
147 1 0.548 5.882 19.728 
153 1 -4.751 9.243 11.865 
160 1 0.942 8.582 18.554 
163 3 -5.993 10.399 13.741 
1 1 7.976 4.694 10.572 
4 1 9.274 4.77 10.993 
20 1 8.034 4.861 9.056 
42 1 9.55 5.41 7.479 
67 1 10.043 4.578 0.765 
77 1 7.976 4.694 0.042 
94 1 8.035 4.861 1.558 
96 1 9.278 4.635 1.961 
121 1 4.688 5.417 10.696 
130 1 9.55 5.41 3.135 
134 1 10.043 4.578 9.849 
152 1 9.278 4.635 8.653 
45 1 4.688 5.417 22.068 
55 1 4.788 5.329 13.035 
106 1 9.274 4.77 21.771 
137 1 4.788 5.329 19.728 
2 1 7.294 10.585 9.056 
3 1 9.004 7.624 6.127 
6 1 8.556 6.347 6.805 
16 1 2.314 8.72 0.79 
22 1 7.166 6.156 8.653 
26 1 7.226 8.565 7.479 
35 1 7.191 10.764 10.572 
37 1 6.846 9.307 10.993 
39 1 8.214 8.992 6.805 
41 1 6.677 7.002 9.849 
48 1 3.775 6.213 0.79 
61 1 7.294 10.585 1.558 
62 1 9.004 7.624 4.487 
64 1 6.747 9.395 1.961 
68 1 7.437 6.931 3.135 
71 1 4.29 8.493 10.696 
74 1 3.567 7.818 9.824 
81 1 8.556 6.347 3.808 
83 1 6.47 8.606 0.765 
93 1 7.191 10.764 0.042 
97 1 8.214 8.992 3.808 
101 1 2.261 9.954 10.696 
103 1 2.314 8.72 9.824 
117 1 7.166 6.156 1.961 
120 1 7.226 8.565 3.135 
123 1 3.775 6.213 9.824 
129 1 6.677 7.002 0.765 
132 1 6.747 9.395 8.653 
135 1 7.437 6.931 7.479 
141 1 7.244 6.231 10.993 
144 1 6.47 8.606 9.849 
148 1 3.567 7.818 0.79 
7 1 9.22 6.004 11.865 
10 1 3.558 10.029 21.647 
13 1 2.261 9.954 22.068 
15 1 2.978 8.376 17.88 
28 1 3.5 9.862 20.131 
30 1 4.369 8.568 19.728 
34 1 4.308 6.159 18.554 
40 1 7.76 8.511 11.865 
49 1 4.857 7.722 20.924 
50 1 1.984 9.314 18.554 
58 1 1.491 10.146 11.84 
59 1 4.097 7.793 14.209 
69 1 3.558 10.029 11.117 
73 1 2.978 8.376 14.883 
75 1 5.064 6.118 11.84 
79 1 7.244 6.231 21.771 
82 1 7.967 6.906 20.899 
86 1 3.5 9.862 12.633 
88 1 2.256 10.089 13.035 
108 1 9.22 6.004 20.899 
112 1 4.369 8.568 13.035 
115 1 4.308 6.159 14.209 
124 1 4.857 7.722 11.84 
125 1 1.984 9.314 14.209 
126 1 6.846 9.307 21.771 
128 1 7.76 8.511 20.899 
139 1 1.491 10.146 20.924 
140 1 4.097 7.793 18.554 
143 1 7.967 6.906 11.865 
146 1 4.29 8.493 22.068 
149 1 5.064 6.118 20.924 
157 1 2.256 10.089 19.728 
161 2 7.76 8.511 13.215 
162 2 7.607 9.557 14.268 
ITEM: TIMESTEP
10
ITEM: NUMBER OF ATOMS
163
ITEM: BOX BOUNDS xy xz yz pp pp pp
-6.7755000000000001e+00 1.3552000000000000e+01 -6.7755000000000001e+00
0.0000000000000000e+00 1.1735510246683001e+01 0.0000000000000000e+00
0.0000000000000000e+00 2.2149999999999999e+01 0.0000000000000000e+00
ITEM: ATOMS id type x y z 
8 1 -2.40961 5.35864 9.85559 
87 1 2.96973 4.2485 10.6424 
90 1 2.66073 5.47361 9.78507 
109 1 -2.40933 5.35508 0.761916 
158 1 2.66074 5.47245 0.826191 
11 1 4.29014 4.16964 20.1597 
14 1 2.91745 4.12701 19.6894 
18 1 1.32326 5.85921 18.5912 
33 1 2.15353 4.21207 20.8997 
43 1 4.32273 4.1211 21.5936 
47 1 3.27385 5.79584 17.8397 
52 1 4.29022 4.17071 12.6053 
76 1 2.4397 4.92684 14.1834 
85 1 4.32536 4.12079 11.1712 
89 1 3.27307 5.79749 14.9242 
91 1 1.00574 5.06698 11.8549 
102 1 2.91798 4.12668 13.0743 
105 1 1.3235 5.85771 14.172 
114 1 2.15149 4.21181 11.8671 
150 1 2.43898 4.9265 18.579 
156 1 2.97201 4.25283 22.1189 
159 1 1.00581 5.06727 20.9079 
5 1 -4.94348 10.6 8.60879 
9 1 -3.34528 8.86551 7.52148 
19 1 -1.74575 7.46689 10.5483 
21 1 -2.61579 8.77498 10.8721 
23 1 -3.32124 7.55214 6.85273 
25 1 -4.19195 10.5056 9.84923 
32 1 1.5681 6.33969 0.777109 
36 1 -1.90028 7.50749 9.06602 
38 1 -2.15611 6.19359 8.63862 
54 1 0.293623 8.53644 10.6725 
57 1 1.34811 7.99245 9.79221 
60 1 -1.75605 7.4845 0.0625048 
65 1 -3.32155 7.54742 3.76784 
78 1 -1.90601 7.50954 1.54873 
80 1 -2.55019 8.79462 1.85292 
84 1 -4.45319 9.79463 3.109 
99 1 -3.02692 9.65859 0.782303 
100 1 -2.92627 6.25099 3.17551 
107 1 -4.93122 10.5992 2.00198 
110 1 -3.34312 8.86895 3.09596 
111 1 0.587679 5.95599 10.821 
113 1 1.56712 6.33955 9.83611 
119 1 -4.1753 10.5099 0.783682 
127 1 -2.15399 6.19292 1.97637 
131 1 -2.313 6.19156 11.0152 
138 1 1.34901 7.99126 0.822207 
142 1 -2.56039 8.79552 8.78011 
145 1 -4.45057 9.79035 7.50398 
151 1 -5.00073 10.4312 11.0358 
154 1 -3.03482 9.67541 9.82161 
155 1 -2.9289 6.25333 7.43647 
12 1 2.57552 7.06483 17.1435 
17 1 0.388967 9.36667 20.9257 
24 1 -3.534 8.32775 11.8204 
27 1 -0.262307 7.24223 21.6277 
29 1 0.587098 5.95724 21.9426 
31 1 1.30519 7.17706 17.9209 
44 1 -0.113425 7.21212 20.1409 
46 1 0.137343 8.53237 19.7137 
51 1 -0.263058 7.24074 11.1359 
53 1 2.57589 7.06447 15.6184 
56 1 1.30476 7.17844 14.8428 
63 1 -2.31096 6.19045 21.7484 
66 1 -3.36868 6.73377 20.8675 
70 1 -0.113706 7.21118 12.6241 
72 1 0.531869 5.92652 12.9297 
92 1 0.907929 8.4686 14.2518 
95 1 -4.98808 10.4636 21.724 
98 1 -4.68115 9.2483 20.8687 
104 1 0.390597 9.36905 11.8353 
116 1 -2.60593 8.76408 21.8964 
118 1 -3.58272 8.38873 20.9128 
122 1 0.135437 8.53087 13.0518 
133 1 -3.32767 6.81148 11.8987 
136 1 0.292058 8.53344 22.0903 
147 1 0.532193 5.92641 19.8351 
153 1 -4.71551 9.14924 11.8636 
160 1 0.908541 8.47002 18.513 
163 3 -5.99434 10.3822 13.7514 
1 1 7.90136 4.89153 10.5334 
4 1 9.17725 4.77913 11.0407 
20 1 7.8899 4.94873 9.06764 
42 1 9.4695 5.42503 7.43776 
67 1 9.98775 4.53927 0.768366 
77 1 7.89656 4.91324 0.0753061 
94 1 7.89173 4.94319 1.54852 
96 1 9.21817 4.63943 1.99843 
121 1 4.70276 5.41785 10.7297 
130 1 9.46933 5.42464 3.17802 
134 1 9.9891 4.53531 9.84563 
152 1 9.21601 4.6419 8.61176 
45 1 4.69996 5.41591 22.0348 
55 1 4.81254 5.48734 13.0643 
106 1 9.17837 4.78376 21.7188 
137 1 4.81279 5.48427 19.6973 
2 1 7.24398 10.5553 9.03837 
3 1 8.96078 7.66344 6.06879 
6 1 8.53642 6.3961 6.83415 
16 1 2.34152 8.69057 0.834747 
22 1 7.1685 6.20004 8.72951 
26 1 7.17818 8.43401 7.55634 
35 1 7.20886 10.6307 10.5022 
37 1 6.82162 9.33804 10.9523 
39 1 8.26029 8.92619 6.76599 
41 1 6.7504 7.02599 9.82758 
48 1 3.74805 6.35964 0.831677 
61 1 7.24332 10.552 1.52703 
62 1 8.95829 7.66172 4.54406 
64 1 6.72031 9.2415 1.99222 
68 1 7.40723 6.96934 3.05736 
71 1 4.28169 8.53532 10.7838 
74 1 3.63065 7.78847 9.86063 
81 1 8.54023 6.39749 3.7819 
83 1 6.53698 8.45476 0.794634 
93 1 7.21474 10.6049 0.0959403 
97 1 8.26007 8.92754 3.84853 
101 1 2.35533 9.94379 10.6393 
103 1 2.34186 8.69041 9.77892 
117 1 7.16717 6.19238 1.88906 
120 1 7.17462 8.43296 3.05847 
123 1 3.74863 6.36091 9.78197 
129 1 6.74743 7.01544 0.781227 
132 1 6.72151 9.2461 8.62171 
135 1 7.40628 6.96794 7.56501 
141 1 7.25264 6.19712 10.9124 
144 1 6.55205 8.46558 9.83342 
148 1 3.63013 7.78854 0.753807 
7 1 9.13245 6.02004 11.9124 
10 1 3.64066 9.80757 21.6105 
13 1 2.35637 9.94284 22.125 
15 1 2.99482 8.32841 17.9086 
28 1 3.64237 9.78182 20.1437 
30 1 4.36953 8.52879 19.7995 
34 1 4.35471 6.2893 18.6305 
40 1 7.81443 8.4561 12.0461 
49 1 4.78496 7.7093 20.9076 
50 1 2.06575 9.29906 18.5103 
58 1 1.54447 10.1861 11.8461 
59 1 4.12573 7.75394 14.131 
69 1 3.64097 9.80754 11.1536 
73 1 2.99452 8.3294 14.8537 
75 1 4.9975 6.27111 11.8702 
79 1 7.2559 6.18625 21.8582 
82 1 7.90477 6.93557 20.9335 
86 1 3.64399 9.78088 12.6201 
88 1 2.31774 10.0852 13.0737 
108 1 9.19393 6.03357 20.8539 
112 1 4.36948 8.52719 12.9631 
115 1 4.35492 6.28893 14.1321 
124 1 4.78467 7.70887 11.8566 
125 1 2.06778 9.29948 14.2532 
126 1 6.83267 9.31121 21.805 
128 1 7.79015 8.36331 20.8562 
139 1 1.54394 10.1876 20.9179 
140 1 4.12519 7.75354 18.6306 
143 1 7.97263 6.87287 11.818 
146 1 4.28015 8.53621 21.9812 
149 1 4.99761 6.2718 20.895 
157 1 2.31773 10.0847 19.6895 
161 2 7.72778 8.5157 13.1458 
162 2 7.60346 9.57909 14.2723 
ITEM: TIMESTEP
20
ITEM: NUMBER OF ATOMS
163
ITEM: BOX BOUNDS xy xz yz pp pp pp
-6.7755000000000001e+00 1.3552000000000000e+01 -6.7755000000000001e+00
0.0000000000000000e+00 1.1735510246683001e+01 0.0000000000000000e+00
0.0000000000000000e+00 2.2149999999999999e+01 0.0000000000000000e+00
ITEM: ATOMS id type x y z 
8 1 -2.42801 5.38484 9.84696 
87 1 2.96892 4.26659 10.6431 
90 1 2.64696 5.45075 9.7843 
109 1 -2.42309 5.38505 0.772348 
158 1 2.64673 5.45422 0.833235 
11 1 4.27977 4.21605 20.122 
14 1 2.91436 4.13705 19.6903 
18 1 1.31487 5.85907 18.5971 
33 1 2.12199 4.21666 20.9058 
43 1 4.31407 4.17501 21.5749 
47 1 3.26004 5.80087 17.8253 
52 1 4.28519 4.20855 12.6493 
76 1 2.43646 4.94072 14.1751 
85 1 4.30609 4.17785 11.1818 
89 1 3.25951 5.80178 14.937 
91 1 0.986433 5.05268 11.8478 
102 1 2.90868 4.14054 13.0715 
105 1 1.31454 5.85998 14.1668 
114 1 2.12456 4.21648 11.8561 
150 1 2.43438 4.94277 18.5861 
156 1 2.96596 4.26055 22.1242 
159 1 0.985631 5.05235 20.9161 
5 1 -4.92039 10.589 8.61219 
9 1 -3.32942 8.86327 7.52465 
19 1 -1.72027 7.48734 10.5316 
21 1 -2.58276 8.79711 10.8702 
23 1 -3.30224 7.55423 6.84232 
25 1 -4.16084 10.5025 9.83325 
32 1 1.61428 6.3742 0.747265 
36 1 -1.86726 7.52856 9.06525 
38 1 -2.16317 6.20668 8.63794 
54 1 0.314821 8.51776 10.663 
57 1 1.36672 7.96741 9.80671 
60 1 -1.75181 7.48955 0.0626329 
65 1 -3.30092 7.55886 3.77135 
78 1 -1.87113 7.52584 1.54375 
80 1 -2.54154 8.79056 1.83406 
84 1 -4.45464 9.78383 3.10061 
99 1 -3.00401 9.66941 0.772276 
100 1 -2.93826 6.27693 3.17384 
107 1 -4.92777 10.5848 1.99865 
110 1 -3.3319 8.86451 3.09287 
111 1 0.612268 5.96802 10.8116 
113 1 1.61419 6.37204 9.86702 
119 1 -4.14331 10.5063 0.781419 
127 1 -2.15886 6.20725 1.97652 
131 1 -2.32613 6.22147 11.0242 
138 1 1.36649 7.96676 0.80721 
142 1 -2.54731 8.79343 8.76838 
145 1 -4.46098 9.79048 7.51076 
151 1 -5.00374 10.4009 11.0512 
154 1 -3.0068 9.6767 9.83893 
155 1 -2.93836 6.27664 7.44259 
12 1 2.56643 7.0771 17.1503 
17 1 0.40616 9.34169 20.9144 
24 1 -3.52721 8.31467 11.8212 
27 1 -0.268056 7.23159 21.6266 
29 1 0.609632 5.96977 21.9516 
31 1 1.28405 7.16496 17.9172 
44 1 -0.146751 7.19747 20.1447 
46 1 0.141519 8.51445 19.711 
51 1 -0.275723 7.22869 11.1359 
53 1 2.56683 7.07683 15.6126 
56 1 1.2838 7.16399 14.846 
63 1 -2.33408 6.20897 21.7406 
66 1 -3.38195 6.75823 20.8835 
70 1 -0.14542 7.19657 12.6191 
72 1 0.523531 5.93334 12.9078 
92 1 0.92154 8.44717 14.2477 
95 1 -4.98845 10.4601 21.7203 
98 1 -4.66702 9.27221 20.8603 
104 1 0.405997 9.34116 11.85 
116 1 -2.62802 8.75618 21.8866 
118 1 -3.63212 8.34752 20.9402 
122 1 0.141224 8.51425 13.0522 
133 1 -3.2921 6.83188 11.9051 
136 1 0.314494 8.5175 22.1014 
147 1 0.52381 5.93326 19.8556 
153 1 -4.70745 9.13411 11.8425 
160 1 0.92126 8.44687 18.516 
163 3 -5.99594 10.3841 13.7512 
1 1 7.8309 4.90755 10.5153 
4 1 9.16028 4.81219 11.0352 
20 1 7.85826 4.93548 9.07229 
42 1 9.45735 5.44939 7.43919 
67 1 9.97144 4.56363 0.761191 
77 1 7.85169 4.91152 0.0856341 
94 1 7.86236 4.93756 1.54813 
96 1 9.18534 4.6694 1.99663 
121 1 4.66409 5.47875 10.7015 
130 1 9.45801 5.44912 3.17667 
134 1 9.9745 4.56842 9.84603 
152 1 9.19344 4.67087 8.62097 
45 1 4.66355 5.48029 22.0605 
55 1 4.8138 5.49676 13.0655 
106 1 9.17189 4.80387 21.7515 
137 1 4.81453 5.49057 19.6975 
2 1 7.24091 10.5273 9.03171 
3 1 8.9688 7.64791 6.07586 
6 1 8.51541 6.39323 6.81919 
16 1 2.35516 8.68449 0.848172 
22 1 7.13359 6.20062 8.72629 
26 1 7.19653 8.42237 7.54521 
35 1 7.23321 10.558 10.4788 
37 1 6.83496 9.30049 10.9773 
39 1 8.27932 8.92168 6.75305 
41 1 6.73172 7.01488 9.8458 
48 1 3.69325 6.35448 0.818656 
61 1 7.25204 10.5146 1.57441 
62 1 8.96802 7.64834 4.53669 
64 1 6.72002 9.22754 1.99115 
68 1 7.39331 6.96442 3.06015 
71 1 4.30858 8.52856 10.7664 
74 1 3.59019 7.79172 9.82192 
81 1 8.51691 6.39394 3.79776 
83 1 6.53829 8.43663 0.783012 
93 1 7.22913 10.5468 0.108018 
97 1 8.27318 8.92438 3.86049 
101 1 2.36232 9.92231 10.6767 
103 1 2.35504 8.68475 9.76594 
117 1 7.13475 6.18924 1.89365 
120 1 7.19643 8.42355 3.06911 
123 1 3.69297 6.35363 9.79472 
129 1 6.72725 7.00364 0.778352 
132 1 6.71794 9.22341 8.62165 
135 1 7.39327 6.96346 7.55733 
141 1 7.24314 6.19548 10.9161 
144 1 6.55653 8.44924 9.83599 
148 1 3.58987 7.79158 0.792309 
7 1 9.08407 5.99383 11.9006 
10 1 3.68288 9.8111 21.6055 
13 1 2.36127 9.92251 22.0871 
15 1 3.01712 8.33063 17.8894 
28 1 3.67398 9.78609 20.1392 
30 1 4.40143 8.5343 19.7945 
34 1 4.33429 6.30177 18.6176 
40 1 7.80525 8.43629 12.0341 
49 1 4.80678 7.72007 20.9106 
50 1 2.07526 9.27393 18.5128 
58 1 1.56368 10.1606 11.8371 
59 1 4.14026 7.75889 14.1354 
69 1 3.68218 9.81094 11.1584 
73 1 3.01803 8.32996 14.8729 
75 1 4.998 6.28966 11.8573 
79 1 7.22889 6.19411 21.8438 
82 1 7.94418 6.9329 20.8946 
86 1 3.67384 9.78702 12.625 
88 1 2.34851 10.0548 13.0701 
108 1 9.18044 6.03806 20.8412 
112 1 4.40172 8.53389 12.9678 
115 1 4.33516 6.30015 14.1445 
124 1 4.808 7.71994 11.853 
125 1 2.074 9.27486 14.2501 
126 1 6.87062 9.24509 21.7769 
128 1 7.84364 8.36809 20.8719 
139 1 1.5623 10.1604 20.9275 
140 1 4.14039 7.75753 18.6283 
143 1 7.97045 6.87213 11.8587 
146 1 4.30678 8.52872 21.997 
149 1 4.99638 6.28925 20.9091 
157 1 2.34703 10.0552 19.6926 
161 2 7.70593 8.51817 13.1592 
162 2 7.60185 9.58272 14.2828 
ITEM: TIMESTEP
30
ITEM: NUMBER OF ATOMS
163
ITEM: BOX BOUNDS xy xz yz pp pp pp
-6.7755000000000001e+00 1.3552000000000000e+01 -6.7755000000000001e+00
0.0000000000000000e+00 1.1735510246683001e+01 0.0000000000000000e+00
0.0000000000000000e+00 2.2149999999999999e+01 0.0000000000000000e+00
ITEM: ATOMS id type x y z 
8 1 -2.43794 5.41203 9.85537 
87 1 2.9649 4.27593 10.6402 
90 1 2.63389 5.45226 9.78423 
109 1 -2.43404 5.40178 0.7704 
158 1 2.63331 5.45175 0.827197 
11 1 4.27628 4.23485 20.1255 
14 1 2.89161 4.1515 19.6987 
18 1 1.30506 5.86349 18.6036 
33 1 2.11078 4.21203 20.9005 
43 1 4.29591 4.21193 21.5664 
47 1 3.24047 5.80647 17.823 
52 1 4.27808 4.23006 12.6363 
76 1 2.4275 4.94163 14.1773 
85 1 4.29074 4.21955 11.2068 
89 1 3.2416 5.80474 14.9408 
91 1 0.965606 5.04576 11.8448 
102 1 2.89174 4.14995 13.0639 
105 1 1.30559 5.86107 14.1592 
114 1 2.11436 4.21095 11.8602 
150 1 2.42831 4.93872 18.586 
156 1 2.96384 4.27827 22.1249 
159 1 0.965654 5.04854 20.9192 
5 1 -4.92185 10.5791 8.61833 
9 1 -3.326 8.86597 7.52442 
19 1 -1.70785 7.50284 10.5256 
21 1 -2.56181 8.80533 10.8764 
23 1 -3.3017 7.55644 6.83746 
25 1 -4.1484 10.5026 9.8459 
32 1 1.60417 6.39089 0.750249 
36 1 -1.84112 7.53757 9.04731 
38 1 -2.15364 6.22788 8.63961 
54 1 0.320299 8.50925 10.6721 
57 1 1.37735 7.94927 9.80436 
60 1 -1.74324 7.49439 0.0626335 
65 1 -3.30159 7.55701 3.77608 
78 1 -1.84612 7.53425 1.54838 
80 1 -2.53348 8.79485 1.83187 
84 1 -4.44403 9.78329 3.10224 
99 1 -2.98405 9.67748 0.770864 
100 1 -2.93845 6.28491 3.1708 
107 1 -4.90819 10.5748 1.9895 
110 1 -3.32412 8.86262 3.08418 
111 1 0.605004 5.9531 10.8106 
113 1 1.60304 6.39135 9.86293 
119 1 -4.13233 10.5124 0.786628 
127 1 -2.14994 6.23002 1.97871 
131 1 -2.3267 6.24035 11.0172 
138 1 1.3776 7.94806 0.809377 
142 1 -2.53419 8.80049 8.77985 
145 1 -4.44399 9.78216 7.50978 
151 1 -4.97807 10.3786 11.0434 
154 1 -2.9811 9.68925 9.83044 
155 1 -2.94086 6.28343 7.44312 
12 1 2.56742 7.06883 17.1496 
17 1 0.415878 9.3218 20.918 
24 1 -3.50829 8.32007 11.8079 
27 1 -0.274572 7.2311 21.6254 
29 1 0.603994 5.95411 21.9537 
31 1 1.28315 7.16568 17.9131 
44 1 -0.172111 7.18978 20.143 
46 1 0.131735 8.49339 19.7118 
51 1 -0.279934 7.22299 11.1368 
53 1 2.56684 7.0701 15.6134 
56 1 1.28389 7.16758 14.8509 
63 1 -2.33579 6.21622 21.7463 
66 1 -3.39496 6.7756 20.8798 
70 1 -0.170968 7.18924 12.6233 
72 1 0.51481 5.92831 12.9078 
92 1 0.919856 8.43758 14.2457 
95 1 -4.98096 10.446 21.7132 
98 1 -4.65217 9.27021 20.863 
104 1 0.41718 9.32183 11.8456 
116 1 -2.62033 8.76726 21.8866 
118 1 -3.62026 8.33403 20.9377 
122 1 0.132049 8.49282 13.053 
133 1 -3.31444 6.82273 11.9193 
136 1 0.317481 8.50775 22.0926 
147 1 0.51558 5.92644 19.8565 
153 1 -4.6952 9.10844 11.8322 
160 1 0.920592 8.43883 18.5177 
163 3 -5.99739 10.3835 13.752 
1 1 7.80327 4.90374 10.52 
4 1 9.11008 4.81866 11.0206 
20 1 7.82146 4.94476 9.06053 
42 1 9.44395 5.45869 7.44476 
67 1 9.96214 4.58106 0.777591 
77 1 7.81892 4.91074 0.0795079 
94 1 7.82946 4.94597 1.55028 
96 1 9.15976 4.68806 1.99929 
121 1 4.64849 5.50943 10.6833 
130 1 9.44612 5.46059 3.17246 
134 1 9.95783 4.59385 9.84442 
152 1 9.16586 4.69203 8.6239 
45 1 4.64479 5.50917 22.0806 
55 1 4.81893 5.5346 13.065 
106 1 9.13352 4.82785 21.7541 
137 1 4.81513 5.5333 19.6987 
2 1 7.25383 10.5027 9.01432 
3 1 8.96971 7.64898 6.07678 
6 1 8.51097 6.39608 6.81315 
16 1 2.36222 8.69299 0.853989 
22 1 7.10655 6.19446 8.71876 
26 1 7.20044 8.41321 7.53756 
35 1 7.243 10.5091 10.4731 
37 1 6.83504 9.26288 10.985 
39 1 8.28805 8.91915 6.74862 
41 1 6.71716 6.99925 9.84175 
48 1 3.70307 6.34358 0.824255 
61 1 7.25525 10.4944 1.56247 
62 1 8.96786 7.65398 4.53874 
64 1 6.7158 9.19137 1.99125 
68 1 7.38316 6.9583 3.06286 
71 1 4.3144 8.51671 10.7452 
74 1 3.6009 7.80722 9.81068 
81 1 8.51176 6.39752 3.80379 
83 1 6.53886 8.41006 0.799544 
93 1 7.24341 10.5044 0.133558 
97 1 8.29273 8.91774 3.86536 
101 1 2.40111 9.89739 10.6786 
103 1 2.36299 8.69385 9.75891 
117 1 7.10688 6.17962 1.90908 
120 1 7.19863 8.41126 3.07638 
123 1 3.70288 6.34468 9.78896 
129 1 6.71012 6.98839 0.772693 
132 1 6.72215 9.20395 8.61774 
135 1 7.38186 6.95678 7.5557 
141 1 7.231 6.19803 10.9333 
144 1 6.55503 8.43497 9.84453 
148 1 3.60022 7.8085 0.803106 
7 1 9.09793 6.01586 11.9105 
10 1 3.7145 9.81223 21.6089 
13 1 2.40121 9.89675 22.0852 
15 1 3.02398 8.32847 17.8859 
28 1 3.70449 9.77786 20.1403 
30 1 4.42856 8.54264 19.7777 
34 1 4.33589 6.30961 18.6131 
40 1 7.81045 8.42126 12.0478 
49 1 4.82372 7.73875 20.9161 
50 1 2.08903 9.26401 18.5167 
58 1 1.57254 10.1436 11.8525 
59 1 4.15061 7.76595 14.137 
69 1 3.71536 9.81129 11.1545 
73 1 3.02185 8.32846 14.8777 
75 1 4.99805 6.31365 11.8735 
79 1 7.22307 6.20687 21.821 
82 1 7.93337 6.91414 20.8853 
86 1 3.7058 9.77857 12.6234 
88 1 2.37429 10.0365 13.0752 
108 1 9.17243 6.03038 20.8348 
112 1 4.42965 8.54258 12.9855 
115 1 4.33472 6.3127 14.1506 
124 1 4.82558 7.73509 11.8468 
125 1 2.08973 9.26399 14.247 
126 1 6.88658 9.21625 21.7582 
128 1 7.83241 8.37979 20.8649 
139 1 1.5726 10.1433 20.9114 
140 1 4.14883 7.76747 18.6264 
143 1 7.94298 6.86638 11.8768 
146 1 4.31236 8.51698 22.0181 
149 1 4.99682 6.31384 20.8857 
157 1 2.37459 10.0359 19.6891 
161 2 7.68498 8.51994 13.1599 
162 2 7.60031 9.58842 14.2918 
ITEM: TIMESTEP
40
ITEM: NUMBER OF ATOMS
163
ITEM: BOX BOUNDS xy xz yz pp pp pp
-6.7755000000000001e+00 1.3552000000000000e+01 -6.7755000000000001e+00
0.0000000000000000e+00 1.1735510246683001e+01 0.0000000000000000e+00
0.0000000000000000e+00 2.2149999999999999e+01 0.0000000000000000e+00
ITEM: ATOMS id type x y z 
8 1 -2.44956 5.42651 9.85087 
87 1 2.96023 4.28411 10.6408 
90 1 2.62804 5.45336 9.77706 
109 1 -2.44162 5.41446 0.776243 
158 1 2.62828 5.45282 0.835854 
11 1 4.273 4.24985 20.113 
14 1 2.88696 4.1565 19.7022 
18 1 1.30058 5.86403 18.6046 
33 1 2.10292 4.21432 20.9074 
43 1 4.28677 4.2334 21.5586 
47 1 3.24093 5.80083 17.8252 
52 1 4.27488 4.24926 12.6547 
76 1 2.4182 4.94239 14.1762 
85 1 4.28489 4.23896 11.2091 
89 1 3.24136 5.80087 14.9382 
91 1 0.956815 5.0389 11.8426 
102 1 2.88763 4.15621 13.0613 
105 1 1.30093 5.86359 14.1592 
114 1 2.10406 4.21321 11.8555 
150 1 2.41757 4.94199 18.586 
156 1 2.96023 4.2835 22.1213 
159 1 0.956234 5.04061 20.9216 
5 1 -4.9078 10.5726 8.62164 
9 1 -3.31835 8.86242 7.52487 
19 1 -1.7068 7.51272 10.5183 
21 1 -2.5453 8.81199 10.8719 
23 1 -3.30161 7.55357 6.83913 
25 1 -4.13393 10.5005 9.83927 
32 1 1.5983 6.39113 0.751423 
36 1 -1.82564 7.5478 9.04741 
38 1 -2.1515 6.23291 8.63855 
54 1 0.330602 8.49971 10.6691 
57 1 1.38257 7.9523 9.80548 
60 1 -1.74394 7.50419 0.0648693 
65 1 -3.301 7.55542 3.77467 
78 1 -1.83339 7.54477 1.5487 
80 1 -2.52166 8.79827 1.83234 
84 1 -4.43591 9.78158 3.1018 
99 1 -2.97454 9.68286 0.767344 
100 1 -2.93748 6.28552 3.16771 
107 1 -4.90506 10.5684 1.98696 
110 1 -3.31846 8.86044 3.08427 
111 1 0.597359 5.953 10.81 
113 1 1.59869 6.3912 9.86229 
119 1 -4.12148 10.5098 0.780946 
127 1 -2.14671 6.23524 1.97733 
131 1 -2.33315 6.25086 11.0226 
138 1 1.38081 7.95259 0.807259 
142 1 -2.52326 8.80509 8.773 
145 1 -4.43985 9.7838 7.51017 
151 1 -4.97502 10.3615 11.0447 
154 1 -2.96593 9.69502 9.83727 
155 1 -2.94002 6.28397 7.44741 
12 1 2.56701 7.06519 17.1496 
17 1 0.424145 9.30986 20.9126 
24 1 -3.50177 8.31504 11.8094 
27 1 -0.273737 7.22016 21.6247 
29 1 0.595303 5.9561 21.9538 
31 1 1.28325 7.16884 17.9145 
44 1 -0.184449 7.17868 20.1408 
46 1 0.129154 8.48795 19.7119 
51 1 -0.27686 7.21353 11.1391 
53 1 2.56739 7.06495 15.6137 
56 1 1.28339 7.1687 14.8493 
63 1 -2.34491 6.22482 21.7428 
66 1 -3.39853 6.77174 20.8817 
70 1 -0.183558 7.17834 12.624 
72 1 0.503674 5.92533 12.9071 
92 1 0.919792 8.43819 14.2423 
95 1 -4.97765 10.441 21.7171 
98 1 -4.64564 9.27041 20.8535 
104 1 0.425895 9.31003 11.8522 
116 1 -2.61289 8.76795 21.8855 
118 1 -3.61559 8.33235 20.9369 
122 1 0.129057 8.48761 13.0524 
133 1 -3.30587 6.83181 11.9161 
136 1 0.327145 8.49954 22.0963 
147 1 0.503573 5.92521 19.8565 
153 1 -4.69055 9.0977 11.8274 
160 1 0.91974 8.4384 18.5216 
163 3 -5.99843 10.3832 13.7524 
1 1 7.774 4.89934 10.5149 
4 1 9.10433 4.83519 11.0218 
20 1 7.80324 4.94084 9.0619 
42 1 9.44223 5.4643 7.44709 
67 1 9.94796 4.59621 0.773268 
77 1 7.78997 4.89359 0.078613 
94 1 7.81514 4.9494 1.55162 
96 1 9.14018 4.69709 1.99892 
121 1 4.64296 5.52196 10.6851 
130 1 9.44323 5.46693 3.17072 
134 1 9.94494 4.61165 9.84639 
152 1 9.149 4.70263 8.62644 
45 1 4.64161 5.52114 22.0783 
55 1 4.81668 5.53999 13.0668 
106 1 9.13081 4.83832 21.7657 
137 1 4.81497 5.53965 19.6963 
2 1 7.25558 10.487 9.01802 
3 1 8.96688 7.65586 6.07612 
6 1 8.50796 6.39824 6.81344 
16 1 2.36903 8.69305 0.858422 
22 1 7.08544 6.18905 8.70939 
26 1 7.20097 8.40614 7.53037 
35 1 7.25482 10.4844 10.4682 
37 1 6.83998 9.24607 10.9943 
39 1 8.29236 8.92249 6.74884 
41 1 6.70464 6.99103 9.84764 
48 1 3.68935 6.35531 0.8386 
61 1 7.25983 10.4757 1.58086 
62 1 8.96757 7.65897 4.53919 
64 1 6.71782 9.18501 1.99308 
68 1 7.3782 6.95391 3.06996 
71 1 4.33002 8.51307 10.7386 
74 1 3.60062 7.80594 9.7937 
81 1 8.5082 6.39943 3.80548 
83 1 6.53724 8.40101 0.792366 
93 1 7.25032 10.4853 0.13496 
97 1 8.29298 8.92284 3.86311 
101 1 2.40297 9.88699 10.6902 
103 1 2.3704 8.69344 9.75409 
117 1 7.086 6.17184 1.91581 
120 1 7.20077 8.40363 3.08501 
123 1 3.69069 6.35457 9.77507 
129 1 6.69795 6.97716 0.775254 
132 1 6.72161 9.19167 8.61713 
135 1 7.37637 6.95355 7.54743 
141 1 7.21624 6.19689 10.9375 
144 1 6.54971 8.42267 9.84031 
148 1 3.59999 7.80569 0.820038 
7 1 9.0794 6.01154 11.9096 
10 1 3.74399 9.82922 21.6108 
13 1 2.40256 9.88631 22.0738 
15 1 3.02612 8.32528 17.8834 
28 1 3.71964 9.77404 20.1361 
30 1 4.44847 8.55227 19.7726 
34 1 4.33273 6.32002 18.603 
40 1 7.80981 8.41237 12.052 
49 1 4.83706 7.74779 20.9127 
50 1 2.09067 9.25719 18.5183 
58 1 1.58764 10.128 11.8487 
59 1 4.15565 7.77016 14.1444 
69 1 3.74455 9.82853 11.1535 
73 1 3.026 8.32516 14.88 
75 1 5.00025 6.32328 11.8663 
79 1 7.20638 6.20979 21.8147 
82 1 7.9344 6.9169 20.8686 
86 1 3.71986 9.77352 12.627 
88 1 2.39496 10.0275 13.0731 
108 1 9.16511 6.03074 20.8305 
112 1 4.44927 8.55227 12.9904 
115 1 4.33285 6.32055 14.1593 
124 1 4.83801 7.74625 11.8502 
125 1 2.09037 9.25746 14.2452 
126 1 6.89232 9.2027 21.7606 
128 1 7.8444 8.3676 20.851 
139 1 1.58671 10.1275 20.9156 
140 1 4.15504 7.77021 18.6191 
143 1 7.94114 6.86556 11.8933 
146 1 4.32863 8.51399 22.0249 
149 1 4.99787 6.32482 20.8952 
157 1 2.3939 10.0269 19.6904 
161 2 7.67018 8.52167 13.1648 
162 2 7.59934 9.59222 14.2983 
ITEM: TIMESTEP
50
ITEM: NUMBER OF ATOMS
163
ITEM: BOX BOUNDS xy xz yz pp pp pp
-6.7755000000000001e+00 1.3552000000000000e+01 -6.7755000000000001e+00
0.0000000000000000e+00 1.1735510246683001e+01 0.0000000000000000e+00
0.0000000000000000e+00 2.2149999999999999e+01 0.0000000000000000e+00
ITEM: ATOMS id type x y z 
8 1 -2.48667 5.47789 9.8474 
87 1 2.94129 4.31645 10.6392 
90 1 2.61044 5.46801 9.75365 
109 1 -2.47327 5.45943 0.783358 
158 1 2.61263 5.46005 0.857704 
11 1 4.25104 4.3005 20.0992 
14 1 2.86684 4.17089 19.712 
18 1 1.27867 5.8697 18.6102 
33 1 2.08515 4.21209 20.9261 
43 1 4.24788 4.30377 21.5176 
47 1 3.22858 5.79514 17.8294 
52 1 4.25599 4.30302 12.675 
76 1 2.38786 4.94217 14.1781 
85 1 4.25577 4.30881 11.2377 
89 1 3.2278 5.7982 14.9298 
91 1 0.911697 5.01921 11.834 
102 1 2.86127 4.17372 13.0504 
105 1 1.27828 5.87287 14.1519 
114 1 2.08268 4.21352 11.8457 
150 1 2.38506 4.94352 18.5842 
156 1 2.94131 4.3181 22.1226 
159 1 0.908432 5.01748 20.9359 
5 1 -4.87959 10.5519 8.63492 
9 1 -3.29836 8.85629 7.52792 
19 1 -1.69691 7.54149 10.501 
21 1 -2.49407 8.83121 10.8672 
23 1 -3.30325 7.54881 6.83834 
25 1 -4.0927 10.4933 9.84171 
32 1 1.56647 6.39983 0.763123 
36 1 -1.77383 7.57439 9.02755 
38 1 -2.1348 6.26462 8.63607 
54 1 0.359765 8.46863 10.6703 
57 1 1.40623 7.94643 9.80059 
60 1 -1.73909 7.52866 0.0724042 
65 1 -3.30038 7.54989 3.77297 
78 1 -1.78752 7.57068 1.55629 
80 1 -2.48206 8.81696 1.83652 
84 1 -4.40525 9.78123 3.10355 
99 1 -2.9275 9.70177 0.756883 
100 1 -2.93443 6.28589 3.15881 
107 1 -4.87805 10.5501 1.97605 
110 1 -3.2959 8.85104 3.07694 
111 1 0.569836 5.93531 10.8098 
113 1 1.57306 6.39958 9.854 
119 1 -4.10035 10.5099 0.77095 
127 1 -2.12994 6.26449 1.97684 
131 1 -2.34341 6.28458 11.0208 
138 1 1.39822 7.95232 0.810342 
142 1 -2.47724 8.82686 8.76824 
145 1 -4.41079 9.78438 7.5086 
151 1 -4.93986 10.3019 11.0378 
154 1 -2.90089 9.72203 9.8356 
155 1 -2.93869 6.28526 7.45473 
12 1 2.57053 7.04773 17.1477 
17 1 0.455966 9.26648 20.9071 
24 1 -3.46581 8.32101 11.8029 
27 1 -0.279 7.19442 21.6168 
29 1 0.561412 5.94264 21.953 
31 1 1.28318 7.1766 17.9144 
44 1 -0.232888 7.15509 20.1353 
46 1 0.110411 8.46025 19.7112 
51 1 -0.276045 7.18803 11.1481 
53 1 2.5707 7.04572 15.6138 
56 1 1.28203 7.1736 14.8478 
63 1 -2.36908 6.25348 21.7425 
66 1 -3.41836 6.77436 20.8789 
70 1 -0.229382 7.15293 12.6323 
72 1 0.466223 5.90463 12.9094 
92 1 0.91644 8.43763 14.2342 
95 1 -4.95608 10.4079 21.7144 
98 1 -4.63063 9.25731 20.8302 
104 1 0.458764 9.26522 11.8608 
116 1 -2.58284 8.78268 21.8859 
118 1 -3.586 8.32354 20.9281 
122 1 0.112384 8.45884 13.0539 
133 1 -3.31901 6.83646 11.9196 
136 1 0.35058 8.47052 22.098 
147 1 0.46095 5.90784 19.8493 
153 1 -4.6703 9.05367 11.8205 
160 1 0.915176 8.43906 18.5293 
163 3 -6.00284 10.3815 13.7536 
1 1 7.68488 4.87015 10.5208 
4 1 9.03926 4.87735 11.0093 
20 1 7.73309 4.95028 9.05933 
42 1 9.4228 5.48689 7.45959 
67 1 9.90753 4.64962 0.789455 
77 1 7.70044 4.87227 0.0693052 
94 1 7.74789 4.96454 1.53153 
96 1 9.07944 4.73038 1.99715 
121 1 4.61598 5.57588 10.678 
130 1 9.42281 5.49232 3.16397 
134 1 9.89302 4.67758 9.84657 
152 1 9.08378 4.73918 8.63221 
45 1 4.62243 5.57255 22.0937 
55 1 4.8179 5.59227 13.0756 
106 1 9.05463 4.87611 21.7906 
137 1 4.81955 5.58198 19.6817 
2 1 7.28321 10.4255 9.01633 
3 1 8.96213 7.67187 6.07836 
6 1 8.4957 6.40701 6.80506 
16 1 2.39195 8.70013 0.865192 
22 1 7.00917 6.16516 8.67517 
26 1 7.20043 8.38445 7.50712 
35 1 7.28556 10.3959 10.4652 
37 1 6.85275 9.17318 11.0106 
39 1 8.30786 8.92717 6.75174 
41 1 6.66215 6.95477 9.84498 
48 1 3.66907 6.36232 0.881721 
61 1 7.27878 10.4207 1.59951 
62 1 8.96372 7.67647 4.54031 
64 1 6.71754 9.13323 2.00037 
68 1 7.35229 6.93306 3.08793 
71 1 4.35573 8.53203 10.721 
74 1 3.62687 7.82631 9.76035 
81 1 8.49888 6.4081 3.81689 
83 1 6.53323 8.36388 0.788448 
93 1 7.27917 10.4147 0.163421 
97 1 8.30841 8.92522 3.85664 
101 1 2.48599 9.84447 10.7194 
103 1 2.40221 8.69504 9.74424 
117 1 7.01454 6.1441 1.94089 
120 1 7.20199 8.38164 3.10879 
123 1 3.67015 6.36903 9.73515 
129 1 6.65827 6.93547 0.773889 
132 1 6.72016 9.14411 8.61511 
135 1 7.3516 6.93657 7.52834 
141 1 7.16774 6.19684 10.9655 
144 1 6.53259 8.38136 9.83865 
148 1 3.62951 7.82683 0.858405 
7 1 9.0642 6.03135 11.9244 
10 1 3.82259 9.84314 21.6106 
13 1 2.49009 9.84274 22.0418 
15 1 3.02815 8.31645 17.8674 
28 1 3.78455 9.75588 20.1725 
30 1 4.51795 8.59114 19.7525 
34 1 4.3305 6.34226 18.5753 
40 1 7.80819 8.37968 12.0744 