ITEM: TIMESTEP
0
ITEM: NUMBER OF ATOMS
131
ITEM: BOX BOUNDS xy xz yz pp pp pp
0.0000000000000000e+00 2.3654499999999999e+01 7.8845000000000001e+00
0.0000000000000000e+00 1.3658086643083999e+01 0.0000000000000000e+00
0.0000000000000000e+00 2.5747000000000000e+01 0.0000000000000000e+00
ITEM: ATOMS id type x y z 
18 1 10.522 6.683 2.644 
28 1 5.247 4.273 12.803 
31 1 9.65 6.514 0.446 
62 1 9.171 5.15 12.405 
91 1 9.65 6.514 11.889 
92 1 10.81 6.18 11.007 
106 1 10.522 6.683 9.691 
127 1 10.81 6.18 1.328 
131 3 4.75 6.717 9.717 
4 1 4.402 5.735 13.319 
5 1 3.307 5.568 14.201 
43 1 4.549 6.796 15.517 
52 1 9.172 5.15 25.677 
66 1 4.402 5.735 24.762 
67 1 5.003 6.76 23.881 
88 1 5.247 4.273 25.278 
107 1 3.307 5.568 23.881 
116 1 4.549 6.796 22.565 
117 1 5.003 6.76 14.201 
11 1 11.272 7.494 3.321 
12 1 10.477 8.871 4.018 
14 1 9.018 11.397 0.446 
15 1 10.114 11.565 1.328 
16 1 8.412 9.024 0.654 
19 1 10.477 8.871 5.569 
29 1 10.927 10.156 3.321 
32 1 8.77 7.648 1.328 
35 1 12.036 9.594 2.644 
45 1 9.231 8.963 3.321 
47 1 12.762 8.702 0.446 
49 1 11.224 11 0.654 
51 1 8.872 10.337 2.644 
53 1 11.272 7.494 9.014 
54 1 10.477 8.871 8.317 
56 1 9.018 11.397 11.889 
57 1 8.418 10.372 11.007 
58 1 11.224 11 11.681 
60 1 12.255 7.901 9.691 
61 1 10.477 8.871 6.766 
73 1 9.231 8.963 9.014 
75 1 12.762 8.702 11.889 
76 1 12.202 10.061 11.007 
79 1 9.224 7.617 9.691 
80 1 8.174 12.859 12.405 
89 1 10.927 10.156 9.014 
93 1 8.412 9.024 11.681 
95 1 9.951 11.095 9.691 
105 1 10.114 11.565 11.007 
109 1 8.77 7.648 11.007 
110 1 12.036 9.594 9.691 
114 1 8.872 10.337 9.691 
119 1 8.418 10.372 1.328 
120 1 12.255 7.901 2.644 
123 1 12.202 10.061 1.328 
124 1 9.224 7.617 2.644 
128 1 9.951 11.095 2.644 
6 1 5.009 8.108 13.527 
13 1 9.663 10.28 25.128 
17 1 9.204 8.965 25.162 
30 1 10.016 7.556 25.128 
34 1 11.289 7.464 25.162 
36 1 8.174 12.859 25.677 
46 1 11.752 8.777 25.128 
50 1 10.937 10.184 25.162 
55 1 9.663 10.28 12.954 
59 1 10.937 10.184 12.919 
74 1 11.752 8.777 12.954 
78 1 11.289 7.464 12.919 
90 1 10.016 7.556 12.954 
94 1 9.204 8.965 12.919 
101 1 5.009 8.108 24.555 
33 1 11.795 6.589 0.654 
77 1 11.795 6.589 11.681 
41 1 17.967 6.132 13.527 
68 1 17.967 6.132 24.554 
103 1 19.24 6.037 22.565 
126 1 19.24 6.037 15.517 
3 1 19.528 6.852 12.254 
7 1 19.987 8.167 12.289 
10 1 15.106 8.528 12.804 
22 1 19.175 9.576 12.254 
26 1 17.902 9.668 12.289 
38 1 17.439 8.356 12.254 
42 1 18.254 6.949 12.289 
44 1 20.019 11.982 12.804 
48 1 12.546 7.4 1.328 
65 1 19.528 6.852 0.081 
69 1 18.254 6.949 0.046 
82 1 17.439 8.356 0.081 
86 1 17.902 9.668 0.046 
96 1 14.084 8.604 12.405 
98 1 19.175 9.576 0.081 
102 1 19.987 8.167 0.046 
113 1 12.546 7.4 11.007 
129 2 19.987 8.167 10.938 
130 2 19.667 6.977 10.086 
1 1 17.919 9.638 16.194 
2 1 18.714 8.261 16.892 
8 1 18.669 10.449 15.517 
9 1 18.714 8.261 18.442 
20 1 14.084 8.604 25.677 
21 1 18.264 6.977 16.194 
23 1 19.541 10.618 13.32 
24 1 20.421 9.484 14.201 
25 1 17.396 10.544 13.527 
27 1 17.155 7.538 15.517 
37 1 19.96 8.169 16.194 
39 1 16.429 8.43 13.319 
40 1 16.644 9.732 14.201 
63 1 17.919 9.638 21.888 
64 1 18.714 8.261 21.19 
70 1 16.936 9.231 22.565 
71 1 18.714 8.261 19.64 
72 1 20.019 11.982 25.278 
81 1 19.96 8.169 21.888 
83 1 16.429 8.43 24.762 
84 1 16.989 7.071 23.881 
85 1 17.396 10.544 24.555 
87 1 19.967 9.515 22.565 
97 1 18.263 6.977 21.888 
99 1 19.541 10.618 24.762 
100 1 18.38 10.953 23.881 
104 1 15.106 8.528 25.278 
108 1 18.669 10.449 22.565 
111 1 20.421 9.484 23.881 
112 1 17.155 7.538 22.565 
115 1 16.644 9.732 23.881 
118 1 16.936 9.231 15.517 
121 1 16.989 7.071 14.201 
122 1 19.967 9.515 15.517 
125 1 18.38 10.953 14.201 
ITEM: TIMESTEP
10
ITEM: NUMBER OF ATOMS
131
ITEM: BOX BOUNDS xy xz yz pp pp pp
0.0000000000000000e+00 2.3654499999999999e+01 7.8845000000000001e+00
0.0000000000000000e+00 1.3658086643083999e+01 0.0000000000000000e+00
0.0000000000000000e+00 2.5747000000000000e+01 0.0000000000000000e+00
ITEM: ATOMS id type x y z 
18 1 10.3729 6.72964 2.62303 
28 1 5.11336 4.547 12.8846 
31 1 9.43789 6.51304 0.406646 
62 1 9.12876 5.26079 12.3816 
91 1 9.43776 6.4943 11.9137 
92 1 10.7894 6.19709 10.9791 
106 1 10.3882 6.73045 9.68441 
127 1 10.7967 6.20149 1.35312 
131 3 4.75625 6.72227 9.72107 
4 1 4.44339 5.76309 13.283 
5 1 3.16575 5.60853 14.226 
43 1 4.58848 6.93978 15.4616 
52 1 9.12804 5.2464 25.6937 
66 1 4.44567 5.77106 24.8184 
67 1 5.05364 6.91852 23.8823 
88 1 5.1132 4.54504 25.1915 
107 1 3.18861 5.63416 23.8743 
116 1 4.5802 6.95148 22.6115 
117 1 5.0643 6.93993 14.1643 
11 1 11.2332 7.56223 3.45113 
12 1 10.5262 8.82223 4.10124 
14 1 8.97956 11.3448 0.377449 
15 1 10.2534 11.5115 1.33037 
16 1 8.41641 8.92857 0.705647 
19 1 10.4788 8.86689 5.5777 
29 1 10.9451 10.1345 3.34208 
32 1 8.72297 7.68061 1.30224 
35 1 12.0637 9.57815 2.60593 
45 1 9.21274 8.94735 3.2658 
47 1 12.7346 8.8167 0.546775 
49 1 11.3206 10.9007 0.67858 
51 1 8.83699 10.1955 2.6135 
53 1 11.2205 7.56912 8.9005 
54 1 10.5174 8.79312 8.232 
56 1 8.96126 11.353 11.9477 
57 1 8.35218 10.1641 11.0274 
58 1 11.3667 10.9241 11.6151 
60 1 12.3355 8.09955 9.67077 
61 1 10.4768 8.86711 6.75663 
73 1 9.20702 8.94484 9.07774 
75 1 12.7177 8.81187 11.8011 
76 1 12.252 10.0756 11.0264 
79 1 9.16715 7.69196 9.77128 
80 1 8.31811 12.5759 12.319 
89 1 10.96 10.1627 8.99488 
93 1 8.40019 8.94342 11.5862 
95 1 10.0161 11.0213 9.68954 
105 1 10.2519 11.5192 11.0039 
109 1 8.71474 7.694 11.0495 
110 1 12.0695 9.57643 9.7377 
114 1 8.84721 10.2022 9.74352 
119 1 8.35208 10.2021 1.30664 
120 1 12.3379 8.10912 2.64576 
123 1 12.2522 10.0751 1.30497 
124 1 9.17 7.67626 2.57644 
128 1 10.037 11.0305 2.64103 
6 1 4.98806 8.16984 13.5171 
13 1 9.55136 10.3735 25.1255 
17 1 9.20355 8.96903 25.1381 
30 1 9.94722 7.69516 25.0894 
34 1 11.275 7.44315 25.1317 
36 1 8.30305 12.5971 25.7561 
46 1 11.7168 8.80331 25.0601 
50 1 10.9244 10.1304 25.1507 
55 1 9.54381 10.3687 12.9992 
59 1 10.8943 10.054 12.9642 
74 1 11.7058 8.7895 12.9936 
78 1 11.2635 7.50255 12.9468 
90 1 9.96722 7.69267 13.0175 
94 1 9.25546 8.98376 12.9215 
101 1 4.98448 8.18273 24.5344 
33 1 11.7335 6.58952 0.695411 
77 1 11.7478 6.60959 11.6593 
41 1 17.837 6.18568 13.584 
68 1 17.8795 6.23585 24.5454 
103 1 19.1618 6.10079 22.5736 
126 1 19.1671 6.07273 15.5235 
3 1 19.4696 6.83124 12.2576 
7 1 20.085 8.19492 12.1255 
10 1 15.1151 8.46389 12.8395 
22 1 19.2311 9.47766 12.2442 
26 1 17.8861 9.62287 12.2474 
38 1 17.5352 8.31104 12.2572 
42 1 18.2849 6.99731 12.2799 
44 1 20.0586 11.9013 12.8169 
48 1 12.615 7.54733 1.41142 
65 1 19.6323 6.81101 0.102975 
69 1 18.2749 7.03289 0.0507536 
82 1 17.5248 8.35496 0.116736 
86 1 17.8971 9.66031 0.0549899 
96 1 14.065 8.66823 12.3584 
98 1 19.2135 9.4284 0.105951 
102 1 19.967 8.13671 0.0399471 
113 1 12.6097 7.54753 10.9377 
129 2 20.057 8.17707 11.0253 
130 2 19.6596 6.96454 10.0473 
1 1 17.9139 9.57395 16.3171 
2 1 18.683 8.31028 16.9983 
8 1 18.7934 10.445 15.5616 
9 1 18.7184 8.26416 18.4398 
20 1 14.1243 8.65671 25.7025 
21 1 18.2512 6.99753 16.2136 
23 1 19.7764 10.6548 13.2887 
24 1 20.4902 9.40059 14.1471 
25 1 17.4327 10.5576 13.5539 
27 1 17.128 7.5279 15.4559 
37 1 19.9509 8.18169 16.1647 
39 1 16.4943 8.2903 13.3619 
40 1 16.5557 9.60997 14.2686 
63 1 17.9661 9.57645 21.808 
64 1 18.6912 8.31241 21.1235 
70 1 16.8549 9.04765 22.5122 
71 1 18.7165 8.26381 19.6524 
72 1 20.0593 11.8625 25.2578 
81 1 19.9513 8.19296 21.9328 
83 1 16.473 8.31747 24.675 
84 1 16.9405 7.06996 23.8898 
85 1 17.3894 10.5171 24.5741 
87 1 20.0153 9.42942 22.641 
97 1 18.229 6.98987 21.8772 
99 1 19.7341 10.6204 24.8042 
100 1 18.4897 10.9263 23.8055 
104 1 15.0784 8.48203 25.2455 
108 1 18.7791 10.4052 22.584 
111 1 20.4581 9.45581 23.9098 
112 1 17.1478 7.52423 22.6106 
115 1 16.5933 9.59466 23.8427 
118 1 16.8387 9.03147 15.5817 
121 1 16.953 7.06477 14.1815 
122 1 20.0459 9.44393 15.4089 
125 1 18.4109 10.959 14.2022 
ITEM: TIMESTEP
20
ITEM: NUMBER OF ATOMS
131
ITEM: BOX BOUNDS xy xz yz pp pp pp
0.0000000000000000e+00 2.3654499999999999e+01 7.8845000000000001e+00
0.0000000000000000e+00 1.3658086643083999e+01 0.0000000000000000e+00
0.0000000000000000e+00 2.5747000000000000e+01 0.0000000000000000e+00
ITEM: ATOMS id type x y z 
18 1 10.3765 6.79303 2.65999 
28 1 5.09906 4.59046 12.8943 
31 1 9.41661 6.53889 0.404174 
62 1 9.09526 5.2712 12.3828 
91 1 9.42243 6.53074 11.9189 
92 1 10.7899 6.22101 10.9682 
106 1 10.3699 6.78713 9.67818 
127 1 10.7815 6.21324 1.3625 
131 3 4.76047 6.72268 9.72112 
4 1 4.42672 5.79855 13.2866 
5 1 3.14423 5.63182 14.2334 
43 1 4.57304 6.96134 15.4704 
52 1 9.09752 5.26743 25.6949 
66 1 4.43473 5.80145 24.808 
67 1 5.07443 6.95919 23.897 
88 1 5.09999 4.58308 25.1812 
107 1 3.16425 5.6591 23.8854 
116 1 4.58237 6.95144 22.6013 
117 1 5.0539 6.96175 14.1609 
11 1 11.2296 7.5612 3.41291 
12 1 10.5191 8.81123 4.08151 
14 1 8.98101 11.3254 0.399406 
15 1 10.2694 11.4829 1.33405 
16 1 8.3984 8.91606 0.695505 
19 1 10.4797 8.86485 5.5656 
29 1 10.9543 10.1192 3.33589 
32 1 8.68694 7.66894 1.28228 
35 1 12.0803 9.60468 2.61379 
45 1 9.21585 8.93924 3.2651 
47 1 12.7201 8.83687 0.521565 
49 1 11.3388 10.8949 0.659697 
51 1 8.83214 10.1748 2.613 
53 1 11.2331 7.56233 8.91961 
54 1 10.5115 8.79914 8.25192 
56 1 8.98302 11.3259 11.9398 
57 1 8.33052 10.155 11.0175 
58 1 11.3419 10.9017 11.654 
60 1 12.3135 8.10354 9.659 
61 1 10.4768 8.86285 6.77029 
73 1 9.22267 8.94548 9.07173 
75 1 12.7019 8.82859 11.8044 
76 1 12.2797 10.0967 11.0158 
79 1 9.17349 7.67247 9.77312 
80 1 8.32983 12.5415 12.3104 
89 1 10.9537 10.1208 9.00224 
93 1 8.38611 8.90976 11.6342 
95 1 10.0507 11.0234 9.69269 
105 1 10.2782 11.4764 11.0042 
109 1 8.68441 7.66841 11.0559 
110 1 12.0779 9.59687 9.72005 
114 1 8.83777 10.1809 9.72713 
119 1 8.34817 10.1644 1.31073 
120 1 12.3126 8.10695 2.67652 
123 1 12.2827 10.081 1.31755 
124 1 9.16318 7.66589 2.57454 
128 1 10.0487 11.0176 2.64477 
6 1 5.02217 8.20019 13.5231 
13 1 9.57534 10.3264 25.0886 
17 1 9.1894 8.97567 25.1293 
30 1 9.9327 7.69582 25.0767 
34 1 11.2719 7.49243 25.144 
36 1 8.31664 12.557 25.7659 
46 1 11.6984 8.81328 25.0869 
50 1 10.9341 10.1025 25.149 
55 1 9.57151 10.3416 13.0175 
59 1 10.9167 10.0774 12.9337 
74 1 11.6847 8.81391 12.9943 
78 1 11.2651 7.49949 12.9382 
90 1 9.94371 7.70006 13.0209 
94 1 9.22402 8.97679 12.9326 
101 1 5.02397 8.21013 24.5178 
33 1 11.7279 6.62427 0.703741 
77 1 11.7286 6.63905 11.6338 
41 1 17.8242 6.17228 13.5815 
68 1 17.8586 6.24318 24.5466 
103 1 19.1454 6.10225 22.5642 
126 1 19.1617 6.11586 15.5345 
3 1 19.4681 6.8495 12.2455 
7 1 20.0911 8.20711 12.1084 
10 1 15.1438 8.44749 12.843 
22 1 19.2395 9.49336 12.2391 
26 1 17.9207 9.62474 12.2664 
38 1 17.5249 8.29597 12.2542 
42 1 18.2744 6.9868 12.2816 
44 1 20.088 11.8773 12.8199 
48 1 12.5911 7.57082 1.41931 
65 1 19.6149 6.81221 0.143988 
69 1 18.2563 7.02654 0.0602983 
82 1 17.5096 8.32765 0.105849 
86 1 17.9009 9.6637 0.0133062 
96 1 14.0559 8.68391 12.36 
98 1 19.2354 9.43502 0.113598 
102 1 19.9873 8.1715 0.0634251 
113 1 12.5811 7.57797 10.9211 
129 2 20.0869 8.18321 11.0031 
130 2 19.6554 6.95967 10.0311 
1 1 17.9549 9.57407 16.2801 
2 1 18.6729 8.33067 16.9564 
8 1 18.7994 10.3494 15.5369 
9 1 18.7199 8.2667 18.4365 
20 1 14.0627 8.6871 25.7232 
21 1 18.2447 7.01553 16.2061 
23 1 19.7832 10.615 13.2892 
24 1 20.5084 9.42127 14.139 
25 1 17.454 10.5103 13.6082 
27 1 17.1169 7.53337 15.4896 
37 1 19.9631 8.19844 16.1378 
39 1 16.4985 8.29473 13.3785 
40 1 16.618 9.55918 14.2886 
63 1 17.9524 9.56136 21.8029 
64 1 18.6546 8.33179 21.1301 
70 1 16.8766 9.03985 22.5367 
71 1 18.7144 8.2671 19.6478 
72 1 20.0901 11.8498 25.2657 
81 1 19.9704 8.19281 21.9399 
83 1 16.4975 8.29886 24.7006 
84 1 16.9151 7.05235 23.8877 
85 1 17.4079 10.4633 24.5621 
87 1 20.0201 9.44527 22.644 
97 1 18.2455 7.0154 21.8783 
99 1 19.7303 10.5794 24.7863 
100 1 18.5202 10.8972 23.8282 
104 1 15.1472 8.45451 25.2199 
108 1 18.8077 10.3791 22.564 
111 1 20.4876 9.4682 23.9351 
112 1 17.1221 7.5321 22.5958 
115 1 16.6054 9.56285 23.8155 
118 1 16.8567 9.03261 15.5479 
121 1 16.916 7.04563 14.1887 
122 1 20.0062 9.45745 15.4197 
125 1 18.405 10.9149 14.2381 
ITEM: TIMESTEP
30
ITEM: NUMBER OF ATOMS
131
ITEM: BOX BOUNDS xy xz yz pp pp pp
0.0000000000000000e+00 2.3654499999999999e+01 7.8845000000000001e+00
0.0000000000000000e+00 1.3658086643083999e+01 0.0000000000000000e+00
0.0000000000000000e+00 2.5747000000000000e+01 0.0000000000000000e+00
ITEM: ATOMS id type x y z 
18 1 10.3276 6.79475 2.66409 
28 1 5.10313 4.61502 12.8937 
31 1 9.37403 6.57283 0.411732 
62 1 9.03033 5.28754 12.3837 
91 1 9.37979 6.57672 11.928 
92 1 10.7693 6.25583 10.9618 
106 1 10.3398 6.79411 9.66583 
127 1 10.7646 6.25872 1.37309 
131 3 4.76793 6.72426 9.72212 
4 1 4.38001 5.8536 13.2988 
5 1 3.14969 5.68978 14.2284 
43 1 4.56074 6.98587 15.4688 
52 1 9.03516 5.29114 25.6953 
66 1 4.41285 5.88432 24.797 
67 1 5.07246 6.99265 23.9024 
88 1 5.0986 4.61354 25.1747 
107 1 3.15304 5.70897 23.8869 
116 1 4.56701 6.97007 22.6029 
117 1 5.05211 7.01785 14.1584 
11 1 11.2431 7.58533 3.41374 
12 1 10.5104 8.78568 4.06 
14 1 9.01037 11.2583 0.426651 
15 1 10.2607 11.4263 1.31349 
16 1 8.35579 8.88261 0.672969 
19 1 10.4768 8.8607 5.56848 
29 1 10.9415 10.105 3.31813 
32 1 8.6379 7.64381 1.26913 
35 1 12.1205 9.62542 2.63515 
45 1 9.20004 8.93667 3.26266 
47 1 12.6979 8.8587 0.527512 
49 1 11.3816 10.8887 0.643293 
51 1 8.85692 10.1648 2.60088 
53 1 11.2345 7.58313 8.91722 
54 1 10.5133 8.79747 8.28166 
56 1 9.01988 11.2354 11.9144 
57 1 8.34984 10.1398 11.0301 
58 1 11.3692 10.8866 11.722 
60 1 12.3182 8.11779 9.62915 
61 1 10.475 8.85859 6.77289 
73 1 9.19117 8.93879 9.07542 
75 1 12.6927 8.86841 11.8124 
76 1 12.3339 10.0816 11.0058 
79 1 9.15936 7.65431 9.77773 
80 1 8.32144 12.5282 12.3077 
89 1 10.9427 10.0944 9.00726 
93 1 8.35813 8.87667 11.6806 
95 1 10.0495 11.0277 9.67243 
105 1 10.2559 11.4213 11.0085 
109 1 8.63449 7.64311 11.0707 
110 1 12.1202 9.62759 9.70214 
114 1 8.85922 10.1626 9.72637 
119 1 8.34631 10.1379 1.3079 
120 1 12.3139 8.12359 2.71459 
123 1 12.3245 10.0987 1.31915 
124 1 9.15902 7.65582 2.55808 
128 1 10.0458 11.0183 2.6667 
6 1 5.06389 8.23469 13.5294 
13 1 9.58226 10.2973 25.0367 
17 1 9.17946 8.96227 25.1282 
30 1 9.92853 7.70484 25.058 
34 1 11.2492 7.4998 25.1358 
36 1 8.32853 12.506 25.7805 
46 1 11.6986 8.82774 25.1216 
50 1 10.9346 10.1117 25.1488 
55 1 9.60341 10.2541 13.0196 
59 1 10.99 10.1632 12.9213 
74 1 11.6921 8.83111 12.954 
78 1 11.2538 7.51146 12.9518 
90 1 9.91704 7.71016 13.0216 
94 1 9.1152 8.94228 12.9458 
101 1 5.07105 8.2463 24.5429 
33 1 11.7025 6.66733 0.714369 
77 1 11.7063 6.67127 11.6193 
41 1 17.7787 6.17632 13.5625 
68 1 17.8249 6.23608 24.5615 
103 1 19.1383 6.11282 22.5495 
126 1 19.1417 6.10786 15.5622 
3 1 19.4392 6.86312 12.2272 
7 1 20.1337 8.24244 12.0795 
10 1 15.1494 8.43746 12.8266 
22 1 19.2499 9.48807 12.243 
26 1 17.9131 9.63546 12.2611 
38 1 17.5337 8.29876 12.2677 
42 1 18.24 6.95783 12.3037 
44 1 20.1551 11.8681 12.8161 
48 1 12.5761 7.64204 1.38428 
65 1 19.6156 6.8416 0.166069 
69 1 18.2462 7.02772 0.0634767 
82 1 17.5037 8.31066 0.118547 
86 1 17.9196 9.64007 -0.00881342 
96 1 14.0543 8.69125 12.3778 
98 1 19.2592 9.44258 0.123541 
102 1 19.9977 8.18141 0.090129 
113 1 12.567 7.64902 10.9419 
129 2 20.1488 8.19926 10.9593 
130 2 19.6478 6.94945 9.99824 
1 1 17.9421 9.54503 16.2973 
2 1 18.6746 8.34687 16.9329 
8 1 18.8651 10.3293 15.5377 
9 1 18.7196 8.27252 18.4476 
20 1 14.0509 8.6976 25.6972 
21 1 18.25 7.03423 16.2089 
23 1 19.8147 10.5627 13.2792 
24 1 20.5475 9.45565 14.1191 
25 1 17.4767 10.474 13.6027 
27 1 17.068 7.51672 15.5089 
37 1 19.9985 8.19382 16.127 
39 1 16.5212 8.26973 13.3945 
40 1 16.6147 9.47068 14.2541 
63 1 17.9481 9.5534 21.7928 
64 1 18.6765 8.34759 21.1598 
70 1 16.8767 9.01561 22.5194 
71 1 18.7148 8.27449 19.6443 
72 1 20.1473 11.8556 25.2865 
81 1 19.9836 8.19424 21.9404 
83 1 16.5232 8.25625 24.6943 
84 1 16.8658 7.03561 23.8888 
85 1 17.4259 10.4175 24.5458 
87 1 20.0343 9.47646 22.6464 
97 1 18.2395 7.02974 21.8831 
99 1 19.7452 10.5433 24.7773 
100 1 18.5682 10.8425 23.8454 
104 1 15.1394 8.43862 25.2517 
108 1 18.8657 10.3535 22.5294 
111 1 20.5545 9.46581 23.9228 
112 1 17.0806 7.51622 22.5794 
115 1 16.6018 9.51661 23.8265 
118 1 16.8731 9.01038 15.5788 
121 1 16.8643 7.01805 14.206 
122 1 20.0179 9.47412 15.4269 
125 1 18.418 10.8905 14.2504 
ITEM: TIMESTEP
40
ITEM: NUMBER OF ATOMS
131
ITEM: BOX BOUNDS xy xz yz pp pp pp
0.0000000000000000e+00 2.3654499999999999e+01 7.8845000000000001e+00
0.0000000000000000e+00 1.3658086643083999e+01 0.0000000000000000e+00
0.0000000000000000e+00 2.5747000000000000e+01 0.0000000000000000e+00
ITEM: ATOMS id type x y z 
18 1 10.3461 6.8071 2.6758 
28 1 5.09188 4.64663 12.9002 
31 1 9.36511 6.5724 0.402781 
62 1 9.00489 5.29899 12.3829 
91 1 9.36732 6.57119 11.9287 
92 1 10.7577 6.26817 10.9682 
106 1 10.3467 6.80534 9.66327 
127 1 10.7521 6.26615 1.36631 
131 3 4.77079 6.7255 9.72313 
4 1 4.39398 5.86326 13.2932 
5 1 3.12236 5.68987 14.2294 
43 1 4.56619 6.978 15.4582 
52 1 9.00873 5.30161 25.6968 
66 1 4.41799 5.88336 24.8045 
67 1 5.07951 7.00869 23.9048 
88 1 5.09111 4.64103 25.1673 
107 1 3.14229 5.71475 23.8876 
116 1 4.57078 6.96961 22.6111 
117 1 5.05218 7.02502 14.1513 
11 1 11.2291 7.5719 3.41102 
12 1 10.5055 8.78695 4.07062 
14 1 9.0036 11.2464 0.405109 
15 1 10.2871 11.4187 1.3261 
16 1 8.34745 8.87802 0.666909 
19 1 10.4755 8.85697 5.56464 
29 1 10.9483 10.0918 3.32135 
32 1 8.61896 7.64361 1.27297 
35 1 12.1194 9.63943 2.63654 
45 1 9.20418 8.92932 3.25923 
47 1 12.7009 8.87817 0.526825 
49 1 11.3709 10.8836 0.64815 
51 1 8.84822 10.1596 2.59983 
53 1 11.2334 7.57102 8.92295 
54 1 10.5 8.78531 8.26522 
56 1 9.0128 11.2326 11.9285 
57 1 8.34286 10.1319 11.0326 
58 1 11.3892 10.9034 11.6886 
60 1 12.3176 8.13253 9.63514 
61 1 10.4743 8.85727 6.77058 
73 1 9.20639 8.93033 9.07791 
75 1 12.7019 8.8773 11.801 
76 1 12.3448 10.1041 11.0028 
79 1 9.1381 7.66325 9.7862 
80 1 8.33793 12.4839 12.2971 
89 1 10.9486 10.0965 9.01612 
93 1 8.3311 8.87272 11.6809 
95 1 10.0518 11.0151 9.68386 
105 1 10.2697 11.4174 11.018 
109 1 8.6218 7.63014 11.0571 
110 1 12.1195 9.6358 9.6942 
114 1 8.84791 10.1631 9.73855 
119 1 8.34046 10.1179 1.30519 
120 1 12.3207 8.13327 2.69167 
123 1 12.3385 10.1077 1.33007 
124 1 9.136 7.66376 2.55204 
128 1 10.0533 11.0156 2.64618 
6 1 5.05838 8.24778 13.514 
13 1 9.56986 10.3083 25.0438 
17 1 9.17992 8.96193 25.1229 
30 1 9.92178 7.70304 25.0541 
34 1 11.2618 7.49809 25.1334 
36 1 8.32968 12.4909 25.7854 
46 1 11.6798 8.82105 25.1128 
50 1 10.9399 10.0999 25.1448 
55 1 9.62021 10.232 13.0123 
59 1 10.9954 10.1398 12.9361 
74 1 11.6651 8.8544 12.9815 
78 1 11.2443 7.52423 12.932 
90 1 9.9046 7.72402 13.036 
94 1 9.11153 8.91987 12.9579 
101 1 5.07451 8.24754 24.5522 
33 1 11.6988 6.68961 0.723757 
77 1 11.6924 6.69836 11.6242 
41 1 17.7766 6.16851 13.5821 
68 1 17.822 6.24832 24.5606 
103 1 19.1373 6.11899 22.5593 
126 1 19.1503 6.11935 15.549 
3 1 19.4383 6.86964 12.2223 
7 1 20.1435 8.23898 12.0747 
10 1 15.1507 8.42517 12.8264 
22 1 19.2485 9.4959 12.2358 
26 1 17.9248 9.62955 12.256 
38 1 17.5315 8.29602 12.264 
42 1 18.2411 6.96402 12.2992 
44 1 20.1801 11.8553 12.8177 
48 1 12.5592 7.63993 1.41131 
65 1 19.6209 6.83286 0.16978 
69 1 18.2578 7.03047 0.0671294 
82 1 17.5121 8.31404 0.118125 
86 1 17.9161 9.64509 -0.000962705 
96 1 14.0613 8.69992 12.3793 
98 1 19.2554 9.43997 0.122776 
102 1 20.0024 8.18465 0.0852402 
113 1 12.5576 7.64143 10.9299 
129 2 20.1765 8.20429 10.9532 
130 2 19.6446 6.94495 9.984 
1 1 17.9577 9.5635 16.2858 
2 1 18.6861 8.35317 16.9499 
8 1 18.8373 10.3238 15.5459 
9 1 18.7194 8.27608 18.4432 
20 1 14.057 8.70493 25.6961 
21 1 18.2384 7.04423 16.2052 
23 1 19.8235 10.5739 13.2742 
24 1 20.5692 9.45523 14.1355 
25 1 17.4796 10.4566 13.6118 
27 1 17.0729 7.49545 15.5205 
37 1 19.9829 8.20633 16.134 
39 1 16.5144 8.24241 13.3853 
40 1 16.6323 9.48881 14.2812 
63 1 17.9522 9.56072 21.8024 
64 1 18.6691 8.35631 21.142 
70 1 16.8775 9.00814 22.5196 
71 1 18.7158 8.27766 19.6482 
72 1 20.165 11.835 25.2866 
81 1 19.9857 8.20068 21.9474 
83 1 16.5067 8.24853 24.7078 
84 1 16.857 7.02477 23.8798 
85 1 17.4328 10.4053 24.5306 
87 1 20.0663 9.45751 22.6432 
97 1 18.2393 7.04264 21.8881 
99 1 19.7763 10.5453 24.7869 
100 1 18.5758 10.8283 23.8321 
104 1 15.1475 8.43115 25.2446 
108 1 18.851 10.3538 22.5339 
111 1 20.5646 9.48154 23.9307 
112 1 17.0777 7.50225 22.5813 
115 1 16.6087 9.50472 23.8167 
118 1 16.8667 8.99774 15.5696 
121 1 16.8472 7.01198 14.2156 
122 1 20.0525 9.45898 15.4126 
125 1 18.4304 10.8746 14.2492 
ITEM: TIMESTEP
50
ITEM: NUMBER OF ATOMS
131
ITEM: BOX BOUNDS xy xz yz pp pp pp
0.0000000000000000e+00 2.3654499999999999e+01 7.8845000000000001e+00
0.0000000000000000e+00 1.3658086643083999e+01 0.0000000000000000e+00
0.0000000000000000e+00 2.5747000000000000e+01 0.0000000000000000e+00
ITEM: ATOMS id type x y z 
18 1 10.3345 6.80949 2.66949 
28 1 5.09271 4.65594 12.9001 
31 1 9.35827 6.57676 0.401571 
62 1 8.98384 5.30445 12.3833 
91 1 9.35843 6.57097 11.9267 
92 1 10.7465 6.2757 10.9712 
106 1 10.3378 6.80855 9.66576 
127 1 10.7424 6.27492 1.36612 
131 3 4.77306 6.72657 9.72402 
4 1 4.389 5.87101 13.2948 
5 1 3.1209 5.69581 14.2299 
43 1 4.56785 6.98678 15.4561 
52 1 8.98684 5.30356 25.6952 
66 1 4.41642 5.89142 24.8036 
67 1 5.08156 7.01543 23.9068 
88 1 5.09364 4.64678 25.1662 
107 1 3.13939 5.72161 23.8896 
116 1 4.57287 6.97481 22.6135 
117 1 5.05139 7.03549 14.149 
11 1 11.2348 7.57906 3.41253 
12 1 10.505 8.78285 4.06964 
14 1 9.00591 11.241 0.40912 
15 1 10.2854 11.4114 1.32034 
16 1 8.33964 8.87202 0.661163 
19 1 10.4745 8.85512 5.56684 
29 1 10.9477 10.0906 3.32089 
32 1 8.60792 7.64116 1.2712 
35 1 12.1255 9.64268 2.63817 
45 1 9.20089 8.92965 3.25616 
47 1 12.7028 8.88159 0.527036 
49 1 11.3775 10.8804 0.647935 
51 1 8.84746 10.1565 2.59598 
53 1 11.2342 7.57794 8.92101 
54 1 10.5023 8.78514 8.26812 
56 1 9.01811 11.2197 11.9313 
57 1 8.33978 10.1198 11.0362 
58 1 11.3976 10.9054 11.6951 
60 1 12.315 8.13659 9.63119 
61 1 10.4732 8.85529 6.77056 
73 1 9.20003 8.93097 9.08244 
75 1 12.7079 8.8852 11.8039 
76 1 12.3554 10.1075 10.9965 
79 1 9.13444 7.65946 9.78433 
80 1 8.33986 12.4696 12.296 
89 1 10.9467 10.0909 9.01386 
93 1 8.31519 8.86426 11.6819 
95 1 10.052 11.0105 9.6897 
105 1 10.2737 11.4114 11.0181 
109 1 8.60831 7.63038 11.0624 
110 1 12.1258 9.64261 9.6951 
114 1 8.84763 10.1566 9.74146 
119 1 8.33923 10.1115 1.30432 
120 1 12.3151 8.13963 2.70186 
123 1 12.3458 10.1131 1.33072 
124 1 9.13229 7.66024 2.55244 
128 1 10.0522 11.0092 2.64688 
6 1 5.06398 8.2534 13.511 
13 1 9.57167 10.3008 25.037 
17 1 9.17772 8.95871 25.1215 
30 1 9.92007 7.7005 25.0508 
34 1 11.2564 7.50016 25.1328 
36 1 8.32751 12.4846 25.7872 
46 1 11.6835 8.82255 25.1139 
50 1 10.9359 10.0976 25.1435 
55 1 9.62196 10.2188 13.0142 
59 1 11.0025 10.1479 12.9285 
74 1 11.6667 8.85334 12.9793 
78 1 11.2398 7.53339 12.9408 
90 1 9.90149 7.72413 13.0436 
94 1 9.09725 8.91827 12.9565 
101 1 5.08242 8.25426 24.555 
33 1 11.6942 6.69747 0.724725 
77 1 11.688 6.70633 11.6194 
41 1 17.7688 6.17158 13.581 
68 1 17.8192 6.25005 24.5623 
103 1 19.1363 6.1247 22.5605 
126 1 19.1454 6.12296 15.5475 
3 1 19.4345 6.87404 12.2167 
7 1 20.1441 8.24559 12.0676 
10 1 15.1498 8.42263 12.8288 
22 1 19.2522 9.4928 12.2329 
26 1 17.9245 9.62758 12.2576 
38 1 17.5347 8.29345 12.2632 
42 1 18.2381 6.96515 12.3033 
44 1 20.201 11.8509 12.8167 
48 1 12.5585 7.65217 1.40313 
65 1 19.6233 6.83906 0.173882 
69 1 18.2585 7.03249 0.0691453 
82 1 17.5107 8.31339 0.11827 
86 1 17.9201 9.64193 -0.000479964 
96 1 14.061 8.70152 12.3771 
98 1 19.2578 9.44179 0.122952 
102 1 20.0041 8.18601 0.0893116 
113 1 12.5565 7.65394 10.9313 
129 2 20.1991 8.20806 10.9486 
130 2 19.6421 6.94144 9.97263 
1 1 17.9531 9.55488 16.2879 
2 1 18.6831 8.35556 16.9477 
8 1 18.855 10.3188 15.5418 
9 1 18.7203 8.27871 18.4433 
20 1 14.0533 8.70811 25.6988 
21 1 18.2431 7.0469 16.2074 
23 1 19.8297 10.5701 13.2771 
24 1 20.5786 9.45958 14.1292 
25 1 17.4837 10.4494 13.6115 
27 1 17.0644 7.49254 15.5228 
37 1 19.991 8.20372 16.1304 
39 1 16.5095 8.24016 13.3893 
40 1 16.6336 9.4728 14.2747 
63 1 17.9513 9.55545 21.8017 
64 1 18.6706 8.36053 21.1464 
70 1 16.8776 9.00353 22.5156 
71 1 18.7157 8.2804 19.6494 
72 1 20.1823 11.8323 25.2908 
81 1 19.9881 8.20022 21.9474 
83 1 16.5062 8.24071 24.7068 
84 1 16.8494 7.02115 23.8826 
85 1 17.4393 10.3986 24.5274 
87 1 20.0742 9.46312 22.6437 
97 1 18.2392 7.04496 21.889 
99 1 19.7822 10.5428 24.7875 
100 1 18.585 10.819 23.8364 
104 1 15.1431 8.42875 25.2449 
108 1 18.8637 10.3469 22.5328 
111 1 20.5789 9.4822 23.9304 
112 1 17.0713 7.49812 22.5783 
115 1 16.6116 9.49361 23.8173 
118 1 16.8722 8.992 15.578 
121 1 16.8392 7.00492 14.2201 
122 1 20.0536 9.46636 15.4152 
125 1 18.4391 10.8675 14.2462 
ITEM: TIMESTEP
60
ITEM: NUMBER OF ATOMS
131
ITEM: BOX BOUNDS xy xz yz pp pp pp
0.0000000000000000e+00 2.3654499999999999e+01 7.8845000000000001e+00
0.0000000000000000e+00 1.3658086643083999e+01 0.0000000000000000e+00
0.0000000000000000e+00 2.5747000000000000e+01 0.0000000000000000e+00
ITEM: ATOMS id type x y z 
18 1 10.3135 6.83962 2.67689 
28 1 5.09674 4.72055 12.9004 
31 1 9.30417 6.59159 0.387179 
62 1 8.84002 5.33336 12.3894 
91 1 9.30981 6.58321 11.9335 
92 1 10.6886 6.32738 10.9923 
106 1 10.3175 6.83714 9.66335 
127 1 10.6911 6.32282 1.34334 
131 3 4.788 6.73413 9.7304 
4 1 4.36365 5.92346 13.2869 
5 1 3.09191 5.7296 14.2219 
43 1 4.57644 7.00342 15.4344 
52 1 8.84408 5.33041 25.6882 
66 1 4.41581 5.93481 24.8072 
67 1 5.10182 7.06021 23.9222 
88 1 5.10815 4.69077 25.1567 
107 1 3.12406 5.75904 23.9002 
116 1 4.58677 6.9934 22.6327 
117 1 5.0552 7.09092 14.1277 
11 1 11.2202 7.57982 3.40723 
12 1 10.4943 8.7701 4.0718 
14 1 9.00638 11.1976 0.401687 
15 1 10.2972 11.3722 1.30859 
16 1 8.29086 8.84236 0.631802 
19 1 10.4666 8.84094 5.56758 
29 1 10.9448 10.0763 3.31569 
32 1 8.5418 7.62245 1.26258 
35 1 12.1516 9.67487 2.65723 
45 1 9.19038 8.92125 3.24644 
47 1 12.7002 8.92702 0.527477 
49 1 11.3971 10.8605 0.637211 
51 1 8.83696 10.1411 2.57803 
53 1 11.2249 7.58135 8.93209 
54 1 10.4886 8.77717 8.27099 
56 1 9.04344 11.1399 11.9437 
57 1 8.30683 10.0587 11.0486 
58 1 11.4581 10.9303 11.6831 
60 1 12.3081 8.17702 9.62369 
61 1 10.4663 8.8435 6.77219 
73 1 9.19122 8.92003 9.08984 
75 1 12.7166 8.93582 11.8025 
76 1 12.4123 10.15 10.9918 
79 1 9.07969 7.65366 9.79908 
80 1 8.34494 12.3889 12.2966 
89 1 10.9453 10.0772 9.0243 
93 1 8.21857 8.81989 11.7048 
95 1 10.0486 10.9784 9.71544 
105 1 10.3167 11.3738 11.0369 
109 1 8.52912 7.60624 11.0601 
110 1 12.1523 9.66883 9.67409 
114 1 8.8311 10.1334 9.77706 
119 1 8.32275 10.0708 1.28354 
120 1 12.3137 8.17715 2.70541 
123 1 12.3884 10.1463 1.34124 
124 1 9.07911 7.65569 2.54171 
128 1 10.0461 10.9778 2.63035 
6 1 5.09592 8.28987 13.4748 
13 1 9.55545 10.2814 25.0191 
17 1 9.16497 8.94419 25.1036 
30 1 9.90633 7.68909 25.0307 
34 1 11.2515 7.49931 25.1226 
36 1 8.31469 12.4381 25.8007 
46 1 11.6826 8.81529 25.1116 
50 1 10.9273 10.0836 25.1366 
55 1 9.63527 10.154 13.0164 
59 1 11.0192 10.1629 12.9217 
74 1 11.6664 8.86747 12.9751 
78 1 11.215 7.54808 12.9456 
90 1 9.87871 7.73929 13.0798 
94 1 9.03983 8.88701 12.9689 
101 1 5.129 8.28407 24.5791 
33 1 11.6583 6.74765 0.731484 
77 1 11.646 6.77527 11.6167 
41 1 17.7315 6.17012 13.5916 
68 1 17.8008 6.26423 24.5756 
103 1 19.1389 6.15363 22.5762 
126 1 19.1518 6.15115 15.5368 
3 1 19.4276 6.9057 12.191 
7 1 20.1536 8.25778 12.0314 
10 1 15.1388 8.39823 12.8346 
22 1 19.2546 9.48463 12.2143 
26 1 17.938 9.6196 12.2509 
38 1 17.5369 8.28771 12.2642 
42 1 18.2271 6.96828 12.3121 
44 1 20.3422 11.8202 12.8101 
48 1 12.5381 7.70005 1.41968 
65 1 19.635 6.85797 0.196427 
69 1 18.2764 7.04667 0.0843266 
82 1 17.5168 8.31398 0.123733 
86 1 17.9289 9.63844 0.00726248 
96 1 14.0689 8.7174 12.3721 
98 1 19.2674 9.44206 0.13153 
102 1 20.0225 8.20114 0.105972 
113 1 12.5362 7.70575 10.932 
129 2 20.3543 8.23177 10.915 
130 2 19.6258 6.9179 9.89541 
1 1 17.9695 9.55703 16.2811 
2 1 18.7002 8.36904 16.9533 
8 1 18.8755 10.2922 15.5461 
9 1 18.7244 8.29659 18.4522 
20 1 14.0519 8.73298 25.7006 
21 1 18.2437 7.06388 16.2063 
23 1 19.8711 10.5606 13.2726 
24 1 20.6408 9.48873 14.1232 
25 1 17.515 10.4053 13.6217 
27 1 17.0356 7.45645 15.5558 
37 1 20.0014 8.21901 16.1296 
39 1 16.499 8.18348 13.3957 
40 1 16.6512 9.42793 14.2962 
63 1 17.9593 9.55126 21.8117 
64 1 18.6794 8.37475 21.1496 
70 1 16.8765 8.97014 22.4945 
71 1 18.7176 8.29993 19.6539 
72 1 20.2974 11.8092 25.3173 
81 1 20.0048 8.21468 21.9535 
83 1 16.4958 8.19281 24.7143 
84 1 16.8091 6.98802 23.8779 
85 1 17.4765 10.3535 24.5078 
87 1 20.1498 9.46643 22.6434 
97 1 18.2386 7.06787 21.8989 
99 1 19.8439 10.5277 24.7955 
100 1 18.6397 10.7656 23.8408 
104 1 15.1239 8.40952 25.2471 
108 1 18.9014 10.3135 22.5308 
111 1 20.6596 9.50065 23.9324 
112 1 17.0388 7.46578 22.568 
115 1 16.6288 9.44864 23.8087 
118 1 16.877 8.95298 15.5911 
121 1 16.7861 6.97232 14.2467 
122 1 20.1198 9.468 15.4091 
125 1 18.4876 10.8215 14.2275 
ITEM: TIMESTEP
70
ITEM: NUMBER OF ATOMS
131
ITEM: BOX BOUNDS xy xz yz pp pp pp
0.0000000000000000e+00 2.3654499999999999e+01 7.8845000000000001e+00
0.0000000000000000e+00 1.3658086643083999e+01 0.0000000000000000e+00
0.0000000000000000e+00 2.5747000000000000e+01 0.0000000000000000e+00
ITEM: ATOMS id type x y z 
18 1 10.3028 6.84321 2.66844 
28 1 5.09819 4.73584 12.8997 
31 1 9.29369 6.59334 0.38305 
62 1 8.80804 5.3495 12.3883 
91 1 9.29684 6.5842 11.9353 
92 1 10.6729 6.33966 10.998 
106 1 10.3068 6.84143 9.66844 
127 1 10.6762 6.33544 1.34166 
131 3 4.79036 6.73631 9.73226 
4 1 4.36183 5.93299 13.2848 
5 1 3.08829 5.73547 14.2212 
43 1 4.57996 7.01068 15.4302 
52 1 8.81034 5.34115 25.6874 
66 1 4.41741 5.9431 24.8089 
67 1 5.10583 7.066 23.927 
88 1 5.11089 4.70369 25.1538 
107 1 3.1238 5.76671 23.9059 
116 1 4.59001 6.99741 22.637 
117 1 5.05506 7.10187 14.1216 
11 1 11.2255 7.5868 3.40449 