LAMMPS (3 Mar 2020)
# Alpha
clear
units		real
dimension 3
boundary        p p p
atom_style	charge
newton on
read_data       OOH_18.lmp
  triclinic box = (0 0 0) to (13.552 11.7355 22.15) with tilt (-6.7755 0 0)
  2 by 2 by 2 MPI processor grid
  reading atoms ...
  163 atoms
  read_data CPU = 0.0246003 secs

timestep 0.25

# ---------- Define Interatomic Potential ---------------------
pair_style      reax/c NULL checkqeq no
pair_coeff      * * ffield.reax C H O
fix             2 all qeq/reax 1 0.0 10.0 1.0e-6 reax/c

#------------ Equilibration of the system -------------------------
reset_timestep 0

dump 1 all custom 10 min.lammpstrj id type x y z

minimize 1.0e-8 1.0e-8 100000 100000
WARNING: Using 'neigh_modify every 1 delay 0 check yes' setting during minimization (../min.cpp:190)
WARNING: Total cutoff < 2*bond cutoff. May need to use an increased neighbor list skin. (../pair_reaxc.cpp:413)
Neighbor list info ...
  update every 1 steps, delay 0 steps, check yes
  max neighbors/atom: 2000, page size: 100000
  master list distance cutoff = 9.5
  ghost atom cutoff = 9.5
  binsize = 4.75, bins = 5 3 5
  2 neighbor lists, perpetual/occasional/extra = 2 0 0
  (1) pair reax/c, perpetual
      attributes: half, newton off, ghost
      pair build: half/bin/newtoff/ghost
      stencil: half/ghost/bin/3d/newtoff
      bin: standard
  (2) fix qeq/reax, perpetual, copy from (1)
      attributes: half, newton off, ghost
      pair build: copy
      stencil: none
      bin: none
Per MPI rank memory allocation (min/avg/max) = 22.56 | 23.46 | 24.36 Mbytes
Step Temp E_pair E_mol TotEng Press 
       0            0   -25658.024            0   -25658.024     105350.9 
     523            0   -29321.379            0   -29321.379    31450.658 
Loop time of 116.918 on 8 procs for 523 steps with 163 atoms

99.9% CPU use with 8 MPI tasks x no OpenMP threads

Minimization stats:
  Stopping criterion = energy tolerance
  Energy initial, next-to-last, final = 
         -25658.023762     -29321.3782394     -29321.3785108
  Force two-norm initial, final = 4660.81 149.572
  Force max component initial, final = 611.173 54.5874
  Final line search alpha, max atom move = 0.000162292 0.00885911
  Iterations, force evaluations = 523 3880

MPI task timing breakdown:
Section |  min time  |  avg time  |  max time  |%varavg| %total
---------------------------------------------------------------
Pair    | 84.34      | 89.714     | 94.264     |  37.6 | 76.73
Neigh   | 0          | 0          | 0          |   0.0 |  0.00
Comm    | 0.54608    | 5.0762     | 10.433     | 157.9 |  4.34
Output  | 0.0084305  | 0.010769   | 0.015452   |   2.1 |  0.01
Modify  | 21.937     | 21.94      | 21.953     |   0.1 | 18.77
Other   |            | 0.1774     |            |       |  0.15

Nlocal:    20.375 ave 32 max 4 min
Histogram: 1 1 1 0 1 0 0 0 1 3
Nghost:    845.625 ave 887 max 797 min
Histogram: 2 1 1 0 0 0 0 0 0 4
Neighs:    2839.88 ave 4351 max 594 min
Histogram: 1 1 0 1 1 0 0 0 1 3

Total # of neighbors = 22719
Ave neighs/atom = 139.38
Neighbor list builds = 0
Dangerous builds = 0

###
min_style cg
minimize 1.0e-8 1.0e-8 100000 100000
WARNING: Using 'neigh_modify every 1 delay 0 check yes' setting during minimization (../min.cpp:190)
WARNING: Total cutoff < 2*bond cutoff. May need to use an increased neighbor list skin. (../pair_reaxc.cpp:413)
Per MPI rank memory allocation (min/avg/max) = 22.56 | 23.46 | 24.36 Mbytes
Step Temp E_pair E_mol TotEng Press 
     523            0   -29321.379            0   -29321.379    31450.658 
     572            0   -29322.759            0   -29322.759    33327.659 
Loop time of 12.1849 on 8 procs for 49 steps with 163 atoms

99.8% CPU use with 8 MPI tasks x no OpenMP threads

Minimization stats:
  Stopping criterion = energy tolerance
  Energy initial, next-to-last, final = 
        -29321.3785108     -29322.7589748       -29322.75906
  Force two-norm initial, final = 149.572 62.5324
  Force max component initial, final = 54.5874 24.0207
  Final line search alpha, max atom move = 1.15436e-05 0.000277285
  Iterations, force evaluations = 49 398

MPI task timing breakdown:
Section |  min time  |  avg time  |  max time  |%varavg| %total
---------------------------------------------------------------
Pair    | 8.8582     | 9.4252     | 9.8946     |  12.2 | 77.35
Neigh   | 0          | 0          | 0          |   0.0 |  0.00
Comm    | 0.060354   | 0.52724    | 1.0917     |  51.4 |  4.33
Output  | 0.00070446 | 0.00090789 | 0.0013209  |   0.0 |  0.01
Modify  | 2.2125     | 2.2129     | 2.2141     |   0.0 | 18.16
Other   |            | 0.01874    |            |       |  0.15

Nlocal:    20.375 ave 32 max 4 min
Histogram: 1 1 1 1 0 0 0 0 0 4
Nghost:    872.875 ave 923 max 818 min
Histogram: 1 2 1 0 0 0 0 0 2 2
Neighs:    2820.12 ave 4366 max 583 min
Histogram: 1 1 0 2 0 0 0 0 0 4

Total # of neighbors = 22561
Ave neighs/atom = 138.411
Neighbor list builds = 0
Dangerous builds = 0

###
fix 1 all box/relax aniso 0.0
min_style cg
minimize 1.0e-8 1.0e-8 100000 100000
WARNING: Using 'neigh_modify every 1 delay 0 check yes' setting during minimization (../min.cpp:190)
WARNING: Total cutoff < 2*bond cutoff. May need to use an increased neighbor list skin. (../pair_reaxc.cpp:413)
Per MPI rank memory allocation (min/avg/max) = 22.56 | 23.46 | 24.36 Mbytes
Step Temp E_pair E_mol TotEng Press Volume 
     572            0   -29322.759            0   -29322.759    33327.659    3522.7279 
     627            0   -29332.396            0   -29332.396    6220.0554    3527.2798 
Loop time of 2.7094 on 8 procs for 55 steps with 163 atoms

99.9% CPU use with 8 MPI tasks x no OpenMP threads

Minimization stats:
  Stopping criterion = energy tolerance
  Energy initial, next-to-last, final = 
          -29322.75906     -29332.3964908     -29332.3964908
  Force two-norm initial, final = 3817.97 709.755
  Force max component initial, final = 3325.14 438.654
  Final line search alpha, max atom move = 2.80598e-13 1.23085e-10
  Iterations, force evaluations = 55 95

MPI task timing breakdown:
Section |  min time  |  avg time  |  max time  |%varavg| %total
---------------------------------------------------------------
Pair    | 2.1414     | 2.2803     | 2.3884     |   5.9 | 84.16
Neigh   | 0          | 0          | 0          |   0.0 |  0.00
Comm    | 0.01609    | 0.12391    | 0.26256    |  25.3 |  4.57
Output  | 0.00076361 | 0.00091241 | 0.0012833  |   0.0 |  0.03
Modify  | 0.29245    | 0.29254    | 0.29286    |   0.0 | 10.80
Other   |            | 0.01174    |            |       |  0.43

Nlocal:    20.375 ave 33 max 4 min
Histogram: 1 1 1 1 0 0 0 0 2 2
Nghost:    872.875 ave 924 max 818 min
Histogram: 1 2 1 0 0 0 0 0 2 2
Neighs:    2820.25 ave 4478 max 587 min
Histogram: 1 1 0 2 0 0 0 0 1 3

Total # of neighbors = 22562
Ave neighs/atom = 138.417
Neighbor list builds = 0
Dangerous builds = 0

unfix 1
###
min_style cg
minimize 1.0e-8 1.0e-8 100000 100000
WARNING: Using 'neigh_modify every 1 delay 0 check yes' setting during minimization (../min.cpp:190)
WARNING: Total cutoff < 2*bond cutoff. May need to use an increased neighbor list skin. (../pair_reaxc.cpp:413)
Per MPI rank memory allocation (min/avg/max) = 22.56 | 23.46 | 24.36 Mbytes
Step Temp E_pair E_mol TotEng Press 
     627            0   -29332.396            0   -29332.396    6220.0554 
     744            0   -29336.998            0   -29336.998    33446.164 
Loop time of 30.1674 on 8 procs for 117 steps with 163 atoms

99.9% CPU use with 8 MPI tasks x no OpenMP threads

Minimization stats:
  Stopping criterion = energy tolerance
  Energy initial, next-to-last, final = 
        -29332.3964908     -29336.9980389     -29336.9983019
  Force two-norm initial, final = 410.737 8.29604
  Force max component initial, final = 48.382 1.23245
  Final line search alpha, max atom move = 0.000554625 0.000683549
  Iterations, force evaluations = 117 994

MPI task timing breakdown:
Section |  min time  |  avg time  |  max time  |%varavg| %total
---------------------------------------------------------------
Pair    | 22.062     | 23.334     | 24.504     |  20.1 | 77.35
Neigh   | 0          | 0          | 0          |   0.0 |  0.00
Comm    | 0.1503     | 1.3159     | 2.5883     |  84.5 |  4.36
Output  | 0.0017609  | 0.0021102  | 0.0029679  |   0.8 |  0.01
Modify  | 5.4698     | 5.4704     | 5.4733     |   0.0 | 18.13
Other   |            | 0.04444    |            |       |  0.15

Nlocal:    20.375 ave 33 max 4 min
Histogram: 1 1 1 1 0 0 0 0 2 2
Nghost:    869.375 ave 922 max 814 min
Histogram: 2 1 1 0 0 0 0 0 2 2
Neighs:    2815.62 ave 4469 max 586 min
Histogram: 1 1 0 2 0 0 0 0 1 3

Total # of neighbors = 22525
Ave neighs/atom = 138.19
Neighbor list builds = 0
Dangerous builds = 0

###
fix 1 all box/relax aniso 0.0
min_style cg
minimize 1.0e-8 1.0e-8 100000 100000
WARNING: Using 'neigh_modify every 1 delay 0 check yes' setting during minimization (../min.cpp:190)
WARNING: Total cutoff < 2*bond cutoff. May need to use an increased neighbor list skin. (../pair_reaxc.cpp:413)
Per MPI rank memory allocation (min/avg/max) = 22.56 | 23.46 | 24.36 Mbytes
Step Temp E_pair E_mol TotEng Press Volume 
     744            0   -29336.998            0   -29336.998    33446.164    3527.2798 
     799            0   -29346.182            0   -29346.182    764.90952    3531.9988 
Loop time of 2.94664 on 8 procs for 55 steps with 163 atoms

99.7% CPU use with 8 MPI tasks x no OpenMP threads

Minimization stats:
  Stopping criterion = energy tolerance
  Energy initial, next-to-last, final = 
        -29336.9983019     -29346.1824458     -29346.1824458
  Force two-norm initial, final = 3760.07 503.099
  Force max component initial, final = 3248.67 287.177
  Final line search alpha, max atom move = 4.14232e-14 1.18958e-11
  Iterations, force evaluations = 55 104

MPI task timing breakdown:
Section |  min time  |  avg time  |  max time  |%varavg| %total
---------------------------------------------------------------
Pair    | 2.3426     | 2.4776     | 2.5994     |   6.4 | 84.08
Neigh   | 0          | 0          | 0          |   0.0 |  0.00
Comm    | 0.016094   | 0.13742    | 0.27185    |  27.2 |  4.66
Output  | 0.00072157 | 0.0010118  | 0.0014568  |   0.7 |  0.03
Modify  | 0.31785    | 0.31793    | 0.31825    |   0.0 | 10.79
Other   |            | 0.01267    |            |       |  0.43

Nlocal:    20.375 ave 33 max 4 min
Histogram: 1 1 1 1 0 0 0 0 2 2
Nghost:    869.375 ave 922 max 814 min
Histogram: 2 1 1 0 0 0 0 0 2 2
Neighs:    2817.5 ave 4470 max 586 min
Histogram: 1 1 0 2 0 0 0 0 1 3

Total # of neighbors = 22540
Ave neighs/atom = 138.282
Neighbor list builds = 0
Dangerous builds = 0

unfix 1
###
min_style cg
minimize 1.0e-8 1.0e-8 100000 100000
WARNING: Using 'neigh_modify every 1 delay 0 check yes' setting during minimization (../min.cpp:190)
WARNING: Total cutoff < 2*bond cutoff. May need to use an increased neighbor list skin. (../pair_reaxc.cpp:413)
Per MPI rank memory allocation (min/avg/max) = 22.56 | 23.46 | 24.36 Mbytes
Step Temp E_pair E_mol TotEng Press 
     799            0   -29346.182            0   -29346.182    764.90952 
     841            0   -29349.515            0   -29349.515    32596.807 
Loop time of 10.6773 on 8 procs for 42 steps with 163 atoms

99.9% CPU use with 8 MPI tasks x no OpenMP threads

Minimization stats:
  Stopping criterion = energy tolerance
  Energy initial, next-to-last, final = 
        -29346.1824458      -29349.514599     -29349.5148355
  Force two-norm initial, final = 370.469 14.6502
  Force max component initial, final = 44.8562 3.37919
  Final line search alpha, max atom move = 0.000202841 0.000685438
  Iterations, force evaluations = 42 348

MPI task timing breakdown:
Section |  min time  |  avg time  |  max time  |%varavg| %total
---------------------------------------------------------------
Pair    | 7.7366     | 8.1964     | 8.6038     |  12.1 | 76.76
Neigh   | 0          | 0          | 0          |   0.0 |  0.00
Comm    | 0.060152   | 0.46636    | 0.92502    |  50.8 |  4.37
Output  | 0.0007421  | 0.00090129 | 0.0013023  |   0.0 |  0.01
Modify  | 1.9973     | 1.9977     | 1.9987     |   0.0 | 18.71
Other   |            | 0.01597    |            |       |  0.15

Nlocal:    20.375 ave 33 max 4 min
Histogram: 1 1 1 1 0 0 0 0 2 2
Nghost:    872.375 ave 926 max 816 min
Histogram: 2 1 1 0 0 0 0 0 2 2
Neighs:    2813.62 ave 4466 max 587 min
Histogram: 1 1 0 2 0 0 0 0 1 3

Total # of neighbors = 22509
Ave neighs/atom = 138.092
Neighbor list builds = 0
Dangerous builds = 0

undump 1
#############
#----------- Thermo ------------
reset_timestep 0
thermo  200

thermo_style    custom step temp etotal ke pe press
velocity all create 300 12345 mom yes rot yes
fix 1 all npt temp 300 300 25.0 iso 0.0 0.0 250.0

variable vpe equal pe
variable vtemp equal temp
variable vstep equal step

fix output all print 2500 "${vstep} ${vtemp} ${vpe}" file temp-tpdh-Pt.dat screen no

dump 1 all custom 2500 thermo-tpdh-Pt.lammpstrj id type x y z

run 1000000
WARNING: Total cutoff < 2*bond cutoff. May need to use an increased neighbor list skin. (../pair_reaxc.cpp:413)
Per MPI rank memory allocation (min/avg/max) = 21.45 | 22.35 | 23.26 Mbytes
Step Temp TotEng KinEng PotEng Press 
       0          300   -29204.647    144.86737   -29349.515    34471.728 
     200    303.66859   -29239.777     146.6389   -29386.416   -335.94759 
     400    372.88711   -29248.917    180.06391   -29428.981   -3429.4218 
     600    287.09958   -29287.485    138.63787   -29426.123    7801.2535 
     800    307.59149   -29285.842    148.53323   -29434.376    7976.8222 
    1000    303.15895    -29255.98     146.3928   -29402.373   -4096.6715 
    1200     279.2119   -29257.418    134.82898   -29392.247   -22159.413 
    1400    307.89428    -29233.24    148.67945   -29381.919    531.30915 
    1600    318.47239   -29242.847    153.78752   -29396.635   -4424.5454 
    1800    276.20383   -29240.225    133.37641   -29373.601   -1123.1298 
    2000    311.52771    -29229.02      150.434   -29379.454    30537.022 
    2200    279.99018   -29231.751     135.2048   -29366.956    294.60276 
    2400    247.80055   -29248.122    119.66071   -29367.782    6557.0701 
    2600    305.74457   -29218.853    147.64137   -29366.495   -9627.6485 
    2800    331.07243   -29193.325    159.87197   -29353.197    -6925.814 
    3000    270.68301   -29223.415    130.71045   -29354.125   -12442.586 
    3200    299.04802   -29208.623    144.40767   -29353.031   -5987.7864 
    3400    299.02292   -29194.471    144.39554   -29338.866    9961.6817 
    3600    331.96744   -29161.615    160.30416   -29321.919   -4649.4573 
    3800    303.92605   -29195.277    146.76322    -29342.04    7835.1887 
    4000    274.47922   -29214.778    132.54361   -29347.322    5436.8454 
    4200     347.7659   -29193.979     167.9331   -29361.912    10217.177 
    4400    284.70144   -29212.527    137.47983   -29350.007   -8427.4585 
    4600    287.59078   -29225.139    138.87506   -29364.014    24775.706 
    4800    334.26221   -29202.474    161.41229   -29363.886   -918.32613 
    5000    314.97031   -29214.722     152.0964   -29366.818    423.58752 
    5200    299.27369     -29230.4    144.51664   -29374.916    85.839375 
    5400    293.80746   -29248.576    141.87705   -29390.453   -5968.6308 
    5600    291.46417   -29237.427    140.74549   -29378.173   -16461.848 
    5800    321.26333   -29229.255    155.13524   -29384.391    27178.245 
    6000    296.79507   -29255.625    143.31973   -29398.945    11377.917 
    6200    299.90993    -29250.35    144.82387   -29395.174    -11653.36 
    6400    297.49761   -29256.275    143.65898   -29399.934   -10297.814 
    6600    289.60861   -29282.628    139.84946   -29422.477    6266.9688 
    6800    300.13856   -29254.485    144.93428   -29399.419   -1729.1945 
    7000    306.35007   -29245.441    147.93376   -29393.375   -20144.122 
    7200    333.38079     -29218.2    160.98666   -29379.187    32531.718 
    7400    333.47125   -29209.023    161.03034   -29370.054    -11917.95 
    7600    320.38066   -29232.771    154.70901    -29387.48    18522.137 
    7800    318.11628   -29255.455    153.61556   -29409.071    30835.373 
    8000    297.19161   -29256.059    143.51122   -29399.571    13792.674 
    8200    325.47373   -29231.796    157.16841   -29388.965    2646.6823 
    8400    308.48758   -29233.502    148.96595   -29382.468    29253.459 
    8600     328.4114   -29237.692    158.58699   -29396.279    1834.3456 
    8800    273.16814   -29246.141     131.9105   -29378.052    24124.291 
    9000    319.26873   -29230.796    154.17207   -29384.968   -4665.0231 
    9200    286.85816     -29211.5    138.52129   -29350.021    -6720.137 
    9400    290.33002   -29242.602    140.19782   -29382.799   -2794.8622 
    9600    269.95558   -29233.534    130.35918   -29363.894    22387.103 
    9800    310.09908    -29213.79    149.74412   -29363.534   -53964.497 
   10000    294.66011   -29230.818    142.28878   -29373.107    51327.678 
   10200    313.45473   -29247.264    151.36454   -29398.628   -19659.164 
   10400    301.87516   -29227.566    145.77286   -29373.339   -28501.966 
   10600    309.33615   -29237.412    149.37571   -29386.788    -4994.243 
   10800    286.76783   -29257.159    138.47767   -29395.637    27115.215 
   11000    320.46268   -29233.957    154.74861   -29388.706    29352.461 
   11200    286.38445   -29263.156    138.29254   -29401.448    6814.8525 
   11400    298.32235   -29260.066    144.05724   -29404.123    1820.6121 
   11600    283.41363   -29246.618    136.85795   -29383.476    14015.314 
   11800    297.04057    -29256.06    143.43829   -29399.498    11856.466 
   12000    315.51274   -29229.962    152.35834    -29382.32    28664.508 
   12200    334.13566   -29227.928    161.35118   -29389.279    14774.601 
   12400    298.50939   -29255.572    144.14757   -29399.719   -31239.731 
   12600    313.23832    -29236.49    151.26004    -29387.75   -24454.289 
   12800    332.55737    -29231.31    160.58904   -29391.899   -6570.0611 
   13000    304.33089   -29256.833    146.95872   -29403.792   -11324.197 
   13200    274.07323   -29255.281    132.34756   -29387.629   -28662.566 
   13400    315.67287   -29229.244    152.43566   -29381.679   -33602.292 
   13600    296.85548   -29252.901    143.34891    -29396.25   -14361.856 
   13800    264.60868    -29257.66    127.77721   -29385.437   -35353.295 
   14000    285.50061   -29232.892    137.86574   -29370.758    2465.4022 
   14200    317.19748   -29224.466    153.17188   -29377.638    6940.4014 
   14400    274.98699   -29259.345     132.7888   -29392.134    13103.226 
   14600    304.88965    -29236.45    147.22854   -29383.679   -402.04157 
   14800    295.56541   -29228.954    142.72594   -29371.679    11227.622 
   15000    270.19334   -29256.768    130.47399   -29387.242   -7123.8067 
   15200    279.00582   -29275.388    134.72947   -29410.117    3536.8806 
   15400    293.17431   -29243.156     141.5713   -29384.727    9976.4188 
   15600    289.38678   -29245.557    139.74234     -29385.3    18685.052 
   15800    279.69803   -29267.453    135.06372   -29402.517    5369.8279 
   16000    317.59821   -29255.226    153.36539   -29408.591    33567.878 
   16200     307.8627   -29242.555     148.6642   -29391.219   -10319.537 
   16400    314.10586   -29210.844    151.67897   -29362.523    -5896.946 
   16600    308.79079   -29248.208    149.11236   -29397.321    3763.8097 
   16800    287.12625   -29270.058    138.65075   -29408.709   -17324.064 
   17000    323.64413   -29254.276    156.28491   -29410.561    39907.723 
   17200    310.74799   -29243.703    150.05748    -29393.76    11756.925 
   17400    299.43113   -29266.022    144.59267   -29410.615    9359.4169 
   17600      302.005    -29254.06    145.83557   -29399.895    24231.075 
   17800    302.38527   -29231.892     146.0192   -29377.911   -5705.4706 
   18000    262.45929   -29256.054    126.73929   -29382.793    22419.088 
   18200    282.17252    -29250.83    136.25863   -29387.088    23798.785 
   18400      277.413    -29229.86     133.9603   -29363.821   -14467.237 
   18600    269.07948   -29245.826    129.93612   -29375.762    33769.089 
   18800    283.06559    -29258.74    136.68989    -29395.43   -2030.0465 
   19000    292.81217   -29243.935    141.39643   -29385.332   -10613.658 
   19200    283.18081   -29246.336    136.74553   -29383.082   -22368.079 
   19400    286.27633   -29255.398    138.24033   -29393.638    6666.5986 
   19600     280.5547   -29279.539     135.4774   -29415.016   -40761.882 
   19800    345.29572   -29253.057    166.74028   -29419.797   -27098.714 
   20000    280.36364   -29268.645    135.38514    -29404.03   -15990.518 
   20200     276.8524   -29296.267     133.6896   -29429.957    25032.149 
   20400    314.00326    -29266.51    151.62942    -29418.14    9860.9968 
   20600       309.33   -29260.101    149.37274   -29409.473   -26218.572 
   20800    283.40865   -29278.242    136.85555   -29415.098   -25895.871 
   21000    310.31567   -29251.412    149.84871    -29401.26   -17769.725 
   21200     306.6999   -29246.555    148.10269   -29394.657    36183.345 
   21400    281.32359   -29275.984    135.84869   -29411.833    16266.667 
   21600    282.40266   -29269.064    136.36977   -29405.433    4167.6626 
   21800    343.33353    -29260.17    165.79275   -29425.963   -1158.0413 
   22000    266.78061   -29295.434    128.82602    -29424.26   -11491.885 
   22200    303.56712   -29269.136     146.5899   -29415.726    -29097.43 
   22400    303.92921   -29253.097    146.76475   -29399.861   -12356.517 
   22600    291.85529   -29283.959    140.93436   -29424.893    17219.717 
   22800    306.65445   -29268.854    148.08075   -29416.935     3779.755 
   23000    303.53697   -29255.595    146.57534   -29402.171    22375.277 
   23200    289.37605   -29263.461    139.73715   -29403.199    21245.232 
   23400    283.71985   -29279.532    137.00583   -29416.538    4953.0299 
   23600    302.01813   -29250.744    145.84191   -29396.586     54034.24 
   23800    296.82166   -29265.524    143.33258   -29408.856   -17030.335 
   24000    291.99078   -29281.246    140.99979   -29422.246   -1773.7565 
   24200    297.36522   -29243.876    143.59505   -29387.471      17626.4 
   24400     292.6887   -29266.199     141.3368   -29407.535    9852.1544 
   24600    297.85494   -29263.995    143.83154   -29407.826    5726.3015 
   24800    320.87401   -29243.683    154.94725    -29398.63   -22225.197 
   25000    287.55125   -29267.072    138.85598   -29405.928    8650.4473 
   25200    324.05177   -29231.169    156.48176    -29387.65     23950.52 
   25400    307.64503   -29249.714    148.55908   -29398.274   -193.30557 
   25600    294.17401   -29268.231    142.05405   -29410.285    14836.738 
   25800    296.85331   -29245.375    143.34786   -29388.723   -15253.145 
   26000    289.96053   -29247.316     140.0194   -29387.336   -1749.8106 
   26200    287.27391    -29264.87    138.72205   -29403.592    13654.212 
   26400    310.85248   -29250.521    150.10794   -29400.629    21274.781 
   26600    324.38853    -29223.61    156.64438   -29380.254   -6098.8599 
   26800    316.22088   -29261.639    152.70029   -29414.339    67299.563 
   27000      311.529   -29246.732    150.43462   -29397.167   -9929.7495 
   27200    327.14022   -29239.681    157.97314   -29397.654   -12435.342 
   27400    279.82775   -29268.673    135.12637   -29403.799    22265.134 
   27600    314.20387   -29242.857    151.72629   -29394.583   -6862.9702 
   27800    321.15806   -29250.822    155.08441   -29405.906     18417.38 
   28000    296.19832   -29259.171    143.03157   -29402.203   -28163.003 
   28200    334.85496   -29229.179    161.69852   -29390.878   -16026.047 
   28400    300.24736   -29262.927    144.98682   -29407.914   -14447.458 
   28600    283.92354   -29264.257    137.10419   -29401.361   -5831.1809 
   28800    324.29067   -29240.016    156.59712   -29396.613    5123.6145 
   29000     287.8218   -29269.488    138.98662   -29408.475   -3577.4467 
   29200    291.83644   -29257.793    140.92526   -29398.718   -53407.689 
   29400    292.91765   -29248.577    141.44736   -29390.024    10955.925 
   29600    282.22523   -29263.099    136.28409   -29399.383    5290.8459 
   29800    308.84629   -29264.515    149.13916   -29413.655   -10576.582 
   30000    302.00567   -29275.113    145.83589   -29420.949    21356.395 
   30200    312.47728   -29264.997    150.89254   -29415.889    16498.152 
   30400    289.26918   -29257.676    139.68555   -29397.362   -9667.1126 
   30600    305.26683   -29279.781    147.41067   -29427.192   -35431.976 
   30800    301.15421    -29265.56    145.42473   -29410.985   -3609.2791 
   31000    307.42836   -29244.764    148.45446   -29393.219     -30755.5 
   31200    317.91719   -29268.256    153.51942   -29421.775    -27544.81 
   31400    296.72279   -29265.533    143.28483   -29408.818   -9799.7453 
   31600    316.95575   -29248.315    153.05515   -29401.371    28429.548 
   31800    323.80803   -29259.697    156.36406   -29416.061   -10329.997 
   32000    276.38034   -29276.891    133.46164   -29410.353   -4999.4109 
   32200    328.53012   -29255.027    158.64431   -29413.671   -47359.213 
   32400     300.6362   -29250.555    145.17459   -29395.729    -41212.53 
   32600     275.5553    -29280.86    133.06324   -29413.924    723.78266 
   32800    345.00101   -29245.193    166.59796   -29411.791   -3523.2949 
   33000    300.98574   -29253.409    145.34338   -29398.753    8926.7708 
   33200    297.52157   -29261.516    143.67056   -29405.187    20938.834 
   33400    323.51058   -29233.935    156.22042   -29390.155    -6077.555 
   33600    293.52074   -29261.294    141.73859   -29403.032     20554.83 
   33800    284.44863   -29252.314    137.35775   -29389.672   -36168.515 
   34000    318.37886   -29241.927    153.74236   -29395.669   -8203.9266 
   34200    285.38527   -29275.402    137.81004   -29413.212   -17572.467 
   34400    280.32127   -29258.036    135.36468     -29393.4   -4933.0215 
   34600    325.69043   -29239.346    157.27305   -29396.619   -835.81441 
   34800    289.61758   -29267.096    139.85379    -29406.95    6803.8938 
   35000    273.32573   -29256.035     131.9866   -29388.021    -16761.61 
   35200    331.57867   -29245.057    160.11643   -29405.173    10281.698 
   35400    291.44851    -29261.27    140.73793   -29402.008   -6090.3604 
   35600    297.13562   -29263.759    143.48419   -29407.243    11638.783 
   35800    328.37658   -29237.737    158.57017   -29396.307    15550.996 
   36000     270.2033   -29259.224     130.4788   -29389.703   -39245.154 
   36200     308.0085   -29250.384     148.7346   -29399.119    28714.994 
   36400     326.6744   -29237.783     157.7482   -29395.531   -9178.2744 
   36600    300.81131    -29266.28    145.25915   -29411.539    25233.216 
   36800    310.09941   -29251.322    149.74429   -29401.066    -24335.15 
   37000    349.75336   -29211.157    168.89283    -29380.05   -8638.1452 
   37200    323.56538   -29244.024    156.24688   -29400.271   -1977.8095 
   37400    306.61486   -29262.554    148.06163   -29410.615    -4896.314 
   37600    318.17453   -29251.712    153.64369   -29405.356   -32442.614 
   37800    319.14284   -29232.608    154.11128   -29386.719    9851.5631 
   38000    282.34022   -29258.004    136.33962   -29394.343    18746.155 
   38200    341.88993   -29220.955    165.09565   -29386.051     20231.52 
   38400    303.47842   -29245.069    146.54707   -29391.616    4616.4899 
   38600    270.68374   -29263.787     130.7108   -29394.498   -41517.641 
   38800     318.1561   -29236.011    153.63479   -29389.646    9459.3543 
   39000    299.18768   -29257.539    144.47511   -29402.014    4238.3806 
   39200    281.04935   -29256.485    135.71627   -29392.201    7929.8755 
   39400    330.17845   -29249.632    159.44028   -29409.073    2888.8943 
   39600    278.47149   -29276.994    134.47144   -29411.466    13831.717 
   39800    325.32073   -29265.066    157.09453    -29422.16   -14517.341 
   40000    328.60022   -29252.095    158.67816   -29410.773   -31937.557 
   40200    306.42205   -29265.827    147.96852   -29413.795    15877.668 
   40400    264.04385    -29281.69    127.50446   -29409.195    -8913.172 
   40600    326.74871   -29250.226    157.78409    -29408.01    17895.663 
   40800    286.67872   -29262.387    138.43464   -29400.822    -17088.87 
   41000    291.03922   -29278.845    140.54029   -29419.385   -12342.985 
   41200    268.58316   -29246.922    129.69645   -29376.618    10311.184 
   41400    311.99452   -29254.442    150.65942   -29405.101   -14033.581 
   41600    287.52882    -29276.13    138.84515   -29414.975   -5769.9705 
   41800    318.67277    -29242.81    153.88428   -29396.695    -17693.31 
   42000     283.3593   -29260.947    136.83172   -29397.778   -56571.039 
   42200    304.11094   -29245.629    146.85251   -29392.482    35762.376 
   42400    309.79814   -29237.635     149.5988   -29387.234    16247.109 
   42600    288.26136   -29256.898    139.19888   -29396.097     8379.939 
   42800    304.17568   -29254.569    146.88377   -29401.453    13483.665 
   43000    286.58005   -29243.009    138.38699   -29381.396   -13391.831 
   43200    336.89591    -29220.65    162.68408   -29383.334    47740.891 
   43400     304.3295   -29249.389    146.95805   -29396.347    6045.3143 
   43600    294.91401    -29240.48    142.41139   -29382.892    10303.954 
   43800    327.95216   -29218.018    158.36522   -29376.383    2429.2026 
   44000    267.49653   -29240.351    129.17173   -29369.522    7986.8138 
   44200    297.02083    -29234.05    143.42875   -29377.479    17405.002 
   44400    290.69628    -29242.77    140.37469   -29383.144    -32493.57 
   44600    296.14439   -29264.229    143.00553   -29407.234     124.2576 
   44800    317.85554   -29237.644    153.48965   -29391.134    15780.656 
   45000    298.47012   -29253.873     144.1286   -29398.001   -12097.588 
   45200    300.35246   -29259.322    145.03757   -29404.359    3770.2407 
   45400    302.17755   -29242.017    145.91889   -29387.936    20069.423 
   45600    330.35216   -29216.851    159.52416   -29376.375    -57139.44 
   45800    279.21861   -29255.705    134.83222   -29390.537    9602.1665 
   46000    297.13769   -29248.271    143.48518   -29391.756    1619.8751 
   46200    326.58668   -29225.587    157.70584   -29383.293   -22245.542 
   46400    284.14293   -29241.938    137.21013   -29379.149    7676.5433 
   46600    293.64954   -29251.288    141.80079   -29393.089    -3763.429 
   46800    271.05611   -29275.222    130.89062   -29406.113    2570.0787 
   47000     283.5139   -29252.331    136.90637   -29389.238   -3196.5696 
   47200    317.62494   -29244.213     153.3783   -29397.591    9585.7603 
   47400    273.59026   -29261.403    132.11434   -29393.517   -16459.524 
   47600    302.63416   -29256.647    146.13938   -29402.787    4869.0961 
   47800    321.46866   -29240.364     155.2344   -29395.598   -39456.237 
   48000    269.33518   -29263.604     130.0596   -29393.664   -35434.678 
   48200     305.7534   -29255.054    147.64564   -29402.699    55903.015 
   48400    291.58994   -29236.973    140.80622    -29377.78   -12083.408 
   48600    329.38219   -29221.827    159.05577   -29380.883   -27178.296 
   48800    275.81555   -29261.302    133.18891   -29394.491   -42196.109 
   49000    296.13658   -29244.394    143.00176   -29387.396    15106.883 
   49200    319.34895   -29237.959    154.21081    -29392.17    17013.732 
   49400    292.17337   -29268.078    141.08796   -29409.166    33201.134 
   49600    304.50968   -29238.403    147.04506   -29385.448   -9796.6623 
   49800    299.23537    -29250.01    144.49814   -29394.508    -25246.16 
   50000    289.05764   -29275.419     139.5834   -29415.003   -7066.0614 
   50200     282.6862   -29253.176    136.50669   -29389.682   -45804.597 
   50400     295.1116   -29255.496     142.5068   -29398.003   -9838.2063 
   50600    274.63766   -29280.674    132.62012   -29413.294    27257.513 
   50800    302.84167   -29255.847    146.23958   -29402.087    1826.6364 
   51000    307.68681   -29264.288    148.57926   -29412.867    -8083.721 
   51200    250.11574   -29300.419     120.7787   -29421.198    39624.288 
   51400     297.7803   -29270.567    143.79549   -29414.363   -50165.673 
   51600    304.04801   -29250.655    146.82212   -29397.477    6824.7774 
   51800     298.8044    -29261.47    144.29003    -29405.76    52262.896 
   52000    288.63552   -29269.893    139.37956   -29409.272    31267.177 
   52200    321.66478    -29248.28     155.3291   -29403.609    12197.507 
   52400    268.56316   -29265.855    129.68679   -29395.542    6094.8625 
   52600    242.13855   -29290.283    116.92658   -29407.209   -41954.802 
   52800    312.43887   -29255.689    150.87399   -29406.563   -19514.944 
   53000     304.4169   -29251.569    147.00025   -29398.569   -14048.603 
   53200    281.89369   -29280.811    136.12399   -29416.935     2630.047 
   53400    323.12868   -29259.065      156.036   -29415.101    270.79326 
   53600    299.68026   -29259.308    144.71297   -29404.021    36725.371 
   53800    300.54346   -29255.795     145.1298   -29400.925   -10766.685 
   54000    324.23251    -29233.06    156.56904   -29389.629   -10983.496 
   54200    273.91944   -29268.419     132.2733   -29400.693   -11853.836 
   54400    315.83791   -29250.966    152.51536   -29403.481   -14792.577 
   54600    312.20024   -29250.036    150.75876   -29400.795    4667.4541 
   54800    257.67719   -29282.088    124.43006   -29406.518    1095.1249 
   55000    288.90195    -29263.83    139.50822   -29403.338     24913.59 
   55200    313.94477   -29244.659    151.60118    -29396.26    23665.707 
   55400    285.87697   -29264.116    138.04748   -29402.163   -20576.743 
   55600    303.75184   -29268.385     146.6791   -29415.064    4382.5394 
   55800     318.8937   -29253.176    153.99097   -29407.167   -27964.568 
   56000    291.29289   -29260.088    140.66278   -29400.751    10621.977 
   56200    309.08722   -29252.404    149.25551    -29401.66    1431.4012 
   56400    328.43089   -29245.953     158.5964   -29404.549    7740.4284 
   56600    261.87734   -29272.238    126.45827   -29398.696    -6137.736 
   56800    309.98699   -29248.962       149.69   -29398.652   -4504.7026 
   57000    288.70868   -29248.509    139.41489   -29387.924   -11082.138 
   57200    297.90159   -29235.714    143.85406   -29379.568   -27340.961 
   57400    299.50753   -29256.455    144.62956   -29401.084    13197.931 
   57600    273.82561   -29258.848    132.22799   -29391.076    11709.998 
   57800    343.71049   -29221.512    165.97478   -29387.486   -8989.9693 
   58000    308.29913   -29261.606    148.87495   -29410.481   -4193.2664 
   58200    282.86491   -29263.718    136.59299   -29400.311   -63244.547 
   58400    304.87651   -29240.342    147.22219   -29387.564   -36720.023 
   58600    289.68562   -29272.172    139.88665   -29412.059    -21907.92 
   58800    287.21715   -29256.549    138.69464   -29395.244    -15303.39 
   59000    306.88377   -29249.787    148.19148   -29397.978   -23079.833 
   59200    301.43383   -29255.436    145.55975   -29400.996    30061.582 
   59400    310.54301   -29254.151     149.9585   -29404.109   -8265.3973 
   59600    305.23516    -29244.73    147.39538   -29392.126    37042.663 
   59800    281.01586    -29259.45    135.70009    -29395.15   -10944.606 
   60000     280.7605   -29266.037    135.57678   -29401.614   -40.132646 
   60200    323.61789   -29237.511    156.27224   -29393.783    17410.121 
   60400    275.70784   -29265.494     133.1369   -29398.631   -21775.836 
   60600    314.53022   -29253.277    151.88388   -29405.161   -9091.7938 
   60800    315.13013   -29254.141    152.17358   -29406.314    1981.2381 
   61000    307.50879   -29273.627     148.4933   -29422.121   -5418.4665 
   61200    316.18453   -29245.478    152.68274   -29398.161    26442.829 
   61400     281.2076   -29269.617    135.79268    -29405.41   -2713.0072 
   61600     282.7898   -29273.561    136.55671   -29410.118    29716.349 
   61800    310.53338   -29257.193    149.95385   -29407.147    25755.406 
   62000     314.6975   -29260.026    151.96466   -29411.991   -58410.109 
   62200    255.41863   -29280.724    123.33942   -29404.063   -21801.667 
   62400     295.5644   -29253.656    142.72546   -29396.382   -9422.5291 
   62600    303.93132   -29265.199    146.76577   -29411.965    13610.805 
   62800    266.97715   -29287.627    128.92092   -29416.548    27717.639 
   63000    301.60994   -29249.345    145.64479   -29394.989    14021.176 
   63200    288.61656   -29257.186    139.37041   -29396.556    21060.356 
   63400    274.20902   -29272.917    132.41313    -29405.33   -21454.016 
   63600    297.53806   -29236.615    143.67852   -29380.293   -10942.196 
   63800    280.78515   -29258.506    135.58869   -29394.095   -12343.209 
   64000    297.65094   -29260.646    143.73303   -29404.379     19172.05 
   64200    318.90698   -29235.733    153.99738   -29389.731     13135.88 
   64400    298.94417   -29264.036    144.35752   -29408.393    26914.929 
   64600    309.09888   -29256.234    149.26114   -29405.495   -13316.114 
   64800    354.78129   -29223.451    171.32077   -29394.772    11214.348 
   65000     304.3066    -29251.73    146.94699   -29398.677    8626.3015 
   65200    297.81773   -29265.366    143.81357    -29409.18    -6943.972 
   65400    267.06795   -29271.791    128.96477   -29400.756   -10756.241 
   65600    293.11388   -29241.898    141.54212    -29383.44   -8675.6175 
   65800    258.47609   -29266.774    124.81584    -29391.59   -22869.213 
   66000    266.47727   -29263.774    128.67954   -29392.454   -4445.3804 
   66200    307.89939   -29242.554    148.68191   -29391.236    41192.498 
   66400    294.36037   -29251.842    142.14404   -29393.986    675.05121 
   66600    291.37437   -29269.731    140.70213   -29410.433    15514.344 
   66800    295.92736   -29244.384    142.90073   -29387.285   -21654.227 
   67000    295.07862   -29248.417    142.49088   -29390.908   -1184.0086 
   67200    262.84682   -29281.818    126.92642   -29408.744   -8358.6339 
   67400    282.05766   -29265.116    136.20317   -29401.319   -35575.239 
   67600    293.64635   -29250.498    141.79925   -29392.297    7696.9407 
   67800    349.17411   -29231.551    168.61311   -29400.164   -5007.8208 
   68000    283.05839   -29261.998    136.68641   -29398.685    56036.395 
   68200    299.34186   -29248.352    144.54956   -29392.902    32299.463 
   68400    299.80485   -29237.332    144.77313   -29382.105    11483.098 
   68600    292.51762   -29250.682    141.25419   -29391.936   -2771.7816 
   68800    300.07087    -29258.11    144.90159   -29403.011   -5927.7923 
   69000    317.33217   -29234.452    153.23692   -29387.689   -35295.578 
   69200    296.96751   -29250.141    143.40301   -29393.544   -26479.428 
   69400    299.24651   -29259.937    144.50352    -29404.44    11742.748 
   69600    303.83977   -29240.448    146.72156    -29387.17    2039.1142 
   69800    278.76674   -29273.906    134.61401    -29408.52   -10017.411 
   70000    284.30583   -29250.961    137.28879    -29388.25     2919.678 
   70200    296.95958   -29248.084    143.39918   -29391.483    16772.065 
   70400    263.74882    -29280.31    127.36199   -29407.672    14557.818 
   70600    314.63059   -29253.658    151.93235   -29405.591   -8293.5464 
   70800    296.52453   -29245.011     143.1891     -29388.2   -48807.065 
   71000    313.45394   -29241.305    151.36416   -29392.669    9975.4718 
   71200     279.8812   -29260.829    135.15218   -29395.981    16287.488 
   71400     290.4158   -29261.219    140.23924   -29401.459   -9787.1699 
   71600    313.54323   -29237.385    151.40728   -29388.792   -7908.5284 
   71800    299.08306   -29259.636    144.42458    -29404.06    31245.451 
   72000    294.45466   -29257.183    142.18957   -29399.372    13315.749 
   72200     313.9926    -29231.98    151.62427   -29383.604   -8609.0029 
   72400    306.31212    -29245.12    147.91543   -29393.036    21069.731 
   72600    286.19049   -29260.294    138.19888   -29398.493     9650.834 
   72800    309.67877   -29253.341    149.54116   -29402.883    14888.863 
   73000    287.77753   -29257.718    138.96525   -29396.684   -48618.531 
   73200    296.14738    -29274.66    143.00697   -29417.667    2216.6808 
   73400    312.84136   -29258.052    151.06835    -29409.12    32304.787 
   73600    346.31077   -29245.149    167.23043    -29412.38   -23170.345 
   73800    271.25141   -29274.438    130.98493   -29405.422   -27462.926 
   74000     297.9646    -29263.83    143.88449   -29407.715   -26750.331 
   74200    322.44882   -29246.362    155.70771   -29402.069    17219.043 
   74400    281.52304   -29273.781    135.94501   -29409.726    24546.737 
   74600    277.54791   -29260.279    134.02545   -29394.305   -29021.809 
   74800    266.92743   -29248.359    128.89692   -29377.256   -7085.3087 
   75000     307.2673   -29248.668    148.37668   -29397.045   -22089.515 
   75200    260.73444   -29280.573    125.90637   -29406.479    33336.622 
   75400    310.90879   -29251.352    150.13513   -29401.487    31005.033 
   75600    281.90306    -29253.83    136.12851   -29389.959    7108.3058 
   75800    270.04943    -29280.36     130.4045   -29410.765   -27971.475 
   76000    300.25222   -29246.529    144.98916   -29391.518    21214.113 
   76200    289.74882   -29251.997    139.91716   -29391.914    23638.477 
   76400    284.64712   -29280.454     137.4536   -29417.907   -22670.986 
   76600    299.36311   -29249.417    144.55982   -29393.977    26357.771 
   76800    291.56232   -29262.757    140.79289    -29403.55   -22579.115 
   77000    267.62024   -29271.217    129.23147   -29400.448    12630.648 
   77200    319.27347   -29239.998    154.17436   -29394.172   -25798.661 
   77400    296.19738   -29257.773    143.03112   -29400.804   -16732.064 
   77600    254.78732    -29283.66    123.03456   -29406.695    15479.831 
   77800    300.90047   -29258.798     145.3022     -29404.1   -30313.899 
   78000    307.24417   -29241.378    148.36552   -29389.744   -50556.207 
   78200    301.91435   -29240.884    145.79179   -29386.676    39534.379 
   78400    296.34179   -29262.035    143.10085   -29405.136   -3389.5126 
   78600    336.90714   -29230.721     162.6895    -29393.41    10542.509 
   78800    311.49274   -29242.172    150.41711   -29392.589    15402.241 
   79000    311.87937   -29251.362    150.60381   -29401.966    24818.313 
   79200    275.74146   -29275.645    133.15313   -29408.798   -9493.5613 
   79400    305.94561    -29243.34    147.73845   -29391.079    9527.7309 
   79600    308.48233   -29242.035    148.96341   -29390.999   -4130.8865 
   79800    276.34284   -29269.477    133.44353   -29402.921    7955.4744 
   80000    302.90141   -29242.689    146.26844   -29388.957    30489.247 
   80200    313.30627   -29245.493    151.29285   -29396.786   -21989.874 
   80400    283.63506   -29252.098    136.96488   -29389.062   -48175.328 
   80600    318.17119   -29224.972    153.64207   -29378.614   -10833.682 
   80800    310.39505   -29245.965    149.88705   -29395.852   -12833.933 
   81000     312.1744   -29251.511    150.74628   -29402.257    14207.633 
   81200    304.86653   -29230.324    147.21737   -29377.541    2120.0144 
   81400    286.09978    -29266.47    138.15508   -29404.625   -26466.492 
   81600    310.44875   -29246.852    149.91298   -29396.765   -18200.402 
   81800    309.58057   -29245.015    149.49374   -29394.508   -11915.371 
   82000    273.56548   -29277.087    132.10237    -29409.19   -8088.1159 
   82200    298.60782    -29252.48     144.1951   -29396.675    6702.6098 
   82400    307.08973   -29235.353    148.29094   -29383.644   -19429.738 
   82600     312.7381   -29234.863    151.01848   -29385.882   -7255.7817 
   82800    291.90606    -29253.53    140.95888   -29394.489    34414.753 
   83000    308.43145   -29224.966    148.93884   -29373.905   -6863.2371 
   83200    320.52857   -29232.074    154.78044   -29386.854   -3050.0894 
   83400    292.35697   -29248.186    141.17662   -29389.362   -34695.487 
   83600     290.8994   -29266.001    140.47277   -29406.474    -27415.53 
   83800    338.27641   -29233.656    163.35071   -29397.006    28767.179 
   84000    297.93964    -29243.54    143.87244   -29387.412     -8294.68 
   84200    282.68766   -29260.624    136.50739   -29397.132   -781.81917 
   84400    308.73968   -29247.148    149.08768   -29396.236   -4505.2417 
   84600    306.81707    -29243.53    148.15927   -29391.689    20594.795 
   84800    279.25161   -29261.949    134.84815   -29396.797    9072.2498 
   85000     291.8835   -29260.717    140.94798   -29401.665    19415.462 
   85200    304.82937   -29239.332    147.19943   -29386.531    16001.923 
   85400    289.00312   -29262.081    139.55707   -29401.638   -5500.6252 
   85600    255.67692   -29273.382    123.46414   -29396.846   -35506.453 
   85800    309.26713   -29240.778    149.34238    -29390.12   -567.55994 
   86000     280.4874   -29267.445    135.44491    -29402.89    3952.4624 
   86200    310.41575   -29251.381    149.89704   -29401.278   -8381.4506 
   86400    316.39436   -29240.497    152.78406   -29393.281    21799.074 
   86600    282.07092     -29264.4    136.20957    -29400.61     38221.21 
   86800    301.99725   -29231.302    145.83183   -29377.134    6763.8377 
   87000    308.15885   -29244.306     148.8072   -29393.113    5431.3412 
   87200    283.72949   -29263.102    137.01048   -29400.112    8481.1898 
   87400    337.54434   -29232.239     162.9972   -29395.237   -18402.626 
   87600    323.68803   -29234.693    156.30611   -29390.999    20613.021 
   87800     299.3341   -29261.482    144.54581   -29406.028   -5859.2888 
   88000    291.68502   -29277.591    140.85214   -29418.444    13220.389 
   88200    324.11947    -29240.14    156.51445   -29396.655    6035.9225 
   88400     326.1722   -29264.052     157.5057   -29421.558   -20472.323 
   88600     287.3568   -29274.674    138.76208   -29413.436   -8608.7291 
   88800    344.45907   -29237.563    166.33626     -29403.9     44310.08 
   89000    314.00827   -29255.882    151.63184   -29407.514   -4248.7706 
   89200    306.40754    -29265.83    147.96152   -29413.791    -3833.722 
   89400    319.04336   -29238.655    154.06324   -29392.718   -21641.879 
   89600    305.50348   -29261.349    147.52495   -29408.874   -41249.884 
   89800    308.08162   -29263.441    148.76991   -29412.211    66258.817 
   90000    312.59958   -29247.132     150.9516   -29398.084   -12551.236 
   90200    326.14991   -29252.393    157.49493   -29409.888   -13844.303 
   90400    299.43213   -29268.147    144.59315    -29412.74    2757.7956 
   90600      337.244   -29239.338    162.85217    -29402.19     8683.087 
   90800    281.75728   -29277.287    136.05812   -29413.345    11912.458 
   91000    299.83466   -29252.377    144.78753   -29397.165   -22246.505 
   91200    308.22552   -29264.308     148.8394   -29413.148    18913.999 
   91400     277.3957   -29275.409    133.95195   -29409.361   -32107.448 
   91600    310.57907    -29254.02    149.97591   -29403.996    2324.2705 
   91800    314.60573   -29240.789    151.92035   -29392.709    30373.371 
   92000    304.00394   -29245.955    146.80083   -29392.756    13508.937 
   92200     309.4042   -29239.848    149.40857   -29389.257    8359.8823 
   92400    282.84302    -29247.37    136.58241   -29383.953    2267.0711 
   92600    282.90941    -29260.88    136.61447   -29397.494    1646.9829 
   92800    332.80664    -29232.02    160.70941   -29392.729    2139.7784 
   93000     288.5732   -29257.802    139.34947   -29397.152   -57459.371 
   93200    315.28655   -29244.507    152.24911   -29396.756     47828.03 
   93400    321.25458   -29231.055    155.13102   -29386.186    16193.537 
   93600    289.62691   -29258.587     139.8583   -29398.445   -45972.324 
   93800    277.40488   -29251.349    133.95638   -29385.305    15465.914 
   94000    344.52583   -29229.395     166.3685   -29395.763    26440.703 
   94200    292.30273   -29255.226    141.15042   -29396.376    -22950.07 
   94400    281.90899   -29247.279    136.13138   -29383.411    6285.1399 
   94600    305.76516   -29240.187    147.65131   -29387.838   -22186.227 
   94800    290.19517   -29245.244     140.1327   -29385.376   -16787.819 
   95000    299.66959   -29258.146    144.70782   -29402.854    45206.217 
   95200    291.35781   -29227.514    140.69413   -29368.208   -17736.061 
   95400    314.75167   -29237.639    151.99082    -29389.63    18707.113 
   95600    263.48529   -29267.992    127.23473   -29395.227   -11538.887 
   95800    318.38892   -29246.275    153.74722   -29400.022    16540.738 
   96000    327.37582   -29232.978    158.08691   -29391.065   -24578.178 
   96200    266.41749   -29258.565    128.65067   -29387.215    -10836.53 
   96400     316.6391   -29244.117    152.90224   -29397.019    6219.3088 
   96600    314.69674   -29236.873    151.96429   -29388.838    450.13162 
   96800    278.09142   -29252.884    134.28791   -29387.172    33220.299 
   97000    275.18051   -29261.598    132.88226   -29394.481    72577.008 
   97200    316.69575   -29234.531     152.9296    -29387.46   -12126.561 
   97400    307.59223   -29248.732    148.53359   -29397.265     -8208.79 
   97600    298.08169   -29263.769    143.94103   -29407.711    -24038.77 
   97800    305.95602   -29246.989    147.74348   -29394.732   -30659.481 
   98000     303.7726   -29216.251    146.68913    -29362.94    9745.7441 
   98200    306.98518   -29258.897    148.24045   -29407.137   -6134.5602 
   98400    314.30969   -29249.802    151.77739   -29401.579    9638.7811 
   98600     300.9105   -29231.882    145.30704   -29377.189   -28257.751 
   98800     292.7989   -29266.415    141.39002   -29407.805    2614.3282 
   99000    280.42008   -29251.761     135.4124   -29387.173    21700.895 
   99200    316.37033   -29238.399    152.77246   -29391.172    38890.117 
   99400    273.16342   -29270.565    131.90822   -29402.473   -45760.161 
   99600    287.42272   -29249.292    138.79391   -29388.086   -38858.148 
   99800    305.69822   -29251.221    147.61899    -29398.84    13999.353 
  100000     289.3295   -29260.036    139.71468    -29399.75    37342.271 
  100200    323.30475   -29228.184    156.12103   -29384.305   -47002.595 
  100400    254.40709   -29255.252    122.85095   -29378.103    15571.679 
  100600    304.68962   -29255.314    147.13194   -29402.446   -16377.722 
  100800    333.80369   -29224.544    161.19087   -29385.735    41442.323 
  101000    312.86776   -29254.793     151.0811   -29405.874   -42469.462 
  101200     296.6212   -29247.269    143.23578   -29390.505     -32021.2 
  101400    304.77161   -29229.066    147.17154   -29376.237   -19326.218 
  101600    270.45703    -29263.22    130.60133   -29393.821   -40643.934 
  101800    323.50411   -29241.576     156.2173   -29397.794    35878.585 
  102000    285.63063    -29269.27    137.92853   -29407.199    7302.3224 
  102200    301.07276   -29264.916     145.3854   -29410.302   -11851.927 
  102400    322.47119   -29246.338    155.71851   -29402.057    40047.618 
  102600    268.98432   -29278.279    129.89017   -29408.169    10514.211 
  102800    305.11373   -29264.454    147.33675    -29411.79   -7295.9261 
  103000    298.00355   -29247.167     143.9033   -29391.071    7973.2529 
  103200    309.74623   -29243.817    149.57374    -29393.39    947.82773 
  103400    252.86277    -29267.45    122.10521   -29389.556    39976.504 
  103600    306.52433   -29239.241    148.01791   -29387.259   -23814.021 
  103800    287.82318   -29241.476    138.98729   -29380.463   -37795.349 
  104000    288.56432   -29264.759    139.34518   -29404.104   -3552.9146 
  104200    321.93156   -29248.309    155.45793   -29403.766    2868.5101 
  104400    307.99842   -29238.278    148.72974   -29387.008    19868.816 
  104600    277.35275   -29267.748    133.93121   -29401.679   -24605.602 
  104800    320.96447   -29245.592    154.99093   -29400.583   -2314.2862 
  105000    297.89332   -29251.251    143.85007   -29395.101   -9578.7797 
  105200    284.98435   -29264.244    137.61644   -29401.861    54743.115 
  105400     310.0898   -29246.743    149.73965   -29396.482    3095.6297 
  105600    300.28299   -29255.749    145.00402   -29400.753    1470.0697 
  105800    306.98424   -29234.977       148.24   -29383.217   -3915.5886 
  106000    301.91711   -29247.537    145.79312    -29393.33    5053.0908 
  106200    275.31719   -29257.304    132.94826   -29390.253   -20884.336 
  106400    346.52916   -29238.154    167.33589    -29405.49   -8810.1756 
  106600     261.6413   -29269.294    126.34429   -29395.638    28369.621 
  106800    297.17621    -29244.54    143.50379   -29388.044    5177.8239 
  107000    288.18636   -29236.401    139.16266   -29375.563   -30398.858 
  107200    295.51816   -29263.621    142.70312   -29406.325   -16139.716 
  107400    290.70294    -29248.96     140.3779   -29389.338   -19043.004 
  107600     312.0447   -29238.152    150.68365   -29388.835   -8911.8779 
  107800    280.30302   -29263.044    135.35587     -29398.4    6500.5796 
  108000    298.53647   -29263.256    144.16064   -29407.417     18201.56 
  108200    282.57348   -29241.466    136.45226   -29377.919    40278.748 
  108400    286.14553   -29248.662    138.17717   -29386.839   -3894.6222 
  108600    273.87699   -29266.629     132.2528   -29398.882    31510.702 
  108800    322.69065   -29231.395    155.82448    -29387.22    -35393.22 
  109000    270.02813   -29240.356    130.39422    -29370.75   -9861.2449 
  109200    285.21036   -29264.278    137.72558   -29402.004    43980.905 
  109400    322.21965    -29238.81    155.59704   -29394.407   -10849.111 
  109600    296.08238   -29244.293    142.97558   -29387.268   -2859.9325 
  109800    303.33973   -29257.809     146.4801   -29404.289    17982.625 
  110000    318.43251   -29245.146    153.76827   -29398.914   -3169.7041 
  110200    288.57161   -29245.538     139.3487   -29384.887   -14249.099 
  110400    312.25905   -29255.559    150.78716   -29406.346    19753.939 
  110600    316.72036   -29239.949    152.94148    -29392.89   -28392.806 
  110800    321.19259   -29235.665    155.10109   -29390.766   -6981.7866 
  111000    304.93394    -29250.64    147.24993    -29397.89    17557.632 
  111200    283.71492   -29253.338    137.00345   -29390.341    2264.9741 
  111400    312.18187   -29218.073    150.74989   -29368.822   -17374.966 
  111600    297.58239   -29246.463    143.69993   -29390.163    36774.922 
  111800    294.86506   -29244.205    142.38775   -29386.593   -1537.7209 
  112000    325.72876   -29221.029    157.29156   -29378.321   -8901.4031 
  112200    341.07024    -29192.77    164.69983    -29357.47   -17827.383 
  112400    309.05152   -29231.539    149.23827   -29380.777   -3465.0594 
  112600    289.26113   -29255.565    139.68166   -29395.247    1397.6412 
  112800    318.94758   -29226.746    154.01699   -29380.763    50408.433 
  113000    309.30142   -29234.938    149.35894   -29384.297    16355.624 
  113200    297.13126   -29248.661    143.48208   -29392.143    3607.9928 
  113400    308.86111   -29241.071    149.14632   -29390.218   -66574.276 
  113600    315.94339   -29229.948    152.56629   -29382.514    -16636.27 
  113800    313.61333   -29260.086    151.44113   -29411.528   -27043.819 
  114000    310.42745   -29247.946    149.90269   -29397.849    32036.824 
  114200    341.56066   -29225.874    164.93664   -29390.811    14541.016 
  114400    281.51984   -29250.099    135.94346   -29386.043    10173.205 
  114600    279.16797   -29236.296    134.80776   -29371.104   -47232.815 
  114800    331.98488   -29221.993    160.31259   -29382.306   -19086.831 
  115000    282.36097   -29243.198    136.34964   -29379.547    22821.475 
  115200    300.67731   -29238.472    145.19443   -29383.667    3022.2542 
  115400    314.09574    -29195.11    151.67408   -29346.784    27536.451 
  115600    320.60857   -29225.414    154.81907   -29380.233    20605.739 
  115800    308.94025   -29246.382    149.18453   -29395.566    16620.501 
  116000    295.92507   -29243.022    142.89962   -29385.922   -21283.648 
  116200    291.27862   -29225.579    140.65589   -29366.235    12369.889 
  116400    289.42978   -29255.004     139.7631   -29394.767   -13448.075 
  116600     303.6967   -29247.178    146.65247   -29393.831    11835.078 
  116800    284.61864   -29247.011    137.43985    -29384.45   -1474.1735 
  117000    326.62901   -29230.447    157.72628   -29388.173    54412.169 
  117200    317.81508    -29258.91    153.47011    -29412.38    20084.528 
  117400    281.02907   -29256.437    135.70647   -29392.144   -50573.161 
  117600    314.60618   -29229.499    151.92056   -29381.419    3488.4866 
  117800     286.1053   -29249.168    138.15774   -29387.326   -3083.7367 
  118000    307.61321   -29233.936    148.54372    -29382.48    25563.405 
  118200    301.42581   -29227.886    145.55588   -29373.442     19342.97 
  118400    298.75693    -29246.61     144.2671   -29390.877   -7816.1141 
  118600    306.23017   -29239.128    147.87586   -29387.004    5121.9595 
  118800     309.4187   -29235.003    149.41558   -29384.419    3716.0866 
  119000    280.64083   -29261.844    135.51899   -29397.363    14618.742 
  119200    323.93882   -29238.837    156.42722   -29395.264     13815.77 
  119400    299.84365   -29240.999    144.79187   -29385.791    2148.9978 
  119600    305.87849   -29256.659    147.70604   -29404.365   -12194.869 
  119800    271.06964    -29261.28    130.89715   -29392.177    35526.576 
  120000    309.82587    -29235.62    149.61219   -29385.232   -38833.204 
  120200    308.68872    -29249.69    149.06307   -29398.753     1808.064 
  120400    243.30039   -29263.379    117.48762   -29380.866   -23412.002 
  120600    318.57511   -29231.164    153.83713   -29385.001    9267.0947 
  120800    306.03997   -29221.851    147.78402   -29369.635    639.49251 
  121000     311.7915   -29240.464    150.56138   -29391.025   -35747.017 
  121200    277.46108   -29249.068    133.98352   -29383.052    3698.5914 
  121400    313.86091   -29224.202    151.56068   -29375.762    35356.612 
  121600    284.22698   -29246.273    137.25072   -29383.524    5342.5793 
  121800    295.12629   -29245.327     142.5139   -29387.841    66503.688 
  122000    305.46965   -29223.554    147.50861   -29371.063    1542.6752 
  122200    296.90942   -29252.463    143.37495   -29395.838   -7762.7962 
  122400    299.66875   -29253.161    144.70741   -29397.869    14068.668 
  122600    320.26951   -29221.357    154.65534   -29376.013   -3350.9146 
  122800    294.53481   -29253.348    142.22828   -29395.576   -7035.4502 
  123000    304.39652   -29249.379    146.99041   -29396.369    795.93225 
  123200    295.45856   -29219.267    142.67434   -29361.942    50965.205 
  123400    301.77104   -29253.594    145.72259   -29399.316    20181.183 
  123600    313.75582   -29239.266    151.50993   -29390.776   -6128.3664 
  123800    298.92804   -29227.629    144.34973   -29371.978    35374.816 
  124000    256.70856   -29260.179    123.96231   -29384.141   -154.09563 
  124200    317.57294   -29238.105    153.35319   -29391.459    18871.663 
  124400    272.33222   -29238.226    131.50684   -29369.733    19429.734 
  124600    298.13608   -29239.292     143.9673    -29383.26   -17684.333 
  124800    299.14049   -29245.434    144.45232   -29389.887   -28792.986 
  125000    269.92188   -29277.708    130.34291   -29408.051      25211.7 
  125200    284.25271   -29252.248    137.26314   -29389.511   -16494.484 
  125400    306.35687   -29240.919    147.93704   -29388.856   -20821.316 
  125600    285.21432   -29267.241    137.72749   -29404.968    43292.653 
  125800    283.22756   -29251.343     136.7681   -29388.111   -7391.4118 
  126000    303.61567   -29242.358    146.61335   -29388.971    9030.3511 
  126200    305.93778   -29262.208    147.73467   -29409.943   -29434.674 
  126400    270.03684   -29270.256    130.39842   -29400.655    408.05937 
  126600    340.81669    -29235.42    164.57739   -29399.997   -18031.759 
  126800    277.91916   -29257.036    134.20473    -29391.24    -21705.53 
  127000    297.83848   -29261.176    143.82359   -29404.999    11937.659 
  127200    313.75866   -29233.043     151.5113   -29384.554   -8594.2279 
  127400    281.13571   -29265.448    135.75797   -29401.206    37710.553 
  127600    312.80588   -29252.517    151.05122   -29403.568    6458.7391 
  127800    330.98015   -29234.701    159.82741   -29394.529    12477.738 
  128000    315.35007   -29254.309    152.27978   -29406.589   -13747.704 
  128200    299.65011   -29267.309    144.69841   -29412.007   -48677.478 
  128400    297.13583   -29265.278    143.48429   -29408.762    5036.8566 
  128600    328.74236   -29242.553     158.7468   -29401.299   -33190.609 
  128800    287.12258    -29275.79    138.64898   -29414.439   -23066.464 
  129000    313.80108   -29257.259    151.53179   -29408.791    14751.926 
  129200     320.2852   -29247.949    154.66291   -29402.612     -45696.7 
  129400    252.40952   -29276.503    121.88634    -29398.39   -1319.6432 
  129600     283.7182   -29270.931    137.00503   -29407.936   -32957.739 
  129800    293.04573   -29248.716    141.50921   -29390.225   -22712.448 
  130000    311.45256   -29240.067    150.39771   -29390.464     42400.82 
  130200    260.47956   -29273.606     125.7833   -29399.389    37077.297 
  130400     314.5623   -29251.523    151.89937   -29403.423    18362.667 
  130600    319.99319   -29242.183     154.5219   -29396.705   -2869.1721 
  130800     289.8306   -29271.885    139.95666   -29411.842   -8194.6731 
  131000    276.74717   -29252.882    133.63878   -29386.521   -22185.602 
  131200    284.65855   -29244.111    137.45912    -29381.57   -31541.413 
  131400    304.26351   -29250.349    146.92618   -29397.275    3565.3987 
  131600    295.94543   -29252.963    142.90945   -29395.873   -910.76658 
  131800    293.09185   -29246.455    141.53148   -29387.987   -11388.871 
  132000     325.0108   -29221.665    156.94486   -29378.609    20632.969 
  132200    289.94047   -29244.963    140.00971   -29384.973    8581.4934 
  132400    312.76631   -29251.369    151.03211   -29402.401    4426.9825 
  132600    315.12482   -29252.061    152.17101   -29404.232    6766.0622 
  132800    294.83155   -29234.086    142.37157   -29376.458     8261.291 
  133000     289.3284   -29265.432    139.71415   -29405.146   -26052.747 
  133200    306.85433   -29246.689    148.17727   -29394.867   -7586.4558 
  133400    313.54893   -29245.469    151.41003   -29396.879    19193.077 
  133600    294.71443    -29258.81    142.31501   -29401.125   -13140.284 
  133800    285.99307   -29251.855    138.10354   -29389.958    -4802.019 
  134000    310.74267   -29236.049    150.05491   -29386.104    14282.442 
  134200     295.6576   -29263.101    142.77046   -29405.871   -20485.099 
  134400     286.9282    -29243.82    138.55511   -29382.375   -9031.0767 
  134600    292.42266   -29239.369    141.20834   -29380.578   -31939.709 
  134800    294.70281   -29252.418     142.3094   -29394.727   -37651.853 
  135000    303.77394   -29248.174    146.68977   -29394.864    11138.703 
  135200    349.18733   -29227.023     168.6195   -29395.643    -34646.65 
  135400    280.44005   -29254.711    135.42204   -29390.133    -907.7506 
  135600    288.71247   -29261.359    139.41672   -29400.776    2770.9861 
  135800    297.70574   -29243.793    143.75949   -29387.553    13805.874 
  136000    291.55896   -29248.787    140.79127   -29389.578   -15114.154 
  136200    288.98106    -29265.82    139.54642   -29405.366   -13292.126 
  136400    309.36251   -29237.681    149.38844   -29387.069    23519.297 
  136600    295.99068   -29249.863     142.9313   -29392.794   -14004.857 
  136800    270.87921   -29278.388    130.80519   -29409.194   -17873.009 
  137000    302.84032   -29254.954    146.23893   -29401.193    40196.377 
  137200    287.81313   -29241.083    138.98244   -29380.066   -32235.525 
  137400    345.79932   -29220.461    166.98346   -29387.445    38804.145 
  137600    300.64215   -29236.376    145.17746   -29381.554   -2497.2255 
  137800    264.40767   -29246.561    127.68014   -29374.241   -13941.004 
  138000    356.80942   -29216.427    172.30014   -29388.727     31985.91 
  138200    295.03172   -29257.977    142.46823   -29400.446   -6903.6231 
  138400    303.13824   -29242.501     146.3828   -29388.884    47130.004 
  138600    284.92572   -29227.483    137.58813   -29365.071    17610.449 
  138800    322.94999   -29255.326    155.94972   -29411.276   -18473.145 
  139000    282.56614   -29245.538    136.44871   -29381.987    -240.9454 
  139200    297.73548   -29231.609    143.77385   -29375.383   -20828.946 
  139400    292.91338   -29264.354     141.4453   -29405.799    1390.1352 
  139600    295.06751   -29253.385    142.48551   -29395.871   -41092.577 
  139800    302.07233    -29239.68    145.86808   -29385.549   -19121.887 
  140000    295.89895   -29258.951    142.88701   -29401.838    18455.885 
  140200    277.92034    -29281.14    134.20529   -29415.345    15363.044 
  140400    287.75467   -29250.157     138.9542   -29389.111   -782.88768 
  140600    313.86098   -29250.334    151.56071   -29401.894   -2485.0354 
  140800    248.62012   -29269.328    120.05647   -29389.384    17407.412 
  141000    336.46966   -29235.306    162.47825   -29397.784   -9556.1249 
  141200    289.56829   -29233.171    139.82999   -29373.001   -3695.7009 
  141400    291.38324   -29248.584    140.70641   -29389.291    37388.239 
  141600    288.00666     -29254.2    139.07589   -29393.276    30708.219 
  141800     312.1053   -29226.956    150.71291   -29377.669    4349.0009 
  142000    299.07153   -29248.651    144.41902    -29393.07    1849.8365 
  142200    293.18516   -29248.636    141.57654   -29390.213     19970.13 
  142400     288.9257   -29237.044    139.51968   -29376.564   -10479.283 
  142600    280.92442   -29266.788    135.65594   -29402.444    5688.6088 
  142800     308.5179   -29256.227    148.98059   -29405.208    11254.431 
  143000    293.87702    -29236.02    141.91064    -29377.93   -17058.456 
  143200    281.81115   -29270.331    136.08413   -29406.415   -5542.1676 
  143400     304.5948    -29244.27    147.08616   -29391.356   -5260.2027 
  143600    293.17427   -29241.592    141.57128   -29383.163    24377.342 
  143800    280.34602   -29249.521    135.37664   -29384.898    25025.712 
  144000    295.89607   -29245.532    142.88562   -29388.418    21484.175 
  144200    322.35306   -29239.979    155.66147   -29395.641    23693.501 
  144400    340.69125   -29215.328    164.51682   -29379.845     15013.75 
  144600     296.2751   -29245.925    143.06865   -29388.994     6517.262 
  144800    293.63081     -29247.2    141.79174   -29388.991    28696.014 
  145000    282.94808    -29269.55    136.63314   -29406.183   -1620.0718 
  145200    294.34563   -29253.971    142.13692   -29396.108    6528.8088 
  145400    321.17958   -29243.378     155.0948   -29398.473    24113.729 
  145600    271.41598   -29271.528     131.0644   -29402.593   -11188.266 
  145800     314.8568   -29263.616    152.04159   -29415.658    9751.9343 
  146000    289.70724   -29246.988    139.89708   -29386.885    5043.2024 
  146200    330.98713   -29221.364    159.83078   -29381.194    35135.694 
  146400    298.11823   -29256.211    143.95868   -29400.169   -33805.498 
  146600    300.27048   -29245.998    144.99798   -29390.996    40366.914 
  146800    325.11013   -29236.321    156.99283   -29393.314    18728.708 
  147000    316.99379   -29248.077    153.07352    -29401.15    11076.214 
  147200    297.92514   -29257.219    143.86544   -29401.084    10265.039 
  147400     273.2221   -29277.958    131.93656   -29409.895    57469.927 
  147600    320.90236   -29244.273    154.96093   -29399.234   -51570.848 
  147800    297.99628   -29246.144    143.89979   -29390.044    3897.6296 
  148000    276.90829   -29276.845    133.71658   -29410.561   -38523.589 
  148200    310.85497   -29255.939    150.10914   -29406.048   -24151.037 
  148400    298.62187   -29257.775    144.20188   -29401.977    4224.2284 
  148600    317.39823    -29255.58    153.26882   -29408.849    1124.4351 
  148800     278.1264   -29251.566     134.3048   -29385.871      2924.79 
  149000    349.12673   -29233.324    168.59024   -29401.915   -10108.821 
  149200     285.7598   -29262.508     137.9909   -29400.499   -17850.433 
  149400    297.66022   -29254.464    143.73751   -29398.202   -12591.578 
  149600    310.00189   -29232.417    149.69719   -29382.115    35828.879 
  149800    293.37082   -29239.645    141.66619   -29381.311   -11556.738 
  150000     296.8454   -29265.382    143.34404   -29408.726   -26347.496 
  150200    303.67177   -29240.142    146.64043   -29386.783    -5114.405 
  150400    325.22396   -29247.536     157.0478   -29404.584   -38226.314 
  150600    300.44836   -29258.647    145.08388   -29403.731   -28516.033 
  150800    306.56265    -29234.48    148.03641   -29382.517    41480.339 
  151000    311.69024   -29236.583    150.51248   -29387.096   -8385.9086 
  151200    290.44529   -29257.269    140.25348   -29397.522    12156.202 
  151400    338.84341   -29231.352    163.62451   -29394.976    10372.543 
  151600    328.32626   -29232.266    158.54587   -29390.812   -28551.625 
  151800    283.75236    -29243.41    137.02153   -29380.432    -15055.55 
  152000    318.28441   -29222.263    153.69675    -29375.96    22271.261 
  152200    305.79014   -29231.505    147.66338   -29379.169    26997.066 
  152400    292.28156   -29250.244     141.1402   -29391.384   -8565.4963 
  152600    305.57854   -29236.523     147.5612   -29384.084   -11557.547 
  152800    310.01584   -29232.792    149.70393   -29382.496   -65.458936 
  153000    292.36234   -29261.688    141.17921   -29402.868    2320.2392 
  153200    307.07353   -29230.997    148.28311    -29379.28   -29811.939 
  153400    322.31145    -29242.22    155.64137   -29397.861    15195.077 
  153600    287.74806   -29258.166    138.95101   -29397.117     13083.02 
  153800    335.20406   -29227.079     161.8671   -29388.946   -9451.3767 
  154000    308.55688   -29249.145    148.99941   -29398.145   -20649.568 
  154200     285.4104   -29252.844    137.82218   -29390.667   -22268.548 
  154400    310.05281   -29229.961    149.72178   -29379.683    22498.807 
  154600    299.55777   -29241.445    144.65382   -29386.098    24137.963 
  154800    295.81994   -29257.698    142.84885   -29400.547   -7995.3587 
  155000    324.90969   -29231.142    156.89604   -29388.038     26094.68 
  155200    308.53653   -29248.885    148.98959   -29397.875    16478.596 
  155400    272.67374   -29262.479    131.67176   -29394.151   -2188.1158 
  155600    312.74662   -29234.755     151.0226   -29385.777   -24177.341 
  155800    284.39967   -29245.697    137.33411   -29383.031   -16400.626 
  156000    288.38784   -29253.158    139.25996   -29392.418   -4757.7854 
  156200    319.68061   -29245.093    154.37096   -29399.464   -13073.438 
  156400    285.91747   -29236.184    138.06704   -29374.251   -8106.4289 
  156600    283.71487   -29265.694    137.00342   -29402.697    3003.5728 
  156800     294.5118   -29247.718    142.21717   -29389.935    23705.632 
  157000    295.75709   -29224.422    142.81851   -29367.241    20973.819 
  157200    285.53119   -29245.434     137.8805   -29383.314   -13541.077 
  157400    297.53626   -29253.579    143.67765   -29397.257    -39554.48 
  157600    320.83427   -29226.298    154.92805   -29381.226   -16902.235 
  157800    285.34211   -29257.642     137.7892   -29395.431    -48744.34 
  158000    307.06889   -29248.384    148.28088   -29396.665   -22601.473 
  158200    298.73319   -29233.477    144.25564   -29377.733   -26465.196 
  158400    313.09225   -29253.107     151.1895   -29404.296   -15952.722 
  158600    274.55764   -29266.084    132.58148   -29398.665   -16521.516 
  158800    312.23801   -29233.965      150.777   -29384.742    12646.686 
  159000    305.29656   -29251.982    147.42503   -29399.407    -35922.67 
  159200    280.48732   -29257.656    135.44487   -29393.101    -2317.773 
  159400    303.41171   -29261.407    146.51485   -29407.922   -37349.869 
  159600    331.57136   -29233.397     160.1129    -29393.51    14592.107 
  159800    272.50496   -29264.331    131.59026   -29395.922   -45965.173 
  160000    290.92536   -29256.655     140.4853    -29397.14   -10026.633 
  160200     319.8567   -29235.367      154.456   -29389.823    20123.424 
  160400    348.19711   -29222.812    168.14133   -29390.954    20203.066 
  160600    307.64572   -29254.495    148.55942   -29403.054    22478.859 
  160800     305.3397    -29243.12    147.44586   -29390.566    34307.343 
  161000    336.37952    -29224.99    162.43472   -29387.425   -33529.755 
  161200    278.93716    -29258.33    134.69631   -29393.026   -6967.7675 
  161400    326.98439   -29233.466    157.89789   -29391.364    10685.877 
  161600    292.89447   -29249.607    141.43617   -29391.044   -44356.456 
  161800    290.46354   -29261.709    140.26229   -29401.972    9619.9031 
  162000    333.90921   -29237.786    161.24183   -29399.028    625.25848 
  162200    298.25809   -29243.809    144.02622   -29387.836   -15601.456 
  162400     311.9622    -29240.21    150.64381   -29390.854   -14819.217 
  162600    343.76467   -29211.734    166.00095   -29377.735    23096.505 
  162800    287.35708   -29235.791    138.76221   -29374.553    11767.789 
  163000    304.52681   -29243.897    147.05332    -29390.95   -10529.381 
  163200    281.33361   -29270.451    135.85353   -29406.304   -2060.5624 
  163400    286.84725   -29234.004    138.51602    -29372.52    496.44163 
  163600    300.03975   -29229.208    144.88656   -29374.095   -1951.0056 
  163800    257.26602    -29258.27     124.2315   -29382.502   -6946.7165 
  164000    302.89304   -29229.519    146.26439   -29375.783    6489.4099 
  164200     297.6377   -29238.312    143.72663   -29382.038    31010.645 
  164400    275.80296   -29252.864    133.18283   -29386.047   -17807.396 
  164600    321.21946    -29232.33    155.11406   -29387.444    -21957.19 
  164800    299.41375   -29237.109    144.58427   -29381.694   -50906.895 
  165000    310.72422   -29259.783      150.046   -29409.829   -30734.698 
  165200    315.49471    -29244.71    152.34963   -29397.059   -5770.4956 
  165400     319.7736   -29215.598    154.41587   -29370.014    6291.9681 
  165600    303.91811    -29241.21    146.75939   -29387.969   -12736.046 
  165800    278.60523   -29260.243    134.53602   -29394.779    59629.039 
  166000    320.72087   -29239.701    154.87329   -29394.574    20875.086 
  166200    313.82793   -29237.669    151.54475   -29389.213   -3604.0143 
  166400     277.1267   -29259.107    133.82205   -29392.929    -19148.78 
  166600     296.6038    -29246.35    143.22737   -29389.577    7061.3981 
  166800     317.6498   -29242.729     153.3903    -29396.12    28587.023 
  167000    293.67123   -29277.273    141.81126   -29419.084   -22730.729 
  167200    289.93015     -29249.1    140.00473   -29389.105    26645.644 
  167400    301.54891   -29255.518    145.61532   -29401.133   -9891.6608 
  167600    285.17678   -29282.363    137.70936   -29420.072    16283.293 
  167800    265.68735   -29258.406    128.29809   -29386.704   -10203.936 
  168000    291.55978   -29246.096    140.79166   -29386.887    27742.797 
  168200    295.53185   -29267.583    142.70974   -29410.293    19404.467 
  168400    285.18306   -29259.429     137.7124   -29397.141   -10654.857 
  168600    325.50083   -29237.468     157.1815   -29394.649    4381.6447 
  168800    276.99143    -29260.21    133.75673   -29393.966   -2978.1315 
  169000    302.20967    -29253.16     145.9344   -29399.095    48669.606 
  169200    329.12605   -29236.977    158.93208   -29395.909   -4149.4642 
  169400    275.83444   -29263.299    133.19803   -29396.497   -1143.9349 
  169600    305.35117   -29241.203     147.4514   -29388.654   -27515.848 
  169800    323.67456   -29238.964    156.29961   -29395.263    28986.334 
  170000    294.00139   -29261.606    141.97069   -29403.576    2585.2763 
  170200    319.49065   -29234.086    154.27923   -29388.366    43331.913 
  170400    315.11948   -29245.478    152.16843   -29397.646    11960.218 
  170600      292.388    -29254.42     141.1916   -29395.612   -7335.7839 
  170800    301.82053   -29223.774    145.74649   -29369.521    4399.0465 
  171000    286.15157   -29237.864    138.18009   -29376.044   -15830.566 
  171200    310.34253   -29243.791    149.86168   -29393.653    40512.307 
  171400     319.0835   -29208.973    154.08262   -29363.056    37957.205 
  171600    276.34588   -29240.864      133.445   -29374.309   -23452.159 
  171800    287.03471   -29245.598    138.60654   -29384.205   -19085.359 
  172000    322.27262   -29214.253    155.62262   -29369.875    -17887.28 
  172200    307.95101   -29233.557    148.70684   -29382.264   -26291.197 
  172400    288.56193   -29251.636    139.34402    -29390.98   -12984.366 
  172600    303.27346   -29259.397    146.44809   -29405.845    12427.412 
  172800    305.61545   -29230.405    147.57902   -29377.984   -8849.6319 
  173000    281.59952   -29258.375    135.98194   -29394.357   -14093.561 
  173200    288.99019   -29242.871    139.55083   -29382.422   -12074.088 
  173400    309.11945   -29236.121    149.27107   -29385.392   -9929.5823 
  173600     272.0892   -29260.939    131.38949   -29392.328    2759.6714 
  173800     292.6196   -29261.802    141.30344   -29403.106    13586.861 
  174000    313.71141   -29233.222    151.48849   -29384.711    49437.479 
  174200    282.55782   -29241.701    136.44469   -29378.146   -10316.227 
  174400    289.23952   -29253.375    139.67123   -29393.046   -12389.989 
  174600    297.52469   -29223.336    143.67206   -29367.008    5291.4124 
  174800    307.32889   -29243.904    148.40642    -29392.31    2404.6499 
  175000    280.44221   -29254.543    135.42308   -29389.966    33247.552 
  175200    299.83065   -29238.197    144.78559   -29382.983    6869.9665 
  175400    331.80591   -29225.504    160.22616    -29385.73    16198.125 
  175600     276.2604   -29256.258    133.40372   -29389.662   -14280.403 
  175800    295.27794   -29235.567    142.58713   -29378.154    2426.4843 
  176000    291.25961   -29239.584    140.64671    -29380.23   -20337.552 
  176200     263.8882   -29260.318    127.42929   -29387.747    16923.826 
  176400    297.76187   -29232.441    143.78659   -29376.227   -11175.116 
  176600    314.61666   -29232.131    151.92562   -29384.057    5149.6079 
  176800    254.05771   -29266.666    122.68224   -29389.348    9253.1649 
  177000    270.38551   -29242.767    130.56679   -29373.334    13613.865 
  177200    300.90112   -29245.006    145.30251   -29390.309    25541.217 
  177400     269.6898   -29277.169    130.23084   -29407.399    5459.6723 
  177600    304.18006   -29250.525    146.88589    -29397.41   -21637.059 
  177800     292.2876   -29238.226    141.14312   -29379.369    2730.1237 
[...]
  950000    304.75407   -29258.806    147.16307   -29405.969   -14829.282 
  950200    268.99855   -29275.994    129.89704   -29405.891   -11151.829 
  950400    310.16557   -29256.524    149.77623   -29406.301    3938.5697 
  950600    311.54187   -29255.144    150.44084   -29405.585    18104.796 
  950800     304.4808   -29275.838    147.03111   -29422.869    19367.827 
  951000    311.86164   -29268.762    150.59525   -29419.358    14900.835 
  951200    336.68992   -29247.936    162.58461   -29410.521   -54139.145 
  951400    292.10296   -29279.996    141.05396    -29421.05   -6154.9083 
  951600    280.60342   -29266.909    135.50093    -29402.41    6328.5916 
  951800     329.2988    -29231.73     159.0155   -29390.746   -8474.6314 
  952000    286.31705   -29262.226    138.25999   -29400.486    36330.191 
  952200    307.41483    -29272.51    148.44792   -29420.958    5952.9253 
  952400    313.69838    -29260.99    151.48219   -29412.472   -34862.899 
  952600    315.81082   -29245.224    152.50228   -29397.727    8325.2492 
  952800    296.77437   -29280.378    143.30974   -29423.688    28894.072 
  953000    294.39194   -29268.974    142.15929   -29411.133    6695.0448 
  953200    295.68985   -29242.698    142.78604   -29385.484   -10927.142 
  953400    308.53081   -29269.364    148.98682   -29418.351    62443.035 
  953600    306.60789   -29280.744    148.05826   -29428.802    17442.432 
  953800    305.40016    -29272.61    147.47506   -29420.085    20892.987 
  954000    307.32544    -29252.63    148.40476   -29401.035   -24459.106 
  954200    314.00701   -29280.931    151.63123   -29432.562   -1722.3034 
  954400     307.9203   -29273.411    148.69201   -29422.103    2804.9733 
  954600    318.75063   -29246.233    153.92188   -29400.155   -4235.1329 
  954800    315.29396   -29275.027    152.25269   -29427.279   -19543.284 
  955000    267.39522   -29279.318    129.12281   -29408.441    29989.328 
  955200     324.5348   -29253.281    156.71501   -29409.996   -376.50703 
  955400    273.31905   -29288.477    131.98337    -29420.46    46657.492 
  955600    305.51379   -29271.949    147.52993   -29419.478    35611.703 
  955800    321.46236   -29263.118    155.23135   -29418.349   -27041.148 
  956000    276.82919   -29298.329    133.67839   -29432.008    -23163.93 
  956200    307.22074   -29271.799     148.3542   -29420.153   -12375.174 
  956400    314.81165   -29270.278    152.01978   -29422.298     25880.83 
  956600    317.48422   -29264.734    153.31035   -29418.045    5021.9798 
  956800    324.27645   -29251.066    156.59025   -29407.657    21894.658 
  957000    288.99411   -29279.653    139.55272   -29419.205   -7879.1355 
  957200    297.08184   -29255.517    143.45821   -29398.975    33648.185 
  957400    295.46783   -29251.346    142.67882   -29394.025    18010.404 
  957600     272.0073   -29271.558    131.34994   -29402.908   -20585.708 
  957800    281.22906   -29264.174    135.80304   -29399.977   -7309.3183 
  958000    295.89914   -29247.758     142.8871   -29390.645    5983.9497 
  958200    275.20137   -29272.316    132.89233   -29405.208    3674.9339 
  958400    304.92285   -29263.341    147.24457   -29410.586    48458.359 
  958600    347.73228   -29239.256    167.91687   -29407.173   -25938.822 
  958800    297.04171   -29267.847    143.43884   -29411.286    4829.4986 
  959000    316.17133   -29277.452    152.67636   -29430.128   -16289.152 
  959200    315.26676   -29242.436    152.23955   -29394.675   -47054.033 
  959400    316.87773    -29257.35    153.01748   -29410.368    3304.7313 
  959600    322.16092   -29271.541    155.56868    -29427.11    -32616.41 
  959800    289.66818   -29292.616    139.87822   -29432.495   -8778.1583 
  960000    278.98092   -29272.744    134.71744   -29407.462    16193.479 
  960200    305.73965   -29261.243      147.639   -29408.882    -8172.242 
  960400    278.72125   -29290.463    134.59205   -29425.055    5840.2597 
  960600    312.06198   -29253.889    150.69199   -29404.581    4226.5355 
  960800    331.64752   -29273.197    160.14968   -29433.347    7502.0865 
  961000    287.61642   -29270.535    138.88745   -29409.423   -21472.171 
  961200    297.04224   -29251.732    143.43909   -29395.171   -42627.008 
  961400    305.07753   -29271.296    147.31926   -29418.615   -11275.224 
  961600    304.62361   -29260.801    147.10007   -29407.901   -20478.613 
  961800    324.56625   -29251.315     156.7302   -29408.045    37538.945 
  962000    310.22751   -29279.889    149.80614   -29429.696   -10891.291 
  962200      322.296   -29255.457    155.63391   -29411.091    30813.039 
  962400    289.28603   -29269.862    139.69369   -29409.556    347.13573 
  962600    311.02776    -29272.46    150.19258   -29422.652    4418.5247 
  962800    327.59118     -29249.2    158.19091   -29407.391   -29115.876 
  963000    278.86465   -29276.993    134.66129   -29411.654   -12978.718 
  963200    317.69916    -29258.63    153.41414   -29412.044    3954.3729 
  963400    325.63816    -29250.23    157.24781   -29407.478   -35053.276 
  963600    277.93372   -29277.651    134.21176   -29411.862    22426.689 
  963800    277.42426   -29271.671    133.96574   -29405.637   -16740.782 
  964000    331.09905   -29252.534    159.88483   -29412.419   -2455.6826 
  964200    307.95333   -29272.919    148.70796   -29421.627   -13292.371 
  964400    291.95846   -29276.995    140.98418   -29417.979    9059.6025 
  964600    301.63859   -29245.732    145.65863   -29391.391    15148.625 
  964800    287.74475   -29255.046    138.94941   -29393.996   -15741.333 
  965000    283.65304   -29277.891    136.97357   -29414.865   -42738.134 
  965200     271.2702   -29289.343      130.994   -29420.337   -38274.304 
  965400    291.87734   -29258.108    140.94501   -29399.053    7261.0064 
  965600    273.56862   -29282.072    132.10389   -29414.176   -19162.029 
  965800    323.88502   -29266.882    156.40124   -29423.283    37691.853 
  966000     309.7986   -29251.905    149.59903   -29401.504   -50115.767 
  966200    279.83009   -29280.677     135.1275   -29415.805   -1119.1387 
  966400    291.47473   -29272.795    140.75059   -29413.546    57903.263 
  966600     300.2321   -29266.942    144.97945   -29411.922    22334.013 
  966800    314.83971   -29271.449    152.03333   -29423.482    16816.844 
  967000    273.70871   -29282.122    132.17153   -29414.293   -31745.526 
  967200    299.66928   -29263.581    144.70767   -29408.288   -42585.973 
  967400    332.49741   -29247.149    160.56008   -29407.709     2714.861 
  967600    290.62274   -29283.989    140.33917   -29424.328   -15511.911 
  967800    303.06805   -29268.313     146.3489   -29414.662    21184.065 
  968000    308.91023    -29258.44    149.17004    -29407.61     21293.59 
  968200    317.83897   -29290.571    153.48165   -29444.052    4661.7353 
  968400    285.94049   -29264.815    138.07816   -29402.894   -23406.517 
  968600    294.44178   -29252.794    142.18335   -29394.977    21373.865 
  968800    304.78026   -29279.775    147.17571    -29426.95   -18722.463 
  969000    292.95205   -29282.454    141.46397   -29423.918    6148.1484 
  969200     325.1372   -29255.375     157.0059   -29412.381    18773.217 
  969400    304.59596   -29276.049    147.08672   -29423.136   -6286.2037 
  969600    276.99327   -29271.153    133.75762   -29404.911   -32872.848 
  969800    329.45575   -29251.773    159.09129   -29410.864    21064.719 
  970000    277.36321   -29281.892    133.93626   -29415.829    11416.397 
  970200    283.42477   -29271.401    136.86334   -29408.265    5916.9068 
  970400    351.03882   -29229.427    169.51357    -29398.94   -2848.5065 
  970600    306.55925   -29253.882    148.03477   -29401.917   -13060.656 
  970800    283.10673   -29275.886    136.70976   -29412.596    6682.4177 
  971000    289.36454   -29284.889     139.7316   -29424.621    23739.347 
  971200    304.33003   -29255.612     146.9583   -29402.571   -49564.113 
  971400     308.2242   -29265.353    148.83876   -29414.192    38579.222 
  971600    296.35362   -29284.824    143.10656   -29427.931   -12726.672 
  971800    301.56968   -29266.722    145.62535   -29412.348     20251.98 
  972000    330.27998   -29244.528    159.48931   -29404.018   -23049.882 
  972200    287.68864   -29284.991    138.92232   -29423.914     10360.79 
  972400    294.56608   -29269.659    142.24338   -29411.903   -4714.6228 
  972600      309.557   -29254.688    149.48236    -29404.17   -12575.854 
  972800    297.33235   -29271.349    143.57918   -29414.928   -41352.034 
  973000    307.48611   -29279.189    148.48235   -29427.671    7168.7663 
  973200    307.16017   -29260.521    148.32495   -29408.846    3625.9412 
  973400    310.26693   -29279.667    149.82518   -29429.492     12114.72 
  973600    289.85247   -29281.537    139.96721   -29421.504    5320.8106 
  973800    308.71618   -29263.603    149.07634    -29412.68   -27866.278 
  974000    305.78089   -29276.312    147.65891   -29423.971   -19586.321 
  974200    294.16002   -29275.245    142.04729   -29417.292    7944.8257 
  974400    349.96525   -29232.657    168.99515   -29401.652   -1973.1301 
  974600    323.82036   -29272.469    156.37001   -29428.839    2278.4416 
  974800    272.98651   -29280.599    131.82279   -29412.421   -27298.106 
  975000    313.40841   -29252.493    151.34217   -29403.835   -37932.627 
  975200    285.24663   -29272.342     137.7431   -29410.085    20030.727 
  975400     303.5245   -29266.297    146.56932   -29412.866   -15432.898 
  975600     303.2655   -29268.493    146.44425   -29414.937    8793.9649 
  975800     280.6013   -29285.754     135.4999   -29421.254   -16018.854 
  976000     356.1417   -29252.476     171.9777   -29424.454   -18724.316 
  976200    300.49929    -29263.93    145.10847   -29409.039   -28295.666 
  976400     281.8093   -29276.839    136.08324   -29412.923    20871.193 
  976600    333.05178   -29245.726    160.82778   -29406.554    13413.693 
  976800    305.72721     -29265.6    147.63299   -29413.233   -37006.812 
  977000    299.10208   -29280.345    144.43377   -29424.779   -11351.223 
  977200    313.84749   -29255.079     151.5542   -29406.633   -49390.028 
  977400    301.00612   -29266.577    145.35322    -29411.93    30142.084 
  977600    304.29861   -29280.627    146.94313    -29427.57    67.885346 
  977800    300.58307   -29276.988    145.14893   -29422.137   -10526.641 
  978000    338.85746   -29242.272     163.6313   -29405.903    33358.027 
  978200    279.74241   -29273.978    135.08516   -29409.064    10453.228 
  978400    306.16264   -29274.363    147.84326   -29422.207   -44835.452 
  978600    308.35953   -29260.646    148.90411    -29409.55    16478.753 
  978800    301.11006   -29255.773     145.4034   -29401.177     31272.46 
  979000    267.83516   -29281.696    129.33525   -29411.031   -1594.8686 
  979200    335.92368   -29259.702     162.2146   -29421.917   -2192.6809 
  979400    305.56294   -29266.039    147.55366   -29413.592     40995.42 
  979600    291.15997   -29272.253     140.5986   -29412.852    64230.391 
  979800    309.89844   -29255.454    149.64724   -29405.101   -31780.344 
  980000    302.69015    -29269.52    146.16642   -29415.686    6026.9435 
  980200    276.80675   -29282.723    133.66755    -29416.39   -23466.084 
  980400    300.91679   -29243.324    145.31008   -29388.634     18283.63 
  980600     295.9789   -29269.355    142.92561    -29412.28   -45048.419 
  980800    283.63028   -29279.305    136.96258   -29416.267    6745.5423 
  981000    293.22093   -29252.526    141.59381    -29394.12    16481.253 
  981200    311.70202    -29260.14    150.51817   -29410.658    7921.3727 
  981400    273.58907   -29274.871    132.11376   -29406.985   -10585.779 
  981600    307.16713   -29264.982    148.32831    -29413.31    11843.422 
  981800    333.53233   -29241.488    161.05984   -29402.548   -23084.655 
  982000    316.49284   -29268.685    152.83162   -29421.517      20998.3 
  982200    281.63848   -29270.349    136.00075    -29406.35    8680.0466 
  982400    337.48335   -29246.445    162.96775   -29409.412     10133.57 
  982600    302.53769   -29277.067     146.0928    -29423.16   -25680.024 
  982800    306.76837   -29269.077    148.13576   -29417.213    12227.807 
  983000    300.26209   -29260.146    144.99393    -29405.14   -3251.6797 
  983200    302.38297   -29264.861    146.01808   -29410.879      17426.2 
  983400    260.78421   -29284.411    125.93041   -29410.341   -37640.239 
  983600    299.19511   -29278.818    144.47869   -29423.296    12762.166 
  983800    310.40288   -29262.181    149.89083   -29412.072    1741.0039 
  984000    312.18896   -29279.187    150.75331   -29429.941    28992.522 
  984200     298.1903   -29286.874    143.99348   -29430.868     13750.71 
  984400    267.46462   -29263.686    129.15632   -29392.843   -18260.819 
  984600    288.40239   -29278.833    139.26698     -29418.1    -12365.88 
  984800    261.18636   -29297.532     126.1246   -29423.657    24710.029 
  985000    307.01989   -29262.119    148.25721   -29410.376   -20994.867 
  985200    260.10359   -29270.651    125.60174   -29396.253    420.00345 
  985400    292.92575   -29293.358    141.45128   -29434.809   -11938.335 
  985600    312.31217   -29263.261    150.81281   -29414.074     9163.892 
  985800    334.27033   -29261.299    161.41621   -29422.715   -8114.7162 
  986000    265.14332   -29289.423    128.03538   -29417.458   -33651.436 
  986200    296.79428     -29257.4    143.31936   -29400.719   -2096.6873 
  986400    299.11854   -29266.024    144.44172   -29410.466     -848.808 
  986600    300.94599   -29285.936    145.32418    -29431.26    1792.9815 
  986800    302.92842   -29250.075    146.28148   -29396.357   -28567.616 
  987000    305.55935   -29270.877    147.55193   -29418.429   -52396.656 
  987200    274.20077   -29277.519    132.40915   -29409.928     36630.29 
  987400    301.92194    -29259.96    145.79546   -29405.755   -8315.9638 
  987600    299.03069   -29267.766     144.3993   -29412.166    40510.383 
  987800    288.22166   -29284.273    139.17971   -29423.453   -35351.563 
  988000    323.82511   -29268.808    156.37231   -29425.181    43166.971 
  988200    290.47561   -29271.577    140.26812   -29411.845    7064.5508 
  988400    306.97003   -29261.767    148.23313       -29410    15705.273 
  988600     326.3864   -29244.849    157.60913   -29402.458     25356.05 
  988800    300.60903   -29281.426    145.16146   -29426.588   -20352.371 
  989000    304.52774   -29265.461    147.05378   -29412.515   -20915.335 
  989200    322.59947   -29242.555    155.78045   -29398.335   -11528.203 
  989400    353.67907   -29249.224    170.78852   -29420.012   -29725.627 
  989600    289.05936   -29275.646    139.58423    -29415.23    851.85808 
  989800    301.78514    -29278.49     145.7294   -29424.219   -8365.6623 
  990000    335.20591   -29249.825      161.868   -29411.693    27016.195 
  990200    300.11015   -29274.757    144.92056   -29419.678    4151.8174 
  990400    286.34287   -29275.853    138.27246   -29414.126   -23916.564 
  990600    306.52077   -29254.208    148.01619   -29402.224   -13072.611 
  990800    334.19768   -29244.201    161.38113   -29405.583   -1370.7775 
  991000    310.93849   -29278.443    150.14947   -29428.592   -4003.6435 
  991200    289.19452   -29268.286     139.6495   -29407.935    5188.5042 
  991400    298.89053   -29252.626    144.33162   -29396.957    26146.258 
  991600    277.83813   -29268.965     134.1656    -29403.13   -21095.821 
  991800    309.53722   -29266.364    149.47281   -29415.836   -13306.294 
  992000    321.66494    -29266.95    155.32918   -29422.279    -8338.524 
  992200    280.05199   -29286.952    135.23465   -29422.186    23789.098 
  992400    279.40496   -29252.021     134.9222   -29386.943   -3645.3538 
  992600     308.6337   -29273.271     149.0365   -29422.308   -35691.377 
  992800    316.91444   -29280.075     153.0352    -29433.11    10061.394 
  993000    308.03433   -29248.664    148.74708   -29397.411   -18091.757 
  993200    322.16901   -29264.521    155.57259   -29420.094   -38669.134 
  993400    275.37419   -29283.609    132.97578   -29416.585   -16889.207 
  993600    299.56432   -29266.267    144.65698   -29410.924    22490.425 
  993800    297.30003     -29255.7    143.56358   -29399.264   -54582.087 
  994000    290.68723   -29287.302    140.37031   -29427.673   -14683.761 
  994200    300.10611   -29261.317    144.91861   -29406.236    9032.1626 
  994400     303.7105   -29265.852    146.65914   -29412.511    17117.933 
  994600     238.3247   -29300.549    115.08491   -29415.634   -22539.545 
  994800    324.11417    -29269.55    156.51189   -29426.062   -8030.4206 
  995000    292.70956   -29271.227    141.34688   -29412.574    13607.307 
  995200    277.18882   -29294.779    133.85205   -29428.631   -8868.7216 
  995400    320.45313   -29263.508    154.74401   -29418.252   -20679.131 
  995600    298.29624    -29274.55    144.04464   -29418.594    -13798.62 
  995800    294.31628    -29285.36    142.12275   -29427.483   -14429.695 
  996000    334.16993   -29252.485    161.36773   -29413.853   -3857.9869 
  996200    304.70917   -29278.645    147.14139   -29425.787   -1657.5782 
  996400    297.83407   -29267.899    143.82146   -29411.721    18991.903 
  996600    351.48604   -29250.811    169.72952    -29420.54   -8991.4167 
  996800    311.93391   -29275.116    150.63015   -29425.746   -11829.515 
  997000    312.12956   -29275.943    150.72463   -29426.668   -26831.338 
  997200    310.68709   -29271.566    150.02807   -29421.594    18282.349 
  997400    311.48862   -29266.184    150.41512   -29416.599    11971.795 
  997600    286.38751   -29268.945    138.29402   -29407.239    398.60243 
  997800    282.67746   -29277.636    136.50247   -29414.138   -23816.885 
  998000    318.97274   -29249.892    154.02914   -29403.921     -18927.7 
  998200    291.44886   -29270.649     140.7381   -29411.387   -18611.086 
  998400       255.34   -29276.146    123.30144   -29399.448   -2337.1279 
  998600    303.53237   -29258.734    146.57312   -29405.307    15176.578 
  998800    291.94316   -29288.146    140.97679   -29429.123    402.18404 
  999000    281.37676   -29271.112    135.87437   -29406.987   -17521.066 
  999200    317.81479    -29262.51    153.46998    -29415.98     4300.068 
  999400     301.8743   -29284.915    145.77245   -29430.688   -14623.685 
  999600    262.80672   -29298.359    126.90706   -29425.266    13417.995 
  999800    334.72925   -29269.297    161.63782   -29430.935    28297.951 
 1000000    293.36974   -29263.235    141.66568   -29404.901   -33476.226 
Loop time of 23049.5 on 8 procs for 1000000 steps with 163 atoms

Performance: 0.937 ns/day, 25.611 hours/ns, 43.385 timesteps/s
99.8% CPU use with 8 MPI tasks x no OpenMP threads

MPI task timing breakdown:
Section |  min time  |  avg time  |  max time  |%varavg| %total
---------------------------------------------------------------
Pair    | 18141      | 19026      | 19629      | 368.2 | 82.54
Neigh   | 19.475     | 20.069     | 20.641     |   8.4 |  0.09
Comm    | 319.82     | 923.8      | 1807.2     |1671.8 |  4.01
Output  | 0.43587    | 0.47118    | 0.66485    |  10.7 |  0.00
Modify  | 3054.8     | 3057.9     | 3062.1     |   3.7 | 13.27
Other   |            | 21.34      |            |       |  0.09

Nlocal:    20.375 ave 42 max 5 min
Histogram: 2 0 1 1 1 0 2 0 0 1
Nghost:    798.125 ave 810 max 784 min
Histogram: 1 0 0 3 0 1 0 1 0 2
Neighs:    2257.38 ave 4463 max 653 min
Histogram: 2 0 1 1 1 0 1 1 0 1

Total # of neighbors = 18059
Ave neighs/atom = 110.791
Neighbor list builds = 5144
Dangerous builds = 0

unfix 1
unfix output
undump 1

Please see the log.cite file for references relevant to this simulation

Total wall time: 6:27:05
