ITEM: TIMESTEP
0
ITEM: NUMBER OF ATOMS
57
ITEM: BOX BOUNDS pp pp pp
0.0000000000000000e+00 3.2808000000000000e+01
0.0000000000000000e+00 1.7780000000000001e+01
0.0000000000000000e+00 2.4729999999999999e+00
ITEM: ATOMS id type x y z 
13 1 7.043 0.849 2.464 
29 1 7.397 1.432 1.228 
37 1 8.035 2.733 1.228 
57 2 5.323 0.648 0.838 
1 1 6.173 17.398 2.464 
5 1 5.371 17.398 1.228 
9 1 3.973 17.398 1.228 
16 1 7.043 16.167 2.464 
32 1 7.397 15.584 1.228 
40 1 8.035 14.283 1.228 
45 1 3.236 17.398 2.464 
49 1 1.81 17.398 2.464 
53 1 1.083 17.398 1.228 
4 1 10.968 8.508 2.464 
8 1 11.771 8.508 1.228 
12 1 13.168 8.508 1.228 
18 1 10.098 7.277 2.464 
21 1 8.308 3.392 2.464 
26 1 8.833 4.734 2.464 
34 1 9.745 6.694 1.228 
42 1 9.106 5.393 1.228 
48 1 13.906 8.508 2.464 
52 1 15.331 8.508 2.464 
56 1 16.058 8.508 1.228 
19 1 10.098 9.739 2.464 
24 1 8.308 13.624 2.464 
27 1 8.833 12.282 2.464 
35 1 9.745 10.322 1.228 
43 1 9.106 11.623 1.228 
3 1 22.577 8.508 2.464 
7 1 21.775 8.508 1.228 
11 1 20.377 8.508 1.228 
20 1 23.447 7.277 2.464 
36 1 23.801 6.694 1.228 
44 1 24.439 5.393 1.228 
47 1 19.64 8.508 2.464 
51 1 18.214 8.508 2.464 
55 1 17.487 8.508 1.228 
17 1 23.447 9.739 2.464 
33 1 23.801 10.322 1.228 
41 1 24.439 11.623 1.228 
15 1 26.502 0.849 2.464 
23 1 25.237 3.392 2.464 
28 1 24.712 4.734 2.464 
31 1 26.149 1.432 1.228 
39 1 25.511 2.733 1.228 
2 1 27.373 17.398 2.464 
6 1 28.175 17.398 1.228 
10 1 29.572 17.398 1.228 
14 1 26.502 16.167 2.464 
22 1 25.237 13.624 2.464 
25 1 24.712 12.282 2.464 
30 1 26.149 15.584 1.228 
38 1 25.511 14.283 1.228 
46 1 30.31 17.398 2.464 
50 1 31.735 17.398 2.464 
54 1 32.462 17.398 1.228 
ITEM: TIMESTEP
10
ITEM: NUMBER OF ATOMS
57
ITEM: BOX BOUNDS pp pp pp
0.0000000000000000e+00 3.2808000000000000e+01
0.0000000000000000e+00 1.7780000000000001e+01
0.0000000000000000e+00 2.4729999999999999e+00
ITEM: ATOMS id type x y z 
13 1 7.04564 0.766603 2.45029 
29 1 7.3977 1.3864 1.22066 
37 1 8.05078 2.72694 1.22746 
57 2 5.28576 0.8128 0.917675 
1 1 6.21031 17.3379 2.38946 
5 1 5.41286 17.445 1.21942 
9 1 3.96753 17.3118 1.2457 
16 1 7.01659 16.2311 2.46267 
32 1 7.40512 15.6224 1.22524 
40 1 8.06058 14.277 1.22774 
45 1 3.27546 17.3949 2.47479 
49 1 1.77021 17.3984 2.46462 
53 1 1.0592 17.398 1.22787 
4 1 10.9735 8.51018 2.46424 
8 1 11.8019 8.50821 1.22768 
12 1 13.2044 8.50799 1.22774 
18 1 10.0685 7.29053 2.46429 
21 1 8.31302 3.39009 2.46414 
26 1 8.82238 4.72276 2.46427 
34 1 9.71317 6.67753 1.22775 
42 1 9.0898 5.40575 1.22772 
48 1 13.9063 8.508 2.46428 
52 1 15.32 8.508 2.46427 
56 1 16.0517 8.508 1.22772 
19 1 10.0677 9.72767 2.46429 
24 1 8.31606 13.6203 2.46426 
27 1 8.82881 12.2754 2.46427 
35 1 9.71094 10.3435 1.22775 
43 1 9.09574 11.5987 1.22772 
3 1 22.5745 8.508 2.46424 
7 1 21.7451 8.508 1.22768 
11 1 20.3432 8.508 1.22774 
20 1 23.4792 7.28441 2.46429 
36 1 23.8365 6.66902 1.22775 
44 1 24.4437 5.42772 1.22772 
47 1 19.6415 8.508 2.46428 
51 1 18.2264 8.508 2.46427 
55 1 17.4904 8.508 1.22772 
17 1 23.4792 9.73159 2.46429 
33 1 23.8365 10.347 1.22775 
41 1 24.4437 11.5883 1.22772 
15 1 26.4683 0.84203 2.46429 
23 1 25.2386 3.37013 2.46427 
28 1 24.7102 4.75617 2.46427 
31 1 26.111 1.46143 1.22775 
39 1 25.506 2.69903 1.22772 
2 1 27.3718 17.398 2.46424 
6 1 28.2072 17.398 1.22768 
10 1 29.6071 17.398 1.22774 
14 1 26.4683 16.174 2.46429 
22 1 25.2386 13.6459 2.46427 
25 1 24.7102 12.2598 2.46427 
30 1 26.111 15.5546 1.22775 
38 1 25.506 14.317 1.22772 
46 1 30.2921 17.398 2.46428 
50 1 31.7596 17.398 2.46427 
54 1 32.5065 17.398 1.22773 
ITEM: TIMESTEP
20
ITEM: NUMBER OF ATOMS
57
ITEM: BOX BOUNDS pp pp pp
0.0000000000000000e+00 3.2808000000000000e+01
0.0000000000000000e+00 1.7780000000000001e+01
0.0000000000000000e+00 2.4729999999999999e+00
ITEM: ATOMS id type x y z 
13 1 7.0773 0.734215 2.44321 
29 1 7.42063 1.35792 1.21009 
37 1 8.05508 2.69745 1.22678 
57 2 5.29155 0.825092 0.919121 
1 1 6.20581 17.3731 2.42122 
5 1 5.41275 17.5241 1.20348 
9 1 3.9597 17.2464 1.24915 
16 1 7.00998 16.2346 2.45685 
32 1 7.42296 15.6494 1.22101 
40 1 8.07122 14.3052 1.22756 
45 1 3.26641 17.3826 2.48199 
49 1 1.77372 17.4038 2.46533 
53 1 1.0541 17.3987 1.22863 
4 1 10.9809 8.49992 2.46423 
8 1 11.7906 8.50767 1.22772 
12 1 13.2123 8.50783 1.22775 
18 1 10.0568 7.29674 2.46426 
21 1 8.31048 3.36616 2.46348 
26 1 8.82287 4.74537 2.46421 
34 1 9.69792 6.69022 1.22776 
42 1 9.0814 5.43508 1.22773 
48 1 13.924 8.50795 2.46426 
52 1 15.297 8.508 2.46425 
56 1 16.0433 8.508 1.22775 
19 1 10.0526 9.72303 2.46427 
24 1 8.31999 13.6306 2.46402 
27 1 8.82677 12.2554 2.46425 
35 1 9.69234 10.3349 1.22776 
43 1 9.09098 11.5626 1.22774 
3 1 22.5728 8.508 2.46423 
7 1 21.7628 8.508 1.22772 
11 1 20.3428 8.508 1.22775 
20 1 23.4937 7.28988 2.46427 
36 1 23.8526 6.67872 1.22776 
44 1 24.4573 5.43538 1.22774 
47 1 19.6262 8.508 2.46426 
51 1 18.2457 8.508 2.46425 
55 1 17.5014 8.508 1.22775 
17 1 23.4937 9.72612 2.46427 
33 1 23.8526 10.3373 1.22776 
41 1 24.4573 11.5806 1.22774 
15 1 26.4513 0.837237 2.46427 
23 1 25.2316 3.36746 2.46425 
28 1 24.7163 4.76079 2.46425 
31 1 26.0949 1.45161 1.22776 
39 1 25.4923 2.69183 1.22774 
2 1 27.3634 17.398 2.46423 
6 1 28.1925 17.398 1.22772 
10 1 29.5889 17.398 1.22775 
14 1 26.4513 16.1788 2.46427 
22 1 25.2316 13.6485 2.46425 
25 1 24.7163 12.2552 2.46425 
30 1 26.0949 15.5644 1.22776 
38 1 25.4923 14.3242 1.22774 
46 1 30.3021 17.398 2.46426 
50 1 31.7751 17.398 2.46431 
54 1 32.5187 17.398 1.22782 
ITEM: TIMESTEP
30
ITEM: NUMBER OF ATOMS
57
ITEM: BOX BOUNDS pp pp pp
0.0000000000000000e+00 3.2808000000000000e+01
0.0000000000000000e+00 1.7780000000000001e+01
0.0000000000000000e+00 2.4729999999999999e+00
ITEM: ATOMS id type x y z 
13 1 7.14581 0.71836 2.4356 
29 1 7.48346 1.34202 1.2025 
37 1 8.082 2.71089 1.22537 
57 2 5.30318 0.916494 0.914167 
1 1 6.22621 17.371 2.42892 
5 1 5.37629 17.6026 1.2083 
9 1 3.93248 17.1213 1.2537 
16 1 7.00259 16.2083 2.454 
32 1 7.46153 15.6454 1.2167 
40 1 8.09861 14.3057 1.22685 
45 1 3.26308 17.3508 2.49364 
49 1 1.83992 17.4201 2.46765 
53 1 1.04676 17.4016 1.22965 
4 1 10.9722 8.50765 2.46422 
8 1 11.7833 8.50718 1.22776 
12 1 13.2037 8.50813 1.22776 
18 1 10.0377 7.29018 2.46423 
21 1 8.32107 3.36944 2.4615 
26 1 8.80327 4.73235 2.46408 
34 1 9.66595 6.69559 1.22776 
42 1 9.06035 5.44957 1.22763 
48 1 13.9371 8.50788 2.46424 
52 1 15.3039 8.50799 2.46424 
56 1 16.035 8.50801 1.22776 
19 1 10.0455 9.71012 2.46424 
24 1 8.32464 13.6532 2.46319 
27 1 8.80821 12.2647 2.4642 
35 1 9.66775 10.3154 1.22777 
43 1 9.05713 11.5709 1.22773 
3 1 22.5746 8.508 2.46422 
7 1 21.7706 8.508 1.22776 
11 1 20.3503 8.508 1.22776 
20 1 23.5113 7.29439 2.46424 
36 1 23.8802 6.69361 1.22777 
44 1 24.4799 5.44939 1.22777 
47 1 19.6062 8.508 2.46424 
51 1 18.2419 8.508 2.46425 
55 1 17.5105 8.508 1.22776 
17 1 23.5113 9.72161 2.46424 
33 1 23.8802 10.3224 1.22777 
41 1 24.4799 11.5666 1.22777 
15 1 26.4254 0.835102 2.46424 
23 1 25.2169 3.36944 2.46423 
28 1 24.729 4.76403 2.46423 
31 1 26.0646 1.44056 1.22777 
39 1 25.4674 2.68404 1.22777 
2 1 27.3506 17.398 2.46422 
6 1 28.1814 17.398 1.22776 
10 1 29.5744 17.398 1.22777 
14 1 26.4254 16.1809 2.46424 
22 1 25.2169 13.6466 2.46423 
25 1 24.729 12.252 2.46423 
30 1 26.0646 15.5754 1.22777 
38 1 25.4674 14.332 1.22777 
46 1 30.3046 17.398 2.46425 
50 1 31.7734 17.3978 2.46453 
54 1 32.5173 17.3974 1.22811 
ITEM: TIMESTEP
40
ITEM: NUMBER OF ATOMS
57
ITEM: BOX BOUNDS pp pp pp
0.0000000000000000e+00 3.2808000000000000e+01
0.0000000000000000e+00 1.7780000000000001e+01
0.0000000000000000e+00 2.4729999999999999e+00
ITEM: ATOMS id type x y z 
13 1 7.17702 0.690233 2.43474 
29 1 7.52324 1.33163 1.19938 
37 1 8.09139 2.69232 1.22359 
57 2 5.29975 0.946444 0.92149 
1 1 6.21774 17.3844 2.43045 
5 1 5.34963 17.6537 1.2036 
9 1 3.95912 17.0788 1.25804 
16 1 6.98148 16.2024 2.45191 
32 1 7.47608 15.6527 1.21647 
40 1 8.11083 14.3328 1.22603 
45 1 3.28397 17.302 2.49257 
49 1 1.81629 17.4366 2.46853 
53 1 1.08175 17.4082 1.23144 
4 1 10.971 8.5038 2.46425 
8 1 11.7683 8.50542 1.22773 
12 1 13.1982 8.50821 1.22775 
18 1 10.0355 7.29873 2.46424 
21 1 8.32303 3.36225 2.46066 
26 1 8.80027 4.75549 2.46388 
34 1 9.64809 6.70173 1.22771 
42 1 9.03798 5.44938 1.22749 
48 1 13.9391 8.50801 2.46426 
52 1 15.2973 8.50799 2.46425 
56 1 16.0373 8.50802 1.22775 
19 1 10.0322 9.71677 2.46426 
24 1 8.33694 13.6469 2.46276 
27 1 8.79813 12.2611 2.46413 
35 1 9.65067 10.307 1.22774 
43 1 9.04032 11.561 1.22766 
3 1 22.5803 8.508 2.46425 
7 1 21.793 8.508 1.22773 
11 1 20.3551 8.508 1.22775 
20 1 23.5188 7.29805 2.46426 
36 1 23.8998 6.70068 1.22774 
44 1 24.4994 5.45315 1.22774 
47 1 19.5923 8.508 2.46426 
51 1 18.2462 8.508 2.46425 
55 1 17.5045 8.50801 1.22775 
17 1 23.5188 9.71795 2.46426 
33 1 23.8998 10.3153 1.22774 
41 1 24.4994 11.5628 1.22774 
15 1 26.4194 0.826886 2.46426 
23 1 25.2091 3.36322 2.46426 
28 1 24.7369 4.77047 2.46426 
31 1 26.046 1.43158 1.22774 
39 1 25.4483 2.68196 1.22774 
2 1 27.3499 17.398 2.46426 
6 1 28.1757 17.398 1.22773 
10 1 29.5694 17.398 1.22777 
14 1 26.4194 16.1891 2.46426 
22 1 25.2091 13.6528 2.46426 
25 1 24.7369 12.2455 2.46426 
30 1 26.046 15.5844 1.22774 
38 1 25.4483 14.334 1.22774 
46 1 30.305 17.3979 2.46428 
50 1 31.7716 17.3972 2.46481 
54 1 32.5132 17.3968 1.22838 
ITEM: TIMESTEP
50
ITEM: NUMBER OF ATOMS
57
ITEM: BOX BOUNDS pp pp pp
0.0000000000000000e+00 3.2808000000000000e+01
0.0000000000000000e+00 1.7780000000000001e+01
0.0000000000000000e+00 2.4729999999999999e+00
ITEM: ATOMS id type x y z 
13 1 7.20911 0.674143 2.43395 
29 1 7.56047 1.31279 1.19872 
37 1 8.10449 2.68232 1.22225 
57 2 5.28811 0.986165 0.928262 
1 1 6.21614 17.3917 2.42965 
5 1 5.33688 17.683 1.20395 
9 1 3.96309 17.0596 1.25587 
16 1 6.95752 16.1859 2.45128 
32 1 7.479 15.657 1.21533 
40 1 8.12825 14.3445 1.22532 
45 1 3.28338 17.2428 2.49366 
49 1 1.84808 17.4426 2.46984 
53 1 1.09161 17.4201 1.23244 
4 1 10.9603 8.50695 2.46424 
8 1 11.7513 8.50583 1.22774 
12 1 13.1804 8.5084 1.22775 
18 1 10.0229 7.29556 2.46419 
21 1 8.32627 3.36034 2.45904 
26 1 8.78502 4.75356 2.46362 
34 1 9.63002 6.70898 1.22768 
42 1 9.01683 5.45393 1.22725 
48 1 13.9523 8.50821 2.46425 
52 1 15.3016 8.50802 2.46425 
56 1 16.0354 8.50801 1.22775 
19 1 10.0228 9.71664 2.46423 
24 1 8.34397 13.6628 2.46206 
27 1 8.78301 12.2682 2.46401 
35 1 9.63106 10.3031 1.22773 
43 1 9.0157 11.5639 1.22757 
3 1 22.5863 8.508 2.46425 
7 1 21.7952 8.508 1.22775 
11 1 20.3629 8.508 1.22775 
20 1 23.5284 7.29866 2.46425 
36 1 23.9191 6.71031 1.22775 
44 1 24.5207 5.46019 1.22775 
47 1 19.5964 8.508 2.46425 
51 1 18.2442 8.508 2.46425 
55 1 17.5087 8.508 1.22775 
17 1 23.5284 9.71734 2.46425 
33 1 23.9191 10.3057 1.22775 
41 1 24.5207 11.5558 1.22775 
15 1 26.4136 0.824754 2.46425 
23 1 25.1983 3.36046 2.46425 
28 1 24.7486 4.77151 2.46425 
31 1 26.0298 1.4173 1.22775 
39 1 25.4299 2.67145 1.22775 
2 1 27.3481 17.398 2.46425 
6 1 28.1773 17.3981 1.22775 
10 1 29.5742 17.3981 1.22781 
14 1 26.4136 16.1912 2.46425 
22 1 25.1983 13.6555 2.46425 
25 1 24.7486 12.2445 2.46425 
30 1 26.0298 15.5987 1.22775 
38 1 25.4299 14.3445 1.22775 
46 1 30.3143 17.3976 2.46432 
50 1 31.7726 17.3956 2.46519 
54 1 32.5116 17.3975 1.22879 
ITEM: TIMESTEP
60
ITEM: NUMBER OF ATOMS
57
ITEM: BOX BOUNDS pp pp pp
0.0000000000000000e+00 3.2808000000000000e+01
0.0000000000000000e+00 1.7780000000000001e+01
0.0000000000000000e+00 2.4729999999999999e+00
ITEM: ATOMS id type x y z 
13 1 7.37228 0.594836 2.43263 
29 1 7.76892 1.2322 1.19692 
37 1 8.17733 2.60763 1.21335 
57 2 5.21533 1.17784 0.983624 
1 1 6.21601 17.4309 2.43015 
5 1 5.32196 17.8283 1.18804 
9 1 4.02666 16.9639 1.24992 
16 1 6.82838 16.1145 2.44652 
32 1 7.45015 15.6667 1.21077 
40 1 8.21667 14.4411 1.22102 
45 1 3.28072 16.9368 2.48497 
49 1 1.90765 17.4455 2.47615 
53 1 1.17745 17.4958 1.23912 
4 1 10.8946 8.52509 2.4642 
8 1 11.7177 8.51138 1.2277 
12 1 13.1087 8.50855 1.22775 
18 1 9.9696 7.31453 2.46388 
21 1 8.33917 3.33524 2.45116 
26 1 8.68928 4.73409 2.46164 
34 1 9.53993 6.76101 1.22734 
42 1 8.88076 5.44987 1.22552 
48 1 13.8709 8.50922 2.46425 
52 1 15.3132 8.5082 2.46425 
56 1 16.0445 8.5079 1.22775 
19 1 9.96161 9.72165 2.46412 
24 1 8.40217 13.7228 2.45806 
27 1 8.69794 12.2997 2.46315 
35 1 9.52823 10.2844 1.22759 
43 1 8.88085 11.5826 1.22681 
3 1 22.6231 8.508 2.46425 
7 1 21.8242 8.508 1.22775 
11 1 20.4006 8.508 1.22775 
20 1 23.5747 7.31051 2.46425 
36 1 24.0268 6.76598 1.22775 
44 1 24.6552 5.49227 1.22775 
47 1 19.6318 8.50799 2.46425 
51 1 18.2461 8.508 2.46425 
55 1 17.5041 8.50797 1.22775 
17 1 23.5747 9.70549 2.46425 
33 1 24.0268 10.25 1.22775 
41 1 24.6552 11.5237 1.22775 
15 1 26.4014 0.798653 2.46425 
23 1 25.1316 3.34392 2.46425 
28 1 24.824 4.77145 2.46425 
31 1 25.9418 1.33498 1.22775 
39 1 25.3063 2.62791 1.22775 
2 1 27.3762 17.398 2.46428 
6 1 28.1922 17.3985 1.22779 
10 1 29.5966 17.3982 1.2281 
14 1 26.4015 16.2173 2.46425 
22 1 25.1316 13.6721 2.46425 
25 1 24.824 12.2446 2.46425 
30 1 25.9419 15.6811 1.22775 
38 1 25.3063 14.3881 1.22775 
46 1 30.346 17.3938 2.4647 
50 1 31.7938 17.3861 2.46746 
54 1 32.5369 17.413 1.2313 
ITEM: TIMESTEP
70
ITEM: NUMBER OF ATOMS
57
ITEM: BOX BOUNDS pp pp pp
0.0000000000000000e+00 3.2808000000000000e+01
0.0000000000000000e+00 1.7780000000000001e+01
0.0000000000000000e+00 2.4729999999999999e+00
ITEM: ATOMS id type x y z 
13 1 7.38896 0.589598 2.43225 
29 1 7.8046 1.21382 1.19719 
37 1 8.21688 2.59685 1.21213 
57 2 5.15709 1.156 1.03805 
1 1 6.23739 17.4427 2.42107 
5 1 5.31966 17.8394 1.17394 
9 1 4.0322 16.9948 1.23949 
16 1 6.79161 16.1086 2.44529 
32 1 7.38475 15.6246 1.21025 
40 1 8.22484 14.4596 1.2198 
45 1 3.31792 16.9333 2.47488 
49 1 1.92857 17.3711 2.47576 
53 1 1.19937 17.5129 1.23904 
4 1 10.8733 8.52715 2.46411 
8 1 11.701 8.52268 1.22762 
12 1 13.0854 8.50809 1.22774 
18 1 9.93542 7.3138 2.46355 
21 1 8.34368 3.33241 2.44961 
26 1 8.65098 4.73982 2.46003 
34 1 9.52317 6.74976 1.22701 
42 1 8.85179 5.4565 1.22395 
48 1 13.8359 8.50797 2.46424 
52 1 15.2907 8.50816 2.46425 
56 1 16.0211 8.50784 1.22775 
19 1 9.92885 9.73181 2.46397 
24 1 8.43341 13.7414 2.45678 
27 1 8.68327 12.3092 2.46243 
35 1 9.5137 10.2915 1.22745 
43 1 8.84651 11.5932 1.22603 
3 1 22.6364 8.50803 2.46425 
7 1 21.8177 8.508 1.22775 
11 1 20.4129 8.508 1.22775 
20 1 23.5873 7.31276 2.46425 
36 1 24.0575 6.78246 1.22775 
44 1 24.7341 5.4874 1.22775 
47 1 19.6413 8.50801 2.46425 
51 1 18.2126 8.508 2.46425 
55 1 17.4728 8.50788 1.22775 
17 1 23.5873 9.70324 2.46425 
33 1 24.0575 10.2335 1.22775 
41 1 24.7342 11.5289 1.22775 
15 1 26.4173 0.790125 2.46426 
23 1 25.1006 3.32842 2.46425 
28 1 24.8676 4.75315 2.46425 
31 1 25.9326 1.30807 1.22776 
39 1 25.2438 2.60349 1.22775 
2 1 27.3971 17.398 2.46433 
6 1 28.2232 17.3994 1.22787 
10 1 29.618 17.3964 1.22854 
14 1 26.4177 16.2258 2.46426 
22 1 25.1007 13.6877 2.46425 
25 1 24.8676 12.263 2.46425 
30 1 25.9329 15.7079 1.22776 
38 1 25.244 14.4128 1.22775 
46 1 30.3742 17.3862 2.46513 
50 1 31.8207 17.3905 2.46836 
54 1 32.5622 17.4444 1.23205 
ITEM: TIMESTEP
80
ITEM: NUMBER OF ATOMS
57
ITEM: BOX BOUNDS pp pp pp
0.0000000000000000e+00 3.2808000000000000e+01
0.0000000000000000e+00 1.7780000000000001e+01
0.0000000000000000e+00 2.4729999999999999e+00
ITEM: ATOMS id type x y z 
13 1 7.40274 0.588694 2.4314 
29 1 7.81757 1.2072 1.19613 
37 1 8.2312 2.59538 1.21159 
57 2 5.13881 1.17034 1.05669 
1 1 6.24098 17.4513 2.41919 
5 1 5.3274 17.8442 1.17222 
9 1 4.04643 16.9917 1.23546 
16 1 6.78296 16.0978 2.4443 
32 1 7.3621 15.6139 1.2091 
40 1 8.22617 14.4592 1.21934 
45 1 3.31706 16.924 2.47235 
49 1 1.92051 17.3578 2.47523 
53 1 1.199 17.5054 1.23856 
4 1 10.8624 8.52806 2.46405 
8 1 11.6857 8.52472 1.22757 
12 1 13.0859 8.50889 1.22772 
18 1 9.93023 7.31785 2.46338 
21 1 8.34688 3.32871 2.44909 
26 1 8.63841 4.74744 2.45946 
34 1 9.51905 6.75122 1.22677 
42 1 8.84236 5.45949 1.22337 
48 1 13.8442 8.50699 2.46423 
52 1 15.2863 8.50784 2.46425 
56 1 16.0308 8.50788 1.22775 
19 1 9.92256 9.73003 2.46388 
24 1 8.44586 13.7408 2.45636 
27 1 8.67926 12.3172 2.46206 
35 1 9.50624 10.2945 1.22734 
43 1 8.84091 11.5918 1.22577 
3 1 22.6437 8.50808 2.46425 
7 1 21.823 8.50803 1.22775 
11 1 20.422 8.508 1.22775 
20 1 23.6002 7.31692 2.46425 
36 1 24.0507 6.77683 1.22775 
44 1 24.7288 5.48499 1.22775 
47 1 19.6631 8.50801 2.46425 
51 1 18.2231 8.50798 2.46425 
55 1 17.4768 8.50789 1.22775 
17 1 23.6003 9.69918 2.46425 
33 1 24.0507 10.2393 1.22775 
41 1 24.7288 11.5312 1.22775 
15 1 26.4107 0.78953 2.46427 
23 1 25.0912 3.32436 2.46425 
28 1 24.8778 4.75947 2.46425 
31 1 25.9397 1.31603 1.22776 
39 1 25.248 2.60091 1.22775 
2 1 27.3954 17.3982 2.46437 
6 1 28.2127 17.3994 1.22792 
10 1 29.6148 17.3939 1.22871 
14 1 26.4113 16.2263 2.46427 
22 1 25.0913 13.6918 2.46425 
25 1 24.8778 12.2567 2.46425 
30 1 25.9402 15.7 1.22776 
38 1 25.2483 14.4153 1.22775 
46 1 30.3716 17.3842 2.46537 
50 1 31.8157 17.3981 2.46854 
54 1 32.5563 17.4551 1.23238 
ITEM: TIMESTEP
90
ITEM: NUMBER OF ATOMS
57
ITEM: BOX BOUNDS pp pp pp
0.0000000000000000e+00 3.2808000000000000e+01
0.0000000000000000e+00 1.7780000000000001e+01
0.0000000000000000e+00 2.4729999999999999e+00
ITEM: ATOMS id type x y z 
13 1 7.42037 0.59189 2.42912 
29 1 7.8407 1.20726 1.19368 
37 1 8.25571 2.59459 1.21016 
57 2 5.11021 1.1754 1.09888 
1 1 6.25078 17.4672 2.4174 
5 1 5.33728 17.8586 1.17192 
9 1 4.05832 16.998 1.22744 
16 1 6.77409 16.1025 2.44108 
32 1 7.31568 15.5832 1.20585 
40 1 8.21197 14.4531 1.218 
45 1 3.32631 16.9236 2.46486 
49 1 1.91957 17.321 2.4733 
53 1 1.1995 17.4734 1.23691 
4 1 10.8614 8.52889 2.46386 
8 1 11.6814 8.52703 1.2274 
12 1 13.0845 8.51103 1.22769 
18 1 9.92474 7.32245 2.46278 
21 1 8.35939 3.33066 2.44762 
26 1 8.61692 4.7543 2.4581 
34 1 9.51288 6.75178 1.22615 
42 1 8.83157 5.46669 1.22195 
48 1 13.8493 8.50608 2.46419 
52 1 15.2843 8.50664 2.46424 
56 1 16.0327 8.50778 1.22774 
19 1 9.91527 9.72411 2.46359 
24 1 8.46285 13.7429 2.45508 
27 1 8.68156 12.3211 2.46128 
35 1 9.49859 10.2935 1.22703 
43 1 8.84264 11.589 1.22503 
3 1 22.6426 8.50815 2.46425 
7 1 21.8262 8.50811 1.22775 
11 1 20.4217 8.50802 1.22775 
20 1 23.6085 7.32202 2.46425 
36 1 24.0481 6.77385 1.22775 
44 1 24.7351 5.48331 1.22775 
47 1 19.6635 8.508 2.46425 
51 1 18.2233 8.50796 2.46425 
55 1 17.4774 8.50802 1.22775 
17 1 23.6086 9.69422 2.46425 
33 1 24.0482 10.2425 1.22775 
41 1 24.735 11.5331 1.22775 
15 1 26.4126 0.791793 2.4643 
23 1 25.0763 3.32198 2.46425 
28 1 24.8918 4.76276 2.46425 
31 1 25.9474 1.32344 1.22779 
39 1 25.2366 2.60131 1.22776 
2 1 27.3938 17.3986 2.46451 
6 1 28.2121 17.3981 1.22808 
10 1 29.6151 17.387 1.22918 
14 1 26.4135 16.2241 2.4643 
22 1 25.0766 13.6944 2.46425 
25 1 24.8917 12.2536 2.46425 
30 1 25.9485 15.6926 1.22779 
38 1 25.2372 14.415 1.22776 
46 1 30.3701 17.3826 2.46586 
50 1 31.8158 17.4222 2.46903 
54 1 32.5561 17.4756 1.23279 
ITEM: TIMESTEP
100
ITEM: NUMBER OF ATOMS
57
ITEM: BOX BOUNDS pp pp pp
0.0000000000000000e+00 3.2808000000000000e+01
0.0000000000000000e+00 1.7780000000000001e+01
0.0000000000000000e+00 2.4729999999999999e+00
ITEM: ATOMS id type x y z 
13 1 7.42601 0.593305 2.42852 
29 1 7.84833 1.20603 1.19307 
37 1 8.26466 2.59468 1.20944 
57 2 5.10465 1.18435 1.11118 
1 1 6.25316 17.472 2.41802 
5 1 5.33606 17.8568 1.17359 
9 1 4.05952 17 1.2252 
16 1 6.76793 16.105 2.43997 
32 1 7.30206 15.577 1.2048 
40 1 8.20522 14.4493 1.21737 
45 1 3.32991 16.9253 2.46225 
49 1 1.91794 17.3069 2.4724 
53 1 1.19891 17.4599 1.23604 
4 1 10.8629 8.52796 2.46375 
8 1 11.6844 8.5274 1.2273 
12 1 13.0854 8.51149 1.22766 
18 1 9.9235 7.3215 2.46253 
21 1 8.36324 3.33014 2.44706 
26 1 8.61234 4.7581 2.45751 
34 1 9.51177 6.75502 1.22586 
42 1 8.82444 5.46709 1.2215 
48 1 13.8443 8.5062 2.46417 
52 1 15.2861 8.50628 2.46424 
56 1 16.0324 8.50754 1.22774 
19 1 9.91254 9.72401 2.46346 
24 1 8.46437 13.7474 2.45447 
27 1 8.68605 12.318 2.46097 
35 1 9.49761 10.2896 1.22688 
43 1 8.84155 11.5926 1.22473 
3 1 22.6455 8.50819 2.46425 
7 1 21.8262 8.50814 1.22775 
11 1 20.4245 8.50802 1.22775 
20 1 23.6102 7.32095 2.46425 
36 1 24.0487 6.77192 1.22775 
44 1 24.7346 5.48409 1.22775 
47 1 19.6649 8.50799 2.46425 
51 1 18.2239 8.508 2.46425 
55 1 17.4771 8.50806 1.22775 
17 1 23.6103 9.69535 2.46425 
33 1 24.0487 10.2444 1.22775 
41 1 24.7344 11.5323 1.22775 
15 1 26.4113 0.794003 2.46432 
23 1 25.0738 3.32203 2.46426 
28 1 24.8936 4.76011 2.46425 
31 1 25.9512 1.32609 1.22781 
39 1 25.2383 2.59901 1.22776 
2 1 27.3937 17.3987 2.46457 
6 1 28.2105 17.397 1.22815 
10 1 29.6136 17.385 1.22935 
14 1 26.4121 16.2221 2.46432 
22 1 25.0741 13.6943 2.46426 
25 1 24.8936 12.2563 2.46425 
30 1 25.9524 15.6899 1.22781 
38 1 25.239 14.4172 1.22776 
46 1 30.3714 17.3843 2.46603 
50 1 31.8138 17.4314 2.46909 
54 1 32.5551 17.4801 1.23283 
ITEM: TIMESTEP
110
ITEM: NUMBER OF ATOMS
57
ITEM: BOX BOUNDS pp pp pp
0.0000000000000000e+00 3.2808000000000000e+01
0.0000000000000000e+00 1.7780000000000001e+01
0.0000000000000000e+00 2.4729999999999999e+00
ITEM: ATOMS id type x y z 
13 1 7.43774 0.599237 2.42798 
29 1 7.86782 1.20631 1.19221 
37 1 8.28888 2.59498 1.20742 
57 2 5.09564 1.1958 1.14362 
1 1 6.25792 17.4896 2.42136 
5 1 5.33947 17.8661 1.18034 
9 1 4.06375 17.0119 1.21867 
16 1 6.75526 16.1112 2.43755 
32 1 7.26392 15.5625 1.20211 
40 1 8.17577 14.4386 1.21519 
45 1 3.33969 16.9281 2.45574 
49 1 1.91682 17.2619 2.46914 
53 1 1.19697 17.4174 1.23297 
4 1 10.8625 8.52516 2.46334 
8 1 11.6881 8.52776 1.22691 
12 1 13.0848 8.51295 1.22754 
18 1 9.92062 7.31858 2.46161 
21 1 8.37747 3.33073 2.44504 
26 1 8.60052 4.76426 2.45579 
34 1 9.50527 6.75722 1.22488 
42 1 8.80927 5.47521 1.21985 
48 1 13.8412 8.50691 2.46406 
52 1 15.2873 8.50533 2.46421 
56 1 16.032 8.5066 1.22772 
19 1 9.90721 9.72006 2.46294 
24 1 8.4601 13.7492 2.45231 
27 1 8.70006 12.3208 2.45983 
35 1 9.49449 10.2846 1.22633 
43 1 8.85053 11.5944 1.22364 
3 1 22.6465 8.50808 2.46425 
7 1 21.8265 8.50813 1.22775 
11 1 20.4263 8.50804 1.22775 
20 1 23.6108 7.32085 2.46425 
36 1 24.0485 6.77126 1.22775 
44 1 24.7368 5.48329 1.22775 
47 1 19.6684 8.50804 2.46425 
51 1 18.2249 8.50815 2.46425 
55 1 17.4768 8.508 1.22775 
17 1 23.6108 9.69534 2.46425 
33 1 24.0485 10.2449 1.22775 
41 1 24.7367 11.5329 1.22775 
15 1 26.4146 0.798685 2.4644 
23 1 25.0682 3.3209 2.46427 
28 1 24.895 4.76007 2.46425 
31 1 25.9589 1.33107 1.22788 
39 1 25.2364 2.59793 1.22778 
2 1 27.395 17.3987 2.46479 
6 1 28.2102 17.3929 1.2284 
10 1 29.6148 17.3822 1.22981 
14 1 26.4142 16.2179 2.4644 
22 1 25.0684 13.6952 2.46427 
25 1 24.8949 12.2561 2.46425 
30 1 25.9593 15.685 1.22788 
38 1 25.2368 14.4181 1.22778 
46 1 30.3728 17.3928 2.46648 
50 1 31.8134 17.4572 2.46894 
54 1 32.5586 17.4908 1.23259 
ITEM: TIMESTEP
120
ITEM: NUMBER OF ATOMS
57
ITEM: BOX BOUNDS pp pp pp
0.0000000000000000e+00 3.2808000000000000e+01
0.0000000000000000e+00 1.7780000000000001e+01
0.0000000000000000e+00 2.4729999999999999e+00
ITEM: ATOMS id type x y z 
13 1 7.44573 0.604365 2.42863 
29 1 7.87817 1.20718 1.19269 
37 1 8.30272 2.5943 1.20638 
57 2 5.09431 1.20209 1.15875 
1 1 6.26078 17.4969 2.42441 
5 1 5.34604 17.881 1.18466 
9 1 4.0739 17.0197 1.21562 
16 1 6.74718 16.1158 2.43695 
32 1 7.24504 15.5558 1.20127 
40 1 8.15382 14.4316 1.2138 
45 1 3.34428 16.9235 2.45292 
49 1 1.91546 17.2334 2.46687 
53 1 1.1977 17.3923 1.23097 
4 1 10.8628 8.52385 2.46298 
8 1 11.6834 8.52713 1.22659 
12 1 13.0859 8.51376 1.22742 
18 1 9.92088 7.31952 2.46092 
21 1 8.38745 3.33389 2.44386 
26 1 8.59438 4.76462 2.45469 
34 1 9.50093 6.75795 1.22419 
42 1 8.79952 5.47782 1.21871 
48 1 13.8459 8.50757 2.46396 
52 1 15.2861 8.50494 2.46418 
56 1 16.031 8.50597 1.22769 
19 1 9.90702 9.71438 2.46251 
24 1 8.45025 13.7468 2.45092 
27 1 8.70882 12.3243 2.45897 
35 1 9.49376 10.2846 1.2259 
43 1 8.86081 11.5962 1.22281 
3 1 22.6468 8.50784 2.46425 
7 1 21.8272 8.508 1.22775 
11 1 20.425 8.50807 1.22775 
20 1 23.6114 7.32029 2.46425 
36 1 24.0485 6.77065 1.22775 
44 1 24.736 5.4845 1.22776 
47 1 19.6648 8.50814 2.46425 
51 1 18.2251 8.50821 2.46424 
55 1 17.4774 8.50782 1.22774 
17 1 23.6113 9.69561 2.46425 
33 1 24.0484 10.2452 1.22775 
41 1 24.7361 11.5312 1.22776 
15 1 26.4196 0.798242 2.46448 
23 1 25.0664 3.32058 2.46429 
28 1 24.8944 4.75842 2.46426 
31 1 25.9633 1.33297 1.22795 
39 1 25.2356 2.59921 1.2278 
2 1 27.3923 17.3982 2.46493 
6 1 28.2111 17.3907 1.22855 
10 1 29.6131 17.3837 1.23001 
14 1 26.4176 16.2186 2.46448 
22 1 25.0664 13.6951 2.46429 
25 1 24.8945 12.2573 2.46426 
30 1 25.9623 15.6831 1.22795 
38 1 25.2353 14.4165 1.2278 
46 1 30.3706 17.4005 2.46664 
50 1 31.8142 17.4708 2.46855 
54 1 32.5553 17.4951 1.23207 
ITEM: TIMESTEP
130
ITEM: NUMBER OF ATOMS
57
ITEM: BOX BOUNDS pp pp pp
0.0000000000000000e+00 3.2808000000000000e+01
0.0000000000000000e+00 1.7780000000000001e+01
0.0000000000000000e+00 2.4729999999999999e+00
ITEM: ATOMS id type x y z 
13 1 7.44544 0.603913 2.42864 
29 1 7.87837 1.20729 1.19271 
37 1 8.30287 2.59427 1.20637 
57 2 5.09427 1.20244 1.15889 
1 1 6.26277 17.4957 2.42444 
5 1 5.34594 17.8821 1.18472 
9 1 4.07254 17.019 1.21564 
16 1 6.74767 16.1161 2.43694 
32 1 7.24392 15.5568 1.20127 
40 1 8.15322 14.4323 1.21378 
45 1 3.34418 16.9235 2.45287 
49 1 1.91502 17.2331 2.46685 
53 1 1.19751 17.3919 1.23094 
4 1 10.8629 8.52385 2.46298 
8 1 11.6834 8.52711 1.22659 
12 1 13.0856 8.51377 1.22742 
18 1 9.92083 7.31946 2.46092 
21 1 8.38745 3.3331 2.44384 
26 1 8.59441 4.76535 2.45468 
34 1 9.5008 6.75779 1.22418 
42 1 8.79959 5.47821 1.2187 
48 1 13.8454 8.50758 2.46396 
52 1 15.286 8.50493 2.46418 
56 1 16.0321 8.50596 1.22769 
19 1 9.90703 9.71432 2.4625 
24 1 8.45027 13.7466 2.4509 
27 1 8.70901 12.3239 2.45896 
35 1 9.49398 10.2842 1.22589 
43 1 8.86085 11.5964 1.2228 
3 1 22.6464 8.50784 2.46425 
7 1 21.8272 8.508 1.22775 
11 1 20.4253 8.50807 1.22775 
20 1 23.6114 7.32029 2.46425 
36 1 24.0486 6.77041 1.22775 
44 1 24.736 5.48434 1.22776 
47 1 19.6649 8.50814 2.46425 
51 1 18.2246 8.50821 2.46424 
55 1 17.4777 8.50782 1.22774 
17 1 23.6112 9.6956 2.46425 
33 1 24.0485 10.2454 1.22775 
41 1 24.736 11.5314 1.22776 
15 1 26.4196 0.798468 2.46448 
23 1 25.0664 3.32051 2.46429 
28 1 24.8943 4.75904 2.46426 
31 1 25.9629 1.33351 1.22795 
39 1 25.2357 2.59901 1.2278 
2 1 27.3931 17.3982 2.46493 
6 1 28.2113 17.3907 1.22855 
10 1 29.6138 17.3838 1.23001 
14 1 26.4175 16.2184 2.46448 
22 1 25.0664 13.6952 2.46429 
25 1 24.8943 12.2567 2.46426 
30 1 25.9619 15.6826 1.22795 
38 1 25.2353 14.4167 1.2278 
46 1 30.3708 17.4007 2.46664 
50 1 31.8139 17.4709 2.46854 
54 1 32.5556 17.495 1.23207 
ITEM: TIMESTEP
140
ITEM: NUMBER OF ATOMS
57
ITEM: BOX BOUNDS pp pp pp
0.0000000000000000e+00 3.2808000000000000e+01
0.0000000000000000e+00 1.7780000000000001e+01
0.0000000000000000e+00 2.4729999999999999e+00
ITEM: ATOMS id type x y z 
13 1 7.44543 0.603898 2.42864 
29 1 7.87838 1.2073 1.19271 
37 1 8.30288 2.59427 1.20637 
57 2 5.09427 1.20245 1.1589 
1 1 6.26278 17.4957 2.42444 
5 1 5.34594 17.8821 1.18472 
9 1 4.07253 17.019 1.21563 
16 1 6.74766 16.1161 2.43694 
32 1 7.24391 15.5568 1.20127 
40 1 8.1532 14.4323 1.21378 
45 1 3.34418 16.9236 2.45287 
49 1 1.915 17.2331 2.46684 
53 1 1.1975 17.3919 1.23093 
4 1 10.8629 8.52385 2.46298 
8 1 11.6834 8.52711 1.22659 
12 1 13.0856 8.51377 1.22742 
18 1 9.92083 7.31945 2.46092 
21 1 8.38745 3.33307 2.44384 
26 1 8.59441 4.76538 2.45468 
34 1 9.50079 6.75779 1.22418 
42 1 8.79959 5.47823 1.2187 
48 1 13.8454 8.50758 2.46396 
52 1 15.286 8.50493 2.46418 
56 1 16.0321 8.50596 1.22769 
19 1 9.90703 9.71431 2.4625 
24 1 8.45026 13.7466 2.4509 
27 1 8.70902 12.3239 2.45895 
35 1 9.49399 10.2842 1.22589 
43 1 8.86085 11.5964 1.2228 
3 1 22.6464 8.50784 2.46425 
7 1 21.8272 8.508 1.22775 
11 1 20.4253 8.50807 1.22775 
20 1 23.6114 7.3203 2.46425 
36 1 24.0486 6.77041 1.22775 
44 1 24.736 5.48434 1.22776 
47 1 19.6649 8.50814 2.46425 
51 1 18.2246 8.50821 2.46424 
55 1 17.4777 8.50782 1.22774 
17 1 23.6112 9.6956 2.46425 
33 1 24.0485 10.2454 1.22775 
41 1 24.736 11.5314 1.22776 
15 1 26.4196 0.798476 2.46448 
23 1 25.0664 3.32051 2.46429 
28 1 24.8943 4.75906 2.46426 
31 1 25.9629 1.33352 1.22795 
39 1 25.2357 2.599 1.2278 
2 1 27.3931 17.3982 2.46493 
6 1 28.2113 17.3907 1.22855 
10 1 29.6138 17.3838 1.23001 
14 1 26.4175 16.2184 2.46448 
22 1 25.0663 13.6952 2.46429 
25 1 24.8943 12.2567 2.46426 
30 1 25.9619 15.6826 1.22795 
38 1 25.2353 14.4167 1.2278 
46 1 30.3709 17.4007 2.46664 
50 1 31.8139 17.4709 2.46854 
54 1 32.5556 17.495 1.23207 
ITEM: TIMESTEP
150
ITEM: NUMBER OF ATOMS
57
ITEM: BOX BOUNDS pp pp pp
0.0000000000000000e+00 3.2808000000000000e+01
0.0000000000000000e+00 1.7780000000000001e+01
0.0000000000000000e+00 2.4729999999999999e+00
ITEM: ATOMS id type x y z 
13 1 7.44494 0.60228 2.42901 
29 1 7.88226 1.20802 1.19308 
37 1 8.30724 2.59381 1.20607 
57 2 5.09433 1.2071 1.16256 
1 1 6.26465 17.5 2.42534 
5 1 5.34487 17.8814 1.18611 
9 1 4.0697 17.0227 1.21517 
16 1 6.74446 16.1193 2.43689 
32 1 7.23826 15.5556 1.20129 
40 1 8.14549 14.4316 1.21334 
45 1 3.34559 16.9249 2.45201 
49 1 1.91165 17.2252 2.46625 
53 1 1.19661 17.3824 1.23016 
4 1 10.8637 8.52204 2.46285 
8 1 11.684 8.52654 1.22646 
12 1 13.0858 8.51398 1.22737 
18 1 9.92009 7.31835 2.46069 
21 1 8.38998 3.32994 2.44358 
26 1 8.59297 4.76844 2.45433 
34 1 9.49959 6.7586 1.22393 
42 1 8.79649 5.47951 1.21837 
48 1 13.8448 8.50783 2.46391 
52 1 15.2857 8.50485 2.46417 
56 1 16.0351 8.50578 1.22768 
19 1 9.90659 9.7133 2.46235 
24 1 8.44634 13.7467 2.45054 
27 1 8.71191 12.3234 2.45864 
35 1 9.49521 10.2817 1.22572 
43 1 8.86242 11.6005 1.22252 
3 1 22.645 8.50775 2.46425 
7 1 21.8278 8.50793 1.22775 
11 1 20.4245 8.50808 1.22775 
20 1 23.6108 7.32108 2.46425 
36 1 24.0475 6.77197 1.22775 
44 1 24.7365 5.48266 1.22776 
47 1 19.6672 8.50818 2.46425 
51 1 18.2253 8.50821 2.46424 
55 1 17.476 8.50774 1.22774 
17 1 23.6106 9.69468 2.46425 
33 1 24.0473 10.2437 1.22775 
41 1 24.7366 11.5328 1.22776 
15 1 26.4196 0.800124 2.4645 
23 1 25.0659 3.32 2.4643 
28 1 24.8936 4.76062 2.46426 