LAMMPS (3 Mar 2020)
Reading data file ...
  orthogonal box = (0 0 0) to (32.808 17.78 2.473)
  4 by 2 by 1 MPI processor grid
  reading atoms ...
  57 atoms
  read_data CPU = 0.00825067 secs
WARNING: Changed valency_val to valency_boc for X (../reaxc_ffield.cpp:315)
WARNING: Using 'neigh_modify every 1 delay 0 check yes' setting during minimization (../min.cpp:190)
Neighbor list info ...
  update every 1 steps, delay 0 steps, check yes
  max neighbors/atom: 2000, page size: 100000
  master list distance cutoff = 12
  ghost atom cutoff = 12
  binsize = 6, bins = 6 3 1
  2 neighbor lists, perpetual/occasional/extra = 2 0 0
  (1) pair reax/c, perpetual
      attributes: half, newton off, ghost
      pair build: half/bin/newtoff/ghost
      stencil: half/ghost/bin/3d/newtoff
      bin: standard
  (2) fix qeq/reax, perpetual, copy from (1)
      attributes: half, newton off, ghost
      pair build: copy
      stencil: none
      bin: none
Setting up cg style minimization ...
  Unit style    : real
  Current step  : 0
Per MPI rank memory allocation (min/avg/max) = 28.39 | 28.6 | 28.8 Mbytes
Step Temp E_pair E_mol TotEng Press 
       0            0   -10727.853            0   -10727.853    592275.48 
     160            0   -11109.674            0   -11109.674    122420.46 
Loop time of 30.4797 on 8 procs for 160 steps with 57 atoms

99.8% CPU use with 8 MPI tasks x no OpenMP threads

Minimization stats:
  Stopping criterion = energy tolerance
  Energy initial, next-to-last, final = 
        -10727.8530003      -11109.673787      -11109.673849
  Force two-norm initial, final = 632.218 147.407
  Force max component initial, final = 328.994 64.8982
  Final line search alpha, max atom move = 0.000209394 0.0135893
  Iterations, force evaluations = 160 918

MPI task timing breakdown:
Section |  min time  |  avg time  |  max time  |%varavg| %total
---------------------------------------------------------------
Pair    | 26.252     | 27.055     | 27.614     |   8.6 | 88.76
Neigh   | 0          | 0          | 0          |   0.0 |  0.00
Comm    | 0.25502    | 0.8136     | 1.6151     |  49.3 |  2.67
Output  | 0.0017311  | 0.0024804  | 0.0037066  |   1.2 |  0.01
Modify  | 2.5621     | 2.5628     | 2.5652     |   0.1 |  8.41
Other   |            | 0.04572    |            |       |  0.15

Nlocal:    7.125 ave 11 max 3 min
Histogram: 1 1 2 0 0 0 0 2 0 2
Nghost:    1117.88 ave 1131 max 1105 min
Histogram: 2 1 1 0 0 0 0 2 0 2
Neighs:    1970.62 ave 3023 max 839 min
Histogram: 1 1 2 0 0 0 0 2 0 2

Total # of neighbors = 15765
Ave neighs/atom = 276.579
Neighbor list builds = 0
Dangerous builds = 0
WARNING: Using 'neigh_modify every 1 delay 0 check yes' setting during minimization (../min.cpp:190)
Setting up cg style minimization ...
  Unit style    : real
  Current step  : 160
Per MPI rank memory allocation (min/avg/max) = 28.39 | 28.6 | 28.8 Mbytes
Step Temp E_pair E_mol TotEng Press 
     160            0   -11109.674            0   -11109.674    122420.45 
     356            0   -11131.108            0   -11131.108    101523.33 
Loop time of 39.3021 on 8 procs for 196 steps with 57 atoms

99.9% CPU use with 8 MPI tasks x no OpenMP threads

Minimization stats:
  Stopping criterion = energy tolerance
  Energy initial, next-to-last, final = 
        -11109.6738506     -11131.1082422     -11131.1082896
  Force two-norm initial, final = 147.407 42.4666
  Force max component initial, final = 64.8982 14.3856
  Final line search alpha, max atom move = 0.000434254 0.00624702
  Iterations, force evaluations = 196 1195

MPI task timing breakdown:
Section |  min time  |  avg time  |  max time  |%varavg| %total
---------------------------------------------------------------
Pair    | 33.733     | 34.82      | 35.658     |  10.2 | 88.60
Neigh   | 0          | 0          | 0          |   0.0 |  0.00
Comm    | 0.25239    | 1.0879     | 2.173      |  57.4 |  2.77
Output  | 0.0021642  | 0.0030947  | 0.0046384  |   1.4 |  0.01
Modify  | 3.331      | 3.3323     | 3.3352     |   0.1 |  8.48
Other   |            | 0.05846    |            |       |  0.15

Nlocal:    7.125 ave 12 max 2 min
Histogram: 1 0 1 1 1 0 2 0 0 2
Nghost:    1117.88 ave 1131 max 1106 min
Histogram: 2 1 1 0 0 0 0 2 0 2
Neighs:    1963.25 ave 3303 max 550 min
Histogram: 1 0 1 1 1 1 1 0 0 2

Total # of neighbors = 15706
Ave neighs/atom = 275.544
Neighbor list builds = 0
Dangerous builds = 0
WARNING: Using 'neigh_modify every 1 delay 0 check yes' setting during minimization (../min.cpp:190)
Setting up cg style minimization ...
  Unit style    : real
  Current step  : 356
WARNING: Energy due to 3 extra global DOFs will be included in minimizer energies
Per MPI rank memory allocation (min/avg/max) = 28.39 | 28.6 | 28.8 Mbytes
Step Temp E_pair E_mol TotEng Press Volume 
     356            0   -11131.108            0   -11131.108    101523.34    1442.5658 
    2652            0   -11162.141            0   -11162.141   -440.22474    1466.2443 
Loop time of 112.494 on 8 procs for 2296 steps with 57 atoms

99.8% CPU use with 8 MPI tasks x no OpenMP threads

Minimization stats:
  Stopping criterion = energy tolerance
  Energy initial, next-to-last, final = 
        -11131.1082877      -11162.140953     -11162.1410566
  Force two-norm initial, final = 4025.64 20.7066
  Force max component initial, final = 3416.2 11.5641
  Final line search alpha, max atom move = 6.57263e-06 7.60064e-05
  Iterations, force evaluations = 2296 3550

MPI task timing breakdown:
Section |  min time  |  avg time  |  max time  |%varavg| %total
---------------------------------------------------------------
Pair    | 100.38     | 103.25     | 105.63     |  16.8 | 91.78
Neigh   | 0          | 0          | 0          |   0.0 |  0.00
Comm    | 0.84071    | 3.2199     | 6.0751     |  94.8 |  2.86
Output  | 0.022937   | 0.0287     | 0.042032   |   3.3 |  0.03
Modify  | 5.526      | 5.5284     | 5.5395     |   0.2 |  4.91
Other   |            | 0.4707     |            |       |  0.42

Nlocal:    7.125 ave 12 max 2 min
Histogram: 1 0 2 0 1 0 1 1 0 2
Nghost:    1117.88 ave 1132 max 1105 min
Histogram: 2 1 1 0 0 0 0 2 0 2
Neighs:    1973.5 ave 3320 max 553 min
Histogram: 1 0 2 0 1 1 0 1 0 2

Total # of neighbors = 15788
Ave neighs/atom = 276.982
Neighbor list builds = 0
Dangerous builds = 0
WARNING: Using 'neigh_modify every 1 delay 0 check yes' setting during minimization (../min.cpp:190)
Setting up cg style minimization ...
  Unit style    : real
  Current step  : 2652
Per MPI rank memory allocation (min/avg/max) = 28.39 | 28.6 | 28.8 Mbytes
Step Temp E_pair E_mol TotEng Press 
    2652            0   -11162.141            0   -11162.141   -440.22279 
    2711            0   -11162.924            0   -11162.924    23085.816 
Loop time of 12.0345 on 8 procs for 59 steps with 57 atoms

99.8% CPU use with 8 MPI tasks x no OpenMP threads

Minimization stats:
  Stopping criterion = energy tolerance
  Energy initial, next-to-last, final = 
        -11162.1410562     -11162.9234915     -11162.9235948
  Force two-norm initial, final = 12.606 58.44
  Force max component initial, final = 3.51296 28.1359
  Final line search alpha, max atom move = 0.000426303 0.0119944
  Iterations, force evaluations = 59 368

MPI task timing breakdown:
Section |  min time  |  avg time  |  max time  |%varavg| %total
---------------------------------------------------------------
Pair    | 10.454     | 10.729     | 10.957     |   4.7 | 89.15
Neigh   | 0          | 0          | 0          |   0.0 |  0.00
Comm    | 0.072014   | 0.2994     | 0.57365    |  28.0 |  2.49
Output  | 0.00058371 | 0.00074064 | 0.001142   |   0.0 |  0.01
Modify  | 0.98692    | 0.98745    | 0.98815    |   0.0 |  8.21
Other   |            | 0.01767    |            |       |  0.15

Nlocal:    7.125 ave 12 max 3 min
Histogram: 1 2 1 0 0 0 2 0 1 1
Nghost:    1117.88 ave 1132 max 1105 min
Histogram: 2 1 1 0 0 0 0 2 0 2
Neighs:    1950.25 ave 3281 max 818 min
Histogram: 1 2 1 0 0 0 2 0 1 1

Total # of neighbors = 15602
Ave neighs/atom = 273.719
Neighbor list builds = 0
Dangerous builds = 0
WARNING: Using 'neigh_modify every 1 delay 0 check yes' setting during minimization (../min.cpp:190)
Setting up cg style minimization ...
  Unit style    : real
  Current step  : 2711
WARNING: Energy due to 3 extra global DOFs will be included in minimizer energies
Per MPI rank memory allocation (min/avg/max) = 28.39 | 28.6 | 28.8 Mbytes
Step Temp E_pair E_mol TotEng Press Volume 
    2711            0   -11162.924            0   -11162.924    23085.813    1466.2443 
    2878            0   -11163.751            0   -11163.751   -276.64176     1468.676 
Loop time of 9.05918 on 8 procs for 167 steps with 57 atoms

99.8% CPU use with 8 MPI tasks x no OpenMP threads

Minimization stats:
  Stopping criterion = energy tolerance
  Energy initial, next-to-last, final = 
        -11162.9235956     -11163.7506515     -11163.7507461
  Force two-norm initial, final = 907.554 14.8778
  Force max component initial, final = 737.424 9.35383
  Final line search alpha, max atom move = 4.3935e-06 4.10961e-05
  Iterations, force evaluations = 167 287

MPI task timing breakdown:
Section |  min time  |  avg time  |  max time  |%varavg| %total
---------------------------------------------------------------
Pair    | 8.1518     | 8.3341     | 8.512      |   4.0 | 92.00
Neigh   | 0          | 0          | 0          |   0.0 |  0.00
Comm    | 0.056734   | 0.23419    | 0.41597    |  23.9 |  2.59
Output  | 0.0015463  | 0.0018713  | 0.0028521  |   0.9 |  0.02
Modify  | 0.45143    | 0.45164    | 0.45241    |   0.0 |  4.99
Other   |            | 0.03739    |            |       |  0.41

Nlocal:    7.125 ave 12 max 3 min
Histogram: 1 2 1 0 0 0 2 0 1 1
Nghost:    1117.88 ave 1132 max 1105 min
Histogram: 2 1 1 0 0 0 0 2 0 2
Neighs:    1948.75 ave 3276 max 818 min
Histogram: 1 2 1 0 0 0 2 0 1 1

Total # of neighbors = 15590
Ave neighs/atom = 273.509
Neighbor list builds = 0
Dangerous builds = 0
WARNING: Using 'neigh_modify every 1 delay 0 check yes' setting during minimization (../min.cpp:190)
Setting up cg style minimization ...
  Unit style    : real
  Current step  : 2878
Per MPI rank memory allocation (min/avg/max) = 28.39 | 28.6 | 28.8 Mbytes
Step Temp E_pair E_mol TotEng Press 
    2878            0   -11163.751            0   -11163.751   -276.64194 
    2997            0   -11165.747            0   -11165.747    17214.966 
Loop time of 24.451 on 8 procs for 119 steps with 57 atoms

99.8% CPU use with 8 MPI tasks x no OpenMP threads

Minimization stats:
  Stopping criterion = energy tolerance
  Energy initial, next-to-last, final = 
        -11163.7507461     -11165.7470466     -11165.7471479
  Force two-norm initial, final = 9.80037 17.7144
  Force max component initial, final = 2.61712 9.35181
  Final line search alpha, max atom move = 0.0493271 0.461297
  Iterations, force evaluations = 119 749

MPI task timing breakdown:
Section |  min time  |  avg time  |  max time  |%varavg| %total
---------------------------------------------------------------
Pair    | 21.207     | 21.768     | 22.213     |   6.9 | 89.03
Neigh   | 0          | 0          | 0          |   0.0 |  0.00
Comm    | 0.17607    | 0.61998    | 1.1787     |  40.8 |  2.54
Output  | 0.0011523  | 0.0014651  | 0.0022341  |   0.8 |  0.01
Modify  | 2.024      | 2.025      | 2.0267     |   0.1 |  8.28
Other   |            | 0.03641    |            |       |  0.15

Nlocal:    7.125 ave 12 max 3 min
Histogram: 1 2 1 0 0 0 2 0 1 1
Nghost:    1117.88 ave 1132 max 1105 min
Histogram: 2 1 1 0 0 0 0 2 0 2
Neighs:    1947.25 ave 3273 max 817 min
Histogram: 1 2 1 0 0 0 2 0 1 1

Total # of neighbors = 15578
Ave neighs/atom = 273.298
Neighbor list builds = 0
Dangerous builds = 0
Setting up Verlet run ...
  Unit style    : real
  Current step  : 0
  Time step     : 0.25
Per MPI rank memory allocation (min/avg/max) = 27.26 | 27.48 | 27.68 Mbytes
Step Temp TotEng KinEng PotEng Press 
       0          300    -11115.67    50.077609   -11165.747    18773.621 
     200    193.50858   -11095.546    32.301491   -11127.848    17666.329 
     400    335.20613   -11064.935    55.954405   -11120.889    10784.806 
     600    282.14525   -11059.874    47.097197   -11106.972   -13583.313 
     800    377.78441   -11051.642      63.0618   -11114.704    6095.6851 
    1000    253.01104   -11067.909    42.233959   -11110.143   -23960.016 
    1200    318.74698   -11057.947    53.206956   -11111.154    10136.824 
    1400    305.29325    -11067.48    50.961187   -11118.442   -33052.923 
    1600    352.49951   -11063.629    58.841108    -11122.47    5131.5893 
    1800    246.44517   -11081.703    41.137949    -11122.84    32885.097 
    2000    319.03405   -11065.227    53.254875   -11118.481    83049.792 
    2200    257.80872   -11062.322    43.034814   -11105.357    38474.473 
    2400    335.74588   -11048.373    56.044503   -11104.418    19591.812 
    2600    287.17373     -11061.8     47.93658   -11109.737   -12558.272 
    2800    312.54334   -11062.497     52.17141   -11114.668    -48433.92 
    3000    251.91426   -11079.346    42.050879   -11121.397    2904.4505 
    3200    328.91324   -11068.236    54.903963    -11123.14    -7582.364 
    3400    303.78481   -11072.471    50.709389    -11123.18   -8614.2001 
    3600    307.68156   -11073.415    51.359857   -11124.775    19697.255 
    3800    236.53769   -11066.643     39.48414   -11106.127   -50961.536 
    4000    343.20794   -11058.067     57.29011   -11115.357    3608.6166 
    4200    315.65299     -11065.2    52.690489    -11117.89   -56863.366 
    4400    282.31046   -11072.637    47.124775   -11119.761   -33075.609 
    4600    258.14846   -11080.356    43.091525   -11123.448    9382.4362 
    4800     306.9479   -11072.827     51.23739   -11124.064   -53545.787 
    5000    312.22638   -11071.332    52.118502    -11123.45    27456.372 
    5200    333.14633   -11057.104    55.610571   -11112.715    5585.7115 
    5400    246.19474   -11070.389    41.096146   -11111.485    -7212.518 
    5600     250.6124   -11080.072    41.833566   -11121.906   -11715.468 
    5800    328.04124   -11060.495    54.758402   -11115.253    1326.6548 
    6000    331.96293   -11070.102    55.413032   -11125.516    115386.92 
    6200    267.89069    -11071.84    44.717751   -11116.557   -19908.849 
    6400    284.48631   -11067.201     47.48798   -11114.689    3678.2903 
    6600    278.01749   -11052.987    46.408171   -11099.396    63721.274 
    6800    289.21949   -11056.623    48.278068   -11104.901    40970.051 
    7000    289.60362   -11067.311    48.342189   -11115.653    -57933.39 
    7200    314.68164   -11067.012    52.528347    -11119.54   -23776.962 
    7400    250.29799   -11072.485    41.781083   -11114.267    7982.3253 
    7600    312.01732   -11057.785    52.083604   -11109.868   -80234.068 
    7800    309.58053   -11068.544    51.676842   -11120.221   -7776.3984 
    8000    318.10668   -11070.857    53.100072   -11123.957   -21048.224 
    8200    328.40534   -11058.743     54.81918   -11113.562    -23289.66 
    8400    332.51289   -11068.461    55.504834   -11123.966    608.06236 
    8600    278.41769   -11077.283    46.474974   -11123.758   -17013.783 
    8800    345.48389   -11060.925    57.670023   -11118.595   -3087.4025 
    9000    261.95028   -11075.699    43.726145   -11119.426    38130.865 
    9200    282.00367   -11071.131    47.073565   -11118.205   -31293.977 
    9400    327.46928   -11048.178    54.662928   -11102.841    27240.275 
    9600    337.89184    -11061.64    56.402718   -11118.043    -9511.787 
    9800    273.31704   -11073.806    45.623547   -11119.429   -15791.056 
   10000    304.19315   -11071.648    50.777552   -11122.426   -25721.537 
   10200    289.63745   -11056.083    48.347836   -11104.431    61767.213 
   10400    275.56651   -11069.011    45.999039    -11115.01   -34076.586 
   10600    293.64095   -11065.496    49.016122   -11114.512   -9673.2994 
   10800    318.81745   -11056.372    53.218718   -11109.591    -22330.72 
   11000    296.06507   -11066.735     49.42077   -11116.155    94585.833 
   11200    272.99452   -11076.675    45.569709   -11122.245    41941.463 
   11400    303.59006   -11062.707    50.676881   -11113.384   -901.85625 
   11600    263.45528   -11079.906    43.977367   -11123.883     5203.883 
   11800    245.75066   -11073.669    41.022018   -11114.691   -36261.111 
   12000    305.07558   -11061.671    50.924852   -11112.596   -35684.485 
   12200    334.63129   -11051.373    55.858449   -11107.232   -4696.6797 
   12400    360.19893   -11046.229    60.126338   -11106.356   -10135.631 
   12600    240.77481   -11066.414    40.191423   -11106.606    5213.4102 
   12800    281.33618    -11061.29    46.962144   -11108.252    43472.381 
   13000    327.55291   -11069.566    54.676889   -11124.243   -23714.598 
   13200    304.17106   -11067.532    50.773864   -11118.306   -3296.6924 
   13400    349.33645   -11051.862    58.313113   -11110.175     1200.106 
   13600    262.03475   -11071.898    43.740246   -11115.638     16732.23 
   13800    291.84691   -11061.553    48.716652    -11110.27   -27021.138 
   14000    323.03009   -11053.518    53.921916    -11107.44    44663.462 
   14200    276.57311   -11067.343    46.167066    -11113.51    22874.761 
   14400    291.09109   -11064.513    48.590486   -11113.104    -17795.22 
   14600    259.42143   -11069.322    43.304016   -11112.626     11498.68 
   14800    295.25974   -11072.057    49.286339   -11121.343   -4811.9947 
   15000    336.29782   -11052.912    56.136635   -11109.048     43806.14 
   15200     319.9287   -11059.044    53.404215   -11112.449    1735.9978 
   15400    324.74863   -11064.613    54.208782   -11118.822    82627.981 
   15600    348.01708   -11070.136    58.092878   -11128.229   -24503.485 
   15800    253.71728   -11080.639    42.351849   -11122.991    -6026.828 
   16000    337.10982   -11065.082     56.27218   -11121.354   -23360.291 
   16200    285.96061   -11074.291    47.734079   -11122.025    16507.297 
   16400    360.04246   -11065.224    60.100218   -11125.325   -3556.9319 
   16600    289.47768   -11060.759    48.321167    -11109.08    30938.066 
   16800    252.97286   -11077.831    42.227586   -11120.059     3964.215 
   17000    366.30625   -11056.336    61.145804   -11117.482    34770.818 
   17200    295.41539   -11072.064    49.312321   -11121.377   -7332.8886 
   17400    312.33885   -11076.794    52.137276   -11128.931   -3433.2839 
   17600     389.1556   -11055.792     64.95994   -11120.752   -13379.156 
   17800    243.18102   -11068.508    40.593081   -11109.101   -388.64858 
   18000    306.69865   -11066.089    51.195784   -11117.285   -40947.772 
   18200    274.17497   -11065.535    45.766756   -11111.302    22571.891 
   18400    275.54984   -11071.613    45.996257   -11117.609     32115.47 
   18600    298.28757   -11068.075    49.791761   -11117.867   -52311.531 
   18800     275.1779   -11081.188     45.93417   -11127.122   -30792.464 
   19000    329.89896   -11066.764    55.068504   -11121.833    26294.934 
   19200      304.884   -11055.457    50.892872    -11106.35   -51961.481 
   19400    229.49725   -11066.304    38.308912   -11104.613    30584.936 
   19600    279.71372   -11069.649    46.691314    -11116.34   -27146.899 
   19800    347.77036    -11048.19    58.051693   -11106.242    34353.734 
   20000    305.55229   -11067.841    51.004427   -11118.845    7379.0973 
   20200    288.54181   -11073.132    48.164946   -11121.297    -74136.68 
   20400    319.53008   -11054.656    53.337674   -11107.994   -33265.678 
   20600    332.03501   -11061.482    55.425065   -11116.907   -31786.836 
   20800    322.31238   -11067.279    53.802112   -11121.081   -38534.771 
   21000    347.83958   -11066.681    58.063248   -11124.745   -21357.265 
   21200    286.04511   -11065.875    47.748184   -11113.623    23233.423 
   21400       290.96   -11082.009    48.568603   -11130.578   -3241.8264 
   21600    301.14034   -11071.652    50.267961    -11121.92   -32238.111 
   21800    270.24055   -11070.112    45.110002   -11115.222   -14426.067 
   22000    318.74961    -11056.62    53.207394   -11109.827    58635.127 
   22200    306.97983   -11066.453     51.24272   -11117.695    21054.354 
   22400    319.64076   -11067.526     53.35615   -11120.882    102629.17 
   22600    298.05591   -11069.499    49.753092   -11119.253    7573.9992 
   22800     278.1013   -11069.497    46.422161   -11115.919   -11708.188 
   23000    291.83313   -11076.432    48.714352   -11125.147   -15575.093 
   23200    282.13055   -11066.769    47.094744   -11113.864    9132.5839 
   23400    328.57876   -11061.054    54.848128   -11115.902   -6296.2765 
   23600    277.79322   -11078.558    46.370733   -11124.928   -20714.803 
   23800    286.02423   -11068.486    47.744699    -11116.23    74225.305 
   24000    342.77805    -11062.97    57.218351   -11120.189     71030.07 
   24200    251.56988   -11075.113    41.993393   -11117.106    12681.458 
   24400    204.58384   -11087.029    34.150232   -11121.179     33640.55 
   24600    251.95841   -11068.526    42.058248   -11110.584   -7601.1662 
   24800    337.98258   -11053.551    56.417865   -11109.969   -43633.084 
   25000    296.24967   -11071.898    49.451584    -11121.35    30658.403 
   25200    355.13328   -11062.742    59.280752   -11122.023    41778.339 
   25400    304.20627   -11066.512    50.779741   -11117.291    37262.585 
   25600    250.31541   -11076.804     41.78399   -11118.588    11891.739 
   25800    322.56276   -11062.852    53.843906   -11116.696    -32141.73 
   26000    339.03206   -11054.169    56.593049   -11110.762   -51573.419 
   26200    271.52537   -11073.118    45.324471   -11118.442    28466.158 
   26400     322.3895   -11058.726    53.814984   -11112.541   -40546.773 
   26600    309.93495   -11055.933    51.736004   -11107.669    7503.0473 
   26800    262.26773   -11070.164    43.779136   -11113.943    60428.313 
   27000    241.10872   -11068.773    40.247161   -11109.021   -14675.329 
   27200    314.81708   -11053.192    52.550955   -11105.743   -13156.026 
   27400    281.22226   -11070.548    46.943128   -11117.491   -10756.272 
   27600    284.47357   -11062.934    47.485854    -11110.42   -966.25302 
   27800    314.44277   -11061.011    52.488474     -11113.5    -65692.37 
   28000    330.67936    -11062.95    55.198772   -11118.149   -20923.421 
   28200    317.13623   -11049.314     52.93808   -11102.252    63189.419 
   28400    316.53096   -11064.673    52.837046    -11117.51    41117.296 
   28600     269.3957   -11071.442    44.968975    -11116.41    44594.678 
   28800    326.67355   -11060.348    54.530101   -11114.878    41450.755 
   29000    277.20234   -11068.459    46.272101   -11114.731    14548.802 
   29200    271.04135   -11073.535    45.243675   -11118.778    58622.053 
   29400    337.97595   -11052.478    56.416758   -11108.895   -28013.679 
   29600    302.24551   -11063.561    50.452442   -11114.014    36926.439 
   29800    265.88075   -11075.535    44.382241   -11119.917   -64941.536 
   30000    346.45948   -11061.802    57.832875   -11119.635    8502.3812 
   30200    319.75988   -11068.152    53.376034   -11121.528   -21405.535 
   30400    291.50011    -11074.75    48.658762   -11123.409   -21730.073 
   30600    273.59021   -11068.391    45.669145    -11114.06    45239.031 
   30800    288.96572   -11065.213    48.235708   -11113.449   -4574.4846 
   31000    332.59211   -11062.054    55.518059   -11117.572   -8758.3588 
   31200     377.7427   -11053.869    63.054838   -11116.924   -7258.4108 
   31400    235.03083   -11074.083    39.232607   -11113.316    36194.045 
   31600    311.88039   -11061.374    52.060748   -11113.435    33295.481 
   31800    240.60747   -11060.899     40.16349   -11101.062   -24961.292 
   32000    278.66673   -11062.297    46.516545   -11108.813   -56275.071 
   32200    312.30157   -11066.773    52.131054   -11118.904   -68356.757 
   32400    299.14763   -11070.481    49.935327   -11120.417    -5483.353 
   32600    311.05482   -11056.035    51.922939   -11107.958   -90676.767 
   32800    278.43472   -11072.165    46.477817   -11118.643   -4139.7019 
   33000    286.90699   -11069.733    47.892053   -11117.625   -35482.461 
   33200    302.69196   -11054.337    50.526965   -11104.864   -8840.9881 
   33400    312.52865   -11061.679    52.168957   -11113.848    21594.141 
   33600    293.87396   -11067.654    49.055017   -11116.709   -11524.099 
   33800    290.31554   -11072.296    48.461027   -11120.757   -23096.469 
   34000    333.07762   -11059.234    55.599103   -11114.833    -39328.29 
   34200    255.63415   -11080.388    42.671823    -11123.06    59810.752 
   34400    322.49648   -11069.571    53.832842   -11123.404   -11096.516 
   34600    282.99062   -11072.496    47.238313   -11119.735   -17798.266 
   34800    279.95154    -11081.93    46.731013   -11128.661     12216.09 
   35000    299.30896    -11068.03    49.962258   -11117.992   -55219.999 
   35200    282.71537   -11070.742    47.192365   -11117.935   -50009.511 
   35400    250.95054   -11085.331     41.89001   -11127.221   -13561.762 
   35600     308.6517   -11069.107    51.521797   -11120.629    2955.1078 
   35800    295.53317   -11065.085    49.331981   -11114.417   -20514.638 
   36000    322.95176   -11050.903     53.90884   -11104.812    14330.012 
   36200    261.56284    -11068.31    43.661472   -11111.971   -21893.673 
   36400    295.34443   -11057.426    49.300476   -11106.726   -29393.954 
   36600    319.51629   -11069.076    53.335373   -11122.412   -46216.799 
   36800    306.76739   -11066.519    51.207258   -11117.726    88236.564 
   37000    337.30527   -11061.607    56.304805   -11117.911   -38539.921 
   37200    272.20734    -11076.23    45.438309   -11121.668    45945.436 
   37400    328.83916   -11062.146    54.891596   -11117.038    15922.106 
   37600    359.42078    -11059.81    59.996445   -11119.807    27853.017 
   37800    266.57609   -11077.859    44.498311   -11122.357    20028.709 
   38000    279.33494   -11061.908    46.628086   -11108.536    20409.086 
   38200    338.90275   -11057.434    56.571465   -11114.005   -11509.621 
   38400    276.18287     -11073.7    46.101926   -11119.802      38309.3 
   38600    315.09413   -11060.903    52.597203   -11113.501   -50543.622 
   38800    352.77379    -11045.89    58.886893   -11104.777     74324.58 
   39000    300.59064   -11063.747    50.176202   -11113.923    30373.661 
   39200    331.41481   -11062.562    55.321537   -11117.883    -41423.13 
   39400    319.80236     -11046.2    53.383124   -11099.583    52708.137 
   39600    311.12944   -11062.116    51.935394   -11114.052   -22679.168 
   39800     253.1984   -11071.217    42.265234   -11113.482   -3518.1304 
   40000    260.51198   -11080.914    43.486056     -11124.4   -56380.228 
   40200    285.02223   -11065.288    47.577439   -11112.865   -55335.386 
   40400    252.15228   -11062.849     42.09061   -11104.939    17705.512 
   40600    325.30315   -11051.132    54.301347   -11105.434    -25734.45 
   40800    268.69612   -11071.855    44.852197   -11116.707    65980.734 
   41000      323.997   -11060.816    54.083316   -11114.899    29282.632 
   41200    332.31178    -11075.39    55.471265   -11130.862     26604.57 
   41400     299.4055   -11074.056    49.978372   -11124.034   -56176.703 
   41600    311.58417   -11060.765    52.011301   -11112.777    -35953.06 
   41800    284.21504   -11070.039    47.442699   -11117.481    16817.829 
   42000    247.09711   -11079.843    41.246775    -11121.09    8384.6903 
   42200    339.27057   -11059.019    56.632864   -11115.652   -44059.703 
   42400     250.9444   -11071.798    41.888985   -11113.687   -11615.449 
   42600    320.99997   -11075.828    53.583036   -11129.411    16138.565 
   42800    335.34109   -11064.914    55.976933   -11120.891   -34902.277 
   43000    283.12477   -11066.583    47.260705   -11113.843    2538.1976 
   43200    231.05309   -11074.952    38.568621    -11113.52   -49529.073 
   43400     322.5878   -11061.519    53.848085   -11115.367     61882.35 
   43600    282.11738   -11073.627    47.092545    -11120.72   -32920.082 
   43800    275.11801    -11074.36    45.924173   -11120.284    22987.594 
   44000    353.85333   -11063.335    59.067096   -11122.402    35393.816 
   44200    311.53651   -11079.283    52.003346   -11131.286    22368.481 
   44400    262.93225   -11069.586    43.890061   -11113.476   -14278.636 
   44600     289.2634   -11057.215    48.285399     -11105.5    24906.769 
   44800    311.67626   -11059.754    52.026672   -11111.781    74678.251 
   45000    247.74762   -11067.024    41.355361    -11108.38    23484.019 
   45200     363.4277   -11050.024      60.6653   -11110.689   -32947.057 
   45400    306.92585   -11060.779    51.233709   -11112.013   -15358.685 
   45600    264.46425   -11062.597    44.145791   -11106.742   -3463.9185 
   45800     284.0197   -11058.538    47.410092   -11105.948    40120.716 
   46000    284.64783   -11076.206    47.514942   -11123.721   -18641.216 
   46200    301.04651   -11061.545    50.252298   -11111.797   -7709.6835 
   46400    330.88251   -11058.717    55.232682    -11113.95    3782.1768 
   46600    260.96746   -11076.685    43.562088   -11120.247   -1451.6587 
   46800    282.12661   -11073.317    47.094086   -11120.411   -11914.344 
   47000    268.98174    -11070.84    44.899875    -11115.74    37948.876 
   47200    326.67522   -11062.995    54.530379   -11117.525    5558.3982 
   47400    369.84572   -11053.373    61.736631    -11115.11    43614.812 
   47600    276.81284   -11072.277    46.207084   -11118.484    431.15612 
   47800     303.1486   -11062.804    50.603191   -11113.407    12429.381 
   48000    344.69128   -11059.035    57.537717   -11116.572    31306.787 
   48200     281.1343    -11077.03    46.928445   -11123.959   -24346.935 
   48400    263.51335   -11062.982    43.987062   -11106.969   -13247.369 
   48600    366.77944   -11057.973    61.224791   -11119.197    46115.059 
   48800        321.5   -11074.713    53.666504    -11128.38    31625.908 
   49000    317.67463   -11066.045    53.027952   -11119.073    -16706.24 
   49200    327.84136   -11056.931    54.725037   -11111.656    12004.762 
   49400    276.64974   -11070.915    46.179858   -11117.095    1282.3585 
   49600    323.72893   -11059.766    54.038568   -11113.804    942.56139 
   49800    300.08793   -11066.351    50.092287   -11116.443   -12853.094 
   50000    248.25886   -11071.446    41.440701   -11112.886      2704.07 
   50200    331.37762   -11061.807     55.31533   -11117.122   -6300.5003 
   50400    303.23921   -11065.719    50.618315   -11116.337    36990.279 
   50600    254.21679   -11074.298     42.43523   -11116.733   -61668.164 
   50800     292.7659    -11058.03    48.870054     -11106.9   -53043.514 
   51000    309.24923   -11071.915    51.621539   -11123.537    17546.318 
   51200     292.6386   -11075.649    48.848804   -11124.498    52537.188 
   51400    304.28865   -11063.733    50.793494   -11114.526    46009.734 
   51600    322.73581   -11059.643    53.872792   -11113.516    20420.755 
   51800    262.28205   -11079.445    43.781526   -11123.227    9460.3379 
   52000     254.0885   -11065.685    42.413815   -11108.099    52962.782 
   52200    279.12847    -11061.73    46.593621   -11108.323   -21683.484 
   52400       244.81   -11080.753    40.864998   -11121.618    641.19506 
   52600    338.78582   -11067.465    56.551945   -11124.017   -15838.379 
   52800    258.75426   -11065.568    43.192649    -11108.76    57312.076 
   53000    340.29353   -11052.735    56.803621   -11109.538   -8830.0679 
   53200      324.228   -11054.935    54.121877   -11109.057    -58237.13 
   53400    293.66675   -11067.758    49.020429   -11116.779    25997.026 
   53600    278.04494    -11066.79    46.412753   -11113.203    25688.942 
   53800    283.85213   -11056.783     47.38212   -11104.165   -18857.725 
   54000    334.57543    -11065.04    55.849125   -11120.889     1089.862 
   54200    298.57475   -11075.316    49.839699   -11125.155   -38798.961 
   54400    334.47789   -11058.596    55.832843   -11114.429   -37396.997 
   54600    348.10601   -11059.985    58.107721   -11118.093    27488.528 
   54800    227.56453   -11072.151    37.986292   -11110.137   -13692.441 
   55000    292.24995   -11056.449    48.783928   -11105.233     69816.11 
   55200    304.67119   -11061.206    50.857349   -11112.063    50569.496 
   55400    302.69096   -11068.076    50.526798   -11118.603   -12844.577 
   55600    244.68683   -11083.997    40.844437   -11124.841   -44452.564 
   55800    300.40438   -11070.846    50.145109   -11120.991    -24774.08 
   56000    322.39119   -11063.083    53.815267   -11116.899   -41567.003 
   56200    295.56751   -11059.486    49.337714   -11108.823   -33419.355 
   56400    234.78711    -11078.06    39.191924   -11117.252   -27070.872 
   56600    318.73039   -11066.136    53.204187    -11119.34    30464.901 
   56800      258.352   -11068.908    43.125501   -11112.034   -14300.586 
   57000    389.58968   -11052.654    65.032399   -11117.686    48600.976 
   57200    296.94318   -11069.357    49.567348   -11118.924   -53.096087 
   57400     320.2074   -11066.134    53.450737   -11119.585   -31532.667 
   57600    275.24421   -11062.894     45.94524   -11108.839   -18108.711 
   57800    251.83542   -11078.441     42.03772   -11120.478    37323.999 
   58000    329.69878   -11064.486    55.035088   -11119.521     17147.46 
   58200    354.06356   -11064.689    59.102188   -11123.791    -54841.11 
   58400    244.95625   -11082.167    40.889411   -11123.056    26217.864 
   58600    305.22938   -11070.648    50.950525   -11121.598    3779.5703 
   58800    331.72769   -11059.177    55.373766    -11114.55   -24658.526 
   59000    248.70274   -11074.625    41.514794    -11116.14   -4642.5273 
   59200    244.22709   -11077.659    40.767696   -11118.427    -1824.956 
   59400    346.40424   -11066.311    57.823653   -11124.134    7922.0602 
   59600    282.51492   -11075.949    47.158906   -11123.108    48963.766 
   59800    327.17572   -11059.947    54.613925   -11114.561   -12341.016 
   60000    319.46949   -11062.934    53.327561   -11116.261   -23189.684 
   60200    267.98466   -11071.072    44.733437   -11115.806    25833.304 
   60400    339.37373   -11065.795    56.650082   -11122.445   -34515.716 
   60600    292.70488    -11064.18    48.859869    -11113.04   -28622.779 
   60800    355.40749   -11052.115    59.326524   -11111.441   -24164.634 
   61000    315.82341   -11069.424    52.718937   -11122.143   -3089.1515 
   61200    282.31555   -11066.788    47.125626   -11113.914   -19868.604 
   61400    289.57758   -11048.914    48.337843   -11097.252   -57407.508 
   61600    316.76206   -11067.443    52.875622   -11120.318   -3797.6463 
   61800    290.84494   -11061.095    48.549398   -11109.645     25975.99 
   62000    321.48664   -11052.519    53.664273   -11106.184    52121.992 
   62200    250.29965   -11071.437    41.781359   -11113.218     62257.27 
   62400    301.08445   -11056.375    50.258632   -11106.634    21614.306 
   62600    298.81941   -11063.892    49.880539   -11113.773    17921.906 
   62800     267.1179   -11076.717    44.588753   -11121.306    14938.147 
   63000     305.2211   -11059.134    50.949142   -11110.084   -5217.8038 
   63200    287.95901   -11061.885    48.067663   -11109.953     27514.26 
   63400    234.29758   -11079.911    39.110209   -11119.021   -996.60011 
   63600    294.33216   -11069.391    49.131502   -11118.523    24173.052 
   63800    304.26027   -11057.105    50.788757   -11107.894    6356.7203 
   64000    315.17922   -11061.795    52.611405   -11114.406   -54933.619 
   64200    273.74623    -11071.92    45.695188   -11117.615    26270.007 
   64400    321.15998   -11059.699    53.609747   -11113.309    -55229.06 
   64600    346.53263   -11062.227    57.845084   -11120.072    5517.6956 
   64800    316.41352   -11062.947    52.817441   -11115.765    48733.508 
   65000    242.10748   -11070.873    40.413878   -11111.287    46832.031 
   65200    298.82119   -11076.254    49.880835   -11126.135   -155.02854 
   65400    312.42261   -11059.231    52.151258   -11111.383    4860.2162 
   65600    277.61161   -11069.526    46.340419   -11115.867    52937.363 
   65800    231.03011    -11084.37    38.564786   -11122.935   -34742.442 
   66000    285.77298    -11076.02    47.702758   -11123.723    12541.124 
   66200    299.78007   -11064.025    50.040896   -11114.066    13359.446 
   66400    316.78759   -11058.587    52.879884   -11111.467    -47317.26 
   66600    252.95384   -11076.653    42.224411   -11118.877   -20757.859 
   66800    298.49998   -11064.111    49.827217   -11113.938      40969.6 
   67000    238.34962   -11075.031    39.786596   -11114.817    31774.706 
   67200    354.61012   -11074.012    59.193424   -11133.205    1254.7016 
   67400    333.44626   -11062.315    55.660639   -11117.976   -48874.351 
   67600    309.47342   -11073.953    51.658963   -11125.612    22780.303 
   67800    218.14489   -11078.305    36.413914   -11114.719    21407.594 
   68000    288.48932   -11065.434    48.156184    -11113.59   -26010.199 
   68200    299.32112   -11074.607    49.964286   -11124.571   -11052.404 
   68400    280.54871   -11083.912    46.830695   -11130.743    3276.7234 
   68600    312.73821   -11061.051    52.203938   -11113.255    -27946.96 
   68800    357.74724   -11058.536    59.717088   -11118.253   -44741.815 
   69000    245.21095   -11072.086    40.931926   -11113.018   -3010.6816 
   69200     293.3825   -11059.772    48.972981   -11108.745   -9469.4517 
   69400    394.67988   -11040.971    65.882083   -11106.853    20309.873 
   69600    301.61847   -11062.189    50.347773   -11112.537   -30911.444 
   69800     226.1613   -11072.869    37.752056   -11110.621    28214.719 
   70000    318.83454   -11052.986    53.221571   -11106.207    13758.912 
   70200    306.24163   -11062.467    51.119495   -11113.586   -21712.143 
   70400    247.81897   -11075.555    41.367272   -11116.923    4242.3201 
   70600    349.08034   -11051.649    58.270362    -11109.92     114824.9 
   70800    355.42429   -11061.944    59.329329   -11121.273    4594.4009 
   71000      269.948   -11077.334    45.061167   -11122.396    27575.319 
   71200    272.30603   -11063.049    45.454783   -11108.504   -22226.327 
   71400    295.00851   -11065.429    49.244402   -11114.673   -16314.761 
   71600    252.23584   -11081.791    42.104559   -11123.896   -19703.955 
   71800    342.64034   -11074.081    57.195363   -11131.276   -25481.482 
   72000    322.35755   -11062.747    53.809651   -11116.557    -32388.44 
   72200    292.51687   -11076.523    48.828484   -11125.351    28741.169 
   72400    278.44681   -11074.875    46.479834   -11121.355    31553.253 
   72600    335.96058    -11065.27    56.080342    -11121.35    7055.5363 
   72800    310.98496   -11066.822    51.911277   -11118.733    42805.505 
   73000    376.74111    -11056.51    62.887647   -11119.398    13151.257 
   73200    271.03802   -11069.568     45.24312   -11114.811   -33785.246 
   73400    275.20308   -11074.749    45.938375   -11120.688    69299.899 
   73600    312.26767   -11055.713    52.125394   -11107.839    8675.9065 
   73800    286.63788   -11071.547    47.847133   -11119.394   -26905.139 
   74000    311.33857   -11063.203    51.970304   -11115.174   -9633.5595 
   74200    315.68335    -11052.74    52.695557   -11105.435    16562.014 
   74400    271.50477   -11066.542    45.321032   -11111.863    40686.734 
   74600    362.11723   -11057.704     60.44655   -11118.151    49540.828 
   74800    313.35391   -11061.101    52.306716   -11113.408   -23884.225 
   75000    268.43553   -11074.443    44.808699   -11119.252   -20862.267 
   75200    345.44721   -11054.433    57.663901   -11112.097   -4236.6264 
   75400    280.93432   -11059.625    46.895064    -11106.52   -14713.617 
   75600    229.66893   -11078.342     38.33757    -11116.68    -3581.141 
   75800     308.1695   -11072.107    51.441306   -11123.548   -7234.0394 
   76000    291.64101    -11061.57    48.682281   -11110.252     5105.288 
   76200    349.14463   -11052.272    58.281094   -11110.553     47684.99 
   76400    295.99214   -11067.337    49.408595   -11116.746    37908.701 
   76600    309.20028   -11061.034    51.613369   -11112.648    3400.6351 
   76800    282.14785   -11068.725    47.097632   -11115.823   -4394.2414 
   77000    278.65295   -11070.087    46.514245   -11116.601    36982.096 
   77200    308.72771   -11064.394    51.534486   -11115.929   -2520.8614 
   77400    256.96836   -11066.187    42.894536   -11109.082    4164.4736 
   77600    371.70012   -11038.733    62.046178   -11100.779   -42982.499 
   77800     322.0115   -11056.591    53.751886   -11110.343   -1239.9785 
   78000    272.43228   -11072.946    45.475858   -11118.422   -5735.4955 
   78200    333.26782    -11059.58    55.630851   -11115.211    47286.249 
   78400     350.0913   -11065.648    58.439116   -11124.087   -53725.598 
   78600     265.3182   -11071.731    44.288336    -11116.02    41781.967 
   78800    297.99128   -11065.614    49.742302   -11115.357    30714.223 
   79000     280.3669   -11067.747    46.800346   -11114.547    30401.345 
   79200    310.02271    -11062.94    51.750653   -11114.691    2023.8727 
   79400     314.0409   -11073.603     52.42139   -11126.024   -183.90028 
   79600    326.58188    -11066.02    54.514798   -11120.535   -24275.438 
   79800    338.43055   -11060.021    56.492642   -11116.514   -17313.043 
   80000    268.47641   -11078.165    44.815521   -11122.981    36568.577 
   80200    327.24326   -11067.394    54.625201   -11122.019    8756.8244 
   80400    290.25915   -11068.376    48.451614   -11116.828    22265.539 
   80600     339.1504   -11066.181    56.612804   -11122.794   -68444.154 
   80800    319.47924   -11078.283    53.329188   -11131.612   -25029.079 
   81000    226.82308   -11075.195    37.862524   -11113.057    -966.6433 
   81200    343.95071   -11068.441    57.414097   -11125.855    22432.982 
   81400    272.76638    -11072.67    45.531626   -11118.201    1897.2087 
   81600    312.97884   -11053.707    52.244106   -11105.951    12399.741 
   81800    332.62133   -11070.019    55.522936   -11125.542    21402.364 
   82000    282.16637   -11069.553    47.100723   -11116.653    7572.4258 
   82200    335.44988   -11061.856    55.995093   -11117.851   -46247.553 
   82400    304.91182   -11052.906    50.897517   -11103.804   -6809.8106 
   82600     292.3727   -11070.593    48.804418   -11119.397   -12635.713 
   82800    323.64975   -11065.038    54.025352   -11119.063    33113.884 
   83000    328.24618   -11056.317    54.792613    -11111.11   -18948.849 
   83200     329.9482   -11070.927    55.076723   -11126.004   -17281.371 
   83400    279.08624    -11071.21    46.586572   -11117.797    33833.284 
   83600    348.62362    -11053.87    58.194124   -11112.064    -27739.12 
   83800    258.96171   -11070.447    43.227278   -11113.674   -20231.695 
   84000    285.08868   -11066.721    47.588531    -11114.31   -946.39288 
   84200    354.60141   -11058.876    59.191969   -11118.068   -11547.073 
   84400    253.31457   -11072.252    42.284626   -11114.536   -19536.035 
   84600    325.10947   -11064.363    54.269017   -11118.632   -7406.7009 
   84800    339.00695   -11052.228    56.588858   -11108.817    49567.917 
   85000    312.57305   -11066.084    52.176371   -11118.261    24161.934 
   85200    361.97996   -11057.279    60.423636   -11117.702    -1060.483 
   85400     311.0905   -11075.131    51.928895   -11127.059   -37523.458 
   85600    296.03865   -11069.462    49.416359   -11118.878   -9290.1412 
   85800    276.80124   -11065.679    46.205148   -11111.884   -38431.968 
   86000    327.56341   -11062.758    54.678641   -11117.437    25545.104 
   86200    285.52358   -11065.445    47.661127   -11113.106    11631.944 
   86400    236.60886   -11078.056    39.496019   -11117.552    17381.774 
   86600    287.30056   -11060.172    47.957751    -11108.13     8468.482 
   86800    316.73136    -11066.91    52.870497    -11119.78   -22079.427 
   87000    311.46088   -11059.647    51.990721   -11111.638    30841.438 
   87200     352.9495   -11051.763    58.916223   -11110.679    51942.918 
   87400    286.24408   -11068.188    47.781397   -11115.969    4918.9833 
   87600    277.09863   -11059.407    46.254789   -11105.662   -23903.898 
   87800    331.82657   -11055.364    55.390271   -11110.754    26604.103 
   88000     248.9785   -11061.152    41.560827   -11102.713   -19261.765 
   88200    280.40902    -11063.55    46.807377   -11110.357   -28815.512 
   88400    299.80472   -11072.242    50.045011   -11122.287   -9879.6144 
   88600    324.37201   -11052.457    54.145915   -11106.603    70018.505 
   88800    285.66074   -11068.498    47.684023   -11116.182    25417.523 
   89000     277.6768   -11064.192      46.3513   -11110.543    55354.684 
   89200    331.65361   -11047.732      55.3614   -11103.093     24432.86 
   89400    330.79616   -11059.532    55.218269    -11114.75    14449.193 
   89600    282.61469   -11072.503    47.175559   -11119.678   -3109.7799 
   89800    340.43397   -11060.983    56.827065    -11117.81   -25466.343 
   90000    342.79455   -11053.874    57.221105   -11111.095   -22563.446 
   90200    295.86612   -11074.097    49.387559   -11123.485    -6401.394 
   90400    279.24598   -11071.412    46.613236   -11118.025    26046.681 
   90600    305.01888   -11061.308    50.915388   -11112.224   -17749.828 
   90800    335.26342   -11069.736    55.963968     -11125.7   -15735.232 
   91000    310.74241   -11066.501    51.870789   -11118.372   -2034.3519 
   91200     268.6239    -11070.95    44.840143    -11115.79   -6912.8855 
   91400    252.73568   -11076.001    42.187995   -11118.189    1747.8137 
   91600    333.03387   -11060.902    55.591799   -11116.493    40454.779 
   91800    266.23224   -11076.803    44.440913   -11121.244    19549.262 
   92000    246.28197   -11085.908    41.110707   -11127.018   -15953.899 
   92200    255.83994   -11067.915    42.706175   -11110.621    25753.647 
   92400    263.31451   -11064.182     43.95387   -11108.136     47624.82 
   92600     288.3999    -11079.69    48.141257   -11127.831   -23094.144 
   92800    353.38655   -11062.034    58.989177   -11121.023   -61495.572 
   93000    340.36699   -11065.438    56.815884   -11122.254   -37009.392 
   93200    251.25252   -11077.047    41.940418   -11118.987   -45523.499 
   93400    310.82937   -11055.063    51.885305   -11106.948    54555.324 
   93600    303.73899   -11067.333    50.701742   -11118.034    330.10426 
   93800    283.78458   -11072.252    47.370844   -11119.623   -13408.469 
   94000    345.11012   -11044.461    57.607632   -11102.069   -53984.445 
   94200    343.91301   -11048.022    57.407805    -11105.43   -21533.924 
   94400    302.00634   -11066.541    50.412518   -11116.954    9387.7049 
   94600    300.46811   -11065.456    50.155749   -11115.612    90160.648 
   94800     288.2769   -11052.265    48.120726   -11100.386   -54881.626 
   95000    255.59445   -11069.355    42.665197    -11112.02    66843.853 
   95200    309.19492    -11060.77    51.612475   -11112.382    20824.526 
   95400    337.57721   -11046.006    56.350198   -11102.356   -42024.107 
   95600    291.03008   -11067.651    48.580302   -11116.231   -11407.099 
   95800    286.67482   -11070.922    47.853298   -11118.775    27026.079 
   96000    342.80515   -11057.151    57.222875   -11114.373   -6651.0451 
   96200    262.88152   -11074.288    43.881594   -11118.169   -12626.323 
   96400    296.13952   -11068.675    49.433196   -11118.109    9586.9152 
   96600    367.64782   -11051.254    61.369746   -11112.624    -10541.68 
   96800    283.32401    -11069.71    47.293963   -11117.004   -1657.6173 
   97000    307.04382   -11071.912    51.253401   -11123.165   -6354.5138 
   97200    354.60061   -11054.177    59.191835   -11113.369    40417.748 
   97400    295.85724   -11068.102    49.386076   -11117.488   -10765.408 
   97600    297.43389   -11069.889     49.64926   -11119.538   -46164.208 
   97800    375.77074   -11064.091    62.725667   -11126.817    47766.235 
   98000    331.98773   -11060.348    55.417173   -11115.766    46657.519 
   98200    237.25779   -11071.667    39.604342   -11111.271   -16247.183 
   98400    340.73445   -11061.502    56.877221   -11118.379   -1836.3149 
   98600    259.28194   -11070.811    43.280732   -11114.092    45949.037 
   98800    283.75724   -11065.499     47.36628   -11112.866    16962.392 
   99000    281.13744    -11056.21    46.928969   -11103.139    -17431.66 
   99200    340.90035   -11053.951    56.904915   -11110.856    30446.051 
   99400     288.2644   -11067.077    48.118639   -11115.195    36224.406 
   99600     274.9053   -11065.252    45.888666   -11111.141   -24159.714 
   99800    279.75033   -11064.835    46.697425   -11111.533     -10825.3 
  100000    328.83676   -11055.002    54.891195   -11109.893    24283.688 
  100200     309.3782   -11071.888    51.643068   -11123.531   -15769.894 
  100400    318.71691   -11062.287    53.201935   -11115.489    37874.444 
  100600    330.80175   -11045.362    55.219203   -11100.581   -48481.103 
  100800    287.67541   -11059.397    48.020322   -11107.417   -3865.5302 
  101000    263.53457   -11071.559    43.990604   -11115.549    21422.682 
  101200    272.13765   -11081.942    45.426676   -11127.368   -26397.417 
  101400    275.32345   -11067.644    45.958467   -11113.602    6593.8687 
  101600     339.8878   -11057.198    56.735894   -11113.934    71809.748 
  101800    286.98032   -11073.564    47.904294   -11121.469   -46785.369 
  102000     281.2702   -11071.387     46.95113   -11118.339   -5361.1836 
  102200    331.72715   -11058.207    55.373675   -11113.581    44056.637 
  102400    367.13247   -11043.719    61.283721   -11105.003    19347.394 
  102600    321.70462   -11064.339    53.700661    -11118.04    10423.191 
  102800    269.84777   -11072.405    45.044436    -11117.45   -17960.487 
  103000    326.20963   -11054.915    54.452661   -11109.368   -35667.841 
  103200    352.59438   -11064.635    58.856945   -11123.492    -2398.109 
  103400     262.2556   -11067.754    43.777111   -11111.531    36514.557 
  103600     356.8084   -11060.825    59.560371   -11120.385   -12591.002 
  103800    294.16101   -11079.011    49.102933   -11128.114    -7477.535 
  104000    294.91516   -11062.992     49.22882   -11112.221   -25340.331 
  104200    302.33941    -11068.09    50.468115   -11118.558    12323.668 
  104400     261.5526   -11078.555    43.659763   -11122.215   -38750.364 
  104600     263.9845   -11084.109    44.065708   -11128.175    -558.1262 
  104800    308.69844   -11064.291    51.529599   -11115.821   -11229.997 
  105000    314.77706   -11065.813    52.544276   -11118.357    23088.494 
  105200    260.64663   -11081.512    43.508533   -11125.021   -25985.702 
  105400    274.81748   -11061.878    45.874008   -11107.752   -13812.536 
  105600    268.11273   -11065.734    44.754815   -11110.489    46008.084 
  105800     259.8074   -11078.395    43.368444   -11121.763    348.28246 
  106000     296.0052   -11058.423    49.410776   -11107.834    5129.3971 
  106200    313.62681   -11072.421    52.352269   -11124.773     3449.337 
  106400    328.76682    -11067.88    54.879522    -11122.76   -6155.8588 
  106600    310.19185   -11055.739    51.778888   -11107.518   -4372.6644 
  106800    273.19023   -11072.448    45.602379    -11118.05   -16128.716 
  107000    345.34402   -11060.018    57.646676   -11117.665    25531.688 
  107200    317.75658   -11053.146    53.041632   -11106.188   -31845.813 
  107400    284.44132   -11068.742     47.48047   -11116.222    -33066.49 
  107600    243.90338   -11077.729     40.71366   -11118.443    11310.669 
  107800    302.03199   -11059.018      50.4168   -11109.435    55248.782 
  108000    291.55499   -11071.737    48.667922   -11120.405   -37829.107 
  108200     260.1622   -11071.443    43.427669   -11114.871    33588.122 
  108400    327.50458   -11068.174    54.668821   -11122.843    56887.786 
  108600    345.39736   -11060.841     57.65558   -11118.497    9996.9635 
  108800     345.7121   -11055.371    57.708118   -11113.079    46639.695 
  109000    292.49169   -11067.748    48.824281   -11116.572    -32887.38 
  109200    268.61145   -11060.533    44.838063   -11105.372    -33838.68 
  109400    323.79651   -11052.296     54.04985   -11106.346   -34691.859 
  109600    296.42305   -11069.268    49.480526   -11118.748    -1743.534 
  109800    330.70603   -11066.917    55.203225    -11122.12     61202.08 
  110000    371.10672   -11051.166    61.947124   -11113.113   -13752.601 
  110200     278.8231   -11067.742    46.542647   -11114.285    -6764.515 
  110400    289.25357   -11070.931    48.283758   -11119.214     162.0031 
  110600     355.3373   -11060.445    59.314808    -11119.76     4744.884 
  110800    354.70341    -11055.85    59.208996   -11115.059    46613.263 
  111000    262.99178   -11074.958    43.899999   -11118.858   -40183.784 
  111200    294.96343   -11058.844    49.236878   -11108.081   -14993.334 
  111400    296.36189   -11061.683    49.470315   -11111.154   -29705.383 
  111600    302.92159   -11074.832    50.565297   -11125.398   -29973.972 
  111800    313.24988   -11061.422     52.28935   -11113.712   -14886.243 
  112000    276.60675   -11066.573    46.172681   -11112.745   -27894.552 
  112200    246.61332   -11079.536    41.166018   -11120.702    51499.545 
  112400    301.76208   -11060.481    50.371745   -11110.853   -29511.095 
  112600    313.45763   -11060.994    52.324029   -11113.318    14943.947 
  112800     245.5088    -11078.76    40.981646   -11119.742   -38691.168 
  113000    267.25726   -11066.631    44.612015   -11111.243   -14558.552 
  113200    288.55997   -11061.015    48.167978   -11109.183   -207.25732 
  113400    246.26465   -11065.578    41.107815   -11106.686    70216.737 
  113600    305.38515   -11069.497    50.976527   -11120.473   -16261.594 
  113800    317.92108   -11051.983    53.069092   -11105.053   -10112.859 
  114000    303.72878   -11059.696    50.700037   -11110.396     8492.293 
  114200    287.10957   -11068.271    47.925868   -11116.197    2174.3064 
  114400    293.78233   -11059.382    49.039722   -11108.422   -20330.093 
  114600     272.1158   -11058.448    45.423029   -11103.871    52949.741 
  114800    264.31358   -11073.138     44.12064   -11117.258    14160.692 
  115000    313.13073   -11060.304    52.269461   -11112.573    22689.421 
  115200    288.69411   -11064.026     48.19037   -11112.216    10561.966 
  115400    247.61307   -11083.396    41.332902   -11124.729    -19007.15 
  115600    319.68378   -11066.689    53.363332   -11120.052   -36569.966 
  115800    329.02901    -11063.42    54.923288   -11118.343   -27875.873 
  116000    289.87949   -11067.247    48.388239   -11115.635   -25828.732 
  116200    240.72781   -11076.777    40.183578    -11116.96    24915.195 
  116400    344.18237   -11060.308    57.452767   -11117.761    74556.095 
  116600    296.23229   -11072.476    49.448683   -11121.925   -47377.419 
  116800    348.14766   -11059.303    58.114675   -11117.418   -22098.666 
  117000    286.94446   -11061.756    47.898308   -11109.654    64524.602 
  117200    293.49837   -11072.212    48.992321   -11121.204    19051.033 
  117400    275.31553   -11069.132    45.957145    -11115.09   -20385.017 
  117600    330.81556     -11054.9    55.221507   -11110.121    60155.049 
  117800    290.32887   -11072.621    48.463252   -11121.084     12563.25 
  118000    263.05134   -11061.327    43.909941   -11105.237    19649.079 
  118200    271.77791   -11057.859    45.366626   -11103.225    7783.1094 
  118400    323.86593   -11068.318    54.061438    -11122.38   -21191.478 
  118600    244.43818   -11081.808    40.802931    -11122.61   -45109.539 
  118800    299.43824   -11067.129    49.983836   -11117.112     2286.937 
  119000     290.8416   -11065.524     48.54884   -11114.073   -29454.619 
  119200    347.33083   -11055.616    57.978325   -11113.594    576.27932 
  119400    291.94195   -11068.481    48.732517   -11117.213    18055.244 
  119600    278.85361   -11065.234     46.54774   -11111.781   -49418.623 
  119800    290.20996   -11062.785    48.443403   -11111.228    15845.192 
  120000    222.96879   -11077.724    37.219147   -11114.943     22151.43 
  120200    331.04061    -11061.78    55.259074   -11117.039   -76413.063 
  120400    296.61023   -11064.174     49.51177   -11113.686    14261.931 
  120600    280.89991    -11080.15    46.889319   -11127.039   -8244.0353 
  120800    253.94187   -11072.922    42.389338   -11115.311   -1712.3756 
  121000    323.12327   -11064.057    53.937468   -11117.995    28487.327 
  121200    308.55774   -11072.656    51.506112   -11124.162   -56672.455 
  121400    342.01788   -11065.871    57.091458   -11122.963   -10669.229 
  121600    322.09022   -11067.156    53.765027   -11120.921    47100.746 
  121800    288.60533   -11078.331    48.175549   -11126.506    -60273.35 
  122000    231.00384   -11068.909      38.5604   -11107.469    27499.745 
  122200    339.14484   -11061.975    56.611875   -11118.587   -15792.431 
  122400    289.64139   -11079.226    48.348494   -11127.574    3931.7308 
  122600    291.61294   -11069.986    48.677596   -11118.664    17193.138 
  122800    301.88718   -11063.441    50.392627   -11113.833   -18829.664 
  123000    258.41784   -11078.733    43.136491    -11121.87   -617.76959 
  123200    321.73102   -11068.943    53.705067   -11122.648   -8100.1137 
  123400    292.94024   -11063.441    48.899156    -11112.34    60733.007 
  123600    276.91466   -11067.223     46.22408   -11113.447    10858.599 
  123800    266.22411   -11075.905    44.439555   -11120.344   -50923.077 
  124000    352.39741   -11057.786    58.824066    -11116.61    38599.504 
  124200    283.32555   -11065.507    47.294221   -11112.801   -71828.718 
  124400    334.25378   -11060.757    55.795433   -11116.552    11079.082 
  124600    345.90719   -11058.115    57.740682   -11115.856   -46617.671 
  124800    310.46182   -11074.692    51.823952   -11126.516    12339.913 
  125000    321.91075   -11059.767    53.735069   -11113.502   -48029.009 
  125200    305.50341   -11055.363    50.996267    -11106.36    7631.3507 
  125400    253.48629   -11073.007    42.313291    -11115.32   -15829.559 
  125600    298.29346    -11069.36    49.792745   -11119.153    -51833.74 
  125800    313.07622   -11058.372    52.260361   -11110.632   -56165.986 
  126000    303.03412   -11069.664     50.58408   -11120.248    64295.276 
  126200    274.84823   -11068.279    45.879141   -11114.159   -21451.325 
  126400    379.01317   -11059.447    63.266911   -11122.714   -6243.9887 
  126600    266.92552   -11066.616     44.55664   -11111.173    -30167.25 
  126800    310.33792   -11066.446    51.803271   -11118.249    4418.3127 
  127000     265.6436   -11070.088    44.342655   -11114.431   -1466.1839 
  127200    339.83363   -11066.735    56.726852   -11123.461   -39052.737 
  127400    286.68005   -11061.573    47.854171   -11109.427   -25510.463 
  127600     377.6093   -11054.345     63.03257   -11117.377    -7366.562 
  127800    301.57019   -11073.671    50.339713   -11124.011    42543.398 
  128000    285.67305   -11069.888    47.686078   -11117.574    4603.5934 
  128200    283.29226   -11055.431    47.288664    -11102.72   -29167.109 
  128400    249.37419   -11078.922    41.626877   -11120.549    14657.314 
  128600    363.97552   -11064.468    60.756746   -11125.224   -1313.7726 
  128800    302.44028   -11067.268    50.484954   -11117.753    26958.196 
  129000    247.14239   -11083.336    41.254333    -11124.59    -4169.004 
  129200    316.25521   -11064.873    52.791016   -11117.664    5324.2325 
  129400    282.24266   -11062.225    47.113459   -11109.338   -55722.452 
  129600     266.5555   -11077.377    44.494874   -11121.872   -31775.812 
  129800    306.93001   -11071.304    51.234404   -11122.539   -25521.588 
  130000    301.71846   -11067.657    50.364463   -11118.021   -25929.853 
  130200    331.17364   -11056.732    55.281279   -11112.013    44777.283 
  130400    318.25233   -11060.082    53.124386   -11113.206    6858.7781 
  130600    282.83338   -11067.646    47.212065   -11114.858    -59099.71 
  130800    306.95538       -11069    51.238638   -11120.239   -51102.279 
  131000    263.44722   -11068.172    43.976023   -11112.148   -20781.059 
  131200    336.18747    -11058.45    56.118216   -11114.568    34847.197 
  131400    253.16531   -11074.339     42.25971   -11116.599    -43458.11 
  131600    338.01189   -11062.248    56.422758   -11118.671    21432.619 
  131800    265.59188    -11069.61    44.334021   -11113.944    13508.846 
  132000    337.97373   -11065.054    56.416388   -11121.471    43930.776 
  132200     317.0274   -11061.973    52.919914   -11114.893   -26837.929 
  132400    301.52257   -11076.099    50.331764   -11126.431    49800.034 
  132600    327.03867   -11055.996    54.591049   -11110.587    32852.383 
  132800    310.25401   -11068.494    51.789264   -11120.283    503.41823 
  133000    281.07689   -11076.784    46.918862   -11123.703   -19790.758 
  133200    238.55391   -11079.746    39.820697   -11119.567   -31875.499 
  133400    362.38942   -11061.551    60.491986   -11122.043   -38079.394 
  133600     302.5449   -11072.239    50.502417   -11122.742    8454.4574 
  133800    296.08877   -11080.114    49.424726   -11129.539   -62379.844 
  134000    293.93682   -11066.042     49.06551   -11115.108    21534.072 
  134200    252.21035    -11071.31    42.100303    -11113.41   -23875.159 
  134400    261.25206   -11072.862    43.609595   -11116.472    5258.5876 
  134600    346.81082   -11059.045    57.891521   -11116.936    53769.227 
  134800    239.81232   -11074.608    40.030759   -11114.639    15959.503 
  135000    316.02051   -11058.668    52.751838    -11111.42    13049.057 
  135200    288.19097   -11064.186    48.106382   -11112.292    27474.854 
  135400    307.18428   -11066.471    51.276847   -11117.748   -13043.488 
  135600    295.59084   -11071.821    49.341607   -11121.163   -29097.104 
  135800    323.18436   -11063.083    53.947667   -11117.031    37607.624 
  136000    329.34264   -11055.418     54.97564   -11110.394   -27322.505 
  136200    281.17074   -11075.664    46.934527   -11122.598    8135.3908 
  136400    277.70741   -11061.857     46.35641   -11108.213    28496.456 
  136600     309.9341   -11059.698    51.735862   -11111.434    19021.837 
  136800    286.42591   -11067.661     47.81175   -11115.473   -67461.603 
  137000     316.5599   -11061.722    52.841877   -11114.564    1021.7389 
  137200    279.00083   -11074.305    46.572315   -11120.877   -62987.713 
  137400    268.59855   -11070.564     44.83591     -11115.4    -27588.47 
  137600    311.42506   -11062.963     51.98474   -11114.948    9462.6713 
  137800    294.12232   -11060.168    49.096475   -11109.265    26289.405 
  138000    256.28559   -11076.968    42.780565   -11119.749    14192.278 
  138200    292.33055   -11062.775    48.797383   -11111.573    5240.6053 
  138400    253.93157   -11061.439     42.38762   -11103.827   -1310.7257 
  138600    313.34635   -11066.986    52.305453   -11119.291    5705.9568 
  138800    256.52692    -11073.31    42.820849   -11116.131     36423.96 
  139000     321.3991   -11055.135    53.649661   -11108.785    20571.219 
  139200    291.03093    -11066.07    48.580444    -11114.65    3539.7445 
  139400    310.75234   -11073.551    51.872446   -11125.423       -12782 
  139600     306.6963   -11057.903    51.195391   -11109.099      23727.1 
  139800    288.99269   -11069.767     48.24021   -11118.007   -7922.9518 
  140000    292.74453   -11071.942    48.866487   -11120.808    49902.027 
  140200    322.81268   -11061.788    53.885623   -11115.674   -2208.3945 
  140400    243.05417   -11079.892    40.571905   -11120.463    684.90959 
  140600    304.22226   -11074.173    50.782411   -11124.955   -27451.698 
  140800    321.72113   -11064.996    53.703416   -11118.699    2410.0658 
  141000    287.71821   -11071.762    48.027466    -11119.79   -8728.8387 
  141200    303.78566   -11073.801    50.709531   -11124.511    3068.3933 
  141400    300.89167    -11061.76    50.226451   -11111.987     40507.92 
  141600    280.77507   -11065.611     46.86848   -11112.479   -16106.175 
  141800    294.86061   -11067.405    49.219714   -11116.625   -31123.383 
  142000    311.16789   -11068.333    51.941813   -11120.275    68465.395 
  142200    295.53662   -11059.609    49.332558   -11108.941    43594.357 
  142400    271.28025   -11068.832    45.283554   -11114.115   -25475.453 
  142600    353.24252   -11062.328    58.965136   -11121.293    15346.369 
  142800    304.90634    -11062.16    50.896601   -11113.057   -40600.319 
  143000     259.7948   -11075.784    43.366341    -11119.15   -4690.3297 
  143200    310.51451    -11055.74    51.832748   -11107.573    -5922.703 
  143400    318.11028   -11064.608    53.100674   -11117.708   -18511.114 
  143600    222.92682   -11073.515     37.21214   -11110.727    666.31601 
  143800    329.98234   -11053.364    55.082422   -11108.446   -38147.879 
  144000    320.00133   -11069.736    53.416338   -11123.153   -11707.394 
  144200    319.82341   -11068.447    53.386639   -11121.833    -22895.27 
  144400    328.65225   -11051.058    54.860396   -11105.919    20637.073 
  144600     300.0952   -11065.535    50.093501   -11115.629   -20937.473 
  144800    245.48059    -11070.08    40.976936   -11111.057    31861.478 
  145000    340.42825   -11058.124     56.82611    -11114.95    60909.113 
  145200    346.74911   -11045.336    57.881221   -11103.218    29.639546 
  145400    275.48191   -11067.711    45.984917   -11113.696    16746.589 
  145600    301.30659   -11077.655    50.295712    -11127.95     -12947.9 
  145800    280.66462   -11060.714    46.850043   -11107.564    -28880.51 
  146000     302.9814   -11064.031     50.57528   -11114.606    5740.7914 
  146200    260.14561   -11082.866      43.4249    -11126.29   -28208.125 
  146400    277.56815   -11072.867    46.333164     -11119.2    16242.843 
  146600    343.86289   -11062.254    57.399438   -11119.653    22598.508 
  146800    279.63983   -11081.702    46.678979   -11128.381    8432.7168 
  147000     268.1317   -11075.999    44.757981   -11120.757   -5456.9277 
  147200    293.33419   -11066.305    48.964916    -11115.27     3366.715 
  147400    395.32767   -11049.365    65.990214   -11115.355   -47727.598 
  147600    279.83509   -11067.224    46.711574   -11113.935    37394.009 
  147800     298.5126   -11070.599    49.829325   -11120.429    18109.353 
  148000     331.4003   -11059.251    55.319115    -11114.57   -61004.239 
  148200    324.25965   -11055.849    54.127159   -11109.976    2395.8024 
  148400    310.04547   -11067.704    51.754453   -11119.459   -24974.425 
  148600    345.34987   -11059.016    57.647652   -11116.664    -2556.241 
  148800     348.6429   -11050.746    58.197342   -11108.943    84096.588 
  149000    253.16742   -11069.979    42.260063   -11112.239    20948.913 
  149200    339.85468   -11067.745    56.730366   -11124.475   -14041.398 
  149400    337.74571   -11050.055    56.378324   -11106.434    30378.087 
  149600    270.01016   -11068.813    45.071544   -11113.884   -3463.6337 
  149800    251.65615   -11064.189    42.007794   -11106.197   -35672.052 
  150000    345.56468   -11053.654    57.683509   -11111.338   -31391.645 
  150200    299.33918   -11068.516    49.967301   -11118.484   -18158.717 
  150400    273.15412   -11072.305    45.596351   -11117.901   -7087.2919 
  150600    348.29126   -11052.481    58.138645   -11110.619    23630.689 
  150800    300.70374    -11066.88    50.195081   -11117.075   -8869.0339 
  151000    313.78657   -11067.026    52.378937   -11119.405   -2085.0079 
  151200    303.35901   -11060.467    50.638312   -11111.106   -62585.732 
  151400    270.94515   -11080.167    45.227618   -11125.394    60169.505 
  151600    299.02173   -11062.165    49.914311    -11112.08    18665.677 
  151800    272.11407   -11070.769     45.42274   -11116.192    10976.845 
  152000    266.51452   -11076.433    44.488033   -11120.921   -46278.059 
  152200    309.34329   -11055.904    51.637242   -11107.541     11424.19 
  152400    314.16991   -11069.744    52.442927   -11122.187   -4497.3921 
  152600    294.82295   -11076.204    49.213428   -11125.418   -29517.345 
  152800    350.53393   -11054.822    58.513003   -11113.335    10987.387 
  153000    265.70556   -11070.752    44.352997   -11115.105   -28474.283 
  153200    284.23606    -11063.62    47.446208   -11111.066   -41620.977 
  153400    285.07048   -11057.985    47.585494   -11105.571   -7587.3178 
  153600    273.38369   -11068.041    45.634671   -11113.675    -29641.75 
  153800    342.44093   -11064.218    57.162077    -11121.38   -62694.197 
  154000    392.10075   -11049.541    65.451561   -11114.993   -49048.305 
  154200    285.79465   -11068.936    47.706376   -11116.642    23015.012 
  154400    331.01795   -11071.451    55.255291   -11126.707   -54545.962 
  154600    384.01536   -11052.169    64.101903    -11116.27   -24341.801 
  154800    289.56493   -11067.456    48.335732   -11115.792    29693.042 
  155000    257.49347   -11066.729    42.982191   -11109.712   -16891.029 
  155200    313.04923   -11062.321    52.255856   -11114.577   -12361.571 
  155400    249.14819   -11077.759    41.589152   -11119.349    4551.7568 
  155600    301.50972   -11060.492    50.329619   -11110.821    9707.9434 
  155800    243.98883   -11067.181    40.727925   -11107.909    53860.997 
  156000    294.38791   -11067.878    49.140808   -11117.019    15025.373 
  156200    308.31538    -11063.57    51.465657   -11115.036    4270.1611 
  156400    261.63348   -11081.008    43.673264   -11124.681     11140.27 
  156600    312.35038   -11068.227    52.139201   -11120.367    39170.154 
  156800    340.11467   -11065.989    56.773765   -11122.763   -56407.574 
  157000    263.38263   -11070.783    43.965241   -11114.748    20103.213 
  157200    266.34483   -11058.775    44.459708   -11103.235    69967.671 
  157400    306.53211   -11065.473    51.167984   -11116.641    8319.3064 
  157600     326.1876   -11071.416    54.448984   -11125.865   -11576.803 
  157800    334.03297   -11060.164    55.758575   -11115.922   -6221.1727 
  158000     315.2955   -11055.798    52.630816   -11108.429   -31161.943 
  158200    321.39599   -11072.273    53.649141   -11125.922   -44039.045 
  158400    285.83437   -11067.545    47.713006   -11115.258    -62489.33 
  158600    282.68234   -11059.727    47.186852   -11106.914    -46979.67 
  158800     277.5578    -11069.89    46.331436   -11116.221   -47743.446 
  159000    327.75167   -11064.298    54.710066   -11119.008   -3773.0661 
  159200    380.71578   -11045.932    63.551119   -11109.483    17628.575 
  159400    266.21195   -11067.704    44.437526   -11112.142     49523.71 
  159600    299.10066   -11067.612    49.927486    -11117.54    29452.136 
  159800    333.14755   -11052.825    55.610776   -11108.435    27889.869 
  160000    292.65835   -11071.421    48.852101   -11120.273   -50972.811 
  160200     312.4828   -11069.461    52.161305   -11121.622    19473.814 
  160400    324.42571    -11051.65    54.154879   -11105.805    20203.693 
  160600    400.77386   -11039.388    66.899322   -11106.287    2024.4423 
  160800    293.86855   -11065.121    49.054115   -11114.176   -6607.4215 
  161000    270.94256   -11073.231    45.227184   -11118.458   -7584.1528 
  161200    269.20848    -11056.49    44.937723   -11101.428    17567.765 
  161400    320.49449     -11059.4    53.498659   -11112.899   -2462.0551 
  161600    300.68502   -11073.845    50.191956   -11124.037     4458.285 
  161800    290.29473   -11063.573    48.457553    -11112.03   -26427.323 
  162000    391.78292   -11048.935    65.398505   -11114.334   -17702.064 
  162200    292.13581   -11066.874    48.764875   -11115.639   -5714.2296 
  162400    273.10151   -11072.142    45.587568    -11117.73     51368.46 
  162600    333.42297   -11052.561     55.65675   -11108.218   -54494.088 
  162800    293.65036   -11065.345    49.017694   -11114.362    25186.698 
  163000    291.71455   -11068.475    48.694557   -11117.169   -13699.906 
  163200    359.48157   -11065.938    60.006591   -11125.944   -24662.998 
  163400    331.65667   -11065.349    55.361911   -11120.711    5076.8204 
  163600    363.44488   -11051.221    60.668168   -11111.889   -10788.908 
  163800     278.6774   -11069.423    46.518326   -11115.941     8741.183 
  164000    254.58956   -11070.721    42.497454   -11113.219    15308.399 
  164200      341.283   -11050.324    56.968789   -11107.293    -16189.78 
  164400    322.16526   -11057.842    53.777553   -11111.619    6612.6898 
  164600    302.56516   -11068.116    50.505799   -11118.622   -5893.8327 
  164800    303.07261   -11062.832    50.590506   -11113.422   -1611.6168 
  165000    318.66565   -11055.412     53.19338   -11108.605    55476.158 
  165200    292.41081   -11072.805     48.81078   -11121.616    73451.218 
  165400    284.16601   -11060.265    47.434514     -11107.7   -32996.067 
  165600     248.7206   -11073.822    41.517776    -11115.34   -16052.028 
  165800    321.26273   -11074.073    53.626898     -11127.7    637.90009 
  166000    320.10022   -11062.568    53.432845   -11116.001    111.70599 
  166200    222.01247   -11081.684    37.059512   -11118.743   -60911.052 
  166400     275.4058   -11069.712    45.972213   -11115.684   -46893.197 
  166600    339.48402    -11064.25    56.668493   -11120.919    40012.415 
  166800    228.04705   -11081.752    38.066837   -11119.819     33290.73 
  167000    288.95375   -11071.373    48.233709   -11119.607   -19852.493 
  167200    304.90101   -11067.593    50.895712   -11118.489    18598.645 
  167400     342.1503   -11068.788    57.113563   -11125.902   -11131.025 
  167600    310.81421   -11055.517    51.882775     -11107.4   -39328.172 
  167800     248.6442   -11069.715    41.505024    -11111.22    30304.843 
  168000    276.83274   -11071.374    46.210406   -11117.585    61072.058 
  168200    316.74613   -11062.627    52.872963     -11115.5   -27538.557 
  168400    234.49846   -11080.201    39.143741   -11119.345   -14296.437 
  168600    315.77069   -11067.337    52.710137   -11120.047     798.5279 
  168800    339.73875    -11059.58    56.711015   -11116.291   -26133.992 
  169000    288.18141   -11077.011    48.104786   -11125.116   -14549.498 
  169200     310.1633   -11064.216    51.774122    -11115.99   -9164.8866 
  169400    318.59465   -11066.136    53.181528   -11119.318    1983.9972 
  169600    273.23417   -11071.441    45.609714    -11117.05    75356.939 
  169800    330.89923   -11066.755    55.235474    -11121.99    37259.954 
  170000    315.47815   -11069.135    52.661305   -11121.796    37738.778 
  170200     247.3622   -11080.009    41.291025     -11121.3    20769.049 
  170400    344.98024   -11061.963    57.585951   -11119.549   -9744.8902 
  170600    312.32998   -11075.103    52.135795   -11127.239   -55048.342 
  170800    269.22787   -11071.992     44.94096   -11116.933     23034.32 
  171000    283.59847   -11060.031    47.339777   -11107.371    30784.527 
  171200    319.14525   -11074.212    53.273437   -11127.485    44823.325 
  171400    323.49618   -11065.316    53.999717   -11119.316    30811.009 
  171600    310.47358   -11054.443    51.825915   -11106.269   -3571.7597 
  171800    256.03069   -11070.159    42.738016   -11112.897   -17895.105 
  172000    325.47891   -11068.292    54.330685   -11122.623   -20168.896 
  172200    275.46387   -11072.919    45.981907   -11118.901   -19765.496 
  172400    280.96237   -11060.327    46.899746   -11107.227    18993.086 
  172600    348.23947   -11057.851    58.130001   -11115.981    20801.817 
  172800    295.97062   -11070.157    49.405004   -11119.562     35125.38 
  173000     303.0752   -11060.892    50.590938   -11111.483    9603.2964 
  173200    345.13208   -11052.866    57.611297   -11110.477   -71536.908 
  173400    279.03862   -11071.544    46.578623   -11118.123   -13908.177 
  173600     339.4516   -11061.823    56.663081   -11118.486   -51171.927 
  173800    290.33926   -11052.878    48.464985   -11101.343    5001.4069 
  174000    274.00636   -11075.839    45.738611   -11121.578     309.6222 
  174200    338.58476   -11063.097    56.518384   -11119.615   -18136.683 
  174400    268.30619   -11059.256    44.787109   -11104.043   -27992.448 
  174600    274.51284   -11080.318    45.823155   -11126.141    17597.067 
  174800     282.6751    -11069.59    47.185644   -11116.776   -607.75052 
  175000     286.7583   -11064.044    47.867233   -11111.911    10964.358 
  175200    374.46749   -11044.822    62.508122    -11107.33   -9180.7953 
  175400     319.7428   -11062.421    53.373182   -11115.794   -33470.963 
  175600    282.29543   -11073.207    47.122267    -11120.33    35838.166 
  175800    282.94794   -11066.774    47.231187   -11114.005   -15964.763 
  176000    305.35277   -11056.961    50.971122   -11107.932     71156.19 
  176200    255.41447   -11073.999    42.635153   -11116.634    24598.716 
  176400    306.91353   -11067.811    51.231652   -11119.043    42374.716 
  176600    331.24555   -11057.965    55.293284   -11113.258    35130.732 
  176800    309.15474   -11062.723    51.605767   -11114.328   -20115.887 
  177000    255.23721   -11074.993    42.605565   -11117.598   -744.90137 
  177200    334.48741   -11057.728    55.834433   -11113.563   -49904.622 
  177400    339.60514   -11061.804     56.68871   -11118.493   -28950.095 
  177600    274.86368   -11071.073     45.88172   -11116.955    36153.784 
  177800    312.40515   -11069.581    52.148343   -11121.729   -1022.5322 
  178000    319.85307   -11066.337     53.39159   -11119.728    58875.763 
  178200    314.65087   -11056.439    52.523211   -11108.962    15516.725 
  178400    266.03058   -11073.745    44.407251   -11118.152    17256.941 
  178600    294.96768   -11063.217    49.237588   -11112.454   -5210.5646 
  178800    346.68568   -11061.863    57.870632   -11119.733    38852.613 
  179000    286.96865    -11076.92    47.902346   -11124.823   -31559.235 
  179200    278.86862   -11061.479    46.550245   -11108.029   -53810.666 
  179400    265.09116   -11062.972    44.250437   -11107.223   -38654.408 
  179600    293.40884   -11069.412    48.977376    -11118.39    50817.224 
  179800    291.74408   -11067.228    48.699486   -11115.927    19935.758 
  180000    323.32695    -11060.42    53.971468   -11114.392   -22846.873 
  180200    278.89547   -11075.888    46.554728   -11122.443    -39869.57 
  180400    319.64854   -11059.397    53.357449   -11112.754    68004.225 
  180600    280.41654   -11063.571    46.808633    -11110.38    -9752.785 
  180800    252.30146   -11071.282    42.115512   -11113.397   -37236.323 
  181000     345.9544   -11050.122    57.748564    -11107.87    55251.151 
  181200     351.0779   -11056.572    58.603805   -11115.176    25863.971 
[...]
  950000      291.872   -11063.534    48.720839   -11112.255   -1374.8015 
  950200    290.69035   -11069.569    48.523593   -11118.092    -82180.19 
  950400    264.74381   -11078.843    44.192456   -11123.035    12357.309 
  950600    290.32378   -11061.016    48.462403   -11109.479   -26487.779 
  950800    298.24128   -11071.823    49.784034   -11121.607    47171.398 
  951000    272.71825   -11072.023    45.523593   -11117.546   -22113.954 
  951200    309.98716   -11063.534    51.744719   -11115.279    4678.8158 
  951400    286.69879   -11074.657      47.8573   -11122.514    22639.065 
  951600    275.36414    -11079.65    45.965259   -11125.615   -14949.422 
  951800    314.42585   -11067.967    52.485649   -11120.453     37652.93 
  952000    287.87577   -11065.557    48.053768   -11113.611    25241.555 
  952200    348.33889   -11050.193    58.146595    -11108.34    4712.9879 
  952400    281.92826   -11068.205    47.060978   -11115.266   -26289.059 
  952600     299.5026   -11070.879     49.99458   -11120.874   -55241.947 
  952800    355.70121   -11057.649    59.375554   -11117.025   -24248.135 
  953000    321.19621   -11058.165    53.615794   -11111.781   -45876.557 
  953200    268.10347   -11073.923     44.75327   -11118.676   -21812.879 
  953400    304.88037   -11069.715    50.892267   -11120.608    17771.696 
  953600    250.87431   -11077.871    41.877286   -11119.749     44913.26 
  953800    363.72592   -11057.674    60.715081   -11118.389   -49040.531 
  954000    281.69095   -11065.621    47.021365   -11112.643    41674.371 
  954200    263.66178   -11075.527    44.011839   -11119.539   -74001.298 
  954400    248.94629   -11079.358     41.55545   -11120.913   -28264.687 
  954600    325.91724   -11064.282    54.403854   -11118.686   -18492.719 
  954800    289.86973   -11068.615    48.386609   -11117.002   -52337.792 
  955000    255.38876   -11076.146    42.630861   -11118.777   -43837.362 
  955200    333.15518   -11059.006    55.612049   -11114.619   -64113.819 
  955400    370.32936   -11055.589    61.817364   -11117.406   -36077.361 
  955600    252.48652   -11075.063    42.146404   -11117.209   -40210.843 
  955800    261.34762   -11061.826    43.625546   -11105.451    -15.95498 
  956000    248.57428   -11072.506    41.493351   -11113.999    5904.8039 
  956200    283.82878   -11071.282    47.378222    -11118.66   -13082.013 
  956400    306.49656   -11060.674    51.162049   -11111.836    29317.265 
  956600    272.01202   -11069.693    45.405704   -11115.099    2166.1233 
  956800    286.38621   -11077.553    47.805121   -11125.358    7019.9278 
  957000    305.37866   -11060.219    50.975444   -11111.194   -11974.961 
  957200    329.38664   -11063.728    54.982984   -11118.711    -69932.69 
  957400    273.38655   -11078.152    45.635149   -11123.787    7719.9293 
  957600    291.68482   -11060.366    48.689595   -11109.055   -31681.285 
  957800    287.16026    -11063.45    47.934331   -11111.384    -17653.96 
  958000     268.6669   -11076.157    44.847319   -11121.004    7366.0204 
  958200    291.46988   -11071.436    48.653715    -11120.09    37084.633 
  958400    318.93232   -11062.205    53.237894   -11115.443     37468.88 
  958600     294.1885   -11075.487    49.107523   -11124.595    14119.425 
  958800    254.08857   -11079.264    42.413826   -11121.678   -9832.5347 
  959000    315.64555   -11061.731    52.689248    -11114.42    11852.291 
  959200    272.51253   -11072.849    45.489253   -11118.338    11983.475 
  959400    276.12952   -11075.397     46.09302    -11121.49   -17812.246 
  959600    377.81937   -11058.847    63.067636   -11121.914    30749.999 
  959800    290.93489    -11073.67    48.564411   -11122.235    25242.682 
  960000     320.2901   -11058.075    53.464542   -11111.539    -4690.925 
  960200    360.84935    -11053.79    60.234909   -11114.025    55858.579 
  960400    311.01394   -11067.122    51.916115   -11119.038    19768.067 
  960600    259.01176   -11072.702    43.235631   -11115.937   -40320.309 
  960800    344.18086   -11066.904    57.452515   -11124.357    12269.424 
  961000    274.41294   -11066.943     45.80648   -11112.749   -23664.766 
  961200    272.07539   -11075.642    45.416283   -11121.058    49429.953 
  961400    341.20476   -11066.637    56.955729   -11123.593   -18215.744 
  961600    266.40676   -11074.819    44.470045   -11119.289   -35783.105 
  961800    318.48334   -11064.113    53.162947   -11117.276   -46477.662 
  962000    357.06612   -11054.274    59.603392   -11113.877   -37345.373 
  962200    268.41423    -11076.08    44.805142   -11120.885   -34430.632 
  962400     314.3025   -11067.449    52.465059   -11119.914   -8799.5636 
  962600    364.42035   -11050.383    60.830999   -11111.214   -1206.5861 
  962800    295.16709   -11070.604    49.270873   -11119.875   -58230.671 
  963000    333.82245   -11067.225    55.723434   -11122.948    3996.3091 
  963200    333.73731   -11058.286    55.709222   -11113.995    49136.554 
  963400    257.95023   -11076.366    43.058436   -11119.424    29452.242 
  963600    379.53104   -11065.727    63.353357   -11129.081   -40847.134 
  963800    329.26593   -11060.963    54.962835   -11115.925    30596.195 
  964000    288.96747   -11074.153    48.235999   -11122.389   -21660.851 
  964200    282.19274   -11073.138    47.105126   -11120.243   -16545.598 
  964400    307.80936   -11059.968    51.381189   -11111.349   -58174.158 
  964600    284.80397   -11072.184    47.541005   -11119.725     -30586.5 
  964800    284.73685   -11073.233    47.529802   -11120.763   -12057.472 
  965000    306.78426   -11058.425    51.210074   -11109.635   -23735.697 
  965200     275.3173   -11070.699    45.957441   -11116.657     12783.34 
  965400    322.17988   -11066.283    53.779994   -11120.063    1482.7297 
  965600    283.76551   -11063.002    47.367661    -11110.37    3079.6576 
  965800    289.37267   -11078.416    48.303638    -11126.72   -55991.634 
  966000    331.93069   -11064.182    55.407651    -11119.59   -7015.8014 
  966200    347.74882    -11066.16    58.048098   -11124.208    4913.5874 
  966400    255.69206   -11079.376    42.681491   -11122.058   -34085.998 
  966600    291.03377   -11071.845    48.580918   -11120.426    23829.949 
  966800     264.7135   -11067.997    44.187397   -11112.184    51717.076 
  967000     346.7312   -11055.232    57.878231   -11113.111   -10299.481 
  967200    265.60202   -11073.974    44.335713    -11118.31   -46412.502 
  967400    306.00353   -11067.722     51.07975   -11118.802    1409.1984 
  967600    320.92158   -11063.544     53.56995   -11117.114   -79.716964 
  967800    318.23651   -11078.533    53.121746   -11131.655    26165.173 
  968000    249.18086   -11064.385    41.594606    -11105.98   -31502.454 
  968200    339.07878   -11064.218    56.600849   -11120.819    46011.765 
  968400    311.47175   -11070.704    51.992534   -11122.696    -45987.92 
  968600    341.57519   -11050.332    57.017562    -11107.35   -21923.011 
  968800     284.6455   -11065.215    47.514553    -11112.73    95559.333 
  969000    284.06943   -11070.214    47.418393   -11117.633    39784.835 
  969200    308.98458   -11046.683    51.577363    -11098.26    5761.8242 
  969400    344.68834   -11059.111    57.537226   -11116.648   -42619.804 
  969600    302.94082   -11068.229    50.568506   -11118.797   -46619.156 
  969800    279.67418   -11074.078    46.684714   -11120.763    106843.03 
  970000    331.10336   -11055.388    55.269549   -11110.658    59129.204 
  970200    279.38458   -11060.367    46.636372   -11107.003   -21162.484 
  970400    259.13045    -11076.51    43.255444   -11119.766    15432.263 
  970600    270.16574   -11081.981    45.097515   -11127.079    -29339.82 
  970800    294.72274   -11065.834      49.1967   -11115.031   -57305.729 
  971000    259.10227   -11064.065     43.25074   -11107.316    7384.3576 
  971200    289.54352   -11082.401    48.332156   -11130.733    57304.757 
  971400    276.81571   -11066.136    46.207562   -11112.344    6016.2548 
  971600    293.29521   -11061.593    48.958409   -11110.552    -38673.32 
  971800    382.33567   -11059.956     63.82152   -11123.778    21375.111 
  972000    270.37141   -11073.067    45.131846   -11118.199    20560.407 
  972200    299.64066   -11060.044    50.017625   -11110.062   -1080.4851 
  972400    343.69784   -11054.027    57.371886   -11111.399    15145.395 
  972600    306.67716   -11068.155    51.192196   -11119.347   -35384.548 
  972800    259.29755   -11070.632    43.283338   -11113.915     49679.02 
  973000    360.64773   -11055.185    60.201253   -11115.386    53482.186 
  973200    265.13563   -11070.077     44.25786   -11114.335    4035.8048 
  973400    305.57131   -11063.651    51.007602   -11114.659    1328.0585 
  973600    350.65917   -11058.484    58.533909   -11117.018    5426.2997 
  973800    282.60896   -11071.365    47.174603    -11118.54   -6981.2072 
  974000    261.72494   -11071.747    43.688531   -11115.436   -21139.742 
  974200    333.67762   -11058.031    55.699258   -11113.731   -53015.922 
  974400    263.02455   -11069.763    43.905469   -11113.668    55917.668 
  974600    320.48922    -11049.61     53.49778   -11103.107    -15881.49 
  974800     321.3568   -11061.518      53.6426   -11115.161    55504.491 
  975000    279.32815   -11067.245    46.626953   -11113.872    10715.382 
  975200    245.02934   -11075.048    40.901612    -11115.95    24208.453 
  975400    346.00574   -11068.764    57.757135   -11126.522   -43451.976 
  975600    301.37716    -11062.13    50.307492   -11112.437    32775.634 
  975800    283.41073   -11060.096    47.308439   -11107.404   -8084.4949 
  976000    267.16386   -11068.494    44.596425    -11113.09   -12902.683 
  976200    309.86896   -11072.381    51.724988   -11124.106   -393.44329 
  976400    311.98885   -11054.522    52.078851   -11106.601   -538.83435 
  976600    308.74286   -11066.762    51.537013   -11118.299   -83455.674 
  976800    331.15725   -11068.246    55.278544   -11123.524   -32103.464 
  977000    340.93684   -11059.949    56.911006    -11116.86   -49946.094 
  977200    319.00396   -11063.402    53.249852   -11116.652   -25664.794 
  977400    259.35818   -11073.787    43.293459    -11117.08   -24203.684 
  977600    321.54796   -11062.549    53.674509   -11116.223   -27388.919 
  977800    261.37657   -11073.208    43.630378   -11116.839    7926.8403 
  978000    291.57724   -11072.765    48.671637   -11121.436    53111.819 
  978200    382.65074    -11054.12    63.874114   -11117.994   -22768.075 
  978400    294.12424   -11064.884    49.096796   -11113.981    3087.0071 
  978600    287.00578   -11067.886    47.908544   -11115.794    1938.6824 
  978800    273.01016   -11063.937     45.57232   -11109.509   -22996.027 
  979000    322.28825   -11067.546    53.798083   -11121.344    18524.699 
  979200    263.25627   -11077.555    43.944149     -11121.5    4327.1756 
  979400    346.24052   -11058.683    57.796325   -11116.479    14241.335 
  979600     310.4767   -11065.877    51.826436   -11117.704    61351.971 
  979800    254.25895    -11074.33    42.442268   -11116.772   -44733.006 
  980000    289.63822   -11062.905    48.347965   -11111.253   -10784.628 
  980200    273.87485   -11067.041    45.716658   -11112.757   -28358.565 
  980400    272.45584   -11077.474    45.479789   -11122.954   -8625.9139 
  980600    306.70881   -11064.762    51.197479   -11115.959   -544.60872 
  980800    292.44961    -11067.01    48.817258   -11115.827    28470.887 
  981000     288.1667   -11064.413     48.10233   -11112.515    45400.759 
  981200    303.07384   -11063.365    50.590711   -11113.956    22428.852 
  981400     266.9379   -11070.426    44.558706   -11114.984   -18730.002 
  981600    347.05762   -11054.067     57.93272       -11112    50731.431 
  981800    309.19742    -11066.97    51.612891   -11118.583    22635.917 
  982000    329.04737   -11068.414    54.926352    -11123.34    6643.1315 
  982200    298.83462   -11063.713    49.883078   -11113.596   -38931.916 
  982400    294.97182   -11064.163    49.238278   -11113.402   -4804.0121 
  982600    329.82937   -11067.876    55.056888   -11122.933    1106.6094 
  982800     256.8712   -11074.798    42.878318   -11117.676   -8671.3885 
  983000    269.74045   -11058.502    45.026523   -11103.529   -9639.1666 
  983200    321.77984   -11063.761    53.713216   -11117.474   -12390.288 
  983400    264.67513   -11070.218    44.180992   -11114.399    8635.3084 
  983600     299.9399   -11064.179    50.067577   -11114.246   -31254.875 
  983800    269.42803   -11080.941    44.974371   -11125.916    13789.134 
  984000    288.92054   -11068.711    48.228166   -11116.939   -4038.1155 
  984200     294.5482   -11068.684    49.167565   -11117.852   -54544.755 
  984400    260.77604   -11079.065    43.530135   -11122.595    47004.437 
  984600    348.89259   -11061.929    58.239023   -11120.168   -29124.877 
  984800    301.29094   -11070.629    50.293099   -11120.922     8117.022 
  985000     302.2094   -11073.486    50.446415   -11123.933    39502.755 
  985200    284.51112   -11068.081    47.492122   -11115.573    54790.384 
  985400    350.84403   -11051.251    58.564768   -11109.816   -5402.4003 
  985600    261.88312   -11074.949    43.714934   -11118.664    10132.056 
  985800    261.19943    -11066.08    43.600809   -11109.681   -34802.057 
  986000    316.12288   -11054.702    52.768927   -11107.471    13126.004 
  986200    304.55372    -11077.26    50.837741   -11128.097   -38858.909 
  986400    299.66123   -11067.467     50.02106   -11117.488   -36959.878 
  986600    299.59164   -11059.224    50.009443   -11109.233   -57006.525 
  986800    248.79452   -11072.576    41.530115   -11114.106    21661.201 
  987000    237.70632   -11088.391    39.679214    -11128.07    13264.953 
  987200    283.35115    -11065.35    47.298494   -11112.649   -51839.204 
  987400    295.21755   -11066.333    49.279297   -11115.612     7121.164 
  987600    265.13713   -11069.246    44.258112   -11113.504    7072.3485 
  987800    282.65706   -11072.465    47.182632   -11119.648    515.47702 
  988000    338.45135   -11062.572    56.496114   -11119.068   -19400.716 
  988200    314.56556   -11054.314     52.50897   -11106.823   -14207.201 
  988400    244.80238    -11073.03    40.863726   -11113.893    1022.2384 
  988600    340.91818   -11064.949    56.907891   -11121.857    16934.701 
  988800    344.20404   -11054.221    57.456384   -11111.677    13251.467 
  989000    276.17949    -11069.52    46.101362   -11115.622    -9608.682 
  989200    274.51728   -11070.359    45.823896   -11116.183   -14462.589 
  989400    298.13889   -11056.057    49.766943   -11105.824    33964.303 
  989600     231.1215   -11066.528     38.58004   -11105.108    13684.564 
  989800     308.8382   -11066.839    51.552928   -11118.392   -19425.211 
  990000    334.13366   -11058.036    55.775383   -11113.811    46839.725 
  990200    263.55739   -11056.128    43.994412   -11100.122    23964.809 
  990400     349.7135   -11072.293    58.376054   -11130.669    7785.6429 
  990600    338.87336   -11058.112    56.566559   -11114.679   -18156.605 
  990800    337.61247   -11054.576    56.356085   -11110.932     42843.03 
  991000    275.31957   -11065.484     45.95782   -11111.441   -21265.814 
  991200    310.80223   -11065.113    51.880775   -11116.994   -6390.8698 
  991400    287.43473   -11076.956    47.980146   -11124.936     29412.95 
  991600     305.2426   -11060.735    50.952732   -11111.688    20969.438 
  991800    296.75156   -11060.777    49.535361   -11110.312    11762.666 
  992000    249.35981   -11080.561    41.624477   -11122.185    22570.772 
  992200    280.59226    -11071.91    46.837966   -11118.748    -9600.516 
  992400    285.29451   -11060.228     47.62289   -11107.851    28463.094 
  992600     286.7636   -11061.648    47.868119   -11109.516   -27650.825 
  992800    269.72086   -11078.708    45.023252   -11123.731    16487.219 
  993000    314.50831   -11061.691    52.499414    -11114.19   -34470.769 
  993200    285.76856   -11059.194    47.702021   -11106.896   -15444.788 
  993400    248.12003    -11079.22    41.417527   -11120.637   -5728.4076 
  993600    276.42417   -11066.187    46.142205   -11112.329   -53807.856 
  993800    311.78862   -11061.282    52.045429   -11113.327    74537.135 
  994000    269.66895   -11067.283    45.014587   -11112.297    6590.2177 
  994200    265.95238   -11073.607    44.394198   -11118.002    39196.079 
  994400    263.10553   -11075.946    43.918986   -11119.865   -58135.917 
  994600    337.37659   -11058.821    56.316709   -11115.137   -17406.592 
  994800    313.64246   -11067.428    52.354881   -11119.783    37412.134 
  995000    283.82335   -11072.593    47.377315    -11119.97     12739.01 
  995200    320.57591   -11060.527    53.512251   -11114.039    9704.1043 
  995400    280.16396   -11079.021    46.766471   -11125.788   -9736.3163 
  995600    289.13458   -11072.405    48.263895   -11120.669   -6939.2425 
  995800    306.74678   -11066.529    51.203818   -11117.733    -14694.84 
  996000    326.93559   -11064.694    54.573842   -11119.267   -2518.2202 
  996200    272.88523   -11068.602    45.551465   -11114.154    4124.0664 
  996400    278.32398   -11064.001    46.459331   -11110.461    57910.848 
  996600    285.51008   -11068.074    47.658873   -11115.732    2756.5348 
  996800    237.00858   -11079.698    39.562743   -11119.261    12242.911 
  997000    333.08947   -11062.921    55.601081   -11118.522    24089.435 
  997200    346.73238   -11059.177    57.878429   -11117.055    9073.0715 
  997400    271.84306    -11075.71    45.377502   -11121.088    8715.0682 
  997600    317.68914   -11063.527    53.030375   -11116.557    22227.328 
  997800    338.36724   -11059.693    56.482074   -11116.175   -22497.388 
  998000    298.78249   -11060.671    49.874375   -11110.545     27687.55 
  998200    272.42616   -11072.289    45.474835   -11117.764    47347.497 
  998400     280.2585   -11080.481    46.782252   -11127.263   -5857.6779 
  998600    307.26682   -11067.589    51.290626    -11118.88    51678.789 
  998800    340.58952   -11055.502    56.853029   -11112.355   -36963.958 
  999000    313.94172   -11050.346    52.404835   -11102.751    42156.508 
  999200    278.07111   -11069.201    46.417121   -11115.618   -54151.114 
  999400    327.77824    -11061.13    54.714501   -11115.845   -9331.1281 
  999600    282.40649   -11071.809    47.140805    -11118.95    15586.802 
  999800    274.47399   -11074.402    45.816671   -11120.218    58974.759 
 1000000    349.31275   -11060.562    58.309158   -11118.872    -41442.02 
Loop time of 31484.8 on 8 procs for 1000000 steps with 57 atoms

Performance: 0.686 ns/day, 34.983 hours/ns, 31.761 timesteps/s
99.8% CPU use with 8 MPI tasks x no OpenMP threads

MPI task timing breakdown:
Section |  min time  |  avg time  |  max time  |%varavg| %total
---------------------------------------------------------------
Pair    | 28122      | 29147      | 29748      | 278.5 | 92.57
Neigh   | 2.5155     | 2.6015     | 2.6684     |   3.6 |  0.01
Comm    | 242.45     | 841.37     | 1863.2     |1636.3 |  2.67
Output  | 0.39565    | 0.4365     | 0.64086    |  11.7 |  0.00
Modify  | 1469.3     | 1471.8     | 1474.9     |   4.8 |  4.67
Other   |            | 21.65      |            |       |  0.07

Nlocal:    7.125 ave 13 max 1 min
Histogram: 2 0 0 2 0 0 1 1 0 2
Nghost:    1126.88 ave 1133 max 1121 min
Histogram: 2 0 1 1 0 0 2 0 0 2
Neighs:    1943.25 ave 3519 max 279 min
Histogram: 2 0 0 2 0 0 1 1 1 1

Total # of neighbors = 15546
Ave neighs/atom = 272.737
Neighbor list builds = 242
Dangerous builds = 0

Please see the log.cite file for references relevant to this simulation

Total wall time: 8:48:33
