LAMMPS (3 Mar 2020)
# Alpha
clear
units		real
dimension 3
boundary        p p p
atom_style	charge
newton on
read_data       H_18.lmp
  orthogonal box = (0 0 0) to (11 11.002 11)
  2 by 2 by 2 MPI processor grid
  reading atoms ...
  49 atoms
  read_data CPU = 0.0505653 secs

timestep 0.25

# ---------- Define Interatomic Potential ---------------------
pair_style      reax/c NULL checkqeq no
pair_coeff      * * ffield.reax C H
fix             2 all qeq/reax 1 0.0 10.0 1.0e-6 reax/c

#------------ Equilibration of the system -------------------------
reset_timestep 0

dump 1 all custom 10 min.lammpstrj id type x y z

minimize 1.0e-8 1.0e-8 100000 100000
WARNING: Using 'neigh_modify every 1 delay 0 check yes' setting during minimization (../min.cpp:190)
WARNING: Total cutoff < 2*bond cutoff. May need to use an increased neighbor list skin. (../pair_reaxc.cpp:413)
Neighbor list info ...
  update every 1 steps, delay 0 steps, check yes
  max neighbors/atom: 2000, page size: 100000
  master list distance cutoff = 9.5
  ghost atom cutoff = 9.5
  binsize = 4.75, bins = 3 3 3
  2 neighbor lists, perpetual/occasional/extra = 2 0 0
  (1) pair reax/c, perpetual
      attributes: half, newton off, ghost
      pair build: half/bin/newtoff/ghost
      stencil: half/ghost/bin/3d/newtoff
      bin: standard
  (2) fix qeq/reax, perpetual, copy from (1)
      attributes: half, newton off, ghost
      pair build: copy
      stencil: none
      bin: none
Per MPI rank memory allocation (min/avg/max) = 18.75 | 18.85 | 19.01 Mbytes
Step Temp E_pair E_mol TotEng Press 
       0            0   -8630.8646            0   -8630.8646    17112.253 
     124            0   -8718.5591            0   -8718.5591    15013.476 
Loop time of 9.80144 on 8 procs for 124 steps with 49 atoms

99.7% CPU use with 8 MPI tasks x no OpenMP threads

Minimization stats:
  Stopping criterion = energy tolerance
  Energy initial, next-to-last, final = 
        -8630.86459452     -8718.55906842     -8718.55909846
  Force two-norm initial, final = 599.159 531.297
  Force max component initial, final = 393.126 212.505
  Final line search alpha, max atom move = 3.71073e-07 7.88549e-05
  Iterations, force evaluations = 124 861

MPI task timing breakdown:
Section |  min time  |  avg time  |  max time  |%varavg| %total
---------------------------------------------------------------
Pair    | 6.6982     | 6.768      | 6.8483     |   1.8 | 69.05
Neigh   | 0          | 0          | 0          |   0.0 |  0.00
Comm    | 0.20053    | 0.27846    | 0.35043    |   8.8 |  2.84
Output  | 0.0012324  | 0.0018814  | 0.0029049  |   1.2 |  0.02
Modify  | 2.7139     | 2.7145     | 2.7168     |   0.1 | 27.70
Other   |            | 0.0386     |            |       |  0.39

Nlocal:    6.125 ave 7 max 6 min
Histogram: 7 0 0 0 0 0 0 0 0 1
Nghost:    600.625 ave 609 max 595 min
Histogram: 1 0 4 1 0 0 0 1 0 1
Neighs:    772.5 ave 874 max 752 min
Histogram: 7 0 0 0 0 0 0 0 0 1

Total # of neighbors = 6180
Ave neighs/atom = 126.122
Neighbor list builds = 0
Dangerous builds = 0

###
min_style cg
minimize 1.0e-8 1.0e-8 100000 100000
WARNING: Using 'neigh_modify every 1 delay 0 check yes' setting during minimization (../min.cpp:190)
WARNING: Total cutoff < 2*bond cutoff. May need to use an increased neighbor list skin. (../pair_reaxc.cpp:413)
Per MPI rank memory allocation (min/avg/max) = 18.75 | 18.85 | 19.01 Mbytes
Step Temp E_pair E_mol TotEng Press 
     124            0   -8718.5591            0   -8718.5591    15013.476 
     275            0   -8727.4442            0   -8727.4442    13640.264 
Loop time of 16.8163 on 8 procs for 151 steps with 49 atoms

99.6% CPU use with 8 MPI tasks x no OpenMP threads

Minimization stats:
  Stopping criterion = energy tolerance
  Energy initial, next-to-last, final = 
        -8718.55909846      -8727.4441105     -8727.44416614
  Force two-norm initial, final = 531.297 29.7451
  Force max component initial, final = 212.505 9.83456
  Final line search alpha, max atom move = 9.92081e-06 9.75667e-05
  Iterations, force evaluations = 151 1567

MPI task timing breakdown:
Section |  min time  |  avg time  |  max time  |%varavg| %total
---------------------------------------------------------------
Pair    | 12.313     | 12.405     | 12.525     |   1.6 | 73.77
Neigh   | 0          | 0          | 0          |   0.0 |  0.00
Comm    | 0.30998    | 0.43289    | 0.52498    |   8.7 |  2.57
Output  | 0.0014568  | 0.0021938  | 0.0033859  |   1.3 |  0.01
Modify  | 3.9114     | 3.9125     | 3.9165     |   0.1 | 23.27
Other   |            | 0.06328    |            |       |  0.38

Nlocal:    6.125 ave 7 max 6 min
Histogram: 7 0 0 0 0 0 0 0 0 1
Nghost:    600 ave 610 max 591 min
Histogram: 1 2 0 0 0 1 2 1 0 1
Neighs:    785.25 ave 897 max 762 min
Histogram: 5 2 0 0 0 0 0 0 0 1

Total # of neighbors = 6282
Ave neighs/atom = 128.204
Neighbor list builds = 0
Dangerous builds = 0

###
fix 1 all box/relax aniso 0.0
min_style cg
minimize 1.0e-8 1.0e-8 100000 100000
WARNING: Using 'neigh_modify every 1 delay 0 check yes' setting during minimization (../min.cpp:190)
WARNING: Total cutoff < 2*bond cutoff. May need to use an increased neighbor list skin. (../pair_reaxc.cpp:413)
Per MPI rank memory allocation (min/avg/max) = 18.75 | 18.85 | 19.01 Mbytes
Step Temp E_pair E_mol TotEng Press Volume 
     275            0   -8727.4442            0   -8727.4442    13640.264     1331.242 
     577            0   -8729.4413            0   -8729.4413    150.13568    1337.8542 
Loop time of 5.31754 on 8 procs for 302 steps with 49 atoms

99.4% CPU use with 8 MPI tasks x no OpenMP threads

Minimization stats:
  Stopping criterion = energy tolerance
  Energy initial, next-to-last, final = 
        -8727.44416614     -8729.44125473      -8729.4413135
  Force two-norm initial, final = 462.627 30.2974
  Force max component initial, final = 307.428 7.63078
  Final line search alpha, max atom move = 5.89309e-06 4.49688e-05
  Iterations, force evaluations = 302 531

MPI task timing breakdown:
Section |  min time  |  avg time  |  max time  |%varavg| %total
---------------------------------------------------------------
Pair    | 4.2072     | 4.2195     | 4.2362     |   0.5 | 79.35
Neigh   | 0          | 0          | 0          |   0.0 |  0.00
Comm    | 0.10802    | 0.12435    | 0.13643    |   2.9 |  2.34
Output  | 0.0022982  | 0.0034507  | 0.0054079  |   1.6 |  0.06
Modify  | 0.91324    | 0.91374    | 0.91501    |   0.1 | 17.18
Other   |            | 0.0565     |            |       |  1.06

Nlocal:    6.125 ave 7 max 6 min
Histogram: 7 0 0 0 0 0 0 0 0 1
Nghost:    602.5 ave 611 max 593 min
Histogram: 1 1 1 0 0 2 0 0 1 2
Neighs:    784.75 ave 890 max 761 min
Histogram: 6 1 0 0 0 0 0 0 0 1

Total # of neighbors = 6278
Ave neighs/atom = 128.122
Neighbor list builds = 0
Dangerous builds = 0

unfix 1
###
min_style cg
minimize 1.0e-8 1.0e-8 100000 100000
WARNING: Using 'neigh_modify every 1 delay 0 check yes' setting during minimization (../min.cpp:190)
WARNING: Total cutoff < 2*bond cutoff. May need to use an increased neighbor list skin. (../pair_reaxc.cpp:413)
Per MPI rank memory allocation (min/avg/max) = 18.75 | 18.85 | 19.01 Mbytes
Step Temp E_pair E_mol TotEng Press 
     577            0   -8729.4413            0   -8729.4413    150.13568 
     832            0   -8759.3784            0   -8759.3784     27210.43 
Loop time of 21.8624 on 8 procs for 255 steps with 49 atoms

99.6% CPU use with 8 MPI tasks x no OpenMP threads

Minimization stats:
  Stopping criterion = energy tolerance
  Energy initial, next-to-last, final = 
         -8729.4413135     -8759.37838839      -8759.3783889
  Force two-norm initial, final = 29.8463 83.9069
  Force max component initial, final = 7.63078 34.1476
  Final line search alpha, max atom move = 0.000423687 0.0144679
  Iterations, force evaluations = 255 1963

MPI task timing breakdown:
Section |  min time  |  avg time  |  max time  |%varavg| %total
---------------------------------------------------------------
Pair    | 15.379     | 15.663     | 15.821     |   3.2 | 71.64
Neigh   | 0          | 0          | 0          |   0.0 |  0.00
Comm    | 0.41517    | 0.56945    | 0.85156    |  16.7 |  2.60
Output  | 0.0023876  | 0.0031442  | 0.004745   |   1.3 |  0.01
Modify  | 5.5435     | 5.5446     | 5.5501     |   0.1 | 25.36
Other   |            | 0.08233    |            |       |  0.38

Nlocal:    6.125 ave 7 max 6 min
Histogram: 7 0 0 0 0 0 0 0 0 1
Nghost:    606.875 ave 624 max 597 min
Histogram: 2 0 3 0 1 0 1 0 0 1
Neighs:    778 ave 881 max 756 min
Histogram: 5 2 0 0 0 0 0 0 0 1

Total # of neighbors = 6224
Ave neighs/atom = 127.02
Neighbor list builds = 0
Dangerous builds = 0

###
fix 1 all box/relax aniso 0.0
min_style cg
minimize 1.0e-8 1.0e-8 100000 100000
WARNING: Using 'neigh_modify every 1 delay 0 check yes' setting during minimization (../min.cpp:190)
WARNING: Total cutoff < 2*bond cutoff. May need to use an increased neighbor list skin. (../pair_reaxc.cpp:413)
Per MPI rank memory allocation (min/avg/max) = 18.75 | 18.85 | 19.01 Mbytes
Step Temp E_pair E_mol TotEng Press Volume 
     832            0   -8759.3784            0   -8759.3784     27210.43    1337.8542 
    2239            0   -8785.0876            0   -8785.0876    187.22981    1353.2785 
Loop time of 20.3409 on 8 procs for 1407 steps with 49 atoms

99.6% CPU use with 8 MPI tasks x no OpenMP threads

Minimization stats:
  Stopping criterion = energy tolerance
  Energy initial, next-to-last, final = 
         -8759.3783889      -8785.0874861     -8785.08755595
  Force two-norm initial, final = 924.432 13.8574
  Force max component initial, final = 566.738 5.31855
  Final line search alpha, max atom move = 1.87671e-05 9.98139e-05
  Iterations, force evaluations = 1407 2028

MPI task timing breakdown:
Section |  min time  |  avg time  |  max time  |%varavg| %total
---------------------------------------------------------------
Pair    | 15.74      | 16.038     | 16.188     |   3.4 | 78.85
Neigh   | 0          | 0          | 0          |   0.0 |  0.00
Comm    | 0.40498    | 0.55408    | 0.8533     |  18.1 |  2.72
Output  | 0.010899   | 0.014327   | 0.021418   |   2.6 |  0.07
Modify  | 3.5102     | 3.5116     | 3.5166     |   0.1 | 17.26
Other   |            | 0.2228     |            |       |  1.10

Nlocal:    6.125 ave 7 max 6 min
Histogram: 7 0 0 0 0 0 0 0 0 1
Nghost:    600.625 ave 615 max 591 min
Histogram: 1 1 2 0 0 3 0 0 0 1
Neighs:    783.75 ave 886 max 761 min
Histogram: 5 2 0 0 0 0 0 0 0 1

Total # of neighbors = 6270
Ave neighs/atom = 127.959
Neighbor list builds = 0
Dangerous builds = 0

unfix 1
###
min_style cg
minimize 1.0e-8 1.0e-8 100000 100000
WARNING: Using 'neigh_modify every 1 delay 0 check yes' setting during minimization (../min.cpp:190)
WARNING: Total cutoff < 2*bond cutoff. May need to use an increased neighbor list skin. (../pair_reaxc.cpp:413)
Per MPI rank memory allocation (min/avg/max) = 18.75 | 18.85 | 19.01 Mbytes
Step Temp E_pair E_mol TotEng Press 
    2239            0   -8785.0876            0   -8785.0876    187.22981 
    2243            0   -8785.0933            0   -8785.0933   -94.577685 
Loop time of 0.385592 on 8 procs for 4 steps with 49 atoms

99.8% CPU use with 8 MPI tasks x no OpenMP threads

Minimization stats:
  Stopping criterion = energy tolerance
  Energy initial, next-to-last, final = 
        -8785.08755595     -8785.09325347     -8785.09329399
  Force two-norm initial, final = 12.0811 8.92934
  Force max component initial, final = 3.777 2.41294
  Final line search alpha, max atom move = 0.000933382 0.00225219
  Iterations, force evaluations = 4 35

MPI task timing breakdown:
Section |  min time  |  avg time  |  max time  |%varavg| %total
---------------------------------------------------------------
Pair    | 0.27242    | 0.27609    | 0.27823    |   0.4 | 71.60
Neigh   | 0          | 0          | 0          |   0.0 |  0.00
Comm    | 0.007752   | 0.0098264  | 0.013483   |   2.0 |  2.55
Output  | 6.5997e-05 | 8.2985e-05 | 0.00012026 |   0.0 |  0.02
Modify  | 0.097885   | 0.097919   | 0.098036   |   0.0 | 25.39
Other   |            | 0.001669   |            |       |  0.43

Nlocal:    6.125 ave 7 max 6 min
Histogram: 7 0 0 0 0 0 0 0 0 1
Nghost:    580 ave 590 max 572 min
Histogram: 2 0 0 2 0 1 1 1 0 1
Neighs:    773.5 ave 878 max 746 min
Histogram: 4 3 0 0 0 0 0 0 0 1

Total # of neighbors = 6188
Ave neighs/atom = 126.286
Neighbor list builds = 0
Dangerous builds = 0

undump 1
#############
#----------- Thermo ------------
reset_timestep 0
thermo  200

thermo_style    custom step temp etotal ke pe press
velocity all create 300 12345 mom yes rot yes
fix 1 all npt temp 300 300 25.0 iso 0.0 0.0 250.0

variable vpe equal pe
variable vtemp equal temp
variable vstep equal step

fix output all print 2500 "${vstep} ${vtemp} ${vpe}" file temp-tpdh-Pt.dat screen no

dump 1 all custom 2500 thermo-tpdh-Pt.lammpstrj id type x y z

run 1000000
WARNING: Total cutoff < 2*bond cutoff. May need to use an increased neighbor list skin. (../pair_reaxc.cpp:413)
Per MPI rank memory allocation (min/avg/max) = 17.63 | 17.73 | 17.89 Mbytes
Step Temp TotEng KinEng PotEng Press 
       0          300   -8742.1696    42.923665   -8785.0933     1355.337 
     200    236.45798   -8724.1024    33.832144   -8757.9345   -12750.396 
     400     291.5396   -8697.2647    41.713161   -8738.9778   -16435.106 
     600    337.62913   -8693.4989    48.307599   -8741.8065   -2665.4033 
     800    262.43714   -8709.0087    37.549212   -8746.5579    53789.153 
    1000    281.00022    -8695.367    40.205197   -8735.5722   -2498.4943 
    1200    318.96889   -8691.5775    45.637713   -8737.2152   -7723.3403 
    1400    290.93032   -8704.1783    41.625985   -8745.8042   -16384.339 
    1600    297.31262   -8696.7717    42.539157   -8739.3109   -17066.105 
    1800    322.42982   -8681.7082    46.132899   -8727.8411    20688.712 
    2000    332.12171   -8691.1633    47.519604   -8738.6829     -3971.02 
    2200    298.01191   -8702.7469     42.63921   -8745.3861    48820.776 
    2400    283.49312    -8706.344    40.561879   -8746.9059   -7657.1041 
    2600    319.04103   -8698.3909    45.648033    -8744.039    9178.8227 
    2800    312.04821   -8690.4244    44.647509   -8735.0719    6856.9301 
    3000    310.31414   -8707.7314      44.3994   -8752.1308    13069.528 
    3200     296.9719   -8697.3939    42.490408   -8739.8843    14568.809 
    3400    282.38785   -8699.5409    40.403738   -8739.9447   -38886.704 
    3600    281.57377   -8705.5449     40.28726   -8745.8321   -21348.494 
    3800    322.87753   -8689.4597    46.196956   -8735.6567    27459.922 
    4000     261.5309   -8700.4379    37.419548   -8737.8574    801.64886 
    4200    289.14647   -8705.7461    41.370754   -8747.1168    3853.3991 
    4400    385.85025    -8686.867    55.207023    -8742.074    8069.9094 
    4600    333.35781   -8698.7434    47.696463   -8746.4399   -47195.949 
    4800    297.91455   -8701.6842     42.62528   -8744.3095   -346.08513 
    5000    264.28808   -8699.2643    37.814043   -8737.0784    29537.535 
    5200    362.61454   -8685.4881    51.882483   -8737.3705   -3630.4025 
    5400    283.66247   -8704.1797     40.58611   -8744.7658    -30427.51 
    5600    311.28543   -8697.0417    44.538372     -8741.58   -29226.781 
    5800    333.34275    -8692.875    47.694309   -8740.5693   -55139.071 
    6000    322.14865   -8705.4549    46.092668   -8751.5476   -34725.745 
    6200    273.51565     -8706.91    39.134313   -8746.0443   -22361.013 
    6400     343.5706   -8689.9014    49.157697   -8739.0591   -45561.373 
    6600    312.59909   -8699.5403    44.726328   -8744.2666    7107.1394 
    6800    330.29735   -8700.6156    47.258576   -8747.8742    28380.451 
    7000    346.88314   -8691.5099    49.631652   -8741.1415    3858.6154 
    7200    289.80766   -8704.6796    41.465356    -8746.145    485.72676 
    7400    302.47518   -8703.8689     43.27781   -8747.1467    -31530.39 
    7600    325.72215   -8686.1513    46.603961   -8732.7553   -36025.548 
    7800    337.11894   -8701.0113    48.234601   -8749.2459    -29188.58 
    8000    310.71508   -8701.8413    44.456767   -8746.2981   -2414.7994 
    8200    298.61403   -8697.9961    42.725362   -8740.7215      23075.8 
    8400    265.67053   -8712.1045    38.011842   -8750.1163    33137.928 
    8600    308.05177   -8695.8997    44.075703   -8739.9754   -11917.114 
    8800    272.53705   -8700.0014    38.994297   -8738.9957   -3973.8219 
    9000    271.17965   -8700.1839    38.800082    -8738.984   -13273.545 
    9200    265.55626   -8710.8653    37.995493   -8748.8608   -16342.846 
    9400    300.24579   -8694.1923    42.958833   -8737.1512    6205.7764 
    9600    311.24187   -8691.8852    44.532139   -8736.4174   -10258.996 
    9800     282.6689   -8709.0595     40.44395   -8749.5035    20104.272 
   10000    317.27276   -8698.3241    45.395032   -8743.7192    17949.279 
   10200    289.08901   -8699.0474    41.362532   -8740.4099    34097.634 
   10400     292.1561   -8707.2293    41.801369   -8749.0307    2454.0029 
   10600    332.82417   -8700.7491     47.62011   -8748.3692   -3890.7152 
   10800    323.60406   -8692.2124    46.300907   -8738.5133    5061.6577 
   11000    363.27552   -8692.0005    51.977056   -8743.9775   -32342.076 
   11200    268.90577   -8702.9597    38.474738   -8741.4344    -26646.24 
   11400    335.33761    -8697.494    47.979731   -8745.4738    17450.429 
   11600    289.87594   -8691.8561    41.475126   -8733.3313    4610.0982 
   11800    280.14482   -8706.9008    40.082807   -8746.9836    3689.8306 
   12000    333.67078   -8699.5311    47.741242   -8747.2724    14166.782 
   12200    323.55596   -8689.2776    46.294026   -8735.5716     8521.913 
   12400     258.8727   -8707.0417    37.039217   -8744.0809   -33019.015 
   12600    336.20928   -8696.6361    48.104449   -8744.7405   -7389.4181 
   12800    346.79085   -8682.5039    49.618447   -8732.1224   -12108.005 
   13000     290.5364   -8705.4283    41.569623   -8746.9979   -18791.835 
   13200    298.58586   -8695.3626    42.721331   -8738.0839    10852.769 
   13400    301.73679   -8695.5087    43.172163   -8738.6808   -43095.542 
   13600    316.89757   -8700.8656     45.34135    -8746.207    25785.704 
   13800    274.99591   -8704.4328    39.346107   -8743.7789   -10260.559 
   14000    223.47023   -8713.8082    31.973871   -8745.7821   -5017.7731 
   14200    331.20928   -8695.8671    47.389053   -8743.2562   -11460.174 
   14400    306.42366   -8698.5033    43.842754    -8742.346   -38347.459 
   14600    268.89045   -8710.5879    38.472545   -8749.0605    43995.385 
   14800    322.06047   -8689.3775    46.080052   -8735.4576    9935.3173 
   15000    280.75766   -8699.0952    40.170492   -8739.2657    21665.381 
   15200    249.89572    -8711.018      35.7548   -8746.7728    -4648.759 
   15400    279.19091    -8708.992    39.946324   -8748.9383   -29374.977 
   15600    350.18489   -8699.5034    50.104063   -8749.6075    12982.048 
   15800    212.64706   -8708.7494    30.425303   -8739.1747    -11685.73 
   16000    323.72892   -8691.9883    46.318772   -8738.3071    3146.0304 
   16200    255.39238   -8698.6493    36.541257   -8735.1906    -18497.71 
   16400    258.74434   -8715.1669    37.020851   -8752.1877     9797.187 
   16600    282.74848   -8705.2905    40.455336   -8745.7458    -8867.274 
   16800    272.95532   -8698.1164    39.054142   -8737.1705   -16256.942 
   17000    364.25396   -8689.0246     52.11705   -8741.1416     17477.29 
   17200    298.25801   -8703.0928    42.674422   -8745.7672   -13069.025 
   17400    267.47761     -8705.96    38.270398   -8744.2304   -20440.486 
   17600    364.17825   -8689.9381    52.106217   -8742.0443    19359.513 
   17800    248.93288   -8695.3019    35.617038   -8730.9189    36371.082 
   18000    322.85856   -8704.2093    46.194242   -8750.4035   -9875.8008 
   18200    252.67905   -8706.4961    36.153035   -8742.6491    -2761.239 
   18400    276.06149   -8698.1006    39.498569   -8737.5992   -2541.5139 
   18600      282.971   -8706.1999    40.487174   -8746.6871     4125.715 
   18800    296.84264   -8687.4296    42.471914   -8729.9015   -8857.4147 
   19000    324.41834   -8700.0368    46.417414   -8746.4542     5276.957 
   19200    279.30501   -8700.9329    39.962648   -8740.8955    8791.1936 
   19400     285.7382   -8701.1925    40.883102   -8742.0756    26200.854 
   19600    387.26533   -8681.5068    55.409491   -8736.9163     -9847.84 
   19800    298.19613   -8699.4499    42.665569   -8742.1154    36714.797 
   20000    293.10971   -8706.8576     41.93781   -8748.7954   -12459.082 
   20200     268.4861   -8709.0947    38.414691   -8747.5094    24627.914 
   20400    334.60236   -8692.4575    47.874532    -8740.332   -1417.5237 
   20600    282.27232    -8705.453    40.387208   -8745.8402    4668.1505 
   20800    274.81754   -8710.9527    39.320586   -8750.2733    23093.156 
   21000    287.81015    -8699.058    41.179555   -8740.2375     6351.862 
   21200    358.31212    -8697.662    51.266897   -8748.9289   -22805.127 
   21400    267.77621   -8703.4654     38.31312   -8741.7785   -19268.809 
   21600    320.88426   -8697.3424    45.911761   -8743.2542   -3824.2574 
   21800    241.41567   -8712.6242    34.541485   -8747.1657    8204.5313 
   22000    263.57762   -8705.8515    37.712391   -8743.5639    29675.543 
   22200    283.18293    -8699.272    40.517497   -8739.7895    8794.0653 
   22400    344.20762   -8698.3672    49.248841    -8747.616   -9407.4437 
   22600    255.30775   -8710.1878    36.529147   -8746.7169    15794.434 
   22800    312.69272   -8697.8862    44.739725   -8742.6259   -38047.432 
   23000    257.06168   -8701.6725    36.780098   -8738.4526   -32767.047 
   23200    288.19338   -8707.0853    41.234387   -8748.3197    -44924.34 
   23400     304.6467   -8700.9494     43.58851   -8744.5379   -3753.9995 
   23600     337.0542   -8691.1643    48.225338   -8739.3897   -34249.972 
   23800    268.68912   -8702.8888     38.44374   -8741.3326   -16770.317 
   24000    317.04649   -8698.2006    45.362658   -8743.5632   -36905.573 
   24200    237.07493    -8713.765    33.920415   -8747.6854     13654.95 
   24400    279.48973    -8706.614    39.989079   -8746.6031    -16845.58 
   24600    335.78254   -8696.8014     48.04339   -8744.8448    6766.3352 
   24800     300.2654   -8698.7887    42.961637   -8741.7503    7240.0795 
   25000    263.52653   -8708.4889    37.705081   -8746.1939    1080.5744 
   25200    304.29933   -8695.6175    43.538808   -8739.1563   -41082.221 
   25400    276.14757   -8707.2131    39.510885    -8746.724    21740.205 
   25600    298.54358   -8705.7217    42.715282    -8748.437   -7744.4643 
   25800    295.17905   -8696.3623    42.233888   -8738.5961    18428.374 
   26000    325.00696   -8703.0822    46.501633   -8749.5839    32904.745 
   26200    281.81242   -8716.3701    40.321406   -8756.6915   -7961.6322 
   26400    316.94029   -8705.6676    45.347462    -8751.015    16552.468 
   26600    302.32701   -8693.4054    43.256611    -8736.662   -6478.4045 
   26800    271.56578   -8704.6361    38.855328   -8743.4914   -9686.3771 
   27000    233.31779   -8707.2818    33.382849   -8740.6647   -12889.447 
   27200     283.8512   -8694.1186    40.613113   -8734.7317    2240.3022 
   27400    306.41885   -8697.5151    43.842066   -8741.3572    6919.5597 
   27600    227.67375   -8716.4132    32.575305   -8748.9885   -32563.933 
   27800     283.2511   -8703.2707    40.527251    -8743.798    4229.6763 
   28000    289.79672   -8695.9497    41.463791   -8737.4135     9901.419 
   28200    303.89582   -8704.7735    43.481074   -8748.2545    3316.6438 
   28400    288.71962   -8706.4535    41.309681   -8747.7632    24840.983 
   28600    253.54924   -8696.3871    36.277542   -8732.6646     23258.79 
   28800    323.86489   -8701.9599    46.338226   -8748.2982    18814.258 
   29000    215.10731   -8719.4644    30.777314   -8750.2417   -35124.968 
   29200    295.18266   -8707.8794    42.234406   -8750.1138   -13700.253 
   29400    310.17538   -8695.5436    44.379547   -8739.9232   -19090.962 
   29600     320.8034    -8695.498    45.900193   -8741.3982    -18739.73 
   29800    286.71136   -8712.3831    41.022342   -8753.4054     25151.04 
   30000    318.65151    -8696.131    45.592302   -8741.7233   -2275.9292 
   30200    289.65387   -8701.6381    41.443352   -8743.0815    19612.441 
   30400    279.80471   -8715.9581    40.034146   -8755.9923    23133.048 
   30600    297.09357   -8704.4578    42.507816   -8746.9656   -3696.7768 
   30800    305.70867   -8694.0998    43.740455   -8737.8403   -25639.452 
   31000    315.76507   -8694.9169    45.179313   -8740.0962    32457.017 
   31200     265.5746    -8707.328    37.998117   -8745.3261     6832.029 
   31400    308.56814    -8693.708    44.149584   -8737.8576    17705.553 
   31600     274.2401    -8699.255    39.237967    -8738.493    526.89996 
   31800    240.31167   -8719.0228    34.383526   -8753.4063     10505.76 
   32000    302.62525   -8708.7866    43.299282   -8752.0858   -30493.372 
   32200    311.06223   -8695.3533    44.506437   -8739.8597   -23990.174 
   32400    269.91195   -8706.2585      38.6187   -8744.8772    5094.5007 
   32600    322.27871    -8700.938    46.111278   -8747.0493   -1825.0606 
   32800    255.39959   -8696.5721    36.542288   -8733.1144    7164.9405 
   33000    285.72332   -8702.4368    40.880973   -8743.3178    4121.9756 
   33200    371.69962   -8686.2682    53.182366   -8739.4506    13965.962 
   33400    268.47822   -8703.3466    38.413564   -8741.7601   -17164.763 
   33600    336.90913   -8697.2424    48.204581    -8745.447   -2908.5322 
   33800    368.72934   -8684.3797    52.757382   -8737.1371   -15158.194 
   34000    259.90263   -8703.9184    37.186578    -8741.105    8533.1718 
   34200     254.3602     -8699.46    36.393573   -8735.8535    15316.001 
   34400    390.04455   -8683.1123    55.807139   -8738.9194    23563.886 
   34600    256.22717   -8702.3808    36.660697   -8739.0415   -1904.4131 
   34800    288.81324   -8702.8134    41.323076   -8744.1365   -19072.042 
   35000    265.64042   -8705.9563    38.007535   -8743.9638    51148.958 
   35200    315.86832   -8693.0397    45.194086   -8738.2338    3787.9928 
   35400     330.3826   -8691.2233    47.270774   -8738.4941   -12334.263 
   35600    276.75608   -8707.3747    39.597951   -8746.9726    -20622.12 
   35800    327.21541   -8697.8558    46.817615   -8744.6734    36107.459 
   36000    336.07001   -8692.7309    48.084521   -8740.8154   -42222.018 
   36200    300.06052   -8704.2083    42.932323   -8747.1406     34042.86 
   36400    328.24066   -8687.2571    46.964307   -8734.2214    14854.549 
   36600    354.21993   -8690.0781    50.681392   -8740.7595    12560.707 
   36800     265.1441   -8704.0997    37.936522   -8742.0362     -43863.1 
   37000    364.78911    -8691.404    52.193618   -8743.5976   -31441.734 
   37200    309.29227   -8701.0543    44.253192   -8745.3074    8651.4387 
   37400    332.68591    -8702.969    47.600328   -8750.5694    10838.904 
   37600    325.19958   -8691.0905    46.529193   -8737.6197   -15022.786 
   37800    265.38127   -8702.3465    37.970456    -8740.317    6609.8427 
   38000    288.44306   -8707.5931    41.270111   -8748.8632      1618.01 
   38200    337.17593   -8686.9786    48.242756   -8735.2214    16621.285 
   38400    311.25005   -8698.7742    44.533309   -8743.3075    20999.957 
   38600    329.82457   -8703.4517    47.190931   -8750.6427    13418.618 
   38800    373.51582   -8682.9804    53.442226   -8736.4226   -5099.6977 
   39000    301.73345   -8696.1142    43.171684   -8739.2859    26201.432 
   39200    272.75114   -8702.9251    39.024928     -8741.95   -11196.934 
   39400    235.45636   -8706.8895    33.688833   -8740.5783   -8159.7287 
   39600    361.67825   -8689.3661     51.74852   -8741.1146    46405.488 
   39800    314.20765   -8703.4806     44.95648   -8748.4371    1457.6471 
   40000     306.7964   -8702.8252    43.896086   -8746.7213    774.92052 
   40200    241.63581   -8697.2375    34.572981   -8731.8105    1509.8166 
   40400    266.15091   -8708.8041    38.080575   -8746.8846   -4805.5176 
   40600    277.08637   -8700.8082    39.645208   -8740.4534    20027.632 
   40800    332.74093   -8695.9718      47.6082     -8743.58    4407.3061 
   41000    260.13213   -8713.1232    37.219415   -8750.3426    11253.149 
   41200    351.64761   -8693.3116    50.313347    -8743.625    5402.3334 
   41400    299.51552   -8698.4814    42.854346   -8741.3357   -1348.1002 
   41600    267.37629   -8710.8788    38.255901   -8749.1347    19442.008 
   41800    249.98965    -8707.469     35.76824   -8743.2373   -242.92702 
   42000    314.29151   -8694.9205    44.968478    -8739.889   -21743.594 
   42200    302.55206   -8708.7405    43.288811   -8752.0293    21360.815 
   42400    295.13949   -8702.6643    42.228229   -8744.8925   -12260.449 
   42600     344.4161   -8700.2058     49.27867   -8749.4845   -33871.004 
   42800    357.97304   -8684.7058    51.218383   -8735.9242    -7224.594 
   43000    306.80838   -8694.3119    43.897801   -8738.2097    -8249.385 
   43200    229.42389   -8707.7502    32.825714   -8740.5759   -12359.848 
   43400    275.76443   -8692.9263    39.456067   -8732.3824    52504.947 
   43600    290.45237   -8698.4364    41.557601    -8739.994    2328.4237 
   43800    259.45738   -8708.5298    37.122873   -8745.6527    6320.4214 
   44000     355.7027   -8694.0033    50.893544   -8744.8969   -23127.697 
   44200    244.37296    -8702.329     34.96461   -8737.2936   -8289.8254 
   44400    369.14251   -8682.2906    52.816498   -8735.1071   -17880.569 
   44600    257.11333   -8697.1155    36.787488    -8733.903   -15867.849 
   44800     284.7865    -8704.119    40.746934   -8744.8659    4436.3172 
   45000    316.17146   -8701.8791    45.237459   -8747.1165   -20099.333 
   45200     308.0884   -8694.8675    44.080944   -8738.9484    19935.619 
   45400    252.37133   -8710.1876    36.109008   -8746.2966   -10016.034 
   45600    300.76425     -8701.11    43.033013   -8744.1431    -30971.02 
   45800    295.37433   -8701.1115    42.261829   -8743.3733    20589.517 
   46000    266.16088   -8712.3001    38.082001   -8750.3822   -16914.662 
   46200    299.75003   -8700.4078    42.887899   -8743.2957   -7190.6445 
   46400    319.85638   -8696.8173    45.764693    -8742.582    9272.0554 
   46600    238.22227   -8709.1088    34.084576   -8743.1933   -4229.1905 
   46800    257.58984   -8709.0546    36.855667   -8745.9103   -22697.776 
   47000    316.17066   -8692.7098    45.237345   -8737.9472   -48788.278 
   47200    361.64178   -8701.4026    51.743302   -8753.1459    5332.5836 
   47400    276.06505   -8707.6162    39.499079   -8747.1153    -20253.87 
   47600     339.8803   -8695.6066    48.629693   -8744.2363   -21193.765 
   47800    312.38056   -8703.5365    44.695062   -8748.2316      32840.4 
   48000    275.27108   -8708.6509    39.385479   -8748.0364   -12787.161 
   48200    250.14158   -8697.7445    35.789978   -8733.5345   -7293.1519 
   48400    318.23569   -8683.5869    45.532808   -8729.1197    -16041.17 
   48600     299.3476   -8692.9352     42.83032   -8735.7656    11252.469 
   48800     277.2879    -8704.938    39.674043   -8744.6121    1228.9259 
   49000    341.32212   -8702.2962    48.835987   -8751.1322    4052.6966 
   49200    275.00202   -8693.9363    39.346982   -8733.2833    -14786.82 
   49400    273.56935    -8707.283    39.141996    -8746.425    13044.527 
   49600    320.84023   -8694.9717    45.905462   -8740.8771   -8426.0057 
   49800    274.80643   -8696.8249    39.318996   -8736.1438   -10656.163 
   50000    246.83522   -8704.8826    35.316907   -8740.1995    5803.1152 
   50200    282.98151   -8688.7718    40.488678   -8729.2605   -26419.942 
   50400    331.06508   -8696.2392    47.368421   -8743.6076    20219.247 
   50600    332.77477   -8702.3942    47.613041   -8750.0072   -6696.7051 
   50800    272.21812   -8696.5067    38.948664   -8735.4554    24310.964 
   51000    340.95595   -8688.8218    48.783597   -8737.6054    30795.333 
   51200    262.09683   -8703.3923    37.500521   -8740.8928    9102.3138 
   51400    289.69188   -8702.9027    41.448791   -8744.3515    497.78655 
   51600    329.63815   -8685.7409    47.164259   -8732.9052   -26971.181 
   51800    287.37977    -8701.613    41.117976   -8742.7309    19901.078 
   52000     279.0443   -8699.2873    39.925347   -8739.2127   -5349.9764 
   52200    407.36633   -8682.8565    58.285519    -8741.142    7877.2018 
   52400    298.08757   -8698.7005    42.650036   -8741.3505   -1511.2466 
   52600    273.82297   -8704.9973    39.178285   -8744.1755   -12903.015 
   52800    339.77896   -8689.2813    48.615194   -8737.8965    14624.158 
   53000    295.67614   -8696.7955    42.305012   -8739.1006    1948.7432 
   53200    304.81373   -8699.6774    43.612407   -8743.2898    10974.197 
   53400    210.28782   -8712.8931    30.087746   -8742.9808    30535.587 
   53600     309.4477    -8703.799    44.275431   -8748.0744    6366.3147 
   53800    257.52851   -8698.0711    36.846891    -8734.918   -10522.393 
   54000     366.5046   -8692.8867    52.439069   -8745.3258   -9002.5022 
   54200    261.78938   -8705.1076    37.456531   -8742.5641    8115.4813 
   54400    283.51091   -8706.0678    40.564424   -8746.6322    5875.2803 
   54600    306.08547   -8699.1894    43.794367   -8742.9838   -32528.408 
   54800    344.37932   -8696.9598    49.273408   -8746.2332   -11026.604 
   55000     354.0593   -8685.4204    50.658408   -8736.0788   -1351.3262 
   55200    289.55092   -8704.0227    41.428623   -8745.4513   -10684.541 
   55400    321.52813   -8697.9713    46.003886   -8743.9752   -3445.5211 
   55600    344.76531   -8686.1763    49.328636    -8735.505    2187.8995 
   55800    285.92108   -8706.3262    40.909268   -8747.2355    10615.902 
   56000    274.10625   -8696.3117    39.218816   -8735.5305    1226.9808 
   56200    354.84356   -8698.2074     50.77062    -8748.978    -25730.18 
   56400    276.01449   -8701.9489    39.491845   -8741.4408   -15777.039 
   56600    339.67883   -8695.7372    48.600867   -8744.3381   -3164.0685 
   56800     409.1885   -8685.1056    58.546233   -8743.6518    6744.3622 
   57000    302.18197   -8704.8341    43.235858     -8748.07    3517.5064 
   57200    303.01666    -8697.677    43.355285   -8741.0323   -36500.528 
   57400     321.3147   -8684.5427    45.973348    -8730.516    18064.236 
   57600    268.22054    -8704.089    38.376696   -8742.4657   -7957.4803 
   57800    294.43082   -8704.4327    42.126832   -8746.5595    16310.943 
   58000    350.20323   -8686.8797    50.106687   -8736.9864    5644.1551 
   58200    279.64626   -8700.9883    40.011474   -8740.9997   -2803.5412 
   58400    286.35584   -8704.1811    40.971474   -8745.1525    6152.4994 
   58600    305.66895   -8699.1806    43.734772   -8742.9153   -8048.4635 
   58800    324.66859   -8691.8553    46.453219   -8738.3085    1967.1469 
   59000    320.14033   -8701.4139     45.80532   -8747.2192    17484.468 
   59200    281.34455   -8704.1716    40.254464   -8744.4261   -22790.818 
   59400     342.9311   -8688.8607    49.066198   -8737.9269   -10666.199 
   59600    388.50089   -8669.4478    55.586273   -8725.0341   -28545.524 
   59800    270.63602   -8695.7305    38.722299   -8734.4528   -40117.073 
   60000    275.60854   -8707.4313    39.433762    -8746.865    6898.8928 
   60200    299.64191   -8692.6915     42.87243   -8735.5639    11393.943 
   60400    275.08211   -8698.9689    39.358441   -8738.3273    33738.181 
   60600    272.25284   -8700.5958    38.953633   -8739.5494    22104.339 
   60800    297.99262   -8696.3168    42.636451   -8738.9532    20599.931 
   61000    313.65243   -8699.6044    44.877039   -8744.4814    1927.5931 
   61200    299.18517   -8707.3304     42.80708   -8750.1374   -7771.5818 
   61400    348.22634   -8692.3166    49.823836   -8742.1404    2552.4045 
   61600    289.88545   -8700.3083    41.476486   -8741.7848    4255.6833 
   61800    267.01289     -8714.99    38.203905   -8753.1939   -9462.2597 
   62000    276.26991   -8708.8848    39.528389   -8748.4132   -12920.844 
   62200    320.43848   -8698.2435    45.847979   -8744.0915    -4298.425 
   62400    312.40081   -8697.6848    44.697959   -8742.3827    18323.544 
   62600    280.33432   -8705.7447    40.109922   -8745.8547   -15402.456 
   62800    303.96721   -8694.5402    43.491289   -8738.0315   -12123.586 
   63000    260.06322   -8705.6593    37.209555   -8742.8689    -22351.36 
   63200    234.69121   -8719.2038    33.579356   -8752.7832   -3267.7584 
   63400    273.97227   -8704.0498    39.199646   -8743.2495    16632.966 
   63600    334.78021    -8691.292    47.899978   -8739.1919   -13144.272 
   63800    341.45831   -8704.9642    48.855473   -8753.8197     7205.217 
   64000    292.45278   -8706.1037    41.843817   -8747.9475    29009.992 
   64200    323.70117   -8691.8969    46.314801   -8738.2117   -3836.7115 
   64400    306.64432   -8697.9827    43.874327    -8741.857   -35283.858 
   64600    270.16528    -8701.866    38.654947   -8740.5209    30901.237 
   64800    352.11921   -8686.0411    50.380823   -8736.4219    9205.8328 
   65000    261.26154   -8702.5179    37.381009   -8739.8989    26536.204 
   65200     321.5016   -8703.4008    46.000089   -8749.4009    16483.284 
   65400    299.70464   -8688.0563    42.881404   -8730.9377    -35873.56 
   65600    322.86124   -8689.6217    46.194626   -8735.8163    34152.265 
   65800    313.98767   -8702.3806    44.925006   -8747.3056   -11531.537 
   66000    295.48726   -8696.0456    42.277987   -8738.3236    37970.901 
   66200    343.38876   -8686.2976     49.13168   -8735.4293    -35602.14 
   66400    316.88669   -8699.4191    45.339793   -8744.7589    -37228.22 
   66600    266.46373   -8702.0679    38.125332   -8740.1932    1685.6773 
   66800    356.43975   -8687.3218    50.999001   -8738.3208   -4192.7029 
   67000     254.1475   -8703.5251    36.363141   -8739.8882   -6119.7954 
   67200    321.09597    -8700.883    45.942052   -8746.8251   -13878.798 
   67400    373.90558   -8685.5119    53.497992   -8739.0098   -11175.662 
   67600    259.35315   -8701.2359    37.107959   -8738.3439   -13195.913 
   67800    302.32861     -8699.71     43.25684   -8742.9668    14949.762 
   68000    280.86703   -8700.4031    40.186141   -8740.5893    17848.038 
   68200    291.44524   -8701.3655    41.699659   -8743.0651    13585.327 
   68400    341.48538   -8692.4503    48.859347   -8741.3097   -29929.019 
   68600    251.12858   -8705.0841    35.931196   -8741.0153   -342.26572 
   68800    294.14032   -8703.3766    42.085268   -8745.4619    11450.609 
   69000    285.79929   -8698.0061    40.891843    -8738.898    5539.9768 
   69200    316.00635   -8691.7148    45.213836   -8736.9286   -15239.717 
   69400    278.63309   -8707.5295    39.866511    -8747.396   -17573.449 
   69600    339.62733   -8699.2268    48.593498   -8747.8203   -13029.854 
   69800    333.84323   -8686.8215    47.765916   -8734.5874    15973.371 
   70000    302.94883   -8703.8366    43.345579   -8747.1822   -1893.6305 
   70200      296.986    -8702.571    42.492425   -8745.0635     16416.25 
   70400    360.76553   -8681.6409    51.617928   -8733.2588   -32385.151 
   70600    298.92268   -8694.8673    42.769523   -8737.6368   -34038.646 
   70800    272.22309   -8705.5753    38.949376   -8744.5247   -26764.041 
   71000    341.25825   -8690.4758    48.826848   -8739.3027    -15367.38 
   71200    269.91263   -8708.6001    38.618797   -8747.2189   -3436.6159 
   71400    304.62678   -8702.6699     43.58566   -8746.2556     -8744.13 
   71600    306.81906   -8692.2922    43.899329   -8736.1915    3665.7754 
   71800    420.06721   -8686.8167    60.102747   -8746.9194    27003.347 
   72000    281.17733   -8701.6792    40.230538   -8741.9098   -11291.951 
   72200    316.36918   -8699.4273    45.265748    -8744.693   -14326.896 
   72400    367.44534   -8685.1419    52.573669   -8737.7156    -10858.75 
   72600    262.23689    -8705.602    37.520562   -8743.1226   -11511.204 
   72800    301.02785   -8698.9042    43.070728   -8741.9749   -491.69444 
   73000    307.21484   -8699.6264    43.955956   -8743.5824    9170.1496 
   73200    306.98446   -8706.3631    43.922993   -8750.2861   -9193.1345 
   73400    346.79121   -8692.5267    49.618499   -8742.1452   -8045.6025 
   73600     250.6321   -8692.4478    35.860161    -8728.308   -12956.715 
   73800    265.75132   -8707.3863    38.023402   -8745.4097   -31433.646 
   74000    258.73225    -8709.712    37.019121   -8746.7311     5483.837 
   74200    353.17176   -8690.3143    50.531421   -8740.8458    17677.144 
   74400    308.89015   -8702.0638    44.195657   -8746.2595   -32732.085 
   74600    299.51352   -8708.7252    42.854059   -8751.5793     16162.98 
   74800    305.19543   -8697.5292     43.66702   -8741.1962    10808.447 
   75000    307.62175   -8698.2065    44.014176   -8742.2206    -24985.05 
   75200    263.76879   -8716.4617    37.739744   -8754.2014   -26284.955 
   75400    294.01588   -8701.0258    42.067463   -8743.0933   -2657.5296 
   75600    317.70387    -8695.569    45.456714   -8741.0257    635.86318 
   75800     257.5278   -8704.0356    36.846789   -8740.8824    3605.4249 
   76000    263.43642   -8709.7303    37.692188   -8747.4225   -3626.2366 
   76200    341.96526   -8691.8098    48.928008   -8740.7378   -1620.6204 
   76400    274.23665   -8702.0643    39.237474   -8741.3018   -18377.625 
   76600    296.62723   -8707.2511    42.441092   -8749.6922    9128.8698 
   76800    345.47595   -8684.6591    49.430312   -8734.0894   -18275.262 
   77000    300.83154   -8701.5544    43.042641   -8744.5971    2916.4189 
   77200    214.87929   -8706.2355    30.744689   -8736.9802   -8262.7258 
   77400    349.61195   -8693.6174    50.022086   -8743.6395   -34536.307 
   77600    267.76058   -8700.2248    38.310884   -8738.5357    46834.972 
   77800    264.20081   -8708.3294    37.801556   -8746.1309    6580.4164 
   78000     293.2414    -8707.496    41.956652   -8749.4527    7908.9188 
   78200    285.59394   -8691.8501    40.862462   -8732.7126    27429.979 
   78400    239.72208    -8704.516    34.299167   -8738.8152   -8545.2649 
   78600    308.34262   -8704.9278    44.117318   -8749.0451    16114.303 
   78800     300.4545   -8693.5646    42.988693   -8736.5533    4861.8204 
   79000    310.30381   -8708.4935    44.397923   -8752.8915    22012.026 
   79200    293.33179   -8704.5364    41.969584   -8746.5059    10593.997 
   79400    322.91868   -8696.7576    46.202844   -8742.9604   -36171.431 
   79600    274.67935   -8707.5394    39.300815   -8746.8402    4002.6212 
   79800    291.35205   -8710.3935    41.686326   -8752.0798   -1893.7705 
   80000    307.01837   -8696.5122    43.927846   -8740.4401    3466.1296 
   80200    254.34954   -8702.1487    36.392048   -8738.5408    22152.483 
   80400    239.09902   -8711.1419     34.21002   -8745.3519   -24775.546 
   80600    323.15401   -8692.8541    46.236515   -8739.0906    74715.685 
   80800    300.99607   -8693.5591    43.066181   -8736.6253     34632.45 
   81000    275.86199   -8712.1325    39.470025   -8751.6025    3840.6841 
   81200      314.162   -8699.3212    44.949948   -8744.2712    2175.9334 
   81400    318.93372   -8696.1163     45.63268    -8741.749    65541.833 
   81600    203.72853   -8709.4151     29.14925   -8738.5643   -37561.478 
   81800    249.75374   -8709.4722    35.734486   -8745.2066   -5319.4459 
   82000    334.56567   -8693.2494    47.869283   -8741.1187   -3206.1645 
   82200    318.22015   -8701.8952    45.530583   -8747.4258   -3629.4536 
   82400    281.42591   -8708.3869    40.266104    -8748.653   -13077.379 
   82600    263.35095   -8699.0295     37.67996   -8736.7095    3911.9543 
   82800    287.34442   -8700.8478    41.112918   -8741.9607   -38559.018 
   83000    238.51232   -8714.7968    34.126076   -8748.9228   -23341.017 
   83200    293.30274   -8697.8545    41.965428   -8739.8199   -15836.315 
   83400     303.6834   -8700.9469    43.450682   -8744.3976    11181.878 
   83600    328.32206   -8691.9723    46.975954   -8738.9482    10721.071 
   83800    287.01008   -8700.3739    41.065081    -8741.439    4196.7734 
   84000    284.31617   -8705.8962     40.67964   -8746.5759    1700.7943 
   84200    355.50798   -8690.2581    50.865685   -8741.1238   -24906.303 
   84400      310.885   -8691.5568    44.481079   -8736.0379    38153.828 
   84600    279.60798   -8706.3597    40.005997   -8746.3657    8088.3028 
   84800    325.51769   -8692.7762    46.574707   -8739.3509    28105.667 
   85000    313.62408   -8698.7782    44.872984   -8743.6512    21456.173 
   85200    291.71665   -8703.4444    41.738492   -8745.1829    -31079.25 
   85400    318.02324   -8688.6486     45.50241    -8734.151    16360.972 
   85600    321.80874   -8687.7779    46.044034   -8733.8219   -7066.0861 
   85800    266.63127   -8700.8301    38.149304   -8738.9794   -7436.7196 
   86000    254.40815   -8707.6108    36.400433   -8744.0112   -23999.937 
   86200    348.46808   -8687.9519    49.858424   -8737.8103   -18998.391 
   86400    307.98909    -8699.674    44.066734   -8743.7407    20057.903 
   86600    269.65736   -8706.7514    38.582274   -8745.3337   -8383.5755 
   86800    322.56247    -8701.273    46.151877   -8747.4249    13006.328 
   87000    285.11293   -8700.7631     40.79364   -8741.5568    -7724.767 
   87200    289.41851   -8693.1976    41.409677   -8734.6073     -16273.6 
   87400    241.78212   -8708.1529    34.593916   -8742.7468    23712.893 
   87600    312.69684    -8693.593    44.740314   -8738.3333    29551.948 
   87800    303.22321   -8696.1891    43.384838   -8739.5739    9461.2662 
   88000    291.44632   -8702.1367    41.699813   -8743.8365    10861.802 
   88200    243.16396   -8709.2353    34.791628   -8744.0269     20312.74 
   88400    324.18774   -8694.3133    46.384419   -8740.6977    668.33686 
   88600     317.4474   -8700.3913     45.42002   -8745.8113   -3293.3597 
   88800    247.86049   -8714.5674    35.463602    -8750.031    7586.7633 
   89000    266.44495   -8712.8939    38.122645   -8751.0166    14901.481 
   89200     339.0041   -8695.5685    48.504328   -8744.0728    13992.986 
   89400    315.38882   -8694.8191     45.12548   -8739.9446     24849.17 
   89600    298.16481    -8707.941    42.661087   -8750.6021   -13946.883 
   89800    333.30556    -8697.781    47.688987     -8745.47   -19425.579 
   90000    317.14037   -8698.7712     45.37609   -8744.1473   -21984.582 
   90200    330.52397   -8699.0232       47.291   -8746.3142   -37343.205 
   90400    293.56373   -8701.5347     42.00277   -8743.5375    15677.057 
   90600    297.48919   -8707.8456    42.564422     -8750.41    2265.6032 
   90800    336.91737   -8696.8997    48.205761   -8745.1055    39468.953 
   91000    306.34537   -8694.5657    43.831553   -8738.3973   -32742.644 
   91200    268.58799   -8704.1625     38.42927   -8742.5917   -30186.862 
   91400    268.33258   -8701.1317    38.392726   -8739.5244   -35848.277 
   91600    318.02959   -8690.5195    45.503319   -8736.0228    27310.349 
   91800    265.39042   -8707.9585    37.971765   -8745.9303    20947.866 
   92000    327.53686   -8697.6522    46.863608   -8744.5158     29682.76 
   92200    327.25343    -8687.525    46.823055    -8734.348    -2685.257 
   92400    354.24557   -8697.0575     50.68506   -8747.7426   -39753.241 
   92600    291.76174    -8704.688    41.744944   -8746.4329     -16460.7 
   92800    310.17175   -8691.8391    44.379027   -8736.2181   -1410.2279 
   93000    320.38297   -8694.6999    45.840037   -8740.5399    21302.766 
   93200     292.1694    -8707.636    41.803271   -8749.4393   -17247.757 
   93400    265.19432   -8696.9187    37.943707   -8734.8624   -9329.8782 
   93600    347.23968   -8693.7347    49.682665   -8743.4174   -9898.9481 
   93800     274.8089   -8705.8647     39.31935   -8745.1841   -2951.4845 
   94000    255.61174   -8701.4061    36.572642   -8737.9787   -3337.5149 
   94200    316.43159   -8699.1339    45.274678   -8744.4085    -28045.52 
   94400    247.85928   -8703.7323    35.463428   -8739.1957   -23030.805 
   94600    221.28222   -8712.8246    31.660813   -8744.4854   -26643.868 
   94800     281.2674   -8696.2189    40.243425   -8736.4623    13813.584 
   95000    337.47943   -8699.0777    48.286179   -8747.3639   -16914.514 
   95200     256.8033     -8712.49    36.743129   -8749.2331   -11873.928 
   95400    319.72176   -8700.5521    45.745432   -8746.2975    28973.831 
   95600    302.03692   -8699.0302    43.215105   -8742.2453   -43797.559 
   95800    366.83758   -8691.7545    52.486711   -8744.2412    8382.6607 
   96000    325.26477    -8702.187    46.538519   -8748.7255   -8189.7971 
   96200    331.61782   -8703.6248    47.447508   -8751.0723    -526.7423 
   96400    344.68266   -8683.3682     49.31681    -8732.685    25623.463 
   96600    340.03866   -8693.8987    48.652351    -8742.551    18918.883 
   96800    298.19847   -8705.6289    42.665903   -8748.2948    2085.6951 
   97000    380.20262   -8692.4803    54.398966   -8746.8793    30429.108 
   97200    333.57208   -8695.2376     47.72712   -8742.9648    -21480.03 
   97400     281.0849   -8705.9973    40.217313   -8746.2146   -10153.374 
   97600    385.12424   -8687.6987    55.103145   -8742.8019   -32293.582 
   97800    300.65029   -8696.7268    43.016707   -8739.7435   -4264.8099 
   98000    341.13462   -8700.7609     48.80916   -8749.5701    18919.265 
   98200    220.91005   -8715.8279    31.607563   -8747.4355    11080.841 
   98400    264.94573   -8700.9441    37.908139   -8738.8523    4285.3746 
   98600    304.10646   -8698.3981    43.511212   -8741.9093   -2292.4533 
   98800    221.44083   -8713.6646    31.683506   -8745.3481    1995.8362 
   99000    299.44082   -8693.2398    42.843658   -8736.0834    17114.285 
   99200    279.26315   -8697.7366     39.95666   -8737.6933   -15663.217 
   99400    240.25689   -8717.1669    34.375688   -8751.5426     19.70863 
   99600     235.1903   -8708.4194    33.650765   -8742.0702    20133.758 
   99800    312.60104   -8697.1393    44.726608    -8741.866   -13906.569 
  100000    275.55075    -8701.506    39.425493   -8740.9315   -1411.3319 
  100200    217.00203   -8709.7908    31.048408   -8740.8392    5020.3856 
  100400    347.04748   -8692.6075    49.655166   -8742.2627    37880.334 
  100600    269.72742   -8701.2327    38.592298    -8739.825    26647.904 
  100800      323.012   -8703.8129    46.216195   -8750.0291   -11805.501 
  101000    271.48111   -8688.2817    38.843214   -8727.1249   -32255.877 
  101200    299.01442   -8704.9124    42.782649    -8747.695    25129.587 
  101400    278.23227     -8707.62    39.809162   -8747.4292    7596.3405 
  101600    354.15468   -8696.0262    50.672056   -8746.6983   -9933.1023 
  101800     272.4359   -8702.5495    38.979824   -8741.5293    41049.495 
  102000    294.30304   -8712.2398     42.10855   -8754.3484    7885.9627 
  102200    293.46009   -8696.0341    41.987941    -8738.022     -44239.1 
  102400    314.75996   -8695.0821    45.035504   -8740.1177    20094.194 
  102600    253.03046   -8712.1902    36.203315   -8748.3935    648.51575 
  102800    332.89886   -8702.0067    47.630797   -8749.6375    12505.075 
  103000    309.29368   -8695.5361    44.253394   -8739.7895   -51695.402 
  103200    326.91733   -8687.4741    46.774966   -8734.2491   -23750.241 
  103400    308.21748   -8705.4624    44.099413   -8749.5618   -8646.9884 
  103600    315.76662    -8700.563    45.179535   -8745.7426   -7683.8569 
  103800    287.61222   -8688.3654    41.151234   -8729.5167    9146.6182 
  104000    333.39764    -8699.424    47.702162   -8747.1262    -37527.98 
  104200    298.14704   -8704.3411    42.658546   -8746.9996   -47780.321 
  104400    264.75054   -8708.7211    37.880212   -8746.6013    38196.568 
  104600    336.26792   -8692.7111    48.112838    -8740.824   -13684.206 
  104800     287.8536   -8701.6018    41.185771   -8742.7876    1905.6536 
  105000    295.80165   -8708.7665    42.322969   -8751.0895    7313.8564 
  105200     313.0041   -8690.5732    44.784277   -8735.3575    12176.606 
  105400    309.21563   -8704.9583    44.242227   -8749.2005   -9947.4432 
  105600    277.30768   -8707.6793    39.676873   -8747.3561    16239.211 
  105800    312.33534   -8690.6439    44.688592   -8735.3325    25864.467 
  106000    313.98484   -8700.8582      44.9246   -8745.7828   -12385.304 
  106200    247.15999   -8705.3274    35.363376   -8740.6907   -33147.803 
  106400    356.49779   -8692.8616    51.007306   -8743.8689   -21534.714 
  106600    271.23075   -8700.4248    38.807392   -8739.2322    5538.0112 
  106800    305.89162   -8699.3146    43.766632   -8743.0812    16355.502 
  107000    357.82051   -8699.4696    51.196558   -8750.6662   -19471.981 
  107200    269.62237   -8708.9843    38.577268   -8747.5616    22264.977 
  107400    377.17835   -8691.4436    53.966256   -8745.4099   -412.83525 
  107600    277.08867   -8699.6017    39.645537   -8739.2473   -15026.373 
  107800    248.92276   -8714.8104    35.615591    -8750.426    30721.053 
  108000    269.21193   -8706.4855    38.518542    -8745.004   -25407.278 
  108200      365.874   -8696.6085    52.348842   -8748.9573   -8074.6297 
  108400    310.65788   -8699.7974    44.448583    -8744.246    20534.938 
  108600    266.78003   -8712.0717    38.170588   -8750.2423   -5586.5611 
  108800    285.29725   -8692.4249    40.820012   -8733.2449   -3442.0706 
  109000    301.81595   -8695.8471    43.183489   -8739.0306   -34681.284 
  109200    214.65848   -8712.1849    30.713095    -8742.898   -15487.919 
  109400    319.09618    -8697.837    45.655924   -8743.4929   -12487.943 
  109600    287.18478   -8691.7338    41.090078   -8732.8238    10534.007 
  109800    314.15946   -8704.1736    44.949585   -8749.1232   -13394.465 
  110000    275.95309   -8705.0938     39.48306   -8744.5768    3731.6019 
  110200    317.67183   -8695.0494     45.45213   -8740.5015   -24516.091 
  110400    310.99011   -8699.2285    44.496117   -8743.7246   -18774.913 
  110600    278.49438   -8702.8929    39.846665   -8742.7396    -38640.16 
  110800    287.54966   -8699.1332    41.142285   -8740.2755   -17597.697 
  111000    344.98594   -8698.8155    49.360202   -8748.1757    -2629.768 
  111200    248.89052   -8706.8499    35.610977   -8742.4609   -7041.8099 
  111400    297.90031   -8700.6332    42.623243   -8743.2564    28897.773 
  111600    346.47027   -8694.4709    49.572579   -8744.0435   -524.70053 
  111800    269.38855   -8708.9483    38.543812   -8747.4922   -2122.9336 
  112000    301.43332   -8701.7316    43.128743   -8744.8603   -28107.754 
  112200    284.74215   -8703.3988    40.740589   -8744.1394    17872.807 
  112400     324.3643   -8689.5899    46.409681   -8735.9996   -1311.4325 
  112600    296.01074   -8702.9544    42.352886   -8745.3073    21647.872 
  112800    290.28671   -8706.2361    41.533898     -8747.77    13703.827 
  113000    308.39771   -8695.0417      44.1252   -8739.1669    91047.673 
  113200    325.64358    -8695.163     46.59272   -8741.7558   -13350.644 
  113400    314.90151   -8700.2267    45.055757   -8745.2825      12396.2 
  113600    272.50165   -8706.0415    38.989231   -8745.0307    9.7776863 
  113800    340.03439    -8687.992    48.651741   -8736.6438    26607.474 
  114000    281.82798   -8701.0497    40.323633   -8741.3733   -29549.464 
  114200    322.61899   -8699.3119    46.159965   -8745.4719   -5720.3019 
  114400    301.51084   -8696.2243    43.139834   -8739.3642    23861.361 
  114600    238.81937   -8708.5099    34.170009   -8742.6799     4441.883 
  114800    345.84899    -8696.372    49.483686   -8745.8557    32481.638 
  115000    308.18272   -8706.3395    44.094439   -8750.4339     9592.414 
  115200    271.17898    -8714.075    38.799985   -8752.8749    5979.5208 
  115400    265.50608   -8700.6438    37.988313   -8738.6321    19684.038 
  115600    248.05343   -8694.8259    35.491208   -8730.3171   -41597.801 
  115800    348.14903   -8692.5126    49.812774   -8742.3254    3574.4448 
  116000    276.32185   -8707.0959    39.535821   -8746.6318   -6759.0692 
  116200    338.78123   -8691.4602     48.47244   -8739.9327    22457.136 
  116400    296.64716   -8693.2471    42.443945   -8735.6911   -8905.7435 
  116600     325.7849   -8698.4729     46.61294   -8745.0858   -4557.9249 
  116800    300.22831   -8709.4136    42.956331   -8752.3699    528.42404 
  117000    291.70293   -8696.9565    41.736529    -8738.693   -23878.181 
  117200    335.57856   -8696.2977    48.014206   -8744.3119    -6433.357 
  117400    304.70894   -8701.5772    43.597415   -8745.1746    16482.705 
  117600    322.42265   -8683.9813    46.131872   -8730.1131   -5081.2827 
  117800    298.41878   -8697.3053    42.697426   -8740.0028    -4183.465 
  118000    305.79839   -8700.3093    43.753292   -8744.0626   -24674.074 
  118200    360.30612   -8694.9217    51.552197   -8746.4739    12324.477 
  118400    306.74307   -8707.1458    43.888456   -8751.0343   -17071.246 
  118600    230.10046   -8707.1294    32.922516   -8740.0519    27208.535 
  118800    318.60463   -8690.7408    45.585595   -8736.3264    22094.434 
  119000    281.90312    -8704.764    40.334383   -8745.0984   -681.16552 
  119200     310.4749    -8704.988    44.422402   -8749.4104   -13448.616 
  119400    259.01375   -8697.4928    37.059397   -8734.5522    -12326.09 
  119600    353.77117   -8688.8624    50.617184   -8739.4796    42763.362 
  119800    256.79779   -8705.7922    36.742341   -8742.5345   -28149.031 
  120000    288.65606   -8701.6765    41.300587   -8742.9771    46394.123 
  120200    352.14624   -8694.1901    50.384691   -8744.5747    38141.461 
  120400    230.82579   -8707.3136    33.026297   -8740.3399   -14627.993 
  120600    301.33785   -8697.3316    43.115083   -8740.4467    2591.1567 
  120800    262.70234   -8699.2862    37.587158   -8736.8734    27726.647 
  121000    237.69314   -8714.8293    34.008869   -8748.8382   -5066.8631 
  121200    339.29254   -8696.9533    48.545597   -8745.4989   -1222.8755 
  121400    271.08744   -8700.7059    38.786887   -8739.4928   -20532.274 
  121600    266.00591   -8708.8521    38.059828    -8746.912   -30011.178 
  121800    273.94741   -8701.2578    39.196089   -8740.4539   -5425.0695 
  122000    333.31758   -8694.6363    47.690707    -8742.327   -9968.0318 
  122200    302.88534   -8706.9295    43.336496    -8750.266   -5894.8479 
  122400    282.50736   -8718.8103    40.420838   -8759.2312   -12777.812 
  122600    335.52467   -8700.0032    48.006494   -8748.0097    9017.2656 
  122800    310.63568   -8692.2389    44.445406   -8736.6843    3794.9059 
  123000    245.20289   -8710.6159    35.083356   -8745.6993    48274.272 
  123200    338.81401   -8701.1737     48.47713   -8749.6509   -1157.4096 
  123400     266.4923   -8699.8724     38.12942   -8738.0018    3734.6531 
  123600     366.0004   -8682.4138    52.366928   -8734.7807    2347.4269 
  123800    344.70153   -8700.0781     49.31951   -8749.3976     8414.338 
  124000     302.2123   -8701.2189    43.240198   -8744.4591   -1454.8961 
  124200    429.70953   -8683.9849    61.482359   -8745.4673   -5536.8608 
  124400    242.47678   -8698.6443    34.693307   -8733.3376   -39371.111 
  124600    357.50907   -8699.1516    51.151998   -8750.3036   -31686.905 
  124800    270.81353   -8710.3086    38.747697   -8749.0563   -4824.3513 
  125000    242.32505   -8711.2925    34.671598   -8745.9641    1604.6597 
  125200    329.19987   -8696.2378    47.101549   -8743.3394    22854.541 
  125400    225.41192   -8706.6999    32.251685   -8738.9516    9982.2872 
  125600    321.32496   -8698.1692    45.974817    -8744.144     12014.21 
  125800    285.83982   -8694.6413    40.897642    -8735.539    20984.498 
  126000      254.389   -8710.6817    36.397693   -8747.0793    17515.874 
  126200    245.32056   -8714.4118    35.100191    -8749.512   -4359.6922 
  126400    312.72198    -8695.722    44.743911   -8740.4659   -30729.438 
  126600    338.28427     -8692.53    48.401335   -8740.9313   -13344.298 
  126800    259.84993   -8707.5649    37.179038   -8744.7439   -19248.807 
  127000    298.08747   -8701.7726    42.650022   -8744.4226    7789.8111 
  127200     365.8978   -8680.3512    52.352248   -8732.7034    15578.516 
  127400    351.65662   -8691.5206    50.314636   -8741.8353   -269.07378 
  127600    302.44211   -8704.2726    43.273079   -8747.5456    1598.6826 
  127800    289.51898   -8705.1451    41.424052   -8746.5692   -10215.006 
  128000     323.1316   -8692.8584    46.233308   -8739.0917   -5382.3314 
  128200    298.76499   -8707.0585    42.746961   -8749.8055    20586.809 
  128400    314.89139   -8697.7826    45.054308   -8742.8369   -8548.4477 
  128600    309.36403   -8695.5417    44.263459   -8739.8051   -21437.213 
  128800    319.90032    -8706.078     45.77098    -8751.849    5889.9875 
  129000    353.06994   -8688.5004    50.516853   -8739.0172    16850.036 
  129200    309.97284   -8696.5248    44.350567   -8740.8753   -19202.463 
  129400    302.53975   -8704.0426     43.28705   -8747.3296     -1467.73 
  129600    282.54525   -8698.6226    40.426259   -8739.0488   -11269.582 
  129800    293.33781   -8695.2901    41.970446   -8737.2605   -27658.964 
  130000    285.18178   -8708.6325    40.803491    -8749.436   -2072.8746 
  130200    364.80665   -8689.2642    52.196128   -8741.4603   -1484.2866 
  130400     303.8471    -8695.464    43.474104   -8738.9381     16070.19 
  130600    254.87115   -8705.0656    36.466679   -8741.5323    21196.846 
  130800    231.75875   -8715.0408    33.159784   -8748.2006    12745.677 
  131000     289.7411   -8702.3612    41.455833   -8743.8171    31818.736 
  131200    301.96827   -8694.4369    43.205283   -8737.6422   -15048.635 
  131400    289.11796   -8711.3187    41.366675   -8752.6854    39051.932 
  131600    274.25379   -8703.1039    39.239926   -8742.3438    -24403.53 
  131800    264.54949    -8695.362    37.851445   -8733.2134    3438.6343 
  132000    297.62398   -8706.2089    42.583707   -8748.7926   -25647.934 
  132200    219.93856   -8719.9117    31.468563   -8751.3802    20267.311 
  132400    246.82372   -8700.9636    35.315262   -8736.2789   -9253.5539 
  132600     296.7664   -8693.6844    42.461005   -8736.1454    5350.8137 
  132800    246.43091   -8706.8704    35.259059   -8742.1294   -16755.614 
  133000     281.1913   -8701.1073    40.232537   -8741.3398     21879.07 
  133200     302.7134   -8690.6554    43.311895   -8733.9673   -8987.0262 
  133400    281.77401   -8703.6785     40.31591   -8743.9944    21879.583 
  133600    347.74681   -8695.4329    49.755225   -8745.1881   -14305.912 
  133800    343.21008   -8690.6573    49.106115   -8739.7634   -11163.858 
  134000    350.76313   -8701.0817    50.186797   -8751.2685   -9317.4765 
  134200    293.46975   -8701.3654    41.989324   -8743.3547   -11112.904 
  134400    426.57727    -8680.126    61.034199   -8741.1602   -8203.2906 
  134600    335.91221   -8691.4761    48.061944    -8739.538   -27473.759 
  134800    320.30818   -8703.8348    45.829337   -8749.6641    9017.9007 
  135000    296.69309   -8705.1273    42.450515   -8747.5778   -11643.576 
  135200    375.27521   -8687.2369    53.693958   -8740.9309    10033.228 
  135400    328.80557    -8699.615    47.045133   -8746.6602    15522.175 
  135600    265.16121   -8703.4488     37.93897   -8741.3878    14858.092 
  135800    286.25077   -8698.0705     40.95644    -8739.027   -27674.675 
  136000    375.40514   -8689.0908    53.712548   -8742.8033   -6734.8719 
  136200    281.06231   -8706.8197    40.214081   -8747.0338    -1473.435 
  136400    382.94857   -8694.1912    54.791853   -8748.9831   -104.99714 
  136600     241.7277   -8709.6432     34.58613   -8744.2293    54562.282 
  136800    318.43707   -8706.5948     45.56162   -8752.1564   -25856.908 
  137000    295.82982    -8688.086       42.327    -8730.413   -14938.946 
  137200    274.82492   -8703.6946    39.321643   -8743.0163     3156.107 
  137400    289.00174   -8702.2312    41.350046   -8743.5812   -201.65581 
  137600    326.50537   -8694.8435    46.716024   -8741.5595   -5129.1766 
  137800    327.90494   -8694.0437    46.916273     -8740.96   -16249.454 
  138000    264.12145   -8708.4978    37.790201    -8746.288   -4328.8656 
  138200    361.15996   -8693.7499    51.674363   -8745.4242   -17153.757 
  138400    279.61465   -8699.0139    40.006952   -8739.0209    16533.916 
  138600    241.28688   -8711.8283    34.523057   -8746.3514    7841.0834 
  138800    323.93505   -8700.4118    46.348264   -8746.7601   -6825.0907 
  139000     355.0784   -8682.3378    50.804221    -8733.142    7894.0794 
  139200    290.02947   -8694.2084    41.497092   -8735.7055    21470.495 
  139400    347.01654   -8700.8046    49.650738   -8750.4553   -23095.616 
  139600    219.37115   -8714.8277    31.387379   -8746.2151    15859.408 
  139800    263.79106   -8699.6409    37.742929   -8737.3838   -22773.786 
  140000    332.93443   -8700.2991    47.635886    -8747.935   -5565.4327 
  140200    283.94693   -8703.0022    40.626809    -8743.629   -466.58364 
  140400    298.59494   -8695.2331    42.722631   -8737.9557    44889.186 
  140600    324.42273   -8697.6972    46.418041   -8744.1152   -14573.407 
  140800    258.71919   -8713.9942    37.017252   -8751.0114   -10594.257 
  141000     304.0283   -8702.0259    43.500029   -8745.5259   -34940.104 
  141200    295.90571   -8696.4296    42.337858   -8738.7675   -44662.699 
  141400    294.44196   -8704.9194    42.128427   -8747.0478    3136.4877 
  141600    329.96765   -8698.0738    47.211402   -8745.2853    15453.275 
  141800    190.31209   -8710.3441    27.229641   -8737.5737    40071.975 
  142000      342.637   -8695.8643    49.024119   -8744.8884    26567.744 
  142200     328.0369   -8697.9447    46.935153   -8744.8799   -17621.453 
  142400    248.71483   -8703.8056     35.58584   -8739.3915    10718.615 
  142600    329.78641   -8707.9049    47.185471   -8755.0904    13182.364 
  142800    345.08952   -8691.8234    49.375023   -8741.1984    4350.4528 
  143000    269.40016   -8702.5352    38.545474   -8741.0807    15494.954 
  143200    313.60627   -8703.5892    44.870434   -8748.4597    17993.406 
  143400    356.21358   -8696.0551    50.966641   -8747.0217   -20953.607 
  143600    243.22381   -8709.6064    34.800191   -8744.4066   -1972.9916 
  143800    276.31601   -8702.8885    39.534985   -8742.4234    41208.908 
  144000    314.76791   -8695.2399     45.03664   -8740.2765   -11086.813 
  144200    283.54692   -8706.1965    40.569577   -8746.7661    11059.501 
  144400     309.2715    -8707.271    44.250221   -8751.5213    21143.113 
  144600    312.72011   -8688.9492    44.743643   -8733.6928   -11167.111 
  144800     285.5467   -8706.8232    40.855702   -8747.6789    8405.8815 
  145000    287.36787   -8699.9853    41.116274   -8741.1016   -17968.101 
  145200    302.49061   -8697.9049    43.280019   -8741.1849   -17607.562 
  145400    266.41964   -8703.0488    38.119025   -8741.1678      9012.78 
  145600    354.38573   -8693.8837    50.705115   -8744.5889   -11094.287 
  145800    288.45824   -8702.4853    41.272283   -8743.7576   -9252.4419 
  146000    231.60176   -8709.8855    33.137321   -8743.0228    -15394.38 
  146200    294.18428   -8696.7338    42.091559   -8738.8254   -4997.0414 
  146400    255.78697   -8698.1328    36.597714   -8734.7305    20774.223 
  146600    251.80082   -8716.1942     36.02738   -8752.2216   -6730.6991 
  146800    297.38467   -8702.4919    42.549466   -8745.0414   -15630.912 
  147000    289.91476   -8695.3838     41.48068   -8736.8645   -39523.084 
  147200    340.69714   -8702.0284    48.746566    -8750.775    1652.2124 
  147400    217.32356   -8714.6872    31.094412   -8745.7816   -16284.438 
  147600     335.4101   -8696.5767    47.990103   -8744.5668    26909.704 
  147800    327.07588    -8694.579    46.797652   -8741.3766   -2176.1907 
  148000    284.52661    -8713.016    40.709749   -8753.7257    4584.2306 
  148200    317.56551   -8702.3666    45.436918   -8747.8035    10424.992 
  148400    313.04415   -8694.2584    44.790007   -8739.0484   -31102.388 
  148600    285.33183    -8700.673    40.824959    -8741.498   -15051.585 
  148800    263.96642   -8707.3731     37.76802   -8745.1411    11285.666 
  149000    350.95137   -8693.6451     50.21373   -8743.8588    40448.388 
  149200    283.79163   -8701.2088    40.604589   -8741.8133    21953.067 
  149400    249.90436   -8703.3764    35.756037   -8739.1324    11039.303 
  149600    331.48176   -8689.7101     47.42804   -8737.1382   -10563.691 
  149800    280.67187   -8705.1297    40.158218   -8745.2879    4028.7185 
  150000    315.60766   -8695.5766    45.156792   -8740.7333   -11512.194 
  150200    357.45556   -8687.3517    51.144343    -8738.496   -5220.0657 
  150400    293.95295   -8697.4883    42.058459   -8739.5468   -11603.651 
  150600    264.82927   -8706.5693    37.891476   -8744.4608   -9140.6258 
  150800    414.68667   -8682.9959    59.332906   -8742.3288     23115.47 
  151000    352.85514   -8692.9732    50.486119   -8743.4593   -7789.2069 
  151200    292.38361   -8703.9966     41.83392   -8745.8305    867.58355 
  151400    362.19409   -8690.9696    51.822325   -8742.7919    917.44201 
  151600    306.61165   -8698.5126    43.869652   -8742.3822   -2791.3668 
  151800    341.67696   -8707.1795    48.886757   -8756.0663    5258.0165 
  152000    391.26796   -8688.9272    55.982182   -8744.9094   -12295.455 
  152200    310.07321   -8697.0377    44.364928   -8741.4026    32043.527 
  152400    252.29235   -8706.4532    36.097707   -8742.5509   -10522.592 
  152600    286.78412   -8718.0553    41.032751   -8759.0881    3008.4578 
  152800    327.39539   -8701.8065    46.843366   -8748.6498   -9019.6507 
  153000     326.0352   -8692.8446    46.648751   -8739.4934    -26772.88 
  153200    278.04212    -8706.768    39.781956     -8746.55    -4849.401 
  153400    292.45847   -8700.2677    41.844632   -8742.1124    1014.2851 
  153600    338.86453   -8696.1447    48.484359    -8744.629   -21904.382 
  153800    258.39733   -8705.4558    36.971201    -8742.427     -11080.2 
  154000    346.96618   -8686.3517    49.643533   -8735.9953   -22905.483 
  154200    342.97578   -8676.2693    49.072592   -8725.3419    25172.767 
  154400    282.81472    -8698.417    40.464815   -8738.8818   -23439.455 
  154600    265.13604   -8710.1118    37.935368   -8748.0472   -17735.861 
  154800    338.12258   -8695.2836      48.3782   -8743.6618    34741.129 
  155000    247.54659   -8697.2895     35.41869   -8732.7082    22379.185 
  155200    255.76028   -8707.2112    36.593896   -8743.8051    40105.215 
  155400    256.33854   -8699.6827    36.676632   -8736.3593    9134.0759 
  155600    376.93187   -8697.3704    53.930991   -8751.3014    7062.8586 
  155800    210.32565   -8707.4728    30.093159   -8737.5659   -36367.367 
  156000    319.73914   -8701.6191    45.747919    -8747.367   -23816.426 
  156200    300.39506   -8697.4485    42.980189   -8740.4287    11201.077 
  156400    326.03314   -8689.2563    46.648457   -8735.9047    34122.674 
  156600    292.75215   -8706.8022     41.88665   -8748.6889     2404.688 
  156800    301.11502   -8697.2506    43.083201   -8740.3338    -22626.68 
  157000    302.82384   -8690.2446    43.327696   -8733.5723    4224.6539 
  157200    327.18021   -8703.7042    46.812578   -8750.5168    10797.231 
  157400    276.03653   -8703.4309    39.494998   -8742.9259    25872.056 
  157600    312.23098   -8686.8982    44.673659   -8731.5719    4901.2314 
  157800    280.55337   -8703.5502    40.141262   -8743.6914   -9476.8154 
  158000    294.66123   -8700.4419      42.1598   -8742.6017    -12939.25 
  158200    365.91755   -8678.7903    52.355075   -8731.1454    15812.962 
  158400    308.82116   -8696.1255    44.185787   -8740.3113   -8439.3604 
  158600    295.23816   -8705.1723    42.242346   -8747.4147    33031.131 
  158800    335.65638   -8689.0602     48.02534   -8737.0856   -6159.1614 
  159000     306.1456   -8695.9497    43.802971   -8739.7527   -3320.1545 
  159200    274.64507    -8702.092     39.29591   -8741.3879   -35452.251 
  159400    277.51523   -8701.3999    39.706569   -8741.1065    6691.5995 
  159600    356.56032   -8690.4539    51.016252   -8741.4701   -48070.279 
  159800    277.80763   -8701.3907    39.748405   -8741.1391   -24871.052 
  160000    256.22557   -8707.6422    36.660468   -8744.3027     20000.47 
  160200    377.37042    -8686.339    53.993737   -8740.3328   -598.07815 
  160400    334.40109   -8701.3923    47.845734    -8749.238    18462.613 
  160600    290.25922   -8704.8179    41.529965   -8746.3478     14775.46 
  160800    324.37475   -8686.9698    46.411177    -8733.381    24661.829 
  161000    302.92025   -8701.4972    43.341491   -8744.8387   -25203.357 
  161200    280.66111   -8707.7365    40.156677   -8747.8932    9512.6634 
  161400    339.21956   -8685.7014    48.535155   -8734.2366   -18245.627 
  161600    320.18354   -8699.4785    45.811503     -8745.29    7280.7536 
  161800    276.58613   -8704.5561    39.573634   -8744.1298   -17225.117 
  162000    314.79772   -8693.0703    45.040906   -8738.1112   -10784.425 
  162200    269.66421   -8698.7335    38.583254   -8737.3167    1815.0738 
  162400    281.80195   -8708.4746    40.319908   -8748.7945   -11654.121 
  162600    319.58416   -8695.6683    45.725744   -8741.3941   -1951.0049 
  162800    299.85289   -8701.5352    42.902617   -8744.4378   -16630.816 
  163000     256.4326   -8708.2151    36.690089   -8744.9052   -14466.388 
  163200    314.72768   -8691.4429    45.030885   -8736.4738    -29356.53 
  163400    322.16209   -8700.3666    46.094592   -8746.4612    6198.9962 
  163600    279.89819   -8712.7036     40.04752   -8752.7511    -2886.413 
  163800    311.46503   -8701.2703    44.564068   -8745.8343   -23450.882 
  164000    314.18624   -8697.9034    44.953417   -8742.8568   -13687.631 
  164200    254.84948   -8709.6455    36.463579   -8746.1091   -1444.4862 
  164400     320.8271   -8689.8352    45.903582   -8735.7388    20723.607 
  164600    285.36257   -8700.7545    40.829358   -8741.5839   -815.13685 
  164800    269.23505   -8708.9862     38.52185    -8747.508    186.42919 
  165000    247.24704   -8699.8564     35.37583   -8735.2323    973.57398 
  165200    276.87642   -8693.7226    39.615168   -8733.3378    -28650.13 
  165400    294.82514   -8706.5241    42.183252   -8748.7073    7970.6434 
  165600    287.32658   -8701.7891    41.110367   -8742.8994    6756.4726 
  165800    300.78695   -8698.4514     43.03626   -8741.4877   -2887.3349 
  166000    330.21065   -8688.5907    47.246171   -8735.8368    -12736.37 
  166200    267.55129   -8704.2608    38.280939   -8742.5417   -26806.034 
  166400    295.42983   -8697.0133    42.269769   -8739.2831   -4136.5338 
  166600    321.76138   -8694.9852    46.037259   -8741.0225   -19268.802 
  166800    306.34954    -8709.892     43.83215   -8753.7241    29672.484 
  167000    313.71484   -8698.2151    44.885968    -8743.101      13063.7 
  167200     301.7182   -8695.7198    43.169503   -8738.8893    15720.649 
  167400    254.04179   -8710.5301    36.348015   -8746.8781    20669.477 
  167600    282.79758   -8710.5399    40.462361   -8751.0023   -12240.229 
  167800    297.89301   -8700.5201    42.622199   -8743.1423    43350.761 
  168000    349.77588   -8694.0575    50.045542    -8744.103    1988.9049 
  168200    343.36287   -8689.4369    49.127976   -8738.5648    41513.767 
  168400    294.66316   -8704.7705    42.160076   -8746.9306   -24078.195 
  168600    294.02573   -8704.5524    42.068874   -8746.6213    4383.4803 
  168800    343.01757   -8683.9277    49.078571   -8733.0063    18657.352 
  169000    278.83709   -8695.8254    39.895699   -8735.7211    -33396.82 
  169200    303.12606   -8699.8432    43.370938   -8743.2142    28507.122 
  169400    302.03096    -8692.615    43.214252   -8735.8292    18567.501 
  169600    311.23093   -8703.4736    44.530573   -8748.0042    13867.699 
  169800    334.21001   -8705.3099    47.818395   -8753.1283   -14563.456 
  170000     337.1816   -8693.8106    48.243566   -8742.0541    17627.971 
  170200    325.47362   -8696.9155    46.568401   -8743.4839   -1492.1021 
  170400    266.40931   -8714.5511    38.117547   -8752.6686   -9075.1153 
  170600    288.52904   -8706.5944    41.282412   -8747.8768    16862.076 
  170800    305.55072   -8697.6914    43.717855   -8741.4092    31187.615 
  171000    319.08767   -8684.9336    45.654708   -8730.5883   -9522.4555 
  171200    269.30451   -8696.2998    38.531788   -8734.8316     -1782.26 
  171400    294.49883   -8706.9959    42.136564   -8749.1325   -12770.246 
  171600     332.4623   -8691.9532    47.568334   -8739.5215   -19494.875 
  171800    312.05398   -8696.4737    44.648334   -8741.1221    -16734.47 
  172000    292.10343   -8702.2893    41.793832   -8744.0831    1924.8494 
  172200    301.83024   -8693.3072    43.185534   -8736.4927    23770.133 
  172400    286.41743   -8693.5913    40.980286   -8734.5716   -17757.077 
  172600    265.91221   -8707.6855    38.046422   -8745.7319   -27107.567 
  172800    286.75195   -8692.3589    41.028149    -8733.387    15429.743 
  173000    310.18535   -8696.3923    44.380974   -8740.7733   -8861.2966 
  173200    312.18769   -8696.8652    44.667465   -8741.5327    11252.511 
  173400    244.87657   -8705.8887    35.036666   -8740.9254    10224.505 
  173600    377.89278   -8682.9314    54.068477   -8736.9999     2489.065 
  173800    273.26029   -8692.4143    39.097777   -8731.5121   -2225.4871 
  174000    267.25491    -8705.231    38.238534   -8743.4695    1689.8616 
  174200    324.96916   -8695.0407    46.496225   -8741.5369   -30943.696 
  174400    354.68323   -8689.3785     50.74768   -8740.1262    7875.4413 
  174600    295.57494   -8706.5909    42.290533   -8748.8815   -19077.158 
  174800    258.40622   -8695.8116    36.972473   -8732.7841    3782.4916 
  175000    290.41824   -8696.2012    41.552717   -8737.7539    649.60837 
  175200    301.72658    -8706.105    43.170701   -8749.2757   -31719.764 
  175400    262.62498   -8716.7114    37.576089   -8754.2874    18441.823 
  175600    264.13356   -8704.3541    37.791934    -8742.146    7891.1526 
  175800    331.61431   -8693.1696    47.447005   -8740.6166    17000.867 
  176000    283.80346   -8702.3077    40.606281    -8742.914   -13807.392 
  176200    299.46334   -8699.0652     42.84688   -8741.9121    32295.266 
  176400    275.56487   -8701.3125    39.427514     -8740.74    30754.049 
  176600    293.66068   -8698.7656    42.016643   -8740.7823    18021.095 
  176800    293.55451   -8694.0131    42.001451   -8736.0146    8851.7533 
  177000    290.98861   -8704.0284    41.634326   -8745.6628    -566.0985 
  177200    251.27604   -8704.0113    35.952295   -8739.9636    13650.329 
  177400     302.9283   -8686.4667    43.342642   -8729.8094   -38098.027 
  177600    261.10071   -8698.5984    37.357997   -8735.9564    14893.196 
  177800    281.10494   -8699.8378    40.220181    -8740.058      557.907 
  178000     301.2572   -8690.3374    43.103544   -8733.4409    1558.4147 
[...]
  950000    323.45363   -8721.9443    46.279384   -8768.2236     12985.23 
  950200    338.57259   -8726.7389    48.442587   -8775.1815    40782.228 
  950400    312.81135   -8725.2019    44.756699   -8769.9586   -10388.667 
  950600    334.44051   -8707.7792    47.851374   -8755.6305   -22722.803 
  950800    305.99932   -8722.9735     43.78204   -8766.7555   -15852.894 
  951000    307.56919   -8728.2878    44.006656   -8772.2944   -9647.7152 
  951200    330.25419   -8718.0081      47.2524   -8765.2605   -29154.579 
  951400    376.75798   -8721.3611     53.90611   -8775.2672    6867.0155 
  951600    276.68035   -8729.8272    39.587115   -8769.4143   -24476.692 
  951800      304.587   -8722.5361    43.579967   -8766.1161   -2939.3686 
  952000    408.88577   -8710.4966    58.502919   -8768.9995    6788.3384 
  952200    286.07931   -8726.2062    40.931908   -8767.1381    15040.022 
  952400    277.30029   -8725.9382    39.675816    -8765.614    11721.317 
  952600    359.30503   -8713.2852    51.408962   -8764.6942   -687.33265 
  952800    286.16262    -8724.431    40.943827   -8765.3748    33678.006 
  953000    282.78716   -8728.3886    40.460871   -8768.8494    11270.066 
  953200    287.32972   -8737.8516    41.110815   -8778.9624     43671.16 
  953400    292.22793   -8720.9912    41.811646   -8762.8028    29609.111 
  953600    304.87273   -8724.4959    43.620849   -8768.1167    24347.834 
  953800    267.50194   -8734.7362    38.273879   -8773.0101   -30763.586 
  954000      288.572   -8725.1743     41.28856   -8766.4628    26312.667 
  954200    241.47325   -8722.6947    34.549722   -8757.2444    30889.703 
  954400    251.89192   -8732.7312    36.040414   -8768.7717   -35241.034 
  954600    302.13262   -8722.3254    43.228797   -8765.5542   -31983.337 
  954800    275.26907    -8719.436    39.385191   -8758.8211    -33616.47 
  955000    223.76928   -8738.7877    32.016659   -8770.8043   -10280.993 
  955200    288.12839   -8728.4691    41.225088   -8769.6942    19558.584 
  955400    274.43687   -8726.1554    39.266121   -8765.4216    25709.191 
  955600    289.51503   -8723.8185    41.423487    -8765.242    32292.862 
  955800    273.07714   -8718.0381    39.071572   -8757.1096    11798.459 
  956000    289.61952   -8729.9464    41.438438   -8771.3849    28517.309 
  956200    362.82923   -8715.4397    51.913201   -8767.3529   -32413.144 
  956400    295.27556   -8718.2206    42.247697   -8760.4683   -19325.725 
  956600    297.30511   -8728.2571    42.538082   -8770.7951   -25566.104 
  956800    286.16859   -8727.5406    40.944682   -8768.4852    10055.255 
  957000     273.9785   -8725.8881    39.200537   -8765.0887   -1011.3389 
  957200     252.8739   -8726.6749    36.180915   -8762.8558    34646.741 
  957400    259.29313   -8736.7817    37.099371   -8773.8811   -2844.3093 
  957600    325.87328   -8720.6719    46.625585   -8767.2975   -1124.0241 
  957800     260.4433   -8727.3046    37.263937   -8764.5685    2306.6956 
  958000    274.34787   -8732.0802    39.253387   -8771.3336    13438.766 
  958200    330.64546   -8713.3505    47.308383   -8760.6589    4199.9697 
  958400    256.68612   -8727.5742    36.726363   -8764.3006    -27763.81 
  958600    306.79687   -8729.2258    43.896153   -8773.1219    34747.613 
  958800    301.71905   -8726.3204    43.169624     -8769.49    738.90843 
  959000    370.26887   -8715.6267    52.977656   -8768.6043    2975.6611 
  959200    278.73539    -8734.789    39.881149   -8774.6701     22308.12 
  959400    292.93325   -8728.9281    41.912562   -8770.8407   -28964.081 
  959600    352.02262   -8716.0434    50.367003   -8766.4104   -14456.049 
  959800    309.38859   -8725.1893    44.266974   -8769.4563   -17883.456 
  960000    300.49205   -8723.0331    42.994067   -8766.0272    11785.645 
  960200    387.87696   -8709.7288    55.497002   -8765.2258    7655.4641 
  960400    258.70016   -8731.9002     37.01453   -8768.9148    10796.937 
  960600    305.08293   -8719.9849    43.650924   -8763.6358   -17203.169 
  960800    308.27712   -8716.3599    44.107945   -8760.4679   -7145.5818 
  961000    303.08507   -8738.5002    43.365073   -8781.8653    27136.186 
  961200    301.25787   -8734.9055    43.103639   -8778.0091   -20262.374 
  961400    327.34133   -8718.1566    46.835632   -8764.9922   -24912.951 
  961600    262.23128   -8721.6451    37.519759   -8759.1648    -21071.99 
  961800    287.92463   -8737.8514    41.195935   -8779.0474    25718.119 
  962000    324.48482   -8724.6735    46.426925   -8771.1004   -1016.6788 
  962200    255.20992   -8722.4882     36.51515   -8759.0033   -8514.7251 
  962400    271.96952   -8726.0329    38.913096    -8764.946   -11198.848 
  962600    348.14238   -8720.7769    49.811823   -8770.5888    11516.343 
  962800     337.4634   -8721.2488    48.283887   -8769.5327   -12431.029 
  963000    245.68743   -8736.6866    35.152683   -8771.8393    34645.357 
  963200    310.49342   -8725.0493    44.425051   -8769.4743     4910.631 
  963400    313.65568   -8722.3246    44.877505   -8767.2021    8398.7737 
  963600    289.16193   -8733.6765    41.372966   -8775.0495    2855.0391 
  963800     324.7045   -8731.5421    46.458356   -8778.0004     7456.763 
  964000    327.37771   -8712.4575    46.840837   -8759.2983    25017.558 
  964200    360.53971   -8720.5125    51.585619   -8772.0981    9490.5977 
  964400    299.91007   -8728.0174    42.910798   -8770.9282    38316.519 
  964600    294.61659   -8716.0975    42.153412   -8758.2509    12830.471 
  964800    283.56297   -8720.9349    40.571873   -8761.5068   -46926.287 
  965000    261.11837   -8728.6326    37.360524   -8765.9932   -12289.081 
  965200    321.10246   -8714.4941    45.942981    -8760.437   -35145.388 
  965400     307.4733   -8731.9111    43.992936    -8775.904   -40421.176 
  965600    277.88619   -8731.9167    39.759645   -8771.6763    2735.1688 
  965800    360.13829   -8718.6732    51.528184   -8770.2014   -20000.429 
  966000    296.37533   -8731.8295    42.405052   -8774.2346     5211.329 
  966200    263.44901   -8746.3346     37.69399   -8784.0285    -19832.89 
  966400    247.57133   -8737.9118    35.422229    -8773.334    14452.302 
  966600    293.97024   -8725.4787    42.060934   -8767.5396    1970.6861 
  966800    354.53051    -8712.891    50.725829   -8763.6169    791.85134 
  967000    232.45573   -8730.8797    33.259506   -8764.1392   -24948.462 
  967200    322.60815   -8721.3068    46.158413   -8767.4653   -4308.1515 
  967400    325.98686   -8709.8485    46.641836   -8756.4903    260.83901 
  967600    319.91166   -8715.3418    45.772602   -8761.1145     373.0267 
  967800    280.99306   -8728.3994    40.204173   -8768.6035   -12776.284 
  968000    267.40059   -8738.0599    38.259377   -8776.3193   -18422.346 
  968200     314.0393   -8722.9095    44.932391   -8767.8419   -8260.2502 
  968400    355.82857   -8717.8286    50.911555   -8768.7401    2671.0447 
  968600    259.35917   -8735.8957    37.108821   -8773.0045   -16133.285 
  968800    310.53723   -8727.3168    44.431319   -8771.7481   -14575.368 
  969000    279.43179   -8724.4237    39.980788   -8764.4045   -27436.376 
  969200     415.3772   -8707.1327    59.431705   -8766.5644   -665.05256 
  969400     295.4198   -8721.6567    42.268335   -8763.9251   -22058.297 
  969600    293.24689   -8727.8774    41.957437   -8769.8348   -4737.6858 
  969800    249.55316   -8733.6424    35.705787   -8769.3482    20333.969 
  970000     307.4942   -8718.1355    43.995926   -8762.1314   -12309.007 
  970200    339.02584    -8727.246    48.507438   -8775.7535    -10265.78 
  970400    273.19029   -8737.0815    39.087761   -8776.1693    22047.306 
  970600    294.47545   -8729.4102    42.133218   -8771.5435   -9846.5977 
  970800    316.77255   -8724.1591    45.323462   -8769.4826   -7175.1064 
  971000    321.50961   -8716.6484    46.001236   -8762.6496   -14323.793 
  971200     284.9268   -8730.3567    40.767008   -8771.1237    -5792.979 
  971400    311.55606   -8714.1711    44.577093   -8758.7482    20926.204 
  971600    320.64538   -8711.1006    45.877583   -8756.9782    27899.935 
  971800    312.73922   -8724.4511    44.746378   -8769.1975   -17252.765 
  972000    334.88628   -8725.7279    47.915154   -8773.6431   -685.62192 
  972200    293.79589   -8732.5647    42.035987   -8774.6007    1093.6514 
  972400    325.23994    -8729.501    46.534967   -8776.0359    20229.249 
  972600    301.74589   -8720.9343    43.173465   -8764.1078   -5922.5844 
  972800    286.27893   -8729.4879     40.96047   -8770.4483    2487.4448 
  973000    309.20027   -8725.9061    44.240029   -8770.1462   -22367.503 
  973200    341.45678   -8714.0205    48.855254   -8762.8758   -1755.7519 
  973400    386.06135   -8709.0363    55.237227   -8764.2736   -8762.0788 
  973600    273.70172   -8726.6218    39.160936   -8765.7828    5582.5075 
  973800    279.52253   -8728.0692    39.993771   -8768.0629    34574.761 
  974000    368.70425   -8715.3057    52.753792   -8768.0595    5151.7818 
  974200    287.70427   -8726.8133    41.164405   -8767.9777   -12690.239 
  974400    338.25607   -8726.5569      48.3973   -8774.9542    -22389.61 
  974600    269.39009   -8733.9183    38.544034   -8772.4623    3076.5184 
  974800    324.25932   -8722.8128    46.394661   -8769.2074    9186.1965 
  975000    272.69559   -8735.2721     39.01698   -8774.2891    38760.027 
  975200     261.3757   -8733.5244    37.397344   -8770.9217   -7516.1834 
  975400     280.1331   -8724.2874    40.081131   -8764.3686    13426.324 
  975600    319.90468   -8723.5638    45.771605   -8769.3354    -31037.22 
  975800    299.56621   -8728.7829    42.861598   -8771.6445   -12610.775 
  976000    330.91117   -8715.3815    47.346401   -8762.7279    2614.7489 
  976200    301.65543   -8731.7212    43.160521   -8774.8818   -13447.896 
  976400    281.28685   -8732.4387    40.246207   -8772.6849    2371.1559 
  976600    260.95478   -8728.5164    37.337118   -8765.8535     6840.721 
  976800    265.23045   -8729.8678    37.948877   -8767.8167   -24386.524 
  977000     303.4997   -8729.9697    43.424398    -8773.394   -18112.439 
  977200    297.77042   -8729.4831    42.604659   -8772.0877   -25375.622 
  977400    309.64735   -8716.4569    44.303997   -8760.7609    23110.055 
  977600     317.4493   -8724.1844    45.420292   -8769.6047    65642.327 
  977800    259.67993   -8728.4488    37.154714   -8765.6035   -27225.278 
  978000    304.71505   -8716.9828    43.598289   -8760.5811   -26789.707 
  978200    374.60162   -8717.5395    53.597582   -8771.1371   -3917.4445 
  978400    309.61632   -8732.0456    44.299557   -8776.3451    16898.802 
  978600    322.00792    -8722.312    46.072533   -8768.3845   -18238.982 
  978800    369.46539   -8718.9754    52.862695   -8771.8381    10490.272 
  979000    262.78256   -8730.0982    37.598636   -8767.6968     6211.528 
  979200    272.02246    -8729.554     38.92067   -8768.4746    10433.757 
  979400    332.73936    -8716.939    47.607975    -8764.547    -38978.08 
  979600    279.05573   -8731.0483    39.926982   -8770.9752   -19007.495 
  979800    305.80273   -8724.8222    43.753913   -8768.5762   -6230.1978 
  980000    302.62803   -8722.1549     43.29968   -8765.4546    54455.049 
  980200    332.37902   -8719.9946    47.556418   -8767.5511   -1515.8015 
  980400    348.58498   -8706.6671     49.87515   -8756.5422   -13353.112 
  980600    259.57115   -8729.0059     37.13915   -8766.1451    8133.9981 
  980800    324.60316   -8724.3398    46.443858   -8770.7836   -5719.1945 
  981000    326.36666   -8721.6479    46.696177   -8768.3441    21116.547 
  981200    283.10542   -8734.9298    40.506406   -8775.4362   -12272.841 
  981400    327.99107   -8720.9335    46.928596   -8767.8621    -37519.05 
  981600    279.57931   -8726.2556    40.001896   -8766.2575   -23359.191 
  981800    257.83411   -8733.9644    36.890616    -8770.855   -7479.8337 
  982000    339.79971   -8719.1092    48.618162   -8767.7274   -5074.4431 
  982200    283.05607   -8720.9813    40.499346   -8761.4806   -2751.1976 
  982400     230.8831   -8737.8292    33.034496   -8770.8637    26504.223 
  982600    319.04749   -8721.3927    45.648959   -8767.0417   -6608.6731 
  982800    334.50428   -8719.8386    47.860499   -8767.6991   -2400.6579 
  983000    285.54033   -8732.0191    40.854791   -8772.8739    18013.135 
  983200    239.89096   -8741.6042    34.323331   -8775.9275    1934.1919 
  983400    275.13916   -8725.8117    39.366603   -8765.1783    2913.3668 
  983600    271.52233   -8724.2293    38.849111   -8763.0784    23614.663 
  983800    251.38169   -8739.6442    35.967411   -8775.6116   -29514.048 
  984000    261.06971   -8725.1512    37.353563   -8762.5048     15457.89 
  984200    292.48328   -8725.9088     41.84818   -8767.7569    813.71185 
  984400    260.70921    -8732.098    37.301983      -8769.4   -15220.533 
  984600    350.96974   -8715.8478    50.216358   -8766.0642    3199.8933 
  984800    346.55627   -8719.1771    49.584883   -8768.7619     18261.51 
  985000    272.45763   -8736.6009    38.982933   -8775.5838    14351.818 
  985200    295.80734   -8726.2495    42.323784   -8768.5733    9589.2572 
  985400    302.26781   -8724.0429     43.24814    -8767.291   -30838.473 
  985600    283.19979   -8731.7066     40.51991   -8772.2265      1847.01 
  985800     215.0014   -8740.9241     30.76216   -8771.6862    26777.056 
  986000    357.29917   -8725.1979    51.121965   -8776.3199    -11410.41 
  986200    327.01576   -8718.2171     46.78905   -8765.0061   -17178.227 
  986400    248.14877   -8720.0984    35.504848   -8755.6032   -15230.374 
  986600     288.2234   -8727.1749    41.238682   -8768.4136   -22057.966 
  986800    280.41832   -8733.6691     40.12194    -8773.791    -15691.78 
  987000    321.10667   -8715.1539    45.943583   -8761.0975   -12005.897 
  987200    264.06556   -8727.7441    37.782206   -8765.5263   -31669.574 
  987400    327.62033   -8719.8349     46.87555   -8766.7104   -14063.912 
  987600     318.9593   -8715.3626     45.63634   -8760.9989   -18017.239 
  987800    275.24522   -8729.1761    39.381779   -8768.5578   -3174.9352 
  988000    259.66732   -8728.7621     37.15291    -8765.915    55043.732 
  988200    311.39708   -8722.1566    44.554346    -8766.711    11745.833 
  988400    322.42202    -8721.803    46.131783   -8767.9348    7092.9875 
  988600    291.62645   -8731.4305    41.725586    -8773.156   -7818.3078 
  988800    350.32447   -8720.0409    50.124033   -8770.1649    505.35788 
  989000    279.81537   -8726.5443     40.03567     -8766.58    31207.491 
  989200    321.77954   -8735.9233    46.039857   -8781.9631    10770.632 
  989400    372.97782   -8715.9595     53.36525   -8769.3247   -5034.3924 
  989600    288.61067   -8723.5607    41.294092   -8764.8548    11298.027 
  989800    283.62332   -8728.9573    40.580508   -8769.5379    8895.8232 
  990000    289.96901   -8737.5326    41.488443   -8779.0211    5033.8672 
  990200    314.06847   -8725.3485    44.936566   -8770.2851    8674.7855 
  990400    304.49964   -8715.5697    43.567468   -8759.1371    26482.744 
  990600    241.91447   -8735.2872    34.612852      -8769.9    22267.405 
  990800    285.61899   -8729.4934    40.866046   -8770.3595   -9059.3326 
  991000    349.49121   -8717.6135    50.004812   -8767.6183    30492.511 
  991200    333.89582   -8726.9324    47.773441   -8774.7059    12952.347 
  991400    304.10399   -8731.5014    43.510859   -8775.0122   -2429.9659 
  991600    315.20981   -8722.3303    45.099867   -8767.4302   -7648.1408 
  991800    329.58807    -8715.439    47.157093   -8762.5961   -16411.439 
  992000    304.24362   -8733.5693    43.530838   -8777.1001   -17831.854 
  992200    384.51825   -8719.6654    55.016442   -8774.6818   -17616.787 
  992400    258.48916   -8725.8677     36.98434    -8762.852    -25092.18 
  992600     302.4913   -8727.1903    43.280117   -8770.4704    17042.169 
  992800    274.34022   -8735.4216    39.252292   -8774.6739    34530.983 
  993000    319.78325   -8717.5096     45.75423   -8763.2639   -5032.7465 
  993200    282.19876   -8728.5015    40.376683   -8768.8782    14450.998 
  993400    296.28981   -8726.2624    42.392815   -8768.6552    10979.536 
  993600    290.21246   -8723.7375    41.523275   -8765.2607     12603.93 
  993800    281.46454   -8728.3145    40.271632   -8768.5861    13469.496 
  994000    225.06377   -8738.9841    32.201873    -8771.186    7161.8814 
  994200    267.88876   -8724.7824    38.329224   -8763.1116    -42875.61 
  994400    300.09614   -8722.0808     42.93742   -8765.0182      27293.4 
  994600    236.11521   -8734.1127      33.7831   -8767.8958   -18579.809 
  994800    249.32403   -8741.5595    35.673004   -8777.2325    12951.744 
  995000    332.74343   -8722.9676    47.608558   -8770.5762     5370.596 
  995200    378.06298   -8713.6978    54.092829   -8767.7906    6703.6054 
  995400    310.44633   -8728.4227    44.418313    -8772.841    25211.812 
  995600    251.08048   -8731.7969    35.924314   -8767.7212   -27416.324 
  995800    313.33905    -8724.804    44.832202   -8769.6362    6319.7998 
  996000    356.38473   -8718.7413    50.991128   -8769.7324    42324.876 
  996200    321.00765   -8713.6773    45.929416   -8759.6068    2266.0734 
  996400    280.04732   -8728.5868    40.068858   -8768.6557    37718.198 
  996600    286.60241   -8725.0993    41.006752    -8766.106    18396.746 
  996800    337.64567   -8708.6389    48.309965   -8756.9489    9948.3453 
  997000    308.43118   -8724.1152    44.129988   -8768.2451    38267.265 
  997200      278.705   -8728.7738      39.8768   -8768.6506   -18708.435 
  997400    331.04061   -8709.5947     47.36492   -8756.9596    24065.129 
  997600    297.49719   -8723.6245    42.565565   -8766.1901    23657.848 
  997800    286.96566   -8726.2938    41.058725   -8767.3525    10103.603 
  998000    272.38629    -8719.013    38.972725   -8757.9857    5994.3285 
  998200    356.66037   -8718.4357    51.030567   -8769.4663   -15124.253 
  998400    307.82302   -8730.5642    44.042973   -8774.6071    21997.185 
  998600    329.10466   -8718.8878    47.087927   -8765.9757    3001.2894 
  998800    351.43311   -8714.4401    50.282657   -8764.7228    33719.491 
  999000    248.18984   -8727.2286    35.510725   -8762.7393   -1848.4118 
  999200    322.65995   -8718.6137    46.165824   -8764.7795   -24432.049 
  999400    281.80962   -8709.7045    40.321005   -8750.0255   -3310.0043 
  999600    241.70698   -8727.9513    34.583164   -8762.5345   -21289.311 
  999800    294.04525   -8730.5173    42.071666    -8772.589   -10261.998 
 1000000    310.34793   -8730.2052    44.404235   -8774.6094   -19279.673 
Loop time of 9611.67 on 8 procs for 1000000 steps with 49 atoms

Performance: 2.247 ns/day, 10.680 hours/ns, 104.040 timesteps/s
99.4% CPU use with 8 MPI tasks x no OpenMP threads

MPI task timing breakdown:
Section |  min time  |  avg time  |  max time  |%varavg| %total
---------------------------------------------------------------
Pair    | 7609.5     | 7666.2     | 7755.5     |  57.2 | 79.76
Neigh   | 1.1079     | 1.1217     | 1.1381     |   0.8 |  0.01
Comm    | 183.09     | 271.91     | 325.83     | 301.0 |  2.83
Output  | 0.32095    | 0.35329    | 0.51123    |  10.1 |  0.00
Modify  | 1652.7     | 1653.4     | 1655.9     |   2.4 | 17.20
Other   |            | 18.77      |            |       |  0.20

Nlocal:    6.125 ave 7 max 6 min
Histogram: 7 0 0 0 0 0 0 0 0 1
Nghost:    580.75 ave 593 max 568 min
Histogram: 1 0 2 0 1 1 0 1 0 2
Neighs:    788.5 ave 896 max 765 min
Histogram: 6 1 0 0 0 0 0 0 0 1

Total # of neighbors = 6308
Ave neighs/atom = 128.735
Neighbor list builds = 433
Dangerous builds = 0

unfix 1
unfix output
undump 1

Please see the log.cite file for references relevant to this simulation

Total wall time: 2:41:26
