ITEM: TIMESTEP
0
ITEM: NUMBER OF ATOMS
161
ITEM: BOX BOUNDS xy xz yz pp pp pp
-6.7755000000000001e+00 1.3552000000000000e+01 -6.7755000000000001e+00
0.0000000000000000e+00 1.1735510246683001e+01 0.0000000000000000e+00
0.0000000000000000e+00 2.2149999999999999e+01 0.0000000000000000e+00
ITEM: ATOMS id type x y z 
8 1 -2.486 5.297 9.849 
87 1 3.001 4.231 10.696 
90 1 2.733 5.481 9.824 
109 1 -2.486 5.297 0.765 
158 1 2.733 5.481 0.79 
11 1 4.24 4.139 20.131 
14 1 3.031 4.094 19.728 
18 1 1.299 5.827 18.554 
33 1 2.266 4.151 20.924 
43 1 4.343 3.96 21.647 
47 1 3.32 5.732 17.88 
52 1 4.24 4.139 12.633 
76 1 2.552 4.924 14.209 
85 1 4.343 3.96 11.117 
89 1 3.32 5.732 14.883 
91 1 1.036 5.037 11.84 
102 1 3.031 4.094 13.035 
105 1 1.299 5.827 14.209 
114 1 2.266 4.151 11.84 
150 1 2.552 4.924 18.554 
156 1 3.001 4.231 22.068 
159 1 1.036 5.037 20.924 
5 1 -5.049 10.63 8.653 
9 1 -3.317 8.897 7.479 
19 1 -1.707 7.414 10.572 
21 1 -2.66 8.795 10.993 
23 1 -3.31 7.532 6.805 
25 1 -4.284 10.573 9.849 
32 1 1.503 6.367 0.79 
36 1 -1.869 7.426 9.056 
38 1 -2.209 6.086 8.653 
54 1 0.3 8.576 10.696 
57 1 1.291 8.001 9.824 
60 1 -1.707 7.414 0.042 
65 1 -3.31 7.532 3.808 
78 1 -1.869 7.426 1.558 
80 1 -2.566 8.842 1.961 
84 1 -4.57 9.799 3.135 
99 1 -3.054 9.687 0.765 
100 1 -2.96 6.142 3.135 
107 1 -5.049 10.63 1.961 
110 1 -3.317 8.897 3.135 
111 1 0.642 5.929 10.696 
113 1 1.503 6.367 9.824 
119 1 -4.284 10.573 0.765 
127 1 -2.209 6.086 1.961 
131 1 -2.318 6.148 10.993 
138 1 1.291 8.001 0.79 
142 1 -2.566 8.842 8.653 
145 1 -4.57 9.799 7.479 
151 1 -5.019 10.493 10.993 
154 1 -3.054 9.687 9.849 
155 1 -2.96 6.142 7.479 
12 1 2.53 7.1 17.202 
17 1 0.468 9.427 20.924 
24 1 -3.52 8.357 11.865 
27 1 -0.31 7.31 21.647 
29 1 0.642 5.929 22.068 
31 1 1.292 7.192 17.88 
44 1 -0.148 7.298 20.131 
46 1 0.191 8.638 19.728 
51 1 -0.31 7.31 11.117 
53 1 2.53 7.1 15.561 
56 1 1.292 7.192 14.883 
63 1 -2.318 6.148 21.771 
66 1 -3.309 6.723 20.899 
70 1 -0.148 7.298 12.633 
72 1 0.548 5.882 13.035 
92 1 0.942 8.582 14.209 
95 1 -5.019 10.493 21.771 
98 1 -4.751 9.243 20.899 
104 1 0.468 9.427 11.84 
116 1 -2.66 8.795 21.771 
118 1 -3.52 8.357 20.899 
122 1 0.191 8.638 13.035 
133 1 -3.309 6.723 11.865 
136 1 0.3 8.576 22.068 
147 1 0.548 5.882 19.728 
153 1 -4.751 9.243 11.865 
160 1 0.942 8.582 18.554 
161 2 0.189 8.994 14.895 
1 1 7.976 4.694 10.572 
4 1 9.274 4.77 10.993 
20 1 8.034 4.861 9.056 
42 1 9.55 5.41 7.479 
67 1 10.043 4.578 0.765 
77 1 7.976 4.694 0.042 
94 1 8.035 4.861 1.558 
96 1 9.278 4.635 1.961 
121 1 4.688 5.417 10.696 
130 1 9.55 5.41 3.135 
134 1 10.043 4.578 9.849 
152 1 9.278 4.635 8.653 
45 1 4.688 5.417 22.068 
55 1 4.788 5.329 13.035 
106 1 9.274 4.77 21.771 
137 1 4.788 5.329 19.728 
2 1 7.294 10.585 9.056 
3 1 9.004 7.624 6.127 
6 1 8.556 6.347 6.805 
16 1 2.314 8.72 0.79 
22 1 7.166 6.156 8.653 
26 1 7.226 8.565 7.479 
35 1 7.191 10.764 10.572 
37 1 6.846 9.307 10.993 
39 1 8.214 8.992 6.805 
41 1 6.677 7.002 9.849 
48 1 3.775 6.213 0.79 
61 1 7.294 10.585 1.558 
62 1 9.004 7.624 4.487 
64 1 6.747 9.395 1.961 
68 1 7.437 6.931 3.135 
71 1 4.29 8.493 10.696 
74 1 3.567 7.818 9.824 
81 1 8.556 6.347 3.808 
83 1 6.47 8.606 0.765 
93 1 7.191 10.764 0.042 
97 1 8.214 8.992 3.808 
101 1 2.261 9.954 10.696 
103 1 2.314 8.72 9.824 
117 1 7.166 6.156 1.961 
120 1 7.226 8.565 3.135 
123 1 3.775 6.213 9.824 
129 1 6.677 7.002 0.765 
132 1 6.747 9.395 8.653 
135 1 7.437 6.931 7.479 
141 1 7.244 6.231 10.993 
144 1 6.47 8.606 9.849 
148 1 3.567 7.818 0.79 
7 1 9.22 6.004 11.865 
10 1 3.558 10.029 21.647 
13 1 2.261 9.954 22.068 
15 1 2.978 8.376 17.88 
28 1 3.5 9.862 20.131 
30 1 4.369 8.568 19.728 
34 1 4.308 6.159 18.554 
40 1 7.76 8.511 11.865 
49 1 4.857 7.722 20.924 
50 1 1.984 9.314 18.554 
58 1 1.491 10.146 11.84 
59 1 4.097 7.793 14.209 
69 1 3.558 10.029 11.117 
73 1 2.978 8.376 14.883 
75 1 5.064 6.118 11.84 
79 1 7.244 6.231 21.771 
82 1 7.967 6.906 20.899 
86 1 3.5 9.862 12.633 
88 1 2.256 10.089 13.035 
108 1 9.22 6.004 20.899 
112 1 4.369 8.568 13.035 
115 1 4.308 6.159 14.209 
124 1 4.857 7.722 11.84 
125 1 1.984 9.314 14.209 
126 1 6.846 9.307 21.771 
128 1 7.76 8.511 20.899 
139 1 1.491 10.146 20.924 
140 1 4.097 7.793 18.554 
143 1 7.967 6.906 11.865 
146 1 4.29 8.493 22.068 
149 1 5.064 6.118 20.924 
157 1 2.256 10.089 19.728 
ITEM: TIMESTEP
10
ITEM: NUMBER OF ATOMS
161
ITEM: BOX BOUNDS xy xz yz pp pp pp
-6.7755000000000001e+00 1.3552000000000000e+01 -6.7755000000000001e+00
0.0000000000000000e+00 1.1735510246683001e+01 0.0000000000000000e+00
0.0000000000000000e+00 2.2149999999999999e+01 0.0000000000000000e+00
ITEM: ATOMS id type x y z 
8 1 -2.41832 5.36225 9.8318 
87 1 2.98909 4.2707 10.6502 
90 1 2.6455 5.45659 9.77691 
109 1 -2.40807 5.3601 0.795187 
158 1 2.66211 5.43985 0.836206 
11 1 4.31766 4.16752 20.1292 
14 1 2.8893 4.12099 19.7039 
18 1 1.3331 5.85578 18.5957 
33 1 2.1205 4.25102 20.9142 
43 1 4.29676 4.12267 21.5978 
47 1 3.24399 5.79301 17.85 
52 1 4.30923 4.17246 12.634 
76 1 2.42847 4.89422 14.1808 
85 1 4.29633 4.12673 11.1722 
89 1 3.26609 5.80072 14.9346 
91 1 0.980894 5.05988 11.8455 
102 1 2.9108 4.11659 13.0639 
105 1 1.31512 5.82775 14.1535 
114 1 2.14256 4.22425 11.8506 
150 1 2.43245 4.89036 18.5797 
156 1 2.97934 4.27432 22.1042 
159 1 0.98074 5.10487 20.8993 
5 1 -4.92417 10.5985 8.62971 
9 1 -3.32255 8.87522 7.52557 
19 1 -1.75268 7.51545 10.5366 
21 1 -2.5686 8.77028 10.9102 
23 1 -3.29765 7.52964 6.82664 
25 1 -4.14738 10.4868 9.81598 
32 1 1.58354 6.34329 0.782199 
36 1 -1.91079 7.54366 9.05692 
38 1 -2.1526 6.20755 8.65282 
54 1 0.290475 8.52791 10.637 
57 1 1.38103 7.99136 9.76671 
60 1 -1.76044 7.53643 0.0669907 
65 1 -3.30175 7.5341 3.78134 
78 1 -1.90587 7.53701 1.56073 
80 1 -2.55654 8.77588 1.89169 
84 1 -4.45419 9.83822 3.09651 
99 1 -2.98877 9.62637 0.781576 
100 1 -2.91638 6.24604 3.17014 
107 1 -4.93823 10.5915 1.97823 
110 1 -3.32264 8.87178 3.08954 
111 1 0.60623 5.95645 10.7997 
113 1 1.57264 6.3351 9.84644 
119 1 -4.16183 10.487 0.791912 
127 1 -2.15793 6.21094 1.96504 
131 1 -2.31107 6.18879 11.0186 
138 1 1.37558 8.00589 0.84022 
142 1 -2.55412 8.76966 8.71988 
145 1 -4.46122 9.83478 7.50846 
151 1 -4.98844 10.4652 11.0447 
154 1 -2.99285 9.64241 9.80854 
155 1 -2.91625 6.24592 7.43917 
12 1 2.57812 7.0821 17.133 
17 1 0.406585 9.36774 20.9092 
24 1 -3.60917 8.36338 11.902 
27 1 -0.256475 7.19822 21.63 
29 1 0.601127 5.95759 21.9978 
31 1 1.29045 7.19353 17.8999 
44 1 -0.112118 7.17274 20.1291 
46 1 0.135684 8.52695 19.726 
51 1 -0.269146 7.21566 11.1297 
53 1 2.608 7.05734 15.6799 
56 1 1.31183 7.13043 14.8809 
63 1 -2.30353 6.18946 21.7406 
66 1 -3.39148 6.73345 20.8414 
70 1 -0.132381 7.19701 12.6059 
72 1 0.542058 5.92319 12.9221 
92 1 0.827335 8.56585 14.3118 
95 1 -4.99454 10.4549 21.733 
98 1 -4.68407 9.27452 20.8522 
104 1 0.382372 9.37806 11.8312 
116 1 -2.61063 8.75103 21.8374 
118 1 -3.57224 8.38716 20.9072 
122 1 0.0995881 8.51141 12.9767 
133 1 -3.38862 6.70285 11.9166 
136 1 0.292843 8.5384 22.0943 
147 1 0.555609 5.92945 19.7917 
153 1 -4.7138 9.29353 11.9258 
160 1 0.899028 8.4759 18.5111 
161 2 0.126382 9.03573 15.0145 
1 1 7.86511 4.9442 10.5052 
4 1 9.18567 4.7519 11.0473 
20 1 7.87884 4.95586 9.07179 
42 1 9.47413 5.40531 7.44315 
67 1 10.0136 4.53795 0.797173 
77 1 7.85185 4.94279 0.104752 
94 1 7.87249 4.94401 1.54883 
96 1 9.19006 4.64545 1.99441 
121 1 4.70007 5.42094 10.7064 
130 1 9.47589 5.41153 3.17424 
134 1 10.0025 4.5488 9.83037 
152 1 9.18375 4.64965 8.6277 
45 1 4.69802 5.41806 22.0528 
55 1 4.82692 5.49378 13.0516 
106 1 9.18801 4.73523 21.6961 
137 1 4.82706 5.5102 19.7042 
2 1 7.23373 10.5427 9.06034 
3 1 8.96195 7.66072 6.03814 
6 1 8.50812 6.40315 6.82762 
16 1 2.33408 8.69114 0.841785 
22 1 7.16123 6.18694 8.71749 
26 1 7.17741 8.41452 7.55596 
35 1 7.21499 10.577 10.5057 
37 1 6.84719 9.30668 10.967 
39 1 8.25493 8.92156 6.76973 
41 1 6.73817 7.00414 9.82777 
48 1 3.70819 6.37126 0.852548 
61 1 7.25872 10.5293 1.54201 
62 1 8.96587 7.65749 4.57049 
64 1 6.71893 9.24597 1.9929 
68 1 7.39702 6.97481 3.04652 
71 1 4.29057 8.54868 10.7689 
74 1 3.62651 7.79511 9.83677 
81 1 8.52182 6.40472 3.79037 
83 1 6.54293 8.44458 0.791638 
93 1 7.23192 10.5737 0.112943 
97 1 8.25002 8.92443 3.8546 
101 1 2.34804 9.97646 10.6331 
103 1 2.3367 8.66225 9.75605 
117 1 7.14807 6.19079 1.89425 
120 1 7.16823 8.41842 3.05783 
123 1 3.72548 6.36874 9.7645 
129 1 6.73541 7.00857 0.785098 
132 1 6.71735 9.2352 8.62242 
135 1 7.39903 6.97631 7.57809 
141 1 7.24393 6.17187 10.9007 
144 1 6.54135 8.44929 9.81853 
148 1 3.63105 7.78805 0.774905 
7 1 9.20024 6.05191 11.9309 
10 1 3.6432 9.7887 21.5958 
13 1 2.35283 9.94557 22.0955 
15 1 2.99665 8.30572 17.8992 
28 1 3.65244 9.77732 20.1503 
30 1 4.38534 8.54487 19.7923 
34 1 4.35617 6.29338 18.6271 
40 1 7.80475 8.36252 11.9176 
49 1 4.79688 7.70583 20.9134 
50 1 2.0737 9.30759 18.5078 
58 1 1.539 10.1866 11.8465 
59 1 4.12482 7.75265 14.1111 
69 1 3.67433 9.78521 11.1674 
73 1 2.9896 8.32755 14.8248 
75 1 4.99374 6.27502 11.8901 
79 1 7.23894 6.18106 21.8548 
82 1 7.90276 6.93554 20.9136 
86 1 3.69072 9.78552 12.6126 
88 1 2.35226 10.084 13.0933 
108 1 9.19218 6.06378 20.8245 
112 1 4.38708 8.52779 12.9905 
115 1 4.37628 6.31485 14.1283 
124 1 4.80889 7.70195 11.8553 
125 1 2.13392 9.32225 14.2513 
126 1 6.84329 9.30793 21.7955 
128 1 7.78737 8.36328 20.8474 
139 1 1.54816 10.1678 20.9298 
140 1 4.12889 7.76382 18.6297 
143 1 7.89793 6.9311 11.8506 
146 1 4.29196 8.5474 21.9829 
149 1 4.99233 6.28855 20.874 
157 1 2.34544 10.0793 19.7087 
ITEM: TIMESTEP
20
ITEM: NUMBER OF ATOMS
161
ITEM: BOX BOUNDS xy xz yz pp pp pp
-6.7755000000000001e+00 1.3552000000000000e+01 -6.7755000000000001e+00
0.0000000000000000e+00 1.1735510246683001e+01 0.0000000000000000e+00
0.0000000000000000e+00 2.2149999999999999e+01 0.0000000000000000e+00
ITEM: ATOMS id type x y z 
8 1 -2.41726 5.38333 9.84201 
87 1 2.97388 4.26609 10.6492 
90 1 2.65956 5.45434 9.76683 
109 1 -2.41622 5.38209 0.772805 
158 1 2.67065 5.44689 0.844312 
11 1 4.28724 4.20596 20.1281 
14 1 2.90041 4.1373 19.7034 
18 1 1.31686 5.85864 18.5831 
33 1 2.11161 4.25848 20.9066 
43 1 4.31369 4.15612 21.5781 
47 1 3.25845 5.78384 17.8506 
52 1 4.29004 4.19962 12.6365 
76 1 2.44465 4.91619 14.1786 
85 1 4.31172 4.16184 11.183 
89 1 3.26456 5.78867 14.9165 
91 1 0.976227 5.05385 11.8501 
102 1 2.90864 4.13271 13.0705 
105 1 1.31565 5.85324 14.1703 
114 1 2.13477 4.22539 11.8558 
150 1 2.44388 4.90738 18.5849 
156 1 2.96361 4.27232 22.1065 
159 1 0.972958 5.11061 20.9133 
5 1 -4.91883 10.5847 8.62601 
9 1 -3.32895 8.86805 7.50887 
19 1 -1.76746 7.52044 10.5553 
21 1 -2.6245 8.75894 10.9344 
23 1 -3.30657 7.53533 6.83267 
25 1 -4.13179 10.468 9.82866 
32 1 1.59013 6.35169 0.777376 
36 1 -1.89667 7.5438 9.0578 
38 1 -2.15804 6.2175 8.64382 
54 1 0.304863 8.50962 10.6496 
57 1 1.36392 7.98719 9.77623 
60 1 -1.76416 7.52 0.0558402 
65 1 -3.3073 7.53664 3.77929 
78 1 -1.89231 7.54531 1.55538 
80 1 -2.55335 8.78366 1.89232 
84 1 -4.46465 9.80984 3.10869 
99 1 -2.98351 9.62009 0.775554 
100 1 -2.92995 6.25909 3.17697 
107 1 -4.91684 10.5864 1.98637 
110 1 -3.33225 8.8684 3.10524 
111 1 0.602301 5.96052 10.8033 
113 1 1.59108 6.34845 9.84742 
119 1 -4.13382 10.4728 0.785039 
127 1 -2.15808 6.21928 1.96889 
131 1 -2.32771 6.21318 11.0124 
138 1 1.35622 7.99885 0.826985 
142 1 -2.55556 8.78758 8.723 
145 1 -4.46403 9.80738 7.50711 
151 1 -4.98184 10.454 11.0323 
154 1 -2.98596 9.61831 9.83612 
155 1 -2.93064 6.26196 7.43763 
12 1 2.56507 7.07245 17.1531 
17 1 0.39965 9.34192 20.9169 
24 1 -3.60301 8.38166 11.8557 
27 1 -0.247357 7.20256 21.6317 
29 1 0.607473 5.96777 22.0093 
31 1 1.28357 7.19368 17.9041 
44 1 -0.117286 7.1761 20.1375 
46 1 0.14118 8.50526 19.7205 
51 1 -0.267832 7.22976 11.1208 
53 1 2.57195 7.05547 15.6429 
56 1 1.33787 7.12032 14.8684 
63 1 -2.32701 6.21514 21.7574 
66 1 -3.3737 6.72152 20.8586 
70 1 -0.139156 7.19974 12.6128 
72 1 0.536372 5.92678 12.9064 
92 1 0.823112 8.54118 14.3174 
95 1 -4.98327 10.4578 21.7338 
98 1 -4.68849 9.28105 20.8391 
104 1 0.389876 9.35244 11.8294 
116 1 -2.61821 8.75163 21.8296 
118 1 -3.59902 8.3849 20.9069 
122 1 0.118517 8.50835 12.9757 
133 1 -3.37478 6.72266 11.9028 
136 1 0.308583 8.51013 22.0866 
147 1 0.540532 5.93347 19.793 
153 1 -4.68721 9.27684 11.9232 
160 1 0.912116 8.46101 18.5143 
161 2 0.123076 9.03836 15.0202 
1 1 7.87286 4.92762 10.5306 
4 1 9.17201 4.78618 11.0156 
20 1 7.86296 4.94251 9.06393 
42 1 9.46335 5.43801 7.43788 
67 1 9.97899 4.55515 0.76098 
77 1 7.87311 4.91546 0.0833291 
94 1 7.86584 4.94514 1.55404 
96 1 9.18449 4.65958 1.99812 
121 1 4.67324 5.4546 10.7126 
130 1 9.46291 5.43825 3.17417 
134 1 9.9808 4.5559 9.85343 
152 1 9.18466 4.65829 8.61323 
45 1 4.66828 5.45221 22.0456 
55 1 4.82343 5.49495 13.0625 
106 1 9.17471 4.78489 21.7514 
137 1 4.81792 5.49702 19.7009 
2 1 7.24545 10.5268 9.05017 
3 1 8.97357 7.65329 6.06888 
6 1 8.52233 6.39433 6.82742 
16 1 2.3561 8.69637 0.848327 
22 1 7.13442 6.19212 8.72111 
26 1 7.18366 8.42547 7.54675 
35 1 7.23114 10.5551 10.4975 
37 1 6.85903 9.27158 10.9754 
39 1 8.27274 8.93127 6.77514 
41 1 6.72955 7.00618 9.8325 
48 1 3.70214 6.36116 0.832057 
61 1 7.24816 10.5215 1.56204 
62 1 8.97439 7.65227 4.54569 
64 1 6.71282 9.22678 1.99033 
68 1 7.39957 6.96747 3.05577 
71 1 4.30744 8.52594 10.7652 
74 1 3.6107 7.78922 9.825 
81 1 8.52203 6.39484 3.78558 
83 1 6.54605 8.44277 0.787536 
93 1 7.22954 10.5533 0.112593 
97 1 8.27448 8.93187 3.83795 
101 1 2.36279 9.93896 10.6718 
103 1 2.35992 8.69331 9.76271 
117 1 7.13279 6.18947 1.89553 
120 1 7.18269 8.42204 3.06755 
123 1 3.70993 6.35941 9.78365 
129 1 6.72853 7.00746 0.781532 
132 1 6.71538 9.23122 8.62764 
135 1 7.40039 6.96529 7.56004 
141 1 7.23206 6.19331 10.9178 
144 1 6.54466 8.44175 9.8273 
148 1 3.61016 7.78369 0.784078 
7 1 9.1752 6.03055 11.9251 
10 1 3.66022 9.79213 21.6035 
13 1 2.3613 9.93677 22.0961 
15 1 3.01059 8.33257 17.8997 
28 1 3.66985 9.78123 20.1448 
30 1 4.40748 8.53394 19.7887 
34 1 4.34226 6.30057 18.6217 
40 1 7.82026 8.36205 11.909 
49 1 4.7993 7.71982 20.9098 
50 1 2.0693 9.28689 18.5151 
58 1 1.56363 10.1676 11.8324 
59 1 4.13291 7.75009 14.1203 
69 1 3.66368 9.79827 11.1571 
73 1 2.99025 8.33755 14.8298 
75 1 4.98953 6.2821 11.86 
79 1 7.22608 6.20267 21.8426 
82 1 7.92269 6.9324 20.9026 
86 1 3.69178 9.78464 12.6177 
88 1 2.36488 10.0699 13.0843 
108 1 9.17571 6.03158 20.8367 
112 1 4.41086 8.53042 12.9706 
115 1 4.3537 6.3012 14.1386 
124 1 4.80804 7.71519 11.8544 
125 1 2.12648 9.30176 14.2398 
126 1 6.85479 9.27199 21.7879 
128 1 7.81995 8.36374 20.8557 
139 1 1.55695 10.1636 20.927 
140 1 4.1337 7.75585 18.63 
143 1 7.92287 6.93372 11.8597 
146 1 4.30406 8.52961 21.997 
149 1 4.98815 6.28486 20.9044 
157 1 2.34942 10.0675 19.6871 
ITEM: TIMESTEP
30
ITEM: NUMBER OF ATOMS
161
ITEM: BOX BOUNDS xy xz yz pp pp pp
-6.7755000000000001e+00 1.3552000000000000e+01 -6.7755000000000001e+00
0.0000000000000000e+00 1.1735510246683001e+01 0.0000000000000000e+00
0.0000000000000000e+00 2.2149999999999999e+01 0.0000000000000000e+00
ITEM: ATOMS id type x y z 
8 1 -2.42965 5.40358 9.83574 
87 1 2.96521 4.27357 10.6431 
90 1 2.64068 5.45438 9.77389 
109 1 -2.42933 5.40296 0.779358 
158 1 2.65519 5.4427 0.844663 
11 1 4.27646 4.22426 20.1222 
14 1 2.8876 4.15007 19.7056 
18 1 1.29993 5.85284 18.5737 
33 1 2.0943 4.26933 20.9048 
43 1 4.29703 4.19147 21.5672 
47 1 3.25437 5.78854 17.8374 
52 1 4.286 4.21883 12.6425 
76 1 2.44131 4.92291 14.1768 
85 1 4.29599 4.19998 11.1962 
89 1 3.25591 5.78793 14.9269 
91 1 0.966811 5.05026 11.8465 
102 1 2.90153 4.14064 13.0668 
105 1 1.3094 5.85927 14.1689 
114 1 2.11963 4.22255 11.8545 
150 1 2.44137 4.92235 18.5826 
156 1 2.95363 4.27754 22.1098 
159 1 0.961725 5.12322 20.9202 
5 1 -4.90603 10.5729 8.62934 
9 1 -3.3161 8.87281 7.50083 
19 1 -1.77201 7.53055 10.5587 
21 1 -2.62886 8.76019 10.9557 
23 1 -3.29907 7.54103 6.82603 
25 1 -4.11385 10.4549 9.82861 
32 1 1.60272 6.36703 0.779845 
36 1 -1.88386 7.56009 9.06163 
38 1 -2.1591 6.2318 8.64165 
54 1 0.31547 8.4966 10.6408 
57 1 1.37738 7.9646 9.78416 
60 1 -1.76635 7.52935 0.0554995 
65 1 -3.29904 7.54121 3.78623 
78 1 -1.87958 7.56086 1.54904 
80 1 -2.54226 8.79307 1.8935 
84 1 -4.46127 9.79705 3.10641 
99 1 -2.97638 9.60485 0.768663 
100 1 -2.93398 6.27628 3.17232 
107 1 -4.90402 10.5727 1.98416 
110 1 -3.31708 8.87292 3.11144 
111 1 0.604583 5.96441 10.7978 
113 1 1.60605 6.37057 9.85626 
119 1 -4.11274 10.455 0.783833 
127 1 -2.15864 6.23239 1.97201 
131 1 -2.33737 6.2273 11.0147 
138 1 1.36527 7.9877 0.823123 
142 1 -2.54187 8.79246 8.71889 
145 1 -4.46176 9.7962 7.50743 
151 1 -4.97168 10.4448 11.0346 
154 1 -2.97694 9.60466 9.8443 
155 1 -2.93532 6.27648 7.44159 
12 1 2.56513 7.07259 17.1634 
17 1 0.411896 9.32117 20.911 
24 1 -3.62063 8.36178 11.8554 
27 1 -0.246904 7.19353 21.635 
29 1 0.60849 5.96609 22.0323 
31 1 1.2796 7.18606 17.9 
44 1 -0.132881 7.16203 20.1411 
46 1 0.140435 8.49116 19.7188 
51 1 -0.269201 7.2283 11.1187 
53 1 2.56287 7.05874 15.6248 
56 1 1.33253 7.1239 14.8562 
63 1 -2.33703 6.23018 21.7513 
66 1 -3.38368 6.73618 20.8658 
70 1 -0.155408 7.19499 12.6135 
72 1 0.526781 5.92933 12.897 
92 1 0.814908 8.52656 14.3336 
95 1 -4.97262 10.4448 21.7303 
98 1 -4.6729 9.28129 20.8404 
104 1 0.400759 9.33585 11.835 
116 1 -2.62566 8.75661 21.8092 
118 1 -3.61951 8.36461 20.9081 
122 1 0.131177 8.49786 12.9801 
133 1 -3.38425 6.73568 11.8979 
136 1 0.316973 8.49555 22.089 
147 1 0.525062 5.92859 19.7912 
153 1 -4.67454 9.28029 11.9242 
160 1 0.915081 8.4492 18.5173 
161 2 0.11971 9.04054 15.0282 
1 1 7.84581 4.92654 10.5278 
4 1 9.155 4.80601 11.0072 
20 1 7.83973 4.94252 9.06496 
42 1 9.45301 5.45253 7.44129 
67 1 9.97039 4.57303 0.771995 
77 1 7.84177 4.92029 0.0848787 
94 1 7.84313 4.94596 1.54603 
96 1 9.17077 4.67701 1.99783 
121 1 4.6579 5.49108 10.6912 
130 1 9.45274 5.45302 3.17179 
134 1 9.96926 4.57401 9.84176 
152 1 9.17165 4.67687 8.61622 
45 1 4.65323 5.48869 22.0669 
55 1 4.82322 5.51079 13.064 
106 1 9.15425 4.80867 21.7596 
137 1 4.81749 5.51297 19.7002 
2 1 7.25645 10.5051 9.04233 
3 1 8.97256 7.64754 6.07488 
6 1 8.51168 6.39333 6.81744 
16 1 2.36261 8.6963 0.857462 
22 1 7.11309 6.18562 8.71138 
26 1 7.19217 8.41872 7.54197 
35 1 7.24411 10.5241 10.4844 
37 1 6.87978 9.23516 10.9943 
39 1 8.28101 8.92506 6.76196 
41 1 6.71619 6.99515 9.83835 
48 1 3.70116 6.3508 0.825993 
61 1 7.25738 10.5017 1.5718 
62 1 8.97293 7.64805 4.53838 
64 1 6.71409 9.21231 1.99044 
68 1 7.38981 6.96238 3.05985 
71 1 4.31478 8.51954 10.7505 
74 1 3.5993 7.79484 9.8106 
81 1 8.5112 6.39361 3.79713 
83 1 6.54374 8.42498 0.788846 
93 1 7.24211 10.5239 0.12777 
97 1 8.28071 8.92535 3.85139 
101 1 2.38035 9.91245 10.6821 
103 1 2.36454 8.69476 9.7583 
117 1 7.11122 6.18402 1.90425 
120 1 7.19121 8.41776 3.07412 
123 1 3.70094 6.34948 9.78837 
129 1 6.71701 6.995 0.775126 
132 1 6.71526 9.21451 8.6245 
135 1 7.39036 6.96267 7.55555 
141 1 7.22417 6.20192 10.9331 
144 1 6.54323 8.42513 9.82466 
148 1 3.59686 7.79386 0.798914 
7 1 9.17055 6.02853 11.9322 
10 1 3.6859 9.79305 21.6018 
13 1 2.37921 9.919 22.0855 
15 1 3.02132 8.33604 17.892 
28 1 3.6935 9.77832 20.1428 
30 1 4.42657 8.54182 19.781 
34 1 4.3388 6.30575 18.6163 
40 1 7.83264 8.37044 11.9044 
49 1 4.81407 7.73092 20.9115 
50 1 2.07969 9.2741 18.5174 
58 1 1.57301 10.1522 11.8433 
59 1 4.14198 7.75558 14.1254 
69 1 3.69579 9.79796 11.1576 
73 1 3.00464 8.34383 14.8337 
75 1 4.993 6.29875 11.863 
79 1 7.22335 6.20391 21.8303 
82 1 7.93491 6.92965 20.8913 
86 1 3.71499 9.78352 12.6209 
88 1 2.3783 10.0473 13.0825 
108 1 9.1715 6.02888 20.831 
112 1 4.43533 8.53857 12.9783 
115 1 4.34426 6.30658 14.1447 
124 1 4.82274 7.72756 11.8467 
125 1 2.12256 9.27557 14.2236 
126 1 6.87967 9.2346 21.7693 
128 1 7.83335 8.3716 20.86 
139 1 1.5673 10.1473 20.9173 
140 1 4.14213 7.76188 18.627 
143 1 7.93493 6.92879 11.8731 
146 1 4.31197 8.52178 22.0128 
149 1 4.98996 6.30273 20.9 
157 1 2.36512 10.049 19.6922 
ITEM: TIMESTEP
40
ITEM: NUMBER OF ATOMS
161
ITEM: BOX BOUNDS xy xz yz pp pp pp
-6.7755000000000001e+00 1.3552000000000000e+01 -6.7755000000000001e+00
0.0000000000000000e+00 1.1735510246683001e+01 0.0000000000000000e+00
0.0000000000000000e+00 2.2149999999999999e+01 0.0000000000000000e+00
ITEM: ATOMS id type x y z 
8 1 -2.45194 5.44545 9.82918 
87 1 2.95167 4.29243 10.6358 
90 1 2.61911 5.44787 9.77136 
109 1 -2.45174 5.44808 0.785619 
158 1 2.63262 5.43831 0.862944 
11 1 4.25741 4.26425 20.1098 
14 1 2.85694 4.17663 19.7141 
18 1 1.27542 5.84444 18.5581 
33 1 2.06685 4.28981 20.9035 
43 1 4.26507 4.26016 21.5417 
47 1 3.23544 5.80472 17.8235 
52 1 4.27565 4.26128 12.6554 
76 1 2.42653 4.92994 14.1765 
85 1 4.27169 4.26869 11.2217 
89 1 3.23133 5.79677 14.9406 
91 1 0.941741 5.04384 11.8335 
102 1 2.8804 4.15565 13.0543 
105 1 1.29596 5.85739 14.1539 
114 1 2.0933 4.21803 11.8564 
150 1 2.41975 4.93699 18.5749 
156 1 2.94002 4.29828 22.1147 
159 1 0.933381 5.14256 20.9308 
5 1 -4.87581 10.5493 8.63739 
9 1 -3.29307 8.87972 7.48359 
19 1 -1.77558 7.56045 10.5703 
21 1 -2.60884 8.76363 10.9836 
23 1 -3.29594 7.54146 6.81444 
25 1 -4.08663 10.4358 9.82818 
32 1 1.59808 6.39171 0.803318 
36 1 -1.85442 7.59177 9.06163 
38 1 -2.15088 6.26895 8.64037 
54 1 0.330923 8.47486 10.637 
57 1 1.39811 7.94033 9.78856 
60 1 -1.77072 7.55902 0.0439509 
65 1 -3.29655 7.54159 3.79823 
78 1 -1.84989 7.59241 1.54868 
80 1 -2.50954 8.80788 1.90982 
84 1 -4.43965 9.78485 3.11452 
99 1 -2.94956 9.58178 0.756905 
100 1 -2.93732 6.29484 3.16634 
107 1 -4.87531 10.5475 1.97478 
110 1 -3.29289 8.87885 3.12821 
111 1 0.579203 5.96062 10.8014 
113 1 1.5973 6.40926 9.85256 
119 1 -4.08495 10.434 0.786037 
127 1 -2.14954 6.2692 1.97182 
131 1 -2.35204 6.2508 11.0131 
138 1 1.38276 7.97423 0.826608 
142 1 -2.51005 8.80695 8.70152 
145 1 -4.43971 9.78513 7.49876 
151 1 -4.9568 10.4243 11.0412 
154 1 -2.94935 9.58413 9.85595 
155 1 -2.93815 6.29454 7.44669 
12 1 2.57202 7.07163 17.1487 
17 1 0.434694 9.27656 20.9038 
24 1 -3.6164 8.33017 11.8788 
27 1 -0.247228 7.16552 21.6453 
29 1 0.584542 5.96421 22.0582 
31 1 1.28082 7.18238 17.8937 
44 1 -0.166024 7.13153 20.1414 
46 1 0.133704 8.45515 19.7173 
51 1 -0.273836 7.21589 11.115 
53 1 2.56261 7.0686 15.6077 
56 1 1.31491 7.12817 14.8477 
63 1 -2.34872 6.25517 21.7524 
66 1 -3.40147 6.75112 20.863 
70 1 -0.191414 7.18401 12.6146 
72 1 0.503221 5.9246 12.8956 
92 1 0.783945 8.50965 14.3636 
95 1 -4.95673 10.4248 21.7235 
98 1 -4.65105 9.28947 20.8235 
104 1 0.424748 9.30226 11.8353 
116 1 -2.60247 8.76012 21.7793 
118 1 -3.61495 8.32763 20.8868 
122 1 0.13814 8.46941 12.9861 
133 1 -3.40124 6.74825 11.9011 
136 1 0.332473 8.46976 22.0875 
147 1 0.493504 5.91616 19.7788 
153 1 -4.65174 9.28791 11.9409 
160 1 0.919386 8.43089 18.5225 
161 2 0.109017 9.04752 15.0516 
1 1 7.78258 4.91945 10.5305 
4 1 9.11523 4.83924 10.9896 
20 1 7.79019 4.94823 9.06175 
42 1 9.43563 5.47564 7.44689 
67 1 9.94394 4.61539 0.781822 
77 1 7.77567 4.90951 0.0786468 
94 1 7.79179 4.95231 1.55412 
96 1 9.12298 4.7109 1.9981 
121 1 4.63165 5.54006 10.6695 
130 1 9.43575 5.47652 3.16736 
134 1 9.94337 4.6147 9.83141 
152 1 9.12404 4.71003 8.61453 
45 1 4.62693 5.53689 22.0863 
55 1 4.8228 5.55199 13.0673 
106 1 9.11773 4.84386 21.776 
137 1 4.81561 5.55255 19.6978 
2 1 7.27503 10.4613 9.02965 
3 1 8.96417 7.65085 6.07503 
6 1 8.49996 6.39564 6.80401 
16 1 2.37609 8.70088 0.877702 
22 1 7.05934 6.16865 8.69044 
26 1 7.20128 8.3976 7.52375 
35 1 7.27134 10.4618 10.4615 
37 1 6.90808 9.18648 11.0124 
39 1 8.29891 8.91729 6.7473 
41 1 6.68419 6.96835 9.83996 
48 1 3.69437 6.35255 0.85009 
61 1 7.27556 10.4604 1.58334 
62 1 8.96416 7.65161 4.53824 
64 1 6.7164 9.17189 1.99219 
68 1 7.3678 6.95178 3.07114 
71 1 4.33655 8.51533 10.7246 
74 1 3.60054 7.81373 9.77742 
81 1 8.50056 6.39531 3.81 
83 1 6.53997 8.38645 0.797873 
93 1 7.27159 10.4609 0.153225 
97 1 8.29952 8.91808 3.8659 
101 1 2.42249 9.87325 10.7024 
103 1 2.38013 8.69169 9.74566 
117 1 7.06041 6.16648 1.92389 
120 1 7.19929 8.397 3.09006 
123 1 3.68973 6.34837 9.76443 
129 1 6.68461 6.96798 0.774612 
132 1 6.71513 9.17354 8.62165 
135 1 7.36809 6.95124 7.54421 
141 1 7.2043 6.2111 10.9611 
144 1 6.53929 8.38727 9.81633 
148 1 3.59661 7.80946 0.828376 
7 1 9.15765 6.02157 11.9496 
10 1 3.74643 9.79698 21.6046 
13 1 2.41902 9.88696 22.0657 
15 1 3.03254 8.32813 17.8789 
28 1 3.74627 9.77611 20.137 
30 1 4.47693 8.55628 19.7633 
34 1 4.33229 6.3259 18.5992 
40 1 7.83854 8.37139 11.9257 
49 1 4.84896 7.7578 20.913 
50 1 2.09621 9.24971 18.5224 
58 1 1.59943 10.1131 11.8484 
59 1 4.17098 7.76943 14.1333 
69 1 3.76789 9.80794 11.1594 
73 1 3.03074 8.34092 14.8517 
75 1 5.00025 6.33589 11.87 
79 1 7.20232 6.21318 21.8012 
82 1 7.93705 6.91403 20.8616 
86 1 3.76909 9.77123 12.6195 
88 1 2.41653 10.013 13.0785 
108 1 9.15886 6.02149 20.8162 
112 1 4.49092 8.5594 12.9955 
115 1 4.32813 6.32289 14.1622 
124 1 4.8606 7.75422 11.8435 
125 1 2.13165 9.22556 14.2103 
126 1 6.90872 9.18665 21.752 
128 1 7.8404 8.37249 20.8388 
139 1 1.59133 10.1088 20.9074 
140 1 4.16377 7.77369 18.6174 
143 1 7.93613 6.91308 11.9027 
146 1 4.33222 8.51521 22.037 
149 1 4.99523 6.3376 20.8911 
157 1 2.40926 10.0138 19.6914 
ITEM: TIMESTEP
50
ITEM: NUMBER OF ATOMS
161
ITEM: BOX BOUNDS xy xz yz pp pp pp
-6.7755000000000001e+00 1.3552000000000000e+01 -6.7755000000000001e+00
0.0000000000000000e+00 1.1735510246683001e+01 0.0000000000000000e+00
0.0000000000000000e+00 2.2149999999999999e+01 0.0000000000000000e+00
ITEM: ATOMS id type x y z 
8 1 -2.45699 5.45416 9.82797 
87 1 2.9495 4.29916 10.6403 
90 1 2.61695 5.45705 9.76219 
109 1 -2.45686 5.4561 0.7867 
158 1 2.63181 5.44647 0.872729 
11 1 4.25172 4.27558 20.1026 
14 1 2.85321 4.18094 19.7142 
18 1 1.27097 5.84681 18.5561 
33 1 2.06472 4.295 20.9096 
43 1 4.2611 4.26752 21.5383 
47 1 3.23308 5.8008 17.828 
52 1 4.27111 4.27194 12.6617 
76 1 2.4204 4.92975 14.1769 
85 1 4.26945 4.27371 11.2232 
89 1 3.23183 5.79015 14.9335 
91 1 0.934387 5.04212 11.8352 
102 1 2.87619 4.15846 13.0551 
105 1 1.29189 5.86521 14.1568 
114 1 2.09111 4.22159 11.8502 
150 1 2.41241 4.93444 18.5722 
156 1 2.93518 4.30856 22.1148 
159 1 0.925848 5.14186 20.9306 
5 1 -4.87113 10.5443 8.63763 
9 1 -3.28993 8.87628 7.48062 
19 1 -1.77284 7.56394 10.5673 
21 1 -2.60712 8.76711 10.9862 
23 1 -3.29836 7.53899 6.81586 
25 1 -4.08309 10.4297 9.83373 
32 1 1.58872 6.38464 0.810135 
36 1 -1.84798 7.59958 9.05997 
38 1 -2.14808 6.27506 8.64153 
54 1 0.335704 8.47193 10.6394 
57 1 1.39599 7.94778 9.78639 
60 1 -1.76692 7.56279 0.0466742 
65 1 -3.29868 7.53886 3.7968 
78 1 -1.8428 7.59994 1.55004 
80 1 -2.50383 8.81284 1.91145 
84 1 -4.43047 9.78872 3.11645 
99 1 -2.94264 9.58222 0.757972 
100 1 -2.93474 6.29166 3.16421 
107 1 -4.87102 10.5434 1.97499 
110 1 -3.28977 8.87537 3.13119 
111 1 0.575118 5.95758 10.7966 
113 1 1.58809 6.39492 9.85096 
119 1 -4.08198 10.4282 0.779547 
127 1 -2.14719 6.27592 1.97137 
131 1 -2.35734 6.25619 11.0142 
138 1 1.3859 7.97802 0.830758 
142 1 -2.50466 8.81273 8.70076 
145 1 -4.43106 9.78864 7.49691 
151 1 -4.95217 10.4149 11.0401 
154 1 -2.94356 9.58434 9.85432 
155 1 -2.93588 6.29145 7.44827 
12 1 2.5724 7.06958 17.1492 
17 1 0.440445 9.26855 20.9026 
24 1 -3.6083 8.33922 11.8857 
27 1 -0.250276 7.1622 21.6429 
29 1 0.582107 5.9619 22.0616 
31 1 1.28249 7.18381 17.892 
44 1 -0.173318 7.12447 20.1396 
46 1 0.13097 8.44865 19.718 
51 1 -0.276261 7.21338 11.1179 
53 1 2.56077 7.06478 15.6058 
56 1 1.31968 7.13329 14.8416 
63 1 -2.35442 6.26111 21.7505 
66 1 -3.40335 6.74659 20.8597 
70 1 -0.196417 7.17832 12.6182 
72 1 0.494302 5.91937 12.8934 
92 1 0.784069 8.51318 14.362 
95 1 -4.95173 10.415 21.724 
98 1 -4.64865 9.27848 20.8144 
104 1 0.431469 9.29296 11.8386 
116 1 -2.5994 8.76263 21.7771 
118 1 -3.60662 8.33811 20.8792 
122 1 0.136517 8.46575 12.9849 
133 1 -3.40395 6.74437 11.9047 
136 1 0.337617 8.46378 22.0884 
147 1 0.487022 5.91155 19.7767 
153 1 -4.65006 9.27805 11.9499 
160 1 0.917681 8.43251 18.5242 
161 2 0.105467 9.05005 15.0593 
1 1 7.76315 4.9007 10.5342 
4 1 9.10845 4.84735 10.9871 
20 1 7.77977 4.95343 9.0604 
42 1 9.43462 5.4772 7.44787 
67 1 9.93652 4.62687 0.783826 
77 1 7.75962 4.89673 0.0772123 
94 1 7.78086 4.95623 1.54938 
96 1 9.11279 4.71507 1.99876 
121 1 4.627 5.54652 10.6761 
130 1 9.43429 5.47792 3.16554 
134 1 9.93627 4.62514 9.83089 
152 1 9.11188 4.714 8.61417 
45 1 4.62225 5.54323 22.0801 
55 1 4.82185 5.55964 13.0683 
106 1 9.10541 4.85015 21.7798 
137 1 4.81364 5.55943 19.6946 
2 1 7.28082 10.4502 9.02374 
3 1 8.96134 7.65611 6.07305 
6 1 8.49942 6.39676 6.80686 
16 1 2.38101 8.70324 0.879174 
22 1 7.04695 6.16279 8.68558 
26 1 7.20101 8.39327 7.52061 
35 1 7.27585 10.454 10.4603 
37 1 6.91167 9.18146 11.0047 
39 1 8.29992 8.92386 6.75337 
41 1 6.6773 6.96152 9.84018 
48 1 3.68562 6.3596 0.862392 
61 1 7.28124 10.4489 1.58983 
62 1 8.96143 7.65642 4.54012 
64 1 6.71843 9.16467 1.99566 
68 1 7.3641 6.94537 3.07466 
71 1 4.34823 8.50929 10.7226 
74 1 3.60927 7.81405 9.77143 
81 1 8.49965 6.39706 3.80731 
83 1 6.54039 8.38392 0.793176 
93 1 7.27573 10.4539 0.154322 
97 1 8.30009 8.92381 3.86001 
101 1 2.43193 9.86666 10.703 
103 1 2.38831 8.69523 9.74529 
117 1 7.04805 6.16283 1.9289 
120 1 7.20007 8.39279 3.09421 
123 1 3.68165 6.3573 9.75244 
129 1 6.67811 6.95954 0.774325 
132 1 6.71778 9.16531 8.61792 
135 1 7.36427 6.94648 7.53949 
141 1 7.19426 6.21697 10.9636 
144 1 6.53933 8.38408 9.82075 
148 1 3.60327 7.81054 0.834049 
7 1 9.15248 6.02001 11.952 
10 1 3.76178 9.80739 21.6061 
13 1 2.42663 9.87971 22.0641 
15 1 3.03454 8.32762 17.8803 
28 1 3.7578 9.77355 20.1355 
30 1 4.489 8.56077 19.7591 
34 1 4.3319 6.33079 18.5957 
40 1 7.84712 8.36416 11.9386 
49 1 4.85688 7.76416 20.9131 
50 1 2.09867 9.24732 18.5238 
58 1 1.61093 10.1006 11.8512 
59 1 4.17487 7.7738 14.1393 
69 1 3.7847 9.82524 11.156 
73 1 3.02629 8.34214 14.8435 
75 1 4.99993 6.33931 11.8647 
79 1 7.19453 6.2142 21.8 
82 1 7.93055 6.91339 20.8564 
86 1 3.77069 9.76839 12.6238 