ITEM: TIMESTEP
0
ITEM: NUMBER OF ATOMS
50
ITEM: BOX BOUNDS pp pp pp
0.0000000000000000e+00 1.1000000000000000e+01
0.0000000000000000e+00 1.1002000000000001e+01
0.0000000000000000e+00 1.1000000000000000e+01
ITEM: ATOMS id type x y z 
10 1 4.603 4.603 4.603 
11 1 3.085 3.085 3.085 
12 1 3.796 3.796 3.796 
46 1 0.726 0.725 0.725 
47 1 2.26 2.259 2.26 
48 1 1.551 1.55 1.55 
49 2 2.685 2.783 4.347 
50 3 2.685 2.783 5.323 
19 1 4.546 4.545 6.226 
20 1 3.013 3.013 7.764 
21 1 3.721 3.721 7.053 
31 1 0.668 0.667 10.103 
32 1 2.187 2.187 8.589 
33 1 1.476 1.475 9.298 
16 1 4.546 6.225 4.546 
17 1 3.013 7.765 3.013 
18 1 3.721 7.053 3.722 
25 1 0.668 10.103 0.668 
26 1 2.188 8.589 2.188 
27 1 1.476 9.298 1.476 
4 1 4.608 6.169 6.169 
5 1 3.086 7.684 7.684 
6 1 3.799 6.974 6.974 
37 1 0.729 10.046 10.046 
38 1 2.259 8.509 8.508 
39 1 1.552 9.219 9.219 
13 1 6.225 4.546 4.546 
14 1 7.764 3.013 3.013 
15 1 7.053 3.721 3.722 
28 1 10.102 0.667 0.668 
29 1 8.589 2.187 2.188 
30 1 9.298 1.475 1.476 
1 1 6.168 4.608 6.169 
2 1 7.684 3.086 7.684 
3 1 6.974 3.799 6.974 
40 1 10.045 0.728 10.046 
41 1 8.508 2.259 8.508 
42 1 9.218 1.551 9.218 
7 1 6.169 6.169 4.608 
8 1 7.684 7.684 3.086 
9 1 6.974 6.974 3.799 
43 1 10.046 10.047 0.729 
44 1 8.508 8.509 2.259 
45 1 9.219 9.219 1.552 
22 1 6.229 6.229 6.229 
23 1 7.764 7.765 7.765 
24 1 7.055 7.056 7.055 
34 1 10.108 10.108 10.107 
35 1 8.59 8.59 8.59 
36 1 9.301 9.301 9.3 
ITEM: TIMESTEP
10
ITEM: NUMBER OF ATOMS
50
ITEM: BOX BOUNDS pp pp pp
0.0000000000000000e+00 1.1000000000000000e+01
0.0000000000000000e+00 1.1002000000000001e+01
0.0000000000000000e+00 1.1000000000000000e+01
ITEM: ATOMS id type x y z 
10 1 4.59449 4.59087 4.58692 
11 1 3.07467 3.08924 3.11341 
12 1 3.84001 3.83646 3.80231 
46 1 0.717736 0.716713 0.717533 
47 1 2.26049 2.25466 2.24742 
48 1 1.54855 1.54531 1.54467 
49 2 2.67958 2.77625 4.34052 
50 3 2.66721 2.76779 5.32739 
19 1 4.55112 4.5509 6.23914 
20 1 3.01822 3.01764 7.76198 
21 1 3.72779 3.72659 7.05929 
31 1 0.665797 0.665594 10.0972 
32 1 2.18848 2.189 8.5886 
33 1 1.47549 1.4746 9.29527 
16 1 4.54926 6.23768 4.54968 
17 1 3.01349 7.76248 3.01374 
18 1 3.72489 7.05346 3.72536 
25 1 0.666488 10.0959 0.666851 
26 1 2.18879 8.58869 2.18881 
27 1 1.47607 9.29674 1.47623 
4 1 4.60637 6.16231 6.16526 
5 1 3.087 7.68351 7.68318 
6 1 3.79879 6.97292 6.97361 
37 1 0.729381 10.0441 10.044 
38 1 2.26011 8.50832 8.50748 
39 1 1.55237 9.21811 9.2179 
13 1 6.23809 4.54921 4.5493 
14 1 7.76283 3.0128 3.01322 
15 1 7.05316 3.72439 3.72474 
28 1 10.0956 0.665973 0.666294 
29 1 8.58918 2.18846 2.18905 
30 1 9.29506 1.47414 1.47584 
1 1 6.16163 4.60667 6.16669 
2 1 7.68357 3.08737 7.6834 
3 1 6.97245 3.79803 6.97308 
40 1 10.0431 0.727969 10.0441 
41 1 8.50764 2.25955 8.50765 
42 1 9.21792 1.55138 9.2178 
7 1 6.16499 6.16574 4.60676 
8 1 7.68367 7.68354 3.08674 
9 1 6.97321 6.9736 3.79873 
43 1 10.0441 10.045 0.729593 
44 1 8.50763 8.50833 2.25992 
45 1 9.21811 9.21856 1.5523 
22 1 6.22901 6.22931 6.22914 
23 1 7.76398 7.76491 7.76475 
24 1 7.05513 7.05591 7.05522 
34 1 10.1078 10.1086 10.1071 
35 1 8.5901 8.59026 8.5902 
36 1 9.30142 9.30147 9.30056 
ITEM: TIMESTEP
20
ITEM: NUMBER OF ATOMS
50
ITEM: BOX BOUNDS pp pp pp
0.0000000000000000e+00 1.1000000000000000e+01
0.0000000000000000e+00 1.1002000000000001e+01
0.0000000000000000e+00 1.1000000000000000e+01
ITEM: ATOMS id type x y z 
10 1 4.6116 4.60564 4.58904 
11 1 3.05772 3.07852 3.1685 
12 1 3.85613 3.85236 3.77808 
46 1 0.712709 0.711369 0.714365 
47 1 2.26077 2.25438 2.23156 
48 1 1.5501 1.54516 1.53617 
49 2 2.68337 2.77756 4.32348 
50 3 2.64396 2.74761 5.33103 
19 1 4.5552 4.55443 6.25152 
20 1 3.01867 3.01796 7.76774 
21 1 3.72995 3.72886 7.06682 
31 1 0.665093 0.664272 10.0926 
32 1 2.18926 2.18925 8.58818 
33 1 1.47491 1.47455 9.29396 
16 1 4.55192 6.24817 4.55147 
17 1 3.01144 7.76295 3.01192 
18 1 3.72478 7.05976 3.72484 
25 1 0.665891 10.0917 0.666242 
26 1 2.18924 8.58899 2.18933 
27 1 1.47493 9.29431 1.47506 
4 1 4.60639 6.16046 6.16578 
5 1 3.0881 7.68329 7.68312 
6 1 3.79774 6.97122 6.97196 
37 1 0.729342 10.0422 10.0421 
38 1 2.26115 8.50754 8.50707 
39 1 1.55355 9.21717 9.21617 
13 1 6.24884 4.55145 4.55051 
14 1 7.76331 3.01065 3.01135 
15 1 7.06007 3.7239 3.72386 
28 1 10.0908 0.66483 0.665918 
29 1 8.58882 2.18821 2.18915 
30 1 9.29421 1.4739 1.4749 
1 1 6.15986 4.60658 6.16727 
2 1 7.68367 3.08766 7.68246 
3 1 6.97026 3.79817 6.97341 
40 1 10.0414 0.728219 10.0418 
41 1 8.50734 2.26063 8.50697 
42 1 9.21587 1.55285 9.21626 
7 1 6.1646 6.1664 4.60737 
8 1 7.68317 7.68322 3.08722 
9 1 6.97251 6.97276 3.7987 
43 1 10.0421 10.0426 0.729832 
44 1 8.50728 8.50754 2.2609 
45 1 9.21624 9.21742 1.55366 
22 1 6.23159 6.23186 6.23081 
23 1 7.76386 7.76474 7.76456 
24 1 7.05452 7.05508 7.05453 
34 1 10.1072 10.1075 10.1064 
35 1 8.58972 8.59 8.58991 
36 1 9.30098 9.30112 9.30016 
ITEM: TIMESTEP
30
ITEM: NUMBER OF ATOMS
50
ITEM: BOX BOUNDS pp pp pp
0.0000000000000000e+00 1.1000000000000000e+01
0.0000000000000000e+00 1.1002000000000001e+01
0.0000000000000000e+00 1.1000000000000000e+01
ITEM: ATOMS id type x y z 
10 1 4.63039 4.62211 4.57929 
11 1 3.03955 3.06706 3.23785 
12 1 3.86682 3.86293 3.76922 
46 1 0.703299 0.700926 0.703874 
47 1 2.2643 2.25734 2.22021 
48 1 1.5562 1.55034 1.52506 
49 2 2.69163 2.78252 4.3123 
50 3 2.61679 2.72408 5.31906 
19 1 4.56056 4.55944 6.26204 
20 1 3.02129 3.02085 7.7736 
21 1 3.73437 3.73305 7.07505 
31 1 0.662154 0.662142 10.0889 
32 1 2.18917 2.18954 8.58958 
33 1 1.47439 1.47215 9.29103 
16 1 4.55416 6.25892 4.55297 
17 1 3.00964 7.76479 3.01049 
18 1 3.72558 7.0657 3.72463 
25 1 0.662394 10.0866 0.662752 
26 1 2.18709 8.58755 2.18726 
27 1 1.47461 9.29657 1.47503 
4 1 4.6044 6.156 6.16795 
5 1 3.08672 7.6826 7.68098 
6 1 3.8009 6.97086 6.97529 
37 1 0.728566 10.0403 10.0385 
38 1 2.26327 8.50723 8.50564 
39 1 1.55274 9.21469 9.2155 
13 1 6.2598 4.55339 4.5514 
14 1 7.76566 3.00862 3.00975 
15 1 7.06607 3.72471 3.7236 
28 1 10.0876 0.662279 0.66335 
29 1 8.58941 2.18711 2.18775 
30 1 9.29251 1.4712 1.47294 
1 1 6.1559 4.6065 6.1714 
2 1 7.68314 3.08758 7.68161 
3 1 6.96895 3.79857 6.97503 
40 1 10.0385 0.727379 10.0388 
41 1 8.50603 2.26271 8.50621 
42 1 9.21597 1.55232 9.21399 
7 1 6.1672 6.16884 4.60953 
8 1 7.6829 7.68227 3.08595 
9 1 6.97281 6.97525 3.80131 
43 1 10.0384 10.0394 0.728858 
44 1 8.50591 8.50683 2.26306 
45 1 9.21571 9.21501 1.55263 
22 1 6.23459 6.23375 6.23158 
23 1 7.76444 7.76447 7.76531 
24 1 7.05405 7.05643 7.0538 
34 1 10.1058 10.1065 10.1054 
35 1 8.58877 8.58938 8.58908 
36 1 9.30084 9.3001 9.29965 
ITEM: TIMESTEP
40
ITEM: NUMBER OF ATOMS
50
ITEM: BOX BOUNDS pp pp pp
0.0000000000000000e+00 1.1000000000000000e+01
0.0000000000000000e+00 1.1002000000000001e+01
0.0000000000000000e+00 1.1000000000000000e+01
ITEM: ATOMS id type x y z 
10 1 4.64621 4.63537 4.56033 
11 1 3.03274 3.0636 3.27493 
12 1 3.87108 3.86775 3.77005 
46 1 0.703329 0.700658 0.697478 
47 1 2.26599 2.25932 2.21298 
48 1 1.56128 1.55469 1.51618 
49 2 2.68864 2.77839 4.32539 
50 3 2.59157 2.70215 5.30796 
19 1 4.56626 4.56495 6.26622 
20 1 3.02508 3.02298 7.77862 
21 1 3.73844 3.73751 7.08127 
31 1 0.660423 0.659098 10.0861 
32 1 2.18909 2.1874 8.5886 
33 1 1.47316 1.4757 9.29402 
16 1 4.55699 6.26303 4.55344 
17 1 3.00929 7.76641 3.00895 
18 1 3.72571 7.07076 3.72643 
25 1 0.661625 10.0904 0.662592 
26 1 2.1865 8.59153 2.18694 
27 1 1.46942 9.29075 1.46974 
4 1 4.60437 6.15254 6.17293 
5 1 3.0909 7.68453 7.68273 
6 1 3.79398 6.96555 6.97316 
37 1 0.725639 10.0345 10.0351 
38 1 2.26308 8.50461 8.50584 
39 1 1.55384 9.21774 9.21199 
13 1 6.26347 4.55613 4.55177 
14 1 7.76764 3.00819 3.00843 
15 1 7.0717 3.72499 3.72513 
28 1 10.088 0.65891 0.661191 
29 1 8.58953 2.18346 2.1859 
30 1 9.29386 1.47067 1.46914 
1 1 6.15122 4.60454 6.17535 
2 1 7.68361 3.08812 7.68174 
3 1 6.96628 3.79755 6.97669 
40 1 10.0366 0.724538 10.0339 
41 1 8.50746 2.26303 8.50386 
42 1 9.21303 1.55218 9.21611 
7 1 6.17008 6.17482 4.61477 
8 1 7.68272 7.68546 3.08784 
9 1 6.97471 6.97141 3.79841 
43 1 10.0357 10.0346 0.725456 
44 1 8.50643 8.50454 2.26288 
45 1 9.213 9.2172 1.55275 
22 1 6.23757 6.23898 6.23093 
23 1 7.76433 7.76779 7.76589 
24 1 7.05803 7.05388 7.05582 
34 1 10.1052 10.1054 10.1046 
35 1 8.58886 8.58778 8.58834 
36 1 9.29828 9.30086 9.2991 
ITEM: TIMESTEP
50
ITEM: NUMBER OF ATOMS
50
ITEM: BOX BOUNDS pp pp pp
0.0000000000000000e+00 1.1000000000000000e+01
0.0000000000000000e+00 1.1002000000000001e+01
0.0000000000000000e+00 1.1000000000000000e+01
ITEM: ATOMS id type x y z 
10 1 4.65275 4.64151 4.55169 
11 1 3.03129 3.06289 3.28295 
12 1 3.87181 3.86866 3.76918 
46 1 0.703102 0.699947 0.694481 
47 1 2.26704 2.26084 2.21352 
48 1 1.56509 1.55809 1.51227 
49 2 2.68435 2.77407 4.3315 
50 3 2.57966 2.69178 5.30963 
19 1 4.56785 4.56634 6.26862 
20 1 3.02577 3.02455 7.78074 
21 1 3.74025 3.73846 7.08384 
31 1 0.660221 0.660251 10.0879 
32 1 2.18939 2.1899 8.5908 
33 1 1.47374 1.47133 9.29037 
16 1 4.55608 6.26458 4.55391 
17 1 3.00826 7.76813 3.01007 
18 1 3.72742 7.07248 3.72395 
25 1 0.659556 10.0885 0.659806 
26 1 2.18401 8.58836 2.1844 
27 1 1.47118 9.29671 1.4716 
4 1 4.60131 6.14959 6.17318 
5 1 3.08743 7.68277 7.6818 
6 1 3.79893 6.96774 6.97648 
37 1 0.725487 10.0355 10.0337 
38 1 2.26452 8.50662 8.50482 
39 1 1.55187 9.21448 9.2128 
13 1 6.26534 4.55493 4.55216 
14 1 7.76931 3.00697 3.00925 
15 1 7.07354 3.72624 3.72245 
28 1 10.09 0.658947 0.659873 
29 1 8.59072 2.18388 2.1842 
30 1 9.29251 1.46682 1.46915 
1 1 6.15029 4.60477 6.17698 
2 1 7.68451 3.08844 7.68144 
3 1 6.964 3.79666 6.9783 
40 1 10.0348 0.724524 10.0342 
41 1 8.50616 2.26386 8.50487 
42 1 9.21421 1.55135 9.21274 
7 1 6.17244 6.17578 4.6168 
8 1 7.6834 7.68337 3.08525 
9 1 6.97542 6.97625 3.80298 
43 1 10.0347 10.036 0.725436 
44 1 8.50546 8.5064 2.26351 
45 1 9.21413 9.21431 1.55086 
22 1 6.23985 6.23882 6.23064 
23 1 7.76508 7.7657 7.7666 
24 1 7.0565 7.05662 7.05355 
34 1 10.1051 10.1044 10.1028 
35 1 8.58868 8.58853 8.58708 
36 1 9.29752 9.29936 9.30094 
ITEM: TIMESTEP
60
ITEM: NUMBER OF ATOMS
50
ITEM: BOX BOUNDS pp pp pp
0.0000000000000000e+00 1.1000000000000000e+01
0.0000000000000000e+00 1.1002000000000001e+01
0.0000000000000000e+00 1.1000000000000000e+01
ITEM: ATOMS id type x y z 
10 1 4.65841 4.64649 4.54372 
11 1 3.03032 3.06253 3.29051 
12 1 3.87316 3.87024 3.76969 
46 1 0.704012 0.700356 0.692216 
47 1 2.2677 2.26191 2.2134 
48 1 1.56745 1.56007 1.50814 
49 2 2.68091 2.77063 4.33637 
50 3 2.56904 2.68252 5.31186 
19 1 4.56919 4.56786 6.27013 
20 1 3.02687 3.02581 7.78265 
21 1 3.74172 3.73961 7.0859 
31 1 0.6602 0.65936 10.0871 
32 1 2.18953 2.18902 8.59042 
33 1 1.47414 1.47326 9.2915 
16 1 4.55713 6.26521 4.5532 
17 1 3.00905 7.7696 3.00938 
18 1 3.72594 7.07306 3.72457 
25 1 0.660064 10.0907 0.659404 
26 1 2.18365 8.59017 2.18441 
27 1 1.46934 9.29428 1.4695 
4 1 4.6006 6.14852 6.17422 
5 1 3.08855 7.68342 7.68212 
6 1 3.79704 6.96552 6.97675 
37 1 0.724581 10.0346 10.0329 
38 1 2.26445 8.50679 8.50477 
39 1 1.55123 9.21421 9.21223 
13 1 6.26593 4.55578 4.55103 
14 1 7.77088 3.00788 3.00856 
15 1 7.07425 3.72472 3.72317 
28 1 10.0896 0.657864 0.658636 
29 1 8.58965 2.18171 2.18303 
30 1 9.2954 1.46801 1.46894 
1 1 6.14756 4.60307 6.17851 
2 1 7.68314 3.08767 7.68223 
3 1 6.96555 3.79793 6.97835 
40 1 10.0341 0.723808 10.0331 
41 1 8.50647 2.26406 8.50443 
42 1 9.21386 1.55056 9.21263 
7 1 6.17433 6.17769 4.61973 
8 1 7.68355 7.68345 3.08523 
9 1 6.97607 6.97741 3.80429 
43 1 10.0346 10.0347 0.724623 
44 1 8.50553 8.50542 2.26286 
45 1 9.21318 9.21518 1.55115 
22 1 6.24136 6.23993 6.22923 
23 1 7.76553 7.76593 7.76698 
24 1 7.05679 7.05716 7.05277 
34 1 10.1041 10.1042 10.1028 
35 1 8.58704 8.58802 8.58809 
36 1 9.29924 9.29906 9.29853 
ITEM: TIMESTEP
70
ITEM: NUMBER OF ATOMS
50
ITEM: BOX BOUNDS pp pp pp
0.0000000000000000e+00 1.1000000000000000e+01
0.0000000000000000e+00 1.1002000000000001e+01
0.0000000000000000e+00 1.1000000000000000e+01
ITEM: ATOMS id type x y z 
10 1 4.74953 4.73066 4.39542 
11 1 3.01993 3.06154 3.42138 
12 1 3.88496 3.88624 3.77386 
46 1 0.723824 0.710503 0.651417 
47 1 2.27852 2.28007 2.21382 
48 1 1.6205 1.60667 1.44983 
49 2 2.61813 2.70892 4.42368 
50 3 2.37669 2.51451 5.35843 
19 1 4.59648 4.59399 6.2998 
20 1 3.05057 3.04254 7.81437 
21 1 3.76742 3.76384 7.11987 
31 1 0.664564 0.658807 10.0858 
32 1 2.19892 2.19482 8.59758 
33 1 1.47007 1.48089 9.28665 
16 1 4.55204 6.26798 4.54527 
17 1 3.01055 7.79347 3.00627 
18 1 3.72033 7.09068 3.72235 
25 1 0.650732 10.097 0.641968 
26 1 2.16684 8.58786 2.16721 
27 1 1.4627 9.31191 1.4627 
4 1 4.56755 6.11586 6.18475 
5 1 3.09264 7.68371 7.68853 
6 1 3.78124 6.94482 6.98421 
37 1 0.710639 10.0189 10.0175 
38 1 2.26746 8.50705 8.50104 
39 1 1.54452 9.21054 9.20077 
13 1 6.27197 4.54694 4.54317 
14 1 7.79827 3.00639 3.00618 
15 1 7.08658 3.71742 3.71053 
28 1 10.1165 0.656676 0.646982 
29 1 8.61583 2.17683 2.1763 
30 1 9.26806 1.43633 1.44125 
1 1 6.13044 4.58763 6.19195 
2 1 7.69815 3.10375 7.68441 
3 1 6.91651 3.76324 7.0012 
40 1 10.0216 0.709994 10.0189 
41 1 8.50732 2.264 8.49839 
42 1 9.21307 1.54518 9.20593 
7 1 6.21131 6.21922 4.66683 
8 1 7.69027 7.69116 3.08269 
9 1 6.99288 6.99873 3.82579 
43 1 10.0272 10.0431 0.723647 
44 1 8.49891 8.51658 2.25964 
45 1 9.22239 9.18957 1.52669 
22 1 6.26846 6.26462 6.21115 
23 1 7.76816 7.77178 7.77504 
24 1 7.07296 7.06661 7.04171 
34 1 10.0974 10.0984 10.0899 
35 1 8.5809 8.58378 8.58885 
36 1 9.29945 9.2952 9.29427 
ITEM: TIMESTEP
80
ITEM: NUMBER OF ATOMS
50
ITEM: BOX BOUNDS pp pp pp
0.0000000000000000e+00 1.1000000000000000e+01
0.0000000000000000e+00 1.1002000000000001e+01
0.0000000000000000e+00 1.1000000000000000e+01
ITEM: ATOMS id type x y z 
10 1 4.77091 4.75439 4.3084 
11 1 2.99333 3.03522 3.434 
12 1 3.87927 3.88283 3.7744 
46 1 0.742021 0.728151 0.645295 
47 1 2.27894 2.28189 2.21774 
48 1 1.63326 1.62014 1.44695 
49 2 2.59646 2.68929 4.45253 
50 3 2.3113 2.45668 5.3744 
19 1 4.60417 4.59999 6.33893 
20 1 3.05868 3.05054 7.81965 
21 1 3.77752 3.77018 7.13145 
31 1 0.669141 0.667687 10.0964 
32 1 2.2011 2.20077 8.59878 
33 1 1.4802 1.48463 9.28599 
16 1 4.54754 6.27274 4.54954 
17 1 3.00853 7.7965 3.00661 
18 1 3.72088 7.09512 3.71973 
25 1 0.653903 10.1167 0.64176 
26 1 2.16601 8.5985 2.1677 
27 1 1.45879 9.30653 1.45301 
4 1 4.55332 6.10035 6.17349 
5 1 3.09111 7.67952 7.69175 
6 1 3.7766 6.94246 6.98468 
37 1 0.709003 10.0164 10.0162 
38 1 2.26759 8.50809 8.498 
39 1 1.54162 9.20982 9.20378 
13 1 6.2764 4.54111 4.54516 
14 1 7.80395 3.00805 3.0041 
15 1 7.09628 3.71728 3.71577 
28 1 10.1221 0.654223 0.640192 
29 1 8.60843 2.16742 2.16803 
30 1 9.2872 1.44174 1.44336 
1 1 6.10786 4.56971 6.18394 
2 1 7.68613 3.09283 7.69071 
3 1 6.92304 3.76958 7.00229 
40 1 10.0211 0.709614 10.0183 
41 1 8.51406 2.26679 8.4987 
42 1 9.21218 1.54072 9.20273 
7 1 6.21892 6.22777 4.67985 
8 1 7.69317 7.69937 3.08414 
9 1 7.00131 7.00857 3.83311 
43 1 10.0389 10.0414 0.723301 
44 1 8.5044 8.50883 2.24856 
45 1 9.21974 9.2013 1.52706 
22 1 6.27396 6.2642 6.20263 
23 1 7.77013 7.77139 7.77172 
24 1 7.07182 7.06847 7.03938 
34 1 10.1009 10.1013 10.0858 
35 1 8.58157 8.58225 8.59088 
36 1 9.29737 9.29806 9.29519 
ITEM: TIMESTEP
90
ITEM: NUMBER OF ATOMS
50
ITEM: BOX BOUNDS pp pp pp
0.0000000000000000e+00 1.1000000000000000e+01
0.0000000000000000e+00 1.1002000000000001e+01
0.0000000000000000e+00 1.1000000000000000e+01
ITEM: ATOMS id type x y z 
10 1 4.76595 4.75087 4.262 
11 1 2.96211 3.00102 3.42645 
12 1 3.84845 3.85353 3.75559 
46 1 0.752404 0.740711 0.650954 
47 1 2.27845 2.28029 2.22512 
48 1 1.62817 1.61787 1.46054 
49 2 2.58638 2.68175 4.45133 
50 3 2.30692 2.45203 5.37445 
19 1 4.60624 4.60661 6.34511 
20 1 3.0589 3.05215 7.81431 
21 1 3.78217 3.77586 7.12916 
31 1 0.681672 0.679056 10.1053 
32 1 2.20639 2.20598 8.59375 
33 1 1.48872 1.48966 9.29218 
16 1 4.54664 6.27701 4.55493 
17 1 3.0092 7.79137 3.00932 
18 1 3.72308 7.0939 3.72631 
25 1 0.662347 10.1243 0.64725 
26 1 2.17051 8.60101 2.17256 
27 1 1.46561 9.30856 1.4524 
4 1 4.54302 6.09616 6.15864 
5 1 3.08984 7.67888 7.69379 
6 1 3.76562 6.94233 6.97954 
37 1 0.711527 10.0237 10.024 
38 1 2.26511 8.5084 8.50343 
39 1 1.54063 9.21419 9.2065 
13 1 6.27925 4.54087 4.552 
14 1 7.79797 3.00974 3.007 
15 1 7.09784 3.7201 3.72607 
28 1 10.1196 0.655322 0.641664 
29 1 8.59845 2.16655 2.1662 
30 1 9.30945 1.45735 1.45358 
1 1 6.09952 4.55237 6.16775 
2 1 7.67548 3.08631 7.69744 
3 1 6.93968 3.7704 6.99058 
40 1 10.0274 0.71178 10.0258 
41 1 8.51441 2.26241 8.50084 
42 1 9.21766 1.54383 9.20891 
7 1 6.22204 6.22625 4.68266 
8 1 7.69753 7.70161 3.08766 
9 1 7.00103 7.01191 3.83256 
43 1 10.0516 10.0487 0.727752 
44 1 8.50838 8.50507 2.24009 
45 1 9.22195 9.21793 1.53417 
22 1 6.2726 6.26171 6.19581 
23 1 7.76924 7.76856 7.76652 
24 1 7.06749 7.06649 7.03736 
34 1 10.1105 10.1041 10.0829 
35 1 8.58281 8.58144 8.58994 
36 1 9.2941 9.29901 9.29595 
ITEM: TIMESTEP
100
ITEM: NUMBER OF ATOMS
50
ITEM: BOX BOUNDS pp pp pp
0.0000000000000000e+00 1.1000000000000000e+01
0.0000000000000000e+00 1.1002000000000001e+01
0.0000000000000000e+00 1.1000000000000000e+01
ITEM: ATOMS id type x y z 
10 1 4.74922 4.73809 4.2284 
11 1 2.933 2.96765 3.43994 
12 1 3.83023 3.83561 3.74283 
46 1 0.765673 0.749838 0.653223 
47 1 2.27751 2.27932 2.24682 
48 1 1.62747 1.61935 1.47364 
49 2 2.55947 2.65794 4.45544 
50 3 2.2973 2.44311 5.37756 
19 1 4.60568 4.60051 6.31228 
20 1 3.06536 3.06135 7.80382 
21 1 3.78784 3.78382 7.11489 
31 1 0.700631 0.699174 10.1142 
32 1 2.21743 2.21544 8.58837 
33 1 1.5065 1.5043 9.29807 
16 1 4.53838 6.25088 4.53966 
17 1 3.00755 7.79838 3.01235 
18 1 3.71407 7.09058 3.72699 
25 1 0.675027 10.1233 0.647187 
26 1 2.18537 8.59346 2.17045 
27 1 1.47444 9.32261 1.47858 
4 1 4.52482 6.09851 6.14584 
5 1 3.07994 7.67726 7.69391 
6 1 3.75385 6.94213 6.97538 
37 1 0.709378 10.0387 10.0242 
38 1 2.25875 8.51568 8.5049 
39 1 1.54588 9.20907 9.22626 
13 1 6.25112 4.52976 4.54333 
14 1 7.79752 3.00462 3.01048 
15 1 7.09565 3.71425 3.72707 
28 1 10.1189 0.662222 0.652495 
29 1 8.6027 2.1785 2.17948 
30 1 9.30992 1.47645 1.45599 
1 1 6.10106 4.53647 6.1505 
2 1 7.67447 3.08092 7.70175 
3 1 6.94747 3.75366 6.97529 
40 1 10.0425 0.717848 10.0352 
41 1 8.51544 2.26308 8.51142 
42 1 9.21389 1.53702 9.21578 
7 1 6.22629 6.23713 4.69159 
8 1 7.6941 7.70926 3.0748 
9 1 7.03042 7.01566 3.84498 
43 1 10.0643 10.0641 0.740225 
44 1 8.51367 8.5119 2.23569 
45 1 9.2322 9.23081 1.54415 
22 1 6.2643 6.25971 6.1962 
23 1 7.75876 7.76419 7.76485 
24 1 7.07703 7.0611 7.01846 
34 1 10.1081 10.1128 10.0804 
35 1 8.57188 8.58982 8.59779 
36 1 9.31951 9.28968 9.28283 
ITEM: TIMESTEP
110
ITEM: NUMBER OF ATOMS
50
ITEM: BOX BOUNDS pp pp pp
0.0000000000000000e+00 1.1000000000000000e+01
0.0000000000000000e+00 1.1002000000000001e+01
0.0000000000000000e+00 1.1000000000000000e+01
ITEM: ATOMS id type x y z 
10 1 4.7426 4.73532 4.21776 
11 1 2.93338 2.96674 3.44606 
12 1 3.83115 3.83721 3.74747 
46 1 0.770563 0.754683 0.655992 
47 1 2.27881 2.28138 2.25723 
48 1 1.62787 1.61836 1.47452 
49 2 2.54856 2.64722 4.45921 
50 3 2.2895 2.43661 5.38608 
19 1 4.60622 4.60591 6.30759 
20 1 3.06561 3.06219 7.80281 
21 1 3.78591 3.78133 7.10925 
31 1 0.70565 0.705095 10.1128 
32 1 2.22229 2.21959 8.58865 
33 1 1.51133 1.50965 9.30006 
16 1 4.53338 6.24691 4.53746 
17 1 3.00896 7.79569 3.01374 
18 1 3.71488 7.08689 3.72752 
25 1 0.674424 10.1268 0.655677 
26 1 2.18129 8.60812 2.17659 
27 1 1.47509 9.31997 1.46141 
4 1 4.52331 6.09535 6.14198 
5 1 3.07734 7.67565 7.69147 
6 1 3.74862 6.94166 6.97051 
37 1 0.712126 10.034 10.0319 
38 1 2.26131 8.50937 8.51297 
39 1 1.54373 9.21553 9.21766 
13 1 6.24876 4.52562 4.53819 
14 1 7.79962 3.00619 3.01385 
15 1 7.08991 3.71138 3.72791 
28 1 10.1169 0.66555 0.649612 
29 1 8.60877 2.18064 2.17368 
30 1 9.31582 1.46861 1.45939 
1 1 6.10358 4.53027 6.14472 
2 1 7.67546 3.07737 7.69487 
3 1 6.94254 3.75452 6.97826 
40 1 10.038 0.715032 10.036 
41 1 8.51068 2.25871 8.51507 
42 1 9.21997 1.54304 9.21827 
7 1 6.23308 6.2361 4.69311 
8 1 7.70365 7.70498 3.0832 
9 1 7.01707 7.02022 3.84135 
43 1 10.0693 10.0687 0.743249 
44 1 8.51502 8.51533 2.23581 
45 1 9.23266 9.23507 1.54435 
22 1 6.26549 6.25589 6.18666 
23 1 7.76506 7.76662 7.76204 
24 1 7.06918 7.06552 7.02793 
34 1 10.1223 10.1132 10.0743 
35 1 8.58169 8.58292 8.59211 
36 1 9.30359 9.29834 9.28778 
ITEM: TIMESTEP
120
ITEM: NUMBER OF ATOMS
50
ITEM: BOX BOUNDS pp pp pp
0.0000000000000000e+00 1.1000000000000000e+01
0.0000000000000000e+00 1.1002000000000001e+01
0.0000000000000000e+00 1.1000000000000000e+01
ITEM: ATOMS id type x y z 
10 1 4.74414 4.7364 4.21712 
11 1 2.93102 2.96419 3.44937 
12 1 3.82941 3.83605 3.7482 
46 1 0.772336 0.756851 0.653633 
47 1 2.27877 2.28115 2.25969 
48 1 1.62919 1.61964 1.47636 
49 2 2.54522 2.6438 4.46095 
50 3 2.28617 2.43381 5.38875 
19 1 4.60618 4.60451 6.30657 
20 1 3.06626 3.06285 7.80157 
21 1 3.78609 3.78124 7.10654 
31 1 0.706474 0.706617 10.1145 
32 1 2.22328 2.2206 8.5897 
33 1 1.51226 1.51083 9.30154 
16 1 4.53269 6.2473 4.53767 
17 1 3.00782 7.79751 3.01327 
18 1 3.71317 7.08684 3.72583 
25 1 0.673889 10.1276 0.654981 
26 1 2.18307 8.60844 2.1772 
27 1 1.47561 9.32047 1.46372 
4 1 4.52269 6.09657 6.13996 
5 1 3.07609 7.67429 7.69046 
6 1 3.74852 6.94094 6.96976 
37 1 0.712653 10.0343 10.0309 
38 1 2.26145 8.50869 8.5136 
39 1 1.54373 9.21572 9.21688 
13 1 6.24868 4.52495 4.53837 
14 1 7.80119 3.00558 3.01332 
15 1 7.08964 3.70941 3.72681 
28 1 10.1171 0.664242 0.648655 
29 1 8.6098 2.18096 2.17504 
30 1 9.31625 1.4701 1.45927 
1 1 6.10265 4.53066 6.14385 
2 1 7.67394 3.07657 7.69574 
3 1 6.94398 3.75215 6.97496 
40 1 10.0396 0.715465 10.0354 
41 1 8.51058 2.25898 8.515 
42 1 9.21868 1.54358 9.21913 
7 1 6.23272 6.23584 4.69279 
8 1 7.7054 7.70714 3.08474 
9 1 7.01677 7.01916 3.83816 
43 1 10.0688 10.0697 0.744389 
44 1 8.5153 8.51642 2.23682 
45 1 9.23413 9.23513 1.54602 
22 1 6.26599 6.25659 6.18777 
23 1 7.76487 7.76618 7.76035 
24 1 7.06756 7.06375 7.02867 
34 1 10.1229 10.1135 10.0724 
35 1 8.58284 8.58339 8.59267 
36 1 9.30453 9.30042 9.28696 
ITEM: TIMESTEP
130
ITEM: NUMBER OF ATOMS
50
ITEM: BOX BOUNDS pp pp pp
0.0000000000000000e+00 1.1000000000000000e+01
0.0000000000000000e+00 1.1002000000000001e+01
0.0000000000000000e+00 1.1000000000000000e+01
ITEM: ATOMS id type x y z 
10 1 4.74426 4.73687 4.20787 
11 1 2.92265 2.95551 3.47334 
12 1 3.82435 3.83189 3.75749 
46 1 0.784021 0.767117 0.648727 
47 1 2.27812 2.27953 2.27582 
48 1 1.63357 1.62362 1.48279 
49 2 2.52329 2.62152 4.47494 
50 3 2.26409 2.41507 5.40473 
19 1 4.60617 4.60325 6.29665 
20 1 3.06888 3.06338 7.79311 
21 1 3.7854 3.78277 7.09545 
31 1 0.7152 0.716157 10.1219 
32 1 2.23107 2.22891 8.59416 
33 1 1.52141 1.52083 9.30872 
16 1 4.52791 6.24675 4.53407 
17 1 3.00419 7.80334 3.01353 
18 1 3.70763 7.08508 3.72031 
25 1 0.672303 10.1324 0.654075 
26 1 2.18496 8.61921 2.1785 
27 1 1.47604 9.32837 1.46368 
4 1 4.52201 6.0974 6.13079 
5 1 3.06871 7.667 7.68618 
6 1 3.7443 6.93766 6.9649 
37 1 0.712209 10.0357 10.0291 
38 1 2.26202 8.50572 8.51494 
39 1 1.54269 9.21326 9.21543 
13 1 6.24584 4.52011 4.5333 
14 1 7.80734 3.00265 3.013 
15 1 7.08765 3.70214 3.72245 
28 1 10.1171 0.661023 0.64473 
29 1 8.62028 2.18172 2.17711 
30 1 9.32314 1.47037 1.45849 
1 1 6.10407 4.52863 6.13583 
2 1 7.66913 3.06884 7.68981 
3 1 6.9413 3.74634 6.96892 
40 1 10.0425 0.718152 10.0342 
41 1 8.5063 2.26024 8.51883 
42 1 9.21726 1.54514 9.22024 
7 1 6.23225 6.23387 4.69098 
8 1 7.70952 7.71135 3.09106 
9 1 7.01522 7.01733 3.83362 
43 1 10.0743 10.0765 0.751065 
44 1 8.52185 8.52298 2.24594 
45 1 9.23918 9.24102 1.55331 
22 1 6.26339 6.25524 6.18478 
23 1 7.7648 7.76361 7.7588 
24 1 7.06454 7.06257 7.02904 
34 1 10.1323 10.12 10.0609 
35 1 8.58457 8.58576 8.58966 
36 1 9.31057 9.30303 9.27868 
ITEM: TIMESTEP
140
ITEM: NUMBER OF ATOMS
50
ITEM: BOX BOUNDS pp pp pp
0.0000000000000000e+00 1.1000000000000000e+01
0.0000000000000000e+00 1.1002000000000001e+01
0.0000000000000000e+00 1.1000000000000000e+01
ITEM: ATOMS id type x y z 
10 1 4.74313 4.73658 4.20571 
11 1 2.9212 2.95397 3.47652 
12 1 3.82312 3.83059 3.75915 
46 1 0.784985 0.766955 0.649493 
47 1 2.27756 2.27911 2.27829 
48 1 1.63449 1.62417 1.4838 
49 2 2.52087 2.61921 4.47766 
50 3 2.26035 2.41172 5.40596 
19 1 4.60635 4.60351 6.29507 
20 1 3.06858 3.06429 7.79297 
21 1 3.7865 3.78196 7.09472 
31 1 0.716768 0.718436 10.1222 
32 1 2.23231 2.22995 8.59387 
33 1 1.5227 1.5222 9.30924 
16 1 4.52759 6.24574 4.53171 
17 1 3.00394 7.80329 3.01338 
18 1 3.70826 7.08597 3.72055 
25 1 0.6718 10.134 0.654198 
26 1 2.1846 8.62043 2.17889 
27 1 1.47627 9.32953 1.46356 
4 1 4.52201 6.09777 6.131 
5 1 3.06831 7.66605 7.68622 
6 1 3.7436 6.9378 6.96345 
37 1 0.711589 10.0351 10.0287 
38 1 2.26072 8.50476 8.51463 
39 1 1.54327 9.21347 9.21587 
13 1 6.24536 4.51936 4.532 
14 1 7.80707 3.00191 3.01345 
15 1 7.08854 3.70347 3.72232 
28 1 10.1181 0.661154 0.644071 
29 1 8.62166 2.18211 2.17728 
30 1 9.32324 1.46966 1.4586 
1 1 6.10396 4.52833 6.13514 
2 1 7.6682 3.06795 7.6895 
3 1 6.94134 3.74634 6.96834 
40 1 10.0425 0.717526 10.034 
41 1 8.50575 2.25935 8.51849 
42 1 9.21723 1.54572 9.22078 
7 1 6.23144 6.23317 4.6902 
8 1 7.70858 7.71048 3.08963 
9 1 7.01771 7.01955 3.83804 
43 1 10.0754 10.0773 0.7514 
44 1 8.52249 8.52401 2.24681 
45 1 9.24078 9.24214 1.55525 
22 1 6.26288 6.25526 6.18344 
23 1 7.76333 7.76341 7.75925 
24 1 7.06628 7.06219 7.02697 
34 1 10.1339 10.1208 10.0583 
35 1 8.58547 8.58524 8.58853 
36 1 9.30985 9.30397 9.27746 
ITEM: TIMESTEP
150
ITEM: NUMBER OF ATOMS
50
ITEM: BOX BOUNDS pp pp pp
0.0000000000000000e+00 1.1000000000000000e+01
0.0000000000000000e+00 1.1002000000000001e+01
0.0000000000000000e+00 1.1000000000000000e+01
ITEM: ATOMS id type x y z 
10 1 4.743 4.73641 4.20508 
11 1 2.92053 2.95323 3.4779 
12 1 3.82268 3.83021 3.75983 
46 1 0.785507 0.767131 0.649455 
47 1 2.27741 2.27899 2.27932 
48 1 1.63474 1.62425 1.48418 
49 2 2.51988 2.61827 4.47871 
50 3 2.25882 2.41034 5.4067 
19 1 4.60644 4.60353 6.29451 
20 1 3.06896 3.06444 7.79275 
21 1 3.78629 3.7822 7.0941 
31 1 0.717323 0.719147 10.1225 
32 1 2.23272 2.23031 8.59395 
33 1 1.52308 1.52271 9.30941 
16 1 4.52761 6.24537 4.53117 
17 1 3.00399 7.80352 3.01335 
18 1 3.70804 7.08615 3.72041 
25 1 0.671896 10.1344 0.654051 
26 1 2.18482 8.62082 2.17872 
27 1 1.47583 9.33002 1.46421 
4 1 4.52193 6.09795 6.13058 
5 1 3.06804 7.66595 7.68594 
6 1 3.74341 6.9374 6.96348 
37 1 0.71148 10.0352 10.0285 
38 1 2.26049 8.50437 8.51453 
39 1 1.54314 9.21333 9.21581 
13 1 6.24506 4.51937 4.53154 
14 1 7.80726 3.00193 3.01357 
15 1 7.0886 3.70337 3.72221 
28 1 10.1183 0.661155 0.643876 
29 1 8.62211 2.18229 2.17734 
30 1 9.32328 1.46937 1.45878 
1 1 6.10397 4.52823 6.13486 
2 1 7.66773 3.0678 7.68963 
3 1 6.94157 3.74593 6.96764 
40 1 10.0426 0.717595 10.0341 
41 1 8.50546 2.25925 8.51866 
42 1 9.21727 1.54544 9.22041 
7 1 6.23153 6.23316 4.69 
8 1 7.70881 7.71069 3.08985 
9 1 7.01795 7.01977 3.8383 
43 1 10.0759 10.0776 0.751754 
44 1 8.523 8.52441 2.24721 
45 1 9.24104 9.2427 1.55569 
22 1 6.26299 6.25517 6.18316 
23 1 7.76338 7.76323 7.75917 
24 1 7.06608 7.06237 7.02665 
34 1 10.1343 10.1211 10.0575 
35 1 8.58539 8.5852 8.58842 
36 1 9.31039 9.30418 9.27646 
ITEM: TIMESTEP
160
ITEM: NUMBER OF ATOMS
50
ITEM: BOX BOUNDS pp pp pp
0.0000000000000000e+00 1.1000000000000000e+01
0.0000000000000000e+00 1.1002000000000001e+01
0.0000000000000000e+00 1.1000000000000000e+01
ITEM: ATOMS id type x y z 
10 1 4.74009 4.73517 4.19627 
11 1 2.91258 2.94459 3.49575 
12 1 3.81752 3.82573 3.76682 
46 1 0.792841 0.770561 0.64925 
47 1 2.27554 2.27727 2.29242 
48 1 1.63837 1.62595 1.48999 
49 2 2.50705 2.60601 4.49238 
50 3 2.23767 2.39136 5.41731 
19 1 4.60632 4.60434 6.28662 
20 1 3.07105 3.06672 7.78876 
21 1 3.78796 3.78414 7.08981 
31 1 0.72415 0.727106 10.1272 
32 1 2.23877 2.23537 8.59562 
33 1 1.5268 1.52846 9.30971 
16 1 4.52718 6.24144 4.52561 
17 1 3.00407 7.80659 3.01309 
18 1 3.70706 7.08733 3.71935 
25 1 0.670722 10.1393 0.655312 
26 1 2.18442 8.62636 2.18093 
27 1 1.47673 9.33467 1.46462 
4 1 4.52209 6.09822 6.12716 
5 1 3.06579 7.66136 7.68596 
6 1 3.73856 6.93804 6.95607 
37 1 0.709934 10.0364 10.0257 
38 1 2.25683 8.50045 8.51423 
39 1 1.54134 9.21112 9.21533 
13 1 6.24241 4.51892 4.52686 
14 1 7.8106 3.00135 3.0144 
15 1 7.08926 3.70256 3.72078 
28 1 10.119 0.659762 0.642211 
29 1 8.62679 2.18244 2.17907 
30 1 9.32581 1.46919 1.4589 
1 1 6.10533 4.52545 6.12841 
2 1 7.66364 3.06387 7.68769 
3 1 6.94082 3.74455 6.96496 
40 1 10.0442 0.716594 10.0331 
41 1 8.50199 2.25557 8.51814 
42 1 9.21735 1.54648 9.22076 
7 1 6.23173 6.23439 4.68818 
8 1 7.71256 7.71501 3.09394 
9 1 7.02094 7.02019 3.83786 
43 1 10.0813 10.0819 0.756187 
44 1 8.5284 8.52975 2.25319 
45 1 9.2453 9.24876 1.56105 
22 1 6.26329 6.25483 6.17961 
23 1 7.76318 7.76202 7.75681 
24 1 7.06505 7.06229 7.02488 
34 1 10.1414 10.1256 10.0449 
35 1 8.58681 8.58527 8.58448 
36 1 9.31339 9.30627 9.26837 
ITEM: TIMESTEP
170
ITEM: NUMBER OF ATOMS
50
ITEM: BOX BOUNDS pp pp pp
0.0000000000000000e+00 1.1000000000000000e+01
0.0000000000000000e+00 1.1002000000000001e+01
0.0000000000000000e+00 1.1000000000000000e+01
ITEM: ATOMS id type x y z 
10 1 4.73981 4.73444 4.19585 
11 1 2.91165 2.94369 3.49822 
12 1 3.81684 3.82512 3.76802 
46 1 0.794075 0.771417 0.64887 
47 1 2.27526 2.27676 2.29429 
48 1 1.63846 1.62588 1.49089 
49 2 2.5051 2.60414 4.4946 
50 3 2.23457 2.38854 5.41843 
19 1 4.6071 4.60436 6.28599 
20 1 3.07185 3.06734 7.78902 
21 1 3.78776 3.7841 7.08821 
31 1 0.72412 0.727815 10.1274 
32 1 2.23848 2.2359 8.5949 
33 1 1.5287 1.52927 9.31136 
16 1 4.52665 6.24149 4.52495 
17 1 3.00373 7.80738 3.01313 
18 1 3.70693 7.0876 3.7186 
25 1 0.671433 10.1399 0.654905 
26 1 2.18537 8.62692 2.18019 
27 1 1.4752 9.33545 1.46653 
4 1 4.52143 6.09921 6.12514 
5 1 3.06391 7.66169 7.68356 
6 1 3.74045 6.93638 6.95909 
37 1 0.710243 10.0365 10.0257 
38 1 2.25679 8.49957 8.51476 
39 1 1.5406 9.21105 9.21409 
13 1 6.24203 4.51846 4.52621 