ITEM: TIMESTEP
0
ITEM: NUMBER OF ATOMS
33
ITEM: BOX BOUNDS pp pp pp
0.0000000000000000e+00 7.0970000000000004e+00
0.0000000000000000e+00 7.0970000000000004e+00
0.0000000000000000e+00 2.4588000000000001e+01
ITEM: ATOMS id type x y z 
2 1 3.339 1.632 13.319 
5 1 4.651 1.581 18.133 
7 1 3.391 1.602 15.981 
8 1 2.166 1.581 18.134 
18 1 3.408 1.581 17.416 
21 1 3.338 2.875 12.602 
23 1 3.367 1.619 14.753 
24 1 3.338 0.39 12.601 
17 1 7.023 2.875 24.28 
19 1 6.997 1.619 22.129 
20 1 7.023 0.39 24.281 
22 1 6.957 1.581 19.466 
25 1 5.714 1.581 18.748 
27 1 6.974 1.602 20.9 
28 1 1.102 1.581 18.748 
30 1 7.024 1.631 23.563 
10 1 6.954 5.232 5.122 
13 1 7.023 3.938 0.307 
15 1 6.994 5.194 2.459 
16 1 7.023 6.423 0.307 
26 1 7.022 5.181 1.025 
29 1 5.711 5.232 5.839 
31 1 6.97 5.211 3.688 
32 1 1.098 5.232 5.84 
1 1 4.647 5.232 6.454 
3 1 3.388 5.211 8.606 
4 1 2.163 5.232 6.454 
6 1 3.338 5.182 11.269 
9 1 3.338 3.939 11.986 
11 1 3.365 5.194 9.834 
12 1 3.338 6.423 11.987 
14 1 3.404 5.232 7.171 
33 2 3.177 4.191 13.313 
ITEM: TIMESTEP
10
ITEM: NUMBER OF ATOMS
33
ITEM: BOX BOUNDS pp pp pp
0.0000000000000000e+00 7.0970000000000004e+00
0.0000000000000000e+00 7.0970000000000004e+00
0.0000000000000000e+00 2.4588000000000001e+01
ITEM: ATOMS id type x y z 
2 1 3.34159 1.60216 13.3187 
5 1 4.65535 1.57953 18.1337 
7 1 3.39014 1.60107 15.9825 
8 1 2.16303 1.58131 18.1361 
18 1 3.40813 1.58148 17.4244 
21 1 3.32632 2.86822 12.7081 
23 1 3.36707 1.61649 14.7635 
24 1 3.34104 0.380372 12.5967 
17 1 7.02457 2.88054 24.279 
19 1 6.99689 1.61931 22.1245 
20 1 7.02592 0.388071 24.2858 
22 1 6.95733 1.58031 19.4657 
25 1 5.71123 1.58266 18.7492 
27 1 6.97366 1.60181 20.905 
28 1 1.10321 1.58107 18.7465 
30 1 7.02246 1.63106 23.563 
10 1 6.95438 5.23247 5.12186 
13 1 7.02186 3.93225 0.308246 
15 1 6.99339 5.19363 2.4634 
16 1 7.02058 6.42457 0.302252 
26 1 7.0231 5.18161 1.02497 
29 1 5.7055 5.23168 5.83698 
31 1 6.97004 5.21105 3.68319 
32 1 1.09987 5.23091 5.84293 
1 1 4.65447 5.23259 6.45505 
3 1 3.38839 5.21283 8.60104 
4 1 2.15905 5.23291 6.44986 
6 1 3.34113 5.21131 11.2374 
9 1 3.33741 3.98436 11.8874 
11 1 3.3663 5.19694 9.82466 
12 1 3.33712 6.42515 11.9708 
14 1 3.40384 5.23048 7.1685 
33 2 3.18062 4.15977 13.3542 
ITEM: TIMESTEP
20
ITEM: NUMBER OF ATOMS
33
ITEM: BOX BOUNDS pp pp pp
0.0000000000000000e+00 7.0970000000000004e+00
0.0000000000000000e+00 7.0970000000000004e+00
0.0000000000000000e+00 2.4588000000000001e+01
ITEM: ATOMS id type x y z 
2 1 3.34902 1.58959 13.3316 
5 1 4.65875 1.58217 18.1338 
7 1 3.38744 1.59435 15.9881 
8 1 2.16134 1.58197 18.1383 
18 1 3.40856 1.58343 17.4258 
21 1 3.30739 2.92562 12.8019 
23 1 3.3696 1.60174 14.7686 
24 1 3.34122 0.368321 12.5908 
17 1 7.02239 2.88111 24.2777 
19 1 6.9962 1.62021 22.1263 
20 1 7.02515 0.390794 24.2902 
22 1 6.95717 1.58003 19.4694 
25 1 5.71067 1.58042 18.7543 
27 1 6.9731 1.60162 20.907 
28 1 1.10165 1.58121 18.746 
30 1 7.02396 1.63254 23.5641 
10 1 6.95287 5.23285 5.11545 
13 1 7.02393 3.93117 0.309402 
15 1 6.99408 5.19262 2.45873 
16 1 7.0222 6.42249 0.297489 
26 1 7.02202 5.1802 1.02205 
29 1 5.71174 5.23207 5.834 
31 1 6.96917 5.21075 3.67834 
32 1 1.0904 5.23247 5.84573 
1 1 4.65825 5.2313 6.44931 
3 1 3.39316 5.21728 8.58234 
4 1 2.15904 5.23216 6.43619 
6 1 3.34431 5.18714 11.2305 
9 1 3.32558 3.94694 11.8628 
11 1 3.36533 5.20057 9.80552 
12 1 3.34166 6.43033 11.9418 
14 1 3.40503 5.23034 7.14692 
33 2 3.19261 4.19418 13.3845 
ITEM: TIMESTEP
30
ITEM: NUMBER OF ATOMS
33
ITEM: BOX BOUNDS pp pp pp
0.0000000000000000e+00 7.0970000000000004e+00
0.0000000000000000e+00 7.0970000000000004e+00
0.0000000000000000e+00 2.4588000000000001e+01
ITEM: ATOMS id type x y z 
2 1 3.34759 1.58296 13.3311 
5 1 4.65721 1.58256 18.136 
7 1 3.38985 1.5877 15.9889 
8 1 2.16077 1.58244 18.1378 
18 1 3.40806 1.5854 17.4266 
21 1 3.30022 2.93318 12.8394 
23 1 3.3699 1.58883 14.7691 
24 1 3.34555 0.363555 12.5768 
17 1 7.02324 2.88001 24.278 
19 1 6.99631 1.62009 22.1268 
20 1 7.02453 0.390789 24.2879 
22 1 6.95707 1.57875 19.4705 
25 1 5.71184 1.58108 18.7537 
27 1 6.97266 1.60145 20.9077 
28 1 1.10088 1.58196 18.7475 
30 1 7.02411 1.63232 23.5644 
10 1 6.95303 5.23246 5.11115 
13 1 7.02339 3.93096 0.30786 
15 1 6.99361 5.19246 2.45469 
16 1 7.02315 6.42392 0.298392 
26 1 7.02249 5.18043 1.01843 
29 1 5.71257 5.23207 5.83245 
31 1 6.9692 5.21075 3.67443 
32 1 1.09102 5.23274 5.8413 
1 1 4.65748 5.2327 6.44572 
3 1 3.39668 5.21476 8.58076 
4 1 2.15765 5.23283 6.43539 
6 1 3.34131 5.17591 11.2269 
9 1 3.31844 3.94734 11.8798 
11 1 3.36696 5.20201 9.80362 
12 1 3.34474 6.42958 11.9225 
14 1 3.40438 5.23189 7.14536 
33 2 3.19911 4.22413 13.3941 
ITEM: TIMESTEP
40
ITEM: NUMBER OF ATOMS
33
ITEM: BOX BOUNDS pp pp pp
0.0000000000000000e+00 7.0970000000000004e+00
0.0000000000000000e+00 7.0970000000000004e+00
0.0000000000000000e+00 2.4588000000000001e+01
ITEM: ATOMS id type x y z 
2 1 3.34816 1.57707 13.3319 
5 1 4.6565 1.58365 18.1377 
7 1 3.39053 1.5809 15.9886 
8 1 2.16041 1.58356 18.1384 
18 1 3.40827 1.58718 17.4252 
21 1 3.29489 2.94159 12.8667 
23 1 3.37097 1.57485 14.7683 
24 1 3.34616 0.367027 12.5609 
17 1 7.0238 2.87844 24.2787 
19 1 6.9962 1.62008 22.1266 
20 1 7.02415 0.390517 24.2862 
22 1 6.95656 1.57863 19.47 
25 1 5.71137 1.58124 18.753 
27 1 6.9723 1.60115 20.9069 
28 1 1.10145 1.58091 18.7471 
30 1 7.02441 1.63255 23.5634 
10 1 6.95208 5.23275 5.10798 
13 1 7.02327 3.93182 0.305911 
15 1 6.99358 5.19239 2.45236 
16 1 7.02373 6.42496 0.298792 
26 1 7.02279 5.18013 1.01682 
29 1 5.71545 5.23255 5.83479 
31 1 6.9688 5.21085 3.67241 
32 1 1.09192 5.2329 5.83752 
1 1 4.65567 5.23219 6.44045 
3 1 3.39518 5.21627 8.57917 
4 1 2.15647 5.23244 6.43467 
6 1 3.34053 5.17069 11.2243 
9 1 3.31369 3.94651 11.8963 
11 1 3.37202 5.20252 9.80171 
12 1 3.34436 6.43067 11.9099 
14 1 3.40536 5.23184 7.14367 
33 2 3.20397 4.23916 13.4087 
ITEM: TIMESTEP
50
ITEM: NUMBER OF ATOMS
33
ITEM: BOX BOUNDS pp pp pp
0.0000000000000000e+00 7.0970000000000004e+00
0.0000000000000000e+00 7.0970000000000004e+00
0.0000000000000000e+00 2.4588000000000001e+01
ITEM: ATOMS id type x y z 
2 1 3.34009 1.55549 13.33 
5 1 4.6518 1.58919 18.1421 
7 1 3.39531 1.51872 15.9816 
8 1 2.16409 1.58949 18.1439 
18 1 3.40943 1.60011 17.4166 
21 1 3.26984 2.98289 13.0192 
23 1 3.37595 1.46113 14.7625 
24 1 3.35066 0.410546 12.4546 
17 1 7.02581 2.87127 24.2775 
19 1 6.99576 1.61915 22.1204 
20 1 7.0259 0.390796 24.2767 
22 1 6.95399 1.56961 19.464 
25 1 5.70663 1.58078 18.7522 
27 1 6.96908 1.60174 20.8979 
28 1 1.1023 1.58951 18.7398 
30 1 7.02584 1.63186 23.5548 
10 1 6.95548 5.2323 5.09834 
13 1 7.02511 3.93441 0.294978 
15 1 6.99392 5.19123 2.44105 
16 1 7.0242 6.42972 0.29762 
26 1 7.02482 5.18045 1.00603 
29 1 5.71189 5.23473 5.81261 
31 1 6.96379 5.21117 3.66158 
32 1 1.09912 5.23473 5.81687 
1 1 4.6571 5.2343 6.42645 
3 1 3.40016 5.21695 8.56443 
4 1 2.15652 5.2335 6.42696 
6 1 3.33607 5.14079 11.2245 
9 1 3.29773 3.97547 12.0226 
11 1 3.37436 5.18881 9.78763 
12 1 3.34717 6.45856 11.8369 
14 1 3.40562 5.2306 7.13262 
33 2 3.22946 4.31002 13.5301 
ITEM: TIMESTEP
60
ITEM: NUMBER OF ATOMS
33
ITEM: BOX BOUNDS pp pp pp
0.0000000000000000e+00 7.0970000000000004e+00
0.0000000000000000e+00 7.0970000000000004e+00
0.0000000000000000e+00 2.4588000000000001e+01
ITEM: ATOMS id type x y z 
2 1 3.33898 1.56045 13.331 
5 1 4.64942 1.58894 18.1403 
7 1 3.39434 1.51814 15.9807 
8 1 2.16765 1.59288 18.1429 
18 1 3.40877 1.5971 17.4153 
21 1 3.27209 2.98402 13.0149 
23 1 3.37627 1.4529 14.7617 
24 1 3.34851 0.415096 12.4552 
17 1 7.02623 2.8729 24.278 
19 1 6.9949 1.62084 22.1181 
20 1 7.02598 0.390792 24.277 
22 1 6.95596 1.57321 19.462 
25 1 5.70647 1.5817 18.752 
27 1 6.96825 1.59861 20.8986 
28 1 1.10123 1.58443 18.7381 
30 1 7.02628 1.63192 23.5546 
10 1 6.95521 5.23408 5.0959 
13 1 7.02539 3.93348 0.292729 
15 1 6.99228 5.1907 2.44072 
16 1 7.02535 6.42929 0.296695 
26 1 7.02477 5.18046 1.00591 
29 1 5.71094 5.23404 5.81205 
31 1 6.96502 5.21085 3.66087 
32 1 1.09823 5.23338 5.81928 
1 1 4.65585 5.23422 6.42605 
3 1 3.40233 5.20928 8.56989 
4 1 2.15796 5.23392 6.42515 
6 1 3.33601 5.14771 11.2253 
9 1 3.29828 3.98366 12.029 
11 1 3.37238 5.18405 9.78889 
12 1 3.34773 6.46054 11.8366 
14 1 3.40682 5.23521 7.13268 
33 2 3.22913 4.30121 13.5367 
ITEM: TIMESTEP
70
ITEM: NUMBER OF ATOMS
33
ITEM: BOX BOUNDS pp pp pp
0.0000000000000000e+00 7.0970000000000004e+00
0.0000000000000000e+00 7.0970000000000004e+00
0.0000000000000000e+00 2.4588000000000001e+01
ITEM: ATOMS id type x y z 
2 1 3.33764 1.56721 13.3315 
5 1 4.65003 1.58881 18.1378 
7 1 3.38811 1.50854 15.9793 
8 1 2.1666 1.58721 18.1372 
18 1 3.40853 1.59525 17.414 
21 1 3.27775 2.98491 13.0027 
23 1 3.3762 1.43635 14.761 
24 1 3.34512 0.428055 12.4581 
17 1 7.0263 2.87345 24.2739 
19 1 6.99573 1.61935 22.1144 
20 1 7.02634 0.391497 24.2759 
22 1 6.9562 1.57618 19.4575 
25 1 5.70597 1.58298 18.7502 
27 1 6.96929 1.60032 20.8945 
28 1 1.10478 1.58394 18.7393 
30 1 7.02632 1.632 23.5518 
10 1 6.95458 5.23234 5.09707 
13 1 7.02551 3.93299 0.291899 
15 1 6.99352 5.1909 2.44039 
16 1 7.02556 6.4288 0.293622 
26 1 7.0248 5.18036 1.00393 
29 1 5.71003 5.23405 5.81229 
31 1 6.96549 5.20989 3.66044 
32 1 1.09918 5.23474 5.82038 
1 1 4.65297 5.23594 6.42302 
3 1 3.40242 5.1973 8.57291 
4 1 2.16082 5.23802 6.42243 
6 1 3.33578 5.16119 11.2315 
9 1 3.30149 4.00642 12.0431 
11 1 3.37089 5.16008 9.79205 
12 1 3.34517 6.47224 11.8412 
14 1 3.40781 5.23882 7.13631 
33 2 3.2281 4.28988 13.5536 
ITEM: TIMESTEP
80
ITEM: NUMBER OF ATOMS
33
ITEM: BOX BOUNDS pp pp pp
0.0000000000000000e+00 7.0970000000000004e+00
0.0000000000000000e+00 7.0970000000000004e+00
0.0000000000000000e+00 2.4588000000000001e+01
ITEM: ATOMS id type x y z 
2 1 3.33837 1.57305 13.3336 
5 1 4.6499 1.58515 18.1357 
7 1 3.39036 1.49661 15.9792 
8 1 2.16504 1.58956 18.1357 
18 1 3.41032 1.58601 17.4115 
21 1 3.27985 2.99713 13.0239 
23 1 3.36961 1.4203 14.7614 
24 1 3.34264 0.435398 12.4494 
17 1 7.02598 2.87582 24.2693 
19 1 6.99604 1.61934 22.1138 
20 1 7.02589 0.390079 24.2727 
22 1 6.95556 1.57998 19.4581 
25 1 5.70722 1.58311 18.7459 
27 1 6.9704 1.60009 20.8935 
28 1 1.10314 1.58376 18.7371 
30 1 7.02704 1.63204 23.5489 
10 1 6.95606 5.23222 5.09646 
13 1 7.02618 3.93231 0.292301 
15 1 6.99365 5.19108 2.44015 
16 1 7.02738 6.42895 0.292559 
26 1 7.02447 5.17979 1.00504 
29 1 5.70993 5.23588 5.80985 
31 1 6.96718 5.20916 3.66044 
32 1 1.0999 5.23483 5.81901 
1 1 4.65358 5.2392 6.42168 
3 1 3.39471 5.1845 8.57176 
4 1 2.16199 5.23645 6.42075 
6 1 3.33525 5.16427 11.2302 
9 1 3.30536 4.01485 12.0586 
11 1 3.37481 5.14024 9.79063 
12 1 3.33984 6.47372 11.8435 
14 1 3.40765 5.24184 7.13354 
33 2 3.22969 4.31328 13.5589 
ITEM: TIMESTEP
90
ITEM: NUMBER OF ATOMS
33
ITEM: BOX BOUNDS pp pp pp
0.0000000000000000e+00 7.0970000000000004e+00
0.0000000000000000e+00 7.0970000000000004e+00
0.0000000000000000e+00 2.4588000000000001e+01
ITEM: ATOMS id type x y z 
2 1 3.33776 1.57473 13.3329 
5 1 4.65048 1.58458 18.1354 
7 1 3.3883 1.49551 15.9784 
8 1 2.16581 1.58663 18.1357 
18 1 3.40898 1.58615 17.4119 
21 1 3.28052 2.99839 13.0244 
23 1 3.37079 1.41847 14.7604 
24 1 3.34153 0.43686 12.4498 
17 1 7.02629 2.87551 24.2694 
19 1 6.99634 1.61878 22.1135 
20 1 7.02654 0.389976 24.2726 
22 1 6.95578 1.58075 19.457 
25 1 5.70743 1.58278 18.746 
27 1 6.9702 1.60126 20.8932 
28 1 1.10351 1.58467 18.7364 
30 1 7.02711 1.63207 23.5495 
10 1 6.95578 5.23208 5.09638 
13 1 7.02571 3.93246 0.291825 
15 1 6.99388 5.19074 2.43997 
16 1 7.02614 6.42869 0.292542 
26 1 7.02531 5.18022 1.00415 
29 1 5.70974 5.23561 5.80974 
31 1 6.96728 5.20966 3.66014 
32 1 1.10013 5.23511 5.81897 
1 1 4.65346 5.23828 6.42171 
3 1 3.39541 5.1847 8.57205 
4 1 2.16229 5.23787 6.42043 
6 1 3.33621 5.16391 11.2305 
9 1 3.30533 4.017 12.0587 
11 1 3.37263 5.13702 9.79099 
12 1 3.34037 6.47596 11.8431 
14 1 3.40793 5.24109 7.13494 
33 2 3.23 4.31249 13.5623 
ITEM: TIMESTEP
100
ITEM: NUMBER OF ATOMS
33
ITEM: BOX BOUNDS pp pp pp
0.0000000000000000e+00 7.0970000000000004e+00
0.0000000000000000e+00 7.0970000000000004e+00
0.0000000000000000e+00 2.4588000000000001e+01
ITEM: ATOMS id type x y z 
2 1 3.33522 1.57989 13.3321 
5 1 4.65032 1.58314 18.1336 
7 1 3.38777 1.48983 15.9761 
8 1 2.1659 1.58269 18.1342 
18 1 3.40755 1.58076 17.4103 
21 1 3.28219 3.00366 13.0255 
23 1 3.37063 1.41266 14.758 
24 1 3.33896 0.442521 12.45 
17 1 7.02695 2.87507 24.2693 
19 1 6.99643 1.61856 22.1123 
20 1 7.02642 0.390232 24.2721 
22 1 6.95716 1.58424 19.4548 
25 1 5.70688 1.58412 18.7444 
27 1 6.97023 1.60269 20.8922 
28 1 1.1039 1.58307 18.7358 
30 1 7.02748 1.63164 23.5495 
10 1 6.95554 5.2323 5.09628 
13 1 7.02642 3.9329 0.290261 
15 1 6.99415 5.19066 2.43939 
16 1 7.02602 6.42811 0.290959 
26 1 7.02535 5.18045 1.00273 
29 1 5.70918 5.23513 5.80945 
31 1 6.96815 5.20957 3.65949 
32 1 1.10143 5.23673 5.81846 
1 1 4.65309 5.23774 6.42185 
3 1 3.39374 5.17907 8.57409 
4 1 2.16331 5.23918 6.42013 
6 1 3.33795 5.16694 11.2333 
9 1 3.30609 4.02495 12.0637 
11 1 3.36909 5.12813 9.79278 
12 1 3.34081 6.48348 11.8404 
14 1 3.40874 5.24074 7.13717 
33 2 3.23196 4.30915 13.5743 
ITEM: TIMESTEP
110
ITEM: NUMBER OF ATOMS
33
ITEM: BOX BOUNDS pp pp pp
0.0000000000000000e+00 7.0970000000000004e+00
0.0000000000000000e+00 7.0970000000000004e+00
0.0000000000000000e+00 2.4588000000000001e+01
ITEM: ATOMS id type x y z 
2 1 3.33478 1.58018 13.3325 
5 1 4.65038 1.58138 18.1331 
7 1 3.38734 1.48801 15.9761 
8 1 2.16564 1.58226 18.1335 
18 1 3.40839 1.57863 17.4096 
21 1 3.28203 3.00421 13.027 
23 1 3.37019 1.41127 14.758 
24 1 3.33903 0.444298 12.4485 
17 1 7.0268 2.87519 24.2688 
19 1 6.99656 1.61854 22.1119 
20 1 7.02702 0.390132 24.2719 
22 1 6.95624 1.58532 19.4549 
25 1 5.70709 1.58365 18.7439 
27 1 6.9702 1.60325 20.8917 
28 1 1.10417 1.58384 18.7357 
30 1 7.02744 1.63175 23.5487 
10 1 6.95597 5.23284 5.09638 
13 1 7.02611 3.93288 0.289941 
15 1 6.99436 5.1905 2.43956 
16 1 7.02632 6.42797 0.290467 
26 1 7.02534 5.18022 1.00322 
29 1 5.70924 5.23568 5.80937 
31 1 6.96832 5.20979 3.65969 
32 1 1.10158 5.23618 5.81834 
1 1 4.65329 5.2379 6.42193 
3 1 3.39161 5.17789 8.57432 
4 1 2.16357 5.2385 6.41995 
6 1 3.33752 5.16841 11.2338 
9 1 3.30675 4.02751 12.067 
11 1 3.37026 5.12557 9.79287 
12 1 3.34005 6.4848 11.8394 
14 1 3.40854 5.24059 7.13692 
33 2 3.23289 4.31083 13.576 
ITEM: TIMESTEP
120
ITEM: NUMBER OF ATOMS
33
ITEM: BOX BOUNDS pp pp pp
0.0000000000000000e+00 7.0970000000000004e+00
0.0000000000000000e+00 7.0970000000000004e+00
0.0000000000000000e+00 2.4588000000000001e+01
ITEM: ATOMS id type x y z 
2 1 3.33066 1.58835 13.3314 
5 1 4.65124 1.57169 18.1293 
7 1 3.38536 1.4693 15.9732 
8 1 2.16488 1.57367 18.1294 
18 1 3.40779 1.55649 17.4074 
21 1 3.28338 3.01611 13.0425 
23 1 3.36568 1.39777 14.755 
24 1 3.3346 0.460968 12.4349 
17 1 7.02807 2.87671 24.2635 
19 1 6.99682 1.62051 22.1096 
20 1 7.02854 0.387898 24.2679 
22 1 6.95695 1.59576 19.452 
25 1 5.70791 1.58413 18.7397 
27 1 6.96954 1.60875 20.8894 
28 1 1.1041 1.58379 18.7333 
30 1 7.02825 1.63012 23.5465 
10 1 6.95692 5.23621 5.09688 
13 1 7.0269 3.93239 0.287926 
15 1 6.9949 5.18906 2.43962 
16 1 7.0269 6.42774 0.2901 
26 1 7.02551 5.1797 1.0024 
29 1 5.70902 5.23698 5.80978 
31 1 6.97102 5.21119 3.65966 
32 1 1.1038 5.23715 5.81649 
1 1 4.65418 5.23681 6.42388 
3 1 3.38498 5.16447 8.57649 
4 1 2.16553 5.23756 6.41893 
6 1 3.33979 5.176 11.236 
9 1 3.30969 4.04977 12.092 
11 1 3.36534 5.10328 9.79437 
12 1 3.33791 6.50021 11.8286 
14 1 3.40736 5.23625 7.13879 
33 2 3.24143 4.3232 13.5981 
ITEM: TIMESTEP
130
ITEM: NUMBER OF ATOMS
33
ITEM: BOX BOUNDS pp pp pp
0.0000000000000000e+00 7.0970000000000004e+00
0.0000000000000000e+00 7.0970000000000004e+00
0.0000000000000000e+00 2.4588000000000001e+01
ITEM: ATOMS id type x y z 
2 1 3.33018 1.58883 13.3312 
5 1 4.65124 1.57061 18.129 
7 1 3.3852 1.46969 15.9727 
8 1 2.16515 1.57165 18.1297 
18 1 3.40797 1.55589 17.4069 
21 1 3.28366 3.01707 13.0435 
23 1 3.36562 1.39666 14.7545 
24 1 3.33452 0.461837 12.4343 
17 1 7.02781 2.87667 24.2632 
19 1 6.99688 1.62013 22.1094 
20 1 7.02785 0.387909 24.2684 
22 1 6.95644 1.5977 19.4521 
25 1 5.70789 1.58291 18.7397 
27 1 6.96952 1.60975 20.8893 
28 1 1.10414 1.58374 18.7328 
30 1 7.02911 1.63074 23.5465 
10 1 6.9567 5.23697 5.09675 
13 1 7.02676 3.93237 0.287744 
15 1 6.99598 5.18927 2.43957 
16 1 7.02678 6.42732 0.289646 
26 1 7.02566 5.17947 1.00278 
29 1 5.70894 5.23685 5.81007 
31 1 6.97051 5.21079 3.65964 
32 1 1.10358 5.2373 5.81638 
1 1 4.654 5.23652 6.42412 
3 1 3.38531 5.16379 8.57669 
4 1 2.16529 5.23714 6.41865 
6 1 3.33927 5.17638 11.2364 
9 1 3.30973 4.05045 12.0926 
11 1 3.36551 5.10284 9.79458 
12 1 3.33787 6.50129 11.8277 
14 1 3.40805 5.23592 7.1391 
33 2 3.2419 4.32353 13.5995 
ITEM: TIMESTEP
140
ITEM: NUMBER OF ATOMS
33
ITEM: BOX BOUNDS pp pp pp
0.0000000000000000e+00 7.0970000000000004e+00
0.0000000000000000e+00 7.0970000000000004e+00
0.0000000000000000e+00 2.4588000000000001e+01
ITEM: ATOMS id type x y z 
2 1 3.32933 1.58979 13.331 
5 1 4.6514 1.56951 18.128 
7 1 3.38515 1.46713 15.972 
8 1 2.16508 1.57032 18.1295 
18 1 3.40812 1.55169 17.4063 
21 1 3.28423 3.01891 13.0455 
23 1 3.36518 1.39622 14.7537 
24 1 3.33436 0.463918 12.4329 
17 1 7.02809 2.87695 24.2629 
19 1 6.9968 1.62018 22.1094 
20 1 7.02839 0.388093 24.2687 
22 1 6.95626 1.59848 19.4518 
25 1 5.70769 1.58422 18.7393 
27 1 6.96955 1.61045 20.8892 
28 1 1.10412 1.58367 18.7325 
30 1 7.02873 1.63073 23.5462 
10 1 6.95593 5.23749 5.09666 
13 1 7.02716 3.93262 0.287526 
15 1 6.99513 5.18892 2.43969 
16 1 7.02714 6.42686 0.288722 
26 1 7.02556 5.17894 1.00284 
29 1 5.70904 5.23691 5.81052 
31 1 6.97113 5.21163 3.65979 
32 1 1.10372 5.23741 5.81644 
1 1 4.65404 5.23601 6.42446 
3 1 3.3856 5.16264 8.57717 
4 1 2.16546 5.23676 6.41859 
6 1 3.33839 5.17715 11.237 
9 1 3.30964 4.052 12.0943 
11 1 3.36603 5.10177 9.79503 
12 1 3.33762 6.5036 11.8259 
14 1 3.40797 5.23446 7.13941 
33 2 3.24298 4.32458 13.6022 
ITEM: TIMESTEP
150
ITEM: NUMBER OF ATOMS
33
ITEM: BOX BOUNDS pp pp pp
0.0000000000000000e+00 7.0970000000000004e+00
0.0000000000000000e+00 7.0970000000000004e+00
0.0000000000000000e+00 2.4588000000000001e+01
ITEM: ATOMS id type x y z 
2 1 3.32925 1.58994 13.3309 
5 1 4.6514 1.56905 18.128 
7 1 3.38497 1.46731 15.9719 
8 1 2.16511 1.56991 18.1295 
18 1 3.40814 1.55156 17.4061 
21 1 3.28427 3.01909 13.0457 
23 1 3.36521 1.39586 14.7536 
24 1 3.33432 0.464152 12.4326 
17 1 7.02801 2.87691 24.2628 
19 1 6.99685 1.62025 22.1093 
20 1 7.0282 0.388072 24.2687 
22 1 6.95626 1.5993 19.4517 
25 1 5.70768 1.58365 18.7393 
27 1 6.96951 1.61047 20.8891 
28 1 1.10413 1.58364 18.7325 
30 1 7.02903 1.63077 23.5463 
10 1 6.95611 5.23779 5.09674 
13 1 7.02701 3.93255 0.28747 
15 1 6.99561 5.18907 2.43968 
16 1 7.02702 6.42677 0.288677 
26 1 7.02565 5.17906 1.00284 
29 1 5.70899 5.23691 5.81058 
31 1 6.97086 5.21136 3.65977 
32 1 1.10366 5.23744 5.81641 
1 1 4.65397 5.23587 6.42455 
3 1 3.38542 5.16252 8.57722 
4 1 2.16539 5.23662 6.41853 
6 1 3.33834 5.17728 11.2371 
9 1 3.30963 4.05228 12.0945 
11 1 3.36616 5.10163 9.79508 
12 1 3.33757 6.50382 11.8257 
14 1 3.40813 5.23435 7.13947 
33 2 3.24312 4.32474 13.6025 
ITEM: TIMESTEP
160
ITEM: NUMBER OF ATOMS
33
ITEM: BOX BOUNDS pp pp pp
0.0000000000000000e+00 7.0970000000000004e+00
0.0000000000000000e+00 7.0970000000000004e+00
0.0000000000000000e+00 2.4588000000000001e+01
ITEM: ATOMS id type x y z 
2 1 3.32913 1.5902 13.3309 
5 1 4.65146 1.5684 18.1279 
7 1 3.3849 1.46691 15.9718 
8 1 2.16516 1.56938 18.1294 
18 1 3.40805 1.55102 17.406 
21 1 3.28436 3.01946 13.0461 
23 1 3.36511 1.39559 14.7535 
24 1 3.33424 0.464639 12.4322 
17 1 7.02799 2.87689 24.2627 
19 1 6.99688 1.62016 22.1092 
20 1 7.02814 0.388055 24.2687 
22 1 6.95622 1.60009 19.4517 
25 1 5.7077 1.58321 18.7392 
27 1 6.96947 1.61084 20.889 
28 1 1.10416 1.58364 18.7324 
30 1 7.02924 1.63079 23.5463 
10 1 6.95623 5.23807 5.09685 
13 1 7.02692 3.9325 0.28738 
15 1 6.99594 5.18909 2.43969 
16 1 7.0269 6.42667 0.288566 
26 1 7.02573 5.17916 1.00283 
29 1 5.70895 5.23692 5.81069 
31 1 6.97069 5.21135 3.65976 
32 1 1.10361 5.23746 5.81639 
1 1 4.65395 5.23571 6.42468 
3 1 3.38547 5.16228 8.57733 
4 1 2.16537 5.23645 6.41849 
6 1 3.33824 5.17752 11.2372 
9 1 3.3096 4.05281 12.095 
11 1 3.36617 5.10136 9.79517 
12 1 3.33749 6.50429 11.8254 
14 1 3.40812 5.23401 7.13956 
33 2 3.2434 4.32508 13.603 
ITEM: TIMESTEP
170
ITEM: NUMBER OF ATOMS
33
ITEM: BOX BOUNDS pp pp pp
0.0000000000000000e+00 7.0970000000000004e+00
0.0000000000000000e+00 7.0970000000000004e+00
0.0000000000000000e+00 2.4588000000000001e+01
ITEM: ATOMS id type x y z 
2 1 3.32805 1.59256 13.3302 
5 1 4.65192 1.56437 18.126 
7 1 3.38436 1.46109 15.9707 
8 1 2.16492 1.56637 18.1286 
18 1 3.40765 1.54232 17.4055 
21 1 3.28507 3.02282 13.0498 
23 1 3.36401 1.39424 14.7522 
24 1 3.33341 0.469364 12.4283 
17 1 7.02847 2.87719 24.2619 
19 1 6.99714 1.62024 22.1087 
20 1 7.02934 0.388087 24.2686 
22 1 6.95618 1.60291 19.4511 
25 1 5.70781 1.5845 18.7379 
27 1 6.96914 1.61322 20.8885 
28 1 1.10423 1.5837 18.7319 
30 1 7.02874 1.63015 23.5458 
10 1 6.956 5.23969 5.09722 
13 1 7.02751 3.93267 0.286815 
15 1 6.99485 5.18874 2.43993 
16 1 7.02699 6.4261 0.287475 
26 1 7.0259 5.17883 1.00265 
29 1 5.70922 5.2372 5.81142 
31 1 6.9715 5.21275 3.65996 
32 1 1.10409 5.2376 5.8166 
1 1 4.65392 5.2344 6.42569 
3 1 3.38621 5.15849 8.57826 
4 1 2.16552 5.23525 6.41847 
6 1 3.33739 5.17964 11.2383 
9 1 3.30951 4.05761 12.1001 
11 1 3.36606 5.09963 9.79612 
12 1 3.3367 6.50885 11.8219 
14 1 3.40714 5.23108 7.14027 
33 2 3.24604 4.32831 13.608 
ITEM: TIMESTEP
180
ITEM: NUMBER OF ATOMS
33
ITEM: BOX BOUNDS pp pp pp
0.0000000000000000e+00 7.0970000000000004e+00
0.0000000000000000e+00 7.0970000000000004e+00
0.0000000000000000e+00 2.4588000000000001e+01
ITEM: ATOMS id type x y z 
2 1 3.32013 1.61129 13.3251 
5 1 4.65743 1.53802 18.1095 
7 1 3.3804 1.42123 15.9637 
8 1 2.1651 1.53683 18.1271 
18 1 3.40608 1.48087 17.3992 
21 1 3.28992 3.0478 13.0765 
23 1 3.35609 1.38136 14.7439 
24 1 3.32691 0.50471 12.4 
17 1 7.02996 2.87882 24.2542 
19 1 6.99696 1.62347 22.1043 
20 1 7.03256 0.387391 24.2688 
22 1 6.95578 1.63576 19.4457 
25 1 5.7065 1.58401 18.7314 
27 1 6.96658 1.62485 20.8842 
28 1 1.10242 1.58258 18.7259 
30 1 7.03213 1.62975 23.543 
10 1 6.95547 5.25626 5.1001 
13 1 7.02751 3.93125 0.284174 
15 1 6.99671 5.18914 2.44118 
16 1 7.03014 6.42043 0.27904 
26 1 7.02606 5.17913 1.00219 
29 1 5.70815 5.23894 5.81832 
31 1 6.97274 5.21543 3.6611 
32 1 1.10387 5.23969 5.81623 
1 1 4.65349 5.22385 6.43312 
3 1 3.38994 5.13704 8.58542 
4 1 2.16516 5.22492 6.41824 
6 1 3.33049 5.19657 11.2463 
9 1 3.30976 4.09452 12.1367 
11 1 3.36646 5.08341 9.80307 
12 1 3.33065 6.54257 11.7974 
14 1 3.40782 5.20615 7.14574 
33 2 3.26564 4.35197 13.6441 
ITEM: TIMESTEP
190
ITEM: NUMBER OF ATOMS
33
ITEM: BOX BOUNDS pp pp pp
0.0000000000000000e+00 7.0970000000000004e+00
0.0000000000000000e+00 7.0970000000000004e+00
0.0000000000000000e+00 2.4588000000000001e+01
ITEM: ATOMS id type x y z 
2 1 3.32021 1.61237 13.3258 
5 1 4.65668 1.53506 18.1105 
7 1 3.37957 1.42394 15.9633 
8 1 2.16477 1.53508 18.1262 
18 1 3.40699 1.47753 17.4 
21 1 3.29004 3.04877 13.0756 
23 1 3.35634 1.37858 14.7441 
24 1 3.32625 0.506381 12.4004 
17 1 7.03032 2.87836 24.2553 
19 1 6.997 1.62313 22.1038 
20 1 7.03145 0.386617 24.2672 
22 1 6.95435 1.63665 19.4452 
25 1 5.70725 1.58252 18.73 
27 1 6.96697 1.6288 20.8837 
28 1 1.10328 1.58203 18.7264 
30 1 7.03242 1.62955 23.5421 
10 1 6.95512 5.25667 5.09923 
13 1 7.02869 3.93168 0.283901 
15 1 6.99621 5.18868 2.44127 
16 1 7.0296 6.42157 0.280341 
26 1 7.02669 5.17753 1.00284 
29 1 5.70904 5.23836 5.81758 
31 1 6.97157 5.21841 3.66104 
32 1 1.10468 5.2392 5.81703 
1 1 4.65483 5.22259 6.43266 
3 1 3.38617 5.13828 8.58537 
4 1 2.16606 5.22373 6.41952 
6 1 3.33147 5.19818 11.2461 
9 1 3.30999 4.09629 12.1369 
11 1 3.36729 5.0828 9.80306 
12 1 3.33003 6.54388 11.7985 
14 1 3.40764 5.20422 7.14584 
33 2 3.26602 4.35259 13.6443 
ITEM: TIMESTEP
197
ITEM: NUMBER OF ATOMS
33
ITEM: BOX BOUNDS pp pp pp
0.0000000000000000e+00 7.0970000000000004e+00
0.0000000000000000e+00 7.0970000000000004e+00
0.0000000000000000e+00 2.4588000000000001e+01
ITEM: ATOMS id type x y z 
2 1 3.32026 1.61257 13.3261 
5 1 4.65658 1.5345 18.1107 
7 1 3.37953 1.4237 15.9633 
8 1 2.16475 1.53479 18.126 
18 1 3.40679 1.47695 17.4 
21 1 3.29004 3.04899 13.0755 
23 1 3.35627 1.37856 14.7441 
24 1 3.32609 0.506699 12.4004 
17 1 7.03043 2.87829 24.2555 
19 1 6.99694 1.62329 22.1037 
20 1 7.03135 0.38653 24.2669 
22 1 6.95435 1.63679 19.4451 
25 1 5.70739 1.58244 18.7297 
27 1 6.96712 1.62928 20.8836 
28 1 1.10338 1.58192 18.7264 
30 1 7.03245 1.6293 23.542 
10 1 6.95511 5.25642 5.09927 
13 1 7.02871 3.93172 0.283883 
15 1 6.99643 5.18835 2.44125 
16 1 7.02955 6.42175 0.280534 
26 1 7.02666 5.17739 1.00281 
29 1 5.70919 5.2383 5.81749 
31 1 6.97135 5.21942 3.66097 
32 1 1.10482 5.23902 5.81713 
1 1 4.65502 5.22258 6.43261 
3 1 3.38564 5.13822 8.58535 
4 1 2.16616 5.2237 6.41973 
6 1 3.33171 5.1985 11.2461 
9 1 3.31013 4.09663 12.137 
11 1 3.36718 5.08285 9.80305 
12 1 3.32996 6.54417 11.7987 
14 1 3.40756 5.20363 7.14582 
33 2 3.2661 4.35274 13.6443 
ITEM: TIMESTEP
200
ITEM: NUMBER OF ATOMS
33
ITEM: BOX BOUNDS pp pp pp
-5.2516854029011019e-04 7.0975251685402903e+00
-4.7243208347720069e-04 7.0974724320834772e+00
-3.6882000000000000e-03 2.4591688200000000e+01
ITEM: ATOMS id type x y z 
2 1 3.32023 1.61231 13.3264 
5 1 4.65674 1.53423 18.1125 
7 1 3.3795 1.42342 15.9644 
8 1 2.16454 1.53452 18.1278 
18 1 3.40677 1.47667 17.4016 
21 1 3.29001 3.04892 13.0757 
23 1 3.35624 1.37827 14.7448 
24 1 3.32606 0.506295 12.4005 
17 1 7.03095 2.8782 24.2591 
19 1 6.99745 1.62304 22.1066 
20 1 7.03186 0.386108 24.2704 
22 1 6.95486 1.63654 19.4472 
25 1 5.70771 1.58218 18.7316 
27 1 6.96762 1.62902 20.8862 
28 1 1.10302 1.58166 18.7284 
30 1 7.03297 1.62905 23.5454 
10 1 6.95562 5.25665 5.09711 
13 1 7.02922 3.93177 0.28028 
15 1 6.99694 5.18857 2.4383 
16 1 7.03007 6.42213 0.27693 
26 1 7.02717 5.17761 0.999426 
29 1 5.70951 5.23853 5.81555 
31 1 6.97186 5.21964 3.65838 
32 1 1.10446 5.23925 5.81519 
1 1 4.65518 5.2228 6.43085 
3 1 3.38561 5.13843 8.58424 
4 1 2.16596 5.22393 6.41796 
6 1 3.33168 5.19872 11.2458 
9 1 3.31009 4.0967 12.1369 
11 1 3.36715 5.08306 9.8023 
12 1 3.32993 6.54457 11.7985 
14 1 3.40753 5.20385 7.14427 
33 2 3.26606 4.35284 13.6447 
ITEM: TIMESTEP
210
ITEM: NUMBER OF ATOMS
33
ITEM: BOX BOUNDS pp pp pp
-2.4584830591154894e-03 7.0994584830591165e+00
-2.3390538951525712e-03 7.0993390538951529e+00
-1.5982200000000002e-02 2.4603982199999997e+01
ITEM: ATOMS id type x y z 
2 1 3.32011 1.61129 13.3274 
5 1 4.65737 1.53317 18.1183 
7 1 3.37939 1.42229 15.968 
8 1 2.16376 1.53346 18.1336 
18 1 3.4067 1.47558 17.4067 
21 1 3.28986 3.04866 13.0765 
23 1 3.35615 1.37714 14.7473 
24 1 3.32594 0.504683 12.4006 
17 1 7.03284 2.87787 24.2711 
19 1 6.99932 1.62203 22.1164 
20 1 7.03376 0.38442 24.2824 
22 1 6.95671 1.63553 19.4544 
25 1 5.70886 1.58114 18.7381 
27 1 6.96949 1.62801 20.8948 
28 1 1.10172 1.58062 18.7348 
30 1 7.03487 1.62804 23.5566 
10 1 6.95748 5.25755 5.08991 
13 1 7.03112 3.93195 0.268255 
15 1 6.99882 5.18944 2.42849 
16 1 7.03196 6.42367 0.264905 
26 1 7.02907 5.17846 0.988138 
29 1 5.71066 5.23942 5.80908 
31 1 6.97372 5.22052 3.6497 
32 1 1.10315 5.24014 5.80873 
1 1 4.65581 5.22368 6.42497 
3 1 3.38555 5.13925 8.58057 
4 1 2.16517 5.22481 6.41207 
6 1 3.33156 5.19959 11.2447 
9 1 3.30996 4.09699 12.1367 
11 1 3.36704 5.08388 9.79976 
12 1 3.32981 6.54616 11.798 
14 1 3.40745 5.20472 7.13913 
33 2 3.2659 4.35326 13.6461 
ITEM: TIMESTEP
220
ITEM: NUMBER OF ATOMS
33
ITEM: BOX BOUNDS pp pp pp
-5.4125781432016497e-03 7.1024125781432028e+00
-3.9201302284420344e-03 7.1009201302284426e+00
-2.5123732148572615e-02 2.4613123732148576e+01
ITEM: ATOMS id type x y z 
2 1 3.31992 1.61039 13.3282 
5 1 4.65846 1.53227 18.1227 
7 1 3.37923 1.42133 15.9705 
8 1 2.16245 1.53256 18.1381 
18 1 3.40659 1.47465 17.4105 
21 1 3.28965 3.0485 13.0771 
23 1 3.356 1.3762 14.7494 
24 1 3.32575 0.502857 12.4004 
17 1 7.03574 2.87771 24.2801 
19 1 7.00219 1.62118 22.1234 
20 1 7.03666 0.382867 24.2914 
22 1 6.95955 1.63468 19.4597 
25 1 5.71049 1.58025 18.7427 
27 1 6.97235 1.62717 20.9015 
28 1 1.09985 1.57974 18.7395 
30 1 7.03776 1.62718 23.565 
10 1 6.96032 5.25831 5.08455 
13 1 7.03402 3.93198 0.259241 
15 1 7.00168 5.19018 2.42144 
16 1 7.03486 6.42509 0.2559 
26 1 7.03196 5.17919 0.979763 
29 1 5.7123 5.24017 5.80436 
31 1 6.97658 5.22126 3.64301 
32 1 1.1013 5.24089 5.80401 
1 1 4.6569 5.22442 6.42052 
3 1 3.38541 5.13994 8.57824 
4 1 2.16385 5.22555 6.40761 
6 1 3.33139 5.20039 11.2439 
9 1 3.30977 4.09728 12.1367 
11 1 3.36688 5.0846 9.79749 
12 1 3.32962 6.54792 11.7979 
14 1 3.40732 5.20544 7.13532 
33 2 3.26567 4.35357 13.647 
ITEM: TIMESTEP
230
ITEM: NUMBER OF ATOMS
33
ITEM: BOX BOUNDS pp pp pp
-6.4213048061510453e-03 7.1034213048061519e+00
-4.8763636794780891e-03 7.1018763636794784e+00
-2.8729910852360502e-02 2.4616729910852364e+01
ITEM: ATOMS id type x y z 
2 1 3.31986 1.60984 13.3286 
5 1 4.65891 1.53172 18.1245 
7 1 3.37917 1.42075 15.9713 
8 1 2.16192 1.53202 18.1398 
18 1 3.40654 1.47408 17.4119 
21 1 3.28958 3.0484 13.0773 
23 1 3.35594 1.37564 14.7503 
24 1 3.32569 0.501785 12.4003 
17 1 7.03674 2.87764 24.2837 
19 1 7.00317 1.62067 22.1261 
20 1 7.03765 0.381902 24.295 
22 1 6.96052 1.63416 19.4618 
25 1 5.71096 1.57971 18.7445 
27 1 6.97333 1.62665 20.9042 
28 1 1.09929 1.5792 18.7413 
30 1 7.03875 1.62666 23.5682 
10 1 6.96129 5.25876 5.08243 
13 1 7.03501 3.93197 0.255652 
15 1 7.00266 5.19063 2.41875 
16 1 7.03585 6.42598 0.252319 
26 1 7.03295 5.17962 0.976468 
29 1 5.71277 5.24062 5.80255 
31 1 6.97756 5.22171 3.64028 
32 1 1.10075 5.24134 5.8022 
1 1 4.65736 5.22487 6.41872 
3 1 3.38535 5.14036 8.57736 
4 1 2.16331 5.226 6.40581 
6 1 3.33134 5.20087 11.2436 
9 1 3.3097 4.09745 12.1367 
11 1 3.36682 5.08503 9.79653 