LAMMPS (3 Mar 2020)
# Alpha
clear
units		real
dimension 3
boundary        p p p
atom_style	charge
newton on
read_data       OH_8.lmp
  orthogonal box = (0 0 0) to (11 11.002 11)
  2 by 2 by 2 MPI processor grid
  reading atoms ...
  50 atoms
  read_data CPU = 0.109063 secs

timestep 0.25

# ---------- Define Interatomic Potential ---------------------
pair_style      reax/c NULL checkqeq no
pair_coeff      * * ffield.reax C H O
fix             2 all qeq/reax 1 0.0 10.0 1.0e-6 reax/c

#------------ Equilibration of the system -------------------------
reset_timestep 0

dump 1 all custom 10 min.lammpstrj id type x y z

minimize 1.0e-8 1.0e-8 100000 100000
WARNING: Using 'neigh_modify every 1 delay 0 check yes' setting during minimization (../min.cpp:190)
WARNING: Total cutoff < 2*bond cutoff. May need to use an increased neighbor list skin. (../pair_reaxc.cpp:413)
Neighbor list info ...
  update every 1 steps, delay 0 steps, check yes
  max neighbors/atom: 2000, page size: 100000
  master list distance cutoff = 9.5
  ghost atom cutoff = 9.5
  binsize = 4.75, bins = 3 3 3
  2 neighbor lists, perpetual/occasional/extra = 2 0 0
  (1) pair reax/c, perpetual
      attributes: half, newton off, ghost
      pair build: half/bin/newtoff/ghost
      stencil: half/ghost/bin/3d/newtoff
      bin: standard
  (2) fix qeq/reax, perpetual, copy from (1)
      attributes: half, newton off, ghost
      pair build: copy
      stencil: none
      bin: none
Per MPI rank memory allocation (min/avg/max) = 18.89 | 19.03 | 19.13 Mbytes
Step Temp E_pair E_mol TotEng Press 
       0            0   -8700.8666            0   -8700.8666   -1623.3696 
      20            0   -8718.6048            0   -8718.6048    -20076.71 
Loop time of 0.331116 on 8 procs for 20 steps with 50 atoms

99.4% CPU use with 8 MPI tasks x no OpenMP threads

Minimization stats:
  Stopping criterion = energy tolerance
  Energy initial, next-to-last, final = 
         -8700.8665863     -8718.60472341     -8718.60480588
  Force two-norm initial, final = 354.52 584.15
  Force max component initial, final = 145.359 234.998
  Final line search alpha, max atom move = 5.31915e-05 0.0124999
  Iterations, force evaluations = 20 98

MPI task timing breakdown:
Section |  min time  |  avg time  |  max time  |%varavg| %total
---------------------------------------------------------------
Pair    | 0.1952     | 0.19882    | 0.20257    |   0.5 | 60.05
Neigh   | 0          | 0          | 0          |   0.0 |  0.00
Comm    | 0.0035959  | 0.0073062  | 0.010847   |   2.8 |  2.21
Output  | 1.7413e-05 | 2.4374e-05 | 3.742e-05  |   0.0 |  0.01
Modify  | 0.12415    | 0.12417    | 0.12419    |   0.0 | 37.50
Other   |            | 0.0007955  |            |       |  0.24

Nlocal:    6.25 ave 8 max 6 min
Histogram: 7 0 0 0 0 0 0 0 0 1
Nghost:    610.5 ave 617 max 603 min
Histogram: 2 0 1 0 0 1 1 0 1 2
Neighs:    804.125 ave 1011 max 767 min
Histogram: 7 0 0 0 0 0 0 0 0 1

Total # of neighbors = 6433
Ave neighs/atom = 128.66
Neighbor list builds = 0
Dangerous builds = 0

###
min_style cg
minimize 1.0e-8 1.0e-8 100000 100000
WARNING: Using 'neigh_modify every 1 delay 0 check yes' setting during minimization (../min.cpp:190)
WARNING: Total cutoff < 2*bond cutoff. May need to use an increased neighbor list skin. (../pair_reaxc.cpp:413)
Per MPI rank memory allocation (min/avg/max) = 18.89 | 19.03 | 19.13 Mbytes
Step Temp E_pair E_mol TotEng Press 
      20            0   -8718.6048            0   -8718.6048    -20076.71 
      21            0   -8718.6048            0   -8718.6048   -20076.653 
Loop time of 0.0226824 on 8 procs for 1 steps with 50 atoms

99.4% CPU use with 8 MPI tasks x no OpenMP threads

Minimization stats:
  Stopping criterion = energy tolerance
  Energy initial, next-to-last, final = 
        -8718.60480588     -8718.60480588     -8718.60482387
  Force two-norm initial, final = 584.15 584.149
  Force max component initial, final = 234.998 234.998
  Final line search alpha, max atom move = 5.31919e-05 0.0125
  Iterations, force evaluations = 1 6

MPI task timing breakdown:
Section |  min time  |  avg time  |  max time  |%varavg| %total
---------------------------------------------------------------
Pair    | 0.013797   | 0.013983   | 0.014261   |   0.1 | 61.65
Neigh   | 0          | 0          | 0          |   0.0 |  0.00
Comm    | 0.0002589  | 0.00054317 | 0.00072415 |   0.0 |  2.39
Output  | 0          | 0          | 0          |   0.0 |  0.00
Modify  | 0.0080542  | 0.0080558  | 0.008057   |   0.0 | 35.52
Other   |            | 0.0001008  |            |       |  0.44

Nlocal:    6.25 ave 8 max 6 min
Histogram: 7 0 0 0 0 0 0 0 0 1
Nghost:    610.5 ave 617 max 603 min
Histogram: 2 0 1 0 0 1 1 0 1 2
Neighs:    806.875 ave 1021 max 768 min
Histogram: 7 0 0 0 0 0 0 0 0 1

Total # of neighbors = 6455
Ave neighs/atom = 129.1
Neighbor list builds = 0
Dangerous builds = 0

###
fix 1 all box/relax aniso 0.0
min_style cg
minimize 1.0e-8 1.0e-8 100000 100000
WARNING: Using 'neigh_modify every 1 delay 0 check yes' setting during minimization (../min.cpp:190)
WARNING: Total cutoff < 2*bond cutoff. May need to use an increased neighbor list skin. (../pair_reaxc.cpp:413)
Per MPI rank memory allocation (min/avg/max) = 18.89 | 19.03 | 19.13 Mbytes
Step Temp E_pair E_mol TotEng Press Volume 
      21            0   -8718.6048            0   -8718.6048   -20076.653     1331.242 
    3439            0    -8831.784            0    -8831.784   -1314.1345    1354.8155 
Loop time of 12.7602 on 8 procs for 3418 steps with 50 atoms

99.4% CPU use with 8 MPI tasks x no OpenMP threads

Minimization stats:
  Stopping criterion = energy tolerance
  Energy initial, next-to-last, final = 
        -8718.60482387     -8831.78400814      -8831.7840429
  Force two-norm initial, final = 892.845 47.8447
  Force max component initial, final = 399.333 30.0075
  Final line search alpha, max atom move = 2.36609e-05 0.000710006
  Iterations, force evaluations = 3418 4733

MPI task timing breakdown:
Section |  min time  |  avg time  |  max time  |%varavg| %total
---------------------------------------------------------------
Pair    | 9.3134     | 9.4181     | 9.6002     |   3.3 | 73.81
Neigh   | 0          | 0          | 0          |   0.0 |  0.00
Comm    | 0.15995    | 0.34606    | 0.4467     |  17.1 |  2.71
Output  | 0.0052387  | 0.0066419  | 0.0086992  |   1.3 |  0.05
Modify  | 2.8801     | 2.8808     | 2.8811     |   0.0 | 22.58
Other   |            | 0.1086     |            |       |  0.85

Nlocal:    6.25 ave 8 max 6 min
Histogram: 7 0 0 0 0 0 0 0 0 1
Nghost:    610.5 ave 617 max 603 min
Histogram: 2 0 1 0 0 1 1 0 1 2
Neighs:    806.875 ave 1021 max 768 min
Histogram: 7 0 0 0 0 0 0 0 0 1

Total # of neighbors = 6455
Ave neighs/atom = 129.1
Neighbor list builds = 0
Dangerous builds = 0

unfix 1
###
min_style cg
minimize 1.0e-8 1.0e-8 100000 100000
WARNING: Using 'neigh_modify every 1 delay 0 check yes' setting during minimization (../min.cpp:190)
WARNING: Total cutoff < 2*bond cutoff. May need to use an increased neighbor list skin. (../pair_reaxc.cpp:413)
Per MPI rank memory allocation (min/avg/max) = 18.89 | 19.02 | 19.13 Mbytes
Step Temp E_pair E_mol TotEng Press 
    3439            0    -8831.784            0    -8831.784   -1314.1345 
    3460            0   -8833.5769            0   -8833.5769   -3717.6996 
Loop time of 0.402358 on 8 procs for 21 steps with 50 atoms

99.5% CPU use with 8 MPI tasks x no OpenMP threads

Minimization stats:
  Stopping criterion = linesearch alpha is zero
  Energy initial, next-to-last, final = 
         -8831.7840429     -8833.57690039     -8833.57690039
  Force two-norm initial, final = 16.3078 27.2209
  Force max component initial, final = 4.41677 6.21672
  Final line search alpha, max atom move = 3.23026e-11 2.00816e-10
  Iterations, force evaluations = 21 131

MPI task timing breakdown:
Section |  min time  |  avg time  |  max time  |%varavg| %total
---------------------------------------------------------------
Pair    | 0.25596    | 0.259      | 0.26498    |   0.6 | 64.37
Neigh   | 0          | 0          | 0          |   0.0 |  0.00
Comm    | 0.0048948  | 0.010986   | 0.014015   |   2.9 |  2.73
Output  | 4.779e-05  | 5.7956e-05 | 7.3287e-05 |   0.0 |  0.01
Modify  | 0.13128    | 0.1313     | 0.13131    |   0.0 | 32.63
Other   |            | 0.001018   |            |       |  0.25

Nlocal:    6.25 ave 8 max 6 min
Histogram: 7 0 0 0 0 0 0 0 0 1
Nghost:    599.25 ave 606 max 590 min
Histogram: 1 1 0 0 1 0 2 1 0 2
Neighs:    803.375 ave 1012 max 764 min
Histogram: 7 0 0 0 0 0 0 0 0 1

Total # of neighbors = 6427
Ave neighs/atom = 128.54
Neighbor list builds = 0
Dangerous builds = 0

###
fix 1 all box/relax aniso 0.0
min_style cg
minimize 1.0e-8 1.0e-8 100000 100000
WARNING: Using 'neigh_modify every 1 delay 0 check yes' setting during minimization (../min.cpp:190)
WARNING: Total cutoff < 2*bond cutoff. May need to use an increased neighbor list skin. (../pair_reaxc.cpp:413)
Per MPI rank memory allocation (min/avg/max) = 18.89 | 19.02 | 19.13 Mbytes
Step Temp E_pair E_mol TotEng Press Volume 
    3460            0   -8833.5769            0   -8833.5769   -3717.6996    1354.8155 
    3580            0   -8833.9297            0   -8833.9297    113.59457    1352.9635 
Loop time of 0.530802 on 8 procs for 120 steps with 50 atoms

99.5% CPU use with 8 MPI tasks x no OpenMP threads

Minimization stats:
  Stopping criterion = energy tolerance
  Energy initial, next-to-last, final = 
        -8833.57690039     -8833.92968777     -8833.92969958
  Force two-norm initial, final = 131.389 18.0553
  Force max component initial, final = 88.3166 8.06815
  Final line search alpha, max atom move = 1.28046e-05 0.000103309
  Iterations, force evaluations = 120 201

MPI task timing breakdown:
Section |  min time  |  avg time  |  max time  |%varavg| %total
---------------------------------------------------------------
Pair    | 0.39307    | 0.39779    | 0.40488    |   0.7 | 74.94
Neigh   | 0          | 0          | 0          |   0.0 |  0.00
Comm    | 0.0066026  | 0.013878   | 0.018678   |   3.5 |  2.61
Output  | 0.00017483 | 0.00021892 | 0.00028605 |   0.0 |  0.04
Modify  | 0.11454    | 0.11457    | 0.1146     |   0.0 | 21.58
Other   |            | 0.004338   |            |       |  0.82

Nlocal:    6.25 ave 8 max 6 min
Histogram: 7 0 0 0 0 0 0 0 0 1
Nghost:    601.75 ave 611 max 594 min
Histogram: 1 1 1 0 2 0 1 1 0 1
Neighs:    805.125 ave 1008 max 767 min
Histogram: 7 0 0 0 0 0 0 0 0 1

Total # of neighbors = 6441
Ave neighs/atom = 128.82
Neighbor list builds = 0
Dangerous builds = 0

unfix 1
###
min_style cg
minimize 1.0e-8 1.0e-8 100000 100000
WARNING: Using 'neigh_modify every 1 delay 0 check yes' setting during minimization (../min.cpp:190)
WARNING: Total cutoff < 2*bond cutoff. May need to use an increased neighbor list skin. (../pair_reaxc.cpp:413)
Per MPI rank memory allocation (min/avg/max) = 18.89 | 19.02 | 19.13 Mbytes
Step Temp E_pair E_mol TotEng Press 
    3580            0   -8833.9297            0   -8833.9297    113.59457 
    3600            0    -8834.059            0    -8834.059    2866.5729 
Loop time of 0.627939 on 8 procs for 20 steps with 50 atoms

99.5% CPU use with 8 MPI tasks x no OpenMP threads

Minimization stats:
  Stopping criterion = energy tolerance
  Energy initial, next-to-last, final = 
        -8833.92969958      -8834.0589079     -8834.05896986
  Force two-norm initial, final = 16.1235 50.8099
  Force max component initial, final = 6.25688 13.971
  Final line search alpha, max atom move = 0.0026914 0.0376015
  Iterations, force evaluations = 20 210

MPI task timing breakdown:
Section |  min time  |  avg time  |  max time  |%varavg| %total
---------------------------------------------------------------
Pair    | 0.41099    | 0.41595    | 0.42343    |   0.7 | 66.24
Neigh   | 0          | 0          | 0          |   0.0 |  0.00
Comm    | 0.0066024  | 0.01422    | 0.019267   |   3.6 |  2.26
Output  | 2.145e-05  | 2.6068e-05 | 3.4605e-05 |   0.0 |  0.00
Modify  | 0.19623    | 0.19629    | 0.19633    |   0.0 | 31.26
Other   |            | 0.001446   |            |       |  0.23

Nlocal:    6.25 ave 8 max 6 min
Histogram: 7 0 0 0 0 0 0 0 0 1
Nghost:    601.75 ave 611 max 594 min
Histogram: 1 1 1 0 2 0 1 1 0 1
Neighs:    804.625 ave 1006 max 766 min
Histogram: 7 0 0 0 0 0 0 0 0 1

Total # of neighbors = 6437
Ave neighs/atom = 128.74
Neighbor list builds = 0
Dangerous builds = 0

undump 1
#############
#----------- Thermo ------------
reset_timestep 0
thermo  200

thermo_style    custom step temp etotal ke pe press
velocity all create 300 12345 mom yes rot yes
fix 1 all npt temp 300 300 25.0 iso 0.0 0.0 250.0

variable vpe equal pe
variable vtemp equal temp
variable vstep equal step

fix output all print 2500 "${vstep} ${vtemp} ${vpe}" file temp-tpdh-Pt.dat screen no

dump 1 all custom 2500 thermo-tpdh-Pt.lammpstrj id type x y z

run 1000000
WARNING: Total cutoff < 2*bond cutoff. May need to use an increased neighbor list skin. (../pair_reaxc.cpp:413)
Per MPI rank memory allocation (min/avg/max) = 17.77 | 17.9 | 18.01 Mbytes
Step Temp TotEng KinEng PotEng Press 
       0          300   -8790.2411    43.817908    -8834.059    4347.0387 
     200    232.80624   -8771.7786    34.003608   -8805.7822    -6182.487 
     400    351.82786   -8744.9428    51.387868   -8796.3307    6233.4242 
     600    288.16438   -8746.1877    42.089201   -8788.2769    40560.743 
     800    315.15143   -8751.2225     46.03092   -8797.2534    12031.626 
    1000    369.39874   -8735.7899    53.954266   -8789.7442    10994.185 
    1200    270.61813    -8758.039    39.526402   -8797.5654    16290.897 
    1400    270.64708   -8751.7705    39.530629   -8791.3011    1799.8922 
    1600    271.01317   -8741.3615      39.5841   -8780.9456    39618.799 
    1800    259.55615   -8753.9354    37.910691   -8791.8461   -12029.175 
    2000    283.15613   -8753.9512    41.357697   -8795.3089   -36379.258 
    2200    335.06454   -8739.9886    48.939424    -8788.928    6181.1345 
    2400    373.84276   -8727.2838    54.603358   -8781.8872     10396.03 
    2600    300.89841    -8749.253     43.94913   -8793.2021   -17008.722 
    2800    347.07131   -8740.4543    50.693129   -8791.1474   -1210.8423 
    3000    290.02243   -8753.3144    42.360588    -8795.675   -13547.802 
    3200     305.7345   -8753.5816    44.655487   -8798.2371     41347.79 
    3400    264.76715   -8744.2094    38.671808   -8782.8812   -19375.955 
    3600    339.66923   -8743.5905    49.611983   -8793.2025    -31180.13 
    3800    315.96447   -8757.4435    46.149673   -8803.5931    14313.344 
    4000    339.45871   -8747.0127    49.581235   -8796.5939    11501.912 
    4200    266.24251   -8752.8872    38.887299   -8791.7745   -8723.4947 
    4400    318.55384   -8758.6482    46.527875    -8805.176   -11368.249 
    4600    372.48265   -8739.0013    54.404701    -8793.406   -2889.3714 
    4800    294.09232   -8747.8532    42.955034   -8790.8082    11450.059 
    5000    276.53557   -8765.8777      40.3907   -8806.2684   -37747.239 
    5200    246.32833    -8758.843     35.97864   -8794.8217   -11544.869 
    5400    312.57264   -8752.0999    45.654264   -8797.7542    3525.1899 
    5600    266.36036   -8760.8435    38.904513    -8799.748   -11389.908 
    5800    278.86679    -8748.954    40.731198   -8789.6852    25340.789 
    6000    309.41939   -8746.7821    45.193701   -8791.9758   -6655.1759 
    6200    265.00955   -8762.7859    38.707213   -8801.4931   -22186.409 
    6400    320.75904    -8758.113    46.849967   -8804.9629    250.59394 
    6600    364.77618   -8744.5352    53.279096   -8797.8143   -34143.711 
    6800    327.10828    -8735.882    47.777335   -8783.6594   -10470.969 
    7000     327.6023   -8749.4084    47.849491   -8797.2579    -4524.916 
    7200    264.85709   -8755.8001    38.684945   -8794.4851    8509.5159 
    7400    264.07831   -8765.7022    38.571197   -8804.2734   -15548.695 
    7600    358.93813   -8749.5861    52.426393   -8802.0125    23822.142 
    7800    316.82558    -8748.699    46.275447   -8794.9745    31162.274 
    8000    220.81745   -8764.2314    32.252529   -8796.4839   -479.47603 
    8200    304.93045   -8748.7058    44.538048   -8793.2439     2469.027 
    8400    290.35103   -8754.8685    42.408583    -8797.277   -7178.9608 
    8600    299.72253   -8765.4392    43.777381   -8809.2165    18225.872 
    8800    314.32564   -8754.4527    45.910307    -8800.363    8704.0174 
    9000    288.62648   -8746.2518    42.156695   -8788.4085    33357.961 
    9200    295.25764   -8749.1847     43.12524     -8792.31     40159.57 
    9400    295.63416   -8759.2126    43.180235   -8802.3928   -1676.7438 
    9600    325.26137   -8750.9712    47.507575   -8798.4788    3239.0951 
    9800    339.84091   -8742.9956    49.637058   -8792.6327   -35934.988 
   10000    246.48472   -8761.2563    36.001483   -8797.2578   -367.32562 
   10200    329.33222   -8747.0561    48.102163   -8795.1583   -17494.894 
   10400    296.86707   -8747.9199    43.360313   -8791.2802   -2832.9585 
   10600    316.74506   -8762.0547    46.263686   -8808.3184   -15052.208 
   10800    273.01614   -8748.8477    39.876653   -8788.7244   -27965.449 
   11000    304.58346   -8750.4883    44.487366   -8794.9756   -33254.427 
   11200    246.39009   -8761.8036     35.98766   -8797.7912    5669.1632 
   11400    337.08641   -8745.3622    49.234737   -8794.5969    38910.152 
   11600    334.78123   -8751.5219    48.898044   -8800.4199    21290.082 
   11800    236.08905   -8765.4772    34.483094   -8799.9603   -8158.4472 
   12000    320.46398   -8752.4958    46.806871   -8799.3027   -9799.8922 
   12200    307.59223    -8748.107    44.926826   -8793.0338    7111.5838 
   12400    272.13086   -8766.0991     39.74735   -8805.8464   -31214.491 
   12600    281.43891   -8756.2534    41.106881   -8797.3602    21036.821 
   12800    297.69422   -8751.5458    43.481127   -8795.0269   -8494.1902 
   13000    299.21917   -8742.1653     43.70386   -8785.8692   -14575.409 
   13200     225.5712   -8760.2346    32.946861   -8793.1814    18451.687 
   13400    312.51608   -8748.4291    45.646002   -8794.0751    22874.801 
   13600    319.86221   -8735.5377    46.718975   -8782.2567     -36801.6 
   13800    305.34826    -8755.395    44.599073   -8799.9941    4508.0409 
   14000    278.59377   -8754.7029     40.69132   -8795.3942    22139.018 
   14200    277.41504   -8741.6156    40.519155   -8782.1348    4061.8871 
   14400    284.33645   -8750.4107    41.530094   -8791.9408   -14584.153 
   14600    249.25671   -8769.4909    36.406359   -8805.8973   -2209.0802 
   14800    275.12866   -8755.9389    40.185207   -8796.1242    3096.8545 
   15000    273.86054   -8746.5801    39.999986   -8786.5801    11012.145 
   15200    303.27847    -8761.132    44.296761   -8805.4288    22059.894 
   15400    298.70816   -8756.4883    43.629222   -8800.1176   -29331.102 
   15600    341.12984   -8743.4494    49.825319   -8793.2747   -25967.904 
   15800    304.66582   -8760.1269    44.499395   -8804.6263   -9663.4778 
   16000    272.35638   -8757.3188    39.780289   -8797.0991   -10398.039 
   16200    319.42602   -8743.6213    46.655267   -8790.2766   -8470.1513 
   16400    294.39756   -8752.7761    42.999617   -8795.7757   -6158.9659 
   16600    305.69666   -8749.4212     44.64996   -8794.0712   -6726.1587 
   16800    302.74421    -8745.921    44.218726   -8790.1397   -17443.424 
   17000    262.97129   -8758.3864    38.409505   -8796.7959    14446.431 
   17200    304.61701   -8749.3393    44.492267   -8793.8315     13950.33 
   17400    340.22976   -8729.2595    49.693855   -8778.9534    8155.8244 
   17600    344.01561   -8746.0288    50.246814   -8796.2756    12220.848 
   17800    289.48174   -8754.2795    42.281614   -8796.5611   -9237.9548 
   18000    323.76709   -8752.5719    47.289322   -8799.8612   -6879.5458 
   18200    323.11083    -8741.956    47.193469   -8789.1495   -18515.626 
   18400    339.39566   -8740.9246    49.572026   -8790.4966   -38619.645 
   18600     256.8842    -8757.947    37.520428   -8795.4674   -9476.3242 
   18800     343.9648   -8745.1183    50.239392   -8795.3577   -3582.1182 
   19000    313.95106   -8749.9512    45.855595   -8795.8067   -3951.1376 
   19200    310.01076    -8752.214    45.280077   -8797.4941     3578.603 
   19400    280.98191   -8747.8532    41.040132   -8788.8933    30984.821 
   19600    333.03136   -8739.5309    48.642459   -8788.1734    -20298.36 
   19800    294.78924   -8754.2678    43.056825   -8797.3247   -38500.774 
   20000    272.25972   -8754.9842    39.766172   -8794.7504   -5288.9473 
   20200    383.78703    -8740.862    56.055816   -8796.9178   -16497.309 
   20400    275.33162     -8752.56    40.214852   -8792.7748      3565.05 
   20600    299.42819   -8740.1124     43.73439   -8783.8468    28394.604 
   20800    304.62309    -8747.397    44.493155   -8791.8902    909.17836 
   21000    307.23595   -8760.0489    44.874788   -8804.9237   -10074.642 
   21200    262.98662    -8763.864    38.411745   -8802.2758    8277.3851 
   21400    311.47103   -8746.3309    45.493363   -8791.8243    31188.585 
   21600    292.86205   -8751.7024    42.775341   -8794.4777    37580.672 
   21800    304.36655   -8756.2006    44.455684   -8800.6563    13202.061 
   22000    390.39679   -8742.8003    57.021235   -8799.8215    30013.132 
   22200    276.51396   -8762.4543    40.387544   -8802.8419     1709.236 
   22400    322.54002   -8751.6572    47.110096   -8798.7673   -6987.0588 
   22600    287.84847   -8750.2184    42.043059   -8792.2615   -12610.247 
   22800    332.22937   -8741.6182     48.52532   -8790.1435    45.976634 
   23000    324.46567   -8751.4745    47.391356   -8798.8659    -2915.658 
   23200    262.62925   -8760.2634    38.359547   -8798.6229   -16079.923 
   23400    331.59603   -8739.5408    48.432814   -8787.9736    2944.8988 
   23600    351.13658   -8747.0886    51.286901   -8798.3755   -22857.891 
   23800    259.88593   -8757.0005    37.958859   -8794.9594   -21399.266 
   24000    360.95687   -8739.1229    52.721249   -8791.8442   -8381.8173 
   24200    327.74286   -8755.1273    47.870021   -8802.9973    23218.913 
   24400    280.63481   -8760.8431    40.989434   -8801.8325    34839.548 
   24600    254.17358   -8764.9109    37.124516   -8802.0354   -22753.149 
   24800    306.19867   -8748.0233    44.723284   -8792.7466    12808.858 
   25000    282.85913   -8750.5208    41.314318   -8791.8351     8667.074 
   25200    234.46988   -8764.6711    34.246599   -8798.9177   -10628.119 
   25400    298.13748   -8752.1476    43.545868   -8795.6935    1816.6815 
   25600    271.87928   -8752.7061    39.710604   -8792.4167   -38121.891 
   25800    303.06693   -8749.5858    44.265862   -8793.8517    20305.355 
   26000    294.35172   -8750.1553    42.992921   -8793.1483    15564.933 
   26200    277.83783   -8748.7311    40.580908   -8789.3121     59403.76 
   26400    261.61252   -8756.1998    38.211044   -8794.4109    14340.351 
   26600    276.65756   -8757.8123    40.408518   -8798.2209    2130.6453 
   26800     311.2972   -8745.2723    45.467973   -8790.7403    12968.533 
   27000    233.64504   -8752.2395    34.126122   -8786.3656      12447.6 
   27200    319.20329    -8745.132    46.622735   -8791.7547   -44003.477 
   27400    303.03508   -8744.9358    44.261211    -8789.197   -4708.5491 
   27600      310.417   -8756.5627    45.339411   -8801.9021    10732.356 
   27800     341.4295   -8746.6155    49.869087   -8796.4846    3147.5573 
   28000    249.19139   -8759.2314    36.396817   -8795.6282      3774.86 
   28200    276.44623   -8759.1217    40.377651   -8799.4994    7470.2867 
   28400    261.52212   -8748.3526     38.19784   -8786.5504   -35337.034 
   28600    431.34182   -8728.2776    63.001653   -8791.2793   -28476.896 
   28800    298.15739   -8747.1518    43.548777   -8790.7006    34326.509 
   29000    304.42391   -8753.4832    44.464063   -8797.9473   -33367.957 
   29200    296.78578   -8762.2496    43.348439    -8805.598    24100.801 
   29400    287.16368   -8756.8401    41.943039   -8798.7832   -13253.137 
   29600    322.89888   -8749.1374    47.162511   -8796.2999   -8681.8278 
   29800    267.34465   -8763.5415    39.048278   -8802.5898   -2186.3344 
   30000    320.74133   -8746.0016     46.84738    -8792.849    -26974.96 
   30200    307.63661   -8755.3474    44.933308   -8800.2807   -35410.854 
   30400    302.29218   -8756.3457    44.152702   -8800.4984   -23016.097 
   30600    317.22449   -8741.8951    46.333711   -8788.2289    11916.359 
   30800    255.60929   -8753.5385    37.334214   -8790.8727    40935.239 
   31000    324.52167   -8743.9004    47.399536   -8791.2999     19335.96 
   31200    319.63853   -8757.1144    46.686305   -8803.8007   -5898.0222 
   31400      296.097   -8755.4958    43.247837   -8798.7436    25075.001 
   31600    335.81254   -8743.5592    49.048676   -8792.6079    382.68834 
   31800    250.63497    -8762.564    36.607667   -8799.1717    -123.7019 
   32000    322.71733   -8748.5476    47.135993   -8795.6836   -24067.278 
   32200    293.17975   -8749.3731    42.821744   -8792.1949    -39769.34 
   32400    255.43965   -8767.3867    37.309437   -8804.6961     8538.336 
   32600    264.11972   -8760.8383    38.577246   -8799.4156   -28336.323 
   32800    257.81198   -8753.8684    37.655939   -8791.5243   -29739.642 
   33000    315.37286   -8739.1324    46.063263   -8785.1957   -15486.231 
   33200    300.83114    -8760.857    43.939304   -8804.7963    21575.829 
   33400    307.74546   -8752.2987    44.949207   -8797.2479    -8955.264 
   33600    336.46321   -8749.0732    49.143714   -8798.2169   -1056.8642 
   33800    256.24531   -8763.7491    37.427111   -8801.1762   -10956.109 
   34000    280.99364   -8746.3111    41.041845    -8787.353    14927.351 
   34200    306.67741   -8746.1602    44.793208   -8790.9534   -24526.113 
   34400    273.88714   -8761.7591    40.003871    -8801.763    484.33175 
   34600    277.84644   -8758.4582    40.582165   -8799.0403    12221.079 
   34800     357.8362   -8745.5065    52.265445    -8797.772   -7558.4443 
   35000    275.18577   -8748.4432    40.193548   -8788.6367   -7389.7468 
   35200      276.574   -8758.8727    40.396314    -8799.269    15861.417 
   35400    318.75418   -8746.4159    46.557138   -8792.9731     25253.31 
   35600     298.2776   -8752.0582    43.566334   -8795.6245    13280.726 
   35800    280.86387    -8757.497    41.022891   -8798.5199   -22700.588 
   36000    317.02736   -8755.9998    46.304918   -8802.3048   -17423.705 
   36200     287.2635   -8747.1461    41.957618   -8789.1037    -34989.35 
   36400     254.3683   -8766.3983    37.152955   -8803.5513    16760.036 
   36600    226.87668   -8762.2737    33.137539   -8795.4112    15328.835 
   36800    340.75696   -8749.7933    49.770856   -8799.5642   -60841.936 
   37000    324.25551   -8756.8086     47.36066   -8804.1693   -10150.822 
   37200    313.39253   -8766.9616    45.774016   -8812.7356    2157.5437 
   37400    355.24395   -8748.0301    51.886822   -8799.9169    14547.258 
   37600    291.80306   -8753.6094    42.620666     -8796.23    8999.2424 
   37800    260.70441   -8770.6384    38.078406   -8808.7168   -3046.8075 
   38000    315.62622   -8753.4366    46.100269   -8799.5368   -7935.9881 
   38200    256.79208   -8751.7865    37.506972   -8789.2935   -44596.613 
   38400    341.94332   -8748.6087    49.944137   -8798.5529   -15595.097 
   38600     314.6371    -8756.627    45.955798   -8802.5828   -38852.196 
   38800    238.41422     -8754.51    34.822708   -8789.3328    6184.7918 
   39000    291.97508   -8740.1103    42.645791   -8782.7561    29361.052 
   39200    248.28531   -8755.5564    36.264476   -8791.8209    9233.1671 
   39400    278.76163   -8755.1261    40.715837    -8795.842    42619.455 
   39600    365.09819   -8742.8045    53.326129   -8796.1307   -1755.6436 
   39800     283.0873   -8760.7368    41.347644   -8802.0844   -6507.5931 
   40000    286.16668   -8752.1663    41.797417   -8793.9638    128.27269 
   40200    342.90193   -8749.1644     50.08415   -8799.2486    14783.174 
   40400    275.39776   -8766.5867    40.224511   -8806.8112    4785.3908 
   40600     278.9935   -8757.7831    40.749705   -8798.5328   -5523.3678 
   40800    298.76294   -8754.8598    43.637223    -8798.497   -18546.172 
   41000    243.77656   -8756.0062    35.605929   -8791.6122    20292.641 
   41200    307.06305   -8744.2542    44.849535   -8789.1038    8862.6933 
   41400    321.38924   -8747.3394    46.942013   -8794.2814    19612.512 
   41600    272.66794   -8758.2744    39.825795   -8798.1002   -2184.4058 
   41800    328.95107   -8747.2582    48.046493   -8795.3047   -4022.7203 
   42000    321.81763   -8737.0374    47.004584    -8784.042    37642.757 
   42200     236.7395   -8756.8678    34.578099   -8791.4459   -13597.006 
   42400    309.13096   -8746.6653    45.151573   -8791.8168    29712.423 
   42600    348.06807    -8742.385    50.838715   -8793.2237   -9438.1879 
   42800    296.22279   -8754.1969     43.26621   -8797.4631    8480.1233 
   43000    280.55497   -8753.0464    40.977773   -8794.0241    19978.816 
   43200    354.87427   -8742.2588    51.832827   -8794.0916   -13072.033 
   43400    273.09349   -8757.7768    39.887951   -8797.6648   -21079.771 
   43600    326.79247   -8752.5845    47.731207   -8800.3158    3544.3041 
   43800    324.45183   -8748.9545    47.389335   -8796.3438   -14793.959 
   44000    320.66931   -8747.9456    46.836861   -8794.7825    23466.441 
   44200    279.33574   -8754.1664    40.799692   -8794.9661   -33430.586 
   44400      287.194   -8759.6804    41.947467   -8801.6279   -10551.139 
   44600    288.38985   -8748.8582    42.122132   -8790.9804   -29941.788 
   44800    285.19905   -8754.1962    41.656085   -8795.8523     10822.03 
   45000    267.08234   -8760.9055    39.009964   -8799.9155    20695.296 
   45200    262.44208   -8749.1489     38.33221   -8787.4811    18269.301 
   45400    319.97402   -8751.9631    46.735307   -8798.6984   -23326.035 
   45600    335.15492   -8757.5567    48.952625   -8806.5093    -30208.09 
   45800    373.76872   -8747.3609    54.592545   -8801.9535   -10973.547 
   46000    284.95996   -8751.7035    41.621164   -8793.3247    2355.7156 
   46200    248.71928   -8760.4989    36.327861   -8796.8268    16602.602 
   46400    266.08975   -8743.1281    38.864987   -8781.9931    2191.3104 
   46600    303.55723   -8754.7881    44.337475   -8799.1256    10848.344 
   46800    273.59501   -8755.2495    39.961203   -8795.2107    1958.6127 
   47000    281.32989   -8751.3784    41.090958   -8792.4693   -6644.8311 
   47200    335.48731   -8749.3168    49.001174    -8798.318   -17478.748 
   47400    315.67157   -8763.8718    46.106892   -8809.9787   -1917.9722 
   47600    319.95365   -8753.0479    46.732332   -8799.7802   -10228.469 
   47800    295.53329   -8751.2298    43.165502   -8794.3953   -18824.686 
   48000    267.75502   -8756.1739    39.108216   -8795.2821    21010.441 
   48200    321.95456   -8745.1972    47.024583   -8792.2218   -16318.846 
   48400    292.63497   -8750.7356    42.742173   -8793.4777    -13243.79 
   48600    303.16945   -8757.4924    44.280837   -8801.7733    14950.245 
   48800    321.25266   -8750.1656    46.922065   -8797.0877     8388.618 
   49000     350.0199   -8741.5931      51.1238   -8792.7169   -34518.143 
   49200    244.25389   -8756.8445    35.675648   -8792.5202   -24483.524 
   49400    330.58616   -8747.7517    48.285314    -8796.037    27850.681 
   49600    416.84151   -8730.9987    60.883743   -8791.8825   -30668.819 
   49800    268.42638   -8753.1349    39.206275   -8792.3412    33174.695 
   50000     231.9992   -8755.7049    33.885732   -8789.5907    34077.303 
   50200    365.75537   -8741.8589    53.422117    -8795.281    23983.429 
   50400    316.71892   -8745.8925    46.259869   -8792.1523   -14176.072 
   50600    324.32898   -8750.9343    47.371391   -8798.3057   -5123.8407 
   50800    301.00093   -8756.0237    43.964104   -8799.9878   -8576.7681 
   51000    264.67043   -8745.6693    38.657681   -8784.3269    8629.9454 
   51200    283.79383   -8746.2188    41.450839   -8787.6696   -26225.804 
   51400    252.23228   -8758.6953    36.840969   -8795.5363    -31018.79 
   51600    325.79606   -8753.8647    47.585673   -8801.4503    13636.425 
   51800    298.09339   -8753.8373    43.539429   -8797.3767    43385.798 
   52000    251.92604   -8758.6854    36.796239   -8795.4816    18666.746 
   52200    303.18444   -8756.2037    44.283026   -8800.4867   -21900.255 
   52400    349.83627   -8744.5603    51.096978   -8795.6573    40818.589 
   52600      302.426    -8756.034    44.172248   -8800.2063   -9274.7243 
   52800    359.30218   -8755.5291    52.479566   -8808.0086    18785.718 
   53000    321.16546   -8756.6304    46.909328   -8803.5397   -10927.544 
   53200    354.98391   -8740.5896    51.848841   -8792.4385   -17894.352 
   53400    282.49747   -8756.4271    41.261494   -8797.6886   -14015.411 
   53600    284.47305   -8752.3053    41.550046   -8793.8554    38987.017 
   53800    318.98663   -8740.5033     46.59109   -8787.0944   -6390.8081 
   54000    401.30765   -8741.2935    58.614872   -8799.9084    9022.5669 
   54200    299.70749   -8753.8657    43.775183   -8797.6409   -17992.437 
   54400    396.50757   -8740.4627    57.913773   -8798.3764   -8912.8994 
   54600    251.16708   -8761.5081    36.685386   -8798.1935    20602.067 
   54800    296.90519   -8754.3277     43.36588   -8797.6936    -2497.254 
   55000    307.47924   -8746.5281    44.910324   -8791.4384    12176.909 
   55200    293.40431   -8750.9054    42.854543     -8793.76    3080.8265 
   55400    291.59246    -8758.507    42.589904   -8801.0969   -22766.232 
   55600     356.6976   -8740.9161    52.099141   -8793.0152    1543.7629 
   55800    349.16027   -8744.8885    50.998241   -8795.8867    9727.8945 
   56000    268.94711   -8756.0686    39.282333   -8795.3509     -21101.8 
   56200    292.22618   -8755.2422    42.682466   -8797.9246   -17936.308 
   56400    315.10446   -8743.1341     46.02406   -8789.1582   -9348.3351 
   56600    338.29416   -8753.9843     49.41114   -8803.3955    22102.151 
   56800    258.23665    -8755.799    37.717966   -8793.5169     8586.458 
   57000    324.00442   -8739.0519    47.323986   -8786.3759   -2164.2797 
   57200    298.96526   -8747.6925    43.666774   -8791.3593    31643.769 
   57400    322.41939   -8750.9345    47.092476    -8798.027   -36182.153 
   57600     306.3461   -8753.5831    44.744818   -8798.3279   -24944.878 
   57800    287.90154   -8763.5661    42.050811   -8805.6169   -2219.2347 
   58000    282.66512   -8747.2326     41.28598   -8788.5186    6347.7551 
   58200    344.10396   -8743.7354    50.259719   -8793.9951   -11466.584 
   58400    258.36449   -8763.1496    37.736638   -8800.8863   -10466.682 
   58600    361.33817   -8751.6142    52.776942   -8804.3911    4005.6329 
   58800    317.29993   -8753.1401     46.34473   -8799.4848    51599.836 
   59000    286.09812   -8766.0632    41.787403   -8807.8506   -9886.2448 
   59200    269.61187   -8751.7927    39.379427   -8791.1721   -24079.095 
   59400    347.90174   -8750.8143     50.81442   -8801.6288   -8099.0626 
   59600    250.32968    -8768.701    36.563076   -8805.2641    11762.093 
   59800    266.37621    -8756.146    38.906828   -8795.0528    691.60817 
   60000    355.42158   -8751.2731    51.912767   -8803.1858    17597.676 
   60200    290.00254    -8760.709    42.357682   -8803.0667    3170.2566 
   60400     288.6158   -8753.7661    42.155135   -8795.9213   -15809.978 
   60600    295.82272   -8745.6386    43.207776   -8788.8464    20415.388 
   60800    231.64825   -8756.4656    33.834472   -8790.3001    5512.3367 
   61000    252.68585   -8766.2639    36.907218   -8803.1711   -28429.731 
   61200    282.17452   -8750.4956    41.214323   -8791.7099   -41039.275 
   61400    308.18289   -8743.5216    45.013098   -8788.5347   -30375.398 
   61600      268.516   -8761.0343    39.219364   -8800.2537    15401.435 
   61800     340.9224   -8749.8664    49.795022   -8799.6615   -22324.838 
   62000    317.19317   -8748.2309    46.329137   -8794.5601   -36423.986 
   62200    294.70727   -8757.8992    43.044853   -8800.9441   -17716.118 
   62400    251.29552   -8773.1605    36.704146   -8809.8646    3301.1895 
   62600    268.83378   -8757.9485    39.265779   -8797.2143    17144.695 
   62800    353.16199     -8746.93    51.582732   -8798.5128    35837.373 
   63000     227.4028   -8762.9847    33.214382   -8796.1991    34001.539 
   63200    274.87176   -8757.1593    40.147685    -8797.307     6295.565 
   63400    301.01133   -8753.4889    43.965622   -8797.4545   -34021.925 
   63600    352.71022   -8742.9727    51.516746   -8794.4895    1045.2087 
   63800    261.50279   -8761.1377    38.195017   -8799.3327    52.708601 
   64000    302.47277   -8749.4561     44.17908   -8793.6352     9520.637 
   64200    416.70182   -8731.5627    60.863339    -8792.426    22691.377 
   64400    294.46135    -8747.203    43.008934    -8790.212   -12301.146 
   64600     300.8224   -8755.0526    43.938027   -8798.9906    -34445.77 
   64800     290.1716   -8753.7763    42.382375   -8796.1587   -20780.776 
   65000    340.21301   -8740.2505    49.691408   -8789.9419   -8936.9537 
   65200    287.25472   -8758.2502    41.956336   -8800.2065   -10540.029 
   65400    295.04435    -8752.037    43.094086   -8795.1311   -952.31177 
   65600    363.87612   -8745.3074    53.147635    -8798.455    50316.321 
   65800    282.58985   -8751.1155    41.274986   -8792.3905    14541.929 
   66000    338.24154   -8749.0734    49.403455   -8798.4769    30275.612 
   66200    393.77205   -8738.6941    57.514225   -8796.2083    20851.441 
   66400    261.79117    -8755.867    38.237138   -8794.1041   -9414.5847 
   66600    285.11136   -8754.5424    41.643278   -8796.1857   -5304.1295 
   66800    347.76309    -8733.118    50.794169   -8783.9121    10653.227 
   67000    315.40068   -8748.8098    46.067326   -8794.8771    2254.0232 
   67200    280.29032   -8758.8395    40.939118   -8799.7786    3294.9772 
   67400    325.47054   -8744.6087    47.538127   -8792.1468    6769.3521 
   67600    288.00386   -8745.9564    42.065755   -8788.0222   -12299.496 
   67800    257.21169   -8761.8378     37.56826    -8799.406   -21278.415 
   68000    311.79162    -8751.032    45.540188   -8796.5722    4128.9221 
   68200    322.11463   -8747.7624    47.047963   -8794.8104   -8727.8766 
   68400    256.65021   -8762.3965     37.48625   -8799.8828   -31357.446 
   68600     315.8949   -8746.0323    46.139513   -8792.1718    33634.527 
   68800    328.07915   -8747.5601     47.91914   -8795.4793    11908.292 
   69000    294.34495   -8763.1399    42.991933   -8806.1319    -2195.405 
   69200    338.56925   -8746.9773    49.451321   -8796.4286   -38272.503 
   69400    314.39976   -8750.1292    45.921132   -8796.0504   -42820.394 
   69600    273.10092   -8764.3906    39.889036   -8804.2797    18086.125 
   69800    294.40346   -8752.4084    43.000478   -8795.4089   -26087.119 
   70000    308.26378   -8750.6733    45.024913   -8795.6982    11751.184 
   70200    213.97363   -8767.7994    31.252923   -8799.0523    -13870.81 
   70400     277.7813   -8758.0284    40.572651    -8798.601    7243.2552 
   70600    355.20578   -8750.0985    51.881246   -8801.9798   -30646.334 
   70800    283.77695   -8755.1908    41.448374   -8796.6392    9408.3039 
   71000    285.31076   -8764.9527    41.672402   -8806.6251    6788.1611 
   71200    289.29762   -8747.7214    42.254721   -8789.9761    34223.712 
   71400    300.79072   -8751.7723      43.9334   -8795.7057   -15822.545 
   71600    260.45427    -8766.168    38.041871   -8804.2099    31286.091 
   71800    260.05864   -8771.6022    37.984085   -8809.5863    7724.3793 
   72000    301.46408   -8749.0051     44.03175   -8793.0368     2250.455 
   72200    279.48174   -8749.6334    40.821016   -8790.4544    26967.381 
   72400    254.31835   -8763.9164     37.14566   -8801.0621    24878.719 
   72600    314.75913   -8746.2522    45.973622   -8792.2258    17914.479 
   72800    362.14959   -8741.2497    52.895457   -8794.1451   -19653.062 
   73000    249.04011   -8759.6554    36.374722   -8796.0301   -5561.5179 
   73200    289.08052   -8746.1257    42.223012   -8788.3487   -11209.502 
   73400    281.69388   -8749.5095    41.144121   -8790.6536   -9370.4498 
   73600     266.8374    -8764.372    38.974189   -8803.3462    21372.411 
   73800    313.74376   -8758.9227    45.825318    -8804.748   -26895.181 
   74000    303.20848   -8750.6998    44.286537   -8794.9863   -13550.801 
   74200    265.09591    -8758.321    38.719828   -8797.0408   -5043.2172 
   74400     298.9405   -8758.4798    43.663158    -8802.143   -2967.2589 
   74600     298.5049   -8745.5212    43.599535   -8789.1208    28576.599 
   74800     299.6189   -8760.0093    43.762245   -8803.7716   -23236.392 
   75000    270.20422   -8761.1004    39.465945   -8800.5663    13158.405 
   75200    327.88864   -8748.6656    47.891314   -8796.5569    3975.1268 
   75400    357.52345   -8738.6829    52.219765   -8790.9027    1704.0609 
   75600    335.76132   -8750.1698    49.041195    -8799.211    4014.6346 
   75800    310.98813   -8759.8617    45.422831   -8805.2846   -7474.9765 
   76000    330.40449    -8753.956    48.258778   -8802.2148   -6361.8034 
   76200    311.86213   -8747.2204    45.550488   -8792.7709    8060.8458 
   76400    303.48109   -8763.5971    44.326354   -8807.9234   -1505.9424 
   76600    255.38219   -8756.2243    37.301044   -8793.5254   -11866.106 
   76800    362.22666   -8746.7591    52.906715   -8799.6658    18020.176 
   77000    288.90323   -8761.5054    42.197117   -8803.7026   -38301.305 
   77200    357.88019   -8745.6845    52.271871   -8797.9564   -12775.334 
   77400    252.04477   -8747.0326    36.813582   -8783.8461    17205.397 
   77600    278.42924   -8757.7358    40.667289   -8798.4031    11446.553 
   77800    222.85739   -8761.7259    32.550482   -8794.2764   -34429.931 
   78000    287.19038   -8754.2164    41.946939   -8796.1633   -16320.273 
   78200    290.65128    -8753.643    42.452437   -8796.0954   -14072.086 
   78400    240.12631   -8760.7493    35.072775    -8795.822    23285.618 
   78600    283.86703   -8750.2605    41.461531    -8791.722   -28939.924 
   78800    289.75368    -8749.176    42.321334   -8791.4974   -5482.7452 
   79000    283.12664   -8763.2996     41.35339    -8804.653   -8219.4946 
   79200    227.14032   -8766.0991    33.176046   -8799.2751   -18400.342 
   79400    256.62181    -8755.117    37.482102   -8792.5991   -16763.667 
   79600    278.85942   -8748.2956    40.730122   -8789.0257    56088.476 
   79800    355.39437   -8738.1945    51.908792   -8790.1033   -15251.989 
   80000    258.67547   -8757.5095    37.782059   -8795.2916   -31069.027 
   80200    281.44624   -8748.1523    41.107952   -8789.2602    8963.3689 
   80400    296.38327    -8759.635    43.289649   -8802.9246   -25327.732 
   80600    306.73747   -8756.3432     44.80198   -8801.1452    8471.4319 
   80800    301.38058    -8746.959    44.019555   -8790.9786   -13200.308 
   81000    272.39061   -8750.2564    39.785289   -8790.0417   -15551.199 
   81200    309.46945    -8752.002    45.201013    -8797.203   -18884.787 
   81400    308.81045   -8752.9489    45.104759   -8798.0537    13931.363 
   81600    391.98896   -8737.2929    57.253787   -8794.5467    1790.2974 
   81800    268.11455   -8753.5657    39.160729   -8792.7265   -29749.327 
   82000    320.25907   -8751.5105    46.776942   -8798.2875      18285.7 
   82200    323.00226   -8749.4044     47.17761    -8796.582    6215.7982 
   82400    259.46192   -8762.4625    37.896928   -8800.3595    12914.048 
   82600    323.82828   -8745.0656    47.298259   -8792.3638    24251.175 
   82800    339.34769   -8748.4553    49.565019   -8798.0204   -12195.248 
   83000    243.05543   -8767.4351    35.500601   -8802.9357   -1352.6005 
   83200    302.22869   -8759.2871    44.143429   -8803.4306   -11652.226 
   83400    316.46088   -8752.8107    46.222178   -8799.0329    6060.7369 
   83600    290.87297   -8748.9098    42.484817   -8791.3946   -16318.152 
   83800    315.09597   -8744.0067    46.022821   -8790.0295   -22530.331 
   84000    275.93701   -8759.1772    40.303274   -8799.4805    2209.5164 
   84200    352.48756   -8749.2275    51.484225   -8800.7117     21807.11 
   84400    298.05096   -8743.5243    43.533232   -8787.0575    34229.023 
   84600    319.37056   -8754.8971    46.647165   -8801.5443   -89.444175 
   84800    339.76071   -8744.2566    49.625345    -8793.882    775.42947 
   85000    339.70263   -8743.7372    49.616862   -8793.3541    22056.469 
   85200    247.73629    -8759.327    36.184286   -8795.5113    603.00065 
   85400    315.73626   -8750.9615    46.116341   -8797.0779   -996.77205 
   85600    239.05467    -8757.398    34.916251   -8792.3142   -41965.202 
   85800    255.10958   -8745.7379    37.261227   -8782.9991    7919.5024 
   86000    360.48293   -8745.0531    52.652026   -8797.7051    13075.366 
   86200    264.29217   -8759.4833    38.602434   -8798.0858     9008.628 
   86400    352.80727   -8748.4971    51.530921    -8800.028    -8313.938 
   86600    220.58951   -8763.9873    32.219236   -8796.2065   -36336.316 
   86800    300.06882   -8752.5894     43.82796   -8796.4173   -7463.8565 
   87000    321.20483   -8754.2244    46.915078   -8801.1395    8094.7449 
   87200    296.24593   -8753.6962     43.26959   -8796.9657    2070.2197 
   87400    308.31975   -8749.5384    45.033088   -8794.5714    2725.5394 
   87600    287.10235   -8759.7804    41.934081   -8801.7145    42147.121 
   87800    304.02289   -8753.7983    44.405489   -8798.2038   -5123.9042 
   88000    319.87114    -8745.048    46.720281   -8791.7683    42357.375 
   88200      406.396   -8739.6696    59.358075   -8799.0277    -41761.87 
   88400    273.48146   -8755.3679    39.944618   -8795.3125   -2859.5975 
   88600     323.2177   -8745.2774    47.209078   -8792.4865     30584.07 
   88800    282.76649   -8761.4036    41.300786   -8802.7044    3234.6754 
   89000    268.05596   -8750.2279    39.152171   -8789.3801    7640.6156 
   89200    310.32267   -8752.6392    45.325633   -8797.9648   -3185.4237 
   89400    265.40893   -8761.0109    38.765546   -8799.7764    1725.9239 
   89600    316.90202   -8745.0668    46.286612   -8791.3534    1920.2439 
   89800    260.96066   -8757.9326    38.115834   -8796.0485   -2876.9888 
   90000    342.22555   -8740.0128    49.985358   -8789.9982    21647.205 
   90200     342.6038   -8748.6271    50.040605   -8798.6677    10653.174 
   90400    357.68201   -8768.5481    52.242924    -8820.791    26698.581 
   90600    291.65349   -8778.9134    42.598819   -8821.5122   -12166.854 
   90800     268.7665   -8784.2899    39.255952   -8823.5459   -17170.423 
   91000    291.88471   -8765.1358    42.632592   -8807.7684   -19575.756 
   91200    280.62165   -8777.2284    40.987512   -8818.2159    15693.045 
   91400    306.87031   -8776.8836    44.821382    -8821.705   -36446.678 
   91600    366.28591    -8766.752    53.499607   -8820.2516   -26683.429 
   91800    262.16236   -8780.3932    38.291353   -8818.6846    721.60941 
   92000    250.59104   -8781.0397     36.60125    -8817.641   -14648.258 
   92200    318.91038   -8767.7902    46.579952   -8814.3702   -9991.3899 
   92400    289.04062   -8782.6708    42.217185    -8824.888   -17130.463 
   92600    285.93167   -8776.7212    41.763091   -8818.4843    1986.4532 
   92800    335.85865   -8769.9119    49.055411   -8818.9673   -27155.688 
   93000    294.03084   -8781.5979    42.946054    -8824.544    18453.818 
   93200    276.38938   -8765.8859    40.369348   -8806.2552    2556.9704 
   93400    348.36345   -8761.7419    50.881858   -8812.6237   -3659.4251 
   93600    263.48991   -8781.0019    38.485255   -8819.4872   -1035.3042 
   93800    240.88492    -8782.656    35.183578   -8817.8396   -530.53747 
   94000    330.04924   -8764.5108    48.206891   -8812.7176     -12130.9 
   94200    311.30881   -8772.1753    45.469669   -8817.6449     6847.153 
   94400    271.54789   -8783.0485    39.662202   -8822.7107   -8249.2463 
   94600    305.34975    -8774.851    44.599291   -8819.4503   -10284.867 
   94800    338.10061    -8770.988    49.382871   -8820.3709    33550.099 
   95000      273.705   -8785.7115    39.977268   -8825.6887    26761.336 
   95200    312.54435    -8771.124    45.650132   -8816.7741    43025.005 
   95400    296.12197   -8772.3004    43.251484   -8815.5518    11218.654 
   95600    304.14831   -8786.8184    44.423809   -8831.2422   -21286.476 
   95800     275.8085   -8784.9098    40.284505   -8825.1943   -393.70226 
   96000    272.34533   -8773.2885    39.778675   -8813.0672    12619.262 
   96200    316.20764   -8774.2535    46.185191   -8820.4386    8874.0242 
   96400    266.91353   -8785.8646    38.985308   -8824.8499   -621.27955 
   96600    242.56647   -8772.9035    35.429184   -8808.3327   -39911.536 
   96800    332.09133   -8765.3804    48.505158   -8813.8856   -20368.386 
   97000    340.60963   -8755.2805    49.749338   -8805.0298    2325.4661 
   97200    328.79763   -8770.9702     48.02408   -8818.9943   -21529.645 
   97400    273.32349   -8774.1945    39.921544    -8814.116   -19778.884 
   97600    326.27953   -8758.8148    47.656287   -8806.4711   -2105.5212 
   97800    288.60778   -8771.3135    42.153963   -8813.4675    33059.279 
   98000    271.40748    -8777.483    39.641693   -8817.1247    44155.046 
   98200    337.97394   -8761.1229     49.36437   -8810.4873     494.7261 
   98400     303.7358    -8776.857    44.363557   -8821.2205   -14508.959 
   98600    322.96603   -8774.9836    47.172318   -8822.1559    29551.988 
   98800    277.67858   -8776.0337    40.557649   -8816.5913   -41909.925 
   99000    299.82665    -8776.883    43.792588   -8820.6756   -8412.0361 
   99200    380.58045    -8762.679    55.587464   -8818.2665    32747.076 
   99400    331.15297   -8776.0014    48.368101   -8824.3695    9525.3097 
   99600    300.78764   -8776.8218     43.93295   -8820.7548     -5119.74 
   99800    317.35313   -8765.5618      46.3525   -8811.9143    25236.899 
  100000    328.19185   -8767.8036      47.9356   -8815.7392    7666.4387 
  100200    256.38979   -8777.8255    37.448214   -8815.2737    3163.6374 
  100400    293.02177   -8773.7223     42.79867    -8816.521    22043.097 
  100600    308.67698   -8761.8472    45.085265   -8806.9325   -4462.2004 
  100800    286.13808   -8775.7465    41.793239   -8817.5397    24166.299 
  101000    274.98581   -8775.9833    40.164343   -8816.1477    26117.115 
  101200    266.67638   -8769.2255    38.950671   -8808.1762   -54137.739 
  101400    320.28284   -8772.2924    46.780413   -8819.0728    4324.7694 
  101600     255.9267   -8786.0199    37.380575   -8823.4005   -6829.1611 
  101800    324.52564   -8768.7396    47.400115   -8816.1397    3270.6606 
  102000    248.80675   -8776.3577    36.340638   -8812.6983    5101.7509 
  102200    261.32862   -8786.7359    38.169577   -8824.9055    8475.2522 
  102400     315.2178   -8772.1833    46.040615   -8818.2239   -4919.8007 
  102600    312.82482   -8769.5309    45.691097    -8815.222   -1987.8787 
  102800    245.06842   -8785.0217    35.794618   -8820.8163   -2339.3644 
  103000    269.64422   -8776.2617    39.384151   -8815.6459    16800.157 
  103200    314.19492   -8769.8711    45.891213   -8815.7623   -3597.4193 
  103400    278.83643   -8779.8058    40.726763   -8820.5326   -4359.1345 
  103600    255.91258   -8778.7592    37.378513   -8816.1377   -5257.0894 
  103800    390.40158   -8792.9755    57.021934   -8849.9974    8959.9039 
  104000    277.25568     -8824.31    40.495879   -8864.8059   -15396.297 
  104200    256.64996   -8828.4114    37.486215   -8865.8977   -9074.3071 
  104400    286.47839   -8814.1763    41.842946   -8856.0193    45798.639 
  104600    322.41815   -8825.1258    47.092295   -8872.2181    17709.273 
  104800     308.8059    -8825.796    45.104095   -8870.9001   -31233.666 
  105000    327.86356   -8825.7883    47.887651    -8873.676    5539.8361 
  105200    289.64631   -8816.3244    42.305651     -8858.63    15631.345 
  105400    252.80592    -8831.505    36.924755   -8868.4297   -3570.6335 
  105600     308.8218   -8827.4214    45.106418   -8872.5278    29882.603 
  105800    391.97957   -8800.4415    57.252415   -8857.6939   -23838.416 
  106000    370.88736    -8818.559    54.171693   -8872.7307    6495.2375 
  106200    280.31463    -8831.325    40.942669   -8872.2677   -5606.5749 
  106400    269.37526   -8823.2815    39.344868   -8862.6264   -40199.095 
  106600    330.14645   -8819.1056    48.221088   -8867.3267   -40705.879 
  106800    260.38696   -8827.5649    38.032039   -8865.5969    -10246.69 
  107000    361.44476     -8809.11    52.792511   -8861.9025    4248.4351 
  107200    318.45065   -8810.7711    46.512805   -8857.2839    -32475.87 
  107400    332.30363   -8821.3492    48.536166   -8869.8853   -27251.383 
  107600    281.88475   -8830.3563       41.172   -8871.5283    5785.2772 
  107800     275.4103   -8821.6787    40.226344    -8861.905   -2223.9699 
  108000    296.41659   -8816.2819    43.294516   -8859.5764   -5237.3917 
  108200    238.21447   -8828.1388    34.793532   -8862.9323   -19831.053 
  108400    285.88368   -8816.3721    41.756082   -8858.1282    20713.897 
  108600    343.05316   -8812.9672    50.106239   -8863.0734      23555.8 
  108800    278.07297   -8825.9663    40.615252   -8866.5816    3644.1884 
  109000    334.90489   -8815.0222    48.916106   -8863.9383    66764.711 
  109200    356.66295   -8812.5597     52.09408   -8864.6538   -3412.9744 
  109400    317.96361   -8826.5541    46.441668   -8872.9958    1758.5921 
  109600    283.42922   -8818.5258    41.397584   -8859.9234     25092.57 
  109800    344.58438   -8804.1529    50.329889   -8854.4828   -23094.592 
  110000    342.00133    -8815.282    49.952609   -8865.2347    23814.239 
  110200    261.55886   -8825.1422    38.203206   -8863.3454    26516.859 
  110400    331.07517   -8811.7267    48.356737   -8860.0835    -24509.79 
  110600    277.23132   -8818.8309    40.492322   -8859.3232    11912.598 
  110800    312.23098   -8827.9271    45.604361   -8873.5314    32120.933 
  111000    317.45836   -8813.6183     46.36787   -8859.9862   -23045.662 
  111200    356.59369   -8814.7939    52.083965   -8866.8779   -6511.3708 
  111400    253.13914   -8829.4137    36.973424   -8866.3871    14415.724 
  111600    319.97613   -8826.7036    46.735615   -8873.4392    5895.0412 
  111800    378.96506   -8812.9011     55.35152   -8868.2526   -7254.5578 
  112000    272.15388   -8827.4028    39.750712   -8867.1535   -3238.9889 
  112200    269.56654    -8828.452    39.372806   -8867.8248    4563.6976 
  112400    338.04918   -8815.0941    49.375359   -8864.4695   -10040.072 
  112600    282.85154   -8822.7188    41.313208    -8864.032    6275.1657 
  112800    268.03508   -8833.3244    39.149122   -8872.4735   -3971.4112 
  113000    270.43699   -8832.0492    39.499943   -8871.5491   -30558.933 
  113200    302.38989   -8821.9446    44.166975   -8866.1116    15815.957 
  113400    341.11361   -8815.4433    49.822949   -8865.2663   -18678.035 
  113600    357.69635   -8818.0516    52.245019   -8870.2966   -12500.708 
  113800     310.5113   -8826.1235    45.353185   -8871.4767   -10639.901 
  114000     353.8575   -8811.5783    51.684318   -8863.2626   -7984.9692 
  114200     314.0069   -8822.3799    45.863751   -8868.2436    28308.934 
  114400     274.5527   -8833.6973    40.101082   -8873.7983    -27573.26 
  114600    254.75968   -8844.4156     37.21012   -8881.6257   -15254.529 
  114800    276.71772   -8826.1145    40.417305   -8866.5318     25135.57 
  115000     386.4228   -8816.7301    56.440795   -8873.1709    21544.526 
  115200    278.62956   -8834.1648    40.696547   -8874.8613    -10450.25 
  115400    271.95015   -8829.4388    39.720955   -8869.1598    33941.258 
  115600    340.30458   -8823.0782    49.704782    -8872.783     8294.594 
  115800    293.67596   -8825.6496    42.894221   -8868.5438   -20121.141 
  116000    299.53612   -8822.8774    43.750154   -8866.6275    23953.116 
  116200     358.2297   -8812.8334     52.32292   -8865.1563     14740.21 
  116400     275.4093   -8831.6056    40.226198   -8871.8318     5210.698 
  116600    318.88894   -8827.1428     46.57682   -8873.7196    13816.474 
  116800    338.16425   -8810.7026    49.392167   -8860.0948   -14324.908 
  117000    318.38642   -8810.6074    46.503423   -8857.1108    204.99039 
  117200     323.1589   -8823.0309    47.200489   -8870.2314    22442.803 
  117400    343.95171   -8807.9007    50.237481   -8858.1381   -625.76799 
  117600    315.00324   -8819.7568    46.009276   -8865.7661    36657.252 
  117800    286.49248    -8826.201    41.845003    -8868.046    -20449.02 
  118000    284.16662   -8828.7949    41.505289   -8870.3002    5129.2402 
  118200    363.86574   -8814.6381    53.146119   -8867.7842   -5136.8999 
  118400    298.91606   -8826.8819    43.659588   -8870.5414    3506.1304 
  118600    329.54776   -8820.9599    48.133645   -8869.0936   -22151.156 
  118800    318.20687   -8816.5894    46.477198   -8863.0666   -13673.858 
  119000    211.87556   -8833.5263     30.94648   -8864.4728    27755.204 
  119200    299.80875   -8825.5348    43.789974   -8869.3248    9429.9954 
  119400    338.30796    -8824.057    49.413157   -8873.4702    -16067.47 
  119600    330.34342   -8827.6619    48.249858   -8875.9118   -9494.3444 
  119800    247.21577   -8836.8641     36.10826   -8872.9724    16268.612 
  120000    297.02708   -8821.7601    43.383684   -8865.1438   -7172.9501 
  120200    298.33726   -8826.0399    43.575048    -8869.615     16395.14 
  120400    324.28584    -8823.342     47.36509   -8870.7071   -5768.7729 
  120600     321.6955    -8812.681    46.986745   -8859.6678     10373.72 
  120800    274.67359   -8827.4483    40.118739   -8867.5671    40030.306 
  121000    289.42423   -8825.0385    42.273214   -8867.3117     47356.84 
  121200    294.22446    -8820.814    42.974334   -8863.7883   -25116.931 
  121400    306.19896   -8824.6734    44.723325   -8869.3968   -36570.315 
  121600    282.64934    -8835.358    41.283675   -8876.6417   -23670.996 
  121800    288.00029   -8826.1176    42.065234   -8868.1828    50664.612 
  122000    333.54566   -8818.7955    48.717576   -8867.5131    22932.252 
  122200    280.43076   -8834.0863     40.95963    -8875.046   -11853.379 
  122400    267.45975   -8839.6406    39.065088   -8878.7056    22239.811 
  122600    276.89861   -8822.3971    40.443726   -8862.8408    9116.9312 
  122800    268.35707   -8827.2648    39.196151    -8866.461    -16313.71 
  123000    274.87719   -8832.7405    40.148478    -8872.889   -33651.021 
  123200    304.35924   -8826.0738    44.454617   -8870.5284   -20210.477 
  123400    309.19561   -8818.1324    45.161015   -8863.2934    9757.2311 
  123600    245.75414   -8837.1427    35.894774   -8873.0374   -25753.425 
  123800     295.6133   -8823.6638    43.177188    -8866.841     7974.908 
  124000    294.14239   -8812.7542    42.962347   -8855.7166    32255.033 
  124200    273.90786   -8829.4121    40.006898    -8869.419    14165.924 
  124400    270.62162    -8823.416    39.526911   -8862.9429    12416.521 
  124600    271.85775   -8820.5393     39.70746   -8860.2468    27462.739 
  124800    289.72745   -8832.8422    42.317502   -8875.1597    18607.395 
  125000    317.98745   -8825.0241    46.445149   -8871.4692   -19709.072 
  125200    332.99692   -8817.4686    48.637427    -8866.106    7920.0191 
  125400    304.98613   -8817.8501     44.54618   -8862.3963   -13449.548 
  125600    275.58818   -8829.4632    40.252325   -8869.7156    14633.069 
  125800    271.27857   -8815.2861    39.622865   -8854.9089    13555.387 
  126000    307.26039   -8821.3653    44.878358   -8866.2437   -26590.602 
  126200     315.8815   -8825.5592    46.137555   -8871.6968   -11141.576 
  126400    308.28043   -8805.4804    45.027345   -8850.5077   -1647.3781 
  126600    285.12651    -8822.335    41.645491   -8863.9804     12865.12 
  126800    281.13451   -8817.8974    41.062421   -8858.9598   -6208.4735 
  127000    333.51826   -8810.0348    48.713574   -8858.7484      3146.04 
  127200    345.53788   -8823.7903    50.469157   -8874.2595    19127.864 
  127400    357.33427   -8818.8645    52.192133   -8871.0566   -5686.8173 
  127600    239.82707   -8835.2938    35.029068   -8870.3228   -2191.9571 
  127800    299.14019    -8820.471    43.692324   -8864.1633    2134.2089 
  128000    232.11198   -8825.7618    33.902204    -8859.664   -33636.561 
  128200    333.30901   -8828.3836    48.683012   -8877.0666   -22014.398 
  128400    270.61597   -8832.3631    39.526086   -8871.8892    -8032.079 
  128600    309.28699   -8818.2586    45.174362    -8863.433   -24765.567 
  128800    246.84401   -8830.5614     36.05396   -8866.6153   -29890.206 
  129000    290.53257   -8831.8057    42.435098   -8874.2408   -19503.294 
  129200    309.47191   -8821.2301    45.201372   -8866.4315    38473.098 
  129400    295.93477   -8827.1765    43.224142   -8870.4006   -12874.369 
  129600    264.62575   -8840.4922    38.651155   -8879.1433   -10836.494 
  129800    289.22204   -8824.1657    42.243682   -8866.4094   -5685.4441 
  130000    327.61892    -8819.636    47.851919   -8867.4879   -10187.454 
  130200    308.11995   -8816.8414    45.003905   -8861.8453     14442.29 
  130400    277.82319   -8818.0048     40.57877   -8858.5836    7850.8746 
  130600    284.49116   -8830.1802    41.552692   -8871.7329    -5911.125 
  130800    241.93014   -8839.7468    35.336242   -8875.0831    12899.218 
  131000    342.92288   -8823.2587    50.087211   -8873.3459   -22370.321 
  131200    316.01476    -8824.226    46.157019    -8870.383    34595.135 
  131400    307.87549   -8826.1449    44.968199   -8871.1131   -28529.243 
  131600    297.05265    -8829.178    43.387418   -8872.5655   -9939.9383 
  131800    292.04088   -8814.2356      42.6554    -8856.891    -6779.027 
  132000    289.41049   -8829.2667    42.271207   -8871.5379    -19222.49 
  132200    280.38665   -8824.2384    40.953187   -8865.1916    -8002.786 
  132400    294.14705    -8823.203    42.963028   -8866.1661     34118.15 
  132600    282.57947   -8822.3809     41.27347   -8863.6544    3677.1486 
  132800    281.05408   -8821.6823    41.050673    -8862.733     -10688.3 
  133000    234.91223   -8831.7142    34.311207   -8866.0255    16164.019 
  133200    280.14914   -8822.9472    40.918497   -8863.8657    16077.227 
  133400    307.24171   -8811.6458     44.87563   -8856.5214    16770.467 
  133600    324.48975   -8798.3906    47.394873   -8845.7855   -6044.0006 
  133800    298.51644   -8818.1347     43.60122   -8861.7359   -6840.6853 
  134000     240.4247   -8825.8433    35.116358   -8860.9596    14765.904 
  134200    291.62702   -8827.9785    42.594953   -8870.5734   -4566.5496 
  134400    381.06009   -8813.0492     55.65752   -8868.7067   -3526.8834 
  134600    269.08916   -8832.0383    39.303079   -8871.3413   -22073.513 
  134800    297.06706   -8821.5557    43.389524   -8864.9452     8303.901 
  135000    288.39545   -8829.4149    42.122951   -8871.5379   -19973.079 
  135200    233.07824   -8832.1082    34.043336   -8866.1515   -37020.074 
  135400    316.56315   -8821.9585    46.237116   -8868.1957    1532.2802 
  135600    319.44233   -8823.6386    46.657649   -8870.2963   -25078.887 
  135800    283.14173   -8833.0763    41.355595   -8874.4319    16378.715 
  136000    286.35121   -8828.2197     41.82437    -8870.044    6727.9699 
  136200    319.64671   -8821.6495    46.687501    -8868.337   -22623.749 
  136400    264.92589   -8832.6526    38.694994   -8871.3476   -18978.712 
  136600    341.09931   -8827.7369    49.820861   -8877.5577   -10130.443 
  136800    297.53355   -8814.7888    43.457658   -8858.2464    40736.389 
  137000    272.29047   -8823.5597    39.770663   -8863.3304   -27427.298 
  137200    281.38233   -8829.5458    41.098616   -8870.6444   -8931.5997 
  137400    315.61254   -8816.5904    46.098271   -8862.6886   -28648.886 
  137600    299.65552    -8824.396    43.767593   -8868.1636   -3391.0191 
  137800    248.96522   -8842.7805    36.363783   -8879.1442    2475.9672 
  138000    287.40431   -8834.3135    41.978185   -8876.2917    -28483.03 
  138200    321.04425    -8819.331    46.891625   -8866.2226    9344.2276 
  138400    265.09174   -8826.9382    38.719218   -8865.6574    18062.943 
  138600    281.47812   -8834.8284    41.112607    -8875.941    8900.3459 
  138800    336.61666   -8815.2604    49.166126   -8864.4265    13659.301 
  139000    302.95949   -8828.6798     44.25017     -8872.93    22201.042 
  139200    272.71859    -8833.397    39.833193   -8873.2302    58770.947 
  139400    261.62842   -8826.5826    38.213367   -8864.7959   -160.65646 
  139600    335.60993   -8818.2765    49.019083   -8867.2955   -8091.1546 
  139800    244.89029   -8832.2453    35.768601   -8868.0139   -5840.0904 
  140000    290.59809   -8823.3495    42.444668   -8865.7942    30473.996 
  140200    367.10151   -8815.0564    53.618734   -8868.6752    31459.788 
  140400    303.14311   -8826.8209     44.27699   -8871.0979   -24077.996 
  140600    295.81924    -8817.814    43.207268   -8861.0213   -47963.599 
  140800     436.5323   -8791.8806    63.759773   -8855.6403    8278.5393 
  141000    307.63124   -8817.4746    44.932525   -8862.4071    6896.6846 
  141200    261.19641   -8835.2289    38.150267   -8873.3792   -7927.1457 
  141400    251.98763   -8820.8795    36.805236   -8857.6848   -23623.769 
  141600    296.58595   -8821.3891    43.319252   -8864.7083   -29151.341 
  141800    271.74268   -8825.2944    39.690653    -8864.985    32846.983 
  142000    369.45736   -8804.1736    53.962828   -8858.1364    8963.4912 
  142200    305.88479   -8824.4602    44.677439   -8869.1376    12152.485 
  142400    299.25019   -8828.5884    43.708391   -8872.2968     26767.27 
  142600    343.73367   -8817.7581    50.205634   -8867.9638    28597.344 
  142800    296.97861   -8821.6217    43.376605   -8864.9983   -18505.173 
  143000    293.95748   -8832.4991    42.935339   -8875.4344   -18611.478 
  143200    316.84495   -8815.9089    46.278275   -8862.1871    8958.0241 
  143400    284.72165   -8821.5451    41.586356   -8863.1314    13165.203 
  143600    242.32199   -8828.6239    35.393475   -8864.0174    7177.4412 
  143800    341.25453   -8811.1541    49.843532   -8860.9976   -10750.954 
  144000     309.2747   -8825.0278    45.172567   -8870.2003   -10522.596 
  144200    340.30881   -8826.2354      49.7054   -8875.9408   -1603.0587 
  144400    229.81113   -8839.2376    33.566143   -8872.8038    -12524.06 
  144600    317.61021   -8819.9752    46.390049   -8866.3653   -10924.276 
  144800    294.33436   -8824.4671    42.990386   -8867.4575    24081.146 
  145000    251.18168   -8838.7254    36.687518   -8875.4129   -18364.999 
  145200    275.13145   -8822.6766    40.185615   -8862.8622   -49489.036 
  145400    303.49268   -8826.1279    44.328048    -8870.456    -17738.56 
  145600    287.43314   -8829.3228    41.982396   -8871.3052   -20402.225 
  145800    341.51722    -8816.881      49.8819   -8866.7629   -15138.543 
  146000    285.60126   -8828.9846    41.714833   -8870.6995   -23497.269 
  146200    320.49622   -8822.4263     46.81158   -8869.2379    782.81953 
  146400    273.49262   -8836.2245    39.946248   -8876.1707    26996.414 
  146600    254.22415   -8827.9069    37.131901   -8865.0388   -11997.189 
  146800    310.54847   -8821.5698    45.358614   -8866.9285   -7022.1561 
  147000    276.15104   -8828.1798    40.334536   -8868.5144    18543.767 
  147200    275.59161   -8828.2074    40.252825   -8868.4602   -23996.742 
  147400    324.15289   -8818.4056    47.345671   -8865.7512   -8098.5773 
  147600    289.23081   -8830.2043    42.244963   -8872.4493   -11580.769 
  147800     284.8405   -8834.5513    41.603716   -8876.1551   -12021.751 
  148000    314.92755   -8816.5699    45.998221   -8862.5681   -28125.155 
  148200    309.39006    -8821.867    45.189417   -8867.0564   -44260.078 
  148400    267.39168   -8833.2095    39.055147   -8872.2647   -19915.995 
  148600    296.27479   -8818.7303    43.273805   -8862.0041    7795.9258 
  148800    302.27912   -8822.9511    44.150795   -8867.1019    29411.134 
  149000    254.91744   -8832.1593    37.233164   -8869.3924   -11544.487 
  149200    302.61438   -8818.3015    44.199764   -8862.5013    22481.599 
  149400    281.59014   -8817.1921    41.128969   -8858.3211    40721.787 
  149600     242.0497   -8836.9007    35.353705   -8872.2544   -1823.8796 
  149800    273.87308   -8823.4774    40.001818   -8863.4792    6474.5517 
  150000    284.43226   -8819.2569    41.544088    -8860.801   -8168.2931 
  150200    279.03913   -8832.0586    40.756369    -8872.815   -15326.008 
  150400    296.20061   -8829.1005     43.26297   -8872.3635    -16018.26 
  150600    294.80364   -8815.6326    43.058929   -8858.6916    31830.491 
  150800    376.43713   -8819.5646    54.982292   -8874.5469    4068.0467 
  151000    300.58856    -8831.219    43.903873   -8875.1228    26934.927 
  151200    364.86708   -8814.6771    53.292373   -8867.9694   -2289.6598 
  151400    304.91198   -8823.7227    44.535349   -8868.2581    -26687.09 
  151600    296.02645   -8825.9216    43.237532   -8869.1591   -38269.296 
  151800    346.63531   -8811.7659    50.629447   -8862.3954    20536.033 
  152000    309.77223   -8827.4752    45.245237   -8872.7204    1327.6623 
  152200    269.68163    -8832.343    39.389616   -8871.7326    4274.8646 
  152400    313.87224   -8815.4257    45.844083   -8861.2698    22742.526 
  152600    253.14092   -8826.5694    36.973685   -8863.5431   -4158.3095 
  152800    312.75181   -8824.3675    45.680433   -8870.0479    18945.927 
  153000    292.92737   -8817.9106    42.784882   -8860.6955   -18890.083 
  153200    321.25216   -8829.5958    46.921991   -8876.5178   -13034.736 
  153400     324.8416    -8813.057    47.446265   -8860.5032    12588.567 
  153600    307.58143   -8820.0916    44.925249   -8865.0169    13415.124 
  153800    289.37529   -8827.0314    42.266066   -8869.2974    42053.387 
  154000    326.24377   -8818.4592    47.651065   -8866.1103    18094.064 
  154200    280.62435   -8829.7719    40.987907   -8870.7598    7941.8848 
  154400    356.15239    -8816.631    52.019509   -8868.6505   -14987.936 
  154600    308.09042   -8812.4528    44.999592   -8857.4524    11472.891 
  154800    286.07026   -8828.8335    41.783334   -8870.6168    3646.4857 
  155000     314.5667   -8817.8575    45.945515    -8863.803    23803.816 
  155200     342.6412    -8814.551    50.046068   -8864.5971     -1372.37 
  155400     308.8984   -8830.0991    45.117605   -8875.2167   -6631.3474 
  155600    306.81175   -8826.6244    44.812829   -8871.4373   -7354.8764 
  155800    289.51431   -8808.4164    42.286372   -8850.7028   -5530.1481 
  156000    344.73804    -8822.795    50.352332   -8873.1473    24103.043 
  156200    289.30745    -8826.009    42.256158   -8868.2652    3573.7529 
  156400    295.96258   -8811.6468    43.228203    -8854.875   -4948.2334 
  156600    305.12491   -8824.6768    44.566451   -8869.2432    3541.8976 
  156800     263.9255   -8830.3329    38.548878   -8868.8817   -32359.269 
  157000     353.2426   -8817.1415    51.594505    -8868.736    30463.432 
  157200    246.76598   -8827.8849    36.042563   -8863.9275   -10478.611 
  157400    290.49565   -8826.3645    42.429705   -8868.7942   -7670.1983 
  157600    267.65272   -8822.4747    39.093274   -8861.5679    21973.868 
  157800    284.29551    -8813.871    41.524115   -8855.3951    5826.5056 
  158000     309.3572   -8829.0144    45.184618    -8874.199   -12428.795 
  158200    309.79141   -8819.9666    45.248039   -8865.2146   -4149.9237 
  158400    275.37223   -8814.0721    40.220783   -8854.2929    1124.3901 
  158600    249.80151   -8828.4024    36.485932   -8864.8884   -6368.2791 
  158800    289.06364   -8826.3315    42.220547    -8868.552   -21001.409 
  159000    272.16078   -8821.8381     39.75172   -8861.5898   -7145.2344 
  159200    270.92597   -8824.6861    39.571364   -8864.2575    4466.3676 
  159400    256.33357    -8838.956    37.440003    -8876.396    11256.689 
  159600    335.03012   -8823.5228    48.934396   -8872.4571    27083.597 
  159800    307.90848   -8819.8841    44.973018   -8864.8571   -12952.743 
  160000    266.88041   -8832.6304     38.98047   -8871.6109   -14122.143 
  160200    242.59733   -8848.6946    35.433691   -8884.1282     21076.82 
  160400    275.89408   -8832.6238    40.297004   -8872.9208    10127.248 
  160600    344.46607   -8817.7933    50.312608   -8868.1059   -14881.046 
  160800    284.11934   -8830.9363    41.498383   -8872.4347    -10184.96 
  161000    270.24681   -8820.7687    39.472166   -8860.2409   -20003.567 
  161200    304.01048   -8815.5636    44.403677   -8859.9673   -17283.648 
  161400    283.67666    -8828.938    41.433725   -8870.3718   -27406.722 
  161600    285.07102   -8816.7959    41.637385   -8858.4333   -17330.236 
  161800    385.73345   -8805.0404    56.340109   -8861.3805   -31569.131 
  162000    313.50321   -8823.4003    45.790183   -8869.1905   -320.77771 
  162200    252.80016   -8825.5199    36.923913   -8862.4439    168.13779 
  162400     334.4242   -8810.6758    48.845895   -8859.5217   -2242.7473 
  162600    335.87632   -8825.5551    49.057992   -8874.6131     18918.44 
  162800    293.80692   -8833.2582    42.913349   -8876.1715   -30301.916 
  163000    327.75259    -8818.587    47.871442   -8866.4585    -34000.84 
  163200    287.88247   -8822.3753    42.048025   -8864.4233   -34127.345 
  163400    309.79682   -8824.0264    45.248828   -8869.2753   -12120.063 
  163600    246.04998   -8830.8527    35.937984   -8866.7907     16777.25 
  163800    355.04274   -8818.3287    51.857434   -8870.1861    24048.561 
  164000    288.06464   -8824.5019    42.074633   -8866.5766    31938.963 
  164200    263.28503   -8828.3507    38.455331   -8866.8061    14697.384 
  164400    334.05227   -8819.2091    48.791571   -8868.0007   -5207.3667 
  164600    266.50162    -8822.807    38.925144   -8861.7321   -57128.183 
  164800    284.10455   -8830.8973    41.496223   -8872.3936    7725.3549 
  165000    339.13951   -8815.0895    49.534612   -8864.6241    44531.073 
  165200    323.95591   -8820.8372      47.3169   -8868.1541    12987.619 
  165400    311.78504   -8825.8076    45.539227   -8871.3468   -3361.8117 
  165600     305.8448   -8823.6301    44.671597   -8868.3017   -13762.137 
  165800    341.90986   -8815.8207    49.939248   -8865.7599   -15553.928 
  166000    329.86646   -8814.0604    48.180194   -8862.2406   -4552.7103 
  166200    320.77406   -8826.9476     46.85216   -8873.7998   -5702.3549 
  166400    255.04104   -8833.4321    37.251216   -8870.6834    27975.442 
  166600     326.1635   -8817.4927     47.63934    -8865.132    11131.385 
  166800    274.91951     -8830.84    40.154659   -8870.9946    4176.6339 
  167000    245.41871   -8835.3716    35.845782   -8871.2174    31227.418 
  167200    312.81427   -8817.1688    45.689556   -8862.8584   -41086.978 
  167400    303.35636    -8825.622    44.308136   -8869.9301    13206.026 
  167600    262.88153   -8837.6009    38.396395   -8875.9973   -11423.835 
  167800     308.2063   -8827.8428    45.016517   -8872.8594   -18937.091 
  168000    296.59286   -8820.0134    43.320263   -8863.3336   -17616.468 
  168200    344.00374   -8806.8431     50.24508   -8857.0882   -21292.746 
  168400    272.78789   -8827.3814    39.843315   -8867.2247   -15441.513 
  168600    343.49207   -8819.3426    50.170346   -8869.5129    10536.069 
  168800    318.51314   -8821.5722    46.521931   -8868.0942   -13049.748 
  169000    259.93929   -8832.3352    37.966653   -8870.3019    18702.948 
  169200    305.47687   -8817.4946    44.617858   -8862.1124   -15551.917 
  169400     348.6465   -8822.2788    50.923201    -8873.202   -8533.8044 
  169600    264.04128   -8840.8031    38.565788   -8879.3689   -12977.751 
  169800     323.4136   -8831.4783    47.237691    -8878.716    11780.853 
  170000    312.64974   -8822.4757    45.665525   -8868.1413   -31620.568 
  170200    283.08282   -8827.3819    41.346989   -8868.7289   -15008.537 
  170400    284.51773   -8830.9774    41.556573    -8872.534   -6431.9504 
  170600    335.96523   -8813.4264    49.070978   -8862.4974   -97.646701 
  170800    306.80557   -8826.9653    44.811928   -8871.7773     -6947.07 
  171000      294.655   -8826.0451    43.037218   -8869.0823    15617.732 
  171200    367.64441   -8812.4501    53.698029   -8866.1481   -4899.6806 
  171400    314.06085   -8809.9813    45.871631   -8855.8529   -40697.043 
  171600    306.14322   -8822.2816    44.715184   -8866.9967    6908.9136 
  171800    270.48746   -8832.0953    39.507315   -8871.6026    68573.296 
  172000    299.12065   -8831.1837     43.68947   -8874.8732   -301.93525 
  172200    270.02001   -8821.6898     39.43904   -8861.1289   -2042.5527 
  172400    254.41427   -8829.0476     37.15967   -8866.2072    4274.0108 
  172600    268.37765   -8834.4571    39.199157   -8873.6563    10946.975 
  172800    269.80233   -8815.1794    39.407246   -8854.5866   -9031.6465 
  173000    294.09744   -8823.3186    42.955781   -8866.2743    30292.321 
  173200    262.18559   -8830.0222    38.294747   -8868.3169   -1117.0796 
  173400    336.50926   -8816.6904    49.150439   -8865.8409   -20058.444 
  173600    307.97435   -8824.2872    44.982638   -8869.2698    -7109.371 
  173800    308.41756   -8821.4072    45.047373   -8866.4546   -1371.4796 
  174000    381.06712   -8806.4861    55.658546   -8862.1447    16472.023 
  174200    320.75676    -8822.844    46.849633   -8869.6937      17264.8 
  174400    287.45293   -8827.5631    41.985286   -8869.5484    15162.958 
  174600    383.23376   -8809.7921    55.975005   -8865.7671   -12525.425 
  174800    312.70812    -8815.051    45.674052    -8860.725    16322.074 
  175000    306.34719   -8825.5354    44.744976   -8870.2803    2818.9749 
  175200    229.87744   -8825.1334    33.575828   -8858.7092   -23340.838 
  175400    367.36956   -8813.6609    53.657885   -8867.3188    17669.043 
  175600    307.87648   -8819.7082    44.968344   -8864.6766    6130.8292 
  175800    282.10571    -8830.559    41.204274   -8871.7632   -4255.5278 
  176000    280.37715   -8818.2694    40.951801   -8859.2212   -20036.525 
  176200    333.56627   -8820.5925    48.720587    -8869.313   -24064.633 
  176400     236.6652   -8824.6719    34.567246   -8859.2392    -1642.709 
  176600    305.15164   -8824.0393    44.570355   -8868.6096    4073.0108 
  176800    329.09134   -8819.0323    48.066981   -8867.0993    7858.9559 
  177000    281.46916   -8828.5453    41.111298   -8869.6566   -19618.031 
  177200    300.57556   -8829.4994    43.901973   -8873.4014   -25372.425 
  177400    305.66854     -8816.72    44.645853   -8861.3659   -1964.0442 
  177600    275.63113    -8820.796    40.258598   -8861.0546   -9335.8055 
  177800    315.22945   -8828.7371    46.042317   -8874.7795    32041.495 
  178000    262.12993    -8839.975    38.286617   -8878.2616   -2840.7125 
[...]
  950000    249.85052   -8835.7955     36.49309   -8872.2886    25730.819 
  950200    284.04708   -8828.4942    41.487829   -8869.9821     28341.44 
  950400    370.71332    -8802.728    54.146273   -8856.8743   -23921.475 
  950600    355.86398   -8816.8614    51.977383   -8868.8388   -1469.4191 
  950800    289.22249   -8831.2172    42.243748    -8873.461    753.81632 
  951000    268.78545   -8833.6749     39.25872   -8872.9336    21038.512 
  951200    339.17085   -8816.8214     49.53919   -8866.3606    42378.639 
  951400      312.154   -8829.6268    45.593117   -8875.2199     -19923.3 
  951600    322.76141   -8832.1783    47.142433   -8879.3207   -2957.0754 
  951800    335.81224   -8823.5241    49.048632   -8872.5727    39787.097 
  952000    305.04276   -8814.9562    44.554452   -8859.5107   -17059.722 
  952200    325.73858   -8832.8115    47.577277   -8880.3888    7080.3201 
  952400    252.94593    -8834.179    36.945205   -8871.1242   -28938.227 
  952600     335.5879   -8815.6804    49.015865   -8864.6962    7475.6588 
  952800    295.78772   -8831.6377    43.202663   -8874.8404   -1212.2094 
  953000    289.76069   -8832.7529    42.322358   -8875.0753   -18007.325 
  953200    291.90843   -8825.0752    42.636056   -8867.7112    14729.554 
  953400    296.10973   -8813.9862    43.249696   -8857.2359    21836.564 
  953600     321.0667   -8829.3318    46.894904   -8876.2267   -8608.0992 
  953800    271.04687   -8834.3787    39.589023   -8873.9677    12331.118 
  954000    334.92773   -8817.7676    48.919442   -8866.6871   -14236.833 
  954200    316.06654   -8823.1967    46.164581   -8869.3613    2385.1005 
  954400    286.35643   -8831.1173    41.825132   -8872.9424   -20142.749 
  954600    301.45244   -8824.2758     44.03005   -8868.3059   -2692.0195 
  954800    312.14767    -8822.515    45.592192   -8868.1072   -19801.507 
  955000    315.49077   -8835.8997    46.080485   -8881.9802    3226.9908 
  955200    238.87986    -8849.017    34.890719   -8883.9077   -14603.484 
  955400    291.65788   -8834.6845     42.59946    -8877.284    6162.4723 
  955600    288.72754   -8825.0532    42.171455   -8867.2246   -30053.082 
  955800    357.63992   -8819.7751    52.236777   -8872.0119   -20839.845 
  956000    231.05873   -8836.2649    33.748367   -8870.0133     7689.548 
  956200     349.2216   -8825.1005      51.0072   -8876.1077   -5639.5215 
  956400    257.46846   -8833.4973    37.605764    -8871.103    12615.316 
  956600    288.69955    -8827.653    42.167367   -8869.8203   -15117.305 
  956800    323.63676   -8822.9103    47.270286   -8870.1806   -8633.7558 
  957000    248.52696   -8836.8863    36.299771    -8873.186    44174.007 
  957200    311.62547   -8825.1513     45.51592   -8870.6673   -9552.9566 
  957400    297.69388   -8825.2795    43.481076   -8868.7606   -10927.104 
  957600    261.33891   -8830.3063     38.17108   -8868.4774    6773.5896 
  957800    303.42261   -8833.6199    44.317813   -8877.9378    2579.0584 
  958000    306.08414   -8824.3638    44.706555   -8869.0703    13665.454 
  958200    282.08183   -8825.4081    41.200786   -8866.6089   -2656.4315 
  958400       240.29   -8834.4949    35.096684   -8869.5916    6530.4583 
  958600    293.94515   -8829.6507    42.933538   -8872.5842   -4823.5885 
  958800    277.76773   -8834.8761     40.57067   -8875.4468    18538.418 
  959000    337.97942   -8828.5279     49.36517    -8877.893    14596.043 
  959200    369.57912   -8815.6943    53.980613   -8869.6749    16496.141 
  959400    271.25299   -8835.5682    39.619128   -8875.1873    31290.633 
  959600    306.69343   -8824.5687    44.795548   -8869.3642    27701.204 
  959800    338.26612   -8824.6889    49.407045    -8874.096   -4733.1712 
  960000    278.74388   -8838.3294    40.713246   -8879.0426   -19671.268 
  960200    351.72989     -8824.42     51.37356   -8875.7936    20674.589 
  960400    306.26358   -8829.0499    44.732765   -8873.7827    4652.1701 
  960600     288.0531   -8842.3868    42.072947   -8884.4598   -7382.6679 
  960800    307.45182   -8827.2195    44.906318   -8872.1258   -12048.272 
  961000    287.24594   -8823.1504    41.955053   -8865.1055   -6595.2616 
  961200     286.6866   -8838.7731    41.873357   -8880.6464   -25842.478 
  961400     270.5439   -8834.5384    39.515559    -8874.054    13158.713 
  961600    290.59505   -8825.2148    42.444223    -8867.659   -2950.9332 
  961800    282.11032    -8831.077    41.204946   -8872.2819    9715.1199 
  962000    312.98606   -8837.7838    45.714647   -8883.4985    26108.686 
  962200    303.44933   -8829.3162    44.321716   -8873.6379    26717.907 
  962400     302.9861   -8826.9687    44.254056   -8871.2227    8306.7114 
  962600    322.10849   -8812.2359    47.047067    -8859.283   -25392.436 
  962800    294.75716   -8829.2786     43.05214   -8872.3307     -46849.7 
  963000    321.98002    -8831.908    47.028303   -8878.9363    7290.7994 
  963200       305.54   -8818.0268    44.627079   -8862.6539    31727.558 
  963400    238.96789   -8828.2561    34.903577   -8863.1597    5889.7384 
  963600    268.76882   -8833.0614    39.256292   -8872.3177   -21261.059 
  963800    335.07524   -8822.2076    48.940986   -8871.1486    37422.348 
  964000    341.37715   -8816.5877    49.861442   -8866.4491     9.555349 
  964200    240.04403   -8833.2759    35.060758   -8868.3366   -429.71208 
  964400    354.02273   -8822.8832    51.708451   -8874.5917   -3212.5252 
  964600    307.45525   -8825.1563    44.906819   -8870.0631   -14925.689 
  964800    280.39481   -8834.6552     40.95438   -8875.6095    21063.724 
  965000    313.18232   -8819.7508    45.743313   -8865.4941   -24977.274 
  965200    359.48691    -8823.452    52.506548   -8875.9585    2657.2065 
  965400    316.33546   -8830.0154    46.203861   -8876.2193   -31284.694 
  965600    330.22138   -8822.8378    48.232034   -8871.0698   -6998.1923 
  965800     302.2383    -8815.027    44.144834   -8859.1718    11704.098 
  966000    284.88195   -8826.1719    41.609769   -8867.7817    5724.0368 
  966200    287.04993   -8835.8985    41.926424    -8877.825   -44822.141 
  966400    321.45363    -8823.008    46.951419   -8869.9594   -17125.455 
  966600    280.17382   -8825.7357    40.922101   -8866.6578   -29298.242 
  966800    265.27529   -8837.8274    38.746028   -8876.5734    -8016.318 
  967000     187.3487   -8847.8832    27.364093   -8875.2473    43041.696 
  967200    304.00987   -8829.6269    44.403588   -8874.0305    12864.843 
  967400    265.25325   -8827.0618    38.742808   -8865.8046    28516.757 
  967600    246.55735   -8838.3923     36.01209   -8874.4044    19489.462 
  967800    267.52963   -8839.3094    39.075296   -8878.3847   -3857.7704 
  968000    313.47566   -8822.7225    45.786159   -8868.5087   -1930.9193 
  968200    255.90536   -8832.3292    37.377459   -8869.7067    30220.563 
  968400    274.65532    -8836.077    40.116071   -8876.1931    170.89653 
  968600    270.67864   -8828.4483    39.535239   -8867.9835   -19588.467 
  968800    337.47001   -8813.0297    49.290765   -8862.3205   -29100.781 
  969000    337.59874   -8821.0464    49.309568    -8870.356    44579.334 
  969200    308.82297   -8829.9374    45.106588    -8875.044   -2897.8436 
  969400    292.66494   -8828.5185     42.74655    -8871.265   -11459.794 
  969600    338.38744   -8813.9516    49.424765   -8863.3763   -1047.1355 
  969800    304.65959   -8831.8623    44.498486   -8876.3608   -14042.637 
  970000    341.37647    -8826.674    49.861342   -8876.5354   -6674.6516 
  970200    304.22946    -8824.142    44.435661   -8868.5777   -13579.783 
  970400    268.40632   -8826.2675    39.203345   -8865.4708    -19833.86 
  970600    253.27102   -8836.1664    36.992687    -8873.159    16297.399 
  970800    357.50727   -8817.9545    52.217403   -8870.1719    15653.331 
  971000    257.60454   -8829.7031     37.62564   -8867.3287   -13618.327 
  971200    286.00576    -8828.226    41.773914   -8869.9999   -2053.3768 
  971400    261.76971   -8838.1711    38.234003   -8876.4051     8107.516 
  971600    293.35586   -8821.3634    42.847466   -8864.2108   -19786.394 
  971800    280.76749   -8830.5825    41.008814   -8871.5913    4762.1818 
  972000    318.19351   -8814.0414    46.475246   -8860.5167    7545.4755 
  972200    309.83416   -8819.7883    45.254282   -8865.0425   -7260.1963 
  972400    284.30069   -8829.6018    41.524871   -8871.1267   -23939.743 
  972600    341.31921   -8828.0082    49.852979   -8877.8611   -7593.4823 
  972800    329.94772   -8813.4126    48.192063   -8861.6046   -21715.132 
  973000    291.91421   -8830.2628    42.636899   -8872.8997    56188.294 
  973200    344.89622   -8823.0525    50.375435   -8873.4279   -29391.818 
  973400    349.06622   -8819.8731    50.984504   -8870.8576    16007.586 
  973600    244.25823   -8836.1715    35.676282   -8871.8478   -11524.367 
  973800    349.93804   -8822.5664    51.111842   -8873.6782   -29894.602 
  974000    284.36472   -8827.4127    41.534223   -8868.9469    18597.338 
  974200    288.13939   -8838.1964     42.08555    -8880.282    4701.7215 
  974400    291.21027   -8823.3012    42.534083   -8865.8353    6036.0074 
  974600    324.90259    -8826.073    47.455172   -8873.5282     9225.795 
  974800    232.87066   -8844.0396    34.013017   -8878.0526    30169.034 
  975000    307.05864   -8828.7845    44.848891   -8873.6334   -6617.4178 
  975200    273.48216   -8828.0246     39.94472   -8867.9693   -15025.406 
  975400    316.62993   -8813.7092     46.24687   -8859.9561     29337.54 
  975600    258.66117    -8830.837    37.779971   -8868.6169   -4287.0276 
  975800    346.02081   -8826.1042    50.539693   -8876.6439    25420.082 
  976000    269.87297   -8840.0667    39.417563   -8879.4843    26930.937 
  976200    364.06552   -8823.6848    53.175297   -8876.8601    28588.815 
  976400    281.99805   -8827.6138    41.188549   -8868.8024    13118.738 
  976600     343.7994   -8827.1505    50.215234   -8877.3657   -13146.348 
  976800     269.1722   -8830.4607    39.315209   -8869.7759    38161.134 
  977000    310.32107   -8819.0105      45.3254   -8864.3359   -21369.545 
  977200    265.68076   -8832.9636     38.80525   -8871.7688   -38261.225 
  977400    343.61253   -8832.5998    50.187941   -8882.7878    8165.0606 
  977600     318.6388   -8815.2862    46.540285   -8861.8264    2574.2615 
  977800    260.98421   -8829.5929    38.119274   -8867.7122   -20466.919 
  978000    349.14903   -8831.4799      50.9966   -8882.4765    30389.754 
  978200    270.72609    -8828.407     39.54217   -8867.9492     1803.221 
  978400    352.68666   -8816.1607    51.513305    -8867.674   -13671.011 
  978600    310.10733   -8833.7391    45.294182   -8879.0333   -23003.978 
  978800     341.6367   -8827.0365    49.899351   -8876.9359    16322.204 
  979000    333.74971   -8820.1774     48.74738   -8868.9248   -16992.445 
  979200    310.65614   -8830.6435    45.374341   -8876.0178    23255.913 
  979400    350.45585   -8819.0658    51.187473   -8870.2533   -6724.6379 
  979600    326.03974   -8811.4432    47.621264   -8859.0644   -17695.684 
  979800    257.68857   -8828.3914    37.637914   -8866.0293    15122.717 
  980000    264.85391   -8834.8797    38.684481   -8873.5642   -18283.643 
  980200    299.85432   -8818.3617     43.79663   -8862.1583    14044.667 
  980400    262.48224   -8828.1349    38.338075   -8866.4729   -26898.817 
  980600    253.53254   -8833.7934    37.030885   -8870.8243   -11791.233 
  980800    309.35044   -8824.3429     45.18363   -8869.5265    782.13801 
  981000    327.62331   -8810.1806     47.85256   -8858.0332    -12415.58 
  981200    274.22524   -8829.5236    40.053255   -8869.5769   -5013.1388 
  981400    323.77096   -8827.9947    47.289886   -8875.2845    30870.132 
  981600    324.23253   -8812.7353    47.357304   -8860.0926    17557.452 
  981800    323.62689   -8826.3918    47.268844   -8873.6606   -22333.505 
  982000    320.26574   -8835.1656    46.777915   -8881.9435   -21630.691 
  982200    322.96416   -8820.5756    47.172047   -8867.7476    12203.158 
  982400    326.39344   -8821.3314    47.672926   -8869.0044   -13596.645 
  982600    286.28094   -8832.7681    41.814105   -8874.5822    368.52312 
  982800    300.51175    -8822.951    43.892654   -8866.8436    -12851.24 
  983000    283.58894   -8837.0471    41.420914    -8878.468   -37107.232 
  983200    344.46724   -8825.2429    50.312779   -8875.5557   -8556.7234 
  983400     256.2288   -8825.5429      37.4247   -8862.9676    19922.054 
  983600    314.29634    -8821.463    45.906026    -8867.369   -10842.989 
  983800    271.89557    -8838.981    39.712983   -8878.6939    8100.3486 
  984000    315.29839   -8833.6417    46.052386   -8879.6941    11860.882 
  984200    301.03003    -8823.798    43.968354   -8867.7664   -10268.942 
  984400    337.03018   -8804.5457    49.226524   -8853.7722    39.025578 
  984600    302.83879   -8827.4897    44.232541   -8871.7222    24415.777 
  984800    292.94235   -8832.4817    42.787069   -8875.2688   -213.97962 
  985000    336.89289   -8816.7106    49.206472   -8865.9171    -18540.96 
  985200    279.33642   -8833.1092    40.799792    -8873.909     3336.497 
  985400    259.70122   -8830.4784     37.93188   -8868.4103    27623.819 
  985600    355.19601    -8820.929     51.87982   -8872.8088   -9372.8892 
  985800    283.83041   -8825.7735    41.456183   -8867.2296   -24036.606 
  986000    228.11075   -8834.5218    33.317786   -8867.8396   -3923.0798 
  986200    341.50422   -8819.5193    49.880001   -8869.3993   -505.75201 
  986400     245.9557   -8840.1917    35.924214   -8876.1159    3976.9554 
  986600    321.15239   -8827.7236     46.90742    -8874.631   -20432.738 
  986800    327.26472   -8824.4839    47.800185   -8872.2841   -6858.6578 
  987000    283.75751    -8836.298    41.445535   -8877.7435    28945.184 
  987200     295.2693   -8835.6396    43.126942   -8878.7666    25501.619 
  987400     306.9711    -8819.733    44.836104   -8864.5691    13901.933 
  987600     292.0533   -8830.7576    42.657215   -8873.4149   -1842.6576 
  987800    250.87088   -8838.9357    36.642124   -8875.5778   -17019.702 
  988000    329.56037   -8821.9899    48.135486   -8870.1253    1699.2692 
  988200    308.95226   -8827.2176    45.125472    -8872.343   -13483.672 
  988400    250.34989   -8842.9006    36.566028   -8879.4667    123.66397 
  988600    273.47335   -8834.7863    39.943433   -8874.7297    2838.5615 
  988800     333.7152   -8823.2433    48.742339   -8871.9857    4197.7739 
  989000    268.56486   -8834.7005    39.226501    -8873.927    15469.011 
  989200    287.60534   -8836.8011    42.007548   -8878.8086   -18208.841 
  989400    313.39933   -8819.5495     45.77501   -8865.3245   -9734.0885 
  989600     294.5825   -8829.0909     43.02663   -8872.1176   -7247.1847 
  989800    275.72309   -8838.0735     40.27203   -8878.3455    25804.495 
  990000    290.95848   -8826.1004    42.497306   -8868.5977   -19493.984 
  990200    291.08525   -8826.8516    42.515822   -8869.3674   -18778.284 
  990400    273.77915   -8839.4262    39.988098   -8879.4143   -1444.2674 
  990600    226.27657   -8847.3446    33.049886   -8880.3945     18517.61 
  990800    301.71397   -8828.3036     44.06825   -8872.3718    19758.108 
  991000    313.16225   -8820.3178    45.740382   -8866.0582    43171.913 
  991200    276.64225   -8835.0909    40.406282   -8875.4972   -574.40603 
  991400    251.33648   -8828.5401    36.710129   -8865.2502    34080.158 
  991600    410.35798   -8809.4992     59.93676    -8869.436   -26583.742 
  991800    267.85998   -8829.7813    39.123546   -8868.9049   -16125.452 
  992000    283.57724   -8826.1683    41.419205   -8867.5875    28159.137 
  992200    284.49106   -8829.3402    41.552676   -8870.8929   -35337.608 
  992400    295.10599   -8830.7972     43.10309   -8873.9003   -19941.231 
  992600    276.11759   -8836.4516     40.32965   -8876.7812    6945.3008 
  992800    330.32269   -8824.3787     48.24683   -8872.6255    3482.2884 
  993000    286.18877   -8828.4132    41.800644   -8870.2138    6238.6279 
  993200    263.15065   -8838.2139    38.435703   -8876.6496    14085.173 
  993400     304.3646   -8825.8904      44.4554   -8870.3458    1326.4602 
  993600    339.38748   -8825.1359     49.57083   -8874.7067    245.52669 
  993800    317.09436   -8829.6485    46.314705   -8875.9632   -38595.593 
  994000    240.34014   -8840.4522    35.104006   -8875.5562   -19846.463 
  994200    311.47642   -8825.2162     45.49415   -8870.7103   -3481.3567 
  994400    290.11128   -8829.5615    42.373564   -8871.9351    33676.336 
  994600    294.87241   -8843.8714    43.068974   -8886.9404   -16331.078 
  994800    280.34967   -8827.9866    40.947786   -8868.9344    2264.6582 
  995000    305.16619   -8827.3005     44.57248    -8871.873    18273.592 
  995200    310.08523   -8834.6823    45.290954   -8879.9733    2354.8799 
  995400    355.35071   -8820.8499    51.902415   -8872.7524    11664.253 
  995600    304.62173   -8824.0937    44.492957   -8868.5866   -5780.6551 
  995800    261.63135   -8837.9955    38.213794   -8876.2093   -11347.372 
  996000    306.08043   -8826.9005    44.706013   -8871.6065    -11463.33 
  996200     295.3807   -8823.5961    43.143215   -8866.7393   -16817.142 
  996400    247.29792   -8829.1027    36.120259    -8865.223   -3679.7396 
  996600    280.05092   -8832.4955    40.904152   -8873.3997    3863.2239 
  996800    363.74245   -8820.3598     53.12811   -8873.4879    31139.484 
  997000    269.63549   -8825.4491    39.382877    -8864.832    18910.643 
  997200    272.16502    -8830.209    39.752339   -8869.9614    6355.9068 
  997400    293.50336   -8833.7221    42.869011   -8876.5911    7749.1624 
  997600    340.25054   -8814.8734    49.696889   -8864.5702   -73.910223 
  997800    354.81731   -8825.4038    51.824507   -8877.2283   -5055.0497 
  998000    306.85734   -8827.3468    44.819489   -8872.1663    12912.027 
  998200     254.4679   -8840.5857    37.167503   -8877.7532   -19918.873 
  998400    318.27415   -8822.9985    46.487024   -8869.4855   -11755.641 
  998600    310.54084   -8830.3695      45.3575    -8875.727    25360.389 
  998800    330.10378   -8829.4318    48.214857   -8877.6466   -35010.613 
  999000    330.05875   -8817.8875     48.20828   -8866.0958    10595.486 
  999200     302.9887   -8829.5891    44.254436   -8873.8435   -4570.0273 
  999400    288.91805   -8834.1332    42.199281   -8876.3325    20212.246 
  999600    316.54166   -8814.3276    46.233977   -8860.5616   -45685.669 
  999800    313.12081   -8831.3149    45.734329   -8877.0492   -10649.726 
 1000000    299.36349   -8830.1603     43.72494   -8873.8852    2104.2309 
Loop time of 2741.71 on 8 procs for 1000000 steps with 50 atoms

Performance: 7.878 ns/day, 3.046 hours/ns, 364.735 timesteps/s
99.5% CPU use with 8 MPI tasks x no OpenMP threads

MPI task timing breakdown:
Section |  min time  |  avg time  |  max time  |%varavg| %total
---------------------------------------------------------------
Pair    | 1961.3     | 1988.5     | 2070.7     |  77.5 | 72.53
Neigh   | 0.52411    | 0.53587    | 0.56085    |   1.4 |  0.02
Comm    | 32.374     | 115.16     | 142.2      | 322.1 |  4.20
Output  | 0.081473   | 0.088688   | 0.12138    |   4.2 |  0.00
Modify  | 634.1      | 635.22     | 636.36     |   2.8 | 23.17
Other   |            | 2.185      |            |       |  0.08

Nlocal:    6.25 ave 8 max 6 min
Histogram: 7 0 0 0 0 0 0 0 0 1
Nghost:    594.75 ave 604 max 584 min
Histogram: 2 0 0 2 0 0 0 0 2 2
Neighs:    805.625 ave 1008 max 770 min
Histogram: 7 0 0 0 0 0 0 0 0 1

Total # of neighbors = 6445
Ave neighs/atom = 128.9
Neighbor list builds = 780
Dangerous builds = 0

unfix 1
unfix output
undump 1

Please see the log.cite file for references relevant to this simulation

Total wall time: 0:45:56
