ITEM: TIMESTEP
0
ITEM: NUMBER OF ATOMS
161
ITEM: BOX BOUNDS xy xz yz pp pp pp
-6.7755000000000001e+00 1.3552000000000000e+01 -6.7755000000000001e+00
0.0000000000000000e+00 1.1735510246683001e+01 0.0000000000000000e+00
0.0000000000000000e+00 2.2149999999999999e+01 0.0000000000000000e+00
ITEM: ATOMS id type x y z 
8 1 -2.486 5.297 9.849 
87 1 3.001 4.231 10.696 
90 1 2.733 5.481 9.824 
109 1 -2.486 5.297 0.765 
158 1 2.733 5.481 0.79 
11 1 4.24 4.139 20.131 
14 1 3.031 4.094 19.728 
18 1 1.299 5.827 18.554 
33 1 2.266 4.151 20.924 
43 1 4.343 3.96 21.647 
47 1 3.32 5.732 17.88 
52 1 4.24 4.139 12.633 
76 1 2.552 4.924 14.209 
85 1 4.343 3.96 11.117 
89 1 3.32 5.732 14.883 
91 1 1.036 5.037 11.84 
102 1 3.031 4.094 13.035 
105 1 1.299 5.827 14.209 
114 1 2.266 4.151 11.84 
150 1 2.552 4.924 18.554 
156 1 3.001 4.231 22.068 
159 1 1.036 5.037 20.924 
5 1 -5.049 10.63 8.653 
9 1 -3.317 8.897 7.479 
19 1 -1.707 7.414 10.572 
21 1 -2.66 8.795 10.993 
23 1 -3.31 7.532 6.805 
25 1 -4.284 10.573 9.849 
32 1 1.503 6.367 0.79 
36 1 -1.869 7.426 9.056 
38 1 -2.209 6.086 8.653 
54 1 0.3 8.576 10.696 
57 1 1.291 8.001 9.824 
60 1 -1.707 7.414 0.042 
65 1 -3.31 7.532 3.808 
78 1 -1.869 7.426 1.558 
80 1 -2.566 8.842 1.961 
84 1 -4.57 9.799 3.135 
99 1 -3.054 9.687 0.765 
100 1 -2.96 6.142 3.135 
107 1 -5.049 10.63 1.961 
110 1 -3.317 8.897 3.135 
111 1 0.642 5.929 10.696 
113 1 1.503 6.367 9.824 
119 1 -4.284 10.573 0.765 
127 1 -2.209 6.086 1.961 
131 1 -2.318 6.148 10.993 
138 1 1.291 8.001 0.79 
142 1 -2.566 8.842 8.653 
145 1 -4.57 9.799 7.479 
151 1 -5.019 10.493 10.993 
154 1 -3.054 9.687 9.849 
155 1 -2.96 6.142 7.479 
12 1 2.53 7.1 17.202 
17 1 0.468 9.427 20.924 
24 1 -3.52 8.357 11.865 
27 1 -0.31 7.31 21.647 
29 1 0.642 5.929 22.068 
31 1 1.292 7.192 17.88 
44 1 -0.148 7.298 20.131 
46 1 0.191 8.638 19.728 
51 1 -0.31 7.31 11.117 
53 1 2.53 7.1 15.561 
56 1 1.292 7.192 14.883 
63 1 -2.318 6.148 21.771 
66 1 -3.309 6.723 20.899 
70 1 -0.148 7.298 12.633 
72 1 0.548 5.882 13.035 
92 1 0.942 8.582 14.209 
95 1 -5.019 10.493 21.771 
98 1 -4.751 9.243 20.899 
104 1 0.468 9.427 11.84 
116 1 -2.66 8.795 21.771 
118 1 -3.52 8.357 20.899 
122 1 0.191 8.638 13.035 
133 1 -3.309 6.723 11.865 
136 1 0.3 8.576 22.068 
147 1 0.548 5.882 19.728 
153 1 -4.751 9.243 11.865 
160 1 0.942 8.582 18.554 
1 1 7.976 4.694 10.572 
4 1 9.274 4.77 10.993 
20 1 8.034 4.861 9.056 
42 1 9.55 5.41 7.479 
67 1 10.043 4.578 0.765 
77 1 7.976 4.694 0.042 
94 1 8.035 4.861 1.558 
96 1 9.278 4.635 1.961 
121 1 4.688 5.417 10.696 
130 1 9.55 5.41 3.135 
134 1 10.043 4.578 9.849 
152 1 9.278 4.635 8.653 
45 1 4.688 5.417 22.068 
55 1 4.788 5.329 13.035 
106 1 9.274 4.77 21.771 
137 1 4.788 5.329 19.728 
2 1 7.294 10.585 9.056 
3 1 9.004 7.624 6.127 
6 1 8.556 6.347 6.805 
16 1 2.314 8.72 0.79 
22 1 7.166 6.156 8.653 
26 1 7.226 8.565 7.479 
35 1 7.191 10.764 10.572 
37 1 6.846 9.307 10.993 
39 1 8.214 8.992 6.805 
41 1 6.677 7.002 9.849 
48 1 3.775 6.213 0.79 
61 1 7.294 10.585 1.558 
62 1 9.004 7.624 4.487 
64 1 6.747 9.395 1.961 
68 1 7.437 6.931 3.135 
71 1 4.29 8.493 10.696 
74 1 3.567 7.818 9.824 
81 1 8.556 6.347 3.808 
83 1 6.47 8.606 0.765 
93 1 7.191 10.764 0.042 
97 1 8.214 8.992 3.808 
101 1 2.261 9.954 10.696 
103 1 2.314 8.72 9.824 
117 1 7.166 6.156 1.961 
120 1 7.226 8.565 3.135 
123 1 3.775 6.213 9.824 
129 1 6.677 7.002 0.765 
132 1 6.747 9.395 8.653 
135 1 7.437 6.931 7.479 
141 1 7.244 6.231 10.993 
144 1 6.47 8.606 9.849 
148 1 3.567 7.818 0.79 
161 2 7.63 9.176 5.892 
7 1 9.22 6.004 11.865 
10 1 3.558 10.029 21.647 
13 1 2.261 9.954 22.068 
15 1 2.978 8.376 17.88 
28 1 3.5 9.862 20.131 
30 1 4.369 8.568 19.728 
34 1 4.308 6.159 18.554 
40 1 7.76 8.511 11.865 
49 1 4.857 7.722 20.924 
50 1 1.984 9.314 18.554 
58 1 1.491 10.146 11.84 
59 1 4.097 7.793 14.209 
69 1 3.558 10.029 11.117 
73 1 2.978 8.376 14.883 
75 1 5.064 6.118 11.84 
79 1 7.244 6.231 21.771 
82 1 7.967 6.906 20.899 
86 1 3.5 9.862 12.633 
88 1 2.256 10.089 13.035 
108 1 9.22 6.004 20.899 
112 1 4.369 8.568 13.035 
115 1 4.308 6.159 14.209 
124 1 4.857 7.722 11.84 
125 1 1.984 9.314 14.209 
126 1 6.846 9.307 21.771 
128 1 7.76 8.511 20.899 
139 1 1.491 10.146 20.924 
140 1 4.097 7.793 18.554 
143 1 7.967 6.906 11.865 
146 1 4.29 8.493 22.068 
149 1 5.064 6.118 20.924 
157 1 2.256 10.089 19.728 
ITEM: TIMESTEP
10
ITEM: NUMBER OF ATOMS
161
ITEM: BOX BOUNDS xy xz yz pp pp pp
-6.7755000000000001e+00 1.3552000000000000e+01 -6.7755000000000001e+00
0.0000000000000000e+00 1.1735510246683001e+01 0.0000000000000000e+00
0.0000000000000000e+00 2.2149999999999999e+01 0.0000000000000000e+00
ITEM: ATOMS id type x y z 
8 1 -2.40458 5.36194 9.85383 
87 1 2.97075 4.26385 10.6403 
90 1 2.66897 5.45742 9.77797 
109 1 -2.40544 5.3596 0.765635 
158 1 2.66801 5.45692 0.835892 
11 1 4.29606 4.18886 20.1593 
14 1 2.92288 4.10767 19.7145 
18 1 1.33961 5.83791 18.602 
33 1 2.12038 4.24509 20.9043 
43 1 4.3167 4.14742 21.5681 
47 1 3.24631 5.80832 17.8602 
52 1 4.29512 4.1884 12.6044 
76 1 2.43757 4.88474 14.1928 
85 1 4.31651 4.14797 11.1954 
89 1 3.24749 5.80713 14.9043 
91 1 0.974042 5.106 11.8648 
102 1 2.92159 4.109 13.0526 
105 1 1.33551 5.83568 14.1607 
114 1 2.12026 4.24501 11.8604 
150 1 2.43507 4.88071 18.5687 
156 1 2.97269 4.26515 22.1227 
159 1 0.97452 5.10591 20.8989 
5 1 -4.8994 10.5972 8.61335 
9 1 -3.32475 8.91035 7.57407 
19 1 -1.7667 7.5105 10.5656 
21 1 -2.61916 8.75376 10.9304 
23 1 -3.30984 7.53841 6.85572 
25 1 -4.13625 10.479 9.82666 
32 1 1.56754 6.33004 0.782199 
36 1 -1.90017 7.53782 9.04947 
38 1 -2.15003 6.20343 8.6435 
54 1 0.296525 8.51257 10.6804 
57 1 1.34553 8.00274 9.78251 
60 1 -1.76284 7.50379 0.0544555 
65 1 -3.29969 7.52167 3.78215 
78 1 -1.90978 7.53999 1.55991 
80 1 -2.57214 8.78795 1.88696 
84 1 -4.44468 9.83559 3.104 
99 1 -3.00488 9.62837 0.800354 
100 1 -2.92157 6.22553 3.16892 
107 1 -4.92833 10.605 1.97687 
110 1 -3.35467 8.88476 3.0834 
111 1 0.594917 5.96299 10.7727 
113 1 1.56756 6.33105 9.83054 
119 1 -4.13956 10.4747 0.801165 
127 1 -2.15236 6.21385 1.97051 
131 1 -2.31299 6.21241 11.0067 
138 1 1.34674 8.00198 0.832385 
142 1 -2.57662 8.79124 8.71906 
145 1 -4.40991 9.78687 7.55739 
151 1 -4.98279 10.4468 11.056 
154 1 -2.99969 9.62957 9.82828 
155 1 -2.91723 6.23406 7.43947 
12 1 2.60261 7.08223 17.1046 
17 1 0.388456 9.35943 20.9249 
24 1 -3.54488 8.40155 11.8405 
27 1 -0.254925 7.21124 21.6395 
29 1 0.596315 5.96303 21.992 
31 1 1.27813 7.20725 17.8913 
44 1 -0.107742 7.17904 20.1295 
46 1 0.133546 8.51754 19.7219 
51 1 -0.254212 7.21312 11.1272 
53 1 2.6014 7.08369 15.6545 
56 1 1.28248 7.21126 14.8703 
63 1 -2.3114 6.21298 21.7551 
66 1 -3.37656 6.74713 20.8546 
70 1 -0.106672 7.18099 12.6336 
72 1 0.5503 5.93547 12.9598 
92 1 0.903145 8.50113 14.2424 
95 1 -4.99075 10.4378 21.7072 
98 1 -4.67806 9.20677 20.8531 
104 1 0.38562 9.35808 11.8415 
116 1 -2.61464 8.7618 21.8231 
118 1 -3.54732 8.39488 20.9207 
122 1 0.135338 8.51348 13.0406 
133 1 -3.37145 6.74548 11.9068 
136 1 0.296053 8.51562 22.0835 
147 1 0.55133 5.93338 19.802 
153 1 -4.68234 9.21629 11.8939 
160 1 0.904073 8.50521 18.5194 
1 1 7.88496 4.95258 10.528 
4 1 9.17641 4.77302 11.0465 
20 1 7.86499 4.94504 9.05953 
42 1 9.47801 5.40817 7.43281 
67 1 9.98776 4.54067 0.755341 
77 1 7.89082 4.95365 0.067941 
94 1 7.86428 4.92673 1.54997 
96 1 9.21276 4.6413 2.0041 
121 1 4.686 5.41033 10.7288 
130 1 9.45901 5.42667 3.18435 
134 1 9.99247 4.53901 9.85373 
152 1 9.19888 4.63657 8.62056 
45 1 4.6837 5.40901 22.0335 
55 1 4.8198 5.48152 13.0719 
106 1 9.17595 4.78118 21.7226 
137 1 4.81881 5.48102 19.6922 
2 1 7.23823 10.5532 9.0674 
3 1 8.98081 7.60662 6.03503 
6 1 8.57024 6.40497 6.8292 
16 1 2.34111 8.69483 0.8418 
22 1 7.16167 6.18435 8.74203 
26 1 7.14963 8.39198 7.60115 
35 1 7.22724 10.575 10.5026 
37 1 6.86679 9.29382 10.9903 
39 1 8.17267 8.97063 6.7072 
41 1 6.73374 7.00677 9.82762 
48 1 3.73689 6.36169 0.845724 
61 1 7.24333 10.5328 1.5413 
62 1 8.94904 7.63745 4.56704 
64 1 6.71232 9.23995 1.98914 
68 1 7.40932 6.96787 3.06572 
71 1 4.28418 8.5545 10.7888 
74 1 3.64095 7.79143 9.84214 
81 1 8.55955 6.41074 3.77082 
83 1 6.54921 8.44825 0.790665 
93 1 7.20795 10.5931 0.114119 
97 1 8.28386 8.92787 3.81811 
101 1 2.35861 9.95676 10.6436 
103 1 2.33872 8.69678 9.77276 
117 1 7.14181 6.1899 1.90496 
120 1 7.17022 8.4307 3.05966 
123 1 3.73675 6.35934 9.76858 
129 1 6.73084 7.02153 0.767788 
132 1 6.72056 9.24229 8.64183 
135 1 7.39614 6.96312 7.57429 
141 1 7.2484 6.16535 10.9066 
144 1 6.54959 8.43272 9.83425 
148 1 3.64245 7.79271 0.768453 
161 2 7.5841 9.25199 5.82862 
7 1 9.20115 6.0345 11.9122 
10 1 3.65096 9.76909 21.604 
13 1 2.35819 9.95764 22.1212 
15 1 2.97726 8.30823 17.9163 
28 1 3.66244 9.78813 20.1443 
30 1 4.39185 8.5283 19.7975 
34 1 4.34734 6.29725 18.6245 
40 1 7.74229 8.38572 11.8824 
49 1 4.78963 7.70948 20.9158 
50 1 2.0815 9.29813 18.5086 
58 1 1.54297 10.1839 11.8421 
59 1 4.12092 7.75417 14.1393 
69 1 3.64788 9.77012 11.1657 
73 1 2.97355 8.30447 14.8459 
75 1 4.98754 6.28521 11.8604 
79 1 7.26122 6.17662 21.8427 
82 1 7.88884 6.96916 20.9263 
86 1 3.65895 9.78527 12.6165 
88 1 2.33671 10.0756 13.0775 
108 1 9.19267 6.03253 20.8567 
112 1 4.38901 8.53232 12.9654 
115 1 4.34833 6.29889 14.1379 
124 1 4.79297 7.70839 11.8514 
125 1 2.08251 9.29804 14.2544 
126 1 6.87152 9.29033 21.7735 
128 1 7.75011 8.36686 20.8789 
139 1 1.53899 10.183 20.9218 
140 1 4.12353 7.75285 18.6256 
143 1 7.88244 6.96834 11.841 
146 1 4.28922 8.55216 21.9765 
149 1 4.98728 6.28838 20.9049 
157 1 2.3311 10.0767 19.6845 
ITEM: TIMESTEP
20
ITEM: NUMBER OF ATOMS
161
ITEM: BOX BOUNDS xy xz yz pp pp pp
-6.7755000000000001e+00 1.3552000000000000e+01 -6.7755000000000001e+00
0.0000000000000000e+00 1.1735510246683001e+01 0.0000000000000000e+00
0.0000000000000000e+00 2.2149999999999999e+01 0.0000000000000000e+00
ITEM: ATOMS id type x y z 
8 1 -2.41719 5.37977 9.84568 
87 1 2.96084 4.27077 10.6526 
90 1 2.6672 5.44991 9.77607 
109 1 -2.41701 5.38021 0.769948 
158 1 2.66727 5.45003 0.837989 
11 1 4.29193 4.19833 20.122 
14 1 2.89634 4.13771 19.6963 
18 1 1.32223 5.86188 18.5855 
33 1 2.11371 4.25678 20.9067 
43 1 4.30359 4.16352 21.5808 
47 1 3.24973 5.78329 17.856 
52 1 4.29156 4.19829 12.6407 
76 1 2.44665 4.90758 14.1747 
85 1 4.30348 4.1645 11.1828 
89 1 3.25283 5.78345 14.9092 
91 1 0.972144 5.11056 11.8553 
102 1 2.89702 4.13594 13.0671 
105 1 1.31913 5.86175 14.1783 
114 1 2.11315 4.25663 11.8568 
150 1 2.44683 4.90596 18.5891 
156 1 2.96101 4.27082 22.1109 
159 1 0.972589 5.11099 20.9077 
5 1 -4.90505 10.5833 8.61604 
9 1 -3.31963 8.87503 7.55257 
19 1 -1.75926 7.50153 10.5487 
21 1 -2.60949 8.77129 10.9479 
23 1 -3.31309 7.5528 6.86557 
25 1 -4.127 10.4694 9.84305 
32 1 1.58982 6.34584 0.776393 
36 1 -1.89217 7.53949 9.06052 
38 1 -2.15688 6.21443 8.64231 
54 1 0.30672 8.50675 10.6768 
57 1 1.35681 7.99653 9.78964 
60 1 -1.76083 7.50405 0.0606622 
65 1 -3.3089 7.52534 3.77115 
78 1 -1.89965 7.54715 1.55172 
80 1 -2.56401 8.79112 1.88719 
84 1 -4.46147 9.81988 3.09839 
99 1 -2.99691 9.61599 0.787522 
100 1 -2.93084 6.26296 3.1757 
107 1 -4.92309 10.59 1.98961 
110 1 -3.33006 8.86168 3.10235 
111 1 0.604811 5.96523 10.7559 
113 1 1.5897 6.34613 9.83719 
119 1 -4.13337 10.4631 0.778097 
127 1 -2.15833 6.21767 1.97047 
131 1 -2.32436 6.21959 11.0099 
138 1 1.35755 7.99649 0.824714 
142 1 -2.55922 8.79099 8.72317 
145 1 -4.42796 9.77483 7.54745 
151 1 -4.97255 10.4278 11.0415 
154 1 -2.99479 9.62714 9.82944 
155 1 -2.92836 6.26477 7.44232 
12 1 2.55595 7.07261 17.1413 
17 1 0.399547 9.34209 20.9151 
24 1 -3.55253 8.37628 11.8475 
27 1 -0.252477 7.20298 21.6321 
29 1 0.605333 5.96476 22.0078 
31 1 1.29599 7.20034 17.9106 
44 1 -0.115412 7.17455 20.1352 
46 1 0.14217 8.50707 19.721 
51 1 -0.252251 7.20392 11.1321 
53 1 2.55426 7.06293 15.6278 
56 1 1.29143 7.19867 14.8504 
63 1 -2.32576 6.21997 21.753 
66 1 -3.38231 6.76059 20.8642 
70 1 -0.11646 7.17359 12.6282 
72 1 0.546523 5.93598 12.9662 
92 1 0.913189 8.4587 14.2512 
95 1 -4.98058 10.4178 21.7268 
98 1 -4.67857 9.21415 20.863 
104 1 0.399569 9.34237 11.8478 
116 1 -2.60923 8.77526 21.8165 
118 1 -3.54565 8.37342 20.9181 
122 1 0.142048 8.50701 13.0434 
133 1 -3.38496 6.7598 11.9 
136 1 0.306506 8.50743 22.0882 
147 1 0.54705 5.93581 19.7966 
153 1 -4.67998 9.21397 11.8919 
160 1 0.913406 8.45764 18.5113 
1 1 7.88043 4.94277 10.5304 
4 1 9.17459 4.79833 11.0308 
20 1 7.85625 4.93137 9.05925 
42 1 9.4824 5.42588 7.44219 
67 1 9.9774 4.55757 0.7594 
77 1 7.87795 4.94364 0.0862622 
94 1 7.86087 4.94376 1.54503 
96 1 9.18964 4.65763 1.99508 
121 1 4.67378 5.45156 10.7146 
130 1 9.47291 5.42907 3.16889 
134 1 9.98003 4.55633 9.85623 
152 1 9.19856 4.65289 8.62026 
45 1 4.67424 5.4514 22.0492 
55 1 4.81845 5.49629 13.0633 
106 1 9.17487 4.79798 21.7345 
137 1 4.8172 5.49703 19.7011 
2 1 7.26437 10.5307 9.06186 
3 1 9.01082 7.60411 6.06042 
6 1 8.54211 6.39085 6.82924 
16 1 2.35479 8.69341 0.843217 
22 1 7.14275 6.18755 8.72779 
26 1 7.15941 8.38569 7.59809 
35 1 7.25369 10.5656 10.4957 
37 1 6.85271 9.25425 11.0076 
39 1 8.17453 8.98085 6.69526 
41 1 6.7221 7.0043 9.83599 
48 1 3.71282 6.36582 0.835619 
61 1 7.25663 10.5145 1.54525 
62 1 8.98619 7.65074 4.54594 
64 1 6.71239 9.2328 1.98154 
68 1 7.39575 6.96834 3.04975 
71 1 4.29666 8.53352 10.7684 
74 1 3.61236 7.7897 9.83383 
81 1 8.52682 6.3892 3.78036 
83 1 6.55013 8.43746 0.795323 
93 1 7.24051 10.57 0.109734 
97 1 8.27809 8.93698 3.82382 
101 1 2.35905 9.93876 10.6644 
103 1 2.35466 8.69371 9.77057 
117 1 7.13475 6.18761 1.90038 
120 1 7.18167 8.42038 3.06498 
123 1 3.71322 6.36659 9.77854 
129 1 6.72896 7.00812 0.78033 
132 1 6.71709 9.23066 8.64271 
135 1 7.39692 6.96386 7.57399 
141 1 7.24321 6.19297 10.9337 
144 1 6.54749 8.42916 9.83031 
148 1 3.61345 7.79009 0.780579 
161 2 7.57992 9.26645 5.82697 
7 1 9.17985 6.04646 11.9089 
10 1 3.65476 9.78339 21.5989 
13 1 2.36011 9.93821 22.0989 
15 1 3.00757 8.32686 17.9076 
28 1 3.67414 9.78043 20.1417 
30 1 4.40101 8.53016 19.791 
34 1 4.34336 6.30173 18.6257 
40 1 7.74446 8.37012 11.8786 
49 1 4.79826 7.71904 20.9087 
50 1 2.06595 9.29104 18.5167 
58 1 1.55448 10.1659 11.8372 
59 1 4.14212 7.75162 14.1203 
69 1 3.65318 9.78296 11.1658 
73 1 3.01138 8.33588 14.8598 
75 1 4.98716 6.28253 11.8614 
79 1 7.24475 6.19473 21.8371 
82 1 7.90979 6.96517 20.913 
86 1 3.67503 9.78107 12.6224 
88 1 2.34531 10.0648 13.0708 
108 1 9.18217 6.04343 20.8545 
112 1 4.40146 8.52977 12.9717 
115 1 4.34321 6.30361 14.1384 
124 1 4.79896 7.71901 11.8557 
125 1 2.05801 9.29758 14.241 
126 1 6.85802 9.2556 21.7632 
128 1 7.74458 8.37635 20.8826 
139 1 1.55423 10.1661 20.9269 
140 1 4.13415 7.7553 18.6371 
143 1 7.90642 6.97 11.8416 
146 1 4.30145 8.53559 21.9963 
149 1 4.98722 6.28285 20.9019 
157 1 2.3449 10.066 19.6949 
ITEM: TIMESTEP
30
ITEM: NUMBER OF ATOMS
161
ITEM: BOX BOUNDS xy xz yz pp pp pp
-6.7755000000000001e+00 1.3552000000000000e+01 -6.7755000000000001e+00
0.0000000000000000e+00 1.1735510246683001e+01 0.0000000000000000e+00
0.0000000000000000e+00 2.2149999999999999e+01 0.0000000000000000e+00
ITEM: ATOMS id type x y z 
8 1 -2.42991 5.40271 9.84347 
87 1 2.95381 4.27732 10.6519 
90 1 2.65663 5.44126 9.7684 
109 1 -2.43015 5.40483 0.773172 
158 1 2.65698 5.4414 0.845388 
11 1 4.27455 4.22357 20.121 
14 1 2.88615 4.14732 19.7062 
18 1 1.30004 5.85332 18.5744 
33 1 2.09534 4.26856 20.9031 
43 1 4.29061 4.20077 21.5603 
47 1 3.24943 5.79638 17.8359 
52 1 4.27577 4.22027 12.6448 
76 1 2.44114 4.92729 14.1803 
85 1 4.29006 4.20095 11.2021 
89 1 3.25161 5.79724 14.9295 
91 1 0.960172 5.1213 11.8416 
102 1 2.88508 4.1481 13.0589 
105 1 1.29968 5.84785 14.1863 
114 1 2.09392 4.2684 11.8608 
150 1 2.44202 4.92344 18.5815 
156 1 2.95419 4.27755 22.1115 
159 1 0.960858 5.12115 20.922 
5 1 -4.88596 10.5579 8.61812 
9 1 -3.31299 8.87872 7.55173 
19 1 -1.7562 7.51451 10.5535 
21 1 -2.5896 8.78059 10.964 
23 1 -3.29696 7.56468 6.85698 
25 1 -4.10544 10.4589 9.83875 
32 1 1.6032 6.37051 0.779184 
36 1 -1.87071 7.55482 9.06502 
38 1 -2.15206 6.22953 8.64123 
54 1 0.316908 8.49403 10.6748 
57 1 1.36619 7.98506 9.79355 
60 1 -1.75784 7.51603 0.0578257 
65 1 -3.29478 7.53723 3.78158 
78 1 -1.87968 7.56113 1.54794 
80 1 -2.54339 8.79463 1.89343 
84 1 -4.45731 9.8003 3.1032 
99 1 -2.97719 9.60612 0.771994 
100 1 -2.9312 6.26979 3.16955 
107 1 -4.90644 10.5769 1.98322 
110 1 -3.31299 8.87495 3.11309 
111 1 0.606595 5.96351 10.7315 
113 1 1.60315 6.37058 9.83454 
119 1 -4.11071 10.4537 0.781348 
127 1 -2.15579 6.23329 1.97128 
131 1 -2.33732 6.2319 11.0134 
138 1 1.36713 7.98468 0.820832 
142 1 -2.53174 8.79783 8.72072 
145 1 -4.43735 9.75493 7.53691 
151 1 -4.96532 10.4018 11.0421 
154 1 -2.97248 9.61543 9.84971 
155 1 -2.93169 6.27995 7.44826 
12 1 2.56039 7.07818 17.1471 
17 1 0.412106 9.31805 20.9109 
24 1 -3.5377 8.34966 11.8521 
27 1 -0.249302 7.18793 21.6355 
29 1 0.606656 5.96364 22.0319 
31 1 1.28289 7.18212 17.898 
44 1 -0.135689 7.16166 20.1396 
46 1 0.141404 8.48941 19.7174 
51 1 -0.248784 7.18828 11.1287 
53 1 2.56555 7.08211 15.6116 
56 1 1.2887 7.18451 14.8681 
63 1 -2.33692 6.23319 21.7513 
66 1 -3.39135 6.78258 20.8688 
70 1 -0.13655 7.16108 12.6243 
72 1 0.526649 5.93098 12.9701 
92 1 0.914989 8.45202 14.2454 
95 1 -4.96578 10.3948 21.7241 
98 1 -4.67063 9.20279 20.8589 
104 1 0.411972 9.31776 11.8523 
116 1 -2.58703 8.78141 21.7991 
118 1 -3.53714 8.3499 20.9115 
122 1 0.139988 8.48936 13.0455 
133 1 -3.39132 6.78211 11.8948 
136 1 0.316559 8.49413 22.0899 
147 1 0.526792 5.93168 19.7934 
153 1 -4.67228 9.20082 11.904 
160 1 0.917308 8.44945 18.517 
1 1 7.85089 4.93847 10.5283 
4 1 9.15653 4.82506 11.0209 
20 1 7.83821 4.93432 9.06386 
42 1 9.46515 5.44473 7.44676 
67 1 9.96609 4.578 0.765908 
77 1 7.84942 4.93957 0.0840322 
94 1 7.83655 4.94237 1.54551 
96 1 9.16873 4.67542 1.99109 
121 1 4.65151 5.49239 10.6923 
130 1 9.45511 5.4437 3.16835 
134 1 9.96768 4.57637 9.84892 
152 1 9.17523 4.67421 8.62109 
45 1 4.65143 5.49213 22.0708 
55 1 4.81906 5.51644 13.0672 
106 1 9.15631 4.8254 21.7438 
137 1 4.81846 5.51496 19.6997 
2 1 7.28163 10.501 9.05583 
3 1 9.00784 7.58997 6.06438 
6 1 8.5264 6.38464 6.82165 
16 1 2.36317 8.69558 0.855927 
22 1 7.11737 6.17257 8.72041 
26 1 7.17215 8.38138 7.59015 
35 1 7.26586 10.5283 10.4862 
37 1 6.85214 9.23568 11.0196 
39 1 8.17 8.99181 6.67277 
41 1 6.70398 6.98758 9.83833 
48 1 3.70212 6.35324 0.829546 
61 1 7.26778 10.496 1.55395 
62 1 8.97608 7.64293 4.52618 
64 1 6.71371 9.21028 1.9864 
68 1 7.38919 6.96029 3.05965 
71 1 4.31202 8.52358 10.7524 
74 1 3.59443 7.799 9.81119 
81 1 8.52002 6.39008 3.78997 
83 1 6.54147 8.41327 0.803556 
93 1 7.25265 10.5328 0.108115 
97 1 8.28099 8.92885 3.83913 
101 1 2.37936 9.91963 10.6771 
103 1 2.36227 8.6962 9.75767 
117 1 7.10819 6.17905 1.90781 
120 1 7.19099 8.41722 3.07193 
123 1 3.70188 6.35296 9.78386 
129 1 6.71223 6.99389 0.78024 
132 1 6.71244 9.20853 8.63706 
135 1 7.38827 6.95765 7.57369 
141 1 7.22428 6.19762 10.94 
144 1 6.53757 8.41251 9.82592 
148 1 3.59535 7.79895 0.802053 
161 2 7.5694 9.2947 5.82113 
7 1 9.16552 6.05654 11.9154 
10 1 3.68203 9.78711 21.5975 
13 1 2.38008 9.91932 22.0862 
15 1 3.02201 8.33178 17.8928 
28 1 3.69849 9.78124 20.1393 
30 1 4.42585 8.53946 19.7832 
34 1 4.33593 6.30414 18.6173 
40 1 7.74264 8.38246 11.8917 
49 1 4.81673 7.72798 20.9113 
50 1 2.08099 9.27183 18.5187 
58 1 1.56584 10.1479 11.8462 
59 1 4.14009 7.76654 14.1375 
69 1 3.68085 9.78674 11.1657 
73 1 3.0114 8.31989 14.8674 
75 1 4.98918 6.30197 11.8646 
79 1 7.22638 6.20488 21.8255 
82 1 7.92201 6.95646 20.891 
86 1 3.69984 9.78277 12.6266 
88 1 2.36563 10.047 13.0674 
108 1 9.16651 6.05639 20.848 
112 1 4.42524 8.54052 12.9773 
115 1 4.33444 6.30214 14.146 
124 1 4.81788 7.72811 11.8527 
125 1 2.0857 9.27191 14.2491 
126 1 6.85162 9.22609 21.7491 
128 1 7.74088 8.38309 20.8743 
139 1 1.56568 10.1477 20.9187 
140 1 4.14277 7.7621 18.6297 
143 1 7.92146 6.9561 11.8706 
146 1 4.31586 8.52442 22.0138 
149 1 4.98886 6.30179 20.8989 
157 1 2.36557 10.0458 19.6938 
ITEM: TIMESTEP
40
ITEM: NUMBER OF ATOMS
161
ITEM: BOX BOUNDS xy xz yz pp pp pp
-6.7755000000000001e+00 1.3552000000000000e+01 -6.7755000000000001e+00
0.0000000000000000e+00 1.1735510246683001e+01 0.0000000000000000e+00
0.0000000000000000e+00 2.2149999999999999e+01 0.0000000000000000e+00
ITEM: ATOMS id type x y z 
8 1 -2.46048 5.4596 9.8367 
87 1 2.92979 4.31178 10.6459 
90 1 2.62201 5.44379 9.73807 
109 1 -2.46257 5.46214 0.779748 
158 1 2.62432 5.44227 0.874918 
11 1 4.24937 4.28392 20.0942 
14 1 2.84593 4.19313 19.7131 
18 1 1.26304 5.83889 18.5511 
33 1 2.0593 4.29638 20.9074 
43 1 4.25089 4.29022 21.531 
47 1 3.23285 5.80065 17.8168 
52 1 4.25701 4.28147 12.6737 
76 1 2.40758 4.94202 14.1938 
85 1 4.25547 4.28762 11.2289 
89 1 3.22809 5.80738 14.9519 
91 1 0.91972 5.14487 11.8275 
102 1 2.83975 4.19002 13.0529 
105 1 1.26255 5.83348 14.2048 
114 1 2.05705 4.29419 11.8559 
150 1 2.40936 4.947 18.5726 
156 1 2.93059 4.31206 22.1147 
159 1 0.921107 5.14631 20.9341 
5 1 -4.84391 10.4976 8.62984 
9 1 -3.27814 8.87718 7.54461 
19 1 -1.74321 7.55058 10.5668 
21 1 -2.51939 8.79454 11.0034 
23 1 -3.30692 7.56705 6.83721 
25 1 -4.06116 10.4158 9.85041 
32 1 1.58985 6.39283 0.816533 
36 1 -1.81386 7.59247 9.0694 
38 1 -2.13399 6.27848 8.64542 
54 1 0.339493 8.4584 10.6763 
57 1 1.39109 7.97392 9.78373 
60 1 -1.74578 7.55435 0.0480751 
65 1 -3.29361 7.53364 3.78909 
78 1 -1.83432 7.60242 1.55224 
80 1 -2.49705 8.8168 1.91402 
84 1 -4.42575 9.78567 3.10878 
99 1 -2.9182 9.58463 0.75845 
100 1 -2.92946 6.28785 3.1594 
107 1 -4.85866 10.5345 1.96849 
110 1 -3.27881 8.88261 3.13434 
111 1 0.575939 5.95774 10.6923 
113 1 1.59093 6.39216 9.79765 
119 1 -4.06858 10.4164 0.768021 
127 1 -2.14021 6.27998 1.96821 
131 1 -2.35331 6.26708 11.0104 
138 1 1.39106 7.97415 0.830164 
142 1 -2.45842 8.82874 8.71944 
145 1 -4.42503 9.71768 7.51682 
151 1 -4.94243 10.3298 11.0331 
154 1 -2.90596 9.60254 9.87649 
155 1 -2.93689 6.3022 7.46374 
12 1 2.5796 7.06357 17.1497 
17 1 0.445803 9.25929 20.8995 
24 1 -3.49198 8.33002 11.887 
27 1 -0.245807 7.15011 21.6487 
29 1 0.575587 5.95747 22.0694 
31 1 1.27557 7.19166 17.8939 
44 1 -0.178618 7.11753 20.139 
46 1 0.129842 8.44067 19.7163 
51 1 -0.244586 7.14965 11.1175 
53 1 2.58523 7.05222 15.6192 
56 1 1.28028 7.19248 14.8839 
63 1 -2.35292 6.27183 21.7539 
66 1 -3.40297 6.80362 20.8618 
70 1 -0.177643 7.11857 12.6238 
72 1 0.476315 5.90832 12.9936 
92 1 0.913681 8.43505 14.2364 
95 1 -4.94381 10.3238 21.7335 
98 1 -4.65073 9.15943 20.8231 
104 1 0.446134 9.26081 11.8626 
116 1 -2.52112 8.79373 21.767 
118 1 -3.48842 8.33119 20.8809 
122 1 0.124579 8.44094 13.0439 
133 1 -3.40324 6.80162 11.9029 
136 1 0.339891 8.45871 22.0864 
147 1 0.478177 5.9092 19.7729 
153 1 -4.64917 9.15862 11.9436 
160 1 0.91932 8.41665 18.5234 
1 1 7.761 4.93238 10.5393 
4 1 9.10245 4.88797 11.0043 
20 1 7.7716 4.9363 9.06635 
42 1 9.44983 5.48312 7.46186 
67 1 9.92701 4.64205 0.774625 
77 1 7.75592 4.93563 0.0752021 
94 1 7.76693 4.94958 1.54753 
96 1 9.10915 4.71637 1.98599 
121 1 4.61746 5.55324 10.6754 
130 1 9.43551 5.47585 3.1557 
134 1 9.9297 4.63962 9.83808 
152 1 9.11525 4.7191 8.62476 
45 1 4.6207 5.55536 22.0885 
55 1 4.81389 5.56134 13.0606 
106 1 9.10293 4.89086 21.7615 
137 1 4.81099 5.56027 19.6976 
2 1 7.31357 10.4269 9.0312 
3 1 8.99416 7.59439 6.05902 
6 1 8.50529 6.39557 6.80506 
16 1 2.37999 8.70724 0.887961 
22 1 7.03567 6.14188 8.69833 
26 1 7.18862 8.35579 7.56806 
35 1 7.29684 10.4445 10.4592 
37 1 6.8634 9.18016 11.0305 
39 1 8.14898 8.99133 6.60905 
41 1 6.65456 6.95109 9.84437 
48 1 3.68977 6.35709 0.866837 
61 1 7.29846 10.4315 1.56806 
62 1 8.96786 7.65301 4.52837 
64 1 6.72135 9.1589 1.99276 
68 1 7.36409 6.94091 3.07748 
71 1 4.33885 8.51264 10.7178 
74 1 3.60341 7.81641 9.77158 
81 1 8.50333 6.38738 3.8008 
83 1 6.5252 8.37363 0.804873 
93 1 7.26845 10.4656 0.126597 
97 1 8.30658 8.91546 3.85286 
101 1 2.43253 9.87698 10.7065 
103 1 2.37954 8.70827 9.72632 
117 1 7.03085 6.15262 1.93615 
120 1 7.20046 8.38265 3.09453 
123 1 3.68872 6.35703 9.74516 
129 1 6.66346 6.95107 0.782328 
132 1 6.70879 9.1517 8.63064 
135 1 7.36281 6.94293 7.56572 
141 1 7.18691 6.20768 10.9662 
144 1 6.51834 8.37006 9.83227 
148 1 3.60353 7.81464 0.842149 
161 2 7.53203 9.38385 5.79778 
7 1 9.13528 6.07567 11.9294 
10 1 3.76671 9.7871 21.6018 
13 1 2.43441 9.87791 22.0595 
15 1 3.03081 8.32867 17.875 
28 1 3.77101 9.77583 20.1363 
30 1 4.49973 8.5632 19.7537 
34 1 4.33214 6.33781 18.5908 
40 1 7.74543 8.36374 11.9337 
49 1 4.86135 7.77236 20.9117 
50 1 2.10438 9.24076 18.5248 
58 1 1.60131 10.0903 11.8583 
59 1 4.16099 7.7727 14.1424 
69 1 3.76767 9.78937 11.167 
73 1 3.04516 8.33048 14.8808 
75 1 4.99761 6.34834 11.8739 
79 1 7.18323 6.21398 21.8021 
82 1 7.89076 6.94066 20.84 
86 1 3.76677 9.7738 12.6257 
88 1 2.42789 10.0047 13.0757 
108 1 9.13471 6.07625 20.8343 
112 1 4.49922 8.55711 13.0228 
115 1 4.34063 6.35414 14.171 
124 1 4.86046 7.76971 11.8525 
125 1 2.10077 9.23984 14.2352 
126 1 6.86407 9.16837 21.7422 
128 1 7.74256 8.36468 20.8304 
139 1 1.60332 10.0903 20.9005 
140 1 4.1749 7.77677 18.6134 
143 1 7.89045 6.94199 11.925 
146 1 4.34229 8.51479 22.0493 
149 1 4.99616 6.349 20.8914 
157 1 2.42703 10.0021 19.692 
ITEM: TIMESTEP
50
ITEM: NUMBER OF ATOMS
161
ITEM: BOX BOUNDS xy xz yz pp pp pp
-6.7755000000000001e+00 1.3552000000000000e+01 -6.7755000000000001e+00
0.0000000000000000e+00 1.1735510246683001e+01 0.0000000000000000e+00
0.0000000000000000e+00 2.2149999999999999e+01 0.0000000000000000e+00
ITEM: ATOMS id type x y z 
8 1 -2.46759 5.47185 9.83359 
87 1 2.92573 4.32485 10.648 
90 1 2.62677 5.45504 9.72166 
109 1 -2.46844 5.47508 0.781301 
158 1 2.62698 5.45525 0.892717 
11 1 4.24029 4.29614 20.0935 
14 1 2.8412 4.18834 19.7171 
18 1 1.26689 5.85381 18.5468 
33 1 2.05591 4.30406 20.9175 
43 1 4.24869 4.2924 21.5248 
47 1 3.21992 5.79625 17.8345 
52 1 4.23807 4.29535 12.6671 
76 1 2.39576 4.92966 14.1982 
85 1 4.24559 4.29227 11.2395 
89 1 3.22868 5.78895 14.9257 
91 1 0.906403 5.14011 11.8345 
102 1 2.8417 4.18969 13.0497 
105 1 1.2656 5.84983 14.2146 
114 1 2.05603 4.30269 11.8463 
150 1 2.39467 4.92623 18.5664 
156 1 2.92691 4.3282 22.1175 
159 1 0.907358 5.14256 20.9313 
5 1 -4.83073 10.4712 8.6205 
9 1 -3.27714 8.87206 7.54833 
19 1 -1.7378 7.55653 10.5603 
21 1 -2.51837 8.80123 11.012 
23 1 -3.31236 7.57086 6.84719 
25 1 -4.05595 10.3979 9.84886 
32 1 1.57483 6.38044 0.826292 
36 1 -1.8034 7.6046 9.06503 
38 1 -2.13295 6.28826 8.64501 
54 1 0.352727 8.45213 10.6754 
57 1 1.39532 7.98187 9.77482 
60 1 -1.74022 7.56075 0.0573749 
65 1 -3.29903 7.53556 3.79169 
78 1 -1.82199 7.61217 1.5574 
80 1 -2.48457 8.82149 1.91755 
84 1 -4.41198 9.78849 3.11387 
99 1 -2.90101 9.58988 0.755784 
100 1 -2.92928 6.2823 3.15681 
107 1 -4.8542 10.5271 1.96266 
110 1 -3.27498 8.8714 3.13688 
111 1 0.577912 5.95345 10.6875 
113 1 1.57382 6.38056 9.7872 
119 1 -4.06192 10.4044 0.766344 
127 1 -2.1381 6.28559 1.96825 
131 1 -2.36137 6.27451 11.0162 
138 1 1.39484 7.98169 0.838607 
142 1 -2.44977 8.83498 8.70839 
145 1 -4.41313 9.69794 7.51719 
151 1 -4.93217 10.3151 11.0382 
154 1 -2.88764 9.60533 9.87888 
155 1 -2.93358 6.30606 7.46611 
12 1 2.57244 7.06685 17.1454 
17 1 0.454425 9.24844 20.8986 
24 1 -3.47906 8.34004 11.8967 
27 1 -0.248781 7.14697 21.641 
29 1 0.578419 5.9527 22.0736 
31 1 1.28831 7.18078 17.883 
44 1 -0.187596 7.10653 20.1337 
46 1 0.124116 8.43135 19.7192 
51 1 -0.246648 7.14607 11.1227 
53 1 2.58217 7.07488 15.6234 
56 1 1.27464 7.18509 14.8773 
63 1 -2.36202 6.279 21.7494 
66 1 -3.39985 6.80114 20.8573 
70 1 -0.188902 7.10312 12.6322 
72 1 0.47018 5.90299 12.9914 
92 1 0.90939 8.43882 14.2359 
95 1 -4.94059 10.3143 21.7261 
98 1 -4.64374 9.14815 20.8191 
104 1 0.45246 9.24883 11.8638 
116 1 -2.51921 8.79979 21.761 
118 1 -3.47958 8.34025 20.8709 
122 1 0.123785 8.43432 13.0453 
133 1 -3.39964 6.79733 11.9077 
136 1 0.353203 8.45203 22.0881 
147 1 0.473181 5.90215 19.7685 
153 1 -4.64352 9.14757 11.9486 
160 1 0.915418 8.43816 18.5301 
1 1 7.73992 4.90602 10.5421 
4 1 9.08833 4.89836 11.0047 
20 1 7.75675 4.94418 9.06944 
42 1 9.44072 5.49043 7.46504 
67 1 9.91637 4.66203 0.774698 
77 1 7.73587 4.91489 0.0765339 
94 1 7.7502 4.95241 1.54069 
96 1 9.09159 4.72383 1.98893 
121 1 4.61141 5.56379 10.6865 
130 1 9.43578 5.47853 3.15157 
134 1 9.91611 4.66161 9.84057 
152 1 9.09752 4.72724 8.62438 
45 1 4.60951 5.56445 22.0756 
55 1 4.81519 5.58292 13.0787 
106 1 9.07984 4.89955 21.7582 
137 1 4.81246 5.58421 19.6858 
2 1 7.32329 10.4122 9.03068 
3 1 8.9835 7.61211 6.04751 
6 1 8.50746 6.40209 6.80553 
16 1 2.39261 8.70785 0.887654 
22 1 7.01563 6.13536 8.68739 
26 1 7.184 8.34652 7.56221 
35 1 7.30966 10.4264 10.4541 
37 1 6.86962 9.16881 11.0321 
39 1 8.15195 8.99938 6.61013 
41 1 6.64195 6.94165 9.84396 
48 1 3.67181 6.37094 0.885558 
61 1 7.30913 10.4183 1.56597 
62 1 8.9687 7.64973 4.54612 
64 1 6.72717 9.14501 1.99759 
68 1 7.35572 6.92844 3.08096 
71 1 4.35224 8.50792 10.7178 
74 1 3.6098 7.81643 9.76172 
81 1 8.50276 6.39774 3.80227 
83 1 6.52216 8.36275 0.808469 
93 1 7.28623 10.4405 0.12515 
97 1 8.31203 8.91819 3.84167 
101 1 2.4444 9.86684 10.7024 
103 1 2.39165 8.7088 9.72696 
117 1 7.01486 6.1459 1.94692 
120 1 7.20394 8.37976 3.09802 
123 1 3.67243 6.37016 9.72802 
129 1 6.64758 6.94809 0.783736 
132 1 6.71351 9.13659 8.62513 
135 1 7.35783 6.93556 7.561 
141 1 7.16716 6.21173 10.9726 
144 1 6.51449 8.36126 9.82976 
148 1 3.61003 7.8177 0.85175 
161 2 7.52499 9.41157 5.79694 
7 1 9.12417 6.08306 11.9303 
10 1 3.78474 9.8067 21.6044 
13 1 2.44547 9.86916 22.0614 
15 1 3.03896 8.32322 17.8815 
28 1 3.78793 9.77219 20.1312 
30 1 4.51728 8.5694 19.7486 
34 1 4.33061 6.3389 18.5887 
40 1 7.74585 8.3619 11.9418 
49 1 4.87324 7.77449 20.912 
50 1 2.10163 9.24003 18.5281 
58 1 1.61653 10.0747 11.8641 
59 1 4.17599 7.79087 14.1555 
69 1 3.78727 9.81547 11.1554 
73 1 3.03638 8.32972 14.8896 
75 1 4.99504 6.35096 11.861 
79 1 7.16565 6.21466 21.799 
82 1 7.88074 6.93482 20.8308 