LAMMPS (3 Mar 2020)
Reading data file ...
  triclinic box = (0 0 0) to (13.552 11.7355 22.15) with tilt (-6.7755 0 0)
  2 by 2 by 2 MPI processor grid
  reading atoms ...
  161 atoms
  read_data CPU = 0.0164822 secs
WARNING: Using 'neigh_modify every 1 delay 0 check yes' setting during minimization (../min.cpp:190)
WARNING: Total cutoff < 2*bond cutoff. May need to use an increased neighbor list skin. (../pair_reaxc.cpp:413)
Neighbor list info ...
  update every 1 steps, delay 0 steps, check yes
  max neighbors/atom: 2000, page size: 100000
  master list distance cutoff = 9.5
  ghost atom cutoff = 9.5
  binsize = 4.75, bins = 5 3 5
  2 neighbor lists, perpetual/occasional/extra = 2 0 0
  (1) pair reax/c, perpetual
      attributes: half, newton off, ghost
      pair build: half/bin/newtoff/ghost
      stencil: half/ghost/bin/3d/newtoff
      bin: standard
  (2) fix qeq/reax, perpetual, copy from (1)
      attributes: half, newton off, ghost
      pair build: copy
      stencil: none
      bin: none
Setting up cg style minimization ...
  Unit style    : real
  Current step  : 0
Per MPI rank memory allocation (min/avg/max) = 22.39 | 23.37 | 24.36 Mbytes
Step Temp E_pair E_mol TotEng Press 
       0            0   -25491.357            0   -25491.357    83530.039 
     373            0   -29191.863            0   -29191.863     35292.13 
Loop time of 76.2214 on 8 procs for 373 steps with 161 atoms

98.8% CPU use with 8 MPI tasks x no OpenMP threads

Minimization stats:
  Stopping criterion = energy tolerance
  Energy initial, next-to-last, final = 
        -25491.3567143      -29191.863206     -29191.8633426
  Force two-norm initial, final = 4579.1 34.2503
  Force max component initial, final = 504.525 11.8856
  Final line search alpha, max atom move = 6.46688e-05 0.00076863
  Iterations, force evaluations = 373 2659

MPI task timing breakdown:
Section |  min time  |  avg time  |  max time  |%varavg| %total
---------------------------------------------------------------
Pair    | 55.919     | 59.061     | 61.438     |  28.5 | 77.49
Neigh   | 0          | 0          | 0          |   0.0 |  0.00
Comm    | 0.61877    | 2.988      | 6.1279     | 126.6 |  3.92
Output  | 0.006099   | 0.0079173  | 0.011029   |   1.7 |  0.01
Modify  | 14.062     | 14.064     | 14.066     |   0.0 | 18.45
Other   |            | 0.1008     |            |       |  0.13

Nlocal:    20.125 ave 33 max 4 min
Histogram: 2 0 1 0 1 0 0 1 0 3
Nghost:    840.375 ave 886 max 791 min
Histogram: 2 1 1 0 0 0 0 0 1 3
Neighs:    2750.12 ave 4344 max 591 min
Histogram: 2 0 0 1 1 0 0 0 1 3

Total # of neighbors = 22001
Ave neighs/atom = 136.652
Neighbor list builds = 0
Dangerous builds = 0
WARNING: Using 'neigh_modify every 1 delay 0 check yes' setting during minimization (../min.cpp:190)
WARNING: Total cutoff < 2*bond cutoff. May need to use an increased neighbor list skin. (../pair_reaxc.cpp:413)
Setting up cg style minimization ...
  Unit style    : real
  Current step  : 373
Per MPI rank memory allocation (min/avg/max) = 22.39 | 23.37 | 24.36 Mbytes
Step Temp E_pair E_mol TotEng Press 
     373            0   -29191.863            0   -29191.863     35292.13 
     374            0   -29191.863            0   -29191.863    35294.253 
Loop time of 0.31561 on 8 procs for 1 steps with 161 atoms

98.7% CPU use with 8 MPI tasks x no OpenMP threads

Minimization stats:
  Stopping criterion = energy tolerance
  Energy initial, next-to-last, final = 
        -29191.8633426     -29191.8633426     -29191.8633775
  Force two-norm initial, final = 34.2503 34.1526
  Force max component initial, final = 11.8856 11.8357
  Final line search alpha, max atom move = 6.57306e-05 0.00077797
  Iterations, force evaluations = 1 10

MPI task timing breakdown:
Section |  min time  |  avg time  |  max time  |%varavg| %total
---------------------------------------------------------------
Pair    | 0.23747    | 0.25231    | 0.26265    |   1.9 | 79.94
Neigh   | 0          | 0          | 0          |   0.0 |  0.00
Comm    | 0.0026863  | 0.012943   | 0.02776    |   8.3 |  4.10
Output  | 0          | 0          | 0          |   0.0 |  0.00
Modify  | 0.049599   | 0.04963    | 0.049661   |   0.0 | 15.73
Other   |            | 0.0007289  |            |       |  0.23

Nlocal:    20.125 ave 32 max 4 min
Histogram: 2 0 1 1 0 0 0 0 1 3
Nghost:    873.875 ave 925 max 824 min
Histogram: 3 1 0 0 0 0 0 0 2 2
Neighs:    2728.62 ave 4287 max 582 min
Histogram: 2 0 0 2 0 0 0 0 1 3

Total # of neighbors = 21829
Ave neighs/atom = 135.584
Neighbor list builds = 0
Dangerous builds = 0
WARNING: Using 'neigh_modify every 1 delay 0 check yes' setting during minimization (../min.cpp:190)
WARNING: Total cutoff < 2*bond cutoff. May need to use an increased neighbor list skin. (../pair_reaxc.cpp:413)
Setting up cg style minimization ...
  Unit style    : real
  Current step  : 374
WARNING: Energy due to 3 extra global DOFs will be included in minimizer energies
Per MPI rank memory allocation (min/avg/max) = 22.39 | 23.37 | 24.36 Mbytes
Step Temp E_pair E_mol TotEng Press Volume 
     374            0   -29191.863            0   -29191.863    35294.253    3522.7279 
     445            0   -29205.938            0   -29205.938    770.64604     3528.241 
Loop time of 3.0423 on 8 procs for 71 steps with 161 atoms

98.8% CPU use with 8 MPI tasks x no OpenMP threads

Minimization stats:
  Stopping criterion = linesearch alpha is zero
  Energy initial, next-to-last, final = 
        -29191.8633775     -29205.9375976     -29205.9375976
  Force two-norm initial, final = 4040.67 516.589
  Force max component initial, final = 3581.08 261.208
  Final line search alpha, max atom move = 4.50747e-14 1.17739e-11
  Iterations, force evaluations = 71 113

MPI task timing breakdown:
Section |  min time  |  avg time  |  max time  |%varavg| %total
---------------------------------------------------------------
Pair    | 2.4397     | 2.5903     | 2.6931     |   6.0 | 85.14
Neigh   | 0          | 0          | 0          |   0.0 |  0.00
Comm    | 0.029555   | 0.13196    | 0.28238    |  26.3 |  4.34
Output  | 0.001105   | 0.0013935  | 0.0018966  |   0.6 |  0.05
Modify  | 0.30572    | 0.30579    | 0.30585    |   0.0 | 10.05
Other   |            | 0.01282    |            |       |  0.42

Nlocal:    20.125 ave 32 max 4 min
Histogram: 2 0 1 1 0 0 0 0 1 3
Nghost:    873.875 ave 925 max 824 min
Histogram: 3 1 0 0 0 0 0 0 2 2
Neighs:    2728.62 ave 4287 max 582 min
Histogram: 2 0 0 2 0 0 0 0 1 3

Total # of neighbors = 21829
Ave neighs/atom = 135.584
Neighbor list builds = 0
Dangerous builds = 0
WARNING: Using 'neigh_modify every 1 delay 0 check yes' setting during minimization (../min.cpp:190)
WARNING: Total cutoff < 2*bond cutoff. May need to use an increased neighbor list skin. (../pair_reaxc.cpp:413)
Setting up cg style minimization ...
  Unit style    : real
  Current step  : 445
Per MPI rank memory allocation (min/avg/max) = 22.39 | 23.37 | 24.36 Mbytes
Step Temp E_pair E_mol TotEng Press 
     445            0   -29205.938            0   -29205.938    770.64604 
     516            0   -29212.415            0   -29212.415    33090.349 
Loop time of 15.9649 on 8 procs for 71 steps with 161 atoms

98.8% CPU use with 8 MPI tasks x no OpenMP threads

Minimization stats:
  Stopping criterion = energy tolerance
  Energy initial, next-to-last, final = 
        -29205.9375976     -29212.4147739     -29212.4149501
  Force two-norm initial, final = 420.67 33.2572
  Force max component initial, final = 49.7764 6.21976
  Final line search alpha, max atom move = 0.000248783 0.00154737
  Iterations, force evaluations = 71 546

MPI task timing breakdown:
Section |  min time  |  avg time  |  max time  |%varavg| %total
---------------------------------------------------------------
Pair    | 11.743     | 12.425     | 12.919     |  13.2 | 77.83
Neigh   | 0          | 0          | 0          |   0.0 |  0.00
Comm    | 0.14575    | 0.63808    | 1.3189     |  58.0 |  4.00
Output  | 0.0011335  | 0.0014202  | 0.0019924  |   0.7 |  0.01
Modify  | 2.8797     | 2.88       | 2.8801     |   0.0 | 18.04
Other   |            | 0.02044    |            |       |  0.13

Nlocal:    20.125 ave 32 max 4 min
Histogram: 2 0 1 1 0 0 0 0 1 3
Nghost:    871.125 ave 921 max 822 min
Histogram: 3 0 1 0 0 0 0 0 2 2
Neighs:    2725.38 ave 4282 max 581 min
Histogram: 2 0 0 2 0 0 0 0 1 3

Total # of neighbors = 21803
Ave neighs/atom = 135.422
Neighbor list builds = 0
Dangerous builds = 0
WARNING: Using 'neigh_modify every 1 delay 0 check yes' setting during minimization (../min.cpp:190)
WARNING: Total cutoff < 2*bond cutoff. May need to use an increased neighbor list skin. (../pair_reaxc.cpp:413)
Setting up cg style minimization ...
  Unit style    : real
  Current step  : 516
WARNING: Energy due to 3 extra global DOFs will be included in minimizer energies
Per MPI rank memory allocation (min/avg/max) = 22.39 | 23.37 | 24.36 Mbytes
Step Temp E_pair E_mol TotEng Press Volume 
     516            0   -29212.415            0   -29212.415    33090.349     3528.241 
     608            0   -29228.462            0   -29228.462    8998.3836    3534.9224 
Loop time of 4.06096 on 8 procs for 92 steps with 161 atoms

98.8% CPU use with 8 MPI tasks x no OpenMP threads

Minimization stats:
  Stopping criterion = energy tolerance
  Energy initial, next-to-last, final = 
        -29212.4149501     -29228.4615514     -29228.4615515
  Force two-norm initial, final = 3812.68 903.293
  Force max component initial, final = 3371.86 620.374
  Final line search alpha, max atom move = 1.67215e-14 1.03736e-11
  Iterations, force evaluations = 92 151

MPI task timing breakdown:
Section |  min time  |  avg time  |  max time  |%varavg| %total
---------------------------------------------------------------
Pair    | 3.2249     | 3.4394     | 3.5816     |   7.4 | 84.69
Neigh   | 0          | 0          | 0          |   0.0 |  0.00
Comm    | 0.044384   | 0.18628    | 0.40052    |  31.7 |  4.59
Output  | 0.0012897  | 0.001614   | 0.0022332  |   0.7 |  0.04
Modify  | 0.41674    | 0.41679    | 0.41683    |   0.0 | 10.26
Other   |            | 0.01687    |            |       |  0.42

Nlocal:    20.125 ave 32 max 4 min
Histogram: 2 0 1 1 0 0 0 0 1 3
Nghost:    869.375 ave 923 max 818 min
Histogram: 3 0 1 0 0 0 0 1 0 3
Neighs:    2726.38 ave 4284 max 581 min
Histogram: 2 0 0 2 0 0 0 0 1 3

Total # of neighbors = 21811
Ave neighs/atom = 135.472
Neighbor list builds = 0
Dangerous builds = 0
WARNING: Using 'neigh_modify every 1 delay 0 check yes' setting during minimization (../min.cpp:190)
WARNING: Total cutoff < 2*bond cutoff. May need to use an increased neighbor list skin. (../pair_reaxc.cpp:413)
Setting up cg style minimization ...
  Unit style    : real
  Current step  : 608
Per MPI rank memory allocation (min/avg/max) = 22.39 | 23.37 | 24.36 Mbytes
Step Temp E_pair E_mol TotEng Press 
     608            0   -29228.462            0   -29228.462    8998.3836 
     647            0   -29233.193            0   -29233.193    30708.868 
Loop time of 9.46478 on 8 procs for 39 steps with 161 atoms

98.8% CPU use with 8 MPI tasks x no OpenMP threads

Minimization stats:
  Stopping criterion = energy tolerance
  Energy initial, next-to-last, final = 
        -29228.4615515     -29233.1932997     -29233.1933543
  Force two-norm initial, final = 354.681 34.7033
  Force max component initial, final = 43.1583 11.0873
  Final line search alpha, max atom move = 7.00013e-05 0.000776124
  Iterations, force evaluations = 39 327

MPI task timing breakdown:
Section |  min time  |  avg time  |  max time  |%varavg| %total
---------------------------------------------------------------
Pair    | 6.9352     | 7.3498     | 7.7001     |  11.0 | 77.65
Neigh   | 0          | 0          | 0          |   0.0 |  0.00
Comm    | 0.061093   | 0.41029    | 0.82492    |  46.6 |  4.33
Output  | 0.00061502 | 0.00075387 | 0.0010261  |   0.0 |  0.01
Modify  | 1.6917     | 1.6918     | 1.6919     |   0.0 | 17.87
Other   |            | 0.01217    |            |       |  0.13

Nlocal:    20.125 ave 32 max 4 min
Histogram: 2 0 1 1 0 0 0 0 1 3
Nghost:    861.875 ave 912 max 806 min
Histogram: 2 2 0 0 0 0 0 0 0 4
Neighs:    2719.88 ave 4268 max 579 min
Histogram: 2 0 0 2 0 0 0 0 1 3

Total # of neighbors = 21759
Ave neighs/atom = 135.149
Neighbor list builds = 0
Dangerous builds = 0
WARNING: Total cutoff < 2*bond cutoff. May need to use an increased neighbor list skin. (../pair_reaxc.cpp:413)
Setting up Verlet run ...
  Unit style    : real
  Current step  : 0
  Time step     : 0.25
Per MPI rank memory allocation (min/avg/max) = 21.28 | 22.26 | 23.25 Mbytes
Step Temp TotEng KinEng PotEng Press 
       0          300   -29090.114    143.07888   -29233.193     32559.11 
     200    323.78089   -29138.035    154.42069   -29292.455   -18142.582 
     400    343.59006   -29177.659    163.86827   -29341.528    6551.9752 
     600    279.72837    -29197.46    133.41074   -29330.871   -14698.647 
     800    281.63944   -29203.466    134.32219   -29337.788    2420.5339 
    1000    323.84197   -29181.902    154.44982   -29336.352    6520.1461 
    1200    243.23374   -29187.101    116.00537   -29303.107    4037.1344 
    1400    299.05811    -29165.65    142.62967   -29308.279    1522.4612 
    1600    328.72948   -29166.988    156.78082   -29323.769    5560.7861 
    1800    246.91714   -29171.324     117.7621   -29289.086     7299.707 
    2000     325.2575   -29145.313    155.12493   -29300.438    -878.8845 
    2200    270.12622   -29154.533    128.83119   -29283.364   -34774.956 
    2400    328.69299   -29129.672    156.76342   -29286.436   -109.19508 
    2600    296.04864   -29125.599    141.19436   -29266.793   -19957.264 
    2800    397.72687    -29102.55    189.68772   -29292.237    9763.2943 
    3000    254.61038   -29135.246    121.43123   -29256.677   -16949.902 
    3200    324.43154   -29116.693    154.73101   -29271.424   -8553.3472 
    3400    268.39561   -29151.255    128.00581   -29279.261   -7902.2755 
    3600    299.54933    -29141.04    142.86394   -29283.904    4402.0624 
    3800    306.75157   -29128.884    146.29891   -29275.183   -23249.274 
    4000    322.39579   -29113.483     153.7601   -29267.243    28618.427 
    4200     293.8441   -29140.211    140.14295   -29280.354   -25743.035 
    4400    298.98324   -29145.568    142.59396   -29288.162     26824.04 
    4600    314.74596   -29154.235    150.11167   -29304.347    10691.471 
    4800    302.30648   -29135.251    144.17891    -29279.43   -568.75526 
    5000    304.75312    -29156.24    145.34579   -29301.586   -5687.5335 
    5200    334.16027   -29158.593    159.37093   -29317.964    27068.989 
    5400    303.01262    -29170.22    144.51569   -29314.736    7781.2948 
    5600      291.714   -29178.731    139.12704   -29317.858    35120.189 
    5800     332.1511   -29156.799     158.4127   -29315.212   -39564.887 
    6000    293.23879   -29191.714    139.85426   -29331.568   -3587.3079 
    6200    315.74225   -29178.205    150.58683   -29328.792   -3944.0783 
    6400    269.81256   -29197.968     128.6816    -29326.65    -22725.37 
    6600    296.77545     -29168.5      141.541   -29310.041    12528.433 
    6800    340.90779   -29147.197    162.58902   -29309.786   -33302.807 
    7000    280.32753   -29175.495     133.6965   -29309.192    18958.634 
    7200    296.99916   -29177.582    141.64769    -29319.23   -2159.0544 
    7400    254.48021   -29206.996    121.36915   -29328.365    57288.856 
    7600    280.19723   -29192.171    133.63436   -29325.805   -29002.154 
    7800    309.19388   -29170.492    147.46371   -29317.956    14009.802 
    8000    291.64211   -29186.673    139.09276   -29325.765    8013.2926 
    8200    281.95054   -29190.568    134.47056   -29325.038   -17247.127 
    8400    290.91398   -29174.036    138.74549   -29312.781    3140.0993 
    8600    279.83748     -29164.4    133.46278   -29297.863   -8342.4627 
    8800    305.08841   -29152.457     145.5057   -29297.963    2211.8775 
    9000    302.53894   -29185.816    144.28978   -29330.106    9871.5693 
    9200    289.35811    -29179.14    138.00345   -29317.144   -7933.3705 
    9400    310.94884   -29150.712    148.30071   -29299.013    5726.2902 
    9600    302.31336   -29186.843    144.18219   -29331.025    3416.4153 
    9800    302.83065   -29188.152     144.4289   -29332.581    6765.4374 
   10000     307.9407   -29161.507    146.86604   -29308.373   -12302.336 
   10200    298.19466   -29186.375    142.21786   -29328.593   -41061.969 
   10400    271.84206   -29192.393    129.64952   -29322.043   -529.94798 
   10600    316.24945   -29164.201    150.82873   -29315.029    3313.6936 
   10800    305.76711   -29171.766    145.82939   -29317.595     4839.218 
   11000    295.74286   -29184.789    141.04853   -29325.838    806.21915 
   11200    308.50058   -29164.778    147.13306   -29311.911    368.42527 
   11400    260.16126   -29190.415    124.07861   -29314.494   -20789.361 
   11600    316.28084   -29171.356     150.8437     -29322.2   -12461.025 
   11800     328.5061   -29159.023    156.67428   -29315.698    23186.223 
   12000    282.49457   -29183.744    134.73002   -29318.474     33390.54 
   12200    314.84357   -29169.878    150.15822   -29320.036    10193.522 
   12400    288.42478   -29150.372    137.55832   -29287.931   -13529.791 
   12600    293.27785   -29174.447    139.87289    -29314.32    21579.026 
   12800    269.55191   -29190.034    128.55729   -29318.591    33794.995 
   13000    282.40937   -29165.213    134.68939   -29299.903   -8236.3381 
   13200    333.05483   -29150.205    158.84371   -29309.049    -8307.159 
   13400    271.13609    -29170.68    129.31283   -29299.993   -8937.2357 
   13600    313.67497    -29156.99    149.60088   -29306.591   -3039.2752 
   13800    295.63316   -29153.206     140.9962   -29294.202    -18905.23 
   14000    258.04272   -29172.762    123.06821    -29295.83    31745.576 
   14200    298.07137   -29157.241    142.15906     -29299.4    -20047.76 
   14400    314.59818   -29149.299    150.04119   -29299.341     17069.98 
   14600    303.96684   -29166.962    144.97079   -29311.933   -29844.488 
   14800    286.24722   -29165.821    136.51977   -29302.341    450.43461 
   15000    318.43938   -29144.082    151.87317   -29295.955    9535.7907 
   15200     290.2032   -29151.574     138.4065   -29289.981   -11560.746 
   15400    329.22869   -29128.961    157.01891   -29285.979    9055.6414 
   15600    285.96624   -29159.915    136.38577     -29296.3   -5942.9859 
   15800    294.79601   -29161.303    140.59694     -29301.9   -2190.2713 
   16000    328.55514   -29129.573    156.69768   -29286.271    17610.174 
   16200    313.39642   -29144.807    149.46803   -29294.275   -8616.2729 
   16400    293.78393   -29166.176    140.11425    -29306.29    796.01765 
   16600    310.16071    -29153.44    147.92483   -29301.365   -27461.668 
   16800    302.13225   -29146.215    144.09581   -29290.311   -23886.005 
   17000    287.15804   -29163.729    136.95417   -29300.683   -4882.2714 
   17200     289.4889   -29152.414    138.06583    -29290.48   -12617.178 
   17400    283.50874   -29164.022    135.21371   -29299.236    2889.1273 
   17600    314.00892   -29165.176    149.76015   -29314.936    28012.511 
   17800    325.56391   -29136.006    155.27107   -29291.277    25439.175 
   18000    270.15532   -29165.779    128.84507   -29294.624   -57675.644 
   18200    303.31673   -29160.507    144.66073   -29305.168    9362.2053 
   18400    298.73336    -29154.86    142.47479   -29297.335    1004.6253 
   18600    266.01106   -29182.904    126.86855   -29309.772    -9540.417 
   18800    314.70216   -29154.015    150.09078   -29304.105    33523.632 
   19000    307.43186   -29152.941    146.62336   -29299.564    8148.7105 
   19200    294.85401   -29151.375    140.62461       -29292   -36251.057 
   19400    296.24429   -29155.889    141.28767   -29297.177    26274.378 
   19600     283.7771   -29172.063     135.3417   -29307.404    8132.6904 
   19800    314.15918    -29138.42    149.83181   -29288.252   -10343.209 
   20000    292.65841    -29158.86    139.57746   -29298.437   -19394.279 
   20200     267.6562   -29178.542    127.65317   -29306.195   -8320.5558 
   20400    301.99612   -29148.692    144.03089   -29292.723   -8478.9069 
   20600    297.78179   -29154.694    142.02095   -29296.715   -11323.492 
   20800    284.31994   -29168.554     135.6006   -29304.155   -17596.636 
   21000    295.76085   -29141.589    141.05711   -29282.646   -965.34034 
   21200    276.96701   -29168.647    132.09377   -29300.741   -33309.337 
   21400    342.80255   -29150.456    163.49269   -29313.949   -5401.3896 
   21600    308.15925   -29145.098    146.97027   -29292.068   -20668.639 
   21800    311.69792   -29160.615    148.65796   -29309.272   -19317.351 
   22000    287.85682    -29146.54    137.28744   -29283.828    12869.365 
   22200    332.15118   -29130.053    158.41273   -29288.465   -38723.452 
   22400    291.22543    -29161.01    138.89403   -29299.904    23242.625 
   22600    314.29361   -29149.257    149.89593   -29299.153   -8418.6791 
   22800    302.02202   -29159.938    144.04324   -29303.981    13998.195 
   23000    296.13724   -29171.728    141.23662   -29312.965     2367.126 
   23200     336.4734   -29142.165    160.47413    -29302.64   -12819.774 
   23400    291.14872   -29182.459    138.85744   -29321.317    21816.808 
   23600    313.84928   -29150.613    149.68401   -29300.297    14223.106 
   23800    303.16139   -29161.158    144.58664   -29305.744        29346 
   24000    265.35667   -29177.997    126.55645   -29304.554   -23025.762 
   24200    298.41515    -29157.76    142.32302   -29300.084   -32099.279 
   24400    320.70017   -29160.818     152.9514   -29313.769    22801.428 
   24600    291.33181   -29171.142    138.94477   -29310.087   -13614.621 
   24800    256.21425   -29188.814    122.19616    -29311.01    18870.725 
   25000    299.10508   -29159.685    142.65207   -29302.337    2352.3516 
   25200    292.38045   -29176.126    139.44489   -29315.571    28545.208 
   25400    267.72416   -29213.861    127.68558   -29341.546    5998.0443 
   25600    279.92961   -29197.597    133.50672   -29331.103   -8275.1851 
   25800    288.88024   -29180.546    137.77554   -29318.322    13846.791 
   26000    309.47511   -29168.513    147.59784   -29316.111    24862.321 
   26200    287.36929   -29199.782    137.05492   -29336.837    21412.524 
   26400    295.48097    -29177.63    140.92362   -29318.553   -24778.545 
   26600    316.84818   -29162.254    151.11428   -29313.369   -1848.3698 
   26800    279.66121   -29182.996    133.37871   -29316.375    3557.0807 
   27000    290.75849   -29191.382    138.67133   -29330.054   -21043.204 
   27200    312.68977   -29170.364    149.13101   -29319.495   -13562.267 
   27400    298.10378    -29180.52    142.17452   -29322.694    20212.071 
   27600    282.39268   -29183.098    134.68143   -29317.779    46097.123 
   27800    307.90664   -29152.208    146.84979   -29299.057    8859.3991 
   28000     310.0347   -29171.659    147.86473   -29319.523    9945.1842 
   28200    312.86952    -29172.08    149.21674   -29321.297    17919.943 
   28400    307.14983   -29155.614    146.48885   -29302.103   -18150.316 
   28600    335.39876   -29131.544     159.9616   -29291.506   -7694.8415 
   28800    288.72779     -29163.7    137.70283   -29301.403   -278.86945 
   29000    276.61589   -29171.734    131.92631    -29303.66    23611.839 
   29200    318.73056   -29137.003    152.01204   -29289.015    1116.5756 
   29400    301.99775   -29157.273    144.03167   -29301.305   -20231.352 
   29600    308.28688   -29169.494    147.03114   -29316.525    4902.6615 
   29800    295.85402   -29164.583    141.10154   -29305.684     6360.968 
   30000    317.96812   -29150.407    151.64841   -29302.055    -13748.26 
   30200    282.71518   -29180.298    134.83524   -29315.133    11960.237 
   30400    290.70638   -29161.363    138.64648    -29300.01   -19606.294 
   30600    301.94209   -29149.231    144.00512   -29293.236     46215.39 
   30800    306.45719    -29160.35    146.15851   -29306.509    3302.6471 
   31000    308.23572   -29170.304    147.00674   -29317.311   -13396.703 
   31200    270.66184   -29180.835    129.08664   -29309.922    -27092.08 
   31400    299.66082   -29149.378    142.91712   -29292.296    18315.929 
   31600    287.30575     -29167.3    137.02462   -29304.325   -894.78313 
   31800    273.42021   -29180.625    130.40219   -29311.027    11892.469 
   32000    329.22745   -29144.857    157.01832   -29301.875    22531.838 
   32200    282.05432   -29159.174    134.52006   -29293.694   -13561.398 
   32400    262.53706   -29177.109     125.2117   -29302.321    6716.5854 
   32600    326.21558   -29141.249    155.58187   -29296.831   -7018.0633 
   32800    294.59488   -29163.806    140.50102   -29304.307   -11325.218 
   33000    333.87952   -29141.566    159.23703   -29300.803    30938.504 
   33200    301.63778   -29156.629    143.85999   -29300.489    17896.623 
   33400     285.8294   -29163.755     136.3205   -29300.076   -51143.086 
   33600    317.47809    -29139.97     151.4147   -29291.385    17471.625 
   33800    277.48412   -29171.094    132.34039   -29303.435    5244.3828 
   34000    286.24777   -29177.342    136.52004   -29313.862   -16739.656 
   34200    285.31403   -29149.438    136.07471   -29285.513   -12522.085 
   34400    320.42122   -29164.854    152.81837   -29317.673   -17634.743 
   34600    296.69453   -29168.719     141.5024   -29310.222    32168.135 
   34800    321.56545   -29153.222    153.36408   -29306.586   -57403.335 
   35000    323.39829   -29132.049    154.23822   -29286.287    26393.687 
   35200    267.68559   -29169.689    127.66719   -29297.356    8023.7921 
   35400    304.63809   -29147.819    145.29092    -29293.11   -13257.951 
   35600    330.39292   -29135.042    157.57417   -29292.616    27600.287 
   35800    277.69893   -29171.844    132.44284   -29304.287    15392.169 
   36000    286.49885   -29147.933    136.63978   -29284.573   -2962.0255 
   36200    265.89052   -29171.702    126.81106   -29298.513   -4307.9464 
   36400    287.12257   -29168.798    136.93726   -29305.735   -3951.3077 
   36600    297.78685   -29164.642    142.02337   -29306.666    14592.801 
   36800    246.80404   -29201.533    117.70815   -29319.241    8051.4043 
   37000    303.30723   -29169.465     144.6562   -29314.121    21956.991 
   37200    320.67709   -29164.373     152.9404   -29317.313     4553.477 
   37400    268.66174   -29190.989    128.13274   -29319.121     814.2949 
   37600     317.6908   -29157.854    151.51615    -29309.37    21584.118 
   37800    308.38833   -29168.042    147.07953   -29315.121    10413.844 
   38000    291.59282    -29180.57    139.06925   -29319.639    25649.702 
   38200    278.37015   -29164.433    132.76297   -29297.196    42132.494 
   38400     280.1789   -29166.311    133.62561   -29299.936    28492.929 
   38600    259.77418   -29189.663      123.894   -29313.557   -4023.9209 
   38800    306.26121   -29154.432    146.06504   -29300.497    52690.549 
   39000    308.53151   -29176.079    147.14781   -29323.227   -47662.683 
   39200    288.33583   -29178.403    137.51589   -29315.919    35754.125 
   39400    334.57655   -29142.669    159.56946   -29302.238    17881.799 
   39600    323.54887   -29155.878    154.31004   -29310.188    17648.663 
   39800    287.81433   -29171.194    137.26718   -29308.461   -7610.0477 
   40000    274.08829   -29170.854    130.72082   -29301.575   -17191.929 
   40200    285.14816   -29147.519     135.9956   -29283.515   -76531.044 
   40400    315.63785   -29151.457    150.53704   -29301.994   -12353.534 
   40600    284.94274   -29179.275    135.89763   -29315.172    64318.695 
   40800    327.51353    -29154.14     156.2009   -29310.341    -18893.27 
   41000    340.08193   -29151.842    162.19514   -29314.037   -7245.0246 
   41200     289.7059   -29178.491    138.16932    -29316.66   -39250.719 
   41400    299.86619   -29164.665    143.01506    -29307.68   -32205.095 
   41600    284.00652   -29145.534    135.45112   -29280.985   -37233.967 
   41800    259.60979   -29180.092    123.81559   -29303.908   -48080.811 
   42000    306.63339   -29158.823    146.24254   -29305.065    7867.9063 
   42200    298.74245   -29145.496    142.47912   -29287.975    8020.3439 
   42400    295.64889   -29162.169    141.00371   -29303.172    46248.085 
   42600    273.59589   -29170.214    130.48598     -29300.7    19161.682 
   42800    327.81821   -29145.186    156.34621   -29301.532    2286.0327 
   43000    299.50519   -29164.294    142.84289   -29307.137   -37482.713 
   43200    296.29851   -29175.285    141.31353   -29316.599    9398.7189 
   43400    307.53046   -29157.011    146.67038   -29303.682   -9585.7662 
   43600    301.65698   -29164.507    143.86915   -29308.376    41803.899 
   43800    295.64663    -29174.91    141.00263   -29315.913   -15466.408 
   44000    311.19021   -29157.441    148.41583   -29305.857    7141.0456 
   44200    315.87431   -29156.512    150.64981   -29307.161   -6885.8315 
   44400    271.63462   -29180.513    129.55059   -29310.064    2933.5762 
   44600    275.11021    -29165.26     131.2082   -29296.468    15474.337 
   44800    329.04928   -29185.908    156.93335   -29342.842   -11284.843 
   45000    283.47645    -29207.91    135.19831   -29343.108   -36344.967 
   45200    319.38892   -29185.423    152.32603   -29337.749   -34950.547 
   45400    294.42239   -29191.133    140.41876   -29331.552   -13049.109 
   45600    295.83671   -29207.672    141.09329   -29348.765    53626.236 
   45800    330.94393   -29180.457    157.83696   -29338.294     12026.96 
   46000    303.95095   -29184.643    144.96321   -29329.606   -16092.016 
   46200    291.20366   -29198.304    138.88365   -29337.187   -7635.9015 
   46400    297.58833   -29194.848    141.92869   -29336.776   -10027.477 
   46600    301.55022   -29171.394    143.81823   -29315.213   -9796.1529 
   46800    289.70908   -29194.942    138.17084   -29333.113   -10771.502 
   47000      283.159   -29189.502    135.04691   -29324.549    13126.586 
   47200    309.81501   -29176.698    147.75995   -29324.458    5100.3756 
   47400    319.98626   -29175.707    152.61092   -29328.318    28313.533 
   47600    252.38374   -29207.636    120.36928   -29328.005    11502.282 
   47800    323.59727   -29186.413    154.33312   -29340.746    24584.598 
   48000    294.79827   -29180.381    140.59802   -29320.979   -11982.552 
   48200    297.95046   -29194.117     142.1014   -29336.218   -13565.726 
   48400     264.1613   -29197.473    125.98634    -29323.46    2463.8777 
   48600     318.0155   -29173.005    151.67101   -29324.676    17972.528 
   48800    293.59735    -29192.26    140.02527   -29332.285   -31664.987 
   49000    299.31211   -29200.019    142.75081    -29342.77   -4765.1779 
   49200    310.81836   -29189.945    148.23848   -29338.184   -39725.531 
   49400    291.04221   -29183.308    138.80665   -29322.115     4347.837 
   49600    303.11928   -29201.062    144.56656   -29345.629    16128.356 
   49800    289.96332   -29201.898    138.29209    -29340.19   -18856.288 
   50000    322.42093   -29176.851    153.77209   -29330.624    11671.405 
   50200    306.45438   -29189.317    146.15717   -29335.474    6068.5692 
   50400    255.74841   -29221.133    121.97399   -29343.107   -30168.069 
   50600      295.646   -29189.866    141.00233   -29330.868   -12104.107 
   50800    306.94345   -29177.621    146.39042   -29324.011    29723.445 
   51000     277.6255    -29194.41    132.40782   -29326.818    13863.872 
   51200    284.01539   -29199.038    135.45535   -29334.494     14650.44 
   51400     311.9869   -29175.609    148.79579   -29324.404    6011.9766 
   51600    296.43723   -29194.071    141.37969   -29335.451   -29671.648 
   51800    298.99299    -29192.03    142.59861   -29334.628    22366.968 
   52000    327.45201   -29188.478    156.17156    -29344.65    46338.109 
   52200    283.40218    -29203.19    135.16289   -29338.353    24872.457 
   52400    306.26577   -29172.402    146.06721   -29318.469   -13981.095 
   52600    289.92876   -29192.267    138.27561   -29330.543   -25856.468 
   52800    300.28937   -29189.141    143.21689   -29332.358   -56802.134 
   53000    333.83515    -29179.62    159.21587   -29338.836   -17896.737 
   53200    248.02227   -29206.933    118.28916   -29325.222   -2252.8357 
   53400    294.43003   -29180.775     140.4224   -29321.198    9061.3254 
   53600    302.54197   -29188.011    144.29122   -29332.302   -1069.8902 
   53800    311.91556   -29205.096    148.76176   -29353.857    14092.421 
   54000    293.32646   -29192.532    139.89607   -29332.428    2762.1455 
   54200    302.22126   -29186.264    144.13827   -29330.403    6671.8186 
   54400    289.19675   -29217.982    137.92649   -29355.909    21518.888 
   54600     317.6055   -29188.382    151.47547   -29339.857   -1708.7648 
   54800    304.86425   -29191.724    145.39879   -29337.122    1258.9709 
   55000    277.79851   -29211.726    132.49033   -29344.217    20737.707 
   55200    321.04987   -29177.837    153.11819   -29330.955    1688.7418 
   55400    303.60823   -29193.841    144.79975   -29338.641    28505.249 
   55600    303.16136   -29199.732    144.58663   -29344.318    7182.0907 
   55800    293.28619   -29201.957    139.87687   -29341.834   -29370.654 
   56000    267.55693   -29217.461    127.60582   -29345.067   -12448.905 
   56200    322.86392   -29187.256    153.98336   -29341.239    18871.893 
   56400     323.5496   -29205.735    154.31038   -29360.046   -8199.6393 
   56600    265.59134   -29222.262    126.66837   -29348.931    8558.2588 
   56800    293.15762   -29177.859    139.81555   -29317.675    68304.245 
   57000    301.03539   -29190.882    143.57269   -29334.455   -35711.484 
   57200    294.60209   -29197.785    140.50446   -29338.289   -23227.481 
   57400     317.7556   -29167.418    151.54706   -29318.965    27493.132 
   57600     282.4688   -29192.005    134.71773   -29326.722     34260.16 
   57800    281.48716   -29180.404    134.24956   -29314.653   -39271.424 
   58000    320.89764   -29164.452    153.04558   -29317.498   -25762.332 
   58200    301.46311   -29189.301    143.77668   -29333.078   -21833.283 
   58400    321.82949   -29176.423    153.49001   -29329.913   -50043.133 
   58600     325.0647   -29165.689    155.03298   -29320.722    7056.9643 
   58800    304.77901   -29191.004    145.35814   -29336.362   -27615.203 
   59000    305.28729   -29189.872    145.60055   -29335.472   -29870.033 
   59200    275.43874    -29202.59    131.36489   -29333.955    4502.0241 
   59400    306.00103   -29186.302    145.94095   -29332.243    4100.6599 
   59600    310.16737   -29185.625      147.928   -29333.553    2955.8955 
   59800    286.11942   -29204.468    136.45882   -29340.927   -29095.571 
   60000    329.45277   -29187.855    157.12578   -29344.981   -7449.1927 
   60200    303.64614   -29194.599    144.81784   -29339.417    10325.852 
   60400    286.84621   -29209.886    136.80545   -29346.691    19842.525 
   60600    363.12293   -29175.853    173.18408   -29349.037   -48618.271 
   60800    302.91302   -29186.117    144.46819   -29330.585    27761.706 
   61000    297.71046   -29193.763    141.98693    -29335.75   -15633.541 
   61200    272.86864   -29222.232    130.13913   -29352.371   -17665.034 
   61400    310.51589   -29185.736    148.09422    -29333.83     35254.85 
   61600    293.55757   -29199.951     140.0063   -29339.957   -26685.547 
   61800    277.80985   -29207.754    132.49574    -29340.25    -15502.06 
   62000    320.67777   -29181.262    152.94072   -29334.202     34413.99 
   62200    304.58254   -29205.303    145.26443   -29350.568    2877.2459 
   62400    324.34961   -29185.573    154.69193   -29340.265    681.38347 
   62600    324.57382   -29179.098    154.79887   -29333.897    26062.565 
   62800    322.00086   -29201.252    153.57174   -29354.824    1290.7293 
   63000     279.4269   -29191.388    133.26696   -29324.655   -30168.547 
   63200     305.7759   -29161.007    145.83358    -29306.84    51.147542 
   63400     294.0659   -29191.013    140.24873   -29331.262   -17592.411 
   63600     310.8961   -29197.918    148.27556   -29346.193   -11239.408 
   63800     312.4481   -29165.705    149.01575    -29314.72    -42223.41 
   64000    285.64391   -29190.678    136.23204    -29326.91   -39859.608 
   64200    297.23385   -29184.718    141.75962   -29326.477   -12385.601 
   64400    309.59118   -29175.379     147.6532   -29323.032   -11559.905 
   64600     285.2683    -29192.58     136.0529   -29328.633   -4869.9757 
   64800    284.92528    -29183.98     135.8893   -29319.869    12856.765 
   65000    338.14284   -29166.052    161.27033   -29327.322    36065.045 
   65200    308.22159   -29195.377          147   -29342.377    33108.107 
   65400    300.29427   -29181.638    143.21923   -29324.858   -18130.713 
   65600    319.42333   -29186.011    152.34244   -29338.353    27355.908 
   65800    243.03655   -29203.553    115.91133   -29319.464    1015.1856 
   66000    337.63523   -29176.194    161.02824   -29337.222     7668.579 
   66200    297.57367   -29192.205    141.92169   -29334.127    13406.864 
   66400    307.37246   -29185.923    146.59503   -29332.518    38712.723 
   66600    324.85821    -29174.86     154.9345   -29329.795   -19805.112 
   66800    276.00227   -29195.041    131.63365   -29326.675    2231.6636 
   67000    344.85267   -29171.454    164.47045   -29335.924    11878.789 
   67200     303.8353   -29184.836    144.90805   -29329.744    18095.299 
   67400    299.60242   -29201.328    142.88926   -29344.217    3541.9133 
   67600     294.4974    -29196.87    140.45453   -29337.324    24388.333 
   67800    326.31787   -29180.291    155.63066   -29335.921    20415.323 
   68000    293.48457   -29213.207    139.97148   -29353.178    9755.8145 
   68200    321.67646   -29191.969    153.41703   -29345.386     9121.785 
   68400    284.79567   -29197.829    135.82749   -29333.656    -23449.03 
   68600    307.76793   -29193.065    146.78364   -29339.849   -45833.291 
   68800     336.8604   -29185.382     160.6587   -29346.041   -18375.406 
   69000    262.86211   -29212.897    125.36672   -29338.264    -23044.92 
   69200    288.43985   -29186.706     137.5655   -29324.271   -10546.932 
   69400    308.67742   -29195.817     147.2174   -29343.035     1780.395 
   69600    259.81942   -29222.185    123.91558   -29346.101     23966.58 
   69800     295.4676   -29204.464    140.91725   -29345.381    18915.998 
   70000    331.45202   -29190.324    158.07928   -29348.403    59458.869 
   70200    272.96083   -29223.074     130.1831   -29353.257   -7923.1768 
   70400    317.50916   -29207.828    151.42952   -29359.258    -13641.92 
   70600    317.40853   -29209.208    151.38152   -29360.589    10066.446 
   70800    291.30556   -29235.737    138.93225   -29374.669    19139.336 
   71000    288.23629   -29204.409    137.46842   -29341.877   -28795.662 
   71200    333.16583   -29193.958    158.89665   -29352.855   -16088.241 
   71400    305.41051   -29191.041    145.65931   -29336.701    14433.825 
   71600    318.95407   -29176.847    152.11864   -29328.966    19548.222 
   71800    278.98538   -29205.188    133.05639   -29338.244    9995.4348 
   72000    282.48359   -29193.369    134.72479   -29328.094    14843.923 
   72200     323.3229   -29185.174    154.20227   -29339.377    7658.3983 
   72400    303.88059    -29204.42    144.92965    -29349.35    67918.471 
   72600    276.99365   -29192.594    132.10647     -29324.7   -11841.692 
   72800    351.87776   -29177.464    167.82092   -29345.285   -28967.678 
   73000    291.12419   -29203.776    138.84574   -29342.622   -19013.559 
   73200    318.49939   -29166.069    151.90179   -29317.971    2989.0753 
   73400    275.83865   -29192.322    131.55562   -29323.877   -38182.726 
   73600    306.98695   -29187.127    146.41117   -29333.538    5050.9975 
   73800    314.09556   -29156.041    149.80147   -29305.843    2747.1596 
   74000    305.38705    -29191.85    145.64813   -29337.498    8790.6391 
   74200    279.59379   -29192.727    133.34655   -29326.073   -14446.601 
   74400    334.08281   -29174.377    159.33398   -29333.711    16469.189 
   74600    278.55662   -29207.667     132.8519   -29340.519    12578.459 
   74800     307.8499   -29190.464    146.82273   -29337.286   -15173.962 
   75000    312.15719   -29176.579      148.877   -29325.456    15080.863 
   75200    304.53455   -29195.495    145.24154   -29340.736   -10276.475 
   75400    278.45519   -29187.749    132.80352   -29320.552    51737.731 
   75600    320.44091    -29168.95    152.82776   -29321.778    18391.633 
   75800    273.11984   -29197.204    130.25894   -29327.463   -9195.9523 
   76000     311.1189   -29173.183    148.38182   -29321.565    30322.595 
   76200     291.3635   -29177.402    138.95988   -29316.362    12796.172 
   76400    288.14556   -29188.432    137.42515   -29325.857   -22091.445 
   76600    269.43724   -29194.802     128.5026   -29323.304   -18222.837 
   76800    292.07088   -29197.592    139.29725   -29336.889   -1128.2336 
   77000    315.49978   -29175.118    150.47119   -29325.589    6094.3772 
   77200    303.15952   -29207.693    144.58575   -29352.279   -30819.834 
   77400    285.62328   -29195.473     136.2222   -29331.695    17238.043 
   77600    323.05537    -29180.35    154.07467   -29334.425   -11256.128 
   77800    295.89206   -29193.134    141.11968   -29334.253    15744.561 
   78000    285.48173   -29195.981    136.15469   -29332.136    -12904.24 
   78200    319.87386   -29161.384    152.55732   -29313.942    24972.252 
   78400    301.49597   -29194.688    143.79235   -29338.481    15830.114 
   78600    313.06904   -29195.409     149.3119   -29344.721    2968.7773 
   78800    308.34306   -29162.362    147.05793    -29309.42   -18716.857 
   79000    318.22385   -29187.862    151.77038   -29339.632    -21306.66 
   79200    313.98378   -29198.173    149.74816   -29347.921      5830.73 
   79400    268.05507    -29218.21     127.8434   -29346.053    4898.6349 
   79600    315.32864   -29196.514    150.38957   -29346.904   -28910.119 
   79800    301.48823   -29186.963    143.78866   -29330.752    16815.014 
   80000    272.08837   -29196.578      129.767   -29326.345    8380.3845 
   80200    311.57233   -29186.246    148.59807   -29334.844   -9251.0022 
   80400    316.17012   -29164.277    150.79089   -29315.067    25697.677 
   80600    278.79341   -29193.606    132.96483   -29326.571    4853.9091 
   80800    302.90505   -29190.181    144.46439   -29334.646    17787.559 
   81000    330.79299   -29158.715    157.76497    -29316.48   -4762.9727 
   81200    284.86184   -29195.633    135.85905   -29331.492   -41201.736 
   81400    306.15186   -29196.375    146.01289   -29342.387    14647.428 
   81600    276.19281   -29221.215    131.72453    -29352.94    36344.165 
   81800    285.49266   -29191.426     136.1599   -29327.586    125.48971 
   82000    289.64145   -29195.513    138.13858   -29333.651    4832.0143 
   82200     258.2993   -29210.593    123.19058   -29333.783    12285.157 
   82400    308.30257   -29178.426    147.03862   -29325.464   -26923.503 
   82600     281.8601   -29196.064    134.42743   -29330.491   -8183.8936 
   82800    273.94125   -29194.585    130.65069   -29325.236   -16212.367 
   83000    326.44201   -29179.089    155.68986   -29334.779    14363.421 
   83200    260.56757   -29201.867    124.27239    -29326.14   -3587.2794 
   83400    323.28644   -29169.775    154.18488    -29323.96    2279.5235 
   83600    302.70806   -29180.756    144.37044   -29325.126   -15163.974 
   83800    311.84712   -29197.712    148.72912   -29346.441   -8654.6467 
   84000    329.07759   -29161.769    156.94685   -29318.716    936.68415 
   84200    312.19079    -29191.07    148.89303   -29339.963   -4264.8454 
   84400    304.99535   -29184.475    145.46131   -29329.936   -7554.1465 
   84600    322.24827   -29147.074    153.68974   -29300.764   -13154.054 
   84800    320.39528   -29180.807    152.80599   -29333.613    7764.4008 
   85000    305.06579   -29199.341    145.49491   -29344.836    45274.129 
   85200    302.39229   -29195.568    144.21984   -29339.788    53244.432 
   85400    315.65139   -29183.344    150.54349   -29333.888    10222.393 
   85600      304.333    -29202.38    145.14542   -29347.525    11655.523 
   85800    284.10598   -29211.083    135.49856   -29346.581    -13609.73 
   86000    308.12433   -29178.519    146.95362   -29325.472   -610.27769 
   86200    302.10359   -29203.051    144.08214   -29347.133      46439.1 
   86400    317.15003   -29208.689    151.25824   -29359.948    16264.041 
   86600    281.82299   -29192.277    134.40973   -29326.687   -8591.0728 
   86800    317.06733    -29176.02     151.2188   -29327.239    20973.917 
   87000    290.40641    -29195.28    138.50342   -29333.784   -7432.7624 
   87200    287.08579   -29192.897    136.91971   -29329.817   -10938.841 
   87400    312.41419   -29166.558    148.99958   -29315.558   -510.31513 
   87600    282.52692   -29193.035    134.74545   -29327.781    20371.269 
   87800     269.6766   -29191.445    128.61675   -29320.062   -23780.586 
   88000    309.01086   -29169.488    147.37643   -29316.865     16518.29 
   88200    304.18954    -29193.04      145.077   -29338.117    42244.578 
   88400    284.06706   -29190.241    135.47999   -29325.721   -18729.066 
   88600    308.50307   -29170.261    147.13425   -29317.395    26148.034 
   88800    294.10294    -29195.82     140.2664   -29336.086    21136.353 
   89000     287.6089   -29182.698     137.1692   -29319.867   -14784.367 
   89200    355.86291   -29159.546    169.72156   -29329.267    10620.244 
   89400    290.73057   -29186.555    138.65802   -29325.213   -21333.622 
   89600    290.84662   -29196.186    138.71336   -29334.899    16511.644 
   89800    318.75852   -29167.217    152.02537   -29319.242   -27608.461 
   90000    282.33709   -29183.034    134.65492   -29317.689    3527.1602 
   90200    313.04818   -29187.707    149.30194   -29337.009     49558.85 
   90400    283.37802   -29216.321    135.15137   -29351.473   -6152.5254 
   90600    290.05061   -29192.845    138.33373   -29331.179    10921.542 
   90800    313.90415   -29186.211    149.71018   -29335.921   -26367.472 
   91000    280.44171   -29213.724    133.75096   -29347.475   -4230.7597 
   91200    316.86587   -29189.303    151.12272   -29340.425     -31779.9 
   91400    286.15341   -29186.088    136.47503   -29322.563    47401.533 
   91600    288.39022   -29197.699    137.54183   -29335.241    21473.289 
   91800    292.79155   -29194.043    139.64096   -29333.684    15731.081 
   92000    329.16543   -29172.799    156.98874   -29329.787    25469.369 
   92200    297.33937   -29200.303    141.80995   -29342.113   -6604.2657 
   92400    303.81281   -29189.793    144.89732    -29334.69    11405.733 
   92600    328.66212   -29176.558    156.74869   -29333.307    73839.646 
   92800     286.7929   -29200.862    136.78002   -29337.642   -6741.0989 
   93000    287.17534   -29196.444    136.96242   -29333.406    -19178.38 
   93200    315.64931   -29173.509     150.5425   -29324.051   -46071.622 
   93400    305.43265   -29189.703    145.66987   -29335.373   -17101.109 
   93600    301.46397   -29202.982     143.7771   -29346.759   -2923.3949 
   93800    295.12286    -29207.95    140.75283   -29348.703   -9406.7982 
   94000    323.65792    -29180.36    154.36204   -29334.722   -8590.7181 
   94200    279.86904   -29201.662    133.47783    -29335.14    4736.6892 
   94400    298.31589   -29211.647    142.27568   -29353.923   -4059.9309 
   94600    308.55281   -29182.235    147.15797   -29329.393    13595.934 
   94800    285.91667   -29197.375    136.36213   -29333.737   -29035.183 
   95000    285.89857   -29204.627     136.3535   -29340.981    25251.911 
   95200    305.10271   -29172.612    145.51252   -29318.124   -18664.386 
   95400    266.55864   -29196.149    127.12971   -29323.278   -2881.3454 
   95600    309.99442   -29205.109    147.84552   -29352.955    1957.8046 
   95800    301.41078   -29187.672    143.75173   -29331.424   -53693.021 
   96000    305.87134   -29171.355     145.8791   -29317.234   -1453.9657 
   96200    289.13299   -29206.863    137.89608   -29344.759   -14504.623 
   96400    284.02469   -29191.593    135.45978   -29327.053   -26592.182 
   96600    303.23267   -29181.565    144.62064   -29326.185    28827.905 
   96800    284.70945   -29193.812    135.78637   -29329.599   -811.98511 
   97000    291.90036   -29194.181    139.21592   -29333.397    4825.0881 
   97200    297.85836    -29190.41    142.05747   -29332.468    13435.657 
   97400    291.96591   -29189.824    139.24719   -29329.071    45987.232 
   97600    301.83442   -29186.394    143.95377   -29330.347   -15763.235 
   97800    322.91516   -29180.113     154.0078   -29334.121   -15993.761 
   98000    291.82802   -29201.394    139.18143   -29340.575   -34647.395 
   98200    289.71396   -29196.775    138.17317   -29334.948   -4623.5669 
   98400    297.91169   -29178.698     142.0829    -29320.78    29863.054 
   98600     284.5255   -29201.122    135.69863   -29336.821    16417.665 
   98800    274.35885    -29208.84    130.84986   -29339.689    43566.548 
   99000    317.30582   -29177.206    151.33254   -29328.539   -31614.221 
   99200    288.34332    -29197.24    137.51947   -29334.759    -72975.23 
   99400    278.63849   -29202.927    132.89095   -29335.818    -44017.46 
   99600    300.45356   -29191.088     143.2952   -29334.383   -24377.198 
   99800    292.25085    -29187.76    139.38308   -29327.143   -15469.556 
  100000    277.83609   -29201.958    132.50826   -29334.466     -11904.1 
  100200    273.60652   -29208.701    130.49105   -29339.192    23362.273 
  100400    302.95858   -29175.559    144.48992   -29320.049    18434.161 
  100600    305.53894   -29192.261    145.72057   -29337.981    -5073.391 
  100800     292.8982   -29204.699    139.69182   -29344.391    8018.4051 
  101000    299.09039   -29188.994    142.64506   -29331.639    19684.176 
  101200     297.3799   -29189.524    141.82928   -29331.353    12216.933 
  101400    309.69838   -29214.216    147.70432   -29361.921    29533.123 
  101600    314.37201    -29186.35    149.93332   -29336.283   -9297.7845 
  101800    287.85147   -29190.003    137.28489   -29327.288   -8741.2313 
  102000    290.92211   -29206.277    138.74937   -29345.026   -28217.383 
  102200    271.62082   -29233.766    129.54401    -29363.31   -29971.603 
  102400    296.01445   -29201.871    141.17806   -29343.049    719.26858 
  102600    321.06184   -29190.409     153.1239   -29343.533   -3264.2663 
  102800    286.38081   -29207.785    136.58349   -29344.368   -37509.178 
  103000    283.95513   -29202.149    135.42661   -29337.576   -32552.974 
  103200    309.41746   -29185.513    147.57035   -29333.084     2520.355 
  103400    310.63086   -29201.363    148.14906   -29349.512    35723.365 
  103600    306.83492   -29202.437    146.33866   -29348.776    15585.411 
  103800     270.5386   -29207.991    129.02787   -29337.019   -12955.599 
  104000    319.36822   -29205.516    152.31616   -29357.832    21149.692 
  104200    304.94761   -29184.606    145.43855   -29330.045    20351.042 
  104400    265.10775    -29215.03    126.43774   -29341.467   -15222.074 
  104600    283.05444   -29206.182    134.99704   -29341.179   -27848.398 
  104800     316.2742     -29185.1    150.84053    -29335.94     32864.58 
  105000    299.18866    -29197.58    142.69193   -29340.272    6541.8083 
  105200    285.33689   -29207.116    136.08561   -29343.202   -44014.765 
  105400    305.43569   -29185.532    145.67132   -29331.203    9670.0772 
  105600     296.8163   -29198.157    141.56048   -29339.717     12015.71 
  105800    302.81491   -29193.057     144.4214   -29337.478   -18480.237 
  106000    304.18974   -29188.751    145.07709   -29333.828     8603.507 
  106200    286.09299   -29208.268    136.44622   -29344.714    23364.642 
  106400    333.38904   -29173.484     159.0031   -29332.487    8464.4622 
  106600    290.58807   -29195.039    138.59005   -29333.629    40575.552 
  106800    271.45593   -29201.427    129.46537   -29330.892    15789.725 
  107000    345.00963   -29159.748    164.54531   -29324.293    -1277.627 
  107200    289.70733   -29181.539       138.17   -29319.709   -40895.419 
  107400    279.74198   -29201.882    133.41723     -29335.3    33196.987 
  107600    315.45234   -29181.452    150.44856     -29331.9    3636.7308 
  107800    324.26334    -29185.24    154.65079   -29339.891   -48721.952 
  108000    302.12717   -29202.802    144.09339   -29346.896    29674.322 
  108200    306.64908   -29188.788    146.25003   -29335.038     -19772.7 
  108400    313.35998   -29162.631    149.45065   -29312.082   -629.84755 
  108600    268.44332   -29197.838    128.02857   -29325.867   -41693.975 
  108800    332.99783   -29185.493    158.81652    -29344.31   -1340.9517 
  109000    286.28146   -29168.711     136.5361   -29305.247    22862.207 
  109200    308.08466   -29195.772     146.9347   -29342.707    34891.956 
  109400    296.21153    -29184.72    141.27205   -29325.993   -49932.829 
  109600    300.64373   -29172.421    143.38589   -29315.807    52776.275 
  109800    280.60645   -29193.033    133.82952   -29326.862    39423.536 
  110000     319.5226   -29196.997    152.38979   -29349.386   -10531.609 
  110200    316.31279   -29156.611    150.85893    -29307.47    22909.781 
  110400    291.54146   -29192.766    139.04475    -29331.81    7040.2449 
  110600     312.9095   -29202.448    149.23581   -29351.683   -8849.1296 
  110800    324.88061   -29172.515    154.94518    -29327.46    14963.403 
  111000    282.60447   -29201.998    134.78244    -29336.78    1087.7943 
  111200    321.77798   -29198.256    153.46545   -29351.721    30691.877 
  111400    318.66845   -29174.784    151.98242   -29326.767    53326.932 
  111600    338.36024   -29170.937    161.37402   -29332.311   -19912.193 
  111800    276.73768   -29201.112    131.98439   -29333.097    6214.4272 
  112000    318.55896   -29178.889     151.9302    -29330.82    23935.115 
  112200    306.37922   -29178.395    146.12132   -29324.517   -66963.856 
  112400    312.29377   -29186.262    148.94214   -29335.204    11446.238 
  112600    265.75831   -29194.946    126.74801   -29321.694    32927.218 
  112800    263.16429   -29209.063    125.51084   -29334.573    10280.006 
  113000    325.89158   -29176.515    155.42734   -29331.942   -54720.054 
  113200    304.97613   -29200.234    145.45215   -29345.686    31672.609 
  113400    289.58446   -29200.541     138.1114   -29338.653    53051.849 
  113600    311.05431   -29188.423    148.35101   -29336.774     8081.365 
  113800    344.22816   -29182.699     164.1726   -29346.872   -3441.7283 
  114000    285.09542   -29204.467    135.97045   -29340.437   -1803.9907 
  114200    307.27718   -29184.323    146.54958   -29330.872    6353.0027 
  114400    290.80855   -29190.665    138.69521    -29329.36   -33829.517 
  114600    286.57249   -29203.136     136.6749   -29339.811   -7677.3145 
  114800    306.20031   -29182.455    146.03599   -29328.491   -15632.097 
  115000    283.23523   -29213.402    135.08327   -29348.485   -35714.632 
  115200    302.67915   -29204.084    144.35665   -29348.441    6467.2689 
  115400    299.75315   -29193.467    142.96115   -29336.429    13016.459 
  115600    269.01195   -29211.905    128.29976   -29340.205    12607.945 
  115800    282.49457   -29209.259    134.73002   -29343.989    11341.082 
  116000    316.72435   -29185.633    151.05522   -29336.688   -22388.443 
  116200    299.25419   -29174.807    142.72318    -29317.53     47217.82 
  116400     325.2757   -29172.778    155.13361   -29327.911    2322.8625 
  116600    258.22214   -29198.485    123.15378   -29321.639    7322.7074 
  116800    323.53848   -29172.969    154.30508   -29327.274   -62580.372 
  117000    312.76756   -29177.063    149.16811   -29326.231   -10786.879 
  117200    283.47409   -29193.266    135.19719   -29328.464   -37814.049 
  117400    297.40884   -29172.664    141.84308   -29314.507    17528.485 
  117600    297.08481   -29175.145    141.68854   -29316.833    5709.8401 
  117800    281.45555   -29193.762    134.23448   -29327.997    23961.905 
  118000    308.75682     -29167.8    147.25527   -29315.055    -19990.26 
  118200    277.84213    -29180.08    132.51114   -29312.591   -8198.8333 
  118400    282.27358   -29194.432    134.62463   -29329.057   -6597.0812 
  118600    318.66403   -29164.581    151.98031   -29316.561    519.16864 
  118800    293.96328   -29183.503    140.19979   -29323.703   -11753.208 
  119000    306.75285   -29188.918    146.29952   -29335.217     1854.063 
  119200    310.70763   -29192.844    148.18567    -29341.03    49258.246 
  119400    288.81229   -29208.578    137.74313   -29346.321   -10719.629 
  119600    338.97502   -29178.237    161.66722   -29339.904   -950.17917 
  119800    300.79061   -29185.419    143.45595   -29328.875    61605.993 
  120000    282.88898   -29196.136    134.91813   -29331.054   -42297.257 
  120200     295.7286   -29188.805    141.04173   -29329.847    3427.6124 
  120400    285.83058   -29205.099    136.32107    -29341.42   -10625.394 
  120600    294.08965   -29193.688    140.26006   -29333.948    13905.565 
  120800    280.34032   -29184.302     133.7026   -29318.005    18166.065 
  121000    295.86211   -29202.252     141.1054   -29343.357    16562.915 
  121200    283.74555    -29204.25    135.32665   -29339.577    4617.9556 
  121400    301.19334   -29178.406    143.64802   -29322.054    11965.391 
  121600    286.71784   -29204.576    136.74423   -29341.321    10264.912 
  121800    277.41497   -29210.938    132.30741   -29343.245     16258.27 
  122000    290.95736   -29188.502    138.76618   -29327.269   -6290.2842 
  122200    319.62472   -29188.152    152.43849   -29340.591    6248.1907 
  122400    291.89308   -29213.859    139.21245   -29353.072    -14276.46 
  122600    306.39951   -29191.905      146.131   -29338.036   -9398.0946 
  122800    305.29274   -29177.472    145.60315   -29323.076    3611.6673 
  123000    283.82909   -29215.302     135.3665   -29350.668   -13201.947 
  123200    298.64113   -29196.461     142.4308   -29338.892   -30513.452 
  123400    306.20723   -29184.654     146.0393   -29330.693    35213.668 
  123600    293.64557   -29201.125    140.04827   -29341.173    22396.197 
  123800    278.17071   -29211.491    132.66785   -29344.159   -28939.329 
  124000    285.80635   -29206.645    136.30951   -29342.954   -16077.339 
  124200    304.36591   -29186.046    145.16111   -29331.207    15348.334 
  124400    281.91674   -29212.874    134.45444   -29347.328    1816.6102 
  124600    322.68335   -29190.343    153.89724   -29344.241   -43800.242 
  124800    304.57103   -29195.338    145.25894   -29340.596    16559.858 
  125000    292.82647   -29212.191    139.65762   -29351.849    18549.759 
  125200     338.0406    -29182.25    161.22157   -29343.471   -4960.8975 
  125400    325.04547   -29195.365    155.02381   -29350.389   -19321.161 
  125600    289.18974   -29195.696    137.92315   -29333.619    33018.841 
  125800    310.25004   -29194.303    147.96743   -29342.271   -18619.571 
  126000     300.2333   -29198.097    143.19015   -29341.287    21110.926 
  126200    307.75842   -29169.104     146.7791   -29315.883    37231.091 
  126400    312.49977   -29182.142    149.04039   -29331.183   -16870.142 
  126600    291.00229   -29198.746    138.78761   -29337.533   -2855.7452 
  126800    322.10256   -29168.639    153.62025   -29322.259   -27941.039 
  127000    320.21335    -29178.93    152.71923   -29331.649    17375.769 
  127200    273.05721   -29198.402    130.22907   -29328.631    59277.332 
  127400    334.12733   -29165.076    159.35522   -29324.431   -25963.034 
  127600    308.31632   -29181.068    147.04518   -29328.113    8677.3789 
  127800    310.79594   -29193.147    148.22779   -29341.375    1843.5929 
  128000    307.40701   -29165.059    146.61151   -29311.671    18863.595 
  128200    312.86119   -29192.258    149.21276   -29341.471   -19287.859 
  128400     276.7156     -29192.2    131.97386   -29324.174     30737.04 
  128600    344.47629   -29168.523    164.29094   -29332.814    10271.122 
  128800     294.0004   -29188.022     140.2175   -29328.239    13519.809 
  129000    286.45836   -29190.731    136.62047   -29327.352   -5443.8367 
  129200    306.36673   -29181.865    146.11536    -29327.98   -16056.515 
  129400    278.76108   -29201.768    132.94941   -29334.718   -4340.9292 
  129600    304.85664   -29193.394    145.39516   -29338.789     7457.503 
  129800     289.6388   -29181.839    138.13732   -29319.976   -4624.1433 
  130000     291.0056    -29203.36    138.78919   -29342.149    32684.515 
  130200    294.04225   -29191.862    140.23745     -29332.1    26809.644 
  130400     312.3415    -29185.65    148.96491   -29334.615    31626.934 
  130600    306.37462   -29176.128    146.11913   -29322.247     13944.55 
  130800    334.47634    -29169.54    159.52167   -29329.062    10430.096 
  131000    285.61398   -29200.493    136.21776   -29336.711    33993.855 
  131200     293.8609    -29181.11    140.15096   -29321.261   -23940.576 
  131400     319.6027   -29171.288    152.42799   -29323.716    4538.4187 
  131600     316.6701   -29197.432    151.02934   -29348.462    32886.596 
  131800    292.29186     -29181.2    139.40264   -29320.603    13334.088 
  132000    330.82553   -29172.835    157.78049   -29330.615   -5552.1271 
  132200    311.36111    -29189.65    148.49733   -29338.148    35341.878 
  132400    301.14201    -29209.17    143.62354   -29352.794     12466.17 
  132600    254.10006   -29228.079    121.18784   -29349.267   -13787.985 
  132800    318.52129   -29187.089    151.91224   -29339.001   -16049.349 
  133000    325.87139   -29178.816    155.41771   -29334.233    31988.865 
  133200    255.64257   -29205.479    121.92351   -29327.402   -16689.586 
  133400    325.75141   -29182.949    155.36049    -29338.31   -1958.6268 
  133600    290.69998    -29183.35    138.64343   -29321.993    3236.3619 
  133800    287.35951   -29202.081    137.05026   -29339.131   -24872.542 
  134000    339.38097   -29168.264    161.86083   -29330.125    -27150.67 
  134200    288.58558    -29198.51    137.63501   -29336.145    4977.0064 
  134400    312.24045   -29193.539    148.91671   -29342.456   -7814.6427 
  134600    327.73692   -29156.053    156.30744    -29312.36    23687.335 
  134800    293.57375   -29194.381    140.01401   -29334.395   -13042.838 
  135000       267.22   -29187.334    127.44513   -29314.779   -9208.1446 
  135200    304.00896   -29168.035    144.99088   -29313.026    4921.2373 
  135400    281.66764   -29201.046    134.33564   -29335.381   -23413.278 
  135600    316.67171   -29185.125    151.03011   -29336.155   -6253.0314 
  135800     334.6201   -29181.642    159.59023   -29341.233    20459.354 
  136000    257.39856   -29195.239      122.761       -29318   -43434.461 
  136200    346.66847   -29177.321    165.33646   -29342.658   -17213.326 
  136400    350.31257    -29170.86    167.07444   -29337.935   -26631.809 
  136600    309.25317   -29199.891    147.49199   -29347.383   -6322.4265 
  136800    261.39774     -29205.5    124.66832   -29330.169    13224.556 
  137000    332.63811   -29182.101    158.64496   -29340.746   -16304.806 
  137200    290.32871   -29190.777    138.46636   -29329.243    15143.248 
  137400    270.38487   -29208.148    128.95455   -29337.103   -2609.0857 
  137600    291.96024   -29185.726    139.24448    -29324.97   -9683.2651 
  137800     306.4725   -29189.637    146.16581   -29335.803   -8862.2994 
  138000    297.35254   -29201.807    141.81623   -29343.623    5603.5357 
  138200     258.3656   -29218.777    123.22221   -29341.999    21544.397 
  138400    305.11791   -29193.551    145.51976    -29339.07   -1129.3853 
  138600    279.91013   -29203.148    133.49743   -29336.645    28712.896 
  138800    278.88543    -29214.13    133.00872   -29347.139   -44387.187 
  139000    307.84969   -29184.175    146.82263   -29330.998   -53215.468 
  139200    288.43402   -29210.084    137.56273   -29347.647    16151.739 
  139400    278.41573   -29213.436     132.7847   -29346.221    25266.586 
  139600    277.92525   -29193.722    132.55078   -29326.273    46121.351 
  139800    384.71475   -29164.763    183.48186   -29348.245   -28579.163 
  140000    313.01461   -29189.931    149.28594   -29339.217   -18869.323 
  140200    275.91286    -29209.85    131.59101   -29341.441   -10236.293 
  140400    302.05776   -29189.295    144.06029   -29333.355    19100.157 
  140600    313.84889   -29184.732    149.68383   -29334.416    27901.995 
  140800    276.56172   -29200.055    131.90047   -29331.956   -29117.738 
  141000    286.80912   -29196.056    136.78776   -29332.844    3285.7336 
  141200    324.97626   -29166.589     154.9908    -29321.58   -2369.2893 
  141400    291.53284   -29200.528    139.04065   -29339.568   -18316.966 
  141600    286.78241   -29192.253    136.77502   -29329.028   -18534.844 
  141800    326.64806   -29170.236    155.78813   -29326.024    24191.131 
  142000    279.51894   -29207.139    133.31086    -29340.45   -2642.7583 
  142200    302.99498   -29179.334    144.50727   -29323.841    7502.6981 
  142400    299.49894   -29180.916    142.83991   -29323.756   -2509.4633 
  142600    267.82632   -29210.501     127.7343   -29338.235   -16676.361 
  142800    317.27542   -29189.987    151.31804   -29341.305   -25427.926 
  143000    292.28874   -29183.545    139.40115   -29322.946   -20629.424 
  143200    263.64365   -29213.921    125.73946   -29339.661   -1890.2212 
  143400    304.86168    -29188.96    145.39756   -29334.357   -3221.9826 
  143600    279.20554   -29191.808    133.16139   -29324.969   -7554.5214 
  143800    299.39081    -29189.54    142.78834   -29332.329   -9298.2234 
  144000    336.23502   -29170.192    160.36044   -29330.553   -13959.873 
  144200    298.72363   -29199.732    142.47015   -29342.202   -23223.553 
  144400    312.60442   -29181.543     149.0903   -29330.633    28598.268 
  144600    331.58423   -29142.294    158.14234   -29300.436   -1277.5512 
  144800    295.11214   -29179.979    140.74772   -29320.727   -20944.128 
  145000    295.13817   -29185.638    140.76013   -29326.398    9168.1752 
  145200    304.63882   -29179.561    145.29127   -29324.852    40959.773 
  145400    308.05107   -29166.697    146.91868   -29313.615    6222.2414 
  145600    298.00041   -29200.267    142.12522   -29342.392    11773.905 
  145800    300.23911   -29192.264    143.19292   -29335.457   -19209.257 
  146000    325.47075   -29153.957    155.22664   -29309.183    17663.229 
  146200    322.86656   -29192.827    153.98462   -29346.812    3933.8651 
  146400     275.9139   -29203.935    131.59151   -29335.526    19119.066 
  146600    299.08936   -29180.105    142.64457    -29322.75   -23931.608 
  146800    304.89348   -29192.669    145.41273   -29338.082    -37571.81 
  147000    284.16413   -29206.618    135.52629   -29342.144     3714.098 
  147200    276.64476   -29184.091    131.94008   -29316.031    37714.849 
  147400      310.563   -29189.552    148.11669   -29337.669    3472.2155 
  147600    255.56066   -29222.278    121.88444   -29344.163   -850.98285 
  147800    282.52889   -29206.342    134.74639   -29341.089     14216.83 
  148000     328.9645   -29187.219    156.89291   -29344.112   -36165.877 
  148200      295.516   -29184.622    140.94033   -29325.562   -20541.384 
  148400    284.36819    -29211.41    135.62361   -29347.034    23574.957 
  148600    324.30195   -29183.989     154.6692   -29338.659     40203.16 
  148800    311.78896   -29189.588    148.70139    -29338.29    -22600.29 
  149000    280.13939   -29208.017    133.60677   -29341.624    13835.582 
  149200    261.25271   -29212.237    124.59915   -29336.837    1637.5124 
  149400    274.31147   -29183.871    130.82726   -29314.699    23687.237 
  149600    290.03431   -29194.786    138.32595   -29333.112    3622.4267 
  149800      273.695   -29212.512    130.53325   -29343.046   -29114.546 
  150000    295.76703   -29179.677    141.06005   -29320.737    29199.742 
  150200    322.41451    -29195.95    153.76903   -29349.719     4388.203 
  150400    284.46074   -29212.579    135.66775   -29348.247    1666.9414 
  150600    279.68283   -29191.074    133.38902   -29324.463   -43727.408 
  150800    311.06969   -29182.419    148.35834   -29330.777    7267.3075 
  151000    308.43209   -29213.241     147.1004   -29360.342      2390.34 
  151200    301.87694   -29198.933    143.97405   -29342.907    20119.325 
  151400      300.556   -29186.777    143.34405   -29330.121   -5789.3207 
  151600     284.6844   -29208.674    135.77442   -29344.449    4310.9516 
  151800    296.45524    -29206.58    141.38828   -29347.968    48322.906 
  152000    307.55488   -29186.205    146.68203   -29332.887    3318.7775 
  152200    282.19238   -29184.999     134.5859   -29319.585    21461.545 
  152400    294.70667   -29176.678    140.55434   -29317.232   -18193.557 
  152600    294.51575   -29200.868    140.46328   -29341.331    16675.506 
  152800    302.15555   -29177.545    144.10693   -29321.652   -23483.183 
  153000    310.46411   -29181.868    148.06953   -29329.938    6115.1097 
  153200    273.61582   -29200.766    130.49549   -29331.262    4153.6454 
  153400     294.8656   -29167.743    140.63013   -29308.373   -2564.0285 
  153600    328.41095   -29171.667     156.6289   -29328.295   -3346.7686 
  153800    290.10394   -29196.544    138.35916   -29334.903     23811.21 
  154000    283.09424   -29179.846    135.01603   -29314.862    -10340.62 
  154200    331.97586   -29170.929    158.32911   -29329.258   -32376.931 
  154400    280.20233   -29195.741    133.63679   -29329.378    455.85199 
  154600    304.93149   -29182.403    145.43086   -29327.834     3294.205 
  154800    324.88888    -29153.23    154.94912   -29308.179   -2443.9955 
  155000    321.90651   -29180.892    153.52675   -29334.419   -35116.908 
  155200     292.5819   -29199.895    139.54097   -29339.436    26594.259 
  155400    331.69282   -29176.974    158.19413   -29335.168   -7176.6258 
  155600    318.16242   -29185.389    151.74108    -29337.13    2433.1163 
  155800    275.59881    -29200.88    131.44123   -29332.321    22623.259 
  156000    307.68142   -29177.355    146.74238   -29324.097    27657.827 
  156200    346.14106   -29151.942    165.08492   -29317.027   -7636.9606 
  156400    291.46028   -29192.248    139.00604   -29331.254    30617.385 
  156600     263.5563   -29192.343     125.6978   -29318.041    44962.923 
  156800    335.88008   -29163.049    160.19115    -29323.24    5130.5434 
  157000    249.82817   -29198.401    119.15045   -29317.551      12518.9 
  157200    315.14401     -29184.2    150.30151   -29334.501   -48919.927 
  157400    310.80508   -29178.382    148.23215   -29326.615   -22630.737 
  157600    262.53856   -29206.038    125.21241   -29331.251     -8570.61 
  157800    290.71338    -29183.01    138.64982   -29321.659    4838.2241 
  158000     290.1632   -29190.545    138.38742   -29328.932   -17165.104 
  158200    261.63632   -29220.839    124.78211   -29345.621     24165.03 
  158400    328.49093   -29194.439    156.66705   -29351.106   -5867.1994 
  158600    303.86327   -29189.552    144.92139   -29334.473    310.21841 
  158800    323.00623   -29161.324    154.05123   -29315.375   -19696.237 
  159000    278.69828   -29195.083    132.91946   -29328.002   -14153.364 
  159200    300.30108   -29188.638    143.22247    -29331.86    14897.272 
  159400     309.8379   -29162.358    147.77087   -29310.129    8165.6743 
  159600    297.65955   -29201.379    141.96265   -29343.342    18656.762 
  159800    253.62938   -29187.271    120.96336   -29308.235     -9925.25 
  160000    316.50275   -29169.645    150.94953   -29320.595    46139.697 
  160200    277.98103   -29207.436    132.57738   -29340.014   -40113.613 
  160400    283.50072   -29187.608    135.20989   -29322.818    33619.024 
  160600    296.37238   -29177.041    141.34876    -29318.39    13938.602 
  160800    336.04567   -29188.017    160.27013   -29348.287    14829.968 
  161000    289.84989   -29195.351    138.23799   -29333.589    24737.811 
  161200    326.13284   -29163.326    155.54241   -29318.869    7533.9707 
  161400    299.55442   -29187.911    142.86637   -29330.778   -29671.029 
  161600    309.95377    -29189.97    147.82613   -29337.796    20395.516 
  161800    305.55709   -29167.172    145.72922   -29312.902    10630.942 
  162000    311.98389   -29180.593    148.79435   -29329.387    9609.8248 
  162200     290.3976    -29195.51    138.49921   -29334.009   -32866.035 
  162400    323.25104   -29169.247    154.16799   -29323.415   -19910.805 
  162600    315.00453   -29199.577    150.23499   -29349.812   -26985.288 
  162800    292.99729   -29196.441    139.73908    -29336.18    13834.465 
  163000     306.3772   -29171.821    146.12036   -29317.941    7543.9605 
  163200    308.38214   -29203.985    147.07658   -29351.062   -4747.7658 
  163400    294.98301   -29192.509    140.68613   -29333.195   -17835.252 
  163600    327.51638   -29175.404    156.20226   -29331.606    16506.296 
  163800    305.39656    -29194.99    145.65266   -29340.643     -14605.9 
  164000    268.10368   -29215.882    127.86658   -29343.749    9414.8364 
  164200    308.59899   -29182.493       147.18   -29329.673   -13053.098 
  164400    299.10465   -29186.378    142.65186    -29329.03    683.57745 
  164600    280.54281   -29210.337    133.79917   -29344.136    11655.862 
  164800     305.7794   -29194.248    145.83525   -29340.083    35213.317 
  165000    276.30394   -29187.954    131.77753   -29319.731   -10911.901 
  165200    329.37546   -29175.476    157.08891   -29332.565    2580.9847 
  165400    277.23335   -29200.212    132.22079   -29332.433   -1472.2633 
  165600    293.11141   -29191.713    139.79351   -29331.507   -5999.0813 
  165800    322.10608   -29175.191    153.62192   -29328.813    10347.591 
  166000    299.74423   -29192.661     142.9569   -29335.618    28491.106 
  166200    318.61936   -29178.466    151.95901   -29330.425    12651.936 
  166400    321.47929     -29163.1    153.32299   -29316.423   -6380.8955 
  166600    304.05555   -29190.422    145.01309   -29335.435    3666.4419 
  166800    311.03881   -29193.422    148.34362   -29341.766    1536.0665 
  167000    285.77505   -29194.203    136.29458   -29330.497    5002.4648 
  167200    292.61944   -29194.043    139.55888   -29333.602    17650.334 
  167400    291.70601   -29184.174    139.12323   -29323.298    31079.105 
  167600    287.66598   -29210.768    137.19642   -29347.965    1555.6732 
  167800     321.4939    -29189.17    153.32996     -29342.5   -2942.0581 
  168000    308.97006   -29187.562    147.35697   -29334.919   -11235.997 
  168200    294.02357   -29204.353    140.22855   -29344.581   -7131.8079 
  168400    338.26294   -29183.342    161.32761    -29344.67    34975.349 
  168600    307.30153   -29188.869     146.5612    -29335.43   -9824.6384 
  168800     288.8695   -29202.951    137.77042   -29340.721    19448.871 
  169000    286.76278   -29192.552    136.76566   -29329.317   -16768.425 
  169200    365.44034   -29154.718    174.28932   -29329.008    22539.792 
  169400    297.38754   -29187.761    141.83293   -29329.593    24678.177 
  169600    283.40196    -29200.66    135.16279   -29335.823   -41128.797 
  169800    300.79652    -29219.16    143.45877   -29362.619     7308.343 
  170000    284.07384    -29211.68    135.48323   -29347.164    9845.4997 
  170200    333.44167    -29191.61    159.02821   -29350.638    20857.237 
  170400    280.32176   -29220.012    133.69375   -29353.706    21273.786 
  170600    307.39135   -29193.743    146.60404   -29340.347    1019.7173 
  170800    295.73585   -29189.945    141.04518    -29330.99     11559.62 
  171000    292.21722   -29210.467    139.36704   -29349.834   -40685.025 
  171200    309.74229   -29178.424    147.72527   -29326.149    27960.928 
  171400    325.81076   -29192.753     155.3888   -29348.142   -47122.028 
  171600    284.39323   -29204.004    135.63555    -29339.64   -28624.878 
  171800    308.36017   -29199.001     147.0661   -29346.067   -7650.6015 
  172000    284.06851    -29198.06    135.48068   -29333.541    1336.9319 
  172200    325.26248   -29179.901    155.12731   -29335.028    28576.296 
  172400    272.94993   -29206.993     130.1779   -29337.171   -32800.906 
  172600    284.04549   -29197.948    135.46971   -29333.418   -4431.6331 
  172800    306.83353   -29189.703      146.338   -29336.041    20790.319 
  173000    282.01629   -29206.539    134.50192    -29341.04   -6423.5241 
  173200    274.39987   -29216.644    130.86942   -29347.514   -3207.4285 
  173400     327.0624    -29184.61    155.98574   -29340.595   -22053.926 
  173600    258.75018   -29190.934    123.40562    -29314.34   -35914.732 
  173800    306.51128   -29213.424    146.18431   -29359.608   -2173.7726 
  174000    337.06402   -29178.378    160.75581   -29339.134    1642.0361 
  174200    253.44943   -29205.728    120.87754   -29326.605   -7344.4914 
  174400    308.81779   -29198.114    147.28435   -29345.398   -10245.097 
  174600    313.60971   -29184.531    149.56976   -29334.101   -18257.456 
  174800    312.36591   -29197.445    148.97655   -29346.422    18333.589 
  175000    293.41728   -29196.017    139.93939   -29335.956   -11379.044 
  175200    313.85284   -29173.533    149.68571   -29323.218   -13136.773 
  175400    292.97182   -29199.096    139.72694   -29338.823     40735.22 
  175600    285.79913   -29191.236    136.30607   -29327.542     9865.922 
  175800    294.05579   -29175.311    140.24391   -29315.555    15483.321 
  176000    333.60282   -29149.358    159.10506   -29308.463    17569.034 
  176200    305.57668     -29184.1    145.73857   -29329.839   -6299.5508 
  176400    310.56274   -29193.036    148.11657   -29341.153   -20815.773 
  176600    312.68492   -29167.646     149.1287   -29316.775    38085.973 
  176800    320.68414   -29184.592    152.94376   -29337.536    10322.206 
  177000    290.80232    -29194.89    138.69224   -29333.582    49803.009 
  177200    311.24077   -29173.772    148.43994   -29322.212    6941.4994 
  177400    317.67342   -29177.495    151.50786   -29329.003   -6501.1189 
  177600    297.62469   -29203.142    141.94603   -29345.088   -8243.2767 
  177800    299.31549   -29181.307    142.75242    -29324.06    40427.494 
  178000    301.93651   -29173.005    144.00246   -29317.008    31805.923 
  178200    284.42886   -29202.241    135.65254   -29337.893    28005.588 
  178400    310.89114   -29174.795    148.27319   -29323.069   -6875.9359 
  178600    289.45227    -29186.64    138.04836   -29324.689   -45857.318 
  178800    278.22732   -29208.613    132.69484   -29341.308    5957.9878 
  179000    302.27512   -29181.759    144.16395   -29325.923   -21397.371 
  179200    312.41405   -29178.231    148.99951   -29327.231    -13832.62 
[...]
  950000    311.61823   -29218.761    148.61996   -29367.381    36423.777 
  950200    300.80122   -29232.469    143.46101    -29375.93     59716.84 
  950400    296.16712   -29220.048    141.25087   -29361.299    14457.464 
  950600    319.25413   -29212.125    152.26175   -29364.387   -2580.8992 
  950800    268.90523   -29232.866    128.24887   -29361.115   -13825.325 
  951000    312.30267   -29219.844    148.94639    -29368.79   -12538.938 
  951200    290.00914   -29223.972    138.31394   -29362.286   -179.42899 
  951400    307.25307   -29235.263    146.53809   -29381.801    20688.894 
  951600    326.33229   -29207.198    155.63753   -29362.836   -41385.691 
  951800    277.21394   -29242.992    132.21154   -29375.203   -25125.072 
  952000    284.85397   -29220.049    135.85529   -29355.904   -7412.6573 
  952200    308.07218   -29222.168    146.92874   -29369.097    25071.737 
  952400    285.69876   -29256.479     136.2582   -29392.738    233.47407 
  952600    258.18648   -29255.995    123.13678   -29379.131   -31615.441 
  952800    301.67934   -29225.003    143.87981   -29368.883    5031.9713 
  953000      318.013   -29212.266    151.66981   -29363.936   -13161.427 
  953200    284.56832   -29239.954    135.71906   -29375.673    5585.6279 
  953400    307.28649   -29228.786    146.55402    -29375.34   -18896.938 
  953600    299.68643   -29211.184    142.92933   -29354.113    5596.7744 
  953800    299.18387   -29231.254    142.68964   -29373.944    13319.179 
  954000    251.18409    -29256.52    119.79713   -29376.317   -18164.604 
  954200    282.69956   -29229.827    134.82779   -29364.654    10974.881 
  954400    305.98047   -29212.992    145.93115   -29358.924   -26554.132 
  954600    279.53423   -29246.745    133.31815   -29380.064   -59207.518 
  954800    294.40761   -29231.245    140.41171   -29371.657   -45532.292 
  955000    308.75344   -29223.679    147.25366   -29370.933    21005.686 
  955200    255.47294   -29264.988    121.84261    -29386.83    43364.925 
  955400    305.82481   -29235.067    145.85691   -29380.924    20671.179 
  955600     329.7044   -29218.612    157.24579   -29375.858   -46358.228 
  955800    312.45052    -29231.79    149.01691   -29380.807   -17931.876 
  956000     271.8972   -29246.387    129.67583   -29376.063    45687.646 
  956200     308.4454   -29219.202    147.10674   -29366.309   -4859.7431 
  956400    303.13732   -29238.949    144.57516   -29383.524     27727.71 
  956600    287.33705   -29250.897    137.03955   -29387.936    1751.9916 
  956800     299.9082    -29218.23     143.0351   -29361.265   -25035.716 
  957000     304.9968   -29233.398      145.462    -29378.86   -14107.446 
  957200    278.55988   -29234.809    132.85345   -29367.662    4715.9304 
  957400    329.88601   -29214.619     157.3324   -29371.951    21645.251 
  957600    292.80614   -29240.911    139.64792   -29380.559   -18702.738 
  957800    306.50925   -29213.146    146.18334   -29359.329   -16065.168 
  958000    307.62206   -29217.528    146.71407   -29364.242    11518.571 
  958200    293.54499   -29239.689     140.0003    -29379.69    27764.708 
  958400    314.05564     -29204.3    149.78243   -29354.082   -24881.129 
  958600    293.96349   -29220.682    140.19989   -29360.882    16572.184 
  958800    308.16816   -29232.804    146.97452   -29379.779   -42434.832 
  959000     317.8811   -29210.377    151.60691   -29361.983    10816.997 
  959200    335.15001   -29198.642    159.84296   -29358.485    4511.8851 
  959400    297.56614   -29223.944     141.9181   -29365.862   -62730.274 
  959600    300.92226   -29242.072    143.51874   -29385.591   -19063.539 
  959800    279.11963   -29245.822    133.12041   -29378.942   -12161.273 
  960000    295.09782   -29217.201    140.74089   -29357.942    44264.584 
  960200    292.83773   -29213.306    139.66299   -29352.969    15654.697 
  960400    256.69513   -29241.901    122.42551   -29364.327      54587.7 
  960600    300.79542   -29218.148    143.45824   -29361.606    19600.137 
  960800    308.35651   -29217.595    147.06435   -29364.659    39227.984 
  961000    298.23301   -29233.574    142.23615    -29375.81   -28646.759 
  961200    288.45453   -29239.549    137.57251   -29377.122   -24518.459 
  961400    321.56657   -29208.143    153.36462   -29361.508   -5766.1499 
  961600    316.93123   -29224.076    151.15389    -29375.23   -20551.379 
  961800    295.57431    -29245.55    140.96814   -29386.518    18912.131 
  962000    287.29969   -29224.501    137.02173   -29361.523   -16902.572 
  962200     296.2491   -29216.725    141.28997   -29358.014    17785.951 
  962400    275.32889   -29252.435     131.3125   -29383.747   -1723.6691 
  962600    307.77487   -29226.606    146.78695   -29373.393   -36188.228 
  962800    331.80966   -29217.723    158.24985   -29375.973   -17412.344 
  963000    283.02012   -29249.711    134.98067   -29384.692   -18432.876 
  963200    297.76876   -29236.718    142.01474   -29378.733   -33998.347 
  963400    326.81824   -29223.436    155.86929   -29379.305    -18448.83 
  963600    292.13513   -29228.519    139.32789   -29367.847   -31511.578 
  963800    281.25392   -29258.411    134.13832   -29392.549   -9011.5393 
  964000    278.86665   -29234.703    132.99976   -29367.703   -2884.2457 
  964200    314.78263   -29227.032    150.12916   -29377.161    -13766.71 
  964400    290.84144   -29217.057     138.7109   -29355.768    15196.077 
  964600    276.99452   -29230.131    132.10689   -29362.238    19121.427 
  964800    287.79879   -29243.728    137.25977   -29380.988   -24820.893 
  965000    289.97759   -29215.945     138.2989   -29354.244    13556.545 
  965200    305.33405   -29222.752    145.62285   -29368.375    -28934.86 
  965400    280.54895   -29252.289     133.8021   -29386.091   -47652.524 
  965600     326.4717   -29220.333    155.70402   -29376.037    26487.255 
  965800    294.06334   -29221.147    140.24751   -29361.394   -20047.732 
  966000    286.73213   -29244.355    136.75104   -29381.106    -42733.33 
  966200    295.48509   -29244.699    140.92559   -29385.624    58015.084 
  966400    320.91053   -29211.735    153.05173   -29364.787   -790.88301 
  966600    302.66596   -29231.368    144.35036   -29375.718    7235.8293 
  966800    295.71408   -29240.681     141.0348   -29381.716    -23120.41 
  967000    327.56406   -29222.377      156.225   -29378.602    3862.2802 
  967200    286.83403   -29219.311    136.79964   -29356.111    -9504.105 
  967400     275.4634   -29253.127    131.37665   -29384.504   -15630.879 
  967600    305.66618   -29225.422    145.78125   -29371.203   -33202.462 
  967800    296.79445   -29217.668    141.55006   -29359.218   -13466.084 
  968000    326.15137   -29224.491    155.55125   -29380.042   -29332.807 
  968200    295.22833   -29233.438    140.80313   -29374.241    23956.436 
  968400    309.80269   -29204.066    147.75408    -29351.82    18071.247 
  968600    307.43213   -29213.975    146.62349   -29360.599   -6398.4828 
  968800    286.49858   -29230.951    136.63965   -29367.591    2411.8081 
  969000    308.45822   -29212.562    147.11286   -29359.675    22903.516 
  969200     309.8888   -29215.969    147.79515   -29363.765    5358.2568 
  969400    287.75592   -29237.507    137.23932   -29374.747   -19760.731 
  969600    319.13239   -29207.071    152.20369   -29359.274   -28906.817 
  969800    291.49614   -29209.188    139.02314   -29348.211    -53929.51 
  970000    332.32238    -29223.86    158.49438   -29382.354     19576.65 
  970200    307.10178   -29237.838    146.46593   -29384.304    25922.363 
  970400     296.2432   -29206.522    141.28715   -29347.809   -58517.266 
  970600    310.70684   -29213.288    148.18529   -29361.473   -33507.643 
  970800    293.59741   -29238.525     140.0253    -29378.55     5025.806 
  971000    298.13715   -29220.063    142.19044   -29362.253   -8717.7972 
  971200    328.78759   -29200.351    156.80854   -29357.159    9872.0608 
  971400    316.09115   -29226.719    150.75323   -29377.472    6914.9353 
  971600    281.04461   -29237.834     134.0385   -29371.872     32788.14 
  971800    312.21843   -29208.323    148.90621   -29357.229   -23154.185 
  972000     307.6521     -29219.2    146.72839   -29365.928    12640.501 
  972200    292.52665   -29230.343    139.51462   -29369.857   -4733.7599 
  972400    310.53169   -29221.302    148.10176   -29369.403   -22239.202 
  972600    274.02389   -29242.628    130.69011   -29373.318    -1956.121 
  972800    285.54404   -29229.649    136.18441   -29365.834   -19798.439 
  973000    306.14272   -29220.316    146.00853   -29366.324   -17851.387 
  973200    298.80537   -29243.215    142.50913   -29385.724   -24903.113 
  973400    306.91433   -29212.376    146.37653   -29358.753    84219.999 
  973600    286.73236   -29221.756    136.75115   -29358.507    1406.2211 
  973800    292.16133   -29245.147    139.34039   -29384.487    9487.1203 
  974000    313.04641   -29211.123     149.3011   -29360.424    562.78944 
  974200    296.10941   -29223.048    141.22335   -29364.271   -22147.201 
  974400    285.36674   -29240.755    136.09985   -29376.855   -26096.961 
  974600    321.55259   -29210.888    153.35795   -29364.246   -38387.176 
  974800    299.46422   -29222.999    142.82335   -29365.822    -18203.04 
  975000    309.14768   -29234.572    147.44168   -29382.013   -7746.1242 
  975200    282.36155   -29230.844    134.66658   -29365.511    -900.2635 
  975400    309.29022   -29217.681    147.50967   -29365.191   -24346.843 
  975600    322.83675   -29193.314    153.97041   -29347.285    22825.271 
  975800    340.52257   -29221.029     162.4053   -29383.434    -3429.196 
  976000    271.56647   -29238.143    129.51809   -29367.661    11306.801 
  976200    300.16724    -29236.75    143.15865   -29379.909   -57771.158 
  976400    350.68587    -29208.67    167.25248   -29375.923    12272.887 
  976600    302.05457   -29232.918    144.05877   -29376.977   -3052.0792 
  976800    287.49631    -29235.62     137.1155   -29372.735    12293.691 
  977000    293.45425   -29216.226    139.95702   -29356.183    19339.664 
  977200     301.8465   -29213.314    143.95953   -29357.274    11979.462 
  977400    289.23565   -29232.326    137.94505   -29370.271    21039.333 
  977600    285.32696   -29249.672    136.08088   -29385.753     35516.24 
  977800    307.49814    -29213.07    146.65496   -29359.725   -2098.7515 
  978000    312.18351   -29219.192    148.88956   -29368.082    16941.147 
  978200    312.30544   -29236.951    148.94771   -29385.899    63439.861 
  978400    301.84741   -29218.002    143.95997   -29361.962    5363.9712 
  978600    289.16159   -29223.633    137.90972   -29361.543   -10448.111 
  978800    238.85409   -29243.609    113.91659   -29357.526    3183.0331 
  979000    291.65057   -29219.378    139.09679   -29358.474   -323.27451 
  979200    323.98626   -29216.202    154.51864   -29370.721   -20794.399 
  979400    256.56476   -29241.089    122.36333   -29363.453    17536.092 
  979600     299.2399   -29230.959    142.71637   -29373.675     20483.22 
  979800    326.57209   -29208.395     155.7519   -29364.146   -7656.0483 
  980000    291.85807   -29218.008    139.19575   -29357.203    5933.8324 
  980200    314.66905   -29229.572    150.07499   -29379.647   -28342.308 
  980400    299.03203   -29219.718    142.61723   -29362.335   -4698.6292 
  980600    305.40731   -29209.107    145.65779   -29354.765   -2677.9066 
  980800    295.97676   -29233.939    141.16008   -29375.099    27566.049 
  981000    319.45599   -29221.206    152.35802   -29373.564    25965.357 
  981200    285.76913   -29209.697    136.29176   -29345.988    -11948.33 
  981400    315.30767   -29238.389    150.37956   -29388.769    8310.1221 
  981600    326.21549   -29218.699    155.58182   -29374.281   -16256.831 
  981800    310.34299   -29236.285    148.01176   -29384.297    3482.2486 
  982000    286.42912   -29238.789    136.60653   -29375.395    31418.733 
  982200    292.91699   -29223.603    139.70078   -29363.304   -40866.086 
  982400    296.96859   -29228.199    141.63311   -29369.832    22691.559 
  982600    290.38606   -29243.776    138.49371    -29382.27    3033.1536 
  982800    301.05721   -29214.824     143.5831   -29358.407   -10011.801 
  983000    328.85502   -29225.007     156.8407   -29381.848   -11915.568 
  983200    307.13925   -29237.581     146.4838   -29384.065   -20857.831 
  983400    293.43646   -29218.315    139.94854   -29358.264    12385.157 
  983600    302.77593   -29237.457    144.40281    -29381.86   -4615.4392 
  983800    267.38267   -29240.384    127.52271   -29367.907   -13858.326 
  984000    312.22021    -29217.62    148.90706   -29366.527   -23605.812 
  984200    304.42732   -29230.529     145.1904    -29375.72    48510.951 
  984400    254.51566   -29251.897    121.38605   -29373.283    34478.514 
  984600    295.34906   -29221.367    140.86071   -29362.227   -1735.1848 
  984800    316.83634   -29215.301    151.10863    -29366.41   -11880.147 
  985000    288.35887   -29243.291    137.52688   -29380.818    2818.7821 
  985200    317.86114   -29219.849    151.59739   -29371.446    37087.543 
  985400    321.05278   -29209.238    153.11958   -29362.357    35821.177 
  985600     276.9467   -29237.719    132.08408   -29369.803   -8590.6535 
  985800    316.46269    -29232.81    150.93042    -29383.74   -28165.208 
  986000    305.12678   -29213.616    145.52399    -29359.14   -11215.419 
  986200    287.30194   -29234.298     137.0228    -29371.32   -31591.234 
  986400    315.37282   -29240.585    150.41064   -29390.996    18405.846 
  986600     288.7081   -29214.526    137.69344   -29352.219   -26911.449 
  986800    309.77581    -29226.66    147.74125   -29374.401   -46860.322 
  987000    266.83905   -29243.325    127.26345   -29370.589    28599.409 
  987200     312.9709   -29220.635    149.26509     -29369.9    7046.1656 
  987400    294.33893   -29221.597    140.37895   -29361.976   -5659.7431 
  987600    274.99674   -29247.373    131.15409   -29378.527    19415.093 
  987800      316.442   -29219.751    150.92056   -29370.671    1140.5172 
  988000    322.74266   -29218.004    153.92553   -29371.929   -4549.2712 
  988200    276.23381   -29240.757    131.74408   -29372.501   -6006.4721 
  988400    288.85656   -29212.133    137.76425   -29349.898    22063.435 
  988600    305.21029   -29222.058    145.56382   -29367.622    21769.483 
  988800    272.60372   -29235.865    130.01279   -29365.878   -11902.893 
  989000    316.79611   -29202.533    151.08944   -29353.622    68009.028 
  989200    311.32144   -29225.361    148.47841    -29373.84   -502.17239 
  989400    278.98824   -29230.081    133.05775   -29363.139   -45186.451 
  989600    338.22863   -29195.993    161.31125   -29357.304   -43126.181 
  989800    317.78193   -29225.989    151.55961   -29377.549    37486.056 
  990000    305.43006    -29228.97    145.66864   -29374.639   -8899.6184 
  990200    304.98141   -29231.267    145.45466   -29376.721   -45047.448 
  990400    283.22688   -29247.527    135.07928   -29382.606   -11932.492 
  990600    314.08225   -29214.566    149.79513   -29364.361   -5879.6409 
  990800    306.07985   -29227.875    145.97854   -29373.854     29370.96 
  991000    256.31911   -29261.227    122.24617   -29383.473    20795.717 
  991200    287.38468   -29240.872    137.06226   -29377.934   -9253.7736 
  991400    313.35962   -29214.555    149.45048   -29364.005   -13754.866 
  991600    307.02916   -29210.832     146.4313   -29357.263   -35153.228 
  991800    281.26066   -29243.564    134.14154   -29377.706   -37957.914 
  992000    303.40636   -29220.766    144.70347   -29365.469     31296.96 
  992200    287.49097   -29215.156    137.11296   -29352.269   -39668.298 
  992400    282.12918   -29235.426    134.55576   -29369.982    6584.0637 
  992600    281.62489   -29244.527    134.31525   -29378.842   -12036.084 
  992800    298.79358   -29216.613    142.50351   -29359.117   -26647.889 
  993000    310.90851   -29220.282    148.28147   -29368.563    14579.609 
  993200    259.55896   -29245.988    123.79135   -29369.779    4233.2051 
  993400    295.64705   -29227.912    141.00283   -29368.915   -3063.6143 
  993600     313.6775   -29214.492    149.60209   -29364.094    9488.1741 
  993800    352.89026   -29185.677    168.30381   -29353.981   -5870.4997 
  994000    283.38615   -29224.353    135.15525   -29359.508    11155.285 
  994200    292.74729   -29230.709    139.61985   -29370.329   -37508.793 
  994400    336.25146   -29198.738    160.36828   -29359.107    35921.194 
  994600    291.43464    -29228.63    138.99381   -29367.624   -8898.0756 
  994800    307.89298   -29231.096    146.84328    -29377.94    4875.2635 
  995000    285.99632   -29211.366    136.40011   -29347.766   -35878.352 
  995200    364.34412   -29196.039     173.7665   -29369.806    15994.813 
  995400    301.65195   -29234.499    143.86675   -29378.366    10056.249 
  995600    268.09954   -29227.745    127.86461   -29355.609   -24842.766 
  995800    332.95147   -29205.138    158.79442   -29363.933   -15584.291 
  996000    290.37338   -29226.251    138.48766   -29364.739    -29413.61 
  996200    314.74918   -29233.007     150.1132    -29383.12   -39459.165 
  996400    326.90535   -29219.529    155.91084    -29375.44   -24624.203 
  996600     291.4908   -29216.287    139.02059   -29355.307    10153.228 
  996800    323.52169   -29241.908    154.29708   -29396.205    9897.6369 
  997000    276.85464    -29226.16    132.04017     -29358.2   -16488.997 
  997200    297.56204   -29219.282    141.91615   -29361.198   -33668.185 
  997400    300.02732   -29224.314    143.09191   -29367.406    1234.2985 
  997600    297.59847    -29233.17    141.93352   -29375.104   -1443.4444 
  997800    285.36367   -29235.444    136.09839   -29371.542    28462.675 
  998000    327.99519   -29207.411    156.43062   -29363.842    5068.0021 
  998200    294.40548   -29237.936    140.41069   -29378.347   -5796.2148 
  998400    266.65774   -29233.347    127.17697   -29360.524   -493.46044 
  998600    299.42842   -29209.791    142.80628   -29352.597   -43593.569 
  998800    320.05727   -29209.587    152.64479   -29362.232    14931.074 
  999000    263.69028   -29239.301     125.7617   -29365.063   -16305.348 
  999200    325.89336   -29215.181    155.42819   -29370.609   -3399.8441 
  999400    333.44713   -29216.601    159.03081   -29375.632    1365.6063 
  999600    299.29774   -29227.816    142.74396    -29370.56   -23097.749 
  999800    282.95117    -29237.25    134.94779   -29372.198    26139.914 
 1000000    276.52271   -29245.541    131.88187   -29377.423   -24239.023 
Loop time of 21813.2 on 8 procs for 1000000 steps with 161 atoms

Performance: 0.990 ns/day, 24.237 hours/ns, 45.844 timesteps/s
98.8% CPU use with 8 MPI tasks x no OpenMP threads

MPI task timing breakdown:
Section |  min time  |  avg time  |  max time  |%varavg| %total
---------------------------------------------------------------
Pair    | 17348      | 18236      | 18932      | 361.5 | 83.60
Neigh   | 3.001      | 3.0289     | 3.0595     |   1.3 |  0.01
Comm    | 349.71     | 1047.7     | 1934.9     |1508.0 |  4.80
Output  | 0.47187    | 0.50996    | 0.68531    |   9.4 |  0.00
Modify  | 2509.7     | 2511.7     | 2513.6     |   2.4 | 11.51
Other   |            | 14.42      |            |       |  0.07

Nlocal:    20.125 ave 32 max 5 min
Histogram: 1 0 2 1 0 0 0 0 3 1
Nghost:    755.375 ave 775 max 731 min
Histogram: 1 0 0 0 2 2 1 1 0 1
Neighs:    2132.88 ave 3287 max 556 min
Histogram: 1 0 2 1 0 0 0 0 3 1

Total # of neighbors = 17063
Ave neighs/atom = 105.981
Neighbor list builds = 853
Dangerous builds = 0

Please see the log.cite file for references relevant to this simulation

Total wall time: 6:05:22
