LAMMPS (3 Mar 2020)
Reading data file ...
  orthogonal box = (0 0 0) to (21.0709 21.0709 21.0709)
  1 by 1 by 1 MPI processor grid
  reading atoms ...
  144 atoms
  read_data CPU = 0.0027622 secs
WARNING: Using 'neigh_modify every 1 delay 0 check yes' setting during minimization (../min.cpp:190)
WARNING: Total cutoff < 2*bond cutoff. May need to use an increased neighbor list skin. (../pair_reaxc.cpp:413)
Neighbor list info ...
  update every 1 steps, delay 0 steps, check yes
  max neighbors/atom: 2000, page size: 100000
  master list distance cutoff = 9.5
  ghost atom cutoff = 9.5
  binsize = 4.75, bins = 5 5 5
  2 neighbor lists, perpetual/occasional/extra = 2 0 0
  (1) pair reax/c, perpetual
      attributes: half, newton off, ghost
      pair build: half/bin/newtoff/ghost
      stencil: half/ghost/bin/3d/newtoff
      bin: standard
  (2) fix qeq/reax, perpetual, copy from (1)
      attributes: half, newton off, ghost
      pair build: copy
      stencil: none
      bin: none
Setting up cg style minimization ...
  Unit style    : real
  Current step  : 0
Per MPI rank memory allocation (min/avg/max) = 27.13 | 27.13 | 27.13 Mbytes
Step Temp E_pair E_mol TotEng Press 
       0            0   -25403.875            0   -25403.875     17953.93 
     151            0    -25860.77            0    -25860.77    40689.858 
Loop time of 3.76849 on 1 procs for 151 steps with 144 atoms

96.4% CPU use with 1 MPI tasks x no OpenMP threads

Minimization stats:
  Stopping criterion = energy tolerance
  Energy initial, next-to-last, final = 
        -25403.8751625     -25860.7695555     -25860.7696914
  Force two-norm initial, final = 1616.95 225.104
  Force max component initial, final = 156.522 46.1843
  Final line search alpha, max atom move = 0.00013532 0.00624965
  Iterations, force evaluations = 151 858

MPI task timing breakdown:
Section |  min time  |  avg time  |  max time  |%varavg| %total
---------------------------------------------------------------
Pair    | 3.0917     | 3.0917     | 3.0917     |   0.0 | 82.04
Neigh   | 0          | 0          | 0          |   0.0 |  0.00
Comm    | 0.0057102  | 0.0057102  | 0.0057102  |   0.0 |  0.15
Output  | 0.00317    | 0.00317    | 0.00317    |   0.0 |  0.08
Modify  | 0.66244    | 0.66244    | 0.66244    |   0.0 | 17.58
Other   |            | 0.005458   |            |       |  0.14

Nlocal:    144 ave 144 max 144 min
Histogram: 1 0 0 0 0 0 0 0 0 0
Nghost:    934 ave 934 max 934 min
Histogram: 1 0 0 0 0 0 0 0 0 0
Neighs:    5148 ave 5148 max 5148 min
Histogram: 1 0 0 0 0 0 0 0 0 0

Total # of neighbors = 5148
Ave neighs/atom = 35.75
Neighbor list builds = 0
Dangerous builds = 0
WARNING: Using 'neigh_modify every 1 delay 0 check yes' setting during minimization (../min.cpp:190)
WARNING: Total cutoff < 2*bond cutoff. May need to use an increased neighbor list skin. (../pair_reaxc.cpp:413)
Setting up cg style minimization ...
  Unit style    : real
  Current step  : 151
Per MPI rank memory allocation (min/avg/max) = 27.12 | 27.12 | 27.12 Mbytes
Step Temp E_pair E_mol TotEng Press 
     151            0    -25860.77            0    -25860.77    40689.858 
     152            0    -25860.77            0    -25860.77    40689.864 
Loop time of 0.0284209 on 1 procs for 1 steps with 144 atoms

100.0% CPU use with 1 MPI tasks x no OpenMP threads

Minimization stats:
  Stopping criterion = energy tolerance
  Energy initial, next-to-last, final = 
        -25860.7696914     -25860.7696914     -25860.7697045
  Force two-norm initial, final = 225.104 225.103
  Force max component initial, final = 46.1843 46.184
  Final line search alpha, max atom move = 0.000135327 0.00624997
  Iterations, force evaluations = 1 7

MPI task timing breakdown:
Section |  min time  |  avg time  |  max time  |%varavg| %total
---------------------------------------------------------------
Pair    | 0.022723   | 0.022723   | 0.022723   |   0.0 | 79.95
Neigh   | 0          | 0          | 0          |   0.0 |  0.00
Comm    | 2.762e-05  | 2.762e-05  | 2.762e-05  |   0.0 |  0.10
Output  | 0          | 0          | 0          |   0.0 |  0.00
Modify  | 0.0054347  | 0.0054347  | 0.0054347  |   0.0 | 19.12
Other   |            | 0.000236   |            |       |  0.83

Nlocal:    144 ave 144 max 144 min
Histogram: 1 0 0 0 0 0 0 0 0 0
Nghost:    934 ave 934 max 934 min
Histogram: 1 0 0 0 0 0 0 0 0 0
Neighs:    4927 ave 4927 max 4927 min
Histogram: 1 0 0 0 0 0 0 0 0 0

Total # of neighbors = 4927
Ave neighs/atom = 34.2153
Neighbor list builds = 0
Dangerous builds = 0
WARNING: Using 'neigh_modify every 1 delay 0 check yes' setting during minimization (../min.cpp:190)
WARNING: Total cutoff < 2*bond cutoff. May need to use an increased neighbor list skin. (../pair_reaxc.cpp:413)
Setting up cg style minimization ...
  Unit style    : real
  Current step  : 152
WARNING: Energy due to 3 extra global DOFs will be included in minimizer energies
Per MPI rank memory allocation (min/avg/max) = 27.12 | 27.12 | 27.12 Mbytes
Step Temp E_pair E_mol TotEng Press Volume 
     152            0    -25860.77            0    -25860.77    40689.864    9355.1177 
    3623            0   -26274.654            0   -26274.654   -108.07902     10482.36 
Loop time of 11.4914 on 1 procs for 3471 steps with 144 atoms

95.9% CPU use with 1 MPI tasks x no OpenMP threads

Minimization stats:
  Stopping criterion = energy tolerance
  Energy initial, next-to-last, final = 
        -25860.7697045     -26274.6539105     -26274.6539631
  Force two-norm initial, final = 9618.14 34.8417
  Force max component initial, final = 5556.9 28.8794
  Final line search alpha, max atom move = 4.05052e-07 1.16977e-05
  Iterations, force evaluations = 3471 3843

MPI task timing breakdown:
Section |  min time  |  avg time  |  max time  |%varavg| %total
---------------------------------------------------------------
Pair    | 9.9308     | 9.9308     | 9.9308     |   0.0 | 86.42
Neigh   | 0.0010036  | 0.0010036  | 0.0010036  |   0.0 |  0.01
Comm    | 0.013714   | 0.013714   | 0.013714   |   0.0 |  0.12
Output  | 0.071357   | 0.071357   | 0.071357   |   0.0 |  0.62
Modify  | 1.3976     | 1.3976     | 1.3976     |   0.0 | 12.16
Other   |            | 0.07698    |            |       |  0.67

Nlocal:    144 ave 144 max 144 min
Histogram: 1 0 0 0 0 0 0 0 0 0
Nghost:    860 ave 860 max 860 min
Histogram: 1 0 0 0 0 0 0 0 0 0
Neighs:    4602 ave 4602 max 4602 min
Histogram: 1 0 0 0 0 0 0 0 0 0

Total # of neighbors = 4602
Ave neighs/atom = 31.9583
Neighbor list builds = 1
Dangerous builds = 0
WARNING: Using 'neigh_modify every 1 delay 0 check yes' setting during minimization (../min.cpp:190)
WARNING: Total cutoff < 2*bond cutoff. May need to use an increased neighbor list skin. (../pair_reaxc.cpp:413)
Setting up cg style minimization ...
  Unit style    : real
  Current step  : 3623
Per MPI rank memory allocation (min/avg/max) = 27.12 | 27.12 | 27.12 Mbytes
Step Temp E_pair E_mol TotEng Press 
    3623            0   -26274.654            0   -26274.654   -108.07902 
    3629            0   -26274.658            0   -26274.658   -70.518268 
Loop time of 0.280391 on 1 procs for 6 steps with 144 atoms

95.2% CPU use with 1 MPI tasks x no OpenMP threads

Minimization stats:
  Stopping criterion = energy tolerance
  Energy initial, next-to-last, final = 
        -26274.6539631     -26274.6583737      -26274.658418
  Force two-norm initial, final = 14.1017 14.2545
  Force max component initial, final = 2.7983 2.9249
  Final line search alpha, max atom move = 5.82225e-06 1.70295e-05
  Iterations, force evaluations = 6 95

MPI task timing breakdown:
Section |  min time  |  avg time  |  max time  |%varavg| %total
---------------------------------------------------------------
Pair    | 0.23       | 0.23       | 0.23       |   0.0 | 82.03
Neigh   | 0          | 0          | 0          |   0.0 |  0.00
Comm    | 0.00035853 | 0.00035853 | 0.00035853 |   0.0 |  0.13
Output  | 0          | 0          | 0          |   0.0 |  0.00
Modify  | 0.049513   | 0.049513   | 0.049513   |   0.0 | 17.66
Other   |            | 0.0005171  |            |       |  0.18

Nlocal:    144 ave 144 max 144 min
Histogram: 1 0 0 0 0 0 0 0 0 0
Nghost:    860 ave 860 max 860 min
Histogram: 1 0 0 0 0 0 0 0 0 0
Neighs:    4614 ave 4614 max 4614 min
Histogram: 1 0 0 0 0 0 0 0 0 0

Total # of neighbors = 4614
Ave neighs/atom = 32.0417
Neighbor list builds = 0
Dangerous builds = 0
WARNING: Using 'neigh_modify every 1 delay 0 check yes' setting during minimization (../min.cpp:190)
WARNING: Total cutoff < 2*bond cutoff. May need to use an increased neighbor list skin. (../pair_reaxc.cpp:413)
Setting up cg style minimization ...
  Unit style    : real
  Current step  : 3629
WARNING: Energy due to 3 extra global DOFs will be included in minimizer energies
Per MPI rank memory allocation (min/avg/max) = 27.12 | 27.12 | 27.12 Mbytes
Step Temp E_pair E_mol TotEng Press Volume 
    3629            0   -26274.658            0   -26274.658   -70.518268     10482.36 
    3631            0   -26274.659            0   -26274.659    45.716659    10481.828 
Loop time of 0.0233513 on 1 procs for 2 steps with 144 atoms

100.0% CPU use with 1 MPI tasks x no OpenMP threads

Minimization stats:
  Stopping criterion = energy tolerance
  Energy initial, next-to-last, final = 
         -26274.658418     -26274.6587885     -26274.6589789
  Force two-norm initial, final = 23.7025 17.6186
  Force max component initial, final = 13.0001 8.14859
  Final line search alpha, max atom move = 4.42454e-06 3.60537e-05
  Iterations, force evaluations = 2 8

MPI task timing breakdown:
Section |  min time  |  avg time  |  max time  |%varavg| %total
---------------------------------------------------------------
Pair    | 0.019922   | 0.019922   | 0.019922   |   0.0 | 85.31
Neigh   | 0          | 0          | 0          |   0.0 |  0.00
Comm    | 2.944e-05  | 2.944e-05  | 2.944e-05  |   0.0 |  0.13
Output  | 0.00019502 | 0.00019502 | 0.00019502 |   0.0 |  0.84
Modify  | 0.0028753  | 0.0028753  | 0.0028753  |   0.0 | 12.31
Other   |            | 0.0003296  |            |       |  1.41

Nlocal:    144 ave 144 max 144 min
Histogram: 1 0 0 0 0 0 0 0 0 0
Nghost:    860 ave 860 max 860 min
Histogram: 1 0 0 0 0 0 0 0 0 0
Neighs:    4614 ave 4614 max 4614 min
Histogram: 1 0 0 0 0 0 0 0 0 0

Total # of neighbors = 4614
Ave neighs/atom = 32.0417
Neighbor list builds = 0
Dangerous builds = 0
WARNING: Using 'neigh_modify every 1 delay 0 check yes' setting during minimization (../min.cpp:190)
WARNING: Total cutoff < 2*bond cutoff. May need to use an increased neighbor list skin. (../pair_reaxc.cpp:413)
Setting up cg style minimization ...
  Unit style    : real
  Current step  : 3631
Per MPI rank memory allocation (min/avg/max) = 27.12 | 27.12 | 27.12 Mbytes
Step Temp E_pair E_mol TotEng Press 
    3631            0   -26274.659            0   -26274.659    45.716659 
    3632            0   -26274.659            0   -26274.659    42.993286 
Loop time of 0.0263396 on 1 procs for 1 steps with 144 atoms

100.0% CPU use with 1 MPI tasks x no OpenMP threads

Minimization stats:
  Stopping criterion = energy tolerance
  Energy initial, next-to-last, final = 
        -26274.6589789     -26274.6589789     -26274.6590828
  Force two-norm initial, final = 12.6892 13.3478
  Force max component initial, final = 3.06369 3.07187
  Final line search alpha, max atom move = 0.00408005 0.0125334
  Iterations, force evaluations = 1 8

MPI task timing breakdown:
Section |  min time  |  avg time  |  max time  |%varavg| %total
---------------------------------------------------------------
Pair    | 0.020593   | 0.020593   | 0.020593   |   0.0 | 78.18
Neigh   | 0          | 0          | 0          |   0.0 |  0.00
Comm    | 2.961e-05  | 2.961e-05  | 2.961e-05  |   0.0 |  0.11
Output  | 0          | 0          | 0          |   0.0 |  0.00
Modify  | 0.0054899  | 0.0054899  | 0.0054899  |   0.0 | 20.84
Other   |            | 0.0002267  |            |       |  0.86

Nlocal:    144 ave 144 max 144 min
Histogram: 1 0 0 0 0 0 0 0 0 0
Nghost:    860 ave 860 max 860 min
Histogram: 1 0 0 0 0 0 0 0 0 0
Neighs:    4614 ave 4614 max 4614 min
Histogram: 1 0 0 0 0 0 0 0 0 0

Total # of neighbors = 4614
Ave neighs/atom = 32.0417
Neighbor list builds = 0
Dangerous builds = 0
WARNING: Total cutoff < 2*bond cutoff. May need to use an increased neighbor list skin. (../pair_reaxc.cpp:413)
Setting up Verlet run ...
  Unit style    : real
  Current step  : 0
  Time step     : 0.25
Per MPI rank memory allocation (min/avg/max) = 25.99 | 25.99 | 25.99 Mbytes
Step Temp TotEng KinEng PotEng Press 
       0          300   -26146.782    127.87675   -26274.659    600.67628 
     200    212.24027   -26102.573    90.468652   -26193.041     2917.527 
     400    283.27567   -26036.995    120.74791   -26157.743    4833.3987 
     600    312.70163   -26000.124     133.2909   -26133.415    517.24222 
     800    270.89927   -26019.294     115.4724   -26134.767    -2291.965 
    1000     310.3128   -26002.036    132.27264   -26134.309   -2957.3443 
    1200    277.81123   -26014.703    118.41866   -26133.122   -6022.1599 
    1400    340.21271   -25995.421    145.01766   -26140.439   -5327.8697 
    1600    312.11686   -26024.576    133.04163   -26157.617    1918.5241 
    1800    309.43591   -26024.978    131.89886   -26156.877    2145.4462 
    2000    311.85044   -25994.973    132.92807   -26127.901     1784.135 
    2200    276.49793   -26016.956    117.85885   -26134.815    1581.6528 
    2400       317.71   -26006.352    135.42574   -26141.777   -2007.9731 
    2600    270.58455   -26012.074    115.33824   -26127.412     619.1926 
    2800    326.18268   -25990.584    139.03727   -26129.621    3260.4121 
    3000    314.76461   -26009.851    134.17025   -26144.022    4655.8019 
    3200    329.17023   -26006.408    140.31073   -26146.718    3026.6323 
    3400    294.46188   -26003.106    125.51609   -26128.622   -834.52819 
    3600    243.73213   -26025.082    103.89224   -26128.974    1757.4068 
    3800    298.95406   -26003.518    127.43091   -26130.949    840.14996 
    4000    286.49651   -26011.547    122.12081   -26133.668    -2680.939 
    4200    300.24653   -26020.371    127.98184   -26148.353    409.61344 
    4400    256.96658    -26046.34     109.5335   -26155.874    2467.1716 
    4600    276.49023   -26017.409    117.85558   -26135.265    2353.4501 
    4800    339.43422    -25998.88    144.68582   -26143.566    6.1208785 
    5000    295.26292   -26019.962    125.85754    -26145.82   -1038.1378 
    5200    306.04121   -26015.071    130.45185   -26145.523   -1312.5449 
    5400     311.6445   -26005.094    132.84029   -26137.934   -590.21918 
    5600    278.74144   -26031.864    118.81517   -26150.679   -771.13147 
    5800    291.99936   -26039.893    124.46643    -26164.36    1690.3322 
    6000    314.75994   -26003.672    134.16826    -26137.84   -2220.4768 
    6200    309.64964   -26025.983    131.98997   -26157.973   -2481.2988 
    6400    284.22344   -26019.623     121.1519   -26140.774   -2479.6314 
    6600       319.81   -26006.151    136.32088   -26142.472   -4103.0273 
    6800    302.43199     -26020.6     128.9134   -26149.514    2538.2949 
    7000    311.40494   -26025.215    132.73817   -26157.954    3580.8058 
    7200    340.30972   -26005.983    145.05901   -26151.042    5360.0781 
    7400     284.6568    -26025.43    121.33662   -26146.767   -2974.1355 
    7600     315.7801   -26008.947    134.60311    -26143.55   -1536.0273 
    7800    305.48079   -26001.007    130.21297    -26131.22    2172.0086 
    8000    309.83553   -26006.227     132.0692   -26138.297    2424.3856 
    8200    299.65738   -26022.617    127.73071   -26150.347    486.49224 
    8400    298.27653   -25990.668    127.14211    -26117.81   -1656.2633 
    8600    302.34324   -26005.301    128.87557   -26134.177    898.78053 
    8800    275.83356   -26018.129    117.57567   -26135.705    1158.4473 
    9000    305.79519   -26007.123    130.34699    -26137.47     372.0142 
    9200    339.93707   -25991.998    144.90016   -26136.898   -2604.3349 
    9400    273.49493   -26015.706    116.57881   -26132.285   -3589.5972 
    9600    294.58171   -26014.542    125.56717    -26140.11   -1596.1115 
    9800    331.93186   -25978.689    141.48789   -26120.177    3113.6267 
   10000    288.50579   -26013.853    122.97728    -26136.83   -284.00986 
   10200    299.80013   -26004.681    127.79156   -26132.472    648.42903 
   10400    299.62199   -25992.867    127.71562   -26120.582   -2596.6496 
   10600    284.59773   -26018.121    121.31144   -26139.432   -1999.8962 
   10800    256.57608   -26034.837    109.36705   -26144.204   -543.68468 
   11000    286.34961   -26043.027    122.05819   -26165.085    -1749.976 
   11200    295.94603   -26016.712    126.14872    -26142.86   -661.18126 
   11400     303.8259   -26036.978    129.50756   -26166.485   -4940.1322 
   11600     285.2511   -26038.418    121.58995   -26160.008    4666.3191 
   11800    299.43269   -26015.319    127.63493   -26142.954    4199.3462 
   12000    317.32559   -25993.687    135.26188   -26128.949   -305.10669 
   12200    347.27235   -25993.769    148.02686   -26141.795    -2275.255 
   12400    318.13819    -26017.83    135.60826   -26153.438    -4644.057 
   12600     282.5873   -26035.124    120.45448   -26155.578   -900.63649 
   12800    287.55966   -26048.923    122.57398   -26171.497   -2733.0111 
   13000    301.77859   -26018.114    128.63489   -26146.749   -357.05114 
   13200    294.33787   -26027.075    125.46324   -26152.538   -571.90168 
   13400     287.3943   -26007.714     122.5035   -26130.217    4068.7817 
   13600    336.03415   -25997.647    143.23652   -26140.884    5948.9241 
   13800    289.46123   -26022.269    123.38454   -26145.654    2333.6423 
   14000    319.30017   -26006.849    136.10356   -26142.952    649.55834 
   14200    303.25833   -26017.618    129.26563   -26146.884    379.17314 
   14400    293.02965   -26020.141     124.9056   -26145.046    698.15079 
   14600    308.39899   -25999.208    131.45687   -26130.665   -3264.2051 
   14800    289.54379   -26024.956    123.41973   -26148.376    1010.5521 
   15000    318.77307    -26006.81    135.87888   -26142.689    2828.6854 
   15200    322.49937    -26013.14    137.46724   -26150.607    5526.5174 
   15400    309.29192   -26019.097    131.83749   -26150.935     1665.716 
   15600    333.34322    -25996.63     142.0895   -26138.719    2361.0139 
   15800    303.09231   -26012.396    129.19487   -26141.591    1281.9003 
   16000    327.74611   -25987.719    139.70369   -26127.422   -2078.1988 
   16200    317.69771   -26008.277     135.4205   -26143.697   -2056.5962 
   16400    297.09383   -26017.169    126.63798   -26143.807    1827.1973 
   16600    290.97159   -26042.338    124.02834   -26166.366    3836.6577 
   16800    265.14413   -26041.516    113.01923   -26154.535   -3456.8057 
   17000    308.24725   -26018.181    131.39219   -26149.573   -6168.4334 
   17200    296.95943   -26026.208    126.58069   -26152.789   -1709.3669 
   17400    307.21477   -25997.831    130.95209   -26128.783   -2319.5163 
   17600    277.36167   -26011.829    118.22703   -26130.056     -2045.25 
   17800    316.49858   -25999.648    134.90937   -26134.557   -977.59003 
   18000    292.68123   -25996.962    124.75708   -26121.719   -1216.1634 
   18200    304.42858   -26024.136    129.76446   -26153.901    -1091.997 
   18400    310.43073   -26034.181    132.32291   -26166.503   -467.82946 
   18600    341.29926    -26000.85     145.4808   -26146.331   -7986.3351 
   18800    292.89292    -26029.13    124.84732   -26153.978   -4297.5581 
   19000     269.0137   -26025.872    114.66866    -26140.54    2572.2636 
   19200    284.55745   -26007.365    121.29427    -26128.66    113.83905 
   19400    301.51818   -26008.831    128.52388   -26137.355    922.58941 
   19600    266.47122   -26030.508    113.58491   -26144.093    2055.6864 
   19800    294.05921   -26012.676    125.34445    -26138.02    887.56347 
   20000    324.83183   -25999.384    138.46146   -26137.845    3349.5146 
   20200    273.88865   -26034.328    116.74663   -26151.075   -1585.0268 
   20400    316.76047   -26006.058      135.021   -26141.079   -3522.1383 
   20600     278.2418   -26015.764    118.60219   -26134.366    137.64384 
   20800    287.51873   -26035.258    122.55654   -26157.814    -4271.103 
   21000    301.57222   -26001.929    128.54692   -26130.476   -3138.5792 
   21200    318.83903   -26000.203      135.907    -26136.11    5331.6253 
   21400    264.73375   -26022.637    112.84431   -26135.482    506.12036 
   21600    339.18507   -25988.206    144.57962   -26132.786   -1736.6103 
   21800    321.58171   -26005.321    137.07608   -26142.397    609.64034 
   22000    304.89905   -26027.576      129.965   -26157.541    3634.4578 
   22200    318.04762   -26007.229    135.56965   -26142.799    3107.1847 
   22400    296.76809    -26022.56    126.49913   -26149.059    1569.5648 
   22600    295.46087   -26024.916    125.94192   -26150.858    716.87632 
   22800    342.22894   -25994.856    145.87708   -26140.733    1249.2549 
   23000    277.57481   -25990.098    118.31788   -26108.415    4739.7375 
   23200    284.74243   -26017.339    121.37312   -26138.713    6696.5524 
   23400    284.26111   -26008.151    121.16796   -26129.319    6004.4191 
   23600    318.78503   -26007.756    135.88398    -26143.64   -528.67506 
   23800    301.14448   -26029.371    128.36459   -26157.735    2114.5701 
   24000    273.20162   -26037.873    116.45378   -26154.326    2057.8219 
   24200    305.63215   -26012.187    130.27749   -26142.464     2335.784 
   24400    268.75309   -26032.689    114.55757   -26147.247    1578.1832 
   24600    300.70129     -26003.9    128.17568   -26132.076    -1599.963 
   24800    319.13111   -26008.287     136.0315   -26144.318   -788.93074 
   25000    292.60706   -26035.455    124.72547   -26160.181   -4866.5663 
   25200    319.06442   -26006.172    136.00307   -26142.175   -1785.2543 
   25400    290.41151   -26024.523     123.7896   -26148.312     4337.823 
   25600    278.77199   -26008.445    118.82819   -26127.273    6504.1915 
   25800    320.23011   -26000.794    136.49995   -26137.294    1332.6066 
   26000     288.1284    -26023.26    122.81641   -26146.076   -2764.7481 
   26200    317.92651   -26011.625    135.51803   -26147.143   -3564.8465 
   26400    299.96082   -26012.219    127.86005   -26140.079     3670.274 
   26600    324.90705   -25980.037    138.49353   -26118.531     1548.301 
   26800     293.5405   -26003.766    125.12335   -26128.889   -21.957211 
   27000    300.24936   -26008.113    127.98304   -26136.096    -294.5895 
   27200    331.33089   -25982.946    141.23172   -26124.178   -2147.2234 
   27400    286.24048   -26016.699    122.01167   -26138.711     1379.566 
   27600    325.22474   -26009.417    138.62895   -26148.046    2064.1571 
   27800     278.0649    -26031.52    118.52679   -26150.047   -1688.8418 
   28000    302.37016   -26033.318    128.88704   -26162.205   -4278.8437 
   28200    289.18587   -26005.949    123.26716   -26129.217   -1325.0948 
   28400    297.48686   -26012.063    126.80551   -26138.868   -778.04864 
   28600    292.49632   -26018.521    124.67826   -26143.199   -2824.6491 
   28800    312.89681    -25996.84    133.37409   -26130.214    511.49828 
   29000    311.66666   -26012.871    132.84973    -26145.72    145.86483 
   29200    262.91632   -26029.338    112.06962   -26141.407     627.5742 
   29400    307.05759   -26025.843    130.88509   -26156.728   -672.66938 
   29600    246.17645   -26048.426    104.93415    -26153.36   -3172.9914 
   29800    296.38609   -26024.638     126.3363   -26150.974   -932.07345 
   30000    298.62353    -26004.64    127.29002    -26131.93    920.18087 
   30200    320.28979   -25976.768    136.52539   -26113.293   -1303.1397 
   30400    280.65193   -26010.859    119.62952   -26130.489   -3446.1208 
   30600    301.14376   -26021.479    128.36429   -26149.844   -2776.4648 
   30800    289.31537   -26019.082    123.32237   -26142.404    -1561.152 
   31000    291.77033   -26002.953    124.36881   -26127.321    1977.8781 
   31200    287.34357   -26033.116    122.48188   -26155.598   -74.573852 
   31400    302.18619   -26016.986    128.80863   -26145.794    713.39267 
   31600    288.52019   -26014.237    122.98342    -26137.22   -159.39818 
   31800    275.76698   -26033.186    117.54729   -26150.733   -2974.5137 
   32000    320.53257   -26012.167    136.62888   -26148.796   -6079.6283 
   32200    321.53615   -26000.191    137.05666   -26137.248    1204.0625 
   32400    266.71282   -26030.651     113.6879   -26144.339    519.64332 
   32600    275.42804   -26019.282    117.40281   -26136.684   -2152.3572 
   32800    294.80117   -25999.868    125.66072   -26125.529   -6577.6643 
   33000    314.36835   -26001.062    134.00134   -26135.063   -3213.9124 
   33200    294.16949   -26027.021    125.39146   -26152.413    192.42952 
   33400    299.84471   -26015.561    127.81056   -26143.372    524.92001 
   33600    322.75381   -25998.194    137.57569    -26135.77   -456.43969 
   33800    299.80817   -26031.302    127.79498   -26159.097     3253.652 
   34000    288.37043   -26006.338    122.91958   -26129.257    6016.5968 
   34200    303.46846   -26000.707     129.3552   -26130.062   -1017.1228 
   34400    270.86626   -26032.297    115.45832   -26147.755   -4087.4866 
   34600    297.32282   -26018.804    126.73559    -26145.54   -4157.1045 
   34800    309.43273    -26017.55    131.89751   -26149.448   -4039.4659 
   35000    253.91786   -26054.875    108.23397   -26163.109   -2783.6381 
   35200     265.8434   -26037.105     113.3173   -26150.422   -5975.4343 
   35400     300.5584   -26011.644    128.11477   -26139.759    -4522.643 
   35600    283.78248   -26007.306    120.96394    -26128.27    -124.6678 
   35800     265.4298   -26033.038      113.141   -26146.179    309.10727 
   36000    291.89556   -26007.798    124.42219    -26132.22    -1019.769 
   36200    308.14217   -26006.822     131.3474    -26138.17    3796.9425 
   36400     258.3966   -26037.689    110.14306   -26147.832    2917.9453 
   36600     300.9754   -26021.934    128.29252   -26150.226    1083.9019 
   36800    305.74153   -26013.752    130.32411   -26144.077   -990.33512 
   37000    287.18293   -26021.642     122.4134   -26144.056   -1040.2778 
   37200    313.41347   -26005.506    133.59432   -26139.101    3676.6747 
   37400    294.01235   -26002.085    125.32448   -26127.409    5102.3336 
   37600    295.99336   -26025.663     126.1689   -26151.832    2016.4034 
   37800    291.03714   -26007.125    124.05628   -26131.181   -1007.9768 
   38000    331.09068   -26001.221    141.12934    -26142.35   -1258.5842 
   38200    284.02336   -26011.555    121.06662   -26132.621    1773.8089 
   38400    281.56994   -26033.077    120.02083   -26153.098    2831.4452 
   38600    317.65738   -26010.113    135.40331   -26145.517    3630.3013 
   38800    272.01027   -26017.186    115.94596   -26133.132   -2300.6044 
   39000    328.59397   -26023.092     140.0651   -26163.158   -5971.9435 
   39200    292.53487   -26027.983    124.69469   -26152.678   -848.97496 
   39400    297.80209   -26003.579    126.93988   -26130.519     82.16231 
   39600    282.46003   -25999.088    120.40024   -26119.488    -1287.795 
   39800    262.16439   -26017.062     111.7491   -26128.811   -1568.8253 
   40000    306.46668   -26008.752    130.63321   -26139.385   -1696.4983 
   40200    294.87967   -26002.671    125.69418   -26128.366   -1746.8864 
   40400    309.17334   -26018.974    131.78694   -26150.761    -496.5987 
   40600    310.79572   -26040.391    132.47849    -26172.87    722.11197 
   40800    344.43406   -26009.711    146.81703   -26156.528    1950.0912 
   41000    279.84319   -26022.238    119.28479   -26141.523    44.245329 
   41200    303.67562   -26008.845    129.44351   -26138.289    1936.7835 
   41400    310.43611   -25992.071     132.3252   -26124.396   -2517.2074 
   41600    303.92264   -26013.356     129.5488   -26142.905   -6079.9715 
   41800    289.59599   -26014.574    123.44198   -26138.016   -3444.3028 
   42000    288.51391   -26031.888    122.98074   -26154.869   -601.62327 
   42200    307.66837   -26024.766    131.14544   -26155.912    1369.4906 
   42400    297.68306   -26008.366    126.88914   -26135.255    52.767928 
   42600     281.0815   -26015.539    119.81263   -26135.351   -36.044173 
   42800    363.83249   -25981.048    155.08572   -26136.134   -2552.0005 
   43000    293.04436   -26005.814    124.91187   -26130.726   -7107.3027 
   43200    328.64661   -26002.715    140.08754   -26142.802   -4384.7373 
   43400    270.79528   -26026.138    115.42807   -26141.566   -123.81109 
   43600    317.20556   -26008.847    135.21072   -26144.057    1552.6105 
   43800    305.88988    -26003.85    130.38735   -26134.237   -4326.2029 
   44000    255.73876   -26022.279    109.01014   -26131.289   -724.47618 
   44200    288.18875   -26020.721    122.84214   -26143.563    4800.0694 
   44400    323.33045   -26005.829    137.82149   -26143.651   -261.22174 
   44600    292.33572   -26034.732    124.60981   -26159.341    3498.4156 
   44800    308.19548   -26014.328    131.37012   -26145.698    1475.4137 
   45000    303.55852   -26011.278    129.39359   -26140.672    788.61257 
   45200    313.85285   -26011.507    133.78161   -26145.288    1597.8199 
   45400    307.20569    -26010.05    130.94822   -26140.999    636.65521 
   45600    314.80548   -25995.958    134.18767   -26130.146    2149.1554 
   45800    298.83873   -26032.803    127.38175   -26160.184    -729.3763 
   46000    308.45704   -26016.201    131.48162   -26147.682     2425.564 
   46200    294.64111    -26032.58    125.59249   -26158.172    2166.7489 
   46400    310.63946   -26033.767    132.41188   -26166.179   -1604.8565 
   46600    317.49112    -26008.45    135.33244   -26143.782    -521.9952 
   46800     304.7189   -26014.692    129.88821    -26144.58    705.44012 
   47000    278.84049   -26026.484    118.85739   -26145.341    5311.2924 
   47200    304.70887   -26002.525    129.88393   -26132.409    3382.1835 
   47400    283.00207   -26023.583    120.63128   -26144.214    7233.5271 
   47600    356.85625   -25997.872    152.11206   -26149.984    2139.1855 
   47800        312.8   -26015.897    133.33283    -26149.23   -528.85546 
   48000    288.96038   -26022.949    123.17105    -26146.12   -992.68611 
   48200    330.84502   -25996.119    141.02462   -26137.144   -56.536017 
   48400    287.87757   -26004.789    122.70949   -26127.499   -3967.3699 
   48600    313.45641   -26015.819    133.61262   -26149.431   -552.48642 
   48800    291.66072   -26014.645    124.32208   -26138.967    2589.5242 
   49000    312.16411   -25997.383    133.06177   -26130.445    300.44848 
   49200    288.41456   -26020.969    122.93839   -26143.908   -2564.4002 
   49400    308.29973   -26014.711    131.41456   -26146.126   -1032.5775 
   49600    290.81906   -25984.991    123.96332   -26108.955   -741.84591 
   49800    316.34966   -26016.776    134.84589   -26151.622    1755.3555 
   50000    296.36002   -26024.066    126.32519   -26150.391    2859.4416 
   50200    305.96293   -25991.634    130.41849   -26122.053    5382.2815 
   50400    319.36818   -26007.721    136.13255   -26143.853    4142.4798 
   50600    284.65044   -26014.894    121.33391   -26136.228   -560.03157 
   50800     329.0042   -25991.872    140.23996   -26132.112   -5633.4188 
   51000    367.81871   -25979.229    156.78487   -26136.014    -3527.473 
   51200    277.92699   -26017.594      118.468   -26136.062    403.99597 
   51400    296.62387   -26024.515    126.43766   -26150.953   -5021.9265 
   51600    265.67602   -26046.255    113.24595   -26159.501   -4780.7002 
   51800    313.64773   -26017.192    133.69418   -26150.887    -803.9895 
   52000     283.7291    -26026.04    120.94119   -26146.981    2790.8935 
   52200    306.26904    -26005.16    130.54897   -26135.709    4460.2665 
   52400    304.50611   -26000.187    129.79751   -26129.984    5556.4612 
   52600    269.13434   -26023.148    114.72008   -26137.869    2213.7072 
   52800    299.39382   -26020.489    127.61836   -26148.108    6843.6853 
   53000    301.50178   -26013.374     128.5169   -26141.891   -993.30778 
   53200    300.89126   -26023.311    128.25665   -26151.567    -1901.554 
   53400    300.16669   -26028.659     127.9478   -26156.607    2079.5981 
   53600    300.24665   -26008.796    127.98189   -26136.778   -3482.9449 
   53800    258.67105   -26041.245    110.26005   -26151.505    499.14168 
   54000    282.92847    -26020.23    120.59991    -26140.83    566.08522 
   54200    329.45518   -26004.687    140.43219    -26145.12    3576.8708 
   54400    286.14317   -26027.648    121.97019   -26149.618    3019.7468 
   54600    309.36321   -26007.616    131.86788   -26139.483   -671.88612 
   54800    320.35999   -26008.879    136.55531   -26145.435    4414.7479 
   55000    290.59596   -26031.573    123.86822   -26155.441    4533.8494 
   55200    301.75248   -26027.195    128.62375   -26155.819     1800.621 
   55400    318.19175   -25998.191    135.63109   -26133.822   -401.25848 
   55600    284.24071    -26015.61    121.15926    -26136.77    2844.8989 
   55800     298.5432   -26019.359    127.25578   -26146.615   -19.994059 
   56000    322.33513   -26000.244    137.39723   -26137.642    -720.5194 
   56200    287.34085   -26005.749    122.48071   -26128.229    2669.3848 
   56400    272.58415   -26014.154    116.19058   -26130.345   -3209.7383 
   56600    307.85017   -25988.669    131.22293   -26119.892   -1410.0065 
   56800    301.19243   -26020.766    128.38503   -26149.151   -583.56159 
   57000    309.63219   -26017.639    131.98253   -26149.621    2546.9648 
   57200    296.74798   -26043.623    126.49056   -26170.114   -104.95263 
   57400    308.66219   -26018.322    131.56906   -26149.891    1985.3607 
   57600    295.92143   -26016.669    126.13824   -26142.807    1780.6796 
   57800    310.56041    -25996.13    132.37819   -26128.508    3166.0345 
   58000    312.07201   -26000.471    133.02252   -26133.494    1444.0187 
   58200     293.0156   -26015.495    124.89961   -26140.395    233.23965 
   58400    311.89866   -26008.868    132.94863   -26141.817    1422.1561 
   58600     287.7174   -26038.538    122.64122   -26161.179    2470.2915 
   58800    299.33579    -26019.74    127.59363   -26147.333   -2196.6288 
   59000     287.5133   -26023.655    122.55422   -26146.209   -1429.5583 
   59200    279.69441   -26021.954    119.22138   -26141.176    1100.6777 
   59400     284.2636   -26004.273    121.16902   -26125.442    4829.9323 
   59600    276.98645   -26024.987    118.06709   -26143.054    3942.2011 
   59800    310.02384   -26014.884    132.14947   -26147.033    1046.6508 
   60000    291.84979   -26000.758    124.40268    -26125.16   -1267.5752 
   60200    287.12955   -26020.266    122.39065   -26142.657   -264.91648 
   60400    303.13176   -26032.126    129.21168   -26161.338    2669.7165 
   60600    313.06471   -26000.657    133.44566   -26134.103    1272.2751 
   60800    306.47358   -26011.221    130.63615   -26141.857   -4020.4918 
   61000    289.66652   -26012.647    123.47205   -26136.119   -1227.5259 
   61200    348.85275   -25975.734    148.70052   -26124.434    329.42574 
   61400    307.51202   -26010.579    131.07879   -26141.658    313.73678 
   61600    309.71813   -26008.738    132.01916   -26140.757   -1560.2159 
   61800    325.18135   -25992.223    138.61045   -26130.834   -2496.4406 
   62000    308.07973   -26016.938    131.32078   -26148.258    886.31626 
   62200    313.14331   -26006.689    133.47917   -26140.168    5539.9682 
   62400    265.43836   -26034.278    113.14465   -26147.423   -363.15371 
   62600    297.10086   -26012.329    126.64097    -26138.97    233.46448 
   62800    309.96862   -26012.821    132.12593   -26144.947    1617.1979 
   63000    287.21351   -26021.496    122.42644   -26143.923    4796.6459 
   63200      329.482   -25992.435    140.44362   -26132.879    437.55962 
   63400    295.51177   -25999.825    125.96362   -26125.788   -2509.3718 
   63600    304.68818    -26017.78    129.87512   -26147.655    2482.0464 
   63800    286.60037   -26017.453    122.16508   -26139.618    4605.7721 
   64000    373.87806   -25994.119     159.3677   -26153.486    2885.5965 
   64200    318.42794   -26028.638    135.73177    -26164.37    7351.0175 
   64400    297.49291   -26028.127    126.80809   -26154.935    6811.7365 
   64600    320.37511    -26003.73    136.56176   -26140.291    4579.4463 
   64800    295.59769   -26019.771    126.00024   -26145.771   -4695.9337 
   65000    308.66813   -25994.015    131.57159   -26125.587   -1485.5315 
   65200    274.59636   -26028.721     117.0483    -26145.77   -245.32346 
   65400    282.01562   -26014.206     120.2108   -26134.417    4550.2584 
   65600    308.06159   -26011.951    131.31305   -26143.264   -866.19811 
   65800    280.99015   -26026.445    119.77369   -26146.219   -1939.9164 
   66000    313.70207    -26013.53    133.71734   -26147.247   -2343.1204 
   66200    312.81586   -25993.769    133.33959   -26127.108   -1948.7291 
   66400    309.52845   -26005.425    131.93831   -26137.363    546.95903 
   66600    284.44273   -26027.708    121.24538   -26148.953    2146.1034 
   66800    319.77367   -26012.541    136.30539   -26148.846    722.86187 
   67000    308.65608   -26010.144    131.56646    -26141.71   -3844.7906 
   67200     270.7352   -26027.665    115.40246   -26143.067   -788.43808 
   67400    305.50252   -26007.399    130.22223   -26137.621    7585.9245 
   67600    317.60144   -26002.211    135.37947   -26137.591    4352.9786 
   67800    285.53645   -26029.273    121.71158   -26150.985   -1307.7221 
   68000    319.14834    -26017.57    136.03884   -26153.609    -3488.589 
   68200     318.1853   -26011.149    135.62834   -26146.778   -1264.6994 
   68400    292.64626   -26022.883    124.74218   -26147.625   -793.34956 
   68600    285.16843   -26017.196    121.55471   -26138.751    1190.4202 
   68800    303.03336   -26002.643    129.16974   -26131.812     2008.311 
   69000    291.18396   -26019.805    124.11886   -26143.924    5477.0522 
   69200    317.29149   -25986.964    135.24735   -26122.211   -1427.7563 
   69400    304.44743   -26014.462     129.7725   -26144.234   -4664.0509 
   69600    308.99374   -26032.744    131.71039   -26164.454   -4688.5636 
   69800    294.48538   -26030.005    125.52611   -26155.531   -227.54183 
   70000    284.72332   -26017.337    121.36498   -26138.702    5181.0142 
   70200    265.81192   -26033.014    113.30388   -26146.318    4515.8189 
   70400    327.87533   -25997.854    139.75877   -26137.613    1948.3945 
   70600    285.22251   -26019.827    121.57776   -26141.405   -1378.3742 
   70800    334.16144   -25997.221    142.43826    -26139.66   -4466.9758 
   71000    350.55463    -25977.95    149.42596   -26127.376    1250.7321 
   71200    290.52145   -26022.763    123.83646     -26146.6    155.08981 
   71400    279.83871   -26038.043    119.28288   -26157.326    -703.6662 
   71600    315.53665   -26005.644    134.49934   -26140.144   -4382.9341 
   71800    288.65445   -26020.013    123.04064   -26143.053   -1353.9768 
   72000    307.72544    -26007.07    131.16976    -26138.24   -5419.2912 
   72200    308.92905   -26003.881    131.68281   -26135.564   -1798.2392 
   72400    275.51728    -26022.07    117.44085   -26139.511   -67.633933 
   72600    272.74575    -26039.93    116.25947    -26156.19   -3929.4649 
   72800    291.35513   -26011.618    124.19182    -26135.81   -3787.2356 
   73000    310.34106   -26001.469    132.28469   -26133.754   -457.42168 
   73200    303.03777   -26014.648    129.17162    -26143.82    912.38946 
   73400    268.85265   -26028.926    114.60001   -26143.526   -456.85478 
   73600    306.16206   -26000.235    130.50337   -26130.738   -2429.1566 
   73800    297.38297   -26022.747    126.76123   -26149.508    756.66941 
   74000     295.0449   -26025.086    125.76461   -26150.851    1829.7004 
   74200    339.06738   -26015.695    144.52945   -26160.225     3116.378 
   74400     298.9936   -26023.261    127.44777   -26150.709   -17.640042 
   74600    314.25925   -26001.122    133.95484   -26135.076   -1786.6606 
   74800    268.34403   -26022.715    114.38321   -26137.099   -2936.7244 
   75000    273.24861   -26025.604    116.47381   -26142.078   -487.83142 
   75200    298.20529   -26016.547    127.11174   -26143.659   -1359.5185 
   75400    323.47332    -26018.93    137.88239   -26156.812    -606.9727 
   75600    272.68778   -26045.421    116.23476   -26161.656    193.06086 
   75800    303.01601   -26016.074    129.16234   -26145.237    6184.4855 
   76000     305.9028   -26010.682    130.39285   -26141.074    2524.1463 
   76200    309.85923   -26014.806    132.07931   -26146.886    172.87007 
   76400    321.02464   -26003.661    136.83863     -26140.5    6004.3038 
   76600    304.41098   -26029.966    129.75696   -26159.723    3322.2396 
   76800    286.23882   -26038.419    122.01097    -26160.43    1849.5587 
   77000    331.36989    -26007.64    141.24835   -26148.888    360.06787 
   77200    279.77427    -26019.57    119.25542   -26138.825   -966.68393 
   77400    278.52019     -26029.2    118.72086   -26147.921    4431.3649 
   77600    299.69194   -25999.252    127.74544   -26126.997    5791.9631 
   77800    307.42323   -26010.496    131.04094   -26141.537    198.37895 
   78000    299.64302   -26028.584    127.72459   -26156.309   -1911.5827 
   78200     292.8749   -26008.574    124.83964   -26133.413    1382.6539 
   78400    308.25816    -26014.09    131.39684   -26145.487    478.07587 
   78600    278.18981   -26030.515    118.58003   -26149.095   -1260.3782 
   78800    313.37766   -26003.202    133.57906   -26136.781    5183.3307 
   79000    319.08668   -26011.514    136.01256   -26147.527   -481.81163 
   79200    280.30589   -26033.889    119.48202   -26153.371     1733.997 
   79400    312.60174   -26010.347    133.24832   -26143.596     610.8259 
   79600    295.82665   -26018.351    126.09783   -26144.449    -2275.009 
   79800    261.01676   -26042.079    111.25992   -26153.339   -5419.7317 
   80000    293.22701   -26012.391    124.98972   -26137.381   -5468.9407 
   80200    293.35546    -26011.91    125.04448   -26136.955   -5598.7774 
   80400    305.28177   -26018.212    130.12813    -26148.34   -2078.3375 
   80600    277.10186   -26033.169    118.11628   -26151.285   -4886.5247 
   80800    321.96801   -26002.434    137.24074   -26139.675   -2092.7351 
   81000    300.11599   -26017.648    127.92619   -26145.574    959.57995 
   81200    256.08887   -26044.043    109.15938   -26153.203   -1288.5503 
   81400    272.65857   -26034.026    116.22231   -26150.248   -2840.1452 
   81600    303.07485   -26009.796    129.18742   -26138.984   -1063.3108 
   81800    305.86633   -26012.867    130.37731   -26143.244    813.45289 
   82000    309.42177   -26020.913    131.89284   -26152.805     -2645.33 
   82200    276.02223   -26027.217    117.65609   -26144.873   -1951.2764 
   82400    260.54207   -26034.469    111.05758   -26145.526    3781.6762 
   82600    328.97858   -26006.093    140.22904   -26146.322    2598.6231 
   82800    277.26537   -26020.084    118.18598    -26138.27    704.01458 
   83000    296.76923   -26033.146    126.49961   -26159.645    717.81936 
   83200    290.92125   -26016.774    124.00688   -26140.781     3558.126 
   83400    315.49476   -26004.931    134.48148   -26139.412   -1477.1373 
   83600    286.87898   -26028.454    122.28384   -26150.738   -1643.8861 
   83800     299.5765   -26021.603    127.69623   -26149.299   -2792.1091 
   84000    308.81919   -26003.761    131.63598   -26135.397    1093.7808 
   84200    341.16834   -25977.563      145.425   -26122.988   -182.35502 
   84400    291.16733   -26009.876    124.11178   -26133.987   -2473.4109 
   84600    276.07045   -26023.288    117.67664   -26140.965   -8450.6199 
   84800    336.40039   -25987.529    143.39263   -26130.922   -4576.2856 
   85000    296.01064   -26003.443    126.17626   -26129.619   -1213.1528 
   85200    260.02623   -26025.261     110.8377   -26136.099   -1534.5468 
   85400    321.07339   -26011.821    136.85941    -26148.68    759.33459 
   85600    322.57621   -25980.135    137.49999   -26117.635     -1337.79 
   85800    314.23192   -26004.136    133.94319   -26138.079    -1511.346 
   86000     308.0524   -26010.293    131.30913   -26141.602    561.03369 
   86200    262.83591   -26037.525    112.03534   -26149.561   -1458.4934 
   86400    335.24827   -26007.328    142.90153    -26150.23   -3782.7598 
   86600    315.77794   -26008.137    134.60219   -26142.739   -3219.7823 
   86800     278.7483   -26032.416    118.81809   -26151.234   -776.99441 
   87000    306.44364   -26023.807    130.62339    -26154.43   -791.30778 
   87200    317.16947   -26005.118    135.19534   -26140.313   -2493.0109 
   87400    325.75594   -26019.651    138.85537   -26158.506    953.94152 
   87600    269.25269   -26040.694    114.77053   -26155.465   -111.46577 
   87800    334.68391   -26020.321    142.66097   -26162.982    2793.2288 
   88000    276.93718   -26012.233    118.04609   -26130.279    4684.7809 
   88200    305.09742   -26008.383    130.04956   -26138.432   -259.37179 
   88400    302.30174   -26018.447    128.85788   -26147.305    190.19107 
   88600    304.53829   -26018.203    129.81122   -26148.014   -1119.0428 
   88800    301.78074   -26002.611     128.6358   -26131.247   -2476.5143 
   89000    293.97689   -25998.379    125.30936   -26123.689   -1017.8192 
   89200    268.02411   -26027.963    114.24684    -26142.21   -3214.4863 
   89400    307.51924   -26020.571    131.08187   -26151.653   -2885.4383 
   89600    323.43857   -25984.536    137.86758   -26122.403   -286.74655 
   89800      308.533   -26003.992    131.51399   -26135.506    2750.7007 
   90000    303.47659   -26004.741    129.35867     -26134.1   -2604.9291 
   90200    359.41063   -25991.294    153.20088   -26144.495   -4958.6278 
   90400    284.95069   -26016.457     121.4619   -26137.919    2147.7382 
   90600    313.25149   -25995.515    133.52528   -26129.041    1448.7012 
   90800     300.8672   -26011.583     128.2464    -26139.83    395.32523 
   91000    271.89877   -26033.631    115.89844    -26149.53   -561.94985 
   91200    310.09072   -26004.389    132.17798   -26136.567   -3321.4143 
   91400    298.93902   -26002.493     127.4245   -26129.917    -2363.233 
   91600    292.51986   -26022.263     124.6883   -26146.951   -877.96102 
   91800     312.9537   -26017.579    133.39834   -26150.978    1152.6895 
   92000    301.05558   -26002.362     128.3267   -26130.688   -5585.3516 
   92200    254.39856   -26035.097    108.43887   -26143.536   -1297.5146 
   92400    303.54284   -26021.529    129.38691   -26150.916    804.49072 
   92600    351.22248   -25989.064    149.71063   -26138.774    695.99842 
   92800    285.56523   -26004.947    121.72384   -26126.671   -1147.4353 
   93000      318.698   -26013.962    135.84688   -26149.809   -5261.6036 
   93200    275.97827   -26034.378    117.63735   -26152.015    770.35444 
   93400    266.33642   -26046.704    113.52746   -26160.232    2158.2658 
   93600    291.23086   -26017.433    124.13885   -26141.572   -592.10013 
   93800    293.58703   -26001.648    125.14319   -26126.792    1714.5454 
   94000    273.80641   -26036.166    116.71158   -26152.877   -2868.1371 
   94200    280.90934   -26012.154    119.73925   -26131.893   -2399.2109 
   94400    331.52422    -26004.56    141.31413   -26145.874    1466.8996 
   94600    290.82368   -26025.421    123.96529   -26149.386    1642.6976 
   94800    347.87399   -25994.599    148.28332   -26142.883   -37.489367 
   95000    288.24045   -26019.769    122.86418   -26142.633   -3769.9646 
   95200    312.37965   -26003.567    133.15365    -26136.72   -1007.5188 
   95400    323.78038   -25991.139    138.01328   -26129.152   -297.19278 
   95600    272.48614   -26016.358    116.14881   -26132.507   -3396.6678 
   95800    327.09745   -26000.611     139.4272   -26140.038   -4156.7329 
   96000    265.25536   -26019.372    113.06665   -26132.438    876.42666 
   96200    267.00239   -26038.264    113.81133   -26152.076    3419.6774 
   96400    285.63872   -26010.171    121.75517   -26131.927    1913.6109 
   96600    317.04185   -26006.924    135.14094   -26142.064   -2285.9089 
   96800    258.53563   -26041.653    110.20232   -26151.855   -141.97561 
   97000    297.04399   -26019.595    126.61673   -26146.212    3842.5773 
   97200    302.17613    -26001.14    128.80434   -26129.945   -511.50854 
   97400    308.14678   -26021.496    131.34936   -26152.845   -2664.0233 
   97600     305.7897   -26026.637    130.34464   -26156.981   -660.28826 
   97800    307.06576    -26016.83    130.88857   -26147.719   -2893.7038 
   98000    314.59914   -26022.916    134.09972   -26157.015   -3718.4637 
   98200    279.00891   -26030.516    118.92918   -26149.445   -2165.5147 
   98400    284.18054   -26006.438    121.13362   -26127.571    -6286.174 
   98600    296.67702   -26008.339    126.46031   -26134.799   -3307.6052 
   98800    286.74444   -26030.181    122.22649   -26152.408    2564.3902 
   99000    320.88314   -26001.733    136.77831   -26138.511    2373.1043 
   99200    304.75256   -26015.507    129.90256    -26145.41   -1549.7774 
   99400    291.63317   -26019.788    124.31034   -26144.099    255.27707 
   99600    328.39629   -25998.788    139.98083   -26138.768    2116.1729 
   99800    313.27025   -25992.728    133.53327   -26126.261    2195.3155 
  100000    293.82659   -26027.931     125.2453   -26153.176     2797.715 
  100200    289.55423   -26025.164    123.42418   -26148.588   -3354.1002 
  100400    314.98095   -25994.416    134.26247   -26128.679   -3014.0574 
  100600    315.94602   -26019.644    134.67384   -26154.318   -2971.7688 
  100800    308.78356   -26013.698     131.6208   -26145.319   -1704.6084 
  101000    327.15233   -25995.809    139.45059   -26135.259    -513.0117 
  101200    264.38501   -26025.937    112.69565   -26138.632   -2865.3366 
  101400    287.85752   -26000.211    122.70095   -26122.912    2442.6441 
  101600    330.90548   -26011.335    141.05039   -26152.386   -5584.6416 
  101800    297.66524    -26027.82    126.88155   -26154.702   -2878.6709 
  102000    300.25084   -26004.731    127.98367   -26132.714   -975.62518 
  102200    311.42138   -26006.829    132.74518   -26139.574    582.46719 
  102400    296.31873   -26025.601    126.30759   -26151.908   -2840.5047 
  102600    316.02857   -26002.707    134.70902   -26137.416   -3106.6544 
  102800    285.45519   -26004.265    121.67694   -26125.942   -3348.6729 
  103000    301.73812   -26007.374    128.61763   -26135.991    4862.5813 
  103200    285.14763    -26028.51    121.54584   -26150.055    510.65471 
  103400    297.58582   -26017.497    126.84769   -26144.344     -3049.31 
  103600    300.22512   -26000.451    127.97271   -26128.424    -3604.353 
  103800    295.11779   -26008.088    125.79568   -26133.883   -3759.2457 
  104000    271.93591   -26031.394    115.91427   -26147.308    -1510.786 
  104200    315.83008   -25998.228    134.62442   -26132.852    2753.1324 
  104400    315.77667   -26009.854    134.60165   -26144.456   -1052.8196 
  104600    318.81563   -26026.021    135.89702   -26161.918    -2515.104 
  104800     267.1701   -26048.183    113.88281   -26162.066   -786.85509 
  105000    276.54754   -26027.049       117.88   -26144.929    1865.6519 
  105200    305.79017   -26004.736    130.34484   -26135.081    728.04911 
  105400    297.92225   -26016.762     126.9911   -26143.753     37.72901 
  105600    294.05332   -26032.933    125.34195   -26158.275   -1708.0774 
  105800    297.87396     -26007.3    126.97051   -26134.271   -235.36861 
  106000     285.3017    -26014.99    121.61151   -26136.602   -389.49744 
  106200    299.30631   -26019.186    127.58106   -26146.767   -2044.7234 
  106400    327.98279   -26011.658    139.80458   -26151.463   -7278.2862 
  106600    309.80683   -25990.832    132.05697   -26122.889   -3925.8124 
  106800     328.6375   -26001.068    140.08365   -26141.152    2279.3607 
  107000    298.41022   -26018.033     127.1991   -26145.232   -94.469312 
  107200    291.28922   -26018.462    124.16373   -26142.626     1237.308 
  107400    299.03051   -26026.606     127.4635   -26154.069    3653.0118 
  107600    327.19512   -26000.806    139.46883   -26140.275    2762.7195 
  107800    286.12633   -26024.975    121.96302   -26146.938   -1425.3823 
  108000    268.99234   -26018.007    114.65956   -26132.666    1429.7744 
  108200    279.35018    -25999.08    119.07465   -26118.155    8664.4117 
  108400    291.06482    -26013.88    124.06808   -26137.948    6817.9736 
  108600    321.80946   -26025.873    137.17316   -26163.046    4484.1151 
  108800    314.35793    -26009.98     133.9969   -26143.977    296.81096 
  109000    331.76407   -25991.739    141.41637   -26133.155    720.90832 
  109200    323.76689   -26010.589    138.00753   -26148.596    5687.9681 
  109400    279.75825   -26023.951    119.24859   -26143.199    1889.7995 
  109600    293.29746   -26016.705    125.01976   -26141.724   -2305.6421 
  109800    298.73994    -26003.75    127.33964    -26131.09   -3440.4843 
  110000    287.09984   -26034.329    122.37798   -26156.707   -2865.6796 
  110200    324.95683   -26028.044    138.51475   -26166.559    3575.2161 
  110400    325.68085   -26005.669    138.82336   -26144.492    2964.9559 
  110600      276.986   -26024.744     118.0669   -26142.811     2100.713 
  110800     347.8707   -25995.056    148.28192   -26143.337   -2512.3374 
  111000    325.83517   -26008.551    138.88914   -26147.441   -3194.7533 
  111200    288.07543   -26023.306    122.79383     -26146.1   -1500.6712 
  111400    303.20198    -26007.44    129.24161   -26136.682    183.70248 
  111600    279.58499   -26011.038    119.17474   -26130.213    1165.4689 
  111800    272.48319   -26025.827    116.14755   -26141.974   -1086.6002 
  112000    319.49055   -25998.687    136.18471   -26134.872    588.73569 
  112200    273.50663   -26005.692     116.5838   -26122.276    1184.7678 
  112400     284.2562   -26021.945    121.16586   -26143.111    683.28203 
  112600    284.44677   -26032.375     121.2471   -26153.622    757.63683 
  112800    314.85877   -26007.038    134.21039   -26141.249    7038.1802 
  113000    308.39693   -26011.444    131.45599     -26142.9    6583.1194 
  113200    318.75448   -26022.854    135.87096   -26158.725     5079.297 
  113400     308.9121   -25988.402    131.67559   -26120.077    4227.4043 
  113600    295.60147   -26005.327    126.00185   -26131.329    2205.3312 
  113800    305.25869    -26004.82     130.1183   -26134.938   -2868.3818 
  114000    322.00321   -25994.532    137.25575   -26131.787    1921.4771 
  114200    295.99139   -26021.074    126.16806   -26147.242   -2736.0239 
  114400    299.81813    -26020.64    127.79923   -26148.439   -5767.8991 
  114600    318.57063    -26010.11    135.79259   -26145.902   -2031.4717 
  114800    295.69944   -26014.392    126.04361   -26140.436    2345.0709 
  115000    289.87841   -26029.263    123.56236   -26152.825   -2745.3156 
  115200     335.2009   -25996.822    142.88134   -26139.703   -3709.6748 
  115400    289.31035    -26025.31    123.32023   -26148.631   -3207.0788 
  115600    311.82423    -26022.93     132.9169   -26155.847   -146.58726 
  115800    312.02223   -25992.604     133.0013   -26125.605     3571.979 
  116000    297.01155   -26028.451    126.60291   -26155.054   -144.31047 
  116200    305.49757    -26018.29    130.22012   -26148.511   -203.88812 
  116400     322.8955   -25999.452    137.63609   -26137.088   -3161.7534 
  116600    319.30577   -26018.604    136.10595    -26154.71   -1177.2538 
  116800    317.48192   -26018.971    135.32852     -26154.3    4387.4898 
  117000    286.14878   -26038.985    121.97259   -26160.958    229.08452 
  117200    320.53551   -26010.367    136.63013   -26146.997   -2382.0793 
  117400    304.08049   -26015.587    129.61608   -26145.203   -2167.8982 
  117600    278.81739   -26032.127    118.84754   -26150.975    1003.9533 
  117800    328.51973   -26002.902    140.03345   -26142.935   -39.866764 
  118000    297.42185   -26020.527     126.7778   -26147.305   -5264.9948 
  118200    257.86571   -26049.535    109.91677   -26159.452   -878.15065 
  118400    276.45565   -26018.063    117.84083   -26135.904    3697.9652 
  118600    292.72947   -26013.004    124.77764   -26137.782    565.30976 
  118800    335.13012   -25998.874    142.85117   -26141.726   -3044.9943 
  119000    293.04921   -26006.232    124.91394   -26131.146    3594.1168 
  119200    290.23937   -26014.174    123.71623    -26137.89    1541.4415 
  119400    354.95496   -25991.068    151.30162   -26142.369   -951.22142 
  119600    295.79673   -26010.399    126.08508   -26136.484   -7017.0676 
  119800    339.88011   -26007.105    144.87588   -26151.981   -5727.7369 
  120000    280.76943   -26034.749    119.67961   -26154.429   -2135.8065 
  120200     320.9708   -26012.779    136.81568   -26149.595   -415.19982 
  120400    324.69691   -26008.679    138.40395   -26147.083    1179.7072 
  120600    304.77819   -26001.332    129.91348   -26131.245   -572.40191 
  120800    344.65167    -25992.01    146.90979    -26138.92   -720.67558 
  121000     318.1877   -26016.471    135.62936   -26152.101     989.9439 
  121200    285.94886   -26030.475    121.88737   -26152.362   -5503.5168 
  121400    309.60603   -26015.146    131.97138   -26147.117   -7337.7924 
  121600    281.94493   -26013.307    120.18067   -26133.488   -3496.5571 
  121800    274.45899   -26037.588    116.98975   -26154.578   -728.13031 
  122000    301.06439   -26017.928    128.33045   -26146.259   -431.01301 
  122200    321.89345   -26004.551    137.20896    -26141.76    -1096.373 
  122400    295.77009   -26022.882    126.07373   -26148.955   -6326.9527 
  122600    309.23019   -26027.299    131.81117    -26159.11   -5109.9544 
  122800    325.40169   -25999.446    138.70437   -26138.151   -131.18534 
  123000    286.57125   -26009.434    122.15267   -26131.586   -1925.9535 
  123200    281.51919   -26024.222     119.9992   -26144.221   -2505.3018 
  123400    329.78028   -26003.548    140.57077   -26144.119   -3614.7637 
  123600      280.561   -26024.432    119.59076   -26144.023    2145.1699 
  123800     304.1444   -26028.926    129.64332   -26158.569   -857.44067 
  124000    324.86118   -26000.778    138.47397   -26139.252   -2827.9337 
  124200    309.28708   -26022.152    131.83542   -26153.988    -4960.091 
  124400    296.41031   -26008.462    126.34663   -26134.809   -6965.6649 
  124600    292.40546   -25990.814    124.63953   -26115.453    1204.9915 
  124800    292.71333   -26021.867    124.77076   -26146.638    3306.5079 
  125000    301.65345   -26020.325    128.58154   -26148.907   -1819.4871 
  125200     332.8427   -26004.988    141.87615   -26146.864   -3634.1997 
  125400    296.48665   -26033.105    126.37917   -26159.484    813.26074 
  125600    296.20857   -26024.672    126.26063   -26150.933   -2582.5726 
  125800    301.14106   -26007.301    128.36314   -26135.665    3543.8955 
  126000    290.31121   -26005.339    123.74685   -26129.086    4502.9566 
  126200    304.09107   -26004.817    129.62059   -26134.438   -1237.2786 
  126400     311.5937   -26002.741    132.81863    -26135.56   -953.12834 
  126600    283.58135   -26032.114    120.87821   -26152.992    4689.6602 
  126800    309.06711   -26013.403    131.74166   -26145.145     2338.219 
  127000    306.23311   -26022.194    130.53365   -26152.727    182.65445 
  127200    283.87727   -26024.667    121.00435   -26145.671    -2363.311 
  127400    282.27907   -26034.222     120.3231   -26154.545    1644.2942 
  127600    320.74314   -26003.974    136.71864   -26140.693    7054.9744 
  127800    310.16613   -26021.729    132.21012   -26153.939    1438.4596 
  128000    314.67732   -26020.341    134.13304   -26154.474   -3212.9741 
  128200    310.65052   -26003.467     132.4166   -26135.884    3441.8365 
  128400    291.91785   -26031.425    124.43169   -26155.857    2236.2709 
  128600    283.00512   -26023.299    120.63258   -26143.931    582.41045 
  128800    313.26344   -26015.447    133.53037   -26148.977    790.62934 
  129000    329.65966   -26005.284    140.51936   -26145.803   -3073.6734 
  129200    278.72291   -26030.717    118.80727   -26149.524   -1644.4213 
  129400     328.1023   -26010.766    139.85552   -26150.621    2312.9534 
  129600    285.69417   -26013.905    121.77881   -26135.684    279.82471 
  129800    297.52545   -26008.769    126.82196   -26135.591   -329.16829 
  130000    326.39355    -25991.22    139.12716   -26130.347   -5656.9501 
  130200    321.70454    -26009.19    137.12844   -26146.318   -2001.1515 
  130400    301.46819   -26008.945    128.50258   -26137.448   -2723.2763 
  130600    348.48686   -25992.884    148.54456   -26141.429    1444.2739 
  130800    285.32914   -26018.402    121.62321   -26140.026    2328.0232 
  131000    279.31268   -26027.915    119.05866   -26146.974   -2290.3328 
  131200    284.09154   -26035.265    121.09568   -26156.361     1825.002 
  131400    301.25408   -26011.202    128.41131   -26139.613    3346.7244 
  131600    298.63196   -26003.057    127.29362    -26130.35    1119.7452 
  131800    286.55061   -26022.727    122.14387   -26144.871    4129.7061 
  132000     312.2242   -26007.664    133.08739   -26140.751    1754.4756 
  132200    306.85959   -25996.953    130.80069   -26127.754    3754.0203 
  132400    289.30305   -26032.915    123.31711   -26156.232    5463.9301 
  132600    294.16186   -26024.362    125.38821    -26149.75    5172.3996 
  132800    315.15928   -26004.046    134.33848   -26138.385   -1180.5447 
  133000    291.10544     -26016.9    124.08539   -26140.985   -2615.8058 
  133200    296.11249   -26015.485    126.21968   -26141.705    997.72309 
  133400    319.03312   -25991.501    135.98973    -26127.49    2692.4083 
  133600    300.39449    -26022.66    128.04491   -26150.704   -4630.2885 
  133800    283.28631   -26030.236    120.75244   -26150.988   -1682.7405 
  134000    308.57698   -26001.329    131.53274   -26132.861    395.97485 
  134200    288.67168   -26025.796    123.04799   -26148.844    2422.8661 
  134400    294.74009   -26018.629    125.63468   -26144.264    2374.9104 
  134600    289.75956   -26011.252     123.5117   -26134.763    408.86677 
  134800    313.55724   -26014.113     133.6556   -26147.768    2524.8014 
  135000    296.65967   -26022.573    126.45292   -26149.026    7979.2274 
  135200    306.06987   -25994.163    130.46407   -26124.627    2776.6953 
  135400    305.00813   -26015.776    130.01149   -26145.787   -1169.8904 
  135600       305.98   -26020.264    130.42576    -26150.69    920.77346 
  135800     339.1753   -26005.039    144.57545   -26149.614    4743.8635 
  136000     336.0229   -25987.835    143.23172   -26131.066   -34.342949 
  136200    265.09006   -26018.047    112.99619   -26131.043   -1169.1845 
  136400    312.68785   -26006.103    133.28502   -26139.388    1179.2205 
  136600    318.18893   -26004.849    135.62989   -26140.479    7356.2916 
  136800    293.49599   -26019.195    125.10438   -26144.299    3952.4651 
  137000    308.68052   -25999.704    131.57687   -26131.281   -1754.3926 
  137200    285.89234   -26020.401    121.86328   -26142.265   -2169.8068 
  137400     285.4671   -26032.629    121.68202   -26154.311   -323.89466 
  137600    333.94421   -26005.746    142.34567   -26148.092   -3014.2964 
  137800    289.08338   -26024.814    123.22348   -26148.038   -2933.6827 
  138000    256.55325   -26035.355    109.35732   -26144.712   -826.71495 
  138200    284.99993   -26020.272    121.48288   -26141.755   -1476.0016 
  138400    299.90781   -26002.501    127.83745   -26130.339   -4229.8976 
  138600    283.55456   -26006.814    120.86679   -26127.681   -7818.3604 
  138800    283.33824   -26019.827    120.77458   -26140.602   -6332.0696 
  139000    322.63027   -26003.763    137.52304   -26141.286   -1081.6569 
  139200    288.52617   -26038.677    122.98597   -26161.663    369.62838 
  139400    302.01306   -26013.436    128.73483   -26142.171    1969.6278 
  139600    294.87125   -26017.957    125.69059   -26143.647    1929.2609 
  139800    298.56672     -26032.4    127.26581   -26159.666    1032.5042 
  140000    311.50482   -26013.006    132.78075   -26145.786    119.17362 
  140200    358.94174   -25984.118    153.00101   -26137.119    12.862287 
  140400    306.45787   -26008.821    130.62946    -26139.45   -1037.4957 
  140600    289.19232   -26020.305    123.26991   -26143.575   -1539.7935 
  140800    288.42254   -26014.166    122.94179   -26137.108    2505.1081 
  141000    310.99707   -25996.439    132.56432   -26129.003    972.74181 
  141200    286.24519   -26025.266    122.01368    -26147.28    930.97691 
  141400    299.50413   -26015.571    127.66538   -26143.237    1754.2407 
  141600    292.34407   -26012.243    124.61336   -26136.856   -1975.4786 
  141800    305.95974   -26010.177    130.41713   -26140.594    1053.9465 
  142000    367.39223    -25983.68    156.60308   -26140.283   -7.5738589 
  142200    313.11185   -26016.227    133.46575   -26149.693     2285.965 
  142400    302.70353   -26014.295    129.02915   -26143.324    3541.3939 
  142600    306.05816   -25990.145    130.45908   -26120.604    270.57445 
  142800    301.30346   -26000.171    128.43236   -26128.603    1496.7298 
  143000    248.99698   -26020.868    106.13642   -26127.005   -1570.6551 
  143200    342.44025    -25994.35    145.96715   -26140.317    793.98609 
  143400    293.11536   -26025.965    124.94213   -26150.908   -5170.4684 
  143600    336.78395   -26008.927    143.55612   -26152.483   -1002.5521 
  143800    304.99916   -26015.694    130.00767   -26145.701   -4128.5248 
  144000    271.92098   -26040.436    115.90791   -26156.344    1001.2114 
  144200    304.41219   -26011.934    129.75747   -26141.692    231.28195 
  144400    293.96192   -26006.931    125.30299   -26132.234   -3374.0255 
  144600    311.85869   -26018.514    132.93159   -26151.446   -3776.1806 
  144800    307.19639   -26025.406    130.94425    -26156.35   -4968.3483 
  145000    296.09478   -26016.896    126.21213   -26143.108   -2605.7641 
  145200    272.83071   -26047.681    116.29568   -26163.976    332.69937 
  145400     326.4053   -26021.593    139.13217   -26160.725    -1889.617 
  145600    339.62895   -26007.792    144.76882   -26152.561   -471.82873 
  145800    268.85385   -26039.777    114.60052   -26154.378    872.01189 
  146000    282.00747   -26029.563    120.20733    -26149.77    3735.4892 
  146200     289.4365   -26010.007      123.374   -26133.381    4094.0498 
  146400    280.68827   -26020.341    119.64501   -26139.986    625.27955 
  146600    274.48763   -26041.222    117.00195   -26158.224   -3643.4113 
  146800    288.58357   -26010.038    123.01043   -26133.048   -4385.8939 
  147000    297.23027   -26017.506    126.69614   -26144.202   -821.54389 
  147200    273.71282   -26016.568    116.67169   -26133.239   -2302.2488 
  147400    304.07894   -25999.731    129.61542   -26129.347   -2865.7509 
  147600    290.56389   -26025.959    123.85455   -26149.813   -5460.0572 
  147800    305.61174   -26009.962    130.26879    -26140.23    1989.5508 
  148000    299.50991   -26011.959    127.66785   -26139.627    5469.0139 
  148200    282.20206   -26018.153    120.29027   -26138.444    1016.6489 
  148400    310.50551   -25993.722    132.35479   -26126.076   -801.33027 
  148600     274.9732    -26028.44    117.20893   -26145.649    60.788133 
  148800    294.16817   -26024.341     125.3909   -26149.732   -736.01385 
  149000    285.74708   -26003.878    121.80136    -26125.68   -3846.3091 
  149200    317.42064   -26012.565     135.3024   -26147.868    -1746.018 
  149400    285.25421   -26031.866    121.59127   -26153.457    3071.0912 
  149600    300.74454   -26003.033    128.19412   -26131.227   -288.23807 
  149800    259.14851   -26016.993    110.46357   -26127.456   -1487.0349 
  150000    308.85288   -26010.561    131.65034   -26142.212    -3023.061 
  150200    330.95133   -26016.032    141.06994   -26157.101   -3923.1028 
  150400    287.84552   -26040.229    122.69583   -26162.925   -1720.5093 
  150600    288.56686   -26038.756    123.00331   -26161.759   -2722.0271 
  150800    286.38488   -26018.128    122.07323   -26140.201    -4681.922 
  151000    325.44147   -26009.531    138.72133   -26148.252    66.464925 
  151200    270.85712   -26038.672    115.45443   -26154.126    1027.2561 
  151400    275.57409   -26013.184    117.46507   -26130.649   -473.62209 
  151600    316.79818   -26010.943    135.03707    -26145.98   -367.66907 
  151800    264.86374   -26036.485    112.89971   -26149.385   -1980.6904 
  152000    293.33921   -26025.178    125.03755   -26150.216   -284.81569 
  152200    337.52794   -26010.839    143.87325   -26154.712    86.354313 
  152400    292.97587   -26019.857    124.88268    -26144.74   -2104.3037 
  152600    288.13131   -26033.441    122.81765   -26156.259   -3913.6658 
  152800    317.10773   -26000.427    135.16902   -26135.596   -499.64435 
  153000    288.96997   -26014.524    123.17514   -26137.699    581.86958 
  153200    267.97531   -26028.135    114.22604   -26142.361   -335.66171 
  153400    307.22467   -26000.356    130.95631   -26131.312    577.74296 
  153600    270.55478   -26016.997    115.32555   -26132.322   -531.63055 
  153800    303.56041   -26026.625     129.3944   -26156.019    1301.1545 
  154000    296.28365   -26005.893    126.29263   -26132.185    2481.1857 
  154200    286.14022   -26014.612    121.96894   -26136.581    840.64979 
  154400    292.39752   -26024.487    124.63615   -26149.123   -759.08578 
  154600    263.65829    -26002.56    112.38589   -26114.946    951.96142 
  154800    316.87608   -26001.662    135.07028   -26136.732    2197.6057 
  155000    244.75854   -26024.857    104.32976   -26129.187    106.90595 
  155200    319.48363   -26004.964    136.18176   -26141.146   -986.02527 
  155400    339.13593   -26012.175    144.55867   -26156.734    895.16496 
  155600    294.23857   -26032.263    125.42091   -26157.684    1334.8126 
  155800    316.34169   -26009.545    134.84249   -26144.387    2428.7304 
  156000    313.56342   -26017.182    133.65824    -26150.84    886.11788 
  156200    305.11085   -26032.751    130.05528   -26162.807   -1493.7827 
  156400    303.88824   -25996.177    129.53414   -26125.711    73.515155 
  156600    293.72703   -26022.772    125.20286   -26147.975    4874.8957 
  156800    285.50836   -26017.831     121.6996    -26139.53    1657.4905 
  157000    329.92781    -26004.15    140.63366   -26144.784   -612.24974 
  157200    300.38499   -26022.661    128.04086   -26150.702   -2457.1472 
  157400    298.85193   -26014.778    127.38738   -26142.166   -2323.4785 
  157600    313.77514   -26005.859    133.74848   -26139.608    3950.8134 
  157800    286.73946   -26025.322    122.22437   -26147.547    4857.8533 
  158000      318.415   -26018.374    135.72625     -26154.1     3283.202 
  158200    327.20307   -25990.198    139.47222    -26129.67   -9193.2914 
  158400     314.0081   -26019.296    133.84778   -26153.143   -5174.6167 
  158600    320.46694   -26006.742     136.6009   -26143.343    1685.1174 
  158800    297.14929   -26025.492    126.66162   -26152.154    8977.1447 
  159000    297.36515    -26022.74    126.75363   -26149.493    3242.0019 
  159200    323.11177   -26002.554    137.72828   -26140.282    2554.6744 
  159400    315.93018    -26012.16    134.66708   -26146.827    -1407.707 
  159600    283.20065   -26028.183    120.71593   -26148.899   -6918.9935 
  159800    275.22416   -26033.015    117.31591   -26150.331   -1664.1043 
  160000    314.42002   -26006.111    134.02337   -26140.135    3576.1535 
  160200    277.01698   -26018.542    118.08011   -26136.622   -3125.4286 
  160400    286.72702   -26030.875    122.21906   -26153.094   -6667.1708 
  160600    306.70446   -26001.341    130.73457   -26132.076    1239.0808 
  160800    307.18779   -26016.181    130.94059   -26147.121      3636.24 
  161000    282.30911   -26029.623    120.33591   -26149.959    2161.7574 
  161200    290.18568   -26009.527    123.69334    -26133.22   -6178.8186 
  161400    306.10921   -26021.927    130.48084   -26152.408   -4682.1355 
  161600    282.96627   -26030.192    120.61602   -26150.808   -2999.5221 
  161800     311.8924    -26004.85    132.94596   -26137.796   -996.02461 
  162000    279.96738   -26029.538    119.33773   -26148.876   -4020.6088 
  162200    298.47653    -26010.83    127.22736   -26138.057   -1939.7523 
  162400    313.43349   -26001.428    133.60285   -26135.031    778.07001 
  162600    298.53809   -26025.335    127.25361   -26152.589   -4449.7594 
  162800    337.46604   -26014.874    143.84687   -26158.721    663.82679 
  163000    315.06548   -25998.809     134.2985   -26133.108    1275.3382 
  163200    295.97912   -26019.656    126.16283   -26145.818    8029.6833 
  163400    316.32616   -26015.224    134.83587   -26150.059    2755.0517 
  163600    322.62262   -25992.292    137.51977   -26129.812   -3493.6164 
  163800    291.01931   -26018.745    124.04868   -26142.794    364.39782 
  164000    286.54391    -26015.47    122.14101   -26137.611    3252.5855 
  164200    302.67796   -26015.233    129.01825   -26144.251     3793.569 
  164400    289.02954   -26015.824    123.20053   -26139.025    1102.6739 
  164600    315.41751   -26007.655    134.44855   -26142.104     2539.987 
  164800    321.72331   -25996.342    137.13644   -26133.479    4770.2655 
  165000    300.71676   -26017.103    128.18228   -26145.285   -4112.3277 
  165200    307.52643    -26001.36    131.08494   -26132.445   -2287.7341 
  165400    292.47567   -25994.016    124.66946   -26118.686    1060.8909 
  165600    301.85089   -26012.838     128.6657   -26141.504    1799.5031 
  165800    281.28786    -26024.09    119.90059   -26143.991   -2268.2401 
  166000    297.23009   -26017.273    126.69606   -26143.969   -2891.4065 
  166200    311.06073   -25996.317    132.59145   -26128.908   -1971.4754 
  166400    250.19593   -26024.773    106.64747    -26131.42   -496.08463 
  166600    283.67405   -26020.063    120.91772   -26140.981    -2872.878 
  166800    302.30901   -26015.678    128.86098   -26144.539   -4139.1328 
  167000    323.37481   -25987.508     137.8404   -26125.348    883.67286 
  167200     283.9215   -26017.365    121.02319   -26138.388   -3.7047401 
  167400    289.00145   -26021.345    123.18855   -26144.534     1151.923 
  167600    292.29207    -25995.78     124.5912   -26120.371    3886.2001 
  167800    263.19292   -26020.636    112.18752   -26132.824   -111.03667 
  168000    305.23871   -26013.149    130.10978   -26143.259   -1468.5882 
  168200     298.7314   -26015.806      127.336   -26143.142    3175.4723 
  168400    304.93781   -26033.844    129.98152   -26163.826   -323.18006 
  168600    310.14948   -26008.833    132.20303   -26141.037    1666.3521 
  168800    287.78192   -26020.666    122.66872   -26143.335    1938.1192 
  169000     259.4083   -26045.615     110.5743    -26156.19    4942.9822 
  169200    273.67778   -26020.471    116.65675   -26137.127    7783.9861 
  169400     324.5644    -26004.65    138.34747   -26142.997    846.40758 
  169600    296.84514   -26015.595    126.53198   -26142.127    2967.6248 
  169800    287.17583   -26032.278    122.41038   -26154.688    2422.4412 
  170000    317.57067   -26001.304    135.36635    -26136.67    2354.0804 
  170200    311.94899   -25978.846    132.97008   -26111.816   -1200.3546 
  170400    299.60063   -26009.816    127.70652   -26137.523    1687.3126 
  170600    282.51484   -26028.187     120.4236   -26148.611    3166.3305 
  170800    324.59538   -25995.056    138.36067   -26133.416     3782.264 
  171000    295.34482   -26002.885    125.89245   -26128.777    4062.9621 
  171200     283.8598   -26033.349     120.9969   -26154.345    666.61195 
  171400    298.65747   -26026.081    127.30449   -26153.385   -659.99825 
  171600    321.83307    -26009.82    137.18322   -26147.003    2916.7448 
  171800    326.84276   -25991.855    139.31863   -26131.174   -1694.8838 
  172000    273.44339   -26026.749    116.55684   -26143.306     1805.005 
  172200    308.99146   -26006.844    131.70941   -26138.553    -4370.933 
  172400    297.90324     -26018.3    126.98299   -26145.283   -574.49255 
  172600    265.25151   -26023.142    113.06501   -26136.207   -3294.8208 
  172800    271.70884   -26007.859    115.81748   -26123.676   -2593.8087 
  173000    266.64761   -26040.199     113.6601   -26153.859   -243.58244 
  173200    319.12563   -26015.046    136.02916   -26151.075    4247.7889 
  173400    296.23921   -26007.521    126.27369   -26133.795    918.35173 
  173600    309.33006   -26021.466    131.85374    -26153.32   -1525.7421 
  173800    280.03635   -26036.123    119.36713   -26155.491   -2737.4477 
  174000    298.78737   -26008.503    127.35986   -26135.863   -5019.1013 
  174200    301.54619   -26022.727    128.53582   -26151.263   -2840.8714 
  174400    280.57282   -26030.898     119.5958   -26150.494    4652.2829 
  174600    322.59768   -26016.478    137.50914   -26153.987     4096.266 
  174800    320.85788   -25998.232    136.76755       -26135    4372.8728 
  175000    324.98855   -26001.101    138.52827   -26139.629    1153.5044 
  175200    273.29485   -26026.477    116.49353   -26142.971    3932.7748 
  175400    290.11482   -26017.689    123.66314   -26141.353    5525.8009 
  175600    323.82562   -25994.725    138.03256   -26132.757    2277.2499 
  175800    284.73714   -26029.054    121.37087   -26150.425    2465.1458 
  176000    313.23582   -26015.157    133.51859   -26148.675   -2683.7074 
  176200    327.37081   -26002.033    139.54372   -26141.577    877.32428 
  176400     310.8472   -25990.007    132.50043   -26122.507     156.6342 
  176600    283.44217   -26021.143    120.81888   -26141.962   -1065.6272 
  176800    256.05916   -26017.202    109.14671   -26126.348    947.73212 
  177000    317.95197   -25978.846    135.52888   -26114.375    4439.5238 
  177200    288.27914   -25999.287    122.88067   -26122.167    3527.5722 
  177400    307.56906   -26008.862    131.10311   -26139.965    -3720.783 
  177600     280.8834   -26025.216    119.72819   -26144.945   -545.40397 
  177800    270.80095   -26035.568    115.43049   -26150.999    584.79361 
  178000    290.98192   -26008.383    124.03274   -26132.415   -1779.0663 
  178200    324.36072   -26005.947    138.26065   -26144.207   -4996.8834 
  178400    301.73172    -26034.83    128.61491   -26163.445    1862.4922 
  178600    274.32817   -26014.873    116.93398   -26131.807    1421.5303 
  178800    330.70989    -26005.45    140.96702   -26146.417    439.05127 
  179000    270.92722   -26031.052    115.48431   -26146.536   -3207.1473 
  179200    338.70528   -26009.518     144.3751   -26153.893   -376.07887 
  179400    336.14842    -25987.12    143.28523   -26130.405   -3035.4515 
[...]
  950000    278.36671   -26041.942    118.65544   -26160.597   -1922.3164 
  950200    312.79177   -26009.738    133.32932   -26143.067   -2935.1446 
  950400    282.67538   -26015.186    120.49203   -26135.678    134.97825 
  950600     280.2465   -26032.146    119.45671   -26151.603   -3638.9193 
  950800    311.14509   -26002.293    132.62741    -26134.92   -3510.2037 
  951000    297.63752   -26008.892    126.86973   -26135.762   -3537.0276 
  951200    290.42012   -26031.037    123.79327    -26154.83   -4154.6818 
  951400    309.37961   -26009.738    131.87487   -26141.613   -84.211428 
  951600    295.72442   -26021.749    126.05426   -26147.803    172.06488 
  951800    276.08372   -26030.282     117.6823   -26147.965    3790.8825 
  952000    276.42153   -26010.678    117.82629   -26128.505    4167.2119 
  952200    254.93441   -26024.246    108.66728   -26132.913    5690.8235 
  952400     278.8109   -26034.214    118.84477   -26153.059    3500.6849 
  952600    342.83315   -26001.017    146.13463   -26147.151    4236.7628 
  952800    298.25962   -26014.213     127.1349   -26141.348    3966.1073 
  953000    279.58298   -26032.708    119.17388   -26151.882    3617.0611 
  953200    282.26558   -26016.326    120.31735   -26136.643    5056.4095 
  953400    314.20444   -26007.462    133.93148   -26141.394   -1656.1308 
  953600       274.59   -26021.701    117.04559   -26138.747    1921.2938 
  953800    285.75297   -26015.255    121.80387   -26137.058     379.1645 
  954000    351.31044   -25977.464    149.74813   -26127.213    19.156765 
  954200    321.37073    -26013.37    136.98615   -26150.356   -2028.2943 
  954400    290.24136   -26022.976    123.71708   -26146.693   -3651.1504 
  954600    332.40949   -25998.403    141.69148   -26140.094     1491.685 
  954800    288.79488   -26020.453    123.10051   -26143.553   -2795.8899 
  955000    303.64181   -26023.479    129.42909   -26152.908   -3254.0863 
  955200    306.37427    -25997.66    130.59382   -26128.254    859.30151 
  955400     305.6347   -26003.346    130.27858   -26133.625    493.78818 
  955600    288.80647   -26016.341    123.10544   -26139.447   -1180.6279 
  955800    312.23247   -26014.319    133.09091    -26147.41   -2228.8228 
  956000    290.41564    -26016.13    123.79136   -26139.921    1476.9221 
  956200    282.15851   -25999.763    120.27171   -26120.035   -897.94666 
  956400    300.35441   -26013.517    128.02782   -26141.545    -1637.251 
  956600     291.2287   -26015.802    124.13793    -26139.94    363.65843 
  956800    309.43097   -26001.093    131.89676    -26132.99    852.25906 
  957000    306.02232    -26018.07     130.4438   -26148.514   -123.60896 
  957200    309.24125   -26022.699    131.81589   -26154.515    -5677.605 
  957400    329.70922   -25994.287    140.54048   -26134.828   -8396.2596 
  957600    293.04452   -26003.646    124.91194   -26128.558   -1944.1077 
  957800    249.60322   -26023.391    106.39483   -26129.786   -1867.2329 
  958000    317.61825   -26001.833    135.38663    -26137.22   -1237.9243 
  958200    332.53225    -25997.95    141.74381   -26139.694   -3480.6353 
  958400    298.51703   -26023.876    127.24463   -26151.121   -1375.4938 
  958600    322.24348   -26011.337    137.35816   -26148.695   -1279.5533 
  958800    341.05921   -25987.727    145.37848   -26133.105    3154.8717 
  959000     314.1554   -26021.366    133.91058   -26155.276   -1470.7587 
  959200    295.15689   -26016.758    125.81235    -26142.57    667.88313 
  959400    319.86992   -26001.603    136.34642    -26137.95    4418.0592 
  959600    285.56437   -26015.837    121.72348    -26137.56    1723.7286 
  959800    268.06337   -26018.497    114.26358   -26132.761   -5925.7085 
  960000    297.32301   -26012.088    126.73567   -26138.824   -3347.7793 
  960200    294.36018   -26022.208    125.47274   -26147.681    358.79594 
  960400    318.96947    -26023.46     135.9626   -26159.423    3184.5298 
  960600    335.14887   -26005.873    142.85916   -26148.732    3745.9401 
  960800    288.13182   -26019.387    122.81787   -26142.205    1737.7473 
  961000     312.2447   -26021.623    133.09612   -26154.719   -1581.4306 
  961200    324.77607   -25987.582     138.4377    -26126.02   -991.05832 
  961400    303.23102   -26015.706    129.25399    -26144.96    1596.8692 
  961600    277.98691   -26027.776    118.49354    -26146.27   -1216.9756 
  961800    299.08138   -26007.262    127.48518   -26134.747   -265.05467 
  962000    306.08398   -26013.704    130.47008   -26144.175    153.68614 
  962200    244.84733   -26041.854     104.3676   -26146.221   -1748.4317 
  962400    282.32057   -26017.834    120.34079   -26138.175   -1642.0626 
  962600    294.63809   -26009.556     125.5912   -26135.147    1096.3577 
  962800    295.14022   -26015.332    125.80524   -26141.137    2612.7329 
  963000    291.06406   -26017.767    124.06776   -26141.835    7744.8567 
  963200    296.89296   -26010.514    126.55236   -26137.067    3635.5017 
  963400    311.63609   -25987.948     132.8367   -26120.785    316.59791 
  963600    279.89112   -26022.213    119.30523   -26141.518   -5066.5302 
  963800    295.52578   -26013.186    125.96959   -26139.156   -570.44944 
  964000    316.24848   -25999.549    134.80276   -26134.352    5471.4057 
  964200    283.58485   -26023.549     120.8797   -26144.429     6219.166 
  964400    324.48861   -26001.992    138.31517   -26140.307   -1184.2597 
  964600    280.01515   -26015.796    119.35809   -26135.155   -2569.0664 
  964800     284.9814   -26021.431    121.47498   -26142.906   -689.48387 
  965000    299.20893   -25992.523    127.53955   -26120.062    303.27113 
  965200    293.59331   -26017.481    125.14586   -26142.627    211.42494 
  965400    295.79726   -26028.795    126.08531    -26154.88    2819.3649 
  965600    312.75872   -26012.768    133.31523   -26146.083    1212.3487 
  965800    306.82078   -26006.339    130.78415   -26137.123   -926.47174 
  966000    294.79159   -26028.559    125.65663   -26154.215    1365.7573 
  966200    284.97742   -26014.637    121.47329    -26136.11    3250.5684 
  966400    287.77225   -26015.976     122.6646    -26138.64   -210.50771 
  966600     253.4563   -26024.743    108.03723    -26132.78   -3584.9802 
  966800    311.16998   -26008.448    132.63802   -26141.086   -4764.6958 
  967000    304.78521   -26004.248    129.91648   -26134.165   -2077.8927 
  967200    296.38059   -26032.461    126.33396   -26158.795   -5427.5667 
  967400    290.74848   -26016.604    123.93324   -26140.537   -4203.1583 
  967600    325.23489   -26004.381    138.63327   -26143.015    -7105.655 
  967800    301.69819   -26022.714    128.60061   -26151.315   -235.29542 
  968000    285.19296   -26033.536    121.56516   -26155.101    755.92101 
  968200    312.85559   -26014.976    133.35652   -26148.333   -1445.0973 
  968400    325.52353   -26002.074    138.75631   -26140.831    -6048.628 
  968600      292.549   -26004.013    124.70072   -26128.713   -463.21063 
  968800     284.4237   -26025.701    121.23726   -26146.938    1858.0725 
  969000    302.13548   -25998.882    128.78701   -26127.669    2063.8728 
  969200    317.17275   -26010.143    135.19674    -26145.34   -1229.1527 
  969400    297.59172    -26016.23    126.85021    -26143.08    699.57864 
  969600    290.63345   -26013.928    123.88421   -26137.813   -14.078793 
  969800    294.47685   -26027.994    125.52248   -26153.516   -25.413671 
  970000    296.90987   -26006.127    126.55957   -26132.687    2980.5102 
  970200    270.33343    -26026.45     115.2312   -26141.681     839.0331 
  970400    302.18346   -26012.825    128.80747   -26141.632   -4593.1509 
  970600     332.8807   -26014.213    141.89234   -26156.105   -4939.6321 
  970800    328.80928   -26013.549    140.15688   -26153.706   -3209.5993 
  971000    313.55412   -26015.084    133.65428   -26148.739    -799.2273 
  971200    298.21161   -26016.496    127.11444   -26143.611   -850.73536 
  971400    313.80881   -25990.015    133.76284   -26123.778   -3766.4672 
  971600     300.6362   -26022.036    128.14794   -26150.184   -1282.4255 
  971800    311.74053   -26014.865    132.88122   -26147.747   -1610.9321 
  972000    295.76018   -26007.725     126.0695   -26133.794    1597.3625 
  972200    270.39855   -26034.774    115.25896   -26150.033    4232.8936 
  972400    338.35178   -25995.263    144.22442   -26139.488   -8.1881379 
  972600    268.82786   -26022.746    114.58944   -26137.335    2599.7706 
  972800    328.18222   -26014.457    139.88959   -26154.347   -1347.2794 
  973000    303.35737   -25996.327    129.30785   -26125.635   -1894.1647 
  973200    275.18744   -26018.472    117.30025   -26135.773    -860.9588 
  973400    272.54066   -26013.869    116.17205   -26130.041   -3053.2496 
  973600    299.95106   -26000.935    127.85589   -26128.791   -1410.1016 
  973800    313.57928   -26004.429      133.665   -26138.094    -581.8657 
  974000     273.5838   -26023.129    116.61669   -26139.746   -3292.5671 
  974200     319.6837   -26001.718    136.26704   -26137.985   -2357.5452 
  974400    284.37096   -26012.303    121.21478   -26133.518    5579.4996 
  974600    267.42862   -26013.649    113.99301   -26127.642    2555.7705 
  974800    310.55001   -25992.071    132.37376   -26124.445    -1517.966 
  975000    303.76056   -26015.316    129.47971   -26144.795    2258.6684 
  975200    293.46748   -26023.595    125.09223   -26148.687   -2318.5663 
  975400    322.11208   -25992.756    137.30215   -26130.059    455.56346 
  975600    319.09393   -26007.252    136.01565   -26143.268   -2111.5607 
  975800    282.93366   -26019.723    120.60212   -26140.325   -3171.3714 
  976000    301.62125   -26007.464    128.56782   -26136.031   -6520.5662 
  976200    327.00958   -25986.293    139.38974   -26125.683   -3132.8111 
  976400    303.97259   -26017.704    129.57009   -26147.274   -830.23676 
  976600    283.92733   -26014.899    121.02568   -26135.924   -948.24041 
  976800    295.65069   -26039.273    126.02283   -26165.296   -3032.3415 
  977000    301.75506   -26013.384    128.62485   -26142.009   -3392.4042 
  977200    286.20118     -26014.3    121.99492   -26136.295    1346.2191 
  977400    298.74847   -26011.145    127.34328   -26138.488     1884.993 
  977600    273.83104   -26023.259    116.72208   -26139.981    669.31048 
  977800    284.27992   -26021.116    121.17598   -26142.292   -1972.4328 
  978000    301.13416    -26008.36     128.3602    -26136.72    -3623.217 
  978200    268.84413   -26028.306    114.59638   -26142.903   -453.81033 
  978400    327.73887   -26000.329    139.70061    -26140.03   -3728.4256 
  978600    289.27075   -26013.141    123.30335   -26136.445   -754.00194 
  978800    278.37176   -26018.014    118.65759   -26136.672   -3484.6179 
  979000    280.96297   -26010.834     119.7621   -26130.596   -6331.1536 
  979200    287.27521   -26019.365    122.45274   -26141.817    1923.8378 
  979400     288.0428   -26012.992    122.77993   -26135.772    2835.8401 
  979600    324.24447    -25998.11     138.2111   -26136.321    -3321.601 
  979800    303.08863   -26024.927     129.1933    -26154.12   -5751.4323 
  980000    316.65771   -26003.544     134.9772   -26138.521   -5504.5082 
  980200    348.27781    -25992.03    148.45545   -26140.486   -1731.9523 
  980400    285.20597   -26019.771    121.57071   -26141.342   -3625.8466 
  980600    294.16373   -26013.568    125.38901   -26138.957   -440.33593 
  980800    337.78544   -25994.217    143.98302     -26138.2   -3625.4588 
  981000    276.95062   -26027.235    118.05182   -26145.286   -4049.3376 
  981200    304.73176     -26014.5    129.89369   -26144.393   -3792.7137 
  981400    320.36983   -25994.389    136.55951   -26130.949   -1469.9252 
  981600    296.39931   -26011.381    126.34193   -26137.723   -2933.5631 
  981800    291.51954   -26025.743     124.2619   -26150.005    1597.2133 
  982000     243.3167   -26046.625    103.71516    -26150.34   -406.92963 
  982200    310.75338   -26015.148    132.46044   -26147.608     5030.731 
  982400    299.00989    -26010.42    127.45471   -26137.875    4892.0687 
  982600    330.32497   -26004.446    140.80295   -26145.249   -1005.4509 
  982800    268.99433    -26031.07     114.6604    -26145.73    1411.1224 
  983000    309.75363   -26021.945    132.03429    -26153.98   -756.07975 
  983200    314.49576   -26001.599    134.05565   -26135.655    3183.1972 
  983400    285.14282    -26026.76    121.54379   -26148.303    4201.5891 
  983600    288.21631   -26023.811    122.85388   -26146.665   -739.63373 
  983800    309.10647   -26016.913    131.75844   -26148.672     392.6776 
  984000    374.25811   -25986.089     159.5297   -26145.619    1633.2298 
  984200    307.29464   -26010.184    130.98613    -26141.17   -4060.0379 
  984400    285.38629   -26025.974    121.64757   -26147.621   -2981.8709 
  984600    290.08187   -26018.484    123.64909   -26142.133   -3662.6363 
  984800    299.97196   -26003.217     127.8648   -26131.082     3273.057 
  985000    291.29167   -26021.729    124.16478   -26145.893    5595.0787 
  985200    283.51626   -26027.797    120.85046   -26148.648    894.78028 
  985400    305.68057   -26014.242    130.29813    -26144.54   -1047.8353 
  985600    295.66633   -26016.581     126.0295   -26142.611   -3646.7459 
  985800    314.95617   -26001.147     134.2519   -26135.399    658.23785 
  986000    309.06119    -26023.15    131.73914   -26154.889    991.12382 
  986200    296.29487    -26010.12    126.29742   -26136.417   -1479.6446 
  986400    332.84722   -26002.977    141.87807   -26144.855    2721.8292 
  986600    276.31614   -26016.682    117.78137   -26134.464   -2055.4958 
  986800    323.26059   -25994.971    137.79171   -26132.763    2078.8155 
  987000    276.22236   -26032.316    117.74139   -26150.058    3852.4097 
  987200    311.39201   -26010.213    132.73266   -26142.946    419.73197 
  987400    299.59027   -25995.416     127.7021   -26123.118    4477.2739 
  987600    276.01048   -26026.957    117.65108   -26144.608     829.4515 
  987800    293.05127    -26016.47    124.91482   -26141.385   -5066.3039 
  988000    313.74897   -25997.949    133.73733   -26131.686    3092.9786 
  988200    278.68783   -26005.716    118.79231   -26124.508    4643.6079 
  988400     278.7876   -26024.226    118.83484    -26143.06    18.946195 
  988600    290.87527   -26010.344    123.98728   -26134.331   -34.755966 
  988800    322.43858   -26004.146    137.44133   -26141.587   -3683.7525 
  989000    308.79261   -26026.579    131.62465   -26158.203   -4086.1363 
  989200     312.6371    -26007.78    133.26339   -26141.043   -1680.3135 
  989400    281.90103   -26022.386    120.16196   -26142.548   -2392.0891 
  989600    271.47753   -26025.394    115.71888   -26141.112   -559.57632 
  989800    308.51303   -26012.004    131.50548   -26143.509    413.77918 
  990000    281.84464   -26037.922    120.13792    -26158.06   -1806.7791 
  990200    311.03406   -26016.154    132.58009   -26148.734   -2169.7614 
  990400    287.71792   -26006.246    122.64144   -26128.887   -4372.1494 
  990600    255.30015   -26026.905    108.82318   -26135.729   -2092.5461 
  990800    261.92816   -26041.346    111.64841   -26152.995   -1672.8591 
  991000    298.63212    -26006.48    127.29368   -26133.774    3599.5022 
  991200    311.05798    -26016.44    132.59028    -26149.03    185.40746 
  991400    297.17929   -26025.629    126.67441   -26152.304   -3461.9755 
  991600    313.49519    -25996.55    133.62915   -26130.179    770.52786 
  991800       300.15    -26017.11    127.94069   -26145.051    2328.0067 
  992000    294.71098   -26020.067    125.62227   -26145.689    85.182091 
  992200    323.96054   -26003.347    138.09007   -26141.437    3566.8882 
  992400    315.84258   -26022.016    134.62974   -26156.646    3650.0551 
  992600    307.68935   -26010.689    131.15438   -26141.843   -1927.1093 
  992800    331.64662   -25998.381    141.36631   -26139.747   -1777.6252 
  993000    290.61015   -26022.035    123.87427   -26145.909    2313.8178 
  993200    287.64348    -26015.91    122.60971    -26138.52    1556.1216 
  993400    321.61239   -25992.059    137.08916   -26129.148     328.4314 
  993600    318.00036   -26019.223    135.54951   -26154.773   -933.35553 
  993800    312.74675   -26010.247    133.31013   -26143.557    -615.8126 
  994000    327.04629   -26000.056    139.40539   -26139.461   -5965.7211 
  994200    296.46437   -26029.753    126.36967   -26156.123   -5344.8376 
  994400    312.01125   -26006.681    132.99662   -26139.678   -425.18877 
  994600    280.69891    -26027.98    119.64955    -26147.63    2605.3984 
  994800     285.3213   -26028.238    121.61987   -26149.858    3137.4302 
  995000    326.76426   -26009.487    139.28517   -26148.772     1135.399 
  995200    318.40028   -26012.584    135.71998   -26148.304   -1355.0878 
  995400    272.75816   -26032.809    116.26476   -26149.073   -60.305558 
  995600    303.84698   -26012.998    129.51655   -26142.514   -779.77495 
  995800    295.72397   -26009.739    126.05407   -26135.793   -387.31687 
  996000    283.10365   -26030.178    120.67458   -26150.853    861.27321 
  996200    289.30865    -26027.68     123.3195   -26150.999    3598.9323 
  996400    304.73861   -26010.302    129.89661   -26140.199    546.03307 
  996600     300.1554   -26029.372    127.94299   -26157.315   -2224.4171 
  996800    273.23499   -26037.193    116.46801   -26153.661   -5023.9971 
  997000    325.47558   -26004.734    138.73587    -26143.47    3528.3095 
  997200    304.64908   -26008.608    129.85845   -26138.467    8308.6995 
  997400    286.59735   -26024.057    122.16379   -26146.221    3851.9945 
  997600    281.26605   -26008.349    119.89129    -26128.24   -1101.5923 
  997800    322.85145   -25984.663    137.61732   -26122.281   -3152.5389 
  998000    316.68193   -26017.679    134.98752   -26152.667    4792.0204 
  998200    310.48848   -26008.708    132.34753   -26141.056    5573.8328 
  998400    308.03442   -26012.481    131.30147   -26143.783    1195.4502 
  998600    278.94739   -26032.677    118.90296    -26151.58    1303.7002 
  998800    315.05303   -26005.504    134.29319   -26139.798    1546.6771 
  999000    291.40705   -26019.639    124.21396   -26143.853   -2221.3374 
  999200    281.05956   -26031.326    119.80328    -26151.13    1672.8299 
  999400    334.39343   -26001.535    142.53715   -26144.072    2477.0552 
  999600    286.73215   -26020.877    122.22125   -26143.098   -4788.1529 
  999800    278.23669   -26032.485    118.60001   -26151.085    2802.5064 
 1000000    276.72879   -26012.708    117.95726   -26130.665    3246.3117 
Loop time of 2861.47 on 1 procs for 1000000 steps with 144 atoms

Performance: 7.549 ns/day, 3.179 hours/ns, 349.471 timesteps/s
95.9% CPU use with 1 MPI tasks x no OpenMP threads

MPI task timing breakdown:
Section |  min time  |  avg time  |  max time  |%varavg| %total
---------------------------------------------------------------
Pair    | 2500.8     | 2500.8     | 2500.8     |   0.0 | 87.40
Neigh   | 0.59705    | 0.59705    | 0.59705    |   0.0 |  0.02
Comm    | 3.8597     | 3.8597     | 3.8597     |   0.0 |  0.13
Output  | 0.23083    | 0.23083    | 0.23083    |   0.0 |  0.01
Modify  | 354.43     | 354.43     | 354.43     |   0.0 | 12.39
Other   |            | 1.501      |            |       |  0.05

Nlocal:    144 ave 144 max 144 min
Histogram: 1 0 0 0 0 0 0 0 0 0
Nghost:    855 ave 855 max 855 min
Histogram: 1 0 0 0 0 0 0 0 0 0
Neighs:    4583 ave 4583 max 4583 min
Histogram: 1 0 0 0 0 0 0 0 0 0

Total # of neighbors = 4583
Ave neighs/atom = 31.8264
Neighbor list builds = 577
Dangerous builds = 0

Please see the log.cite file for references relevant to this simulation

Total wall time: 0:47:57
