
     Program PWSCF v.7.1 starts on 20Jun2025 at  1:48:10 

     This program is part of the open-source Quantum ESPRESSO suite
     for quantum simulation of materials; please cite
         "P. Giannozzi et al., J. Phys.:Condens. Matter 21 395502 (2009);
         "P. Giannozzi et al., J. Phys.:Condens. Matter 29 465901 (2017);
         "P. Giannozzi et al., J. Chem. Phys. 152 154105 (2020);
          URL http://www.quantum-espresso.org", 
     in publications or presentations arising from this work. More details at
     http://www.quantum-espresso.org/quote

     Parallel version (MPI), running on    16 processors

     MPI processes distributed on     1 nodes
     247022 MiB available memory on the printing compute node when the environment starts

     Reading input from input.pwi
Warning: card &CELL ignored
Warning: card / ignored
Warning: card &FCP ignored
Warning: card / ignored
Warning: card &RISM ignored
Warning: card / ignored

     Current dimensions of program PWSCF are:
     Max number of different atomic species (ntypx) = 10
     Max number of k-points (npk) =  40000
     Max angular momentum in pseudopotentials (lmaxx) =  4
     file C.pbe-n-kjpaw_psl.1.0.0.UPF: wavefunction(s)  2S 2P renormalized

     IMPORTANT: XC functional enforced from input :
     Exchange-correlation= PBE
                           (   1   4   3   4   0   0   0)
     Any further DFT definition will be discarded
     Please, verify this is what you really want


     gamma-point specific algorithms are used

     R & G space division:  proc/nbgrp/npool/nimage =      16
     Subspace diagonalization in iterative solution of the eigenvalue problem:
     one sub-group per band group will be used
     custom distributed-memory algorithm (size of sub-group:  4*  4 procs)


     Parallelization info
     --------------------
     sticks:   dense  smooth     PW     G-vecs:    dense   smooth      PW
     Min        1842     921    229               238366    84297   10553
     Max        1844     924    232               238376    84308   10560
     Sum       29497   14753   3705              3813977  1348785  168933

     Using Slab Decomposition



     bravais-lattice index     =            0
     lattice parameter (alat)  =      30.4513  a.u.
     unit-cell volume          =   28231.4605 (a.u.)^3
     number of atoms/cell      =          200
     number of atomic types    =            1
     number of electrons       =       800.00 (up: 400.00, down: 400.00)
     number of Kohn-Sham states=          480
     kinetic-energy cutoff     =      50.0000  Ry
     charge density cutoff     =     400.0000  Ry
     scf convergence threshold =      1.0E-06
     mixing beta               =       0.3000
     number of iterations used =            8  plain     mixing
     energy convergence thresh.=      1.0E-04
     force convergence thresh. =      1.0E-03
     Exchange-correlation= PBE
                           (   1   4   3   4   0   0   0)
     nstep                     =         1000


     celldm(1)=  30.451332  celldm(2)=   0.000000  celldm(3)=   0.000000
     celldm(4)=   0.000000  celldm(5)=   0.000000  celldm(6)=   0.000000

     crystal axes: (cart. coord. in units of alat)
               a(1) = (   1.000000   0.000000   0.000000 )  
               a(2) = (   0.000000   0.999917   0.000000 )  
               a(3) = (   0.000000   0.000000   0.999886 )  

     reciprocal axes: (cart. coord. in units 2 pi/alat)
               b(1) = (  1.000000  0.000000  0.000000 )  
               b(2) = (  0.000000  1.000083  0.000000 )  
               b(3) = (  0.000000  0.000000  1.000114 )  


     PseudoPot. # 1 for C  read from file:
     /home/ana.bisette/espresso/pseudo/C.pbe-n-kjpaw_psl.1.0.0.UPF
     MD5 check sum: 5d2aebdfa2cae82b50a7e79e9516da0f
     Pseudo is Projector augmented-wave + core cor, Zval =  4.0
     Generated using "atomic" code by A. Dal Corso  v.5.1
     Shape of augmentation charge: PSQ
     Using radial grid of 1073 points,  4 beta functions with: 
                l(1) =   0
                l(2) =   0
                l(3) =   1
                l(4) =   1
     Q(r) pseudized with 0 coefficients 


     atomic species   valence    mass     pseudopotential
        C              4.00    12.01100     C ( 1.00)

     Starting magnetic structure 
     atomic species   magnetization
        C            0.000

     No symmetry found



   Cartesian axes

     site n.     atom                  positions (alat units)
         1           C   tau(   1) = (   0.5842603   0.6464442   0.8449467  )
         2           C   tau(   2) = (   0.5432424   0.6665446   0.7673876  )
         3           C   tau(   3) = (   0.5432995   0.3328757   0.0756645  )
         4           C   tau(   4) = (   0.5877393   0.6957363   0.6957301  )
         5           C   tau(   5) = (   0.3340945   0.3341088   0.3341144  )
         6           C   tau(   6) = (   0.9988488   0.3493495   0.5854351  )
         7           C   tau(   7) = (   0.4134341   0.3512515   0.8449467  )
         8           C   tau(   8) = (   0.4544521   0.3311481   0.7673876  )
         9           C   tau(   9) = (   0.4543950   0.6648194   0.0756645  )
        10           C   tau(  10) = (   0.4099552   0.3019557   0.6957301  )
        11           C   tau(  11) = (   0.6636031   0.6635844   0.3341144  )
        12           C   tau(  12) = (   0.9988488   0.6483432   0.5854351  )
        13           C   tau(  13) = (   0.5842603   0.3512515   0.1527459  )
        14           C   tau(  14) = (   0.5432424   0.3311481   0.2303069  )
        15           C   tau(  15) = (   0.5432995   0.6648194   0.9220281  )
        16           C   tau(  16) = (   0.5877393   0.3019557   0.3019650  )
        17           C   tau(  17) = (   0.3340945   0.6635844   0.6635782  )
        18           C   tau(  18) = (   0.9988488   0.6483432   0.4122594  )
        19           C   tau(  19) = (   0.4134341   0.6464442   0.1527459  )
        20           C   tau(  20) = (   0.4544521   0.6665446   0.2303069  )
        21           C   tau(  21) = (   0.4543950   0.3328757   0.9220281  )
        22           C   tau(  22) = (   0.4099552   0.6957363   0.3019650  )
        23           C   tau(  23) = (   0.6636031   0.3341088   0.6635782  )
        24           C   tau(  24) = (  -0.0011527   0.3493495   0.4122594  )
        25           C   tau(  25) = (   0.8449964   0.5842548   0.6464380  )
        26           C   tau(  26) = (   0.7674311   0.5432417   0.6665446  )
        27           C   tau(  27) = (   0.0756130   0.5432983   0.3328826  )
        28           C   tau(  28) = (   0.6957673   0.5877331   0.6957301  )
        29           C   tau(  29) = (   0.5854414  -0.0011114   0.3493526  )
        30           C   tau(  30) = (   0.8449964   0.4134397   0.3512540  )
        31           C   tau(  31) = (   0.7674311   0.4544528   0.3311487  )
        32           C   tau(  32) = (   0.0756130   0.4543963   0.6648132  )
        33           C   tau(  33) = (   0.6957673   0.4099614   0.3019619  )
        34           C   tau(  34) = (   0.5854414  -0.0011114   0.6483432  )
        35           C   tau(  35) = (   0.1526993   0.5842548   0.3512540  )
        36           C   tau(  36) = (   0.2302616   0.5432417   0.3311487  )
        37           C   tau(  37) = (   0.9220839   0.5432983   0.6648132  )
        38           C   tau(  38) = (   0.3019278   0.5877331   0.3019619  )
        39           C   tau(  39) = (   0.4122532   0.9988054   0.6483432  )
        40           C   tau(  40) = (   0.1526993   0.4134397   0.6464380  )
        41           C   tau(  41) = (   0.2302616   0.4544528   0.6665446  )
        42           C   tau(  42) = (   0.9220839   0.4543963   0.3328826  )
        43           C   tau(  43) = (   0.3019278   0.4099614   0.6957301  )
        44           C   tau(  44) = (   0.4122532   0.9988054   0.3493526  )
        45           C   tau(  45) = (   0.6464567   0.8449654   0.5842591  )
        46           C   tau(  46) = (   0.6665694   0.7674062   0.5432417  )
        47           C   tau(  47) = (   0.3328615   0.0756503   0.5432989  )
        48           C   tau(  48) = (   0.6957673   0.6957425   0.5877313  )
        49           C   tau(  49) = (   0.3493371   0.5854432   0.9987929  )
        50           C   tau(  50) = (   0.3512391   0.8449654   0.4134354  )
        51           C   tau(  51) = (   0.3311257   0.7674062   0.4544527  )
        52           C   tau(  52) = (   0.6648318   0.0756503   0.4543956  )
        53           C   tau(  53) = (   0.3019266   0.6957425   0.4099633  )
        54           C   tau(  54) = (   0.6483555   0.5854432  -0.0010955  )
        55           C   tau(  55) = (   0.3512391   0.1527322   0.5842591  )
        56           C   tau(  56) = (   0.3311257   0.2302901   0.5432417  )
        57           C   tau(  57) = (   0.6648318   0.9220467   0.5432989  )
        58           C   tau(  58) = (   0.3019266   0.3019514   0.5877313  )
        59           C   tau(  59) = (   0.6483555   0.4122513   0.9987929  )
        60           C   tau(  60) = (   0.6464567   0.1527322   0.4134354  )
        61           C   tau(  61) = (   0.6665694   0.2302901   0.4544527  )
        62           C   tau(  62) = (   0.3328615   0.9220467   0.4543956  )
        63           C   tau(  63) = (   0.6957673   0.3019514   0.4099633  )
        64           C   tau(  64) = (   0.3493371   0.4122513  -0.0010955  )
        65           C   tau(  65) = (   0.3512397   0.4134341   0.1527452  )
        66           C   tau(  66) = (   0.3311282   0.4544528   0.2303032  )
        67           C   tau(  67) = (   0.6648318   0.4543950   0.9220281  )
        68           C   tau(  68) = (   0.3019278   0.4099614   0.3019619  )
        69           C   tau(  69) = (   0.6636031   0.6635844   0.6635782  )
        70           C   tau(  70) = (   0.6483555   0.9988054   0.4122538  )
        71           C   tau(  71) = (   0.6464567   0.5842603   0.1527452  )
        72           C   tau(  72) = (   0.6665694   0.5432417   0.2303032  )
        73           C   tau(  73) = (   0.3328615   0.5432995   0.9220281  )
        74           C   tau(  74) = (   0.6957673   0.5877331   0.3019619  )
        75           C   tau(  75) = (   0.3340945   0.3341088   0.6635782  )
        76           C   tau(  76) = (   0.3493377  -0.0011114   0.4122538  )
        77           C   tau(  77) = (   0.6464567   0.4134341   0.8449467  )
        78           C   tau(  78) = (   0.6665694   0.4544528   0.7673938  )
        79           C   tau(  79) = (   0.3328615   0.4543950   0.0756645  )
        80           C   tau(  80) = (   0.6957673   0.4099614   0.6957301  )
        81           C   tau(  81) = (   0.3340945   0.6635844   0.3341144  )
        82           C   tau(  82) = (   0.3493377   0.9988054   0.5854407  )
        83           C   tau(  83) = (   0.3512397   0.5842603   0.8449467  )
        84           C   tau(  84) = (   0.3311282   0.5432417   0.7673938  )
        85           C   tau(  85) = (   0.6648318   0.5432995   0.0756645  )
        86           C   tau(  86) = (   0.3019278   0.5877331   0.6957301  )
        87           C   tau(  87) = (   0.6636031   0.3341088   0.3341144  )
        88           C   tau(  88) = (   0.6483555  -0.0011114   0.5854407  )
        89           C   tau(  89) = (   0.4134360   0.1527335   0.3512559  )
        90           C   tau(  90) = (   0.4544521   0.2302951   0.3311536  )
        91           C   tau(  91) = (   0.4543956   0.9220467   0.6648132  )
        92           C   tau(  92) = (   0.4099552   0.3019557   0.3019650  )
        93           C   tau(  93) = (   0.9988488   0.4122594   0.6483432  )
        94           C   tau(  94) = (   0.5842586   0.1527335   0.6464380  )
        95           C   tau(  95) = (   0.5432424   0.2302951   0.6665384  )
        96           C   tau(  96) = (   0.5432988   0.9220467   0.3328819  )
        97           C   tau(  97) = (   0.5877393   0.3019557   0.6957301  )
        98           C   tau(  98) = (  -0.0011527   0.4122594   0.3493538  )
        99           C   tau(  99) = (   0.4134360   0.8449592   0.6464380  )
       100           C   tau( 100) = (   0.4544521   0.7674000   0.6665384  )
       101           C   tau( 101) = (   0.4543956   0.0756503   0.3328819  )
       102           C   tau( 102) = (   0.4099552   0.6957363   0.6957301  )
       103           C   tau( 103) = (  -0.0011527   0.5854351   0.3493538  )
       104           C   tau( 104) = (   0.5842586   0.8449592   0.3512559  )
       105           C   tau( 105) = (   0.5432424   0.7674000   0.3311536  )
       106           C   tau( 106) = (   0.5432988   0.0756503   0.6648132  )
       107           C   tau( 107) = (   0.5877393   0.6957363   0.3019650  )
       108           C   tau( 108) = (   0.9988488   0.5854351   0.6483432  )
       109           C   tau( 109) = (   0.1526993   0.3512496   0.4134397  )
       110           C   tau( 110) = (   0.2302603   0.3311406   0.4544534  )
       111           C   tau( 111) = (   0.9220839   0.6648194   0.4543963  )
       112           C   tau( 112) = (   0.3019266   0.3019514   0.4099633  )
       113           C   tau( 113) = (   0.4122507   0.6483494  -0.0010955  )
       114           C   tau( 114) = (   0.1526993   0.6464442   0.5842548  )
       115           C   tau( 115) = (   0.2302603   0.6665508   0.5432411  )
       116           C   tau( 116) = (   0.9220839   0.3328770   0.5432983  )
       117           C   tau( 117) = (   0.3019266   0.6957425   0.5877313  )
       118           C   tau( 118) = (   0.4122507   0.3493482  -0.0010955  )
       119           C   tau( 119) = (   0.8449964   0.6464442   0.4134397  )
       120           C   tau( 120) = (   0.7674311   0.6665508   0.4544534  )
       121           C   tau( 121) = (   0.0756130   0.3328770   0.4543963  )
       122           C   tau( 122) = (   0.6957673   0.6957425   0.4099633  )
       123           C   tau( 123) = (   0.5854439   0.3493482  -0.0010955  )
       124           C   tau( 124) = (   0.8449964   0.3512496   0.5842548  )
       125           C   tau( 125) = (   0.7674311   0.3311406   0.5432411  )
       126           C   tau( 126) = (   0.0756130   0.6648194   0.5432983  )
       127           C   tau( 127) = (   0.6957673   0.3019514   0.5877313  )
       128           C   tau( 128) = (   0.5854439   0.6483494  -0.0010955  )
       129           C   tau( 129) = (   0.4134341   0.3512515   0.1527459  )
       130           C   tau( 130) = (   0.4544521   0.3311481   0.2303069  )
       131           C   tau( 131) = (   0.4543950   0.6648194   0.9220281  )
       132           C   tau( 132) = (   0.5842603   0.6464442   0.1527459  )
       133           C   tau( 133) = (   0.5432424   0.6665446   0.2303069  )
       134           C   tau( 134) = (   0.5432995   0.3328757   0.9220281  )
       135           C   tau( 135) = (   0.4134341   0.6464442   0.8449467  )
       136           C   tau( 136) = (   0.4544521   0.6665446   0.7673876  )
       137           C   tau( 137) = (   0.4543950   0.3328757   0.0756645  )
       138           C   tau( 138) = (   0.5842603   0.3512515   0.8449467  )
       139           C   tau( 139) = (   0.5432424   0.3311481   0.7673876  )
       140           C   tau( 140) = (   0.5432995   0.6648194   0.0756645  )
       141           C   tau( 141) = (   0.1526993   0.4134397   0.3512540  )
       142           C   tau( 142) = (   0.2302616   0.4544528   0.3311487  )
       143           C   tau( 143) = (   0.9220839   0.4543963   0.6648132  )
       144           C   tau( 144) = (   0.1526993   0.5842548   0.6464380  )
       145           C   tau( 145) = (   0.2302616   0.5432417   0.6665446  )
       146           C   tau( 146) = (   0.9220839   0.5432983   0.3328826  )
       147           C   tau( 147) = (   0.8449964   0.4134397   0.6464380  )
       148           C   tau( 148) = (   0.7674311   0.4544528   0.6665446  )
       149           C   tau( 149) = (   0.0756130   0.4543963   0.3328826  )
       150           C   tau( 150) = (   0.8449964   0.5842548   0.3512540  )
       151           C   tau( 151) = (   0.7674311   0.5432417   0.3311487  )
       152           C   tau( 152) = (   0.0756130   0.5432983   0.6648132  )
       153           C   tau( 153) = (   0.3512391   0.1527322   0.4134354  )
       154           C   tau( 154) = (   0.3311257   0.2302901   0.4544527  )
       155           C   tau( 155) = (   0.6648318   0.9220467   0.4543956  )
       156           C   tau( 156) = (   0.6464567   0.1527322   0.5842591  )
       157           C   tau( 157) = (   0.6665694   0.2302901   0.5432417  )
       158           C   tau( 158) = (   0.3328615   0.9220467   0.5432989  )
       159           C   tau( 159) = (   0.6464567   0.8449654   0.4134354  )
       160           C   tau( 160) = (   0.6665694   0.7674062   0.4544527  )
       161           C   tau( 161) = (   0.3328615   0.0756503   0.4543956  )
       162           C   tau( 162) = (   0.3512391   0.8449654   0.5842591  )
       163           C   tau( 163) = (   0.3311257   0.7674062   0.5432417  )
       164           C   tau( 164) = (   0.6648318   0.0756503   0.5432989  )
       165           C   tau( 165) = (   0.6464567   0.5842603   0.8449467  )
       166           C   tau( 166) = (   0.6665694   0.5432417   0.7673938  )
       167           C   tau( 167) = (   0.3328615   0.5432995   0.0756645  )
       168           C   tau( 168) = (   0.3512397   0.4134341   0.8449467  )
       169           C   tau( 169) = (   0.3311282   0.4544528   0.7673938  )
       170           C   tau( 170) = (   0.6648318   0.4543950   0.0756645  )
       171           C   tau( 171) = (   0.3512397   0.5842603   0.1527452  )
       172           C   tau( 172) = (   0.3311282   0.5432417   0.2303032  )
       173           C   tau( 173) = (   0.6648318   0.5432995   0.9220281  )
       174           C   tau( 174) = (   0.6464567   0.4134341   0.1527452  )
       175           C   tau( 175) = (   0.6665694   0.4544528   0.2303032  )
       176           C   tau( 176) = (   0.3328615   0.4543950   0.9220281  )
       177           C   tau( 177) = (   0.5842586   0.8449592   0.6464380  )
       178           C   tau( 178) = (   0.5432424   0.7674000   0.6665384  )
       179           C   tau( 179) = (   0.5432988   0.0756503   0.3328819  )
       180           C   tau( 180) = (   0.4134360   0.8449592   0.3512559  )
       181           C   tau( 181) = (   0.4544521   0.7674000   0.3311536  )
       182           C   tau( 182) = (   0.4543956   0.0756503   0.6648132  )
       183           C   tau( 183) = (   0.5842586   0.1527335   0.3512559  )
       184           C   tau( 184) = (   0.5432424   0.2302951   0.3311536  )
       185           C   tau( 185) = (   0.5432988   0.9220467   0.6648132  )
       186           C   tau( 186) = (   0.4134360   0.1527335   0.6464380  )
       187           C   tau( 187) = (   0.4544521   0.2302951   0.6665384  )
       188           C   tau( 188) = (   0.4543956   0.9220467   0.3328819  )
       189           C   tau( 189) = (   0.8449964   0.6464442   0.5842548  )
       190           C   tau( 190) = (   0.7674311   0.6665508   0.5432411  )
       191           C   tau( 191) = (   0.0756130   0.3328770   0.5432983  )
       192           C   tau( 192) = (   0.8449964   0.3512496   0.4134397  )
       193           C   tau( 193) = (   0.7674311   0.3311406   0.4544534  )
       194           C   tau( 194) = (   0.0756130   0.6648194   0.4543963  )
       195           C   tau( 195) = (   0.1526993   0.3512496   0.5842548  )
       196           C   tau( 196) = (   0.2302603   0.3311406   0.5432411  )
       197           C   tau( 197) = (   0.9220839   0.6648194   0.5432983  )
       198           C   tau( 198) = (   0.1526993   0.6464442   0.4134397  )
       199           C   tau( 199) = (   0.2302603   0.6665508   0.4544534  )
       200           C   tau( 200) = (   0.9220839   0.3328770   0.4543963  )

     number of k points=     1  Gaussian smearing, width (Ry)=  0.0001
                       cart. coord. in units 2pi/alat
        k(    1) = (   0.0000000   0.0000000   0.0000000), wk =   1.0000000

     Dense  grid:  1906989 G-vectors     FFT dimensions: ( 200, 200, 200)

     Smooth grid:   674393 G-vectors     FFT dimensions: ( 144, 144, 144)

     Estimated max dynamical RAM per process >       1.52 GB

     Estimated total dynamical RAM >      24.27 GB

     Check: negative core charge=   -0.000004
     Generating pointlists ...
     new r_m :   0.0363 (alat units)  1.1047 (a.u.) for type    1

     Initial potential from superposition of free atoms

     starting charge     799.9917, renormalised to     800.0000

     negative rho (up, down):  6.716E-04 6.716E-04
     Starting wfcs are  800 randomized atomic wfcs
