LAMMPS (3 Mar 2020)
# Alpha
clear
units		real
dimension 3
boundary        p p p
atom_style	charge
newton on
read_data       OOH_6.lmp
  orthogonal box = (0 0 0) to (32.808 17.78 2.473)
  4 by 2 by 1 MPI processor grid
  reading atoms ...
  59 atoms
  read_data CPU = 0.0036255 secs

timestep 0.25

# ---------- Define Interatomic Potential ---------------------
pair_style      reax/c NULL checkqeq no
pair_coeff      * * ffield.reax C H O
fix             2 all qeq/reax 1 0.0 10.0 1.0e-6 reax/c

#------------ Equilibration of the system -------------------------
reset_timestep 0

dump 1 all custom 10 min.lammpstrj id type x y z

minimize 1.0e-8 1.0e-8 100000 100000
WARNING: Using 'neigh_modify every 1 delay 0 check yes' setting during minimization (../min.cpp:190)
WARNING: Total cutoff < 2*bond cutoff. May need to use an increased neighbor list skin. (../pair_reaxc.cpp:413)
Neighbor list info ...
  update every 1 steps, delay 0 steps, check yes
  max neighbors/atom: 2000, page size: 100000
  master list distance cutoff = 9.5
  ghost atom cutoff = 9.5
  binsize = 4.75, bins = 7 4 1
  2 neighbor lists, perpetual/occasional/extra = 2 0 0
  (1) pair reax/c, perpetual
      attributes: half, newton off, ghost
      pair build: half/bin/newtoff/ghost
      stencil: half/ghost/bin/3d/newtoff
      bin: standard
  (2) fix qeq/reax, perpetual, copy from (1)
      attributes: half, newton off, ghost
      pair build: copy
      stencil: none
      bin: none
Per MPI rank memory allocation (min/avg/max) = 20.58 | 21.37 | 21.96 Mbytes
Step Temp E_pair E_mol TotEng Press 
       0            0   -11253.051            0   -11253.051    52907.442 
      82            0   -11327.997            0   -11327.997    1580.0412 
Loop time of 2.37139 on 8 procs for 82 steps with 59 atoms

99.4% CPU use with 8 MPI tasks x no OpenMP threads

Minimization stats:
  Stopping criterion = energy tolerance
  Energy initial, next-to-last, final = 
        -11253.0509537     -11327.9965602     -11327.9966145
  Force two-norm initial, final = 668.025 36.7477
  Force max component initial, final = 439.51 15.9956
  Final line search alpha, max atom move = 0.00109496 0.0175145
  Iterations, force evaluations = 82 407

MPI task timing breakdown:
Section |  min time  |  avg time  |  max time  |%varavg| %total
---------------------------------------------------------------
Pair    | 1.8357     | 1.9479     | 2.0432     |   4.3 | 82.14
Neigh   | 0          | 0          | 0          |   0.0 |  0.00
Comm    | 0.0089733  | 0.10407    | 0.21591    |  18.7 |  4.39
Output  | 0.00024576 | 0.00030789 | 0.00047702 |   0.0 |  0.01
Modify  | 0.31533    | 0.31546    | 0.31555    |   0.0 | 13.30
Other   |            | 0.003651   |            |       |  0.15

Nlocal:    7.375 ave 14 max 3 min
Histogram: 2 2 0 0 0 2 0 1 0 1
Nghost:    744.25 ave 783 max 701 min
Histogram: 2 0 1 0 0 1 0 2 0 2
Neighs:    1195 ave 2321 max 472 min
Histogram: 2 1 1 0 1 1 1 0 0 1

Total # of neighbors = 9560
Ave neighs/atom = 162.034
Neighbor list builds = 0
Dangerous builds = 0

###
min_style cg
minimize 1.0e-8 1.0e-8 100000 100000
WARNING: Using 'neigh_modify every 1 delay 0 check yes' setting during minimization (../min.cpp:190)
WARNING: Total cutoff < 2*bond cutoff. May need to use an increased neighbor list skin. (../pair_reaxc.cpp:413)
Per MPI rank memory allocation (min/avg/max) = 20.58 | 21.37 | 21.96 Mbytes
Step Temp E_pair E_mol TotEng Press 
      82            0   -11327.997            0   -11327.997    1580.0412 
     101            0   -11328.224            0   -11328.224    1625.0847 
Loop time of 0.758769 on 8 procs for 19 steps with 59 atoms

99.4% CPU use with 8 MPI tasks x no OpenMP threads

Minimization stats:
  Stopping criterion = energy tolerance
  Energy initial, next-to-last, final = 
        -11327.9966145     -11328.2234354     -11328.2235367
  Force two-norm initial, final = 36.7477 31.422
  Force max component initial, final = 15.9956 17.2641
  Final line search alpha, max atom move = 0.000180331 0.00311326
  Iterations, force evaluations = 19 132

MPI task timing breakdown:
Section |  min time  |  avg time  |  max time  |%varavg| %total
---------------------------------------------------------------
Pair    | 0.59722    | 0.63306    | 0.66401    |   2.5 | 83.43
Neigh   | 0          | 0          | 0          |   0.0 |  0.00
Comm    | 0.0032326  | 0.034091   | 0.069804   |  10.9 |  4.49
Output  | 6.987e-05  | 8.8242e-05 | 0.00013531 |   0.0 |  0.01
Modify  | 0.090231   | 0.090271   | 0.090305   |   0.0 | 11.90
Other   |            | 0.001256   |            |       |  0.17

Nlocal:    7.375 ave 13 max 3 min
Histogram: 1 1 2 0 0 0 2 0 1 1
Nghost:    744.25 ave 783 max 701 min
Histogram: 2 0 1 0 0 1 0 2 0 2
Neighs:    1193.75 ave 2130 max 472 min
Histogram: 1 2 1 0 0 1 1 1 0 1

Total # of neighbors = 9550
Ave neighs/atom = 161.864
Neighbor list builds = 0
Dangerous builds = 0

###
fix 1 all box/relax aniso 0.0
min_style cg
minimize 1.0e-8 1.0e-8 100000 100000
WARNING: Using 'neigh_modify every 1 delay 0 check yes' setting during minimization (../min.cpp:190)
WARNING: Total cutoff < 2*bond cutoff. May need to use an increased neighbor list skin. (../pair_reaxc.cpp:413)
Per MPI rank memory allocation (min/avg/max) = 20.58 | 21.37 | 21.96 Mbytes
Step Temp E_pair E_mol TotEng Press Volume 
     101            0   -11328.224            0   -11328.224    1625.0847    1442.5658 
     149            0   -11328.515            0   -11328.515   -417.52588     1442.378 
Loop time of 0.449717 on 8 procs for 48 steps with 59 atoms

99.4% CPU use with 8 MPI tasks x no OpenMP threads

Minimization stats:
  Stopping criterion = energy tolerance
  Energy initial, next-to-last, final = 
        -11328.2235367     -11328.5150049     -11328.5150858
  Force two-norm initial, final = 173.386 20.6936
  Force max component initial, final = 142.74 13.4642
  Final line search alpha, max atom move = 1.02987e-05 0.000138664
  Iterations, force evaluations = 48 81

MPI task timing breakdown:
Section |  min time  |  avg time  |  max time  |%varavg| %total
---------------------------------------------------------------
Pair    | 0.36584    | 0.38864    | 0.40804    |   2.0 | 86.42
Neigh   | 0          | 0          | 0          |   0.0 |  0.00
Comm    | 0.001491   | 0.020847   | 0.043597   |   8.6 |  4.64
Output  | 0.00010649 | 0.00017539 | 0.00028186 |   0.0 |  0.04
Modify  | 0.03773    | 0.037753   | 0.037768   |   0.0 |  8.39
Other   |            | 0.002302   |            |       |  0.51

Nlocal:    7.375 ave 13 max 3 min
Histogram: 1 1 2 0 0 0 2 0 1 1
Nghost:    744.25 ave 783 max 701 min
Histogram: 2 0 1 0 0 1 0 2 0 2
Neighs:    1193.75 ave 2130 max 472 min
Histogram: 1 2 1 0 0 1 1 1 0 1

Total # of neighbors = 9550
Ave neighs/atom = 161.864
Neighbor list builds = 0
Dangerous builds = 0

unfix 1
###
min_style cg
minimize 1.0e-8 1.0e-8 100000 100000
WARNING: Using 'neigh_modify every 1 delay 0 check yes' setting during minimization (../min.cpp:190)
WARNING: Total cutoff < 2*bond cutoff. May need to use an increased neighbor list skin. (../pair_reaxc.cpp:413)
Per MPI rank memory allocation (min/avg/max) = 20.58 | 21.37 | 21.96 Mbytes
Step Temp E_pair E_mol TotEng Press 
     149            0   -11328.515            0   -11328.515   -417.52588 
     204            0   -11330.537            0   -11330.537   -15986.815 
Loop time of 1.5386 on 8 procs for 55 steps with 59 atoms

99.4% CPU use with 8 MPI tasks x no OpenMP threads

Minimization stats:
  Stopping criterion = energy tolerance
  Energy initial, next-to-last, final = 
        -11328.5150858     -11330.5372699     -11330.5373289
  Force two-norm initial, final = 12.5894 25.6895
  Force max component initial, final = 6.24674 10.2735
  Final line search alpha, max atom move = 0.000303264 0.00311559
  Iterations, force evaluations = 55 267

MPI task timing breakdown:
Section |  min time  |  avg time  |  max time  |%varavg| %total
---------------------------------------------------------------
Pair    | 1.1963     | 1.2706     | 1.3343     |   3.6 | 82.58
Neigh   | 0          | 0          | 0          |   0.0 |  0.00
Comm    | 0.0052946  | 0.068831   | 0.1428     |  15.5 |  4.47
Output  | 0.00016196 | 0.00020035 | 0.00031202 |   0.0 |  0.01
Modify  | 0.19649    | 0.19657    | 0.19664    |   0.0 | 12.78
Other   |            | 0.00243    |            |       |  0.16

Nlocal:    7.375 ave 13 max 3 min
Histogram: 1 1 2 0 0 0 2 0 1 1
Nghost:    744.25 ave 783 max 701 min
Histogram: 2 0 1 0 0 1 0 2 0 2
Neighs:    1193.75 ave 2130 max 472 min
Histogram: 1 2 1 0 0 1 1 1 0 1

Total # of neighbors = 9550
Ave neighs/atom = 161.864
Neighbor list builds = 0
Dangerous builds = 0

###
fix 1 all box/relax aniso 0.0
min_style cg
minimize 1.0e-8 1.0e-8 100000 100000
WARNING: Using 'neigh_modify every 1 delay 0 check yes' setting during minimization (../min.cpp:190)
WARNING: Total cutoff < 2*bond cutoff. May need to use an increased neighbor list skin. (../pair_reaxc.cpp:413)
Per MPI rank memory allocation (min/avg/max) = 20.58 | 21.37 | 21.96 Mbytes
Step Temp E_pair E_mol TotEng Press Volume 
     204            0   -11330.537            0   -11330.537   -15986.815     1442.378 
     349            0   -11330.985            0   -11330.985    482.91181    1441.2416 
Loop time of 1.42788 on 8 procs for 145 steps with 59 atoms

99.4% CPU use with 8 MPI tasks x no OpenMP threads

Minimization stats:
  Stopping criterion = energy tolerance
  Energy initial, next-to-last, final = 
        -11330.5373289     -11330.9851031     -11330.9851681
  Force two-norm initial, final = 612.183 19.9369
  Force max component initial, final = 482.336 10.7532
  Final line search alpha, max atom move = 9.73753e-06 0.00010471
  Iterations, force evaluations = 145 258

MPI task timing breakdown:
Section |  min time  |  avg time  |  max time  |%varavg| %total
---------------------------------------------------------------
Pair    | 1.1555     | 1.2277     | 1.2897     |   3.5 | 85.98
Neigh   | 0          | 0          | 0          |   0.0 |  0.00
Comm    | 0.0052834  | 0.067139   | 0.13912    |  14.9 |  4.70
Output  | 0.00039828 | 0.00048107 | 0.00072037 |   0.0 |  0.03
Modify  | 0.12591    | 0.126      | 0.12605    |   0.0 |  8.82
Other   |            | 0.006599   |            |       |  0.46

Nlocal:    7.375 ave 14 max 3 min
Histogram: 2 2 0 0 0 2 0 1 0 1
Nghost:    744.25 ave 783 max 701 min
Histogram: 2 0 1 0 0 1 0 2 0 2
Neighs:    1189.75 ave 2298 max 470 min
Histogram: 2 1 1 0 1 1 1 0 0 1

Total # of neighbors = 9518
Ave neighs/atom = 161.322
Neighbor list builds = 0
Dangerous builds = 0

unfix 1
###
min_style cg
minimize 1.0e-8 1.0e-8 100000 100000
WARNING: Using 'neigh_modify every 1 delay 0 check yes' setting during minimization (../min.cpp:190)
WARNING: Total cutoff < 2*bond cutoff. May need to use an increased neighbor list skin. (../pair_reaxc.cpp:413)
Per MPI rank memory allocation (min/avg/max) = 20.58 | 21.37 | 21.96 Mbytes
Step Temp E_pair E_mol TotEng Press 
     349            0   -11330.985            0   -11330.985    482.91181 
     354            0   -11331.007            0   -11331.007    2125.8971 
Loop time of 0.162238 on 8 procs for 5 steps with 59 atoms

99.3% CPU use with 8 MPI tasks x no OpenMP threads

Minimization stats:
  Stopping criterion = energy tolerance
  Energy initial, next-to-last, final = 
        -11330.9851681     -11331.0069027     -11331.0069612
  Force two-norm initial, final = 9.34191 22.7296
  Force max component initial, final = 2.62062 9.46778
  Final line search alpha, max atom move = 0.00257771 0.0244052
  Iterations, force evaluations = 5 27

MPI task timing breakdown:
Section |  min time  |  avg time  |  max time  |%varavg| %total
---------------------------------------------------------------
Pair    | 0.12574    | 0.1333     | 0.13994    |   1.1 | 82.17
Neigh   | 0          | 0          | 0          |   0.0 |  0.00
Comm    | 0.00055168 | 0.0071588  | 0.014693   |   4.9 |  4.41
Output  | 2.9305e-05 | 3.5345e-05 | 4.8521e-05 |   0.0 |  0.02
Modify  | 0.021393   | 0.02141    | 0.021416   |   0.0 | 13.20
Other   |            | 0.0003309  |            |       |  0.20

Nlocal:    7.375 ave 14 max 3 min
Histogram: 2 2 0 0 0 2 0 1 0 1
Nghost:    744.25 ave 783 max 701 min
Histogram: 2 0 1 0 0 1 0 2 0 2
Neighs:    1190.75 ave 2298 max 472 min
Histogram: 2 1 1 0 1 1 1 0 0 1

Total # of neighbors = 9526
Ave neighs/atom = 161.458
Neighbor list builds = 0
Dangerous builds = 0

undump 1
#############
#----------- Thermo ------------
reset_timestep 0
thermo  200

thermo_style    custom step temp etotal ke pe press
velocity all create 300 12345 mom yes rot yes
fix 1 all npt temp 300 300 25.0 iso 0.0 0.0 250.0

variable vpe equal pe
variable vtemp equal temp
variable vstep equal step

fix output all print 2500 "${vstep} ${vtemp} ${vpe}" file temp-tpdh-Pt.dat screen no

dump 1 all custom 2500 thermo-tpdh-Pt.lammpstrj id type x y z

run 1000000
WARNING: Total cutoff < 2*bond cutoff. May need to use an increased neighbor list skin. (../pair_reaxc.cpp:413)
Per MPI rank memory allocation (min/avg/max) = 19.46 | 20.24 | 20.84 Mbytes
Step Temp TotEng KinEng PotEng Press 
       0          300   -11279.141    51.866095   -11331.007    3770.9489 
     200    238.19789   -11257.933    41.181314   -11299.114    -39952.89 
     400    293.76698   -11230.315    50.788487   -11281.103   -42006.999 
     600    290.72073   -11225.131     50.26183   -11275.392    26990.738 
     800    295.88924   -11239.754    51.155398   -11290.909   -22704.824 
    1000    360.31547   -11222.805    62.293854   -11285.099   -51575.209 
    1200    269.51068   -11224.247    46.594888   -11270.842   -19990.663 
    1400    271.03904    -11237.37    46.859122   -11284.229    18462.465 
    1600    276.60231   -11231.563    47.820939   -11279.384    20424.338 
    1800    337.44851   -11222.374    58.340454   -11280.714     22253.01 
    2000    252.03869   -11230.195    43.574208   -11273.769     -61986.6 
    2200    335.66331   -11222.172    58.031816   -11280.204    46655.863 
    2400    297.79991   -11210.518    51.485728   -11262.004   -18893.859 
    2600    263.55792   -11232.986    45.565733   -11278.552   -4633.1959 
    2800    311.75003   -11226.726    53.897522   -11280.623   -17726.438 
    3000     293.9059   -11238.111    50.812504   -11288.923    14908.107 
    3200     280.6629   -11241.446    48.522963   -11289.969    7690.3903 
    3400    343.46668   -11220.935    59.380918   -11280.316    18448.147 
    3600    282.47195   -11237.256    48.835723   -11286.092    17298.785 
    3800     307.0618   -11225.559    53.086989   -11278.646   -15648.495 
    4000    409.57868   -11197.038    70.810822   -11267.849    34570.309 
    4200    337.52855   -11213.933    58.354292   -11272.287    17760.416 
    4400    317.78479   -11232.704    54.940854   -11287.645   -7131.2346 
    4600    268.95938   -11243.488    46.499575   -11289.988   -65613.566 
    4800    287.04453   -11234.752    49.626263   -11284.378   -25224.429 
    5000    289.47384   -11223.102     50.04626   -11273.148    51086.137 
    5200    289.99635   -11230.717    50.136594   -11280.853     45655.06 
    5400    253.45499    -11243.14    43.819069   -11286.959   -20605.023 
    5600    358.93974   -11224.337    62.056008   -11286.393   -19348.417 
    5800    268.87272   -11232.921    46.484593   -11279.405   -23744.763 
    6000    257.67157   -11247.982     44.54806    -11292.53    30322.689 
    6200    270.32066   -11239.028    46.734923   -11285.763   -18755.266 
    6400    357.14081   -11229.292    61.744997   -11291.037   -38358.813 
    6600    315.36244   -11239.442    54.522061   -11293.964    1604.6609 
    6800    318.74064   -11233.068    55.106108   -11288.174     41813.41 
    7000    282.17235   -11227.875    48.783927   -11276.659   -29504.184 
    7200      397.108   -11212.424    68.654805   -11281.079   -10910.412 
    7400    325.75589   -11235.313    56.318953   -11291.632   -33750.623 
    7600    357.93462   -11226.715    61.882236   -11288.597    5743.7026 
    7800    314.07165   -11230.948      54.2989   -11285.247   -51472.109 
    8000    291.70791   -11237.745      50.4325   -11288.178    15872.507 
    8200    305.90391   -11230.067    52.886803   -11282.954   -27560.489 
    8400    349.32435   -11232.953    60.393632   -11293.347   -28004.477 
    8600    279.53238   -11251.095    48.327509   -11299.422   -30713.867 
    8800    313.36992   -11236.499    54.177579   -11290.676    49172.015 
    9000    343.93804   -11225.234    59.462411   -11284.697   -4536.9911 
    9200      271.324    -11237.27    46.908387   -11284.178   -71119.301 
    9400    311.91218   -11235.842    53.925556   -11289.767     23010.89 
    9600    322.00206   -11221.614    55.669965   -11277.284   -49736.802 
    9800     284.7483   -11235.509    49.229275   -11284.739   -19173.598 
   10000    308.43511   -11229.506    53.324415    -11282.83   -3569.6174 
   10200    343.60351   -11220.869    59.404573   -11280.273   -23470.422 
   10400     292.6657   -11233.141     50.59809   -11283.739    238.82906 
   10600    280.69589   -11233.561    48.528666    -11282.09   -40382.678 
   10800    360.69401   -11212.385    62.359299   -11274.744   -10607.841 
   11000    275.71897   -11236.818    47.668221   -11284.486    12832.448 
   11200    274.07008   -11223.876    47.383149    -11271.26   -3794.6618 
   11400    255.53511   -11234.978    44.178695   -11279.156    4984.1756 
   11600    333.60798   -11234.386    57.676477   -11292.063   -46094.224 
   11800    341.77676   -11225.604    59.088753   -11284.693   -21403.052 
   12000    273.90392   -11238.064    47.354423   -11285.419   -19764.468 
   12200    296.10862   -11231.038    51.193325   -11282.231   -63439.452 
   12400    304.75563   -11217.742    52.688281    -11270.43    28324.507 
   12600    244.14685   -11233.583    42.209813   -11275.793   -66494.311 
   12800      270.726    -11235.27    46.805002   -11282.075   -12469.699 
   13000    316.75121   -11220.886     54.76216   -11275.648   -36340.298 
   13200    267.62332   -11236.524    46.268589   -11282.792   -41108.247 
   13400    291.98024   -11231.302    50.479583   -11281.782   -5069.9785 
   13600    275.10946   -11227.916    47.562844   -11275.479   -18662.276 
   13800      304.597   -11238.432    52.660856   -11291.092    50111.244 
   14000     282.7885   -11237.703     48.89045   -11286.594    58832.909 
   14200    297.99138   -11224.393     51.51883   -11275.912   -51145.438 
   14400    302.29859   -11233.524     52.26349   -11285.788    7458.2335 
   14600     276.7801   -11237.707    47.851677   -11285.559   -51810.776 
   14800    296.56822   -11221.298    51.272784   -11272.571     10174.81 
   15000    295.06705   -11230.071    51.013251   -11281.084   -80141.241 
   15200    309.99651   -11231.578    53.594362   -11285.173   -18344.093 
   15400    313.26193   -11227.388    54.158909   -11281.547    20965.957 
   15600     243.0348   -11246.403    42.017553    -11288.42     28352.52 
   15800    292.59849   -11227.732    50.586471   -11278.318    28176.725 
   16000    288.01749   -11232.641    49.794475   -11282.435   -36039.541 
   16200    314.22151   -11235.025    54.324808   -11289.349   -76346.961 
   16400    289.41331   -11227.074    50.035793    -11277.11    26412.395 
   16600    386.19009   -11218.696    66.767239   -11285.463   -22803.138 
   16800    321.05984   -11232.626    55.507068   -11288.133   -16708.872 
   17000    244.96818   -11246.827     42.35181   -11289.179    14187.756 
   17200    295.64575   -11232.941    51.113302   -11284.054    23268.124 
   17400    350.32485   -11228.987    60.566606   -11289.554   -23488.777 
   17600    274.11574   -11247.483    47.391044   -11294.875   -5744.4554 
   17800    249.04812   -11233.783    43.057178    -11276.84     8655.223 
   18000    283.45647   -11225.528    49.005934   -11274.534    10656.097 
   18200    317.82355   -11220.586    54.947555   -11275.534   -477.04667 
   18400    314.97534   -11239.329    54.455136   -11293.785   -6174.1019 
   18600    277.23867   -11238.287    47.930957   -11286.218   -51911.482 
   18800    300.37942   -11231.975    51.931691   -11283.907    26219.074 
   19000    324.90759   -11211.075    56.172293   -11267.247    -972.6665 
   19200    323.34965   -11225.365    55.902946   -11281.268   -20142.547 
   19400    267.26184   -11236.277    46.206092   -11282.483    23680.843 
   19600    288.79596   -11232.268    49.929062   -11282.197    322.61729 
   19800     284.1069   -11223.927    49.118385   -11273.046    17329.704 
   20000    259.28607   -11237.435    44.827186   -11282.262   -26096.561 
   20200    395.26831   -11217.221    68.336745   -11285.558   -8665.8086 
   20400    287.18393   -11241.341    49.650364   -11290.992   -30153.442 
   20600    305.45911   -11234.799    52.809904   -11287.609   -21334.316 
   20800     352.6866   -11224.798    60.974923   -11285.773    25113.019 
   21000    248.82678    -11241.74    43.018912   -11284.759   -18550.376 
   21200    362.93469   -11215.828    62.746683   -11278.575   -42257.459 
   21400    288.81799   -11233.565     49.93287   -11283.498    44301.276 
   21600    324.89322   -11226.691    56.169809   -11282.861    16167.925 
   21800    313.66337   -11236.204    54.228313   -11290.432   -349.20378 
   22000     302.5613   -11233.127    52.308911   -11285.436    14176.674 
   22200    355.45601   -11230.228    61.453717   -11291.681    43298.286 
   22400    270.91481   -11239.524    46.837645   -11286.362   -23192.375 
   22600    358.16593   -11218.635    61.922227   -11280.557   -81609.696 
   22800    297.83245   -11225.622    51.491353   -11277.113    32118.954 
   23000    325.07056   -11226.692    56.200468   -11282.893   -8878.6129 
   23200    258.08451   -11241.579    44.619453   -11286.198   -10315.986 
   23400    298.80132   -11234.778    51.658859   -11286.437   -21459.409 
   23600    307.93431   -11228.427    53.237833   -11281.665    35928.749 
   23800    322.88257   -11233.509    55.822194   -11289.332   -1823.6601 
   24000     335.9708   -11233.367    58.084978   -11291.452   -28424.341 
   24200    338.72443   -11221.116    58.561044   -11279.677    8622.1633 
   24400    271.78772   -11238.842    46.988559   -11285.831     7449.603 
   24600    309.91959   -11227.961    53.581063   -11281.542    19329.685 
   24800    304.57725    -11225.16    52.657441   -11277.818    -37327.94 
   25000    330.81186   -11229.322    57.193065   -11286.515    57034.228 
   25200    295.81788   -11237.667    51.143061    -11288.81   -563.45468 
   25400    312.32576   -11216.526    53.997058   -11270.523    12375.726 
   25600    287.82401   -11230.578    49.761024   -11280.339   -11176.118 
   25800    248.77401   -11234.078    43.009789   -11277.088    60540.903 
   26000    315.42129   -11224.489    54.532235   -11279.021   -28330.296 
   26200    336.20101   -11227.042    58.124778   -11285.167    12230.625 
   26400    259.65732   -11241.794     44.89137   -11286.685    -60830.33 
   26600    322.08422   -11222.462    55.684168   -11278.146    3591.4189 
   26800    282.99706   -11220.684    48.926508    -11269.61     22290.97 
   27000    331.60468   -11232.246    57.330132   -11289.576   -27182.188 
   27200     270.5567   -11241.283    46.775732   -11288.059   -19480.198 
   27400    348.21025   -11223.519    60.201019    -11283.72     53667.88 
   27600    268.05645    -11235.98    46.343471   -11282.324    13771.936 
   27800    314.31455    -11227.35    54.340894   -11281.691    11224.778 
   28000    285.91447   -11220.519     49.43089    -11269.95   -32712.576 
   28200    314.96115   -11231.259    54.452682   -11285.712    57627.817 
   28400    304.97437   -11239.612    52.726098   -11292.338    52969.871 
   28600    258.35838    -11242.98    44.666802   -11287.647    71883.781 
   28800     300.4928    -11228.22    51.951294   -11280.171   -14816.973 
   29000    252.29891   -11237.501    43.619198    -11281.12     56098.31 
   29200    268.54366   -11244.042    46.427702    -11290.47   -62134.873 
   29400    335.25865   -11225.788    57.961856    -11283.75    37517.361 
   29600    326.37518   -11230.232     56.42602   -11286.658   -79078.846 
   29800    276.27894    -11241.21    47.765032   -11288.975    55906.679 
   30000    343.77024   -11221.965      59.4334   -11281.398   -77317.346 
   30200    278.22272   -11237.428    48.101087   -11285.529   -32633.387 
   30400     321.4192   -11222.383    55.569196   -11277.952   -28624.637 
   30600     337.2278   -11228.069    58.302297   -11286.372   -25851.428 
   30800    304.89938   -11225.698    52.713134   -11278.411   -60822.456 
   31000    282.87896   -11239.006    48.906089   -11287.912   -49021.305 
   31200    317.00713   -11236.625    54.806406   -11291.431   -33909.814 
   31400    320.18701   -11226.483    55.356167    -11281.84   -45219.088 
   31600    281.01758   -11247.405    48.584282    -11295.99    68405.504 
   31800    324.90732   -11230.371    56.172246   -11286.543    1750.5721 
   32000    314.39196   -11227.026    54.354277    -11281.38    57032.269 
   32200     288.6209   -11236.205    49.898797   -11286.104    -183.4905 
   32400    336.14474   -11225.748    58.115049   -11283.863    77645.955 
   32600    321.10212   -11227.884    55.514377   -11283.398    19866.649 
   32800    302.85397   -11234.836    52.359509   -11287.196   -26250.274 
   33000    289.60168   -11222.447     50.06836   -11272.515     14065.18 
   33200    305.42285   -11231.734    52.803635   -11284.537    1878.1938 
   33400    301.96877   -11236.087     52.20647   -11288.294   -5716.7445 
   33600    320.17883   -11221.916    55.354752   -11277.271    9909.9996 
   33800    255.42764   -11242.289    44.160114   -11286.449    32992.363 
   34000    336.88006   -11228.291    58.242177   -11286.533   -8091.4607 
   34200    310.79296   -11226.457    53.732057   -11280.189   -38951.823 
   34400    366.55374   -11206.045     63.37237   -11269.418    18555.378 
   34600     276.7394   -11228.447    47.844641   -11276.291    -22367.38 
   34800    284.43005   -11230.949    49.174253   -11280.123    5128.9592 
   35000    367.27687   -11213.862     63.49739   -11277.359   -24424.836 
   35200    300.53961   -11232.713    51.959387   -11284.672   -32820.094 
   35400    325.90988   -11228.706    56.345577   -11285.052    14424.223 
   35600    310.64904   -11230.448    53.707175   -11284.155    1386.6847 
   35800     265.7108    -11242.83    45.937939   -11288.768     36994.49 
   36000     306.7271    -11224.42    53.029123   -11277.449   -10395.979 
   36200    336.12442   -11227.275    58.111537   -11285.386    10824.835 
   36400    293.54401   -11240.157    50.749938   -11290.907    11534.931 
   36600      287.289   -11236.454    49.668529   -11286.122   -16679.193 
   36800    297.28406   -11223.402    51.396544   -11274.799    17800.946 
   37000    266.55874   -11234.732    46.084537   -11280.817    9871.5456 
   37200    256.93792   -11244.314    44.421221   -11288.735    -12520.43 
   37400    268.16861   -11232.146    46.362861   -11278.509    -27074.31 
   37600    258.92672   -11232.016    44.765059   -11276.781   -27806.568 
   37800    275.65975   -11245.837    47.657982   -11293.495   -9404.3329 
   38000    300.00267   -11231.632    51.866557   -11283.499   -34639.521 
   38200    345.74153   -11226.058    59.774209   -11285.832   -21768.159 
   38400    362.22374   -11211.522     62.62377   -11274.146    -20998.11 
   38600    311.80478   -11232.394    53.906988     -11286.3   -28318.534 
   38800     269.3541   -11229.602    46.567818    -11276.17    30864.276 
   39000    351.03461   -11214.351    60.689315   -11275.041    57032.095 
   39200    250.74237   -11235.885    43.350092   -11279.235    30169.818 
   39400    312.80733   -11226.485    54.080316   -11280.566     69743.38 
   39600     326.6299   -11223.646    56.470058   -11280.116     9139.321 
   39800    262.31201   -11241.467    45.350332   -11286.818    14169.287 
   40000    307.70919    -11236.42    53.198913   -11289.619    -36771.43 
   40200    319.86714   -11218.737    55.300865   -11274.038    68242.496 
   40400    299.25824   -11232.186    51.737854   -11283.924    17280.992 
   40600    306.84891   -11225.679    53.050183    -11278.73   -35838.908 
   40800     363.2621   -11215.955    62.803289   -11278.758    94998.865 
   41000    300.76885   -11231.063     51.99902   -11283.062   -15354.776 
   41200    273.22907   -11233.732    47.237749   -11280.969    13984.028 
   41400    235.75843   -11250.714    40.759563   -11291.473    33055.159 
   41600    276.55855   -11233.598    47.813374   -11281.411    76642.294 
   41800    353.04338   -11229.498    61.036605   -11290.535   -56346.952 
   42000    235.24122   -11245.174    40.670144   -11285.845    53866.223 
   42200    280.48013   -11228.164    48.491363   -11276.655   -52129.196 
   42400    292.94222   -11227.652    50.645897   -11278.297   -20194.925 
   42600    268.79547   -11242.144    46.471238   -11288.615   -47804.137 
   42800    299.90725   -11230.775     51.85006   -11282.625    18458.641 
   43000    376.72995   -11222.747    65.131704   -11287.879   -40996.312 
   43200    274.33339    -11238.85    47.428672   -11286.278    8729.1512 
   43400    290.05158   -11231.511    50.146143   -11281.657    8669.9875 
   43600     340.5842   -11222.685    58.882574   -11281.567   -14458.787 
   43800    300.23136   -11228.713    51.906094   -11280.619    7340.5234 
   44000    294.56175   -11240.601    50.925892   -11291.527   -26455.174 
   44200    312.02679   -11222.106    53.945369   -11276.051   -22145.821 
   44400    291.39714    -11233.01    50.378772   -11283.389    6722.2169 
   44600    312.40268   -11228.526    54.010356   -11282.537   -473.51006 
   44800     287.9599   -11216.301    49.784519   -11266.085   -16855.182 
   45000    259.94367   -11234.937    44.940878   -11279.878    16830.328 
   45200     275.8798   -11232.814    47.696027    -11280.51   -898.33748 
   45400    332.92349   -11216.991    57.558138   -11274.549   -47883.166 
   45600    343.22054   -11233.357    59.338363   -11292.695   -4731.1656 
   45800    324.27083   -11231.681    56.062205   -11287.743    15181.791 
   46000     301.4797    -11229.22    52.121916   -11281.342    -24433.65 
   46200    249.89719   -11244.848    43.203971   -11288.052    25205.943 
   46400    299.39744   -11239.392    51.761921   -11291.153    34204.015 
   46600    315.26218   -11231.131    54.504727   -11285.635   -11918.332 
   46800    262.51122   -11245.257    45.384773   -11290.642   -16037.326 
   47000    300.90938   -11241.182    52.023315   -11293.205   -28942.714 
   47200    297.10574   -11228.456    51.365715   -11279.822    3769.8025 
   47400    306.85748   -11219.035    53.051664   -11272.087   -15966.642 
   47600    283.78586   -11229.901    49.062882   -11278.964   -8958.1444 
   47800    332.06567   -11233.414    57.409831   -11290.824   -2169.7051 
   48000    305.53558   -11213.629    52.823125   -11266.452   -13469.538 
   48200    310.62136    -11225.86    53.702389   -11279.562     4216.817 
   48400    289.02708   -11228.923     49.96902   -11278.892    1415.9146 
   48600    330.00593   -11233.991     57.05373   -11291.045    29165.994 
   48800    251.20983   -11240.136     43.43091   -11283.567   -55448.545 
   49000    319.59446    -11223.24    55.253722   -11278.494    6334.6159 
   49200    250.87294   -11229.544    43.372666   -11272.916     15126.15 
   49400    262.46522   -11241.119     45.37682   -11286.496   -9732.3268 
   49600     347.5959   -11221.408    60.094806   -11281.503    -60926.89 
   49800    253.52424   -11235.881    43.831041   -11279.712   -23634.198 
   50000    338.07469     -11225.7    58.448713   -11284.149   -31923.828 
   50200     321.0637   -11224.032    55.507735    -11279.54    39906.745 
   50400    279.21663   -11231.065    48.272921   -11279.338   -2302.4178 
   50600    249.34692   -11243.909    43.108836   -11287.018    25838.082 
   50800    294.31925   -11226.166    50.883967   -11277.049   -24106.062 
   51000    284.62407   -11225.146    49.207797   -11274.353    79088.301 
   51200    272.86305    -11242.64    47.174469   -11289.814   -20239.344 
   51400    277.24828   -11236.904    47.932619   -11284.836   -13431.587 
   51600    337.79874   -11219.041    58.401005   -11277.442     829.9809 
   51800     327.2002   -11228.256    56.568655   -11284.825    7390.9522 
   52000    272.26439   -11235.531    47.070968   -11282.602    5376.9939 
   52200    313.28426   -11225.375     54.16277   -11279.537   -44961.321 
   52400    288.15469   -11226.367    49.818194   -11276.185    69251.749 
   52600    295.61957   -11223.468    51.108776   -11274.577   -27907.151 
   52800     296.7085   -11225.541    51.297037   -11276.838      16550.6 
   53000    265.68689   -11243.125    45.933804   -11289.059   -6416.9851 
   53200    238.01789   -11225.365    41.150196   -11266.515   -62298.228 
   53400    303.35867   -11223.375    52.446765   -11275.822   -26059.597 
   53600    318.95409   -11236.357    55.143011     -11291.5    43781.306 
   53800    271.28497   -11231.926     46.90164   -11278.828   -54404.965 
   54000    328.33582   -11225.373     56.76499   -11282.138   -42550.288 
   54200    272.15704   -11235.416    47.052409   -11282.468    29325.308 
   54400    342.78194   -11217.214    59.262536   -11276.477    8543.8886 
   54600    275.99404   -11232.736    47.715777   -11280.452    71377.852 
   54800    302.42343   -11229.427    52.285075   -11281.712    41441.613 
   55000    318.72397   -11215.425    55.103226   -11270.529    7358.4624 
   55200    351.47012    -11206.63    60.764608   -11267.394    23106.878 
   55400    299.04622   -11226.372    51.701199   -11278.073   -40418.257 
   55600    300.85606   -11234.091    52.014096   -11286.105    12670.753 
   55800     275.9203   -11242.022    47.703028   -11289.725    18415.107 
   56000    285.79046   -11224.466    49.409451   -11273.875    46267.617 
   56200    324.65457   -11220.247     56.12855   -11276.375    35483.039 
   56400    276.05547   -11243.929    47.726397   -11291.655   -40551.709 
   56600    300.29044   -11232.488    51.916308   -11284.404   -14154.552 
   56800    331.65516   -11219.937     57.33886   -11277.276    5854.6097 
   57000    303.46075    -11232.62    52.464414   -11285.084   -81991.866 
   57200    215.30701   -11245.216     37.22378    -11282.44   -65099.633 
   57400    312.07879   -11232.429    53.954361   -11286.383    100134.02 
   57600      364.582   -11225.908    63.031482    -11288.94    74168.893 
   57800    263.90143   -11243.084    45.625121   -11288.709    49098.897 
   58000    290.54269   -11227.727    50.231049   -11277.958    33007.424 
   58200    261.62061   -11224.282    45.230797   -11269.513    26078.139 
   58400    316.78054   -11237.354    54.767232   -11292.122    50526.595 
   58600    302.29794   -11229.848    52.263379   -11282.111    3144.8803 
   58800    311.54724   -11222.589    53.862462   -11276.451   -40041.768 
   59000    244.61036   -11235.023    42.289946   -11277.312    223.14615 
   59200    306.05598   -11215.461    52.913095   -11268.374    21092.869 
   59400    292.51714   -11226.764    50.572406   -11277.337   -68447.913 
   59600    269.31139    -11230.29    46.560434    -11276.85   -8522.2225 
   59800    293.29417   -11229.235    50.706743   -11279.942    -51076.24 
   60000    264.28308   -11242.731    45.691104   -11288.422   -84895.138 
   60200    273.20612   -11224.702    47.233782   -11271.935   -41735.926 
   60400    303.25495   -11228.555    52.428833   -11280.984    36681.142 
   60600    284.20147   -11241.589    49.134735   -11290.724    8747.1449 
   60800    234.45239   -11241.218    40.533767   -11281.752   -2077.9775 
   61000    347.11287   -11225.888    60.011297   -11285.899   -63197.466 
   61200     309.0843   -11227.216    53.436653   -11280.652   -6481.9787 
   61400    273.50304     -11243.3    47.285115   -11290.585   -4767.2856 
   61600    315.15905    -11227.76    54.486897   -11282.247    71103.335 
   61800    342.65354   -11227.465    59.240336   -11286.705   -21360.333 
   62000    271.57995   -11238.487    46.952639    -11285.44   -14676.071 
   62200    266.49914   -11233.104    46.074232   -11279.178    43277.369 
   62400    293.82034   -11220.972    50.797713    -11271.77   -1878.0726 
   62600    254.86828   -11236.368    44.063407   -11280.431   -5732.5859 
   62800    369.95202   -11214.802    63.959889   -11278.762   -19963.249 
   63000    309.77042   -11229.821    53.555273   -11283.376   -8141.1912 
   63200    276.14919    -11238.49    47.742601   -11286.232   -14700.232 
   63400    332.97528   -11216.391    57.567091   -11273.958    5006.3463 
   63600    328.22988   -11227.112    56.746674   -11283.858      35893.6 
   63800    331.77412   -11232.907    57.359427   -11290.267    31503.769 
   64000    312.25301   -11225.286    53.984481    -11279.27   -31185.421 
   64200    329.53415   -11212.462    56.972165   -11269.434   -43522.362 
   64400    321.23506   -11228.959     55.53736   -11284.497   -26240.131 
   64600     281.8179   -11235.798    48.722647   -11284.521   -28620.048 
   64800    250.87055   -11245.356    43.372253   -11288.728      21021.1 
   65000    307.17503   -11226.605    53.106564   -11279.711    67295.498 
   65200     312.1209   -11226.606    53.961641   -11280.568    18752.329 
   65400    284.36269   -11245.083    49.162607   -11294.246   -12935.858 
   65600    262.96772   -11230.427    45.463696    -11275.89    8101.5501 
   65800     297.5337   -11226.762    51.439704   -11278.202    19206.799 
   66000    276.12736   -11243.352    47.738826   -11291.091    11429.306 
   66200     296.3505   -11237.467    51.235144   -11288.702   -1337.5707 
   66400    323.96474   -11229.446    56.009286   -11285.456   -17276.086 
   66600    297.47522   -11239.345    51.429594   -11290.775   -16308.362 
   66800    308.17401   -11234.369    53.279274   -11287.649    35511.919 
   67000    315.27348   -11230.923     54.50668   -11285.429    324.43801 
   67200    254.12141   -11240.169    43.934285   -11284.103   -4351.4463 
   67400    271.05337   -11236.198      46.8616    -11283.06    48643.567 
   67600    331.20469   -11226.357    57.260979   -11283.618     -28011.3 
   67800    249.84888   -11242.346    43.195619   -11285.541    -9392.593 
   68000     312.1353   -11224.842     53.96413   -11278.807   -46785.034 
   68200    343.75512   -11226.297    59.430785   -11285.727    44798.792 
   68400    321.29473   -11237.761    55.547676   -11293.308    17997.565 
   68600    342.06924   -11215.591    59.139318   -11274.731     29667.18 
   68800    271.35812   -11226.383    46.914287   -11273.298    23998.846 
   69000    276.12429   -11228.744    47.738296   -11276.482     -34128.9 
   69200    252.60367   -11238.162    43.671886   -11281.834   -31014.069 
   69400     286.2407   -11219.279    49.487291   -11268.767    7129.1543 
   69600    320.90905    -11231.51    55.480997   -11286.991     70871.68 
   69800    271.80014   -11232.601    46.990706   -11279.592   -30167.922 
   70000    321.60849   -11223.538    55.601922    -11279.14   -35613.306 
   70200    246.64658   -11242.874    42.641983   -11285.516     9382.917 
   70400    284.79785   -11235.718    49.237841   -11284.956    2728.5631 
   70600    334.41697   -11220.862    57.816341   -11278.678   -5893.0624 
   70800    274.26075   -11233.734    47.416114    -11281.15    48200.314 
   71000    271.62981    -11239.16    46.961258   -11286.122   -28521.894 
   71200    283.60784   -11229.675    49.032104   -11278.707    -31587.99 
   71400    355.83189   -11218.257    61.518703   -11279.776     25769.01 
   71600    279.97554   -11240.225    48.404127   -11288.629    7312.9408 
   71800    295.90968   -11230.225    51.158932   -11281.384    13257.179 
   72000    302.93368   -11226.184     52.37329   -11278.557    56759.709 
   72200    281.71791   -11231.406    48.705359   -11280.112    -3100.839 
   72400    261.47251   -11243.556    45.205194   -11288.761    8004.7482 
   72600    264.39646   -11239.439    45.710707    -11285.15    13073.041 
   72800    361.55326    -11227.89    62.507852   -11290.398    47319.101 
   73000    334.09129   -11231.476    57.760035   -11289.237    23286.693 
   73200    302.22373   -11216.473    52.250549   -11268.724   -5926.6367 
   73400    264.85172   -11234.371    45.789416    -11280.16   -20407.072 
   73600    296.92842   -11229.619    51.335059   -11280.954    2790.1272 
   73800    357.78611   -11219.768    61.856561   -11281.624    -35842.42 
   74000    341.55561   -11217.939    59.050518    -11276.99    20260.915 
   74200    256.62189   -11234.271    44.366585   -11278.638    457.68663 
   74400    371.05092   -11223.578    64.149874   -11287.728    47813.559 
   74600    287.40503   -11236.975    49.688588   -11286.664    119190.98 
   74800    301.71548   -11234.106    52.162679   -11286.268   -42399.514 
   75000    330.90217   -11221.289    57.208678   -11278.498   -61752.628 
   75200      305.593   -11224.887    52.833052    -11277.72    90436.412 
   75400    300.30146   -11229.473    51.918213   -11281.391   -50290.885 
   75600    312.32096   -11227.346    53.996229   -11281.342    21071.096 
   75800    295.48522   -11227.235    51.085548    -11278.32   -13661.778 
   76000     225.6657   -11240.575    39.014662    -11279.59    28257.325 
   76200    345.54274   -11223.654    59.739841   -11283.394   -29116.551 
   76400    324.36494   -11231.454    56.078477   -11287.532    8137.1031 
   76600     291.7277   -11235.657    50.435921   -11286.093   -32919.762 
   76800     295.9845    -11219.08    51.171867   -11270.252   -10867.899 
   77000    268.89382   -11236.754    46.488241   -11283.242   -9588.2236 
   77200    323.28787    -11232.01    55.892265   -11287.903   -1951.8503 
   77400     298.5634     -11235.9    51.617725   -11287.517   -7280.4956 
   77600    290.49503   -11243.089    50.222809   -11293.312    27148.733 
   77800    306.66221   -11226.299    53.017905   -11279.317   -17556.152 
   78000    279.99277   -11235.315    48.407106   -11283.723    -10584.67 
   78200    348.89951   -11213.354    60.320183   -11273.674   -36547.484 
   78400    255.58261   -11225.852    44.186907   -11270.039   -5405.1667 
   78600    259.09205   -11232.028    44.793642   -11276.822    672.97356 
   78800    351.98018   -11220.601    60.852791   -11281.453   -24248.914 
   79000    301.59912   -11237.586    52.142562   -11289.728   -29050.996 
   79200    303.55559   -11229.123     52.48081   -11281.604   -24389.037 
   79400    317.14722   -11218.073    54.830627   -11272.904    28497.631 
   79600    263.76314   -11234.567    45.601214   -11280.168   -10788.698 
   79800    306.58255   -11232.678    53.004132   -11285.682   -21654.889 
   80000     286.9808   -11216.892    49.615245   -11266.508    74137.912 
   80200    343.59423   -11210.111     59.40297   -11269.514    6676.3088 
   80400    323.52131   -11232.355    55.932622   -11288.288   -65499.322 
   80600     282.6761   -11232.812    48.871018   -11281.683   -12744.059 
   80800    302.53767   -11225.426    52.304825   -11277.731    29049.493 
   81000     291.2442   -11236.724    50.352331   -11287.076   -34350.538 
   81200    316.25235   -11228.425    54.675914   -11283.101   -7567.4988 
   81400    300.17972   -11228.084    51.897166   -11279.981   -24730.444 
   81600    258.32309   -11242.524      44.6607   -11287.185   -11204.243 
   81800    297.47071    -11226.73    51.428813   -11278.159   -15575.487 
   82000    280.50638   -11235.508    48.495903   -11284.003    9321.9565 
   82200    265.99371   -11243.785     45.98685   -11289.772   -15972.138 
   82400    316.52761   -11224.997    54.723504    -11279.72   -72059.342 
   82600    280.26756    -11237.18    48.454613   -11285.635   -19787.041 
   82800    331.82966   -11223.524    57.369028   -11280.893    6058.6408 
   83000    280.73329   -11227.334    48.535131   -11275.869   -50375.565 
   83200    295.66662   -11233.232     51.11691   -11284.349   -27055.437 
   83400    325.08908   -11219.641    56.203671   -11275.844   -28767.548 
   83600    332.62695    -11208.53     57.50687   -11266.037    33962.934 
   83800    315.73511   -11230.501    54.586491   -11285.088   -54995.711 
   84000    293.59063   -11237.337    50.757999   -11288.095    7103.0339 
   84200    311.22773   -11233.595    53.807223   -11287.402   -6679.0293 
   84400    304.90423   -11218.106    52.713973    -11270.82    17747.589 
   84600    283.06733   -11235.146    48.938656   -11284.085   -29036.542 
   84800    291.83154   -11232.012    50.453874   -11282.466    61335.374 
   85000    345.44714   -11214.323    59.723313   -11274.047    1236.8764 
   85200    271.23304   -11223.049    46.892662   -11269.942   -27000.004 
   85400    321.32873   -11231.494    55.553555   -11287.047    5047.2415 
   85600    218.02955   -11251.024    37.694471   -11288.718    45804.367 
   85800     282.8232   -11240.298     48.89645   -11289.194    58972.101 
   86000     359.8812   -11226.553    62.218776   -11288.772    20075.047 
   86200    259.12492   -11237.578    44.799326   -11282.377     27981.93 
   86400    245.83619    -11241.59    42.501877   -11284.092   -6516.9922 
   86600    300.37128   -11231.135    51.930284   -11283.065    69957.493 
   86800    319.15619   -11224.049    55.177951   -11279.227   -72589.212 
   87000    271.55977   -11242.771    46.949149    -11289.72   -42004.437 
   87200    372.79675   -11230.455    64.451706   -11294.907    76179.857 
   87400    348.75175    -11228.32    60.294639   -11288.614    32590.899 
   87600    256.15466   -11231.414    44.285807     -11275.7    11305.058 
   87800    293.70459   -11232.082    50.777701    -11282.86   -28597.622 
   88000    365.57654   -11218.965    63.203425   -11282.168   -25852.653 
   88200    301.88209   -11234.339    52.191484    -11286.53    34711.265 
   88400    306.34132   -11231.578    52.962427   -11284.541   -24955.943 
   88600    257.45979   -11219.323    44.511447   -11263.835    30690.701 
   88800      352.358   -11228.209    60.918112   -11289.127    14316.514 
   89000     310.1611   -11233.401    53.622817   -11287.024   -43943.855 
   89200     316.3523   -11217.829    54.693194   -11272.522   -24266.489 
   89400    279.16484    -11230.39    48.263968   -11278.654   -85874.735 
   89600    296.72535   -11230.891     51.29995   -11282.191   -26494.997 
   89800    330.06892   -11220.111     57.06462   -11277.175    -84045.57 
   90000    258.38001   -11237.253     44.67054   -11281.923   -34322.125 
   90200     327.5166   -11224.318    56.623356   -11280.941    4041.3935 
   90400    292.83931   -11224.015    50.628105   -11274.643    6209.4902 
   90600    271.44276   -11238.208     46.92892   -11285.137    51558.235 
   90800    242.77466    -11224.44    41.972578   -11266.412    58808.675 
   91000    346.41915   -11221.746    59.891362   -11281.638   -19876.716 
   91200    276.56518   -11238.495    47.814519   -11286.309   -60309.213 
   91400    293.93845   -11233.742    50.818131    -11284.56   -36151.586 
   91600    282.60926   -11221.191    48.859463    -11270.05    -59823.98 
   91800    230.77839   -11230.188     39.89858   -11270.086   -11062.685 
   92000    282.21199   -11238.281    48.790779   -11287.072    15188.513 
   92200    290.62173   -11235.799    50.244715   -11286.043   -12053.102 
   92400    290.54815   -11218.779    50.231993   -11269.011   -30909.478 
   92600    294.58073   -11229.357    50.929173   -11280.286    62809.327 
   92800    324.49889   -11235.687    56.101635   -11291.788   -10902.923 
   93000    291.97193   -11222.133    50.478146   -11272.611   -16173.375 
   93200    349.23496   -11211.521    60.378179   -11271.899   -21171.777 
   93400    294.66835   -11230.747    50.944322   -11281.692   -21295.345 
   93600    291.81651   -11225.518    50.451276   -11275.969   -14822.039 
   93800    289.47987   -11218.742    50.047301   -11268.789   -26702.975 
   94000    292.22263   -11232.621    50.521488   -11283.142   -18322.016 
   94200     287.8006    -11226.58    49.756978   -11276.337   -38915.079 
   94400    230.09486   -11245.035    39.780406   -11284.815   -38221.021 
   94600    285.04779   -11229.796    49.281052   -11279.077    6950.0163 
   94800    326.55975   -11227.874     56.45793   -11284.332   -14075.056 
   95000    291.22214   -11224.566    50.348517   -11274.914    7562.1132 
   95200    305.05278   -11226.305    52.739654   -11279.045    8818.4479 
   95400    264.30543   -11238.315    45.694969    -11284.01   -49997.592 
   95600    286.64528   -11224.531    49.557238   -11274.088    58546.198 
   95800    299.82229   -11230.137    51.835371   -11281.972   -31125.767 
   96000    282.78447   -11243.574    48.889753   -11292.464   -7983.3018 
   96200    287.55286   -11246.435    49.714146    -11296.15    1420.4445 
   96400    343.99714    -11231.26    59.472627   -11290.733    30541.295 
   96600    313.72965   -11235.229    54.239772   -11289.469    -46539.08 
   96800    330.24468    -11214.68    57.095007   -11271.775   -9945.0433 
   97000    305.19443   -11231.238    52.764144   -11284.002   -24858.053 
   97200    308.22677   -11230.983    53.288396   -11284.271    29442.861 
   97400    287.97637   -11228.349    49.787365   -11278.136    15214.342 
   97600    277.09092   -11235.792    47.905413   -11283.698   -62424.334 
   97800    320.65384    -11228.03    55.436875   -11283.466    18835.268 
   98000    285.11783   -11223.452    49.293161   -11272.745    38732.428 
   98200    244.22609   -11240.144    42.223512   -11282.368    47053.579 
   98400    269.97451   -11228.786    46.675079   -11275.461    35097.953 
   98600    279.65926   -11229.213    48.349446   -11277.563    30153.835 
   98800    251.10955   -11241.309    43.413572   -11284.722    68880.785 
   99000    327.00742   -11222.211    56.535327   -11278.746    7182.9746 
   99200    284.18684   -11232.272    49.132205   -11281.404   -1622.4902 
   99400    272.56947   -11234.842    47.123713   -11281.966    15482.581 
   99600    293.92512   -11232.059    50.815827   -11282.874   -19412.943 
   99800     363.6111   -11210.967    62.863625   -11273.831   -55706.255 
  100000    303.34245   -11229.339    52.443961   -11281.783    18623.136 
  100200    261.56415   -11234.939    45.221037    -11280.16    29514.476 
  100400    314.12537   -11220.037    54.308187   -11274.345    53035.094 
  100600    298.53439   -11225.882     51.61271   -11277.494    13179.459 
  100800    256.89092   -11232.244    44.413097   -11276.657   -1486.6988 
  101000    268.32289   -11227.596    46.389535   -11273.986    3258.9359 
  101200    247.39382   -11242.061    42.771171   -11284.832    53053.933 
  101400    302.15569   -11232.673    52.238785   -11284.912   -18470.324 
  101600    364.73448   -11227.273    63.057844   -11290.331    3068.5875 
  101800    345.08163   -11217.068    59.660121   -11276.728    10669.353 
  102000    302.79651   -11233.456    52.349575   -11285.805   -30441.998 
  102200    321.33255   -11221.645    55.554215   -11277.199   -31898.782 
  102400    288.10864   -11220.347    49.810233   -11270.158    50235.229 
  102600    292.69591   -11232.348    50.603312   -11282.951   -2448.0962 
  102800    274.66249   -11234.373     47.48557   -11281.859    12052.549 
  103000    361.00055   -11219.918    62.412296    -11282.33    20550.042 
  103200    354.75106   -11218.027     61.33184   -11279.359   -28242.071 
  103400     315.0446   -11232.787    54.467111   -11287.254    18230.987 
  103600    246.63805   -11246.346    42.640509   -11288.987   -28420.163 
  103800    320.86338   -11227.133    55.473102   -11282.607    24164.114 
  104000    337.32257   -11220.302    58.318681    -11278.62    37228.364 
  104200     275.7355   -11238.861     47.67108   -11286.532    32727.365 
  104400    247.68599   -11237.389    42.821683   -11280.211    3151.3771 
  104600    302.73839   -11231.206    52.339527   -11283.545   -58902.347 
  104800    324.63564    -11223.38    56.125276   -11279.505   -87412.301 
  105000    269.98843   -11238.934    46.677485   -11285.611    22920.087 
  105200    313.46872   -11228.448    54.194662   -11282.642      62303.1 
  105400    259.02849   -11231.531    44.782653   -11276.313    5394.9662 
  105600    348.54824    -11232.22    60.259453    -11292.48    37180.284 
  105800    295.32623   -11227.051    51.058061   -11278.109   -10539.024 
  106000     339.7283   -11210.951    58.734601   -11269.686    92561.106 
  106200    267.49361   -11230.881    46.246163   -11277.127    90559.602 
  106400    269.08773   -11228.436    46.521766   -11274.958   -25431.793 
  106600     333.4775   -11225.316    57.653919    -11282.97    26725.296 
  106800    228.90665   -11241.377     39.57498   -11280.952   -5979.6904 
  107000    282.47295   -11226.082    48.835895   -11274.918    8119.6502 
  107200    330.34844   -11224.497    57.112946   -11281.609    6016.5788 
  107400    288.13275   -11239.749    49.814402   -11289.564   -22845.216 
  107600    303.20443   -11226.178      52.4201   -11278.599   -33636.727 
  107800    265.26131   -11237.815    45.860228   -11283.676   -42199.268 
  108000    224.81395   -11243.281    38.867406   -11282.149    2424.7786 
  108200    271.43129    -11230.68    46.926937   -11277.607    9036.3567 
  108400    306.84256    -11222.33    53.049084   -11275.379   -16035.708 
  108600    267.33508   -11238.886    46.218756   -11285.105   -66324.858 
  108800    267.55073   -11233.719    46.256038   -11279.975   -22295.041 
  109000    298.08209   -11222.655    51.534514    -11274.19   -55809.222 
  109200     299.3009   -11232.637    51.745229   -11284.382   -20538.039 
  109400    258.44509   -11242.971    44.681792   -11287.653     -24145.2 
  109600    314.85512   -11228.172    54.434353   -11282.607   -24370.145 
  109800    318.41679   -11235.287    55.050118   -11290.337    1773.5469 
  110000    251.65867   -11248.581    43.508508    -11292.09   -23360.088 
  110200    278.20665   -11234.932    48.098309   -11283.031   -55689.201 
  110400    298.00096   -11222.919    51.520487   -11274.439    -299.6098 
  110600    299.92811   -11242.497    51.853666   -11294.351    20909.785 
  110800     297.9319   -11236.669    51.508548   -11288.177   -32163.232 
  111000    290.89822   -11224.245    50.292515   -11274.537   -13843.798 
  111200    271.64482   -11232.717    46.963853   -11279.681    28856.364 
  111400    254.17298   -11244.287    43.943199   -11288.231     21055.42 
  111600    342.87042   -11229.808    59.277833   -11289.086   -3446.3082 
  111800    344.38904   -11222.075    59.540383   -11281.616    14293.217 
  112000    298.23533   -11236.914    51.561007   -11288.475   -25538.313 
  112200    297.32148    -11234.01    51.403013   -11285.413    8413.3711 
  112400    322.14787   -11224.287    55.695173   -11279.982    8285.1103 
  112600    331.48594   -11231.632    57.309605   -11288.942   -44842.346 
  112800    269.37043   -11233.094    46.570641   -11279.665   -94309.869 
  113000    354.26173   -11212.086    61.247241   -11273.334    10944.962 
  113200    316.82832   -11228.782    54.775493   -11283.557   -10023.053 
  113400    299.51772   -11226.665    51.782715   -11278.448    29570.995 
  113600    312.00827   -11212.986    53.942168   -11266.928    97757.526 
  113800    335.71945   -11231.148    58.041523    -11289.19    15184.636 
  114000    294.50135   -11236.073     50.91545   -11286.989   -14698.623 
  114200    364.93747   -11217.566    63.092938   -11280.659   -27480.693 
  114400    284.90379   -11227.626    49.256157   -11276.882   -54598.296 
  114600    282.56333   -11232.339    48.851522   -11281.191    20856.985 
  114800    285.07937    -11228.69    49.286512   -11277.977    5827.0508 
  115000     344.6315   -11214.212    59.582301   -11273.795   -37514.786 
  115200    277.59563   -11230.021     47.99267   -11278.014   -8884.4834 
  115400    305.21435   -11227.307    52.767588   -11280.075   -17669.856 
  115600    266.45181   -11235.446    46.066049   -11281.512   -22932.454 
  115800    279.67298   -11235.278    48.351817    -11283.63    14399.071 
  116000    328.93888     -11223.8     56.86925    -11280.67   -40963.693 
  116200    314.27633   -11230.886    54.334286    -11285.22    57637.164 
  116400    229.45671    -11243.06    39.670078    -11282.73   -28784.975 
  116600    296.77534   -11224.714    51.308593   -11276.023    22883.427 
  116800    275.13467   -11232.908    47.567202   -11280.475    -3121.545 
  117000    257.95933   -11242.883    44.597811   -11287.481    -18125.38 
  117200    340.21058   -11221.701    58.817981   -11280.519   -71582.444 
  117400    283.31788   -11236.268    48.981974    -11285.25    13238.021 
  117600    315.05819   -11227.977    54.469461   -11282.446   -48284.628 
  117800    311.20003   -11219.153    53.802435   -11272.955    33484.449 
  118000    308.80456   -11234.538    53.388288   -11287.927   -46211.276 
  118200    317.66163   -11223.678     54.91956   -11278.598   -79918.134 
  118400    307.57019   -11226.301    53.174882   -11279.476    68054.103 
  118600    287.52548   -11242.955    49.709412   -11292.665    44012.529 
  118800    298.97399   -11227.684    51.688711   -11279.373    73406.233 
  119000     305.9703   -11230.072    52.898282    -11282.97   -32988.432 
  119200    236.25502   -11251.358    40.845417   -11292.203   -26117.367 
  119400    333.71563   -11230.207    57.695089   -11287.903   -50499.665 
  119600    361.86741   -11223.446    62.562166   -11286.009   -12922.246 
  119800    276.01526   -11240.764    47.719446   -11288.483    6094.8486 
  120000    281.13816   -11227.995    48.605129     -11276.6    20291.217 
  120200    309.69511   -11224.506    53.542254   -11278.048   -53311.165 
  120400    272.41551   -11238.899    47.097095   -11285.996     28277.95 
  120600    321.36527   -11224.922    55.559871   -11280.482    -47319.09 
  120800    314.65825   -11230.075    54.400315   -11284.475    17661.431 
  121000    292.70594   -11237.943    50.605046   -11288.548    62253.087 
  121200    287.14507   -11218.304    49.643645   -11267.948   -49871.504 
  121400    269.41295   -11234.105    46.577992   -11280.683   -44071.004 
  121600    283.09805     -11234.9    48.943968   -11283.844   -5948.1241 
  121800    332.17784   -11217.353    57.429224   -11274.782    2225.4503 
  122000    286.86368   -11227.212    49.594996   -11276.807    51139.649 
  122200    309.61438   -11229.633    53.528297   -11283.161   -9870.2138 
  122400    315.43153   -11220.626    54.534005    -11275.16   -51470.084 
  122600    269.38082   -11229.088    46.572438   -11275.661    59558.051 
  122800    306.87049   -11240.909    53.053912   -11293.963   -63989.361 
  123000    253.08587   -11235.715    43.755252    -11279.47    3637.4251 
  123200    303.01904   -11221.918    52.388047   -11274.306   -8493.0711 
  123400    306.27586   -11238.635    52.951109   -11291.587    8940.0143 
  123600    279.63876   -11237.592    48.345901   -11285.938    33415.911 
  123800    296.21511   -11225.365    51.211737   -11276.577   -16952.464 
  124000    309.83745   -11230.123    53.566862    -11283.69     17023.07 
  124200    264.88717   -11235.931    45.795544   -11281.727   -29193.683 
  124400    336.37082   -11218.516    58.154137    -11276.67   -5472.5876 
  124600    289.93678   -11228.295    50.126295   -11278.421   -20374.691 
  124800    244.59205   -11239.914    42.286781     -11282.2    6508.2814 
  125000    334.84786   -11217.188    57.890837   -11275.079   -75753.635 
  125200    278.08399   -11228.702    48.077101   -11276.779    29212.606 
  125400    333.82407   -11227.764    57.713837   -11285.478    70279.744 
  125600    331.67643   -11224.183    57.342536   -11281.526    22470.466 
  125800    311.17119    -11235.59    53.797447   -11289.388   -889.76201 
  126000    353.40039   -11220.866    61.098328   -11281.964    12694.547 
  126200    259.78438   -11234.886    44.913338   -11279.799    37426.004 
  126400    301.53642   -11233.618    52.131722   -11285.749    26759.634 
  126600     336.9406   -11221.572    58.252644   -11279.824    48868.168 
  126800    252.68371   -11242.474    43.685724   -11286.159    5510.4281 
  127000    315.38652   -11228.762    54.526225   -11283.288   -2932.1358 
  127200     333.8149   -11219.786    57.712251   -11277.498    18309.474 
  127400    284.27097   -11241.798     49.14675   -11290.945   -8413.1781 
  127600    320.96656   -11233.444     55.49094   -11288.935   -41258.509 
  127800    355.85777   -11222.926    61.523176   -11284.449   -31954.233 
  128000    367.54291   -11221.161    63.543385   -11284.704    94186.493 
  128200    295.72946   -11239.097    51.127774   -11290.225    30368.872 
  128400    313.34688   -11224.935    54.173597   -11279.109    41844.568 
  128600    317.13789   -11226.165    54.829013   -11280.994   -21489.407 
  128800    286.65807   -11233.749     49.55945   -11283.309    7938.3095 
  129000    274.14266   -11228.324    47.395698    -11275.72    14444.741 
  129200    319.09702   -11225.526    55.167722   -11280.694    42902.868 
  129400    322.96799    -11225.43    55.836962   -11281.267    6095.8296 
  129600    256.42692     -11241.5    44.332876   -11285.833    88513.898 
  129800    295.66645   -11227.048    51.116881   -11278.165   -14228.792 
  130000    322.05418   -11230.442    55.678976   -11286.121   -68773.315 
  130200    270.01875   -11236.569    46.682727   -11283.252    -29648.69 
  130400    301.69773   -11216.264    52.159611   -11268.423   -2666.8917 
  130600    294.49212   -11231.423    50.913854   -11282.337    34496.497 
  130800    313.14746   -11234.892     54.13912   -11289.031   -22611.513 
  131000    359.62925   -11213.593    62.175216   -11275.768    -21247.45 
  131200    313.94378   -11228.922    54.276794   -11283.199   -38497.573 
  131400    310.80679   -11228.734    53.734449   -11282.469   -53725.274 
  131600    301.38615   -11208.765    52.105742   -11260.871   -1442.5175 
  131800    323.32844   -11227.795    55.899278   -11283.694   -27485.399 
  132000     348.7012   -11230.315    60.285899   -11290.601   -64729.063 
  132200    346.25888   -11208.928    59.863653   -11268.792   -2899.2956 
  132400    265.44267   -11229.042    45.891582   -11274.934    35481.592 
  132600    279.82149   -11229.847    48.377493   -11278.224   -1163.7062 
  132800    278.00113   -11233.173    48.062777   -11281.236   -66361.808 
  133000    269.86245    -11243.15    46.655705   -11289.806   -25733.775 
  133200     377.1403   -11222.809    65.202649   -11288.012   -7786.3364 
  133400    311.62417   -11228.416    53.875763   -11282.292   -20680.249 
  133600    271.39207   -11232.329    46.920156    -11279.25    43119.426 
  133800    347.66806   -11224.557    60.107281   -11284.665   -42873.096 
  134000    334.38187    -11214.67    57.810273    -11272.48     11566.04 
  134200    330.55578   -11228.493    57.148791   -11285.641     17170.36 
  134400    332.70343   -11230.765    57.520091   -11288.285    52632.357 
  134600    361.31139   -11210.284    62.466036    -11272.75    20623.716 
  134800    276.38635   -11235.265    47.783602   -11283.048    55237.684 
  135000    320.78277   -11225.632    55.459165   -11281.092   -61847.283 
  135200    306.88602   -11229.862    53.056599   -11282.918   -7819.0229 
  135400    271.89307   -11236.854    47.006772    -11283.86    46669.009 
  135600    342.92474   -11218.698    59.287224   -11277.985   -32045.568 
  135800    298.96007    -11233.48    51.686305   -11285.166    3405.0093 
  136000    361.32397   -11216.781    62.468211   -11279.249   -18218.943 
  136200    296.70335   -11225.779    51.296147   -11277.075    3671.1274 
  136400    287.67436   -11234.484    49.735152   -11284.219    47342.968 
  136600    348.65149   -11215.553    60.277304   -11275.831    7782.7672 
  136800    341.07022   -11219.551    58.966601   -11278.517    42108.859 
  137000    294.48247   -11236.228    50.912185    -11287.14   -47205.425 
  137200    268.20114   -11234.119    46.368486   -11280.487   -44707.685 
  137400    331.60362   -11220.858    57.329949   -11278.188    -11691.26 
  137600    247.41403   -11236.613    42.774665   -11279.388   -62474.811 
  137800    249.96552   -11231.953    43.215785   -11275.169    -62199.71 
  138000    339.17275   -11224.737    58.638553   -11283.375    15398.005 
  138200    288.04337   -11233.556     49.79895   -11283.355    -22856.22 
  138400    248.04057   -11247.769    42.882986   -11290.652   -39539.769 
  138600    311.12963   -11230.632    53.790263   -11284.423    123.81099 
  138800    308.02573   -11230.476     53.25364    -11283.73   -25278.488 
  139000    272.05206   -11244.007    47.034261   -11291.041   -2398.9926 
  139200    322.70078   -11224.871    55.790764   -11280.662   -115.10002 
  139400    348.58471   -11232.495    60.265759    -11292.76   -8623.9558 
  139600    286.03166   -11237.408     49.45115   -11286.859    2928.1991 
  139800    317.13819   -11216.335    54.829065   -11271.164    29324.537 
  140000    324.94299   -11233.085    56.178414   -11289.264   -16576.777 
  140200     315.7031   -11236.837    54.580956   -11291.418    25123.462 
  140400    344.19095   -11218.712    59.506136   -11278.218   -33501.781 
  140600    323.17402   -11224.295    55.872582   -11280.168   -3939.9804 
  140800    245.55876    -11238.58    42.453913   -11281.033   -16291.443 
  141000    321.09715   -11231.751    55.513517   -11287.264   -61744.301 
  141200    314.67278   -11229.333    54.402828   -11283.736    19817.486 
  141400    279.93591   -11230.473    48.397275    -11278.87   -4149.9812 
  141600    377.87418   -11217.206    65.329526   -11282.535   -21471.655 
  141800    315.91322   -11234.741    54.617283   -11289.358    6620.0747 
  142000    264.91756   -11234.177    45.800798   -11279.978   -53486.627 
  142200    334.60447   -11224.786    57.848758   -11282.635   -1180.8119 
  142400    251.03287   -11241.234    43.400316   -11284.634    51731.653 
  142600    336.91194   -11229.339    58.247689   -11287.587    16165.446 
  142800    314.26707   -11229.517    54.332685    -11283.85    30557.405 
  143000     232.6651   -11245.823    40.224767   -11286.048    750.54296 
  143200    303.77587   -11231.441    52.518894   -11283.959    90984.976 
  143400    296.69566   -11229.295    51.294817   -11280.589   -101753.14 
  143600    273.39323   -11238.594     47.26613    -11285.86    65346.654 
  143800    327.42101    -11227.64     56.60683   -11284.247   -15273.983 
  144000    298.57485   -11223.265    51.619706   -11274.885      10524.7 
  144200    232.63291   -11238.673    40.219202   -11278.892   -26979.835 
  144400    341.02321     -11231.6    58.958474   -11290.559   -7767.2752 
  144600    365.91228   -11220.845     63.26147   -11284.106   -63841.337 
  144800    277.01842   -11235.857    47.892879    -11283.75    31320.384 
  145000     268.6516    -11234.78    46.446364   -11281.227   -16536.531 
  145200     331.4377   -11223.758    57.301263   -11281.059    40084.063 
  145400    312.80462   -11232.074    54.079847   -11286.153    21948.563 
  145600    247.66599   -11243.923    42.818226   -11286.741   -66014.376 
  145800    297.55379    -11234.42    51.443177   -11285.863    60405.598 
  146000    280.25543   -11224.224    48.452515   -11272.677   -34135.191 
  146200    253.80824   -11239.672    43.880141   -11283.553     114338.3 
  146400    277.78188   -11222.002    48.024872   -11270.027    56102.813 
  146600    293.01316   -11229.822    50.658162    -11280.48    33451.044 
  146800    290.42509   -11236.006    50.210717   -11286.217   -27079.352 
  147000    298.73049   -11216.391    51.646614   -11268.038   -8698.1001 
  147200    260.95077   -11233.233     45.11499   -11278.348    38320.316 
  147400    267.84422   -11236.213    46.306778    -11282.52   -54627.554 
  147600    319.05879   -11215.546    55.161111   -11270.708    32292.176 
  147800    260.15171   -11231.585    44.976844   -11276.562    68550.019 
  148000     275.3577    -11230.75    47.605761   -11278.355   -29236.722 
  148200    346.35045   -11221.381    59.879484   -11281.261    33850.441 
  148400    367.15537     -11213.6    63.476383   -11277.076    53087.407 
  148600    298.83568   -11233.329    51.664799   -11284.994   -49921.293 
  148800    371.89468   -11225.023    64.295749   -11289.319   -13206.399 
  149000    386.85629   -11222.645    66.882417   -11289.528    49828.874 
  149200    325.55541   -11230.647    56.284292   -11286.931   -35620.752 
  149400    302.13759   -11227.357    52.235656   -11279.593    74237.873 
  149600    359.61603   -11217.746     62.17293   -11279.919   -49827.073 
  149800    297.97134   -11235.548    51.515366   -11287.064    -57314.29 
  150000    317.24332   -11228.155     54.84724   -11283.002    40190.973 
  150200    361.45563   -11213.259    62.490973    -11275.75   -6305.2554 
  150400    280.63499   -11229.033    48.518137   -11277.551    6571.7548 
  150600    295.60956   -11236.628    51.107045   -11287.735   -10017.774 
  150800    253.94334   -11236.623    43.903497   -11280.526   -31319.356 
  151000    293.24348   -11219.374     50.69798   -11270.072   -26576.194 
  151200    293.22866    -11233.98    50.695419   -11284.676   -58632.489 
  151400    292.49469   -11235.181    50.568524    -11285.75     56762.14 
  151600    311.92112    -11225.79    53.927101   -11279.717   -55833.002 
  151800    299.22565   -11229.811    51.732221   -11281.543    37506.801 
  152000    314.39926   -11227.152     54.35554   -11281.507    -12218.82 
  152200    247.26116   -11242.087    42.748235   -11284.835   -3367.4185 
  152400    299.64295   -11231.857    51.804365   -11283.662   -10563.889 
  152600     284.4343   -11223.976    49.174989   -11273.151   -53553.885 
  152800    250.32394   -11236.485    43.277751   -11279.763   -51910.612 
  153000     233.8331   -11247.029      40.4267   -11287.456   -34158.891 
  153200     328.2863   -11226.176    56.756428   -11282.933     74824.86 
  153400    287.71866   -11235.568     49.74281   -11285.311   -41727.582 
  153600    305.49338   -11232.676    52.815829   -11285.492    54176.356 
  153800    287.94759    -11221.06     49.78239   -11270.842   -21201.257 
  154000    257.99662   -11235.917    44.604257   -11280.521     60025.48 
  154200    301.57723   -11230.428    52.138777   -11282.567   -3125.9511 
  154400    358.96635   -11218.511     62.06061   -11280.572    33428.238 
  154600    336.30024   -11221.506    58.141934   -11279.648    62648.238 
  154800    313.42646   -11236.118    54.187355   -11290.306     -1285.74 
  155000     321.8069   -11220.272    55.636223   -11275.908   -53154.164 
  155200    285.81703   -11221.456    49.414044    -11270.87    50117.142 
  155400    279.01584    -11233.37    48.238207   -11281.609    52312.084 
  155600    294.76721   -11236.761    50.961414   -11287.722    39961.206 
  155800    250.39542    -11245.49    43.290108    -11288.78   -16427.212 
  156000    311.37287   -11226.993    53.832315   -11280.826    8197.8267 
  156200    270.27329   -11227.253    46.726733    -11273.98    41412.942 
  156400    267.99404   -11240.521     46.33268   -11286.854   -38201.207 
  156600    304.36679   -11228.053    52.621056   -11280.675    4938.8182 
  156800    332.68142   -11222.055    57.516286   -11279.571     61311.92 
  157000    240.28882   -11237.301    41.542809   -11278.844   -32798.179 
  157200    354.65639   -11220.268    61.315473   -11281.583    24691.905 
  157400    324.16037   -11221.175    56.043108   -11277.218   -4232.5878 
  157600    260.02301   -11234.265    44.954595   -11279.219    -39426.21 
  157800    298.99653   -11222.444    51.692607   -11274.137   -7009.0731 
  158000    304.56403   -11222.402    52.655157   -11275.058   -20407.474 
  158200    294.50601   -11229.613    50.916256   -11280.529    42884.148 
  158400     308.2069   -11230.912    53.284962   -11284.197    913.35827 
  158600    300.16425   -11224.958    51.894492   -11276.852   -47572.871 
  158800    284.87186   -11239.988    49.250636   -11289.239   -1923.2057 
  159000    334.82549   -11222.485    57.886969   -11280.371   -6622.7359 
  159200    281.47083   -11222.885    48.662643   -11271.547    36155.323 
  159400    233.97343   -11238.547    40.450961   -11278.998     4091.364 
  159600    279.07351   -11231.695    48.248177   -11279.943   -32074.114 
  159800    253.80164   -11223.128       43.879   -11267.007   -34996.329 
  160000    217.38586   -11244.061    37.583186   -11281.644   -16633.978 
  160200    307.40657   -11227.451    53.146594   -11280.598   -25925.284 
  160400    307.38695   -11231.124    53.143202   -11284.267    1086.1459 
  160600     217.6504   -11247.901    37.628921    -11285.53   -12458.525 
  160800    260.84018   -11231.831    45.095872   -11276.927   -91126.467 
  161000    290.77247   -11228.143    50.270775   -11278.414   -9551.0326 
  161200    243.54706    -11247.14    42.106116   -11289.247    -49306.21 
  161400    301.25774   -11231.614    52.083542   -11283.697    17151.287 
  161600    303.89267   -11225.259    52.539087   -11277.798    50668.122 
  161800    302.05123   -11223.297    52.220726   -11275.517   -40768.073 
  162000    221.94137    -11241.22    38.370774   -11279.591    -7869.834 
  162200    262.73195   -11228.159    45.422934   -11273.582    39757.305 
  162400    303.55724   -11225.347    52.481095   -11277.829    39091.111 
  162600    339.28708   -11232.975     58.65832   -11291.633   -47570.187 
  162800    241.93764   -11243.262    41.827869    -11285.09   -36395.452 
  163000    303.53239   -11226.061    52.476799   -11278.538   -45887.361 
  163200    346.60272   -11223.557    59.923098    -11283.48   -20192.455 
  163400    261.36769   -11239.188    45.187071   -11284.375   -13201.477 
  163600    300.62281   -11235.044     51.97377   -11287.017   -14635.442 
  163800    317.16343    -11224.31    54.833428   -11279.143   -51560.102 
  164000     277.6843   -11234.357    48.008001   -11282.365   -39070.728 
  164200    249.49977   -11246.415    43.135263   -11289.551   -48659.248 
  164400    267.15999   -11230.688    46.188484   -11276.877    62879.127 
  164600    333.74874   -11221.832    57.700813   -11279.533   -6853.7309 
  164800    274.58909     -11239.9    47.472879   -11287.373    18691.952 
  165000    296.29721   -11234.111    51.225931   -11285.337   -7941.3305 
  165200    297.17612   -11229.679    51.377883   -11281.057   -55529.547 
  165400    289.74948   -11228.113    50.093914   -11278.207   -58479.886 
  165600    301.91498   -11229.996    52.197169   -11282.193    19674.785 
  165800    323.92244   -11225.051    56.001973   -11281.053   -27516.527 
  166000    278.33787   -11224.754    48.120994   -11272.875   -13085.348 
  166200     291.2784     -11240.2    50.358244   -11290.559   -5032.6082 
  166400    311.21171   -11219.503    53.804453   -11273.307    5518.5006 
  166600    312.97173   -11224.918    54.108738   -11279.027    38079.797 
  166800    306.44785   -11237.147    52.980845   -11290.128    56.895471 
  167000    317.72232   -11231.453    54.930054   -11286.383   -16017.665 
  167200    331.04743   -11218.218    57.233791   -11275.452   -3776.0066 
  167400    260.65817    -11234.46    45.064404   -11279.524    14618.973 
  167600    329.84085   -11223.092     57.02519   -11280.117    41343.544 
  167800    326.46993    -11216.04    56.442401   -11272.482    85021.642 
  168000    305.75942   -11235.256    52.861823   -11288.118   -12543.797 
  168200    349.25944   -11223.273    60.382411   -11283.655   -1387.9038 
  168400    299.98437   -11224.195    51.863393   -11276.059   -1903.7105 
  168600    276.11607   -11240.285    47.736874   -11288.021   -17236.781 
  168800    297.47984   -11225.709    51.430392    -11277.14   -23954.293 
  169000    286.44768   -11237.286    49.523076   -11286.809   -33089.667 
  169200    257.63181   -11238.115    44.541186   -11282.656   -17824.115 
  169400    275.29338     -11225.7    47.594641   -11273.295   -2768.0858 
  169600    274.50034   -11235.082    47.457535   -11282.539    7364.4157 
  169800      243.308   -11242.362    42.064785   -11284.427   -5839.6276 
  170000    278.60792   -11232.899    48.167682   -11281.067   -4911.5732 
  170200    316.00062   -11221.231    54.632395   -11275.864   -7786.4206 
  170400     278.9753    -11235.49    48.231198   -11283.721    3095.2736 
  170600     278.8519   -11234.826    48.209863   -11283.035    68896.006 
  170800    298.03876   -11228.135    51.527022   -11279.662   -28661.877 
  171000    315.67336   -11232.526    54.575815   -11287.102    77045.117 
  171200     304.1371   -11241.913    52.581346   -11294.495   -24829.785 
  171400    330.00413   -11230.254    57.053419   -11287.308   -5440.8372 
  171600    332.21316   -11223.392     57.43533   -11280.827   -67756.298 
  171800     316.5453   -11230.844    54.726562   -11285.571   -34192.154 
  172000    277.95697   -11236.023    48.055143   -11284.078    43539.173 
  172200    341.49935   -11217.274    59.040793   -11276.315    13171.053 
  172400     302.2511   -11235.534    52.255281   -11287.789    18385.715 
  172600    338.37785   -11234.688    58.501126   -11293.189    15065.274 
  172800    303.76744   -11226.498    52.517436   -11279.015   -60458.461 
  173000    268.53881   -11234.362    46.426864   -11280.789    10746.921 
  173200    299.63582    -11231.77    51.803133   -11283.573   -57325.144 
  173400    391.60826   -11217.614     67.70397   -11285.318    12816.281 
  173600    286.44685   -11238.563    49.522932   -11288.085   -36766.773 
  173800    275.25219   -11232.753     47.58752   -11280.341    36034.928 
  174000    308.91197   -11233.116    53.406858   -11286.523    8289.7262 
  174200    261.94504   -11245.397    45.286888   -11290.684    28350.219 
  174400    334.83532   -11230.558    57.888668   -11288.447    11983.998 
  174600    351.03677   -11228.086    60.689687   -11288.775    11656.243 
  174800    231.01828   -11244.742    39.940053   -11284.682    -21013.24 
  175000    297.10686   -11229.549    51.365909   -11280.915    23968.234 
  175200    302.10533   -11223.527    52.230079   -11275.757    -44182.16 
  175400    276.22789   -11244.119    47.756207   -11291.875   -30333.922 
  175600    284.93905    -11232.44    49.262253   -11281.703   -17961.388 
  175800    305.51807   -11228.825    52.820097   -11281.645    99003.125 
  176000    224.74865   -11247.986    38.856115   -11286.842    62909.251 
  176200    301.07419   -11232.891    52.051808   -11284.943   -50651.656 
  176400    312.42975   -11228.051    54.015038   -11282.066    14780.972 
  176600    295.77644   -11237.066    51.135896   -11288.202    52459.168 
  176800    273.81575   -11229.618    47.339179   -11276.957   -23797.397 
  177000    334.37167   -11223.791    57.808509     -11281.6   -2783.7049 
  177200    275.58731   -11238.769    47.645459   -11286.415    -29415.11 
  177400    334.88459   -11228.057    57.897186   -11285.954    43037.763 
  177600    342.64368   -11220.805    59.238632   -11280.044   -13193.007 
  177800    274.03941   -11239.523    47.377847   -11286.901    9814.9736 
[...]
  950000      271.471   -11237.235    46.933803   -11284.169    4416.6222 
  950200    270.16006   -11241.711    46.707157   -11288.418    34858.888 
  950400    345.43951   -11220.495    59.721995   -11280.217   -41599.254 
  950600    268.87305   -11231.331    46.484651   -11277.816    -7686.494 
  950800    251.06494   -11245.992     43.40586   -11289.397    690.41116 
  951000     282.5814   -11230.152    48.854645   -11279.007   -18219.431 
  951200    330.44583   -11224.296    57.129783   -11281.426   -47606.216 
  951400    318.21966   -11232.142    55.016037   -11287.158    7515.9407 
  951600    306.69997   -11224.376    53.024432     -11277.4   -13316.046 
  951800    291.89629   -11240.923    50.465069   -11291.388   -1569.9996 
  952000    294.87584   -11231.131    50.980194   -11282.111    -44182.44 
  952200    300.64658    -11224.01     51.97788   -11275.988    19325.526 
  952400    248.80797   -11235.576     43.01566   -11278.591    5483.3551 
  952600    305.07534   -11229.152    52.743556   -11281.895    56948.758 
  952800     355.9691   -11223.052    61.542423   -11284.594    10134.804 
  953000     288.8454   -11236.024     49.93761   -11285.962    2274.8016 
  953200     302.4127   -11226.559     52.28322   -11278.842   -7493.0961 
  953400      297.988   -11214.208    51.518246   -11265.726    37071.364 
  953600    266.25199   -11233.559    46.031503    -11279.59    16010.245 
  953800    305.85031   -11227.305    52.877537   -11280.183   -28469.464 
  954000    258.19453   -11236.759    44.638473   -11281.397    45476.238 
  954200    233.95063   -11256.202    40.447018   -11296.649   -25317.251 
  954400    276.56327   -11235.355     47.81419   -11283.169   -9584.6437 
  954600    308.46732   -11224.629    53.329984   -11277.959    1726.6151 
  954800    281.73096    -11243.84    48.707616   -11292.548    62491.048 
  955000    282.32811   -11238.455    48.810854   -11287.266    23575.554 
  955200    295.60057   -11226.011    51.105492   -11277.116    59311.573 
  955400    322.87479   -11227.238    55.820847   -11283.059   -7124.2107 
  955600     247.3425   -11242.371    42.762298   -11285.133   -21403.257 
  955800    371.14914    -11230.49    64.166856   -11294.657   -50523.884 
  956000    300.91522    -11224.39    52.024325   -11276.414    63304.762 
  956200    310.54207   -11218.276    53.688682   -11271.964    33334.925 
  956400    292.14449   -11234.046     50.50798   -11284.554    1820.5827 
  956600    291.37409   -11239.333    50.374787   -11289.708   -6715.7236 
  956800    299.60339   -11218.699    51.797526   -11270.497    132118.91 
  957000     300.6277   -11223.342    51.974615   -11275.316    37100.266 
  957200     240.9535   -11242.368    41.657724   -11284.026   -6290.7252 
  957400    271.54091   -11232.068    46.945889   -11279.014    79489.294 
  957600    306.80441   -11232.407     53.04249    -11285.45   -31536.466 
  957800    311.19158   -11227.614    53.800973   -11281.415    16646.862 
  958000    356.10394   -11224.009    61.565735   -11285.575   -42395.965 
  958200    279.67386   -11241.684     48.35197   -11290.036   -49003.635 
  958400    286.99846   -11224.945    49.618297   -11274.563    39455.421 
  958600    313.34636    -11222.59    54.173506   -11276.763   -24002.097 
  958800    323.71183    -11219.11    55.965562   -11275.076   -5841.3613 
  959000    269.27007   -11239.283    46.553289   -11285.836    -58906.81 
  959200    363.61434   -11225.782    62.864186   -11288.646   -19674.406 
  959400    301.74926   -11224.269    52.168518   -11276.438   -32974.025 
  959600     289.5642   -11230.512     50.06188   -11280.574   -53750.276 
  959800     293.7823   -11236.226    50.791135   -11287.017    1571.0065 
  960000    318.06276   -11234.131    54.988911    -11289.12   -55620.236 
  960200    347.58596   -11210.956    60.093087   -11271.049    8783.0056 
  960400    299.97987   -11220.577    51.862615   -11272.439   -34248.388 
  960600    267.73407   -11229.202    46.287736    -11275.49   -40661.083 
  960800     260.6534   -11244.773    45.063581   -11289.836    50379.374 
  961000    275.12347    -11233.95    47.565266   -11281.515    18198.384 
  961200    354.08665   -11224.559    61.216972   -11285.776    61224.673 
  961400    261.43109   -11243.108    45.198032   -11288.306    12305.207 
  961600    292.14353   -11236.569    50.507814   -11287.077   -9091.8427 
  961800    292.46214   -11229.306    50.562897   -11279.868   -46711.091 
  962000    282.40349   -11232.631    48.823887   -11281.455    36066.501 
  962200    275.49131   -11238.221    47.628861    -11285.85   -10554.781 
  962400     340.2072    -11235.17    58.817396   -11293.988   -28263.092 
  962600    333.75251   -11217.002    57.701465   -11274.703    -51446.76 
  962800    275.58312   -11235.544    47.644733   -11283.189   -31138.607 
  963000    228.91077   -11235.576    39.575692   -11275.152   -13817.095 
  963200    344.69861   -11221.655    59.593903   -11281.249   -24266.122 
  963400    253.34589    -11240.56    43.800207    -11284.36    3132.4611 
  963600    292.45535   -11222.953    50.561723   -11273.515    24056.498 
  963800    344.58186    -11219.42    59.573718   -11278.994    14780.154 
  964000    280.45517     -11238.4    48.487049   -11286.887    104134.63 
  964200     332.7575   -11226.723     57.52944   -11284.253   -52976.903 
  964400    324.61119   -11216.432    56.121049   -11272.553   -3053.1811 
  964600    280.66369   -11234.876    48.523099   -11283.399   -59645.309 
  964800    356.71685    -11225.94      61.6717   -11287.611   -66933.746 
  965000    298.74492   -11232.488    51.649108   -11284.137    -10246.22 
  965200    272.38053    -11236.52    47.091047   -11283.611   -61780.952 
  965400    323.76863   -11225.261    55.975382   -11281.236   -48734.953 
  965600    281.47269   -11238.358    48.662964   -11287.021    38356.758 
  965800    314.62906   -11238.652    54.395269   -11293.048   -42715.388 
  966000     332.1917    -11230.69     57.43162   -11288.122   -8785.9418 
  966200    273.93649   -11233.014    47.360054   -11280.374    -12233.41 
  966400    224.07228   -11243.201     38.73918    -11281.94   -9479.7586 
  966600    326.46845   -11225.681    56.442146   -11282.123   -27689.171 
  966800     293.3272   -11226.268    50.712455   -11276.981    52409.112 
  967000    287.65465   -11239.281    49.731745   -11289.013   -22268.185 
  967200     356.5385   -11213.734    61.640866   -11275.375    7364.0045 
  967400    266.85928    -11232.44    46.136496   -11278.577   -37276.573 
  967600    304.44473   -11238.074    52.634531   -11290.709    691.34502 
  967800    310.02524   -11220.543    53.599328   -11274.143   -7621.0826 
  968000    279.01584   -11228.095    48.238207   -11276.334   -21132.416 
  968200    284.28356   -11238.662    49.148927   -11287.811   -9675.3394 
  968400       306.95   -11224.215    53.067659   -11277.282   -44232.738 
  968600     297.2296   -11226.041    51.387128   -11277.428    10886.967 
  968800      279.573   -11245.388    48.334532   -11293.723   -29590.428 
  969000    338.67463   -11231.713    58.552436   -11290.265    -79930.14 
  969200     345.9455   -11226.506    59.809474   -11286.316    14583.154 
  969400    269.25329   -11233.845    46.550389   -11280.395    26220.251 
  969600     302.0795   -11226.548    52.225613   -11278.774   -33219.656 
  969800    316.85011    -11231.87     54.77926    -11286.65      16974.6 
  970000    275.12689   -11232.276    47.565858   -11279.841   -43912.412 
  970200    306.67227   -11219.823    53.019644   -11272.843    39261.102 
  970400    315.56353   -11230.696    54.556827   -11285.253   -5897.0915 
  970600    241.78842   -11244.953    41.802071   -11286.755     35531.93 
  970800    274.30843   -11240.836    47.424357   -11288.261   -18702.975 
  971000    280.35484   -11226.355    48.469703   -11274.824   -8347.8761 
  971200    263.42261   -11242.058     45.54234     -11287.6    9744.5157 
  971400    307.64519    -11235.35    53.187849   -11288.538   -22075.383 
  971600    238.10069   -11228.738     41.16451   -11269.903    64662.339 
  971800    338.98762   -11220.914    58.606547   -11279.521   -38724.638 
  972000     276.9318   -11242.144    47.877904   -11290.022   -1426.8697 
  972200    319.99633   -11232.568      55.3232   -11287.891    22924.762 
  972400    295.58793   -11229.698    51.103306   -11280.801   -32849.894 
  972600    229.61397    -11229.93    39.697266   -11269.627   -11303.848 
  972800    269.00276   -11230.092    46.507075   -11276.599     19300.87 
  973000    273.17557   -11242.613    47.228501   -11289.841   -33104.412 
  973200    316.73482   -11226.738    54.759327   -11281.498    33630.537 
  973400    287.94651   -11224.452    49.782203   -11274.234   -57777.199 
  973600    247.94515   -11247.808    42.866489   -11290.675    83198.113 
  973800    265.03999   -11239.562    45.821965   -11285.384    21985.193 
  974000     317.4945   -11226.763    54.890666   -11281.654    19643.017 
  974200    264.26719   -11232.509    45.688357   -11278.197   -1058.0887 
  974400    314.20692   -11235.865    54.322286   -11290.187   -11688.286 
  974600    378.40932   -11219.173    65.422045   -11284.595    64293.188 
  974800    272.58371    -11230.59    47.126175   -11277.716    -9661.112 
  975000    284.11043   -11226.317    49.118994   -11275.436    54846.726 
  975200    328.87387   -11226.296    56.858011   -11283.154   -68547.988 
  975400    296.19178    -11234.14    51.207703   -11285.348   -33544.013 
  975600    302.19114   -11226.362    52.244914   -11278.607    58782.303 
  975800    332.40524   -11221.534     57.46854   -11279.003    35850.236 
  976000    266.80451   -11230.951    46.127026   -11277.078    40245.534 
  976200      254.835   -11240.808    44.057654   -11284.866    56030.709 
  976400    301.02284   -11235.442     52.04293   -11287.485    13128.029 
  976600    304.16205   -11219.758    52.585658   -11272.344    55261.237 
  976800    309.41054   -11238.182    53.493054   -11291.675   -83799.091 
  977000    291.67699   -11232.816    50.427155   -11283.243    31535.228 
  977200    301.55854   -11230.794    52.135546    -11282.93     9256.037 
  977400    261.47021   -11251.991    45.204795   -11297.196   -14605.961 
  977600    276.18622   -11235.235    47.749003   -11282.984       4381.9 
  977800    301.54138   -11227.297     52.13258   -11279.429    -20023.51 
  978000    297.25994   -11233.954    51.392375   -11285.347   -81101.299 
  978200    308.19392   -11242.187    53.282716    -11295.47     72333.05 
  978400    328.43102   -11223.821    56.781448   -11280.603    50648.637 
  978600    343.03436   -11234.443    59.306175   -11293.749    7907.3694 
  978800    282.58977   -11234.931    48.856093   -11283.787    4083.7668 
  979000    316.53573   -11219.283    54.724907   -11274.008    17486.712 
  979200    299.96482   -11233.374    51.860012   -11285.234    -26296.11 
  979400     274.4448   -11240.516    47.447933   -11287.963   -7525.5189 
  979600    355.15724   -11218.549    61.402064   -11279.951     44785.28 
  979800     321.8828   -11234.416    55.649347   -11290.066   -36961.683 
  980000    314.89137   -11232.768    54.440619   -11287.208    62939.336 
  980200    356.65526   -11218.992    61.661052   -11280.654     17421.06 
  980400    257.78717     -11238.1    44.568046   -11282.668   -3759.4798 
  980600    319.94736   -11221.959    55.314734   -11277.274   -8581.0614 
  980800    287.59436   -11233.188    49.721322   -11282.909   -38084.372 
  981000    287.91733   -11235.841    49.777159   -11285.618   -54034.509 
  981200    287.29143   -11226.194    49.668948   -11275.863   -57509.144 
  981400    318.94802   -11224.557    55.141961   -11279.699   -83612.271 
  981600    284.02961   -11237.441    49.105022   -11286.546   -31099.811 
  981800     318.2578   -11223.259    55.022632   -11278.281   -24472.749 
  982000    393.03546   -11205.722    67.950715   -11273.672   -14870.398 
  982200    277.20606   -11229.075    47.925319   -11277.001    8050.3721 
  982400     301.9191   -11236.191    52.197882   -11288.389    3750.5771 
  982600    278.32797   -11239.513    48.119282   -11287.632    43298.163 
  982800    278.96903   -11224.132    48.230114   -11272.362   -26128.787 
  983000    318.52079   -11219.512    55.068098    -11274.58     -26361.6 
  983200    310.47769   -11233.494     53.67755   -11287.171    27157.283 
  983400    311.68175   -11220.796    53.885717   -11274.682   -19046.536 
  983600    262.98439   -11237.674    45.466577   -11283.141   -48225.852 
  983800     281.1517   -11226.927     48.60747   -11275.534    -35141.59 
  984000    329.05152   -11227.762    56.888724   -11284.651   -10854.859 
  984200     289.1663    -11235.42    49.993089   -11285.413    131430.97 
  984400    309.92924   -11219.547    53.582731    -11273.13    20276.308 
  984600    274.45815   -11240.996    47.450241   -11288.446    38911.686 
  984800    249.64409   -11231.004    43.160214   -11274.164   -37837.007 
  985000      335.286   -11221.205    57.966585   -11279.171   -15397.989 
  985200    264.88599   -11233.341     45.79534   -11279.136   -50936.409 
  985400    270.19606   -11234.597    46.713381   -11281.311   -21169.047 
  985600    324.79595   -11224.936    56.152992   -11281.089   -12178.302 
  985800     293.6331   -11236.618    50.765341   -11287.383   -27354.239 
  986000    282.92069   -11236.018    48.913304   -11284.931   -30870.359 
  986200    293.50074   -11216.599    50.742457   -11267.341    12150.021 
  986400    290.46762   -11230.594     50.21807   -11280.812    31880.257 
  986600    285.80297   -11231.463    49.411613   -11280.874    20485.777 
  986800    330.69151   -11229.339    57.172257   -11286.511    12660.446 
  987000    269.46363    -11247.59    46.586754   -11294.176   -5408.8217 
  987200    279.87044    -11232.79    48.385956   -11281.176    9649.4396 
  987400    271.47071   -11229.941    46.933753   -11276.874    12211.615 
  987600    273.33557   -11233.992    47.256162   -11281.248    41209.918 
  987800     235.3295   -11246.134    40.685407   -11286.819    42145.726 
  988000    304.64151   -11227.162    52.668552    -11279.83   -52024.113 
  988200    344.77889   -11223.053    59.607783   -11282.661   -30258.488 
  988400    251.80979   -11244.182    43.534635   -11287.716   -3755.1209 
  988600    312.13341   -11231.624    53.963803   -11285.588   -57429.228 
  988800    291.33802   -11227.518    50.368551   -11277.886    37683.777 
  989000    282.48325    -11236.47    48.837677   -11285.308    63699.464 
  989200    261.18215   -11236.412    45.154994   -11281.567   -23155.153 
  989400     310.6451   -11220.554    53.706495    -11274.26   -59514.903 
  989600    366.70518    -11214.65    63.398552   -11278.049     21356.75 
  989800    352.96383   -11229.291    61.022852   -11290.314    23509.212 
  990000    288.18704    -11241.47    49.823787   -11291.294   -276.61419 
  990200    342.31106   -11220.268    59.181126    -11279.45    32616.809 
  990400     293.9751   -11231.949    50.824468   -11282.774    6419.6704 
  990600    275.73718   -11245.187    47.671369   -11292.859    36790.784 
  990800    228.10859   -11246.691    39.437006   -11286.128    38453.283 
  991000    290.87446   -11231.844    50.288408   -11282.133   -14135.287 
  991200     313.2387   -11228.503    54.154893   -11282.658    50866.266 
  991400    263.51335   -11245.544    45.558027   -11291.102    36321.518 
  991600    263.47954   -11233.651    45.552183   -11279.203    4492.1621 
  991800    317.41832   -11231.888    54.877495   -11286.765    8908.5805 
  992000    261.84144   -11239.854    45.268976   -11285.123   -48496.246 
  992200     316.1826   -11220.324    54.663856   -11274.988    403.96613 
  992400    281.30202   -11230.404    48.633457   -11279.038   -18190.786 
  992600    282.02377   -11235.101     48.75824   -11283.859    25298.837 
  992800    282.32173   -11228.672    48.809752   -11277.482   -31567.245 
  993000    294.71361   -11230.858    50.952147    -11281.81   -7854.7933 
  993200    309.89468    -11245.61    53.576756   -11299.187    32777.197 
  993400    273.33763   -11229.009    47.256518   -11276.266    27672.951 
  993600    350.67156   -11227.724    60.626547   -11288.351    34099.261 
  993800    242.89695   -11247.221    41.993721   -11289.215    30630.489 
  994000    305.52532   -11234.548     52.82135   -11287.369   -36832.929 
  994200    311.24332   -11230.706    53.809919   -11284.516    26388.653 
  994400    237.46737   -11237.815    41.055017    -11278.87    15989.714 
  994600    277.47016   -11222.514    47.970979   -11270.485     33330.25 
  994800    307.37068   -11236.157    53.140389   -11289.298   -11491.618 
  995000    321.71582   -11243.259    55.620478   -11298.879   -10235.721 
  995200    322.78634   -11233.019    55.805557   -11288.825   -489.01582 
  995400    298.78501   -11230.684     51.65604    -11282.34    78823.264 
  995600     312.2028   -11227.815    53.975799   -11281.791   -24831.154 
  995800    244.69411   -11247.618    42.304427   -11289.923   -88813.577 
  996000    295.20645   -11234.467    51.037353   -11285.505    59165.391 
  996200    347.95878   -11228.107    60.157544   -11288.264    10710.574 
  996400    310.19572   -11236.076    53.628802   -11289.705    -6699.248 
  996600    287.88427   -11233.836    49.771443   -11283.608    86285.582 
  996800    299.19566   -11226.825    51.727036   -11278.552    48898.849 
  997000    342.04786   -11221.334    59.135623    -11280.47   -20858.882 
  997200    297.71052   -11239.936    51.470273   -11291.406   -7410.4679 
  997400    346.96089   -11228.451    59.985021   -11288.436   -10691.929 
  997600    299.22885   -11238.698    51.732773   -11290.431    37726.433 
  997800    305.75315    -11233.84     52.86074   -11286.701   -10159.987 
  998000    303.26447    -11227.53     52.43048    -11279.96   -2883.7337 
  998200    261.49969   -11248.114    45.209892   -11293.324    13452.369 
  998400    318.28324   -11238.333    55.027029    -11293.36    7509.2261 
  998600    312.55463   -11230.448    54.036627   -11284.484    44945.379 
  998800    327.42622    -11209.58    56.607731   -11266.188   -28972.635 
  999000    314.93414   -11224.343    54.448013   -11278.791   -64050.372 
  999200    267.74729   -11234.849    46.290021   -11281.139    40473.956 
  999400    261.16305   -11240.379    45.151691   -11285.531    8124.7701 
  999600    313.43473   -11232.442    54.188786    -11286.63    47605.985 
  999800    335.58484   -11220.568     58.01825   -11278.587    17810.208 
 1000000    265.48887   -11234.904     45.89957   -11280.804    17278.564 
Loop time of 5583.1 on 8 procs for 1000000 steps with 59 atoms

Performance: 3.869 ns/day, 6.203 hours/ns, 179.112 timesteps/s
99.4% CPU use with 8 MPI tasks x no OpenMP threads

MPI task timing breakdown:
Section |  min time  |  avg time  |  max time  |%varavg| %total
---------------------------------------------------------------
Pair    | 4728.3     | 4823.1     | 4981.5     | 116.3 | 86.39
Neigh   | 1.9213     | 1.9837     | 2.0954     |   4.0 |  0.04
Comm    | 94.133     | 252.61     | 347.34     | 508.4 |  4.52
Output  | 0.12045    | 0.13145    | 0.20013    |   7.2 |  0.00
Modify  | 502.03     | 502.4      | 502.67     |   0.9 |  9.00
Other   |            | 2.85       |            |       |  0.05

Nlocal:    7.375 ave 10 max 2 min
Histogram: 1 0 1 0 0 0 1 1 2 2
Nghost:    740.5 ave 782 max 700 min
Histogram: 1 1 0 1 1 1 0 2 0 1
Neighs:    1201.38 ave 1693 max 311 min
Histogram: 1 0 1 0 0 1 0 2 2 1

Total # of neighbors = 9611
Ave neighs/atom = 162.898
Neighbor list builds = 1901
Dangerous builds = 0

unfix 1
unfix output
undump 1

Please see the log.cite file for references relevant to this simulation

Total wall time: 1:33:10
