ITEM: TIMESTEP
0
ITEM: NUMBER OF ATOMS
59
ITEM: BOX BOUNDS pp pp pp
0.0000000000000000e+00 3.2808000000000000e+01
0.0000000000000000e+00 1.7780000000000001e+01
0.0000000000000000e+00 2.4729999999999999e+00
ITEM: ATOMS id type x y z 
13 1 7.043 0.849 2.464 
29 1 7.397 1.432 1.228 
37 1 8.035 2.733 1.228 
1 1 6.173 17.398 2.464 
5 1 5.371 17.398 1.228 
9 1 3.973 17.398 1.228 
16 1 7.043 16.167 2.464 
32 1 7.397 15.584 1.228 
40 1 8.035 14.283 1.228 
45 1 3.236 17.398 2.464 
49 1 1.81 17.398 2.464 
53 1 1.083 17.398 1.228 
4 1 10.968 8.508 2.464 
8 1 11.771 8.508 1.228 
12 1 13.168 8.508 1.228 
18 1 10.098 7.277 2.464 
21 1 8.308 3.392 2.464 
26 1 8.833 4.734 2.464 
34 1 9.745 6.694 1.228 
42 1 9.106 5.393 1.228 
48 1 13.906 8.508 2.464 
52 1 15.331 8.508 2.464 
56 1 16.058 8.508 1.228 
57 2 8.747 1.332 1.228 
58 2 9.947 0.432 1.228 
59 3 10.523 1.232 1.228 
19 1 10.098 9.739 2.464 
24 1 8.308 13.624 2.464 
27 1 8.833 12.282 2.464 
35 1 9.745 10.322 1.228 
43 1 9.106 11.623 1.228 
3 1 22.577 8.508 2.464 
7 1 21.775 8.508 1.228 
11 1 20.377 8.508 1.228 
20 1 23.447 7.277 2.464 
36 1 23.801 6.694 1.228 
44 1 24.439 5.393 1.228 
47 1 19.64 8.508 2.464 
51 1 18.214 8.508 2.464 
55 1 17.487 8.508 1.228 
17 1 23.447 9.739 2.464 
33 1 23.801 10.322 1.228 
41 1 24.439 11.623 1.228 
15 1 26.502 0.849 2.464 
23 1 25.237 3.392 2.464 
28 1 24.712 4.734 2.464 
31 1 26.149 1.432 1.228 
39 1 25.511 2.733 1.228 
2 1 27.373 17.398 2.464 
6 1 28.175 17.398 1.228 
10 1 29.572 17.398 1.228 
14 1 26.502 16.167 2.464 
22 1 25.237 13.624 2.464 
25 1 24.712 12.282 2.464 
30 1 26.149 15.584 1.228 
38 1 25.511 14.283 1.228 
46 1 30.31 17.398 2.464 
50 1 31.735 17.398 2.464 
54 1 32.462 17.398 1.228 
ITEM: TIMESTEP
10
ITEM: NUMBER OF ATOMS
59
ITEM: BOX BOUNDS pp pp pp
0.0000000000000000e+00 3.2808000000000000e+01
0.0000000000000000e+00 1.7780000000000001e+01
0.0000000000000000e+00 2.4729999999999999e+00
ITEM: ATOMS id type x y z 
13 1 6.998 0.822985 2.46435 
29 1 7.54946 1.34836 1.22769 
37 1 7.91263 2.82108 1.22768 
1 1 6.18123 17.4189 2.46437 
5 1 5.37133 17.3944 1.22762 
9 1 3.97098 17.3969 1.22768 
16 1 7.04281 16.1685 2.46431 
32 1 7.39353 15.5906 1.22769 
40 1 8.03125 14.2908 1.22768 
45 1 3.23469 17.398 2.46433 
49 1 1.81002 17.398 2.46432 
53 1 1.08238 17.398 1.22768 
4 1 10.981 8.52855 2.46436 
8 1 11.7832 8.51563 1.22765 
12 1 13.1757 8.50771 1.22768 
18 1 10.1009 7.29807 2.46431 
21 1 8.28829 3.41432 2.46431 
26 1 8.83958 4.75444 2.4643 
34 1 9.74604 6.71619 1.22769 
42 1 9.10643 5.40855 1.22769 
48 1 13.9121 8.5078 2.46433 
52 1 15.3398 8.50797 2.46432 
56 1 16.0642 8.508 1.22768 
57 2 8.75008 1.173 1.22797 
58 2 9.97725 0.418734 1.228 
59 3 10.4587 1.23099 1.228 
19 1 10.0926 9.74578 2.46431 
24 1 8.30533 13.63 2.46431 
27 1 8.82957 12.2906 2.46432 
35 1 9.73689 10.3285 1.22768 
43 1 9.10204 11.6286 1.22768 
3 1 22.5811 8.508 2.46436 
7 1 21.7766 8.508 1.22764 
11 1 20.3815 8.508 1.22768 
20 1 23.4479 7.27604 2.46431 
36 1 23.801 6.69308 1.22769 
44 1 24.4378 5.39251 1.22768 
47 1 19.6463 8.508 2.46433 
51 1 18.2209 8.508 2.46432 
55 1 17.4973 8.508 1.22768 
17 1 23.4479 9.73996 2.46431 
33 1 23.801 10.3229 1.22769 
41 1 24.4378 11.6235 1.22768 
15 1 26.5021 0.849517 2.46431 
23 1 25.2377 3.3931 2.46431 
28 1 24.7115 4.73321 2.46431 
31 1 26.1487 1.43276 1.22769 
39 1 25.5117 2.73381 1.22768 
2 1 27.3716 17.398 2.46436 
6 1 28.1735 17.398 1.22764 
10 1 29.5712 17.398 1.22768 
14 1 26.5021 16.1665 2.46431 
22 1 25.2377 13.6229 2.46431 
25 1 24.7115 12.2828 2.46431 
30 1 26.1487 15.5832 1.22769 
38 1 25.5117 14.2822 1.22768 
46 1 30.3087 17.398 2.46433 
50 1 31.7338 17.398 2.46432 
54 1 32.461 17.398 1.22768 
ITEM: TIMESTEP
20
ITEM: NUMBER OF ATOMS
59
ITEM: BOX BOUNDS pp pp pp
0.0000000000000000e+00 3.2808000000000000e+01
0.0000000000000000e+00 1.7780000000000001e+01
0.0000000000000000e+00 2.4729999999999999e+00
ITEM: ATOMS id type x y z 
13 1 7.02172 0.824856 2.46432 
29 1 7.56745 1.34753 1.22774 
37 1 7.91902 2.81708 1.22771 
1 1 6.18255 17.4269 2.46429 
5 1 5.37437 17.4007 1.22772 
9 1 3.97417 17.3955 1.22771 
16 1 7.03953 16.1748 2.46429 
32 1 7.39076 15.5922 1.22772 
40 1 8.02789 14.2935 1.22771 
45 1 3.23759 17.3973 2.46429 
49 1 1.81223 17.3981 2.46429 
53 1 1.08523 17.398 1.22771 
4 1 10.9758 8.52611 2.46428 
8 1 11.778 8.5202 1.22771 
12 1 13.173 8.50847 1.22771 
18 1 10.1009 7.29687 2.46429 
21 1 8.24115 3.43023 2.46429 
26 1 8.83686 4.76082 2.46428 
34 1 9.74747 6.71725 1.22771 
42 1 9.11071 5.40818 1.22771 
48 1 13.9113 8.50729 2.46429 
52 1 15.3372 8.50775 2.46429 
56 1 16.062 8.50799 1.22771 
57 2 8.70776 1.11784 1.22795 
58 2 9.98794 0.407478 1.228 
59 3 10.4751 1.2367 1.228 
19 1 10.0948 9.74908 2.46429 
24 1 8.30352 13.6327 2.46429 
27 1 8.82903 12.2925 2.46429 
35 1 9.73615 10.3317 1.22771 
43 1 9.10041 11.6343 1.22771 
3 1 22.5813 8.508 2.46429 
7 1 21.7783 8.508 1.22771 
11 1 20.3809 8.508 1.22771 
20 1 23.4505 7.2765 2.46429 
36 1 23.8025 6.69312 1.22771 
44 1 24.4385 5.39153 1.22771 
47 1 19.6471 8.508 2.46429 
51 1 18.2197 8.508 2.46429 
55 1 17.4928 8.50801 1.22771 
17 1 23.4505 9.7395 2.46429 
33 1 23.8025 10.3229 1.22771 
41 1 24.4385 11.6245 1.22771 
15 1 26.5022 0.847841 2.46429 
23 1 25.2386 3.39167 2.46429 
28 1 24.712 4.73159 2.46429 
31 1 26.1485 1.43144 1.22771 
39 1 25.5116 2.73362 1.22771 
2 1 27.3743 17.398 2.46429 
6 1 28.1764 17.398 1.22771 
10 1 29.5744 17.398 1.22771 
14 1 26.5022 16.1682 2.46429 
22 1 25.2386 13.6243 2.46429 
25 1 24.712 12.2844 2.46429 
30 1 26.1485 15.5846 1.22771 
38 1 25.5116 14.2824 1.22771 
46 1 30.3124 17.398 2.46429 
50 1 31.7366 17.398 2.46429 
54 1 32.4635 17.398 1.22771 
ITEM: TIMESTEP
30
ITEM: NUMBER OF ATOMS
59
ITEM: BOX BOUNDS pp pp pp
0.0000000000000000e+00 3.2808000000000000e+01
0.0000000000000000e+00 1.7780000000000001e+01
0.0000000000000000e+00 2.4729999999999999e+00
ITEM: ATOMS id type x y z 
13 1 7.03246 0.828273 2.46432 
29 1 7.57283 1.35125 1.22775 
37 1 7.92301 2.81802 1.22771 
1 1 6.18439 17.4313 2.46427 
5 1 5.37666 17.409 1.22775 
9 1 3.9767 17.3954 1.22772 
16 1 7.03747 16.1778 2.46428 
32 1 7.3878 15.5942 1.22772 
40 1 8.02493 14.2954 1.22772 
45 1 3.2396 17.3962 2.46428 
49 1 1.81367 17.3978 2.46428 
53 1 1.08715 17.3981 1.22772 
4 1 10.9729 8.52762 2.46426 
8 1 11.7756 8.52274 1.22774 
12 1 13.1719 8.50946 1.22772 
18 1 10.1011 7.29528 2.46429 
21 1 8.21638 3.44172 2.46428 
26 1 8.82576 4.76183 2.46428 
34 1 9.74923 6.71391 1.22771 
42 1 9.11168 5.40539 1.22771 
48 1 13.9096 8.5071 2.46428 
52 1 15.3352 8.50744 2.46428 
56 1 16.0621 8.5079 1.22772 
57 2 8.69617 1.07852 1.22792 
58 2 10.0037 0.398705 1.228 
59 3 10.4744 1.23832 1.228 
19 1 10.0959 9.75184 2.46429 
24 1 8.30144 13.6348 2.46429 
27 1 8.82845 12.2949 2.46429 
35 1 9.7383 10.3327 1.22771 
43 1 9.10046 11.637 1.22771 
3 1 22.5807 8.508 2.46427 
7 1 21.7794 8.508 1.22773 
11 1 20.3818 8.508 1.22772 
20 1 23.4509 7.27636 2.46428 
36 1 23.8032 6.69278 1.22772 
44 1 24.438 5.39124 1.22771 
47 1 19.6458 8.508 2.46428 
51 1 18.2171 8.50801 2.46428 
55 1 17.4922 8.50803 1.22772 
17 1 23.4509 9.73964 2.46428 
33 1 23.8032 10.3232 1.22772 
41 1 24.438 11.6248 1.22771 
15 1 26.5035 0.847345 2.46428 
23 1 25.2391 3.39125 2.46428 
28 1 24.7115 4.73199 2.46428 
31 1 26.1494 1.43003 1.22772 
39 1 25.5123 2.733 1.22771 
2 1 27.3763 17.398 2.46426 
6 1 28.178 17.398 1.22773 
10 1 29.5754 17.398 1.22772 
14 1 26.5035 16.1687 2.46428 
22 1 25.2391 13.6248 2.46428 
25 1 24.7115 12.284 2.46428 
30 1 26.1494 15.586 1.22772 
38 1 25.5123 14.283 1.22771 
46 1 30.3144 17.398 2.46428 
50 1 31.7384 17.398 2.46428 
54 1 32.4656 17.398 1.22772 
ITEM: TIMESTEP
40
ITEM: NUMBER OF ATOMS
59
ITEM: BOX BOUNDS pp pp pp
0.0000000000000000e+00 3.2808000000000000e+01
0.0000000000000000e+00 1.7780000000000001e+01
0.0000000000000000e+00 2.4729999999999999e+00
ITEM: ATOMS id type x y z 
13 1 7.03893 0.834313 2.46429 
29 1 7.57727 1.35477 1.22778 
37 1 7.92605 2.82052 1.22774 
1 1 6.18623 17.4366 2.46426 
5 1 5.37912 17.4182 1.22776 
9 1 3.97956 17.3963 1.22774 
16 1 7.03462 16.1807 2.46427 
32 1 7.38301 15.598 1.22774 
40 1 8.02248 14.2939 1.22774 
45 1 3.24209 17.3949 2.46426 
49 1 1.81733 17.3972 2.46426 
53 1 1.08919 17.398 1.22774 
4 1 10.9714 8.52719 2.46425 
8 1 11.7732 8.52456 1.22775 
12 1 13.1706 8.51069 1.22774 
18 1 10.1031 7.29304 2.46427 
21 1 8.19633 3.44771 2.46427 
26 1 8.81079 4.76371 2.46426 
34 1 9.75242 6.7089 1.22774 
42 1 9.10975 5.40522 1.22774 
48 1 13.9085 8.50728 2.46426 
52 1 15.3347 8.50702 2.46426 
56 1 16.0608 8.50766 1.22774 
57 2 8.68614 1.03887 1.22789 
58 2 10.0256 0.387664 1.228 
59 3 10.4732 1.24008 1.228 
19 1 10.0968 9.75508 2.46427 
24 1 8.29804 13.638 2.46426 
27 1 8.82795 12.2979 2.46426 
35 1 9.73982 10.3379 1.22773 
43 1 9.10265 11.6378 1.22774 
3 1 22.5799 8.508 2.46425 
7 1 21.7788 8.508 1.22775 
11 1 20.3806 8.508 1.22774 
20 1 23.4501 7.2763 2.46426 
36 1 23.8026 6.69274 1.22774 
44 1 24.4375 5.38985 1.22774 
47 1 19.6432 8.50801 2.46426 
51 1 18.217 8.50804 2.46426 
55 1 17.4906 8.50803 1.22774 
17 1 23.4501 9.7397 2.46426 
33 1 23.8026 10.3233 1.22774 
41 1 24.4375 11.6262 1.22774 
15 1 26.5054 0.847829 2.46426 
23 1 25.2399 3.39085 2.46426 
28 1 24.7111 4.73141 2.46426 
31 1 26.1507 1.43054 1.22774 
39 1 25.514 2.73222 1.22774 
2 1 27.3774 17.398 2.46425 
6 1 28.1797 17.398 1.22775 
10 1 29.5773 17.398 1.22774 
14 1 26.5054 16.1682 2.46426 
22 1 25.2399 13.6252 2.46426 
25 1 24.7111 12.2846 2.46426 
30 1 26.1507 15.5855 1.22774 
38 1 25.514 14.2838 1.22774 
46 1 30.3147 17.398 2.46426 
50 1 31.7406 17.398 2.46426 
54 1 32.4683 17.3981 1.22774 
ITEM: TIMESTEP
50
ITEM: NUMBER OF ATOMS
59
ITEM: BOX BOUNDS pp pp pp
0.0000000000000000e+00 3.2808000000000000e+01
0.0000000000000000e+00 1.7780000000000001e+01
0.0000000000000000e+00 2.4729999999999999e+00
ITEM: ATOMS id type x y z 
13 1 7.04083 0.843079 2.46425 
29 1 7.58428 1.35848 1.22782 
37 1 7.92588 2.82157 1.2278 
1 1 6.18911 17.4427 2.46428 
5 1 5.38051 17.4277 1.22775 
9 1 3.98199 17.3987 1.22778 
16 1 7.03147 16.1831 2.46422 
32 1 7.37787 15.5988 1.22779 
40 1 8.01732 14.2936 1.22779 
45 1 3.24417 17.3939 2.46423 
49 1 1.81902 17.3958 2.46422 
53 1 1.09136 17.3976 1.22778 
4 1 10.9689 8.52803 2.46426 
8 1 11.7701 8.52617 1.22775 
12 1 13.1697 8.51228 1.22778 
18 1 10.1078 7.28989 2.4642 
21 1 8.18156 3.45197 2.46422 
26 1 8.79315 4.77037 2.46421 
34 1 9.75745 6.70364 1.22779 
42 1 9.10177 5.40757 1.22779 
48 1 13.9068 8.50806 2.46422 
52 1 15.3318 8.50655 2.46422 
56 1 16.0595 8.50718 1.22778 
57 2 8.67639 0.993537 1.22786 
58 2 10.0585 0.372132 1.228 
59 3 10.4716 1.24252 1.228 
19 1 10.0982 9.75935 2.4642 
24 1 8.29364 13.6398 2.46421 
27 1 8.82854 12.3005 2.46421 
35 1 9.74421 10.3426 1.22779 
43 1 9.10531 11.6425 1.22779 
3 1 22.5794 8.508 2.46426 
7 1 21.7762 8.508 1.22775 
11 1 20.3793 8.508 1.22778 
20 1 23.4479 7.2761 2.46421 
36 1 23.8009 6.6915 1.22779 
44 1 24.4359 5.38843 1.22779 
47 1 19.6395 8.50803 2.46423 
51 1 18.2162 8.50808 2.46422 
55 1 17.4878 8.50796 1.22778 
17 1 23.4479 9.7399 2.46421 
33 1 23.8009 10.3245 1.22779 
41 1 24.4359 11.6276 1.22779 
15 1 26.5086 0.848977 2.46421 
23 1 25.2411 3.39077 2.46421 
28 1 24.7104 4.72988 2.46421 
31 1 26.1541 1.43125 1.22779 
39 1 25.5164 2.73226 1.22779 
2 1 27.3796 17.398 2.46426 
6 1 28.1811 17.398 1.22775 
10 1 29.5797 17.398 1.22778 
14 1 26.5086 16.167 2.46421 
22 1 25.2411 13.6252 2.46421 
25 1 24.7104 12.2861 2.46421 
30 1 26.1541 15.5847 1.22779 
38 1 25.5164 14.2837 1.22779 
46 1 30.3162 17.398 2.46422 
50 1 31.7434 17.3981 2.46422 
54 1 32.4703 17.3982 1.22778 
ITEM: TIMESTEP
60
ITEM: NUMBER OF ATOMS
59
ITEM: BOX BOUNDS pp pp pp
0.0000000000000000e+00 3.2808000000000000e+01
0.0000000000000000e+00 1.7780000000000001e+01
0.0000000000000000e+00 2.4729999999999999e+00
ITEM: ATOMS id type x y z 
13 1 7.03902 0.850322 2.46434 
29 1 7.59066 1.36034 1.22773 
37 1 7.9296 2.8213 1.22771 
1 1 6.1909 17.4485 2.46425 
5 1 5.38288 17.4332 1.22778 
9 1 3.98315 17.4018 1.22771 
16 1 7.02813 16.1859 2.46431 
32 1 7.37185 15.5991 1.22771 
40 1 8.00883 14.296 1.22769 
45 1 3.24564 17.3947 2.4643 
49 1 1.82057 17.3941 2.46431 
53 1 1.09317 17.3961 1.2277 
4 1 10.9661 8.52875 2.46425 
8 1 11.7692 8.52749 1.22775 
12 1 13.1671 8.51395 1.2277 
18 1 10.1104 7.28235 2.46431 
21 1 8.17645 3.45475 2.46432 
26 1 8.77679 4.77611 2.46431 
34 1 9.76035 6.70133 1.2277 
42 1 9.08834 5.41396 1.22769 
48 1 13.9047 8.5094 2.46429 
52 1 15.3308 8.50637 2.4643 
56 1 16.0571 8.50654 1.2277 
57 2 8.66856 0.957291 1.22782 
58 2 10.1003 0.355374 1.22801 
59 3 10.4695 1.24439 1.228 
19 1 10.101 9.76089 2.46431 
24 1 8.28842 13.6403 2.46431 
27 1 8.83017 12.304 2.46431 
35 1 9.749 10.3471 1.2277 
43 1 9.1093 11.648 1.22769 
3 1 22.5766 8.508 2.46425 
7 1 21.7767 8.508 1.22774 
11 1 20.3763 8.50803 1.22771 
20 1 23.4449 7.27385 2.4643 
36 1 23.796 6.69066 1.2277 
44 1 24.4321 5.38799 1.22769 
47 1 19.6401 8.50809 2.46429 
51 1 18.2139 8.50806 2.4643 
55 1 17.4874 8.50769 1.2277 
17 1 23.4449 9.74215 2.4643 
33 1 23.796 10.3253 1.2277 
41 1 24.4321 11.628 1.22769 
15 1 26.5125 0.850255 2.4643 
23 1 25.2426 3.39193 2.46431 
28 1 24.7079 4.7306 2.46431 
31 1 26.1587 1.43391 1.2277 
39 1 25.5194 2.73465 1.22769 
2 1 27.3811 17.398 2.46425 
6 1 28.1836 17.398 1.22774 
10 1 29.5809 17.398 1.2277 
14 1 26.5125 16.1657 2.4643 
22 1 25.2426 13.6241 2.46431 
25 1 24.7079 12.2854 2.46431 
30 1 26.1587 15.5821 1.2277 
38 1 25.5194 14.2814 1.22769 
46 1 30.3195 17.3981 2.46429 
50 1 31.7441 17.3983 2.46431 
54 1 32.4717 17.3982 1.2277 
ITEM: TIMESTEP
70
ITEM: NUMBER OF ATOMS
59
ITEM: BOX BOUNDS pp pp pp
0.0000000000000000e+00 3.2808000000000000e+01
0.0000000000000000e+00 1.7780000000000001e+01
0.0000000000000000e+00 2.4729999999999999e+00
ITEM: ATOMS id type x y z 
13 1 7.03994 0.852774 2.46425 
29 1 7.59251 1.35914 1.2278 
37 1 7.932 2.82012 1.22778 
1 1 6.1905 17.4493 2.46427 
5 1 5.38213 17.4354 1.22776 
9 1 3.98334 17.4029 1.22778 
16 1 7.02765 16.1858 2.46424 
32 1 7.36972 15.5992 1.22777 
40 1 8.00555 14.2954 1.22778 
45 1 3.246 17.3953 2.46424 
49 1 1.82067 17.3936 2.46423 
53 1 1.0935 17.3953 1.22778 
4 1 10.9649 8.52744 2.46424 
8 1 11.7674 8.5281 1.22776 
12 1 13.1661 8.51474 1.22777 
18 1 10.1123 7.28603 2.46423 
21 1 8.17553 3.45422 2.46425 
26 1 8.77043 4.77948 2.46423 
34 1 9.75868 6.70111 1.22777 
42 1 9.0828 5.41569 1.22778 
48 1 13.904 8.50995 2.46423 
52 1 15.3291 8.50639 2.46423 
56 1 16.0566 8.5064 1.22777 
57 2 8.66717 0.944315 1.22781 
58 2 10.1203 0.347555 1.22801 
59 3 10.4699 1.24586 1.228 
19 1 10.1001 9.76408 2.46423 
24 1 8.28604 13.6402 2.46423 
27 1 8.83117 12.3056 2.46423 
35 1 9.75102 10.3486 1.22777 
43 1 9.11157 11.65 1.22777 
3 1 22.5769 8.508 2.46424 
7 1 21.774 8.508 1.22776 
11 1 20.3765 8.50807 1.22777 
20 1 23.4428 7.27447 2.46423 
36 1 23.7945 6.68938 1.22776 
44 1 24.4306 5.38706 1.22777 
47 1 19.6385 8.50812 2.46423 
51 1 18.2133 8.50795 2.46423 
55 1 17.4858 8.50749 1.22777 
17 1 23.4428 9.74153 2.46423 
33 1 23.7945 10.3266 1.22776 
41 1 24.4306 11.6289 1.22777 
15 1 26.5139 0.851064 2.46423 
23 1 25.2438 3.39218 2.46423 
28 1 24.7071 4.72962 2.46423 
31 1 26.161 1.43453 1.22777 
39 1 25.5214 2.73517 1.22777 
2 1 27.3819 17.398 2.46424 
6 1 28.1838 17.398 1.22776 
10 1 29.5819 17.398 1.22777 
14 1 26.5139 16.1649 2.46423 
22 1 25.2438 13.6238 2.46423 
25 1 24.7071 12.2864 2.46423 
30 1 26.161 15.5815 1.22777 
38 1 25.5214 14.2808 1.22777 
46 1 30.3194 17.3982 2.46423 
50 1 31.7451 17.3984 2.46423 
54 1 32.4721 17.3979 1.22777 
ITEM: TIMESTEP
80
ITEM: NUMBER OF ATOMS
59
ITEM: BOX BOUNDS pp pp pp
0.0000000000000000e+00 3.2808000000000000e+01
0.0000000000000000e+00 1.7780000000000001e+01
0.0000000000000000e+00 2.4729999999999999e+00
ITEM: ATOMS id type x y z 
13 1 7.04065 0.854409 2.46426 
29 1 7.59531 1.35882 1.22779 
37 1 7.93477 2.81948 1.22778 
1 1 6.19095 17.4511 2.46427 
5 1 5.38258 17.4372 1.22776 
9 1 3.98373 17.404 1.22777 
16 1 7.02654 16.1868 2.46425 
32 1 7.36795 15.5995 1.22777 
40 1 8.00308 14.2952 1.22777 
45 1 3.24629 17.3959 2.46425 
49 1 1.821 17.3931 2.46424 
53 1 1.09381 17.3947 1.22777 
4 1 10.9639 8.52744 2.46424 
8 1 11.7666 8.52796 1.22776 
12 1 13.1654 8.51536 1.22776 
18 1 10.1109 7.28533 2.46424 
21 1 8.17563 3.45431 2.46425 
26 1 8.76602 4.7814 2.46424 
34 1 9.75688 6.70171 1.22776 
42 1 9.07801 5.41784 1.22777 
48 1 13.9031 8.51051 2.46424 
52 1 15.3282 8.50646 2.46423 
56 1 16.0558 8.50629 1.22777 
57 2 8.66603 0.934743 1.2278 
58 2 10.1381 0.341958 1.22801 
59 3 10.4705 1.24628 1.228 
19 1 10.1009 9.76447 2.46424 
24 1 8.2841 13.6403 2.46424 
27 1 8.83197 12.3066 2.46423 
35 1 9.75222 10.3499 1.22776 
43 1 9.11321 11.6515 1.22777 
3 1 22.576 8.50799 2.46424 
7 1 21.7732 8.50801 1.22776 
11 1 20.3754 8.5081 1.22776 
20 1 23.4415 7.27404 2.46424 
36 1 23.7928 6.68895 1.22776 
44 1 24.429 5.38666 1.22777 
47 1 19.6376 8.50812 2.46424 
51 1 18.2124 8.50783 2.46423 
55 1 17.485 8.50732 1.22777 
17 1 23.4415 9.74195 2.46424 
33 1 23.7928 10.327 1.22776 
41 1 24.429 11.6293 1.22777 
15 1 26.5149 0.851631 2.46424 
23 1 25.2446 3.39281 2.46423 
28 1 24.7062 4.72952 2.46423 
31 1 26.1625 1.43544 1.22776 
39 1 25.5229 2.73601 1.22777 
2 1 27.382 17.398 2.46424 
6 1 28.184 17.398 1.22776 
10 1 29.5822 17.3981 1.22777 
14 1 26.5149 16.1644 2.46424 
22 1 25.2446 13.6232 2.46423 
25 1 24.7062 12.2865 2.46423 
30 1 26.1625 15.5806 1.22776 
38 1 25.5229 14.28 1.22777 
46 1 30.3198 17.3983 2.46424 
50 1 31.7453 17.3983 2.46423 
54 1 32.4724 17.3976 1.22777 
ITEM: TIMESTEP
82
ITEM: NUMBER OF ATOMS
59
ITEM: BOX BOUNDS pp pp pp
0.0000000000000000e+00 3.2808000000000000e+01
0.0000000000000000e+00 1.7780000000000001e+01
0.0000000000000000e+00 2.4729999999999999e+00
ITEM: ATOMS id type x y z 
13 1 7.04037 0.85406 2.46429 
29 1 7.59579 1.35892 1.22776 
37 1 7.9351 2.81924 1.22775 
1 1 6.19119 17.4514 2.46426 
5 1 5.38291 17.4374 1.22777 
9 1 3.98379 17.4042 1.22775 
16 1 7.0262 16.1871 2.46427 
32 1 7.36756 15.5998 1.22775 
40 1 8.00293 14.2947 1.22774 
45 1 3.24621 17.3959 2.46427 
49 1 1.82144 17.3931 2.46427 
53 1 1.09393 17.3946 1.22774 
4 1 10.9643 8.52829 2.46425 
8 1 11.7667 8.52794 1.22775 
12 1 13.165 8.51545 1.22774 
18 1 10.1099 7.28422 2.46426 
21 1 8.17571 3.45439 2.46428 
26 1 8.7652 4.78115 2.46427 
34 1 9.75674 6.70207 1.22774 
42 1 9.07762 5.41859 1.22774 
48 1 13.9027 8.51059 2.46426 
52 1 15.3288 8.50647 2.46426 
56 1 16.0555 8.50628 1.22774 
57 2 8.66592 0.933517 1.2278 
58 2 10.1405 0.341223 1.22801 
59 3 10.4706 1.24633 1.228 
19 1 10.1012 9.76413 2.46426 
24 1 8.28372 13.6406 2.46427 
27 1 8.83203 12.3069 2.46427 
35 1 9.75212 10.3506 1.22774 
43 1 9.11352 11.6514 1.22774 
3 1 22.5749 8.50799 2.46425 
7 1 21.7739 8.50801 1.22775 
11 1 20.3755 8.50811 1.22774 
20 1 23.4415 7.27368 2.46426 
36 1 23.7923 6.68919 1.22774 
44 1 24.4289 5.38638 1.22774 
47 1 19.6373 8.50812 2.46426 
51 1 18.2123 8.50781 2.46426 
55 1 17.4848 8.5073 1.22774 
17 1 23.4415 9.74231 2.46426 
33 1 23.7923 10.3268 1.22774 
41 1 24.4289 11.6296 1.22774 
15 1 26.515 0.851652 2.46426 
23 1 25.2446 3.39306 2.46426 
28 1 24.706 4.72974 2.46426 
31 1 26.1625 1.43585 1.22774 
39 1 25.5232 2.73582 1.22774 
2 1 27.3818 17.398 2.46425 
6 1 28.1842 17.398 1.22775 
10 1 29.5821 17.3981 1.22774 
14 1 26.515 16.1643 2.46426 
22 1 25.2446 13.6229 2.46426 
25 1 24.706 12.2863 2.46426 
30 1 26.1625 15.5801 1.22774 
38 1 25.5232 14.2802 1.22774 
46 1 30.3197 17.3983 2.46426 
50 1 31.7454 17.3982 2.46426 
54 1 32.4725 17.3975 1.22774 
ITEM: TIMESTEP
90
ITEM: NUMBER OF ATOMS
59
ITEM: BOX BOUNDS pp pp pp
0.0000000000000000e+00 3.2808000000000000e+01
0.0000000000000000e+00 1.7780000000000001e+01
0.0000000000000000e+00 2.4729999999999999e+00
ITEM: ATOMS id type x y z 
13 1 7.04126 0.855285 2.46427 
29 1 7.59795 1.35841 1.22777 
37 1 7.93738 2.81869 1.22777 
21 1 8.17611 3.4543 2.46426 
1 1 6.19145 17.4525 2.46426 
5 1 5.38288 17.4388 1.22776 
9 1 3.98386 17.405 1.22776 
16 1 7.02546 16.1875 2.46426 
32 1 7.36634 15.5995 1.22776 
40 1 8.00088 14.2949 1.22776 
45 1 3.24655 17.3963 2.46426 
49 1 1.82126 17.3928 2.46425 
53 1 1.09398 17.3942 1.22776 
4 1 10.9636 8.52773 2.46425 
8 1 11.7657 8.5277 1.22775 
12 1 13.164 8.51585 1.22775 
18 1 10.1089 7.28467 2.46425 
59 3 10.4715 1.24677 1.228 
26 1 8.762 4.78276 2.46426 
34 1 9.75472 6.70246 1.22775 
42 1 9.07389 5.42 1.22776 
48 1 13.9022 8.51103 2.46425 
52 1 15.328 8.50658 2.46425 
56 1 16.0548 8.50622 1.22775 
57 2 8.66559 0.926471 1.22779 
58 2 10.1549 0.336858 1.22801 
19 1 10.1016 9.76475 2.46425 
24 1 8.28239 13.6405 2.46425 
27 1 8.83257 12.3078 2.46425 
35 1 9.75312 10.3515 1.22775 
43 1 9.11444 11.6531 1.22775 
3 1 22.5746 8.50799 2.46425 
7 1 21.7727 8.50802 1.22775 
11 1 20.3746 8.50812 1.22775 
20 1 23.4404 7.27351 2.46425 
36 1 23.7912 6.68843 1.22775 
44 1 24.4276 5.38623 1.22775 
47 1 19.6366 8.50811 2.46425 
51 1 18.2113 8.50771 2.46425 
55 1 17.484 8.50716 1.22775 
17 1 23.4404 9.74248 2.46425 
33 1 23.7912 10.3276 1.22775 
41 1 24.4276 11.6298 1.22775 
15 1 26.5158 0.852064 2.46425 
23 1 25.2454 3.39336 2.46425 
28 1 24.7054 4.7293 2.46425 
31 1 26.1638 1.43624 1.22775 
39 1 25.5242 2.73683 1.22775 
2 1 27.3821 17.398 2.46425 
6 1 28.1843 17.398 1.22775 
10 1 29.5825 17.3982 1.22775 
14 1 26.5158 16.1639 2.46425 
22 1 25.2454 13.6226 2.46425 
25 1 24.7054 12.2867 2.46425 
30 1 26.1638 15.5798 1.22775 
38 1 25.5242 14.2792 1.22775 
46 1 30.3201 17.3983 2.46425 
50 1 31.7455 17.3981 2.46425 
54 1 32.4727 17.3972 1.22775 
ITEM: TIMESTEP
100
ITEM: NUMBER OF ATOMS
59
ITEM: BOX BOUNDS pp pp pp
0.0000000000000000e+00 3.2808000000000000e+01
0.0000000000000000e+00 1.7780000000000001e+01
0.0000000000000000e+00 2.4729999999999999e+00
ITEM: ATOMS id type x y z 
13 1 7.0414 0.855276 2.46427 
29 1 7.59852 1.35834 1.22777 
37 1 7.93807 2.81827 1.22777 
21 1 8.17623 3.45411 2.46427 
1 1 6.19136 17.4534 2.46426 
5 1 5.38305 17.4393 1.22776 
9 1 3.98403 17.4053 1.22776 
16 1 7.02516 16.1877 2.46426 
32 1 7.36579 15.5998 1.22776 
40 1 8.00002 14.2956 1.22775 
45 1 3.24658 17.3965 2.46426 
49 1 1.82153 17.3927 2.46426 
53 1 1.09425 17.394 1.22775 
4 1 10.963 8.52749 2.46425 
8 1 11.7653 8.52759 1.22775 
12 1 13.1634 8.51596 1.22775 
18 1 10.1084 7.28459 2.46425 
59 3 10.4718 1.24688 1.228 
26 1 8.76142 4.78391 2.46426 
34 1 9.75438 6.70316 1.22775 
42 1 9.07273 5.42027 1.22776 
48 1 13.9018 8.51116 2.46425 
52 1 15.3268 8.50662 2.46425 
56 1 16.0544 8.50621 1.22775 
57 2 8.66554 0.924448 1.22779 
58 2 10.1593 0.335584 1.22801 
19 1 10.1018 9.76497 2.46425 
24 1 8.28202 13.6405 2.46426 
27 1 8.83291 12.3076 2.46425 
35 1 9.75378 10.3511 1.22775 
43 1 9.11506 11.6528 1.22775 
3 1 22.5747 8.50799 2.46425 
7 1 21.7725 8.50802 1.22775 
11 1 20.3746 8.50813 1.22775 
20 1 23.4401 7.27333 2.46425 
36 1 23.7907 6.68851 1.22775 
44 1 24.4271 5.38639 1.22775 
47 1 19.637 8.50811 2.46425 
51 1 18.211 8.50767 2.46425 
55 1 17.4839 8.50712 1.22775 
17 1 23.4401 9.74266 2.46425 
33 1 23.7907 10.3275 1.22775 
41 1 24.4271 11.6296 1.22775 
15 1 26.5161 0.852147 2.46425 
23 1 25.2457 3.39336 2.46425 
28 1 24.7051 4.72953 2.46425 
31 1 26.1643 1.43628 1.22775 
39 1 25.5246 2.73691 1.22775 
2 1 27.3822 17.398 2.46425 
6 1 28.1843 17.398 1.22775 
10 1 29.5824 17.3982 1.22775 
14 1 26.5161 16.1639 2.46425 
22 1 25.2457 13.6226 2.46425 
25 1 24.7051 12.2865 2.46425 
30 1 26.1642 15.5797 1.22775 
38 1 25.5246 14.2791 1.22775 
46 1 30.3201 17.3984 2.46425 
50 1 31.7455 17.3981 2.46425 
54 1 32.4727 17.3971 1.22775 
ITEM: TIMESTEP
101
ITEM: NUMBER OF ATOMS
59
ITEM: BOX BOUNDS pp pp pp
0.0000000000000000e+00 3.2808000000000000e+01
0.0000000000000000e+00 1.7780000000000001e+01
0.0000000000000000e+00 2.4729999999999999e+00
ITEM: ATOMS id type x y z 
13 1 7.0414 0.855276 2.46427 
29 1 7.59852 1.35834 1.22777 
37 1 7.93807 2.81827 1.22777 
21 1 8.17623 3.45411 2.46427 
1 1 6.19136 17.4534 2.46426 
5 1 5.38305 17.4393 1.22776 
9 1 3.98403 17.4053 1.22776 
16 1 7.02516 16.1877 2.46426 
32 1 7.36579 15.5998 1.22776 
40 1 8.00002 14.2956 1.22775 
45 1 3.24658 17.3965 2.46426 
49 1 1.82153 17.3927 2.46426 
53 1 1.09425 17.394 1.22775 
4 1 10.963 8.52749 2.46425 
8 1 11.7653 8.52759 1.22775 
12 1 13.1634 8.51596 1.22775 
18 1 10.1084 7.28459 2.46425 
59 3 10.4718 1.24688 1.228 
26 1 8.76142 4.78391 2.46426 
34 1 9.75438 6.70316 1.22775 
42 1 9.07273 5.42027 1.22776 
48 1 13.9018 8.51116 2.46425 
52 1 15.3268 8.50662 2.46425 
56 1 16.0544 8.50621 1.22775 
57 2 8.66554 0.924448 1.22779 
58 2 10.1593 0.335584 1.22801 
19 1 10.1018 9.76497 2.46425 
24 1 8.28202 13.6405 2.46426 
27 1 8.83291 12.3076 2.46425 
35 1 9.75378 10.3511 1.22775 
43 1 9.11506 11.6528 1.22775 
3 1 22.5747 8.50799 2.46425 
7 1 21.7725 8.50802 1.22775 
11 1 20.3746 8.50813 1.22775 
20 1 23.4401 7.27333 2.46425 
36 1 23.7907 6.68851 1.22775 
44 1 24.4271 5.38639 1.22775 
47 1 19.637 8.50811 2.46425 
51 1 18.211 8.50767 2.46425 
55 1 17.4839 8.50712 1.22775 
17 1 23.4401 9.74266 2.46425 
33 1 23.7907 10.3275 1.22775 
41 1 24.4271 11.6296 1.22775 
15 1 26.5161 0.852148 2.46425 
23 1 25.2457 3.39336 2.46425 
28 1 24.7051 4.72953 2.46425 
31 1 26.1643 1.43628 1.22775 
39 1 25.5246 2.73692 1.22775 
2 1 27.3822 17.398 2.46425 
6 1 28.1843 17.398 1.22775 
10 1 29.5824 17.3982 1.22775 
14 1 26.5161 16.1639 2.46425 
22 1 25.2457 13.6226 2.46425 
25 1 24.7051 12.2865 2.46425 
30 1 26.1642 15.5797 1.22775 
38 1 25.5246 14.2791 1.22775 
46 1 30.3201 17.3984 2.46425 
50 1 31.7455 17.3981 2.46425 
54 1 32.4727 17.3971 1.22775 
ITEM: TIMESTEP
110
ITEM: NUMBER OF ATOMS
59
ITEM: BOX BOUNDS pp pp pp
-2.2020644704177123e-03 3.2810202064470403e+01
1.7889123994370083e-03 1.7778211087600564e+01
-7.0195357486909081e-05 2.4730701953574865e+00
ITEM: ATOMS id type x y z 
13 1 7.04012 0.856974 2.46434 
29 1 7.59757 1.35972 1.22777 
37 1 7.937 2.81948 1.22776 
21 1 8.17516 3.45525 2.46433 
1 1 6.18964 17.4515 2.46433 
5 1 5.38141 17.4377 1.22776 
9 1 3.98221 17.4036 1.22776 
16 1 7.02381 16.1863 2.46433 
32 1 7.36459 15.5984 1.22776 
40 1 7.99902 14.294 1.22775 
45 1 3.24472 17.3948 2.46433 
49 1 1.81939 17.391 2.46433 
53 1 1.09192 17.3923 1.22775 
4 1 10.9625 8.52761 2.46432 
8 1 11.7651 8.52764 1.22775 
12 1 13.1638 8.51605 1.22775 
18 1 10.1075 7.28501 2.46432 
59 3 10.4711 1.24844 1.228 
26 1 8.76003 4.78437 2.46433 
34 1 9.75325 6.70348 1.22775 
42 1 9.07162 5.42117 1.22776 
48 1 13.9017 8.51126 2.46432 
52 1 15.3269 8.50671 2.46432 
56 1 16.0545 8.50629 1.22775 
57 2 8.66452 0.925731 1.22779 
58 2 10.1591 0.337103 1.22801 
19 1 10.1009 9.76478 2.46432 
24 1 8.28088 13.6394 2.46432 
27 1 8.83172 12.3074 2.46432 
35 1 9.7527 10.3512 1.22775 
43 1 9.11397 11.6527 1.22775 
3 1 22.575 8.50807 2.46432 
7 1 21.773 8.5081 1.22775 
11 1 20.3746 8.5082 1.22775 
20 1 23.4409 7.27374 2.46432 
36 1 23.7917 6.68891 1.22775 
44 1 24.4282 5.38697 1.22775 
47 1 19.6369 8.50818 2.46432 
51 1 18.2114 8.50774 2.46432 
55 1 17.4839 8.50719 1.22775 
17 1 23.4409 9.7424 2.46432 
33 1 23.7917 10.3272 1.22775 
41 1 24.4282 11.6292 1.22775 
15 1 26.5176 0.853705 2.46432 
23 1 25.2468 3.39464 2.46432 
28 1 24.7062 4.73011 2.46432 
31 1 26.1656 1.43784 1.22775 
39 1 25.5258 2.73824 1.22775 
2 1 27.3842 17.3963 2.46432 
6 1 28.1861 17.3963 1.22775 
10 1 29.5844 17.3965 1.22775 
14 1 26.5175 16.1624 2.46432 
22 1 25.2468 13.6215 2.46432 
25 1 24.7062 12.286 2.46432 
30 1 26.1656 15.5783 1.22775 
38 1 25.5258 14.2779 1.22775 
46 1 30.3222 17.3966 2.46432 
50 1 31.7476 17.3964 2.46432 
54 1 32.475 17.3954 1.22775 
ITEM: TIMESTEP
120
ITEM: NUMBER OF ATOMS
59
ITEM: BOX BOUNDS pp pp pp
-7.1169583315454348e-03 3.2815116958331529e+01
1.7240911546908234e-03 1.7778275908845309e+01
1.8922942240138943e-04 2.4728107705775981e+00
ITEM: ATOMS id type x y z 
13 1 7.0373 0.856896 2.46408 
29 1 7.59504 1.35881 1.22777 
37 1 7.93457 2.81923 1.22777 
21 1 8.17269 3.45512 2.46408 
1 1 6.18603 17.4516 2.46408 
5 1 5.37774 17.4379 1.22777 
9 1 3.97794 17.4038 1.22776 
16 1 7.0207 16.1866 2.46407 
32 1 7.36145 15.599 1.22776 
40 1 7.9961 14.2945 1.22776 
45 1 3.24038 17.3949 2.46407 
49 1 1.81505 17.391 2.46407 
53 1 1.08735 17.3923 1.22776 
4 1 10.962 8.52792 2.46406 
8 1 11.7639 8.52761 1.22775 
12 1 13.1628 8.51609 1.22775 
18 1 10.1057 7.28535 2.46407 
59 3 10.4695 1.24846 1.22801 
26 1 8.75714 4.78418 2.46407 
34 1 9.75104 6.70376 1.22775 
42 1 9.06916 5.42181 1.22776 
48 1 13.9012 8.51131 2.46406 
52 1 15.327 8.50673 2.46406 
56 1 16.0545 8.50629 1.22775 
57 2 8.66221 0.924793 1.22779 
58 2 10.1591 0.336484 1.22802 
19 1 10.0993 9.76467 2.46406 
24 1 8.27817 13.6398 2.46407 
27 1 8.82965 12.3072 2.46406 
35 1 9.751 10.351 1.22775 
43 1 9.11204 11.6525 1.22775 
3 1 22.5759 8.50807 2.46406 
7 1 21.7741 8.5081 1.22775 
11 1 20.3753 8.5082 1.22775 
20 1 23.4427 7.27392 2.46406 
36 1 23.7935 6.68925 1.22775 
44 1 24.4303 5.38729 1.22775 
47 1 19.637 8.50818 2.46406 
51 1 18.2114 8.50772 2.46406 
55 1 17.484 8.50717 1.22775 
17 1 23.4427 9.74222 2.46406 
33 1 23.7935 10.3269 1.22775 
41 1 24.4303 11.6289 1.22775 
15 1 26.5208 0.853534 2.46406 
23 1 25.2496 3.39445 2.46406 
28 1 24.7086 4.73029 2.46406 
31 1 26.1688 1.43743 1.22775 
39 1 25.5289 2.7378 1.22775 
2 1 27.388 17.3963 2.46406 
6 1 28.1901 17.3964 1.22775 
10 1 29.5889 17.3966 1.22775 
14 1 26.5208 16.1626 2.46406 
22 1 25.2496 13.6217 2.46406 
25 1 24.7086 12.2859 2.46406 
30 1 26.1688 15.5787 1.22775 
38 1 25.5289 14.2783 1.22775 
46 1 30.3268 17.3967 2.46406 
50 1 31.7524 17.3964 2.46406 
54 1 32.4799 17.3954 1.22775 
ITEM: TIMESTEP
130
ITEM: NUMBER OF ATOMS
59
ITEM: BOX BOUNDS pp pp pp
-7.9436729648132108e-03 3.2815943672964792e+01
2.3647003170485488e-03 1.7777635299682952e+01
1.7817640852237285e-04 2.4728218235914770e+00
ITEM: ATOMS id type x y z 
13 1 7.03674 0.857475 2.46409 
29 1 7.59483 1.35929 1.22777 
37 1 7.93424 2.81956 1.22777 
21 1 8.1723 3.4555 2.46409 
1 1 6.18502 17.4512 2.46409 
5 1 5.37681 17.4374 1.22777 
9 1 3.97706 17.4032 1.22776 
16 1 7.02005 16.1863 2.46408 
32 1 7.36096 15.5984 1.22776 
40 1 7.99566 14.294 1.22776 
45 1 3.2396 17.3944 2.46408 
49 1 1.81422 17.3904 2.46408 
53 1 1.08649 17.3917 1.22776 