ITEM: TIMESTEP
0
ITEM: NUMBER OF ATOMS
320
ITEM: BOX BOUNDS pp pp pp
0.0000000000000000e+00 1.8924299999999999e+01
0.0000000000000000e+00 1.8924299999999999e+01
0.0000000000000000e+00 1.8924299999999999e+01
ITEM: ATOMS id type x y z 
10 1 6.11842 6.11842 0.276673 
11 1 7.46942 5.71836 0.0620717 
22 1 0.276673 6.11842 6.11842 
23 1 0.0620717 7.46942 5.71836 
34 1 6.11842 0.276673 6.11842 
35 1 5.71836 0.0620717 7.46942 
89 1 3.34373 5.00775 1.38734 
90 1 1.99273 4.79315 0.987281 
97 1 5.00775 3.34373 1.38734 
98 1 4.79315 3.74379 2.73835 
105 1 3.34373 1.38734 5.00775 
106 1 3.74379 2.73835 4.79315 
121 1 5.00775 1.38734 3.34373 
122 1 4.79315 0.987281 1.99273 
125 1 8.07481 8.07481 0.276673 
126 1 6.7238 8.47487 0.0620717 
127 1 0.416335 4.31474 4.31474 
130 1 4.31474 0.416335 4.31474 
133 1 0.416335 0.416335 0.416335 
136 1 4.31474 4.31474 0.416335 
157 1 1.38734 3.34373 5.00775 
158 1 0.987281 1.99273 4.79315 
165 1 1.38734 5.00775 3.34373 
166 1 2.73835 4.79315 3.74379 
189 1 0.276673 8.07481 8.07481 
190 1 0.0620717 6.7238 8.47487 
207 1 8.07481 0.276673 8.07481 
208 1 8.47487 0.0620717 6.7238 
240 1 5.71836 7.46942 0.0620717 
244 1 7.46942 0.0620717 5.71836 
248 1 0.0620717 5.71836 7.46942 
252 1 8.47487 6.7238 0.0620717 
268 1 6.7238 0.0620717 8.47487 
277 1 4.79315 1.99273 0.987281 
284 1 3.74379 4.79315 2.73835 
296 1 0.0620717 8.47487 6.7238 
297 1 2.73835 3.74379 4.79315 
306 1 0.987281 4.79315 1.99273 
315 1 1.99273 0.987281 4.79315 
319 1 4.79315 2.73835 3.74379 
16 1 4.4544 6.11842 17.537 
17 1 4.669 7.46942 17.937 
25 1 6.11842 4.4544 17.537 
26 1 5.71836 4.669 16.186 
39 1 9.04582 9.04582 18.508 
42 1 5.14741 5.14741 18.508 
43 1 1.38734 1.38734 18.6476 
44 1 0.987281 2.73835 18.8622 
45 1 5.14741 9.04582 14.6096 
48 1 9.04582 5.14741 14.6096 
79 1 3.34373 3.34373 18.6476 
80 1 3.74379 1.99273 18.8622 
85 1 3.34373 9.18548 12.8059 
86 1 1.99273 9.40008 13.2059 
95 1 9.18548 3.34373 12.8059 
96 1 9.40008 3.74379 11.4549 
119 1 9.18548 1.38734 10.8495 
120 1 9.40008 0.987281 12.2005 
161 1 1.38734 9.18548 10.8495 
162 1 2.73835 9.40008 10.4494 
179 1 6.11842 8.07481 13.9166 
180 1 7.46942 8.47487 14.1312 
185 1 4.4544 8.07481 15.5806 
186 1 4.669 6.7238 15.1805 
201 1 8.07481 4.4544 15.5806 
202 1 8.47487 4.669 16.9316 
215 1 8.07481 6.11842 13.9166 
216 1 6.7238 5.71836 14.1312 
227 1 2.73835 0.987281 18.8622 
242 1 7.46942 4.669 17.937 
245 1 4.669 5.71836 16.186 
264 1 8.47487 7.46942 14.1312 
266 1 6.7238 4.669 15.1805 
274 1 1.99273 3.74379 18.8622 
279 1 9.40008 1.99273 13.2059 
281 1 3.74379 9.40008 11.4549 
288 1 5.71836 6.7238 14.1312 
293 1 4.669 8.47487 16.9316 
307 1 0.987281 9.40008 12.2005 
317 1 9.40008 2.73835 10.4494 
4 1 6.11842 17.537 4.4544 
5 1 7.46942 17.937 4.669 
13 1 4.4544 17.537 6.11842 
14 1 4.669 16.186 5.71836 
51 1 9.04582 18.508 9.04582 
54 1 5.14741 18.508 5.14741 
55 1 1.38734 18.6476 1.38734 
56 1 2.73835 18.8622 0.987281 
57 1 9.04582 14.6096 5.14741 
60 1 5.14741 14.6096 9.04582 
93 1 9.18548 10.8495 1.38734 
94 1 9.40008 10.4494 2.73835 
103 1 3.34373 12.8059 9.18548 
104 1 3.74379 11.4549 9.40008 
113 1 3.34373 18.6476 3.34373 
114 1 1.99273 18.8622 3.74379 
117 1 9.18548 12.8059 3.34373 
118 1 9.40008 13.2059 1.99273 
131 1 8.07481 15.5806 4.4544 
132 1 6.7238 15.1805 4.669 
149 1 8.07481 13.9166 6.11842 
150 1 8.47487 14.1312 7.46942 
155 1 1.38734 10.8495 9.18548 
156 1 0.987281 12.2005 9.40008 
187 1 4.4544 15.5806 8.07481 
188 1 4.669 16.9316 8.47487 
193 1 6.11842 13.9166 8.07481 
194 1 5.71836 14.1312 6.7238 
235 1 0.987281 18.8622 2.73835 
237 1 5.71836 16.186 4.669 
246 1 4.669 17.937 7.46942 
249 1 8.47487 16.9316 4.669 
256 1 6.7238 14.1312 5.71836 
280 1 9.40008 12.2005 0.987281 
292 1 7.46942 14.1312 8.47487 
294 1 4.669 15.1805 6.7238 
299 1 2.73835 10.4494 9.40008 
311 1 3.74379 18.8622 1.99273 
313 1 1.99273 13.2059 9.40008 
318 1 9.40008 11.4549 3.74379 
15 1 0.416335 9.87848 9.87848 
18 1 0.416335 13.7769 13.7769 
19 1 0.276673 17.537 17.537 
20 1 0.0620717 16.186 17.937 
21 1 4.31474 9.87848 13.7769 
24 1 4.31474 13.7769 9.87848 
40 1 1.38734 12.8059 14.4699 
41 1 0.987281 11.4549 14.2553 
49 1 1.38734 14.4699 12.8059 
50 1 2.73835 14.2553 13.2059 
76 1 3.34373 10.8495 14.4699 
77 1 3.74379 12.2005 14.2553 
99 1 5.00775 10.8495 12.8059 
100 1 4.79315 10.4494 11.4549 
109 1 3.34373 14.4699 10.8495 
110 1 1.99273 14.2553 10.4494 
123 1 5.00775 12.8059 10.8495 
124 1 4.79315 13.2059 12.2005 
147 1 8.07481 9.73882 17.537 
148 1 8.47487 9.52422 16.186 
183 1 6.11842 15.5806 9.73882 
184 1 7.46942 15.1805 9.52422 
191 1 0.276673 15.5806 15.5806 
192 1 0.0620717 16.9316 15.1805 
199 1 6.11842 9.73882 15.5806 
200 1 5.71836 9.52422 16.9316 
211 1 8.07481 17.537 9.73882 
212 1 6.7238 17.937 9.52422 
225 1 2.73835 13.2059 14.2553 
234 1 0.987281 14.2553 11.4549 
247 1 0.0620717 17.937 16.186 
254 1 6.7238 9.52422 17.937 
261 1 8.47487 16.186 9.52422 
276 1 1.99273 10.4494 14.2553 
278 1 4.79315 12.2005 13.2059 
285 1 5.71836 16.9316 9.52422 
290 1 7.46942 9.52422 15.1805 
295 1 0.0620717 15.1805 16.9316 
310 1 3.74379 14.2553 12.2005 
320 1 4.79315 11.4549 10.4494 
1 1 17.537 6.11842 4.4544 
2 1 16.186 5.71836 4.669 
28 1 17.537 4.4544 6.11842 
29 1 17.937 4.669 7.46942 
63 1 18.508 9.04582 9.04582 
66 1 18.508 5.14741 5.14741 
67 1 18.6476 1.38734 1.38734 
68 1 18.8622 0.987281 2.73835 
69 1 14.6096 5.14741 9.04582 
72 1 14.6096 9.04582 5.14741 
87 1 10.8495 9.18548 1.38734 
88 1 12.2005 9.40008 0.987281 
101 1 10.8495 1.38734 9.18548 
102 1 10.4494 2.73835 9.40008 
134 1 15.5806 8.07481 4.4544 
135 1 16.9316 8.47487 4.669 
139 1 13.9166 8.07481 6.11842 
140 1 14.1312 6.7238 5.71836 
153 1 12.8059 3.34373 9.18548 
154 1 13.2059 1.99273 9.40008 
163 1 12.8059 9.18548 3.34373 
164 1 11.4549 9.40008 3.74379 
173 1 18.6476 3.34373 3.34373 
174 1 18.8622 3.74379 1.99273 
203 1 15.5806 4.4544 8.07481 
204 1 15.1805 4.669 6.7238 
223 1 13.9166 6.11842 8.07481 
224 1 14.1312 7.46942 8.47487 
231 1 18.8622 2.73835 0.987281 
238 1 17.937 7.46942 4.669 
241 1 16.186 4.669 5.71836 
250 1 15.1805 6.7238 4.669 
260 1 14.1312 8.47487 7.46942 
265 1 16.9316 4.669 8.47487 
272 1 14.1312 5.71836 6.7238 
282 1 10.4494 9.40008 2.73835 
300 1 11.4549 3.74379 9.40008 
304 1 18.8622 1.99273 3.74379 
308 1 13.2059 9.40008 1.99273 
314 1 12.2005 0.987281 9.40008 
27 1 9.87848 0.416335 9.87848 
30 1 13.7769 0.416335 13.7769 
31 1 17.537 0.276673 17.537 
32 1 17.937 0.0620717 16.186 
33 1 13.7769 4.31474 9.87848 
36 1 9.87848 4.31474 13.7769 
37 1 12.8059 1.38734 14.4699 
38 1 13.2059 2.73835 14.2553 
64 1 14.4699 1.38734 12.8059 
65 1 14.2553 0.987281 11.4549 
73 1 10.8495 3.34373 14.4699 
74 1 10.4494 1.99273 14.2553 
91 1 10.8495 5.00775 12.8059 
92 1 12.2005 4.79315 13.2059 
143 1 9.73882 8.07481 17.537 
144 1 9.52422 6.7238 17.937 
167 1 12.8059 5.00775 10.8495 
168 1 11.4549 4.79315 10.4494 
171 1 14.4699 3.34373 10.8495 
172 1 14.2553 3.74379 12.2005 
181 1 17.537 8.07481 9.73882 
182 1 16.186 8.47487 9.52422 
205 1 15.5806 0.276673 15.5806 
206 1 15.1805 0.0620717 16.9316 
209 1 15.5806 6.11842 9.73882 
210 1 16.9316 5.71836 9.52422 
219 1 9.73882 6.11842 15.5806 
220 1 9.52422 7.46942 15.1805 
226 1 11.4549 0.987281 14.2553 
229 1 14.2553 2.73835 13.2059 
243 1 16.186 0.0620717 17.937 
257 1 9.52422 8.47487 16.186 
262 1 15.1805 7.46942 9.52422 
267 1 16.9316 0.0620717 15.1805 
269 1 9.52422 5.71836 16.9316 
275 1 12.2005 3.74379 14.2553 
283 1 10.4494 4.79315 11.4549 
286 1 17.937 6.7238 9.52422 
302 1 14.2553 1.99273 10.4494 
305 1 13.2059 4.79315 12.2005 
3 1 9.87848 9.87848 0.416335 
6 1 13.7769 13.7769 0.416335 
7 1 17.537 17.537 0.276673 
8 1 16.186 17.937 0.0620717 
9 1 9.87848 13.7769 4.31474 
12 1 13.7769 9.87848 4.31474 
52 1 12.8059 14.4699 1.38734 
53 1 11.4549 14.2553 0.987281 
61 1 14.4699 12.8059 1.38734 
62 1 14.2553 13.2059 2.73835 
107 1 10.8495 12.8059 5.00775 
108 1 10.4494 11.4549 4.79315 
111 1 10.8495 14.4699 3.34373 
112 1 12.2005 14.2553 3.74379 
128 1 15.5806 15.5806 0.276673 
129 1 16.9316 15.1805 0.0620717 
141 1 9.73882 15.5806 6.11842 
142 1 9.52422 16.9316 5.71836 
145 1 15.5806 9.73882 6.11842 
146 1 15.1805 9.52422 7.46942 
159 1 12.8059 10.8495 5.00775 
160 1 13.2059 12.2005 4.79315 
169 1 14.4699 10.8495 3.34373 
170 1 14.2553 10.4494 1.99273 
197 1 17.537 9.73882 8.07481 
198 1 17.937 9.52422 6.7238 
217 1 9.73882 17.537 8.07481 
218 1 9.52422 16.186 8.47487 
230 1 14.2553 11.4549 0.987281 
233 1 13.2059 14.2553 2.73835 
239 1 17.937 16.186 0.0620717 
251 1 15.1805 16.9316 0.0620717 
253 1 16.9316 9.52422 5.71836 
258 1 9.52422 15.1805 7.46942 
270 1 9.52422 17.937 6.7238 
289 1 16.186 9.52422 8.47487 
298 1 11.4549 10.4494 4.79315 
301 1 14.2553 12.2005 3.74379 
309 1 10.4494 14.2553 1.99273 
316 1 12.2005 13.2059 4.79315 
46 1 12.8059 12.8059 18.6476 
47 1 13.2059 11.4549 18.8622 
58 1 12.8059 18.6476 12.8059 
59 1 11.4549 18.8622 13.2059 
70 1 18.6476 12.8059 12.8059 
71 1 18.8622 13.2059 11.4549 
75 1 14.6096 14.6096 18.508 
78 1 18.508 18.508 18.508 
81 1 18.508 14.6096 14.6096 
82 1 10.8495 10.8495 18.6476 
83 1 10.4494 12.2005 18.8622 
84 1 14.6096 18.508 14.6096 
115 1 10.8495 18.6476 10.8495 
116 1 12.2005 18.8622 10.4494 
137 1 13.9166 15.5806 17.537 
138 1 14.1312 16.9316 17.937 
151 1 15.5806 13.9166 17.537 
152 1 15.1805 14.1312 16.186 
175 1 18.6476 10.8495 10.8495 
176 1 18.8622 10.4494 12.2005 
177 1 17.537 15.5806 13.9166 
178 1 16.186 15.1805 14.1312 
195 1 17.537 13.9166 15.5806 
196 1 17.937 14.1312 16.9316 
213 1 15.5806 17.537 13.9166 
214 1 16.9316 17.937 14.1312 
221 1 13.9166 17.537 15.5806 
222 1 14.1312 16.186 15.1805 
228 1 11.4549 13.2059 18.8622 
232 1 18.8622 11.4549 13.2059 
236 1 13.2059 18.8622 11.4549 
255 1 16.9316 14.1312 17.937 
259 1 14.1312 15.1805 16.186 
263 1 15.1805 16.186 14.1312 
271 1 14.1312 17.937 16.9316 
273 1 12.2005 10.4494 18.8622 
287 1 17.937 16.9316 14.1312 
291 1 16.186 14.1312 15.1805 
303 1 18.8622 12.2005 10.4494 
312 1 10.4494 18.8622 12.2005 
ITEM: TIMESTEP
10
ITEM: NUMBER OF ATOMS
320
ITEM: BOX BOUNDS pp pp pp
0.0000000000000000e+00 1.8924299999999999e+01
0.0000000000000000e+00 1.8924299999999999e+01
0.0000000000000000e+00 1.8924299999999999e+01
ITEM: ATOMS id type x y z 
10 1 6.12836 6.12836 0.28873 
11 1 7.4664 5.71299 0.0556015 
22 1 0.28873 6.12836 6.12836 
23 1 0.0556015 7.4664 5.71299 
34 1 6.12836 0.28873 6.12836 
35 1 5.71299 0.0556015 7.4664 
89 1 3.33379 5.01981 1.39728 
90 1 1.99575 4.78668 0.981914 
97 1 5.01981 3.33379 1.39728 
98 1 4.78668 3.74916 2.73532 
105 1 3.33379 1.39728 5.01981 
106 1 3.74916 2.73532 4.78668 
121 1 5.01981 1.39728 3.33379 
122 1 4.78668 0.981914 1.99575 
125 1 8.06487 8.06487 0.28873 
126 1 6.72683 8.48024 0.0556015 
127 1 0.46227 4.2688 4.2688 
130 1 4.2688 0.46227 4.2688 
133 1 0.46227 0.46227 0.46227 
136 1 4.2688 4.2688 0.46227 
157 1 1.39728 3.33379 5.01981 
158 1 0.981914 1.99575 4.78668 
165 1 1.39728 5.01981 3.33379 
166 1 2.73532 4.78668 3.74916 
189 1 0.28873 8.06487 8.06487 
190 1 0.0556015 6.72683 8.48024 
207 1 8.06487 0.28873 8.06487 
208 1 8.48024 0.0556015 6.72683 
240 1 5.71299 7.4664 0.0556015 
244 1 7.4664 0.0556015 5.71299 
248 1 0.0556015 5.71299 7.4664 
252 1 8.48024 6.72683 0.0556015 
268 1 6.72683 0.0556015 8.48024 
277 1 4.78668 1.99575 0.981914 
284 1 3.74916 4.78668 2.73532 
296 1 0.0556015 8.48024 6.72683 
297 1 2.73532 3.74916 4.78668 
306 1 0.981914 4.78668 1.99575 
315 1 1.99575 0.981914 4.78668 
319 1 4.78668 2.73532 3.74916 
16 1 4.44234 6.12836 17.527 
17 1 4.67547 7.4664 17.9424 
25 1 6.12836 4.44234 17.527 
26 1 5.71299 4.67547 16.189 
39 1 8.99988 8.99988 18.462 
42 1 5.19335 5.19335 18.462 
43 1 1.39728 1.39728 18.6356 
44 1 0.981914 2.73532 18.8687 
45 1 5.19335 8.99988 14.6555 
48 1 8.99988 5.19335 14.6555 
79 1 3.33379 3.33379 18.6356 
80 1 3.74916 1.99575 18.8687 
85 1 3.33379 9.17342 12.7959 
86 1 1.99575 9.40655 13.2113 
95 1 9.17342 3.33379 12.7959 
96 1 9.40655 3.74916 11.4579 
119 1 9.17342 1.39728 10.8594 
120 1 9.40655 0.981914 12.1975 
161 1 1.39728 9.17342 10.8594 
162 1 2.73532 9.40655 10.4441 
179 1 6.12836 8.06487 13.9045 
180 1 7.4664 8.48024 14.1376 
185 1 4.44234 8.06487 15.5905 
186 1 4.67547 6.72683 15.1751 
201 1 8.06487 4.44234 15.5905 
202 1 8.48024 4.67547 16.9285 
215 1 8.06487 6.12836 13.9045 
216 1 6.72683 5.71299 14.1376 
227 1 2.73532 0.981914 18.8687 
242 1 7.4664 4.67547 17.9424 
245 1 4.67547 5.71299 16.189 
264 1 8.48024 7.4664 14.1376 
266 1 6.72683 4.67547 15.1751 
274 1 1.99575 3.74916 18.8687 
279 1 9.40655 1.99575 13.2113 
281 1 3.74916 9.40655 11.4579 
288 1 5.71299 6.72683 14.1376 
293 1 4.67547 8.48024 16.9285 
307 1 0.981914 9.40655 12.1975 
317 1 9.40655 2.73532 10.4441 
4 1 6.12836 17.527 4.44234 
5 1 7.4664 17.9424 4.67547 
13 1 4.44234 17.527 6.12836 
14 1 4.67547 16.189 5.71299 
51 1 8.99988 18.462 8.99988 
54 1 5.19335 18.462 5.19335 
55 1 1.39728 18.6356 1.39728 
56 1 2.73532 18.8687 0.981914 
57 1 8.99988 14.6555 5.19335 
60 1 5.19335 14.6555 8.99988 
93 1 9.17342 10.8594 1.39728 
94 1 9.40655 10.4441 2.73532 
103 1 3.33379 12.7959 9.17342 
104 1 3.74916 11.4579 9.40655 
113 1 3.33379 18.6356 3.33379 
114 1 1.99575 18.8687 3.74916 
117 1 9.17342 12.7959 3.33379 
118 1 9.40655 13.2113 1.99575 
131 1 8.06487 15.5905 4.44234 
132 1 6.72683 15.1751 4.67547 
149 1 8.06487 13.9045 6.12836 
150 1 8.48024 14.1376 7.4664 
155 1 1.39728 10.8594 9.17342 
156 1 0.981914 12.1975 9.40655 
187 1 4.44234 15.5905 8.06487 
188 1 4.67547 16.9285 8.48024 
193 1 6.12836 13.9045 8.06487 
194 1 5.71299 14.1376 6.72683 
235 1 0.981914 18.8687 2.73532 
237 1 5.71299 16.189 4.67547 
246 1 4.67547 17.9424 7.4664 
249 1 8.48024 16.9285 4.67547 
256 1 6.72683 14.1376 5.71299 
280 1 9.40655 12.1975 0.981914 
292 1 7.4664 14.1376 8.48024 
294 1 4.67547 15.1751 6.72683 
299 1 2.73532 10.4441 9.40655 
311 1 3.74916 18.8687 1.99575 
313 1 1.99575 13.2113 9.40655 
318 1 9.40655 11.4579 3.74916 
15 1 0.46227 9.92442 9.92442 
18 1 0.46227 13.731 13.731 
19 1 0.28873 17.527 17.527 
20 1 0.0556015 16.189 17.9424 
21 1 4.2688 9.92442 13.731 
24 1 4.2688 13.731 9.92442 
40 1 1.39728 12.7959 14.482 
41 1 0.981914 11.4579 14.2488 
49 1 1.39728 14.482 12.7959 
50 1 2.73532 14.2488 13.2113 
76 1 3.33379 10.8594 14.482 
77 1 3.74916 12.1975 14.2488 
99 1 5.01981 10.8594 12.7959 
100 1 4.78668 10.4441 11.4579 
109 1 3.33379 14.482 10.8594 
110 1 1.99575 14.2488 10.4441 
123 1 5.01981 12.7959 10.8594 
124 1 4.78668 13.2113 12.1975 
147 1 8.06487 9.75088 17.527 
148 1 8.48024 9.51775 16.189 
183 1 6.12836 15.5905 9.75088 
184 1 7.4664 15.1751 9.51775 
191 1 0.28873 15.5905 15.5905 
192 1 0.0556015 16.9285 15.1751 
199 1 6.12836 9.75088 15.5905 
200 1 5.71299 9.51775 16.9285 
211 1 8.06487 17.527 9.75088 
212 1 6.72683 17.9424 9.51775 
225 1 2.73532 13.2113 14.2488 
234 1 0.981914 14.2488 11.4579 
247 1 0.0556015 17.9424 16.189 
254 1 6.72683 9.51775 17.9424 
261 1 8.48024 16.189 9.51775 
276 1 1.99575 10.4441 14.2488 
278 1 4.78668 12.1975 13.2113 
285 1 5.71299 16.9285 9.51775 
290 1 7.4664 9.51775 15.1751 
295 1 0.0556015 15.1751 16.9285 
310 1 3.74916 14.2488 12.1975 
320 1 4.78668 11.4579 10.4441 
1 1 17.527 6.12836 4.44234 
2 1 16.189 5.71299 4.67547 
28 1 17.527 4.44234 6.12836 
29 1 17.9424 4.67547 7.4664 
63 1 18.462 8.99988 8.99988 
66 1 18.462 5.19335 5.19335 
67 1 18.6356 1.39728 1.39728 
68 1 18.8687 0.981914 2.73532 
69 1 14.6555 5.19335 8.99988 
72 1 14.6555 8.99988 5.19335 
87 1 10.8594 9.17342 1.39728 
88 1 12.1975 9.40655 0.981914 
101 1 10.8594 1.39728 9.17342 
102 1 10.4441 2.73532 9.40655 
134 1 15.5905 8.06487 4.44234 
135 1 16.9285 8.48024 4.67547 
139 1 13.9045 8.06487 6.12836 
140 1 14.1376 6.72683 5.71299 
153 1 12.7959 3.33379 9.17342 
154 1 13.2113 1.99575 9.40655 
163 1 12.7959 9.17342 3.33379 
164 1 11.4579 9.40655 3.74916 
173 1 18.6356 3.33379 3.33379 
174 1 18.8687 3.74916 1.99575 
203 1 15.5905 4.44234 8.06487 
204 1 15.1751 4.67547 6.72683 
223 1 13.9045 6.12836 8.06487 
224 1 14.1376 7.4664 8.48024 
231 1 18.8687 2.73532 0.981914 
238 1 17.9424 7.4664 4.67547 
241 1 16.189 4.67547 5.71299 
250 1 15.1751 6.72683 4.67547 
260 1 14.1376 8.48024 7.4664 
265 1 16.9285 4.67547 8.48024 
272 1 14.1376 5.71299 6.72683 
282 1 10.4441 9.40655 2.73532 
300 1 11.4579 3.74916 9.40655 
304 1 18.8687 1.99575 3.74916 
308 1 13.2113 9.40655 1.99575 
314 1 12.1975 0.981914 9.40655 
27 1 9.92442 0.46227 9.92442 
30 1 13.731 0.46227 13.731 
31 1 17.527 0.28873 17.527 
32 1 17.9424 0.0556015 16.189 
33 1 13.731 4.2688 9.92442 
36 1 9.92442 4.2688 13.731 
37 1 12.7959 1.39728 14.482 
38 1 13.2113 2.73532 14.2488 
64 1 14.482 1.39728 12.7959 
65 1 14.2488 0.981914 11.4579 
73 1 10.8594 3.33379 14.482 
74 1 10.4441 1.99575 14.2488 
91 1 10.8594 5.01981 12.7959 
92 1 12.1975 4.78668 13.2113 
143 1 9.75088 8.06487 17.527 
144 1 9.51775 6.72683 17.9424 
167 1 12.7959 5.01981 10.8594 
168 1 11.4579 4.78668 10.4441 
171 1 14.482 3.33379 10.8594 
172 1 14.2488 3.74916 12.1975 
181 1 17.527 8.06487 9.75088 
182 1 16.189 8.48024 9.51775 
205 1 15.5905 0.28873 15.5905 
206 1 15.1751 0.0556015 16.9285 
209 1 15.5905 6.12836 9.75088 
210 1 16.9285 5.71299 9.51775 
219 1 9.75088 6.12836 15.5905 
220 1 9.51775 7.4664 15.1751 
226 1 11.4579 0.981914 14.2488 
229 1 14.2488 2.73532 13.2113 
243 1 16.189 0.0556015 17.9424 
257 1 9.51775 8.48024 16.189 
262 1 15.1751 7.4664 9.51775 
267 1 16.9285 0.0556015 15.1751 
269 1 9.51775 5.71299 16.9285 
275 1 12.1975 3.74916 14.2488 
283 1 10.4441 4.78668 11.4579 
286 1 17.9424 6.72683 9.51775 
302 1 14.2488 1.99575 10.4441 
305 1 13.2113 4.78668 12.1975 
3 1 9.92442 9.92442 0.46227 
6 1 13.731 13.731 0.46227 
7 1 17.527 17.527 0.28873 
8 1 16.189 17.9424 0.0556015 
9 1 9.92442 13.731 4.2688 
12 1 13.731 9.92442 4.2688 
52 1 12.7959 14.482 1.39728 
53 1 11.4579 14.2488 0.981914 
61 1 14.482 12.7959 1.39728 
62 1 14.2488 13.2113 2.73532 
107 1 10.8594 12.7959 5.01981 
108 1 10.4441 11.4579 4.78668 
111 1 10.8594 14.482 3.33379 
112 1 12.1975 14.2488 3.74916 
128 1 15.5905 15.5905 0.28873 
129 1 16.9285 15.1751 0.0556015 
141 1 9.75088 15.5905 6.12836 
142 1 9.51775 16.9285 5.71299 
145 1 15.5905 9.75088 6.12836 
146 1 15.1751 9.51775 7.4664 
159 1 12.7959 10.8594 5.01981 
160 1 13.2113 12.1975 4.78668 
169 1 14.482 10.8594 3.33379 
170 1 14.2488 10.4441 1.99575 
197 1 17.527 9.75088 8.06487 
198 1 17.9424 9.51775 6.72683 
217 1 9.75088 17.527 8.06487 
218 1 9.51775 16.189 8.48024 
230 1 14.2488 11.4579 0.981914 
233 1 13.2113 14.2488 2.73532 
239 1 17.9424 16.189 0.0556015 
251 1 15.1751 16.9285 0.0556015 
253 1 16.9285 9.51775 5.71299 
258 1 9.51775 15.1751 7.4664 
270 1 9.51775 17.9424 6.72683 
289 1 16.189 9.51775 8.48024 
298 1 11.4579 10.4441 4.78668 
301 1 14.2488 12.1975 3.74916 
309 1 10.4441 14.2488 1.99575 
316 1 12.1975 13.2113 4.78668 
46 1 12.7959 12.7959 18.6356 
47 1 13.2113 11.4579 18.8687 
58 1 12.7959 18.6356 12.7959 
59 1 11.4579 18.8687 13.2113 
70 1 18.6356 12.7959 12.7959 
71 1 18.8687 13.2113 11.4579 
75 1 14.6555 14.6555 18.462 
78 1 18.462 18.462 18.462 
81 1 18.462 14.6555 14.6555 
82 1 10.8594 10.8594 18.6356 
83 1 10.4441 12.1975 18.8687 
84 1 14.6555 18.462 14.6555 
115 1 10.8594 18.6356 10.8594 
116 1 12.1975 18.8687 10.4441 
137 1 13.9045 15.5905 17.527 
138 1 14.1376 16.9285 17.9424 
151 1 15.5905 13.9045 17.527 
152 1 15.1751 14.1376 16.189 
175 1 18.6356 10.8594 10.8594 
176 1 18.8687 10.4441 12.1975 
177 1 17.527 15.5905 13.9045 
178 1 16.189 15.1751 14.1376 
195 1 17.527 13.9045 15.5905 
196 1 17.9424 14.1376 16.9285 
213 1 15.5905 17.527 13.9045 
214 1 16.9285 17.9424 14.1376 
221 1 13.9045 17.527 15.5905 
222 1 14.1376 16.189 15.1751 
228 1 11.4579 13.2113 18.8687 
232 1 18.8687 11.4579 13.2113 
236 1 13.2113 18.8687 11.4579 
255 1 16.9285 14.1376 17.9424 
259 1 14.1376 15.1751 16.189 
263 1 15.1751 16.189 14.1376 
271 1 14.1376 17.9424 16.9285 
273 1 12.1975 10.4441 18.8687 
287 1 17.9424 16.9285 14.1376 
291 1 16.189 14.1376 15.1751 
303 1 18.8687 12.1975 10.4441 
312 1 10.4441 18.8687 12.1975 
ITEM: TIMESTEP
20
ITEM: NUMBER OF ATOMS
320
ITEM: BOX BOUNDS pp pp pp
0.0000000000000000e+00 1.8924299999999999e+01
0.0000000000000000e+00 1.8924299999999999e+01
0.0000000000000000e+00 1.8924299999999999e+01
ITEM: ATOMS id type x y z 
10 1 6.13122 6.13122 0.289249 
11 1 7.46636 5.71081 0.0568791 
22 1 0.289249 6.13122 6.13122 
23 1 0.0568791 7.46636 5.71081 
34 1 6.13122 0.289249 6.13122 
35 1 5.71081 0.0568791 7.46636 
89 1 3.33093 5.02032 1.40014 
90 1 1.99579 4.78795 0.979731 
97 1 5.02032 3.33093 1.40014 
98 1 4.78795 3.75134 2.73529 
105 1 3.33093 1.40014 5.02032 
106 1 3.75134 2.73529 4.78795 
121 1 5.02032 1.40014 3.33093 
122 1 4.78795 0.979731 1.99579 
125 1 8.06201 8.06201 0.289249 
126 1 6.72686 8.48242 0.0568791 
127 1 0.464717 4.26636 4.26636 
130 1 4.26636 0.464717 4.26636 
133 1 0.464717 0.464717 0.464717 
136 1 4.26636 4.26636 0.464717 
157 1 1.40014 3.33093 5.02032 
158 1 0.979731 1.99579 4.78795 
165 1 1.40014 5.02032 3.33093 
166 1 2.73529 4.78795 3.75134 
189 1 0.289249 8.06201 8.06201 
190 1 0.0568791 6.72686 8.48242 
207 1 8.06201 0.289249 8.06201 
208 1 8.48242 0.0568791 6.72686 
240 1 5.71081 7.46636 0.0568791 
244 1 7.46636 0.0568791 5.71081 
248 1 0.0568791 5.71081 7.46636 
252 1 8.48242 6.72686 0.0568791 
268 1 6.72686 0.0568791 8.48242 
277 1 4.78795 1.99579 0.979731 
284 1 3.75134 4.78795 2.73529 
296 1 0.0568791 8.48242 6.72686 
297 1 2.73529 3.75134 4.78795 
306 1 0.979731 4.78795 1.99579 
315 1 1.99579 0.979731 4.78795 
319 1 4.78795 2.73529 3.75134 
16 1 4.44183 6.13122 17.5242 
17 1 4.6742 7.46636 17.9446 
25 1 6.13122 4.44183 17.5242 
26 1 5.71081 4.6742 16.189 
39 1 8.99743 8.99743 18.4596 
42 1 5.19579 5.19579 18.4596 
43 1 1.40014 1.40014 18.6351 
44 1 0.979731 2.73529 18.8674 
45 1 5.19579 8.99743 14.6579 
48 1 8.99743 5.19579 14.6579 
79 1 3.33093 3.33093 18.6351 
80 1 3.75134 1.99579 18.8674 
85 1 3.33093 9.1729 12.7931 
86 1 1.99579 9.40527 13.2135 
95 1 9.1729 3.33093 12.7931 
96 1 9.40527 3.75134 11.4579 
119 1 9.1729 1.40014 10.8623 
120 1 9.40527 0.979731 12.1974 
161 1 1.40014 9.1729 10.8623 
162 1 2.73529 9.40527 10.4419 
179 1 6.13122 8.06201 13.904 
180 1 7.46636 8.48242 14.1363 
185 1 4.44183 8.06201 15.5934 
186 1 4.6742 6.72686 15.173 
201 1 8.06201 4.44183 15.5934 
202 1 8.48242 4.6742 16.9285 
215 1 8.06201 6.13122 13.904 
216 1 6.72686 5.71081 14.1363 
227 1 2.73529 0.979731 18.8674 
242 1 7.46636 4.6742 17.9446 
245 1 4.6742 5.71081 16.189 
264 1 8.48242 7.46636 14.1363 
266 1 6.72686 4.6742 15.173 
274 1 1.99579 3.75134 18.8674 
279 1 9.40527 1.99579 13.2135 
281 1 3.75134 9.40527 11.4579 
288 1 5.71081 6.72686 14.1363 
293 1 4.6742 8.48242 16.9285 
307 1 0.979731 9.40527 12.1974 
317 1 9.40527 2.73529 10.4419 
4 1 6.13122 17.5242 4.44183 
5 1 7.46636 17.9446 4.6742 
13 1 4.44183 17.5242 6.13122 
14 1 4.6742 16.189 5.71081 
51 1 8.99743 18.4596 8.99743 
54 1 5.19579 18.4596 5.19579 
55 1 1.40014 18.6351 1.40014 
56 1 2.73529 18.8674 0.979731 
57 1 8.99743 14.6579 5.19579 
60 1 5.19579 14.6579 8.99743 
93 1 9.1729 10.8623 1.40014 
94 1 9.40527 10.4419 2.73529 
103 1 3.33093 12.7931 9.1729 
104 1 3.75134 11.4579 9.40527 
113 1 3.33093 18.6351 3.33093 
114 1 1.99579 18.8674 3.75134 
117 1 9.1729 12.7931 3.33093 
118 1 9.40527 13.2135 1.99579 
131 1 8.06201 15.5934 4.44183 
132 1 6.72686 15.173 4.6742 
149 1 8.06201 13.904 6.13122 
150 1 8.48242 14.1363 7.46636 
155 1 1.40014 10.8623 9.1729 
156 1 0.979731 12.1974 9.40527 
187 1 4.44183 15.5934 8.06201 
188 1 4.6742 16.9285 8.48242 
193 1 6.13122 13.904 8.06201 
194 1 5.71081 14.1363 6.72686 
235 1 0.979731 18.8674 2.73529 
237 1 5.71081 16.189 4.6742 
246 1 4.6742 17.9446 7.46636 
249 1 8.48242 16.9285 4.6742 
256 1 6.72686 14.1363 5.71081 
280 1 9.40527 12.1974 0.979731 
292 1 7.46636 14.1363 8.48242 
294 1 4.6742 15.173 6.72686 
299 1 2.73529 10.4419 9.40527 
311 1 3.75134 18.8674 1.99579 
313 1 1.99579 13.2135 9.40527 
318 1 9.40527 11.4579 3.75134 
15 1 0.464717 9.92687 9.92687 
18 1 0.464717 13.7285 13.7285 
19 1 0.289249 17.5242 17.5242 
20 1 0.0568791 16.189 17.9446 
21 1 4.26636 9.92687 13.7285 
24 1 4.26636 13.7285 9.92687 
40 1 1.40014 12.7931 14.4825 
41 1 0.979731 11.4579 14.2501 
49 1 1.40014 14.4825 12.7931 
50 1 2.73529 14.2501 13.2135 
76 1 3.33093 10.8623 14.4825 
77 1 3.75134 12.1974 14.2501 
99 1 5.02032 10.8623 12.7931 
100 1 4.78795 10.4419 11.4579 
109 1 3.33093 14.4825 10.8623 
110 1 1.99579 14.2501 10.4419 
123 1 5.02032 12.7931 10.8623 
124 1 4.78795 13.2135 12.1974 
147 1 8.06201 9.7514 17.5242 
148 1 8.48242 9.51903 16.189 
183 1 6.13122 15.5934 9.7514 
184 1 7.46636 15.173 9.51903 
191 1 0.289249 15.5934 15.5934 
192 1 0.0568791 16.9285 15.173 
199 1 6.13122 9.7514 15.5934 
200 1 5.71081 9.51903 16.9285 
211 1 8.06201 17.5242 9.7514 
212 1 6.72686 17.9446 9.51903 
225 1 2.73529 13.2135 14.2501 
234 1 0.979731 14.2501 11.4579 
247 1 0.0568791 17.9446 16.189 
254 1 6.72686 9.51903 17.9446 
261 1 8.48242 16.189 9.51903 
276 1 1.99579 10.4419 14.2501 
278 1 4.78795 12.1974 13.2135 
285 1 5.71081 16.9285 9.51903 
290 1 7.46636 9.51903 15.173 
295 1 0.0568791 15.173 16.9285 
310 1 3.75134 14.2501 12.1974 
320 1 4.78795 11.4579 10.4419 
1 1 17.5242 6.13122 4.44183 
2 1 16.189 5.71081 4.6742 
28 1 17.5242 4.44183 6.13122 
29 1 17.9446 4.6742 7.46636 
63 1 18.4596 8.99743 8.99743 
66 1 18.4596 5.19579 5.19579 
67 1 18.6351 1.40014 1.40014 
68 1 18.8674 0.979731 2.73529 
69 1 14.6579 5.19579 8.99743 
72 1 14.6579 8.99743 5.19579 
87 1 10.8623 9.1729 1.40014 
88 1 12.1974 9.40527 0.979731 
101 1 10.8623 1.40014 9.1729 
102 1 10.4419 2.73529 9.40527 
134 1 15.5934 8.06201 4.44183 
135 1 16.9285 8.48242 4.6742 
139 1 13.904 8.06201 6.13122 
140 1 14.1363 6.72686 5.71081 
153 1 12.7931 3.33093 9.1729 
154 1 13.2135 1.99579 9.40527 
163 1 12.7931 9.1729 3.33093 
164 1 11.4579 9.40527 3.75134 
173 1 18.6351 3.33093 3.33093 
174 1 18.8674 3.75134 1.99579 
203 1 15.5934 4.44183 8.06201 
204 1 15.173 4.6742 6.72686 
223 1 13.904 6.13122 8.06201 
224 1 14.1363 7.46636 8.48242 
231 1 18.8674 2.73529 0.979731 
238 1 17.9446 7.46636 4.6742 
241 1 16.189 4.6742 5.71081 
250 1 15.173 6.72686 4.6742 
260 1 14.1363 8.48242 7.46636 
265 1 16.9285 4.6742 8.48242 
272 1 14.1363 5.71081 6.72686 
282 1 10.4419 9.40527 2.73529 
300 1 11.4579 3.75134 9.40527 
304 1 18.8674 1.99579 3.75134 
308 1 13.2135 9.40527 1.99579 
314 1 12.1974 0.979731 9.40527 
27 1 9.92687 0.464717 9.92687 
30 1 13.7285 0.464717 13.7285 
31 1 17.5242 0.289249 17.5242 
32 1 17.9446 0.0568791 16.189 
33 1 13.7285 4.26636 9.92687 
36 1 9.92687 4.26636 13.7285 
37 1 12.7931 1.40014 14.4825 
38 1 13.2135 2.73529 14.2501 
64 1 14.4825 1.40014 12.7931 
65 1 14.2501 0.979731 11.4579 
73 1 10.8623 3.33093 14.4825 
74 1 10.4419 1.99579 14.2501 
91 1 10.8623 5.02032 12.7931 
92 1 12.1974 4.78795 13.2135 
143 1 9.7514 8.06201 17.5242 
144 1 9.51903 6.72686 17.9446 
167 1 12.7931 5.02032 10.8623 
168 1 11.4579 4.78795 10.4419 
171 1 14.4825 3.33093 10.8623 
172 1 14.2501 3.75134 12.1974 
181 1 17.5242 8.06201 9.7514 
182 1 16.189 8.48242 9.51903 
205 1 15.5934 0.289249 15.5934 
206 1 15.173 0.0568791 16.9285 
209 1 15.5934 6.13122 9.7514 
210 1 16.9285 5.71081 9.51903 
219 1 9.7514 6.13122 15.5934 
220 1 9.51903 7.46636 15.173 
226 1 11.4579 0.979731 14.2501 
229 1 14.2501 2.73529 13.2135 
243 1 16.189 0.0568791 17.9446 
257 1 9.51903 8.48242 16.189 
262 1 15.173 7.46636 9.51903 
267 1 16.9285 0.0568791 15.173 
269 1 9.51903 5.71081 16.9285 
275 1 12.1974 3.75134 14.2501 
283 1 10.4419 4.78795 11.4579 
286 1 17.9446 6.72686 9.51903 
302 1 14.2501 1.99579 10.4419 
305 1 13.2135 4.78795 12.1974 
3 1 9.92687 9.92687 0.464717 
6 1 13.7285 13.7285 0.464717 
7 1 17.5242 17.5242 0.289249 
8 1 16.189 17.9446 0.0568791 
9 1 9.92687 13.7285 4.26636 
12 1 13.7285 9.92687 4.26636 
52 1 12.7931 14.4825 1.40014 
53 1 11.4579 14.2501 0.979731 
61 1 14.4825 12.7931 1.40014 
62 1 14.2501 13.2135 2.73529 
107 1 10.8623 12.7931 5.02032 
108 1 10.4419 11.4579 4.78795 
111 1 10.8623 14.4825 3.33093 
112 1 12.1974 14.2501 3.75134 
128 1 15.5934 15.5934 0.289249 
129 1 16.9285 15.173 0.0568791 
141 1 9.7514 15.5934 6.13122 
142 1 9.51903 16.9285 5.71081 
145 1 15.5934 9.7514 6.13122 
146 1 15.173 9.51903 7.46636 
159 1 12.7931 10.8623 5.02032 
160 1 13.2135 12.1974 4.78795 
169 1 14.4825 10.8623 3.33093 
170 1 14.2501 10.4419 1.99579 
197 1 17.5242 9.7514 8.06201 
198 1 17.9446 9.51903 6.72686 
217 1 9.7514 17.5242 8.06201 
218 1 9.51903 16.189 8.48242 
230 1 14.2501 11.4579 0.979731 
233 1 13.2135 14.2501 2.73529 
239 1 17.9446 16.189 0.0568791 
251 1 15.173 16.9285 0.0568791 
253 1 16.9285 9.51903 5.71081 
258 1 9.51903 15.173 7.46636 
270 1 9.51903 17.9446 6.72686 
289 1 16.189 9.51903 8.48242 
298 1 11.4579 10.4419 4.78795 
301 1 14.2501 12.1974 3.75134 
309 1 10.4419 14.2501 1.99579 
316 1 12.1974 13.2135 4.78795 
46 1 12.7931 12.7931 18.6351 
47 1 13.2135 11.4579 18.8674 
58 1 12.7931 18.6351 12.7931 
59 1 11.4579 18.8674 13.2135 
70 1 18.6351 12.7931 12.7931 
71 1 18.8674 13.2135 11.4579 
75 1 14.6579 14.6579 18.4596 
78 1 18.4596 18.4596 18.4596 
81 1 18.4596 14.6579 14.6579 
82 1 10.8623 10.8623 18.6351 
83 1 10.4419 12.1974 18.8674 
84 1 14.6579 18.4596 14.6579 
115 1 10.8623 18.6351 10.8623 
116 1 12.1974 18.8674 10.4419 
137 1 13.904 15.5934 17.5242 
138 1 14.1363 16.9285 17.9446 
151 1 15.5934 13.904 17.5242 
152 1 15.173 14.1363 16.189 
175 1 18.6351 10.8623 10.8623 
176 1 18.8674 10.4419 12.1974 
177 1 17.5242 15.5934 13.904 
178 1 16.189 15.173 14.1363 
195 1 17.5242 13.904 15.5934 
196 1 17.9446 14.1363 16.9285 
213 1 15.5934 17.5242 13.904 
214 1 16.9285 17.9446 14.1363 
221 1 13.904 17.5242 15.5934 
222 1 14.1363 16.189 15.173 
228 1 11.4579 13.2135 18.8674 
232 1 18.8674 11.4579 13.2135 
236 1 13.2135 18.8674 11.4579 
255 1 16.9285 14.1363 17.9446 
259 1 14.1363 15.173 16.189 
263 1 15.173 16.189 14.1363 
271 1 14.1363 17.9446 16.9285 
273 1 12.1974 10.4419 18.8674 
287 1 17.9446 16.9285 14.1363 
291 1 16.189 14.1363 15.173 
303 1 18.8674 12.1974 10.4419 