 # File generated with Atomsk by madmaxiiemus on 2024-09-02 17:06:21
  
           2  atoms
           1  atom types
 
      0.000000000000       8.000000000000  xlo xhi
      0.000000000000       8.000000000000  ylo yhi
      0.000000000000       8.000000000000  zlo zhi
 
Masses
 
            1   1.00800000              # H
 
Atoms # charge
 
         1    1   0.000000        4.000000000000       4.000000000000       3.631000000000
         2    1   0.000000        4.000000000000       4.000000000000       4.369000000000
