ITEM: TIMESTEP
0
ITEM: NUMBER OF ATOMS
33
ITEM: BOX BOUNDS pp pp pp
0.0000000000000000e+00 7.0970000000000004e+00
0.0000000000000000e+00 7.0970000000000004e+00
0.0000000000000000e+00 2.4588000000000001e+01
ITEM: ATOMS id type x y z 
2 1 3.339 1.632 13.319 
5 1 4.651 1.581 18.133 
7 1 3.391 1.602 15.981 
8 1 2.166 1.581 18.134 
18 1 3.408 1.581 17.416 
21 1 3.338 2.875 12.602 
23 1 3.367 1.619 14.753 
24 1 3.338 0.39 12.601 
17 1 7.023 2.875 24.28 
19 1 6.997 1.619 22.129 
20 1 7.023 0.39 24.281 
22 1 6.957 1.581 19.466 
25 1 5.714 1.581 18.748 
27 1 6.974 1.602 20.9 
28 1 1.102 1.581 18.748 
30 1 7.024 1.631 23.563 
10 1 6.954 5.232 5.122 
13 1 7.023 3.938 0.307 
15 1 6.994 5.194 2.459 
16 1 7.023 6.423 0.307 
26 1 7.022 5.181 1.025 
29 1 5.711 5.232 5.839 
31 1 6.97 5.211 3.688 
32 1 1.098 5.232 5.84 
1 1 4.647 5.232 6.454 
3 1 3.388 5.211 8.606 
4 1 2.163 5.232 6.454 
6 1 3.338 5.182 11.269 
9 1 3.338 3.939 11.986 
11 1 3.365 5.194 9.834 
12 1 3.338 6.423 11.987 
14 1 3.404 5.232 7.171 
33 2 2.288 5.211 8.606 
ITEM: TIMESTEP
10
ITEM: NUMBER OF ATOMS
33
ITEM: BOX BOUNDS pp pp pp
0.0000000000000000e+00 7.0970000000000004e+00
0.0000000000000000e+00 7.0970000000000004e+00
0.0000000000000000e+00 2.4588000000000001e+01
ITEM: ATOMS id type x y z 
2 1 3.33336 1.63451 13.339 
5 1 4.65545 1.58082 18.1344 
7 1 3.39129 1.6014 15.9854 
8 1 2.16216 1.58059 18.1374 
18 1 3.40786 1.58161 17.4168 
21 1 3.34116 2.86046 12.6113 
23 1 3.368 1.61969 14.7643 
24 1 3.34046 0.403868 12.6059 
17 1 7.02655 2.88002 24.2775 
19 1 6.99817 1.61982 22.1258 
20 1 7.02721 0.388309 24.2881 
22 1 6.95706 1.58171 19.4654 
25 1 5.71033 1.58076 18.7471 
27 1 6.97258 1.60121 20.9028 
28 1 1.10533 1.58074 18.7448 
30 1 7.02118 1.63084 23.5633 
10 1 6.95519 5.23352 5.12092 
13 1 7.01947 3.93266 0.309661 
15 1 6.99245 5.19339 2.45762 
16 1 7.01931 6.42476 0.299605 
26 1 7.02498 5.1815 1.02267 
29 1 5.71117 5.23147 5.84003 
31 1 6.97055 5.21109 3.68359 
32 1 1.09789 5.22834 5.8377 
1 1 4.64828 5.23213 6.44984 
3 1 3.42275 5.20961 8.62047 
4 1 2.15288 5.23594 6.45537 
6 1 3.35067 5.18017 11.2867 
9 1 3.33779 3.91378 12.0036 
11 1 3.40304 5.19404 9.89279 
12 1 3.33964 6.44631 12.0056 
14 1 3.40764 5.2319 7.10541 
33 2 2.20411 5.21304 8.50691 
ITEM: TIMESTEP
20
ITEM: NUMBER OF ATOMS
33
ITEM: BOX BOUNDS pp pp pp
0.0000000000000000e+00 7.0970000000000004e+00
0.0000000000000000e+00 7.0970000000000004e+00
0.0000000000000000e+00 2.4588000000000001e+01
ITEM: ATOMS id type x y z 
2 1 3.3353 1.63114 13.3583 
5 1 4.6582 1.58106 18.1355 
7 1 3.39364 1.6016 16.0002 
8 1 2.16126 1.58062 18.1403 
18 1 3.40808 1.57978 17.4264 
21 1 3.33494 2.85779 12.6119 
23 1 3.3655 1.62278 14.778 
24 1 3.33619 0.408669 12.609 
17 1 7.02208 2.88172 24.2748 
19 1 6.99599 1.62108 22.1243 
20 1 7.02226 0.39196 24.2901 
22 1 6.95709 1.58069 19.4675 
25 1 5.71285 1.58065 18.7496 
27 1 6.97318 1.60175 20.9049 
28 1 1.10114 1.58081 18.7456 
30 1 7.02493 1.63104 23.5624 
10 1 6.95211 5.23227 5.12303 
13 1 7.0244 3.92965 0.311334 
15 1 6.99474 5.19157 2.45825 
16 1 7.02478 6.42215 0.296576 
26 1 7.02079 5.18167 1.02005 
29 1 5.71863 5.231 5.83879 
31 1 6.9686 5.21103 3.67652 
32 1 1.09372 5.23394 5.83235 
1 1 4.65186 5.23322 6.44022 
3 1 3.4196 5.20694 8.62386 
4 1 2.14866 5.23151 6.45603 
6 1 3.35926 5.18127 11.2889 
9 1 3.34418 3.91052 12.0077 
11 1 3.39318 5.19415 9.89249 
12 1 3.34488 6.44798 12.0104 
14 1 3.39804 5.23448 7.08512 
33 2 2.21595 5.21349 8.4675 
ITEM: TIMESTEP
30
ITEM: NUMBER OF ATOMS
33
ITEM: BOX BOUNDS pp pp pp
0.0000000000000000e+00 7.0970000000000004e+00
0.0000000000000000e+00 7.0970000000000004e+00
0.0000000000000000e+00 2.4588000000000001e+01
ITEM: ATOMS id type x y z 
2 1 3.33236 1.63157 13.3603 
5 1 4.65933 1.58057 18.1365 
7 1 3.39378 1.6027 16.0031 
8 1 2.16034 1.58012 18.142 
18 1 3.40823 1.57983 17.4303 
21 1 3.33612 2.85784 12.6133 
23 1 3.36573 1.62222 14.7812 
24 1 3.3367 0.408411 12.6096 
17 1 7.02355 2.88087 24.2751 
19 1 6.99625 1.62064 22.1257 
20 1 7.02384 0.391523 24.2895 
22 1 6.95694 1.58095 19.4689 
25 1 5.71406 1.58053 18.7505 
27 1 6.97291 1.60238 20.9054 
28 1 1.09992 1.58048 18.746 
30 1 7.02394 1.63184 23.5628 
10 1 6.95299 5.23237 5.11987 
13 1 7.02301 3.93018 0.310653 
15 1 6.99351 5.19184 2.45612 
16 1 7.02328 6.42303 0.296676 
26 1 7.02233 5.18082 1.01836 
29 1 5.71889 5.23243 5.8391 
31 1 6.969 5.21041 3.67524 
32 1 1.09139 5.23261 5.8328 
1 1 4.64994 5.23277 6.43819 
3 1 3.41559 5.20497 8.62372 
4 1 2.14802 5.23285 6.45492 
6 1 3.35873 5.18177 11.2876 
9 1 3.34533 3.91015 12.0081 
11 1 3.39131 5.19384 9.89028 
12 1 3.34636 6.44852 12.0125 
14 1 3.40222 5.2355 7.08088 
33 2 2.22009 5.21344 8.46279 
ITEM: TIMESTEP
40
ITEM: NUMBER OF ATOMS
33
ITEM: BOX BOUNDS pp pp pp
0.0000000000000000e+00 7.0970000000000004e+00
0.0000000000000000e+00 7.0970000000000004e+00
0.0000000000000000e+00 2.4588000000000001e+01
ITEM: ATOMS id type x y z 
2 1 3.32065 1.63399 13.3742 
5 1 4.66398 1.57999 18.144 
7 1 3.39722 1.60319 16.0206 
8 1 2.15868 1.5812 18.1541 
18 1 3.40904 1.57887 17.4509 
21 1 3.339 2.86399 12.6219 
23 1 3.36137 1.62171 14.7992 
24 1 3.33841 0.40698 12.6203 
17 1 7.02371 2.87661 24.2787 
19 1 6.99489 1.62048 22.1326 
20 1 7.02399 0.390755 24.2839 
22 1 6.95642 1.5821 19.4793 
25 1 5.72081 1.57974 18.7555 
27 1 6.97275 1.60225 20.9131 
28 1 1.09173 1.57797 18.748 
30 1 7.02504 1.63408 23.5662 
10 1 6.95291 5.22996 5.1064 
13 1 7.02333 3.93213 0.3038 
15 1 6.99404 5.19222 2.44322 
16 1 7.02392 6.42606 0.299221 
26 1 7.02257 5.17841 1.00807 
29 1 5.72935 5.23276 5.83264 
31 1 6.96688 5.21004 3.66206 
32 1 1.08326 5.23287 5.84166 
1 1 4.65112 5.23888 6.4169 
3 1 3.39403 5.1777 8.6163 
4 1 2.14623 5.23674 6.44815 
6 1 3.36648 5.18533 11.2845 
9 1 3.35382 3.90994 12.0112 
11 1 3.37105 5.19245 9.88516 
12 1 3.35249 6.449 12.0201 
14 1 3.4128 5.24892 7.05744 
33 2 2.23401 5.21268 8.42852 
ITEM: TIMESTEP
50
ITEM: NUMBER OF ATOMS
33
ITEM: BOX BOUNDS pp pp pp
0.0000000000000000e+00 7.0970000000000004e+00
0.0000000000000000e+00 7.0970000000000004e+00
0.0000000000000000e+00 2.4588000000000001e+01
ITEM: ATOMS id type x y z 
2 1 3.32064 1.63273 13.3713 
5 1 4.66205 1.58009 18.1467 
7 1 3.39607 1.60243 16.0174 
8 1 2.16124 1.56986 18.1584 
18 1 3.40914 1.5834 17.4484 
21 1 3.34183 2.87066 12.6248 
23 1 3.36181 1.62198 14.7961 
24 1 3.33848 0.408585 12.6287 
17 1 7.02317 2.87611 24.2792 
19 1 7.00092 1.62158 22.1337 
20 1 7.02473 0.390701 24.285 
22 1 6.95631 1.57959 19.4788 
25 1 5.71992 1.57874 18.756 
27 1 6.96886 1.60327 20.9128 
28 1 1.09333 1.58634 18.7485 
30 1 7.02237 1.63197 23.5676 
10 1 6.95985 5.22713 5.10272 
13 1 7.02496 3.93359 0.302494 
15 1 6.98866 5.1933 2.44271 
16 1 7.02463 6.42515 0.297236 
26 1 7.02443 5.18021 1.00696 
29 1 5.73214 5.23414 5.82587 
31 1 6.96966 5.20608 3.66241 
32 1 1.09266 5.23296 5.84899 
1 1 4.65289 5.24684 6.412 
3 1 3.33424 5.15279 8.61944 
4 1 2.15816 5.2428 6.45086 
6 1 3.3833 5.18772 11.2797 
9 1 3.34745 3.91464 12.0111 
11 1 3.39706 5.1783 9.8787 
12 1 3.34824 6.45405 12.0245 
14 1 3.42921 5.26252 7.06217 
33 2 2.20759 5.20975 8.42671 
ITEM: TIMESTEP
60
ITEM: NUMBER OF ATOMS
33
ITEM: BOX BOUNDS pp pp pp
0.0000000000000000e+00 7.0970000000000004e+00
0.0000000000000000e+00 7.0970000000000004e+00
0.0000000000000000e+00 2.4588000000000001e+01
ITEM: ATOMS id type x y z 
2 1 3.32068 1.63721 13.3734 
5 1 4.66104 1.58009 18.1475 
7 1 3.39539 1.60279 16.018 
8 1 2.16356 1.57892 18.1615 
18 1 3.40928 1.57954 17.4469 
21 1 3.33501 2.87107 12.625 
23 1 3.363 1.62204 14.7962 
24 1 3.33447 0.406687 12.6286 
17 1 7.02393 2.87656 24.2789 
19 1 6.99574 1.62324 22.1333 
20 1 7.02503 0.3912 24.2853 
22 1 6.95654 1.5798 19.4794 
25 1 5.71933 1.58017 18.756 
27 1 6.97092 1.60393 20.9131 
28 1 1.09293 1.57768 18.7475 
30 1 7.02542 1.6313 23.5676 
10 1 6.96567 5.22341 5.10793 
13 1 7.02417 3.93327 0.302242 
15 1 6.99364 5.19001 2.444 
16 1 7.02347 6.42417 0.296483 
26 1 7.02363 5.18109 1.00714 
29 1 5.7361 5.23598 5.82112 
31 1 6.96682 5.20898 3.66291 
32 1 1.0936 5.23378 5.84893 
1 1 4.65875 5.24923 6.40918 
3 1 3.30781 5.14529 8.6153 
4 1 2.16215 5.24542 6.44698 
6 1 3.39004 5.18933 11.2837 
9 1 3.35487 3.91722 12.0119 
11 1 3.40783 5.17755 9.87777 
12 1 3.35554 6.45029 12.0254 
14 1 3.43179 5.2648 7.07087 
33 2 2.18781 5.20799 8.41791 
ITEM: TIMESTEP
70
ITEM: NUMBER OF ATOMS
33
ITEM: BOX BOUNDS pp pp pp
0.0000000000000000e+00 7.0970000000000004e+00
0.0000000000000000e+00 7.0970000000000004e+00
0.0000000000000000e+00 2.4588000000000001e+01
ITEM: ATOMS id type x y z 
2 1 3.31063 1.63817 13.3692 
5 1 4.65978 1.5786 18.1501 
7 1 3.40478 1.59966 16.0173 
8 1 2.16339 1.5795 18.1603 
18 1 3.40946 1.57791 17.4498 
21 1 3.33891 2.87601 12.6293 
23 1 3.3435 1.63154 14.7978 
24 1 3.34032 0.405516 12.6315 
17 1 7.02617 2.87886 24.276 
19 1 6.99522 1.62331 22.1332 
20 1 7.02504 0.391982 24.288 
22 1 6.95692 1.57946 19.4784 
25 1 5.71876 1.57981 18.7578 
27 1 6.97056 1.6029 20.9129 
28 1 1.09635 1.57834 18.7533 
30 1 7.02346 1.63295 23.5672 
10 1 6.97845 5.22103 5.10941 
13 1 7.02607 3.93323 0.303833 
15 1 6.99273 5.19575 2.44588 
16 1 7.02808 6.42148 0.291795 
26 1 7.0203 5.17936 1.01125 
29 1 5.73842 5.23981 5.81438 
31 1 6.9697 5.19907 3.66544 
32 1 1.10889 5.23678 5.85374 
1 1 4.66579 5.25441 6.40942 
3 1 3.22339 5.13193 8.6238 
4 1 2.18531 5.25213 6.43692 
6 1 3.41492 5.1905 11.2851 
9 1 3.36703 3.92042 12.0125 
11 1 3.44262 5.17159 9.86899 
12 1 3.36741 6.44612 12.0299 
14 1 3.44118 5.271 7.08643 
33 2 2.12249 5.20087 8.38711 
ITEM: TIMESTEP
80
ITEM: NUMBER OF ATOMS
33
ITEM: BOX BOUNDS pp pp pp
0.0000000000000000e+00 7.0970000000000004e+00
0.0000000000000000e+00 7.0970000000000004e+00
0.0000000000000000e+00 2.4588000000000001e+01
ITEM: ATOMS id type x y z 
2 1 3.29227 1.64211 13.3688 
5 1 4.65927 1.57725 18.1518 
7 1 3.38915 1.60749 16.015 
8 1 2.16447 1.5745 18.1606 
18 1 3.40995 1.57618 17.4468 
21 1 3.33885 2.87685 12.6309 
23 1 3.36762 1.63042 14.793 
24 1 3.33683 0.401915 12.6334 
17 1 7.0253 2.87983 24.2768 
19 1 6.99566 1.62294 22.1339 
20 1 7.02599 0.390866 24.2871 
22 1 6.95671 1.58046 19.4801 
25 1 5.71863 1.57837 18.7588 
27 1 6.97001 1.60273 20.914 
28 1 1.09805 1.58097 18.7546 
30 1 7.02786 1.63249 23.5685 
10 1 6.9816 5.21819 5.11736 
13 1 7.02048 3.93376 0.30463 
15 1 6.99716 5.18823 2.45169 
16 1 7.02271 6.4206 0.292988 
26 1 7.02592 5.18179 1.00965 
29 1 5.73988 5.23666 5.8134 
31 1 6.9702 5.21034 3.67121 
32 1 1.11678 5.23832 5.85033 
1 1 4.67276 5.25354 6.41373 
3 1 3.18 5.13537 8.62387 
4 1 2.19664 5.25483 6.42979 
6 1 3.43601 5.18982 11.284 
9 1 3.37641 3.92187 12.0142 
11 1 3.46043 5.16881 9.86912 
12 1 3.37849 6.44428 12.0308 
14 1 3.44521 5.27331 7.09311 
33 2 2.07871 5.19491 8.36398 
ITEM: TIMESTEP
90
ITEM: NUMBER OF ATOMS
33
ITEM: BOX BOUNDS pp pp pp
0.0000000000000000e+00 7.0970000000000004e+00
0.0000000000000000e+00 7.0970000000000004e+00
0.0000000000000000e+00 2.4588000000000001e+01
ITEM: ATOMS id type x y z 
2 1 3.2934 1.63935 13.3653 
5 1 4.65872 1.57715 18.1517 
7 1 3.39717 1.60697 16.0145 
8 1 2.16459 1.57784 18.1609 
18 1 3.40964 1.57407 17.4464 
21 1 3.3402 2.87878 12.6294 
23 1 3.3542 1.63327 14.7939 
24 1 3.33818 0.400365 12.6334 
17 1 7.02469 2.88016 24.2774 
19 1 6.99633 1.62228 22.1345 
20 1 7.02573 0.390299 24.2869 
22 1 6.95747 1.5804 19.4797 
25 1 5.71779 1.57885 18.7589 
27 1 6.96964 1.6036 20.9143 
28 1 1.0984 1.57788 18.7553 
30 1 7.02633 1.63267 23.5691 
10 1 6.98487 5.22011 5.11684 
13 1 7.02417 3.93459 0.304843 
15 1 6.99517 5.19177 2.45218 
16 1 7.02501 6.42101 0.293339 
26 1 7.02325 5.18036 1.01397 
29 1 5.73746 5.23766 5.81483 
31 1 6.97299 5.20483 3.67112 
32 1 1.1212 5.23868 5.85096 
1 1 4.67077 5.25414 6.42002 
3 1 3.16435 5.13823 8.62745 
4 1 2.20303 5.25503 6.4242 
6 1 3.44637 5.18774 11.2815 
9 1 3.37995 3.92444 12.0142 
11 1 3.46291 5.16895 9.86497 
12 1 3.38061 6.44406 12.0311 
14 1 3.44646 5.27209 7.09882 
33 2 2.06495 5.19237 8.35594 
ITEM: TIMESTEP
96
ITEM: NUMBER OF ATOMS
33
ITEM: BOX BOUNDS pp pp pp
0.0000000000000000e+00 7.0970000000000004e+00
0.0000000000000000e+00 7.0970000000000004e+00
0.0000000000000000e+00 2.4588000000000001e+01
ITEM: ATOMS id type x y z 
2 1 3.29336 1.63985 13.3655 
5 1 4.65871 1.57692 18.1518 
7 1 3.39785 1.6069 16.014 
8 1 2.16464 1.57692 18.1609 
18 1 3.40968 1.57459 17.4463 
21 1 3.33975 2.87915 12.6295 
23 1 3.35253 1.63339 14.7934 
24 1 3.33851 0.399596 12.6331 
17 1 7.02499 2.88014 24.2776 
19 1 6.99589 1.62236 22.1346 
20 1 7.02584 0.390055 24.2869 
22 1 6.95739 1.58054 19.4797 
25 1 5.71775 1.57872 18.759 
27 1 6.96988 1.60341 20.9143 
28 1 1.09859 1.57846 18.7555 
30 1 7.0264 1.63279 23.5692 
10 1 6.98486 5.21998 5.11777 
13 1 7.02402 3.93475 0.304787 
15 1 6.9959 5.19173 2.45254 
16 1 7.02495 6.42093 0.293575 
26 1 7.02289 5.18052 1.01434 
29 1 5.73781 5.23832 5.81474 
31 1 6.97303 5.20472 3.67182 
32 1 1.12159 5.23897 5.85028 
1 1 4.67177 5.25367 6.42069 
3 1 3.16172 5.13907 8.62911 
4 1 2.20389 5.25483 6.42312 
6 1 3.44862 5.18819 11.2821 
9 1 3.3813 3.9247 12.0141 
11 1 3.4626 5.16893 9.86114 
12 1 3.38136 6.4431 12.0308 
14 1 3.44599 5.272 7.10169 
33 2 2.06192 5.1918 8.35421 
ITEM: TIMESTEP
97
ITEM: NUMBER OF ATOMS
33
ITEM: BOX BOUNDS pp pp pp
0.0000000000000000e+00 7.0970000000000004e+00
0.0000000000000000e+00 7.0970000000000004e+00
0.0000000000000000e+00 2.4588000000000001e+01
ITEM: ATOMS id type x y z 
2 1 3.29336 1.63985 13.3655 
5 1 4.65871 1.57692 18.1518 
7 1 3.39785 1.6069 16.014 
8 1 2.16464 1.57692 18.1609 
18 1 3.40968 1.57459 17.4463 
21 1 3.33975 2.87915 12.6295 
23 1 3.35253 1.63339 14.7934 
24 1 3.33851 0.399596 12.6331 
17 1 7.02499 2.88014 24.2776 
19 1 6.99589 1.62236 22.1346 
20 1 7.02584 0.390055 24.2869 
22 1 6.95739 1.58054 19.4797 
25 1 5.71775 1.57872 18.759 
27 1 6.96988 1.60341 20.9143 
28 1 1.09859 1.57846 18.7555 
30 1 7.0264 1.63279 23.5692 
10 1 6.98486 5.21998 5.11777 
13 1 7.02402 3.93475 0.304787 
15 1 6.9959 5.19173 2.45254 
16 1 7.02495 6.42093 0.293575 
26 1 7.02289 5.18052 1.01434 
29 1 5.73781 5.23832 5.81474 
31 1 6.97303 5.20472 3.67182 
32 1 1.12159 5.23897 5.85028 
1 1 4.67177 5.25367 6.42069 
3 1 3.16172 5.13907 8.62911 
4 1 2.20389 5.25483 6.42312 
6 1 3.44862 5.18819 11.2821 
9 1 3.3813 3.9247 12.0141 
11 1 3.4626 5.16893 9.86114 
12 1 3.38136 6.4431 12.0308 
14 1 3.44599 5.272 7.10169 
33 2 2.06192 5.1918 8.35421 
ITEM: TIMESTEP
100
ITEM: NUMBER OF ATOMS
33
ITEM: BOX BOUNDS pp pp pp
-5.0467072444530846e-04 7.0975046707244465e+00
-5.4928193926449505e-04 7.0975492819392656e+00
-3.6882000000000009e-03 2.4591688200000000e+01
ITEM: ATOMS id type x y z 
2 1 3.29332 1.63955 13.3658 
5 1 4.65887 1.57661 18.1535 
7 1 3.39783 1.6066 16.0151 
8 1 2.16444 1.57662 18.1627 
18 1 3.40966 1.57429 17.4479 
21 1 3.33972 2.87905 12.6296 
23 1 3.3525 1.6331 14.7942 
24 1 3.33848 0.399106 12.6332 
17 1 7.02548 2.88004 24.2812 
19 1 6.99638 1.62207 22.1375 
20 1 7.02634 0.389565 24.2905 
22 1 6.95788 1.58024 19.4818 
25 1 5.71806 1.57842 18.7609 
27 1 6.97037 1.60311 20.9169 
28 1 1.09824 1.57815 18.7574 
30 1 7.0269 1.63249 23.5726 
10 1 6.98535 5.22024 5.11562 
13 1 7.02452 3.93481 0.30119 
15 1 6.99639 5.19199 2.44959 
16 1 7.02544 6.42138 0.289975 
26 1 7.02339 5.18078 1.01095 
29 1 5.73812 5.23858 5.8128 
31 1 6.97352 5.20498 3.66924 
32 1 1.12125 5.23923 5.84835 
1 1 4.67194 5.25393 6.41892 
3 1 3.16165 5.13931 8.62801 
4 1 2.20369 5.25509 6.42135 
6 1 3.44861 5.18845 11.2818 
9 1 3.38128 3.92476 12.014 
11 1 3.46259 5.16918 9.86041 
12 1 3.38134 6.44355 12.0307 
14 1 3.44597 5.27226 7.10014 
33 2 2.06171 5.19205 8.35302 
ITEM: TIMESTEP
110
ITEM: NUMBER OF ATOMS
33
ITEM: BOX BOUNDS pp pp pp
-2.1260052504756930e-03 7.0991260052504774e+00
-2.4150366420009704e-03 7.0994150366420010e+00
-1.5982200000000002e-02 2.4603982199999997e+01
ITEM: ATOMS id type x y z 
2 1 3.2932 1.63855 13.3669 
5 1 4.65939 1.57558 18.1594 
7 1 3.39776 1.60558 16.0188 
8 1 2.16379 1.57558 18.1686 
18 1 3.4096 1.57325 17.453 
21 1 3.33963 2.87876 12.6299 
23 1 3.3524 1.63209 14.7967 
24 1 3.33839 0.397393 12.6335 
17 1 7.02707 2.87971 24.2932 
19 1 6.99796 1.62105 22.1473 
20 1 7.02793 0.387884 24.3025 
22 1 6.95943 1.5792 19.489 
25 1 5.71903 1.57738 18.7674 
27 1 6.97193 1.60208 20.9256 
28 1 1.09714 1.57712 18.7639 
30 1 7.02849 1.63148 23.5838 
10 1 6.98691 5.22112 5.10845 
13 1 7.02611 3.93499 0.289189 
15 1 6.99796 5.19285 2.43981 
16 1 7.02703 6.4229 0.277967 
26 1 7.02498 5.18164 0.999682 
29 1 5.73903 5.23947 5.80637 
31 1 6.97509 5.20584 3.66057 
32 1 1.12021 5.24012 5.84193 
1 1 4.67256 5.25483 6.413 
3 1 3.16145 5.14016 8.62436 
4 1 2.20302 5.25599 6.41544 
6 1 3.44859 5.18931 11.2808 
9 1 3.38121 3.92491 12.0137 
11 1 3.46255 5.17003 9.85795 
12 1 3.38127 6.44511 12.0305 
14 1 3.44593 5.27316 7.09495 
33 2 2.06099 5.19291 8.34907 
ITEM: TIMESTEP
120
ITEM: NUMBER OF ATOMS
33
ITEM: BOX BOUNDS pp pp pp
-4.0196994234939108e-03 7.1010196994234951e+00
-5.0281406244052310e-03 7.1020281406244052e+00
-2.8276200000000019e-02 2.4616276199999994e+01
ITEM: ATOMS id type x y z 
2 1 3.29304 1.63716 13.3679 
5 1 4.66013 1.57413 18.1653 
7 1 3.39768 1.60416 16.0221 
8 1 2.16292 1.57412 18.1745 
18 1 3.40953 1.57181 17.4581 
21 1 3.33956 2.87875 12.63 
23 1 3.35226 1.63066 14.7995 
24 1 3.33831 0.394617 12.6336 
17 1 7.02893 2.87938 24.3053 
19 1 6.99979 1.61963 22.1569 
20 1 7.02978 0.385385 24.3146 
22 1 6.96125 1.57776 19.4962 
25 1 5.72005 1.57592 18.7738 
27 1 6.97377 1.60065 20.9345 
28 1 1.09599 1.57567 18.7703 
30 1 7.03034 1.63008 23.5951 
10 1 6.98871 5.22236 5.10128 
13 1 7.02796 3.93512 0.2771 
15 1 6.99978 5.19408 2.43072 
16 1 7.02888 6.42518 0.265887 
26 1 7.02683 5.18284 0.988439 
29 1 5.73964 5.2407 5.80022 
31 1 6.97696 5.20705 3.65137 
32 1 1.11939 5.24138 5.83568 
1 1 4.67388 5.25609 6.40677 
3 1 3.16115 5.14138 8.62085 
4 1 2.2018 5.25725 6.40924 
6 1 3.44861 5.1905 11.2799 
9 1 3.38115 3.92485 12.0137 
11 1 3.46246 5.17123 9.85533 
12 1 3.38121 6.44754 12.0304 
14 1 3.44585 5.2744 7.08987 
33 2 2.06007 5.19409 8.34505 
ITEM: TIMESTEP
130
ITEM: NUMBER OF ATOMS
33
ITEM: BOX BOUNDS pp pp pp
-7.5416502139555508e-03 7.1045416502139558e+00
-7.4992557621996643e-03 7.1044992557621995e+00
-3.8375077593294490e-02 2.4626375077593288e+01
ITEM: ATOMS id type x y z 
2 1 3.29275 1.63586 13.3689 
5 1 4.66162 1.57275 18.1704 
7 1 3.39752 1.60283 16.0244 
8 1 2.16115 1.57272 18.1795 
18 1 3.4094 1.57045 17.4623 
21 1 3.33943 2.87919 12.6298 
23 1 3.35199 1.6293 14.8022 
24 1 3.33816 0.391526 12.6334 
17 1 7.03239 2.87934 24.3154 
19 1 7.00318 1.61827 22.1643 
20 1 7.03324 0.382739 24.3246 
22 1 6.96463 1.57641 19.5022 
25 1 5.72179 1.57453 18.7789 
27 1 6.97719 1.5993 20.9423 
28 1 1.09397 1.5743 18.7754 
30 1 7.03379 1.62875 23.6043 
10 1 6.99201 5.22355 5.09543 
13 1 7.03141 3.93498 0.266998 
15 1 7.00318 5.19525 2.42369 
16 1 7.03233 6.4276 0.255824 
26 1 7.03027 5.18397 0.979238 
29 1 5.74099 5.24187 5.7954 
31 1 6.98045 5.20818 3.64351 
32 1 1.11766 5.24257 5.83061 
1 1 4.67614 5.2573 6.40142 
3 1 3.16063 5.14262 8.61824 
4 1 2.19983 5.25844 6.40394 
6 1 3.44869 5.19163 11.2792 
9 1 3.38106 3.92456 12.0138 
11 1 3.46222 5.17235 9.85281 
12 1 3.38111 6.45008 12.0305 
14 1 3.44564 5.27552 7.08595 
33 2 2.05834 5.19517 8.34164 
ITEM: TIMESTEP
140
ITEM: NUMBER OF ATOMS
33
ITEM: BOX BOUNDS pp pp pp
-1.0941786956877498e-02 7.1079417869568768e+00
-1.0050874263111100e-02 7.1070508742631091e+00
-4.5684389819472204e-02 2.4633684389819468e+01
ITEM: ATOMS id type x y z 
2 1 3.29247 1.63452 13.3696 
5 1 4.6633 1.57133 18.1742 
7 1 3.39736 1.60146 16.0258 
8 1 2.15921 1.57127 18.1834 
18 1 3.40928 1.56907 17.4653 
21 1 3.33931 2.87957 12.6295 
23 1 3.35168 1.62787 14.8044 
24 1 3.33803 0.388362 12.6331 
17 1 7.03573 2.87943 24.3229 
19 1 7.00646 1.61687 22.1694 
20 1 7.03658 0.379855 24.3321 
22 1 6.96789 1.57503 19.5065 
25 1 5.72323 1.57309 18.7824 
27 1 6.98049 1.59791 20.9482 
28 1 1.09229 1.57289 18.7789 
30 1 7.03711 1.62738 23.611 
10 1 6.9952 5.22478 5.09131 
13 1 7.03474 3.93472 0.259524 
15 1 7.00647 5.19647 2.41856 
16 1 7.03565 6.43024 0.248418 
26 1 7.03359 5.18515 0.972613 
29 1 5.74254 5.24307 5.79189 
31 1 6.98384 5.20934 3.63796 
32 1 1.11605 5.24381 5.82694 
1 1 4.67811 5.25854 6.39761 
3 1 3.16009 5.14399 8.6167 
4 1 2.19796 5.25968 6.39993 
6 1 3.44886 5.19278 11.2788 
9 1 3.38103 3.92447 12.0139 
11 1 3.46185 5.1735 9.85059 
12 1 3.38107 6.45251 12.0306 
14 1 3.44533 5.27661 7.08342 
33 2 2.05656 5.19625 8.33904 
ITEM: TIMESTEP
150
ITEM: NUMBER OF ATOMS
33
ITEM: BOX BOUNDS pp pp pp
-1.2701108637172893e-02 7.1097011086371724e+00
-1.1582056804553185e-02 7.1085820568045532e+00
-4.8526808445579189e-02 2.4636526808445577e+01
ITEM: ATOMS id type x y z 
2 1 3.29232 1.63373 13.3699 
5 1 4.66429 1.57047 18.1758 
7 1 3.39728 1.60065 16.0262 
8 1 2.15807 1.5704 18.1849 
18 1 3.40922 1.56826 17.4665 
21 1 3.33927 2.8798 12.6293 
23 1 3.35147 1.62701 14.8053 
24 1 3.33798 0.386453 12.6329 
17 1 7.03747 2.87953 24.3259 
19 1 7.00815 1.61602 22.1712 
20 1 7.03831 0.378068 24.3351 
22 1 6.96958 1.5742 19.5082 
25 1 5.72385 1.57222 18.7836 
27 1 6.98221 1.59707 20.9506 
28 1 1.09156 1.57204 18.7802 
30 1 7.03882 1.62656 23.6136 
10 1 6.99686 5.22553 5.0898 
13 1 7.03646 3.93452 0.256512 
15 1 7.00819 5.1972 2.41663 
16 1 7.03737 6.43188 0.245467 
26 1 7.03529 5.18586 0.970073 
29 1 5.74342 5.2438 5.79055 
31 1 6.98562 5.21004 3.63584 
32 1 1.11531 5.24456 5.8255 
1 1 4.67912 5.25928 6.39617 
3 1 3.15974 5.14489 8.6164 
4 1 2.19698 5.26042 6.39821 
6 1 3.44905 5.19347 11.2786 
9 1 3.38108 3.92453 12.0139 
11 1 3.46155 5.1742 9.84942 
12 1 3.38111 6.45386 12.0306 
14 1 3.44509 5.27723 7.08269 
33 2 2.05553 5.19687 8.33789 
ITEM: TIMESTEP
152
ITEM: NUMBER OF ATOMS
33
ITEM: BOX BOUNDS pp pp pp
-1.2712326122015836e-02 7.1097123261220156e+00
-1.1653715027553592e-02 7.1086537150275539e+00
-4.8219458445579191e-02 2.4636219458445577e+01
ITEM: ATOMS id type x y z 
2 1 3.29232 1.63369 13.3698 
5 1 4.66432 1.57043 18.1757 
7 1 3.39728 1.60061 16.0261 
8 1 2.15804 1.57035 18.1848 
18 1 3.40922 1.56822 17.4664 
21 1 3.33928 2.87982 12.6293 
23 1 3.35146 1.62696 14.8052 
24 1 3.33798 0.386353 12.6329 
17 1 7.03748 2.87954 24.3257 
19 1 7.00816 1.61598 22.1709 
20 1 7.03832 0.377977 24.3348 
22 1 6.96959 1.57416 19.508 
25 1 5.72383 1.57218 18.7835 
27 1 6.98223 1.59703 20.9504 
28 1 1.09158 1.572 18.78 
30 1 7.03883 1.62652 23.6133 
10 1 6.99687 5.22557 5.08999 
13 1 7.03647 3.9345 0.256797 
15 1 7.0082 5.19723 2.41691 
16 1 7.03738 6.43196 0.245757 
26 1 7.0353 5.18589 0.97036 
29 1 5.7434 5.24383 5.79072 
31 1 6.98564 5.21007 3.63604 
32 1 1.11533 5.2446 5.82566 
1 1 4.67916 5.25931 6.39631 
3 1 3.15973 5.14494 8.61653 
4 1 2.19696 5.26046 6.39833 
6 1 3.44907 5.1935 11.2786 
9 1 3.38109 3.92453 12.0139 
11 1 3.46153 5.17423 9.84944 
12 1 3.38112 6.45393 12.0306 
14 1 3.44508 5.27725 7.08285 
33 2 2.0555 5.1969 8.33797 
ITEM: TIMESTEP
160
ITEM: NUMBER OF ATOMS
33
ITEM: BOX BOUNDS pp pp pp
-1.2712326122015836e-02 7.1097123261220156e+00
-1.1653715027553592e-02 7.1086537150275539e+00
-4.8219458445579191e-02 2.4636219458445577e+01
ITEM: ATOMS id type x y z 
2 1 3.29163 1.63418 13.3692 
5 1 4.66458 1.57038 18.1762 
7 1 3.39701 1.60079 16.0247 
8 1 2.15765 1.57016 18.1846 
18 1 3.40942 1.56872 17.4654 
21 1 3.34038 2.8819 12.6286 
23 1 3.34951 1.62626 14.8045 
24 1 3.3388 0.383851 12.6321 
17 1 7.03761 2.87989 24.3266 
19 1 7.00808 1.61578 22.1705 
20 1 7.03835 0.376986 24.3347 
22 1 6.96963 1.57446 19.5079 
25 1 5.72309 1.57207 18.7835 
27 1 6.98243 1.59699 20.9507 
28 1 1.09283 1.5719 18.7805 
30 1 7.03865 1.62656 23.6131 
10 1 6.99697 5.22609 5.09213 
13 1 7.03646 3.93453 0.256331 
15 1 7.00875 5.19752 2.41863 
16 1 7.03727 6.43248 0.246384 
26 1 7.03478 5.18595 0.972101 
29 1 5.74362 5.24405 5.79141 
31 1 6.98704 5.20986 3.63776 
32 1 1.11744 5.24505 5.82291 
1 1 4.68027 5.25888 6.39929 
3 1 3.15305 5.14847 8.61964 
4 1 2.19878 5.2604 6.39537 
6 1 3.45407 5.193 11.2766 
9 1 3.38393 3.92639 12.0135 
11 1 3.45926 5.17457 9.85013 
12 1 3.38373 6.45187 12.0298 
14 1 3.44381 5.27542 7.08539 
33 2 2.04888 5.19512 8.33335 
ITEM: TIMESTEP
161
ITEM: NUMBER OF ATOMS
33
ITEM: BOX BOUNDS pp pp pp
-1.2712326122015836e-02 7.1097123261220156e+00
-1.1653715027553592e-02 7.1086537150275539e+00
-4.8219458445579191e-02 2.4636219458445577e+01
ITEM: ATOMS id type x y z 
2 1 3.29163 1.63418 13.3692 
5 1 4.66458 1.57038 18.1762 
7 1 3.39701 1.60079 16.0247 
8 1 2.15765 1.57016 18.1846 
18 1 3.40942 1.56872 17.4654 
21 1 3.34038 2.8819 12.6286 
23 1 3.34951 1.62626 14.8045 
24 1 3.3388 0.383851 12.6321 
17 1 7.03761 2.87989 24.3266 
19 1 7.00808 1.61578 22.1705 
20 1 7.03835 0.376986 24.3347 
22 1 6.96963 1.57446 19.5079 
25 1 5.72309 1.57207 18.7835 
27 1 6.98243 1.59699 20.9507 
28 1 1.09283 1.5719 18.7805 
30 1 7.03865 1.62656 23.6131 
10 1 6.99697 5.22609 5.09213 
13 1 7.03646 3.93453 0.256331 
15 1 7.00875 5.19752 2.41863 
16 1 7.03727 6.43248 0.246384 
26 1 7.03478 5.18595 0.972101 
29 1 5.74362 5.24405 5.79141 
31 1 6.98704 5.20986 3.63776 
32 1 1.11744 5.24505 5.82291 
1 1 4.68027 5.25888 6.39929 
3 1 3.15305 5.14847 8.61964 
4 1 2.19878 5.2604 6.39537 
6 1 3.45407 5.193 11.2766 
9 1 3.38393 3.92639 12.0135 
11 1 3.45926 5.17457 9.85013 
12 1 3.38373 6.45187 12.0298 
14 1 3.44381 5.27542 7.08539 
33 2 2.04888 5.19512 8.33335 
ITEM: TIMESTEP
168
ITEM: NUMBER OF ATOMS
33
ITEM: BOX BOUNDS pp pp pp
-1.3753472873823969e-02 7.1107534728738235e+00
-1.2992474233385455e-02 7.1099924742333851e+00
-5.1668663786240729e-02 2.4639668663786239e+01
ITEM: ATOMS id type x y z 
2 1 3.29152 1.63346 13.3694 
5 1 4.66494 1.56964 18.1779 
7 1 3.39694 1.60006 16.0256 
8 1 2.1572 1.56942 18.1863 
18 1 3.40938 1.56798 17.4669 
21 1 3.34036 2.88177 12.6286 
23 1 3.34942 1.62552 14.8052 
24 1 3.33878 0.382455 12.6321 
17 1 7.03863 2.8797 24.33 
19 1 7.00909 1.61504 22.1732 
20 1 7.03937 0.375714 24.3381 
22 1 6.97063 1.57372 19.51 
25 1 5.72367 1.57133 18.7853 
27 1 6.98344 1.59626 20.9532 
28 1 1.09218 1.57115 18.7823 
30 1 7.03967 1.62584 23.6163 
10 1 6.99793 5.22674 5.09014 
13 1 7.03747 3.93463 0.252931 
15 1 7.00977 5.19814 2.41621 
16 1 7.03829 6.43363 0.24301 
26 1 7.0358 5.18656 0.968976 
29 1 5.74397 5.24469 5.7898 
31 1 6.9881 5.21049 3.63515 
32 1 1.11685 5.24571 5.82105 
1 1 4.68096 5.25951 6.39755 
3 1 3.15279 5.14918 8.61881 
4 1 2.19838 5.26104 6.39361 
6 1 3.45419 5.19362 11.2763 
9 1 3.38396 3.9265 12.0135 
11 1 3.4591 5.17519 9.84916 
12 1 3.38375 6.45307 12.0298 
14 1 3.44375 5.27601 7.08407 
33 2 2.04825 5.19569 8.33212 
ITEM: TIMESTEP
169
ITEM: NUMBER OF ATOMS
33
ITEM: BOX BOUNDS pp pp pp
-1.3753472873823969e-02 7.1107534728738235e+00
-1.2992474233385455e-02 7.1099924742333851e+00
-5.1668663786240729e-02 2.4639668663786239e+01
ITEM: ATOMS id type x y z 
2 1 3.29152 1.63346 13.3694 
5 1 4.66494 1.56964 18.1779 
7 1 3.39694 1.60006 16.0256 
8 1 2.1572 1.56942 18.1863 
18 1 3.40938 1.56798 17.4669 
21 1 3.34036 2.88177 12.6286 
23 1 3.34942 1.62552 14.8052 
24 1 3.33878 0.382455 12.6321 
17 1 7.03863 2.8797 24.33 
19 1 7.00909 1.61504 22.1732 
20 1 7.03937 0.375714 24.3381 
22 1 6.97063 1.57372 19.51 
25 1 5.72367 1.57133 18.7853 
27 1 6.98344 1.59626 20.9532 
28 1 1.09218 1.57115 18.7823 
30 1 7.03967 1.62584 23.6163 
10 1 6.99793 5.22674 5.09014 
13 1 7.03747 3.93463 0.252931 
15 1 7.00977 5.19814 2.41621 
16 1 7.03829 6.43363 0.24301 
26 1 7.0358 5.18656 0.968976 
29 1 5.74397 5.24469 5.7898 
31 1 6.9881 5.21049 3.63515 
32 1 1.11685 5.24571 5.82105 
1 1 4.68096 5.25951 6.39755 
3 1 3.15279 5.14918 8.61881 
4 1 2.19838 5.26104 6.39361 
6 1 3.45419 5.19362 11.2763 
9 1 3.38396 3.9265 12.0135 
11 1 3.4591 5.17519 9.84916 
12 1 3.38375 6.45307 12.0298 
14 1 3.44375 5.27601 7.08407 
33 2 2.04825 5.19569 8.33212 
