LAMMPS (3 Mar 2020)
Reading data file ...
  orthogonal box = (0 0 0) to (7.097 7.097 24.588)
  1 by 2 by 4 MPI processor grid
  reading atoms ...
  33 atoms
  read_data CPU = 0.0122957 secs
WARNING: Changed valency_val to valency_boc for X (../reaxc_ffield.cpp:315)
WARNING: Using 'neigh_modify every 1 delay 0 check yes' setting during minimization (../min.cpp:190)
Neighbor list info ...
  update every 1 steps, delay 0 steps, check yes
  max neighbors/atom: 2000, page size: 100000
  master list distance cutoff = 12
  ghost atom cutoff = 12
  binsize = 6, bins = 2 2 5
  2 neighbor lists, perpetual/occasional/extra = 2 0 0
  (1) pair reax/c, perpetual
      attributes: half, newton off, ghost
      pair build: half/bin/newtoff/ghost
      stencil: half/ghost/bin/3d/newtoff
      bin: standard
  (2) fix qeq/reax, perpetual, copy from (1)
      attributes: half, newton off, ghost
      pair build: copy
      stencil: none
      bin: none
Setting up cg style minimization ...
  Unit style    : real
  Current step  : 0
Per MPI rank memory allocation (min/avg/max) = 18.34 | 19.39 | 20.67 Mbytes
Step Temp E_pair E_mol TotEng Press 
       0            0   -5775.0907            0   -5775.0907   -126353.39 
      96            0     -5869.49            0     -5869.49    30091.039 
Loop time of 1.74462 on 8 procs for 96 steps with 33 atoms

99.3% CPU use with 8 MPI tasks x no OpenMP threads

Minimization stats:
  Stopping criterion = linesearch alpha is zero
  Energy initial, next-to-last, final = 
        -5775.09072945     -5869.49002348     -5869.49002349
  Force two-norm initial, final = 2346.17 46.0484
  Force max component initial, final = 533.829 20.1057
  Final line search alpha, max atom move = 4.63214e-12 9.31325e-11
  Iterations, force evaluations = 96 697

MPI task timing breakdown:
Section |  min time  |  avg time  |  max time  |%varavg| %total
---------------------------------------------------------------
Pair    | 1.1914     | 1.2903     | 1.403      |   7.3 | 73.96
Neigh   | 0          | 0          | 0          |   0.0 |  0.00
Comm    | 0.01328    | 0.12713    | 0.22483    |  23.1 |  7.29
Output  | 0.00020026 | 0.00025333 | 0.00040045 |   0.0 |  0.01
Modify  | 0.32081    | 0.32263    | 0.32405    |   0.2 | 18.49
Other   |            | 0.004286   |            |       |  0.25

Nlocal:    4.125 ave 9 max 0 min
Histogram: 4 0 0 0 0 0 0 0 3 1
Nghost:    661.5 ave 703 max 634 min
Histogram: 2 0 1 1 1 1 1 0 0 1
Neighs:    786.75 ave 1735 max 0 min
Histogram: 4 0 0 0 0 0 0 0 3 1

Total # of neighbors = 6294
Ave neighs/atom = 190.727
Neighbor list builds = 0
Dangerous builds = 0
WARNING: Using 'neigh_modify every 1 delay 0 check yes' setting during minimization (../min.cpp:190)
Setting up cg style minimization ...
  Unit style    : real
  Current step  : 96
Per MPI rank memory allocation (min/avg/max) = 18.34 | 19.39 | 20.67 Mbytes
Step Temp E_pair E_mol TotEng Press 
      96            0     -5869.49            0     -5869.49    30091.035 
      97            0     -5869.49            0     -5869.49    30091.039 
Loop time of 0.13644 on 8 procs for 1 steps with 33 atoms

99.4% CPU use with 8 MPI tasks x no OpenMP threads

Minimization stats:
  Stopping criterion = linesearch alpha is zero
  Energy initial, next-to-last, final = 
        -5869.49002472     -5869.49002472     -5869.49002347
  Force two-norm initial, final = 46.0484 46.0484
  Force max component initial, final = 20.1059 20.1057
  Final line search alpha, max atom move = 4.63209e-12 9.31315e-11
  Iterations, force evaluations = 1 57

MPI task timing breakdown:
Section |  min time  |  avg time  |  max time  |%varavg| %total
---------------------------------------------------------------
Pair    | 0.092405   | 0.10192    | 0.11522    |   2.3 | 74.70
Neigh   | 0          | 0          | 0          |   0.0 |  0.00
Comm    | 0.0010272  | 0.01439    | 0.023788   |   6.1 | 10.55
Output  | 0          | 0          | 0          |   0.0 |  0.00
Modify  | 0.019708   | 0.019807   | 0.019906   |   0.1 | 14.52
Other   |            | 0.000326   |            |       |  0.24

Nlocal:    4.125 ave 9 max 0 min
Histogram: 4 0 0 0 0 0 0 0 3 1
Nghost:    630.875 ave 649 max 602 min
Histogram: 1 0 0 1 1 0 0 3 1 1
Neighs:    786.25 ave 1736 max 0 min
Histogram: 4 0 0 0 0 0 0 0 3 1

Total # of neighbors = 6290
Ave neighs/atom = 190.606
Neighbor list builds = 0
Dangerous builds = 0
WARNING: Using 'neigh_modify every 1 delay 0 check yes' setting during minimization (../min.cpp:190)
Setting up cg style minimization ...
  Unit style    : real
  Current step  : 97
WARNING: Energy due to 3 extra global DOFs will be included in minimizer energies
Per MPI rank memory allocation (min/avg/max) = 18.34 | 19.39 | 20.67 Mbytes
Step Temp E_pair E_mol TotEng Press Volume 
      97            0     -5869.49            0     -5869.49    30091.035    1238.4339 
     152            0   -5872.9524            0   -5872.9524   -88.359517     1251.843 
Loop time of 0.316566 on 8 procs for 55 steps with 33 atoms

99.3% CPU use with 8 MPI tasks x no OpenMP threads

Minimization stats:
  Stopping criterion = linesearch alpha is zero
  Energy initial, next-to-last, final = 
        -5869.49002473     -5872.95244521     -5872.95244523
  Force two-norm initial, final = 1000.7 80.3794
  Force max component initial, final = 817.447 21.445
  Final line search alpha, max atom move = 1.4845e-12 3.18351e-11
  Iterations, force evaluations = 55 139

MPI task timing breakdown:
Section |  min time  |  avg time  |  max time  |%varavg| %total
---------------------------------------------------------------
Pair    | 0.21916    | 0.24248    | 0.27468    |   3.6 | 76.60
Neigh   | 0          | 0          | 0          |   0.0 |  0.00
Comm    | 0.0023407  | 0.034689   | 0.05776    |   9.6 | 10.96
Output  | 9.4647e-05 | 0.00015292 | 0.00027352 |   0.0 |  0.05
Modify  | 0.036546   | 0.036775   | 0.036982   |   0.1 | 11.62
Other   |            | 0.002467   |            |       |  0.78

Nlocal:    4.125 ave 9 max 0 min
Histogram: 4 0 0 0 0 0 0 0 3 1
Nghost:    630.875 ave 649 max 602 min
Histogram: 1 0 0 1 1 0 0 3 1 1
Neighs:    786.25 ave 1736 max 0 min
Histogram: 4 0 0 0 0 0 0 0 3 1

Total # of neighbors = 6290
Ave neighs/atom = 190.606
Neighbor list builds = 0
Dangerous builds = 0
WARNING: Using 'neigh_modify every 1 delay 0 check yes' setting during minimization (../min.cpp:190)
Setting up cg style minimization ...
  Unit style    : real
  Current step  : 152
Per MPI rank memory allocation (min/avg/max) = 18.34 | 19.39 | 20.67 Mbytes
Step Temp E_pair E_mol TotEng Press 
     152            0   -5872.9524            0   -5872.9524   -88.362706 
     161            0   -5873.5047            0   -5873.5047    2432.9592 
Loop time of 0.272614 on 8 procs for 9 steps with 33 atoms

99.4% CPU use with 8 MPI tasks x no OpenMP threads

Minimization stats:
  Stopping criterion = linesearch alpha is zero
  Energy initial, next-to-last, final = 
        -5872.95244551     -5873.50468679       -5873.504686
  Force two-norm initial, final = 77.8208 61.5784
  Force max component initial, final = 21.445 27.6182
  Final line search alpha, max atom move = 1.68607e-12 4.65661e-11
  Iterations, force evaluations = 9 122

MPI task timing breakdown:
Section |  min time  |  avg time  |  max time  |%varavg| %total
---------------------------------------------------------------
Pair    | 0.18741    | 0.2007     | 0.22008    |   2.8 | 73.62
Neigh   | 0          | 0          | 0          |   0.0 |  0.00
Comm    | 0.0021072  | 0.021575   | 0.034706   |   8.4 |  7.91
Output  | 1.7854e-05 | 2.2635e-05 | 3.5016e-05 |   0.0 |  0.01
Modify  | 0.04943    | 0.049629   | 0.049812   |   0.1 | 18.20
Other   |            | 0.0006833  |            |       |  0.25

Nlocal:    4.125 ave 9 max 0 min
Histogram: 4 0 0 0 0 0 0 0 3 1
Nghost:    591.375 ave 619 max 575 min
Histogram: 2 1 1 1 0 2 0 0 0 1
Neighs:    778.25 ave 1721 max 0 min
Histogram: 4 0 0 0 0 0 0 0 3 1

Total # of neighbors = 6226
Ave neighs/atom = 188.667
Neighbor list builds = 0
Dangerous builds = 0
WARNING: Using 'neigh_modify every 1 delay 0 check yes' setting during minimization (../min.cpp:190)
Setting up cg style minimization ...
  Unit style    : real
  Current step  : 161
WARNING: Energy due to 3 extra global DOFs will be included in minimizer energies
Per MPI rank memory allocation (min/avg/max) = 18.34 | 19.39 | 20.67 Mbytes
Step Temp E_pair E_mol TotEng Press Volume 
     161            0   -5873.5047            0   -5873.5047    2432.9618     1251.843 
     168            0   -5873.5771            0   -5873.5771   -168.81847      1253.03 
Loop time of 0.100314 on 8 procs for 7 steps with 33 atoms

99.3% CPU use with 8 MPI tasks x no OpenMP threads

Minimization stats:
  Stopping criterion = linesearch alpha is zero
  Energy initial, next-to-last, final = 
        -5873.50468524     -5873.57710726      -5873.5771065
  Force two-norm initial, final = 103.534 55.1589
  Force max component initial, final = 67.1507 18.9817
  Final line search alpha, max atom move = 3.82957e-12 7.26919e-11
  Iterations, force evaluations = 7 47

MPI task timing breakdown:
Section |  min time  |  avg time  |  max time  |%varavg| %total
---------------------------------------------------------------
Pair    | 0.07306    | 0.078325   | 0.085866   |   1.7 | 78.08
Neigh   | 0          | 0          | 0          |   0.0 |  0.00
Comm    | 0.0011922  | 0.008764   | 0.013984   |   5.2 |  8.74
Output  | 0          | 0          | 0          |   0.0 |  0.00
Modify  | 0.012425   | 0.01249    | 0.012549   |   0.1 | 12.45
Other   |            | 0.000735   |            |       |  0.73

Nlocal:    4.125 ave 9 max 0 min
Histogram: 4 0 0 0 0 0 0 0 3 1
Nghost:    591.375 ave 619 max 575 min
Histogram: 2 1 1 1 0 2 0 0 0 1
Neighs:    777.5 ave 1721 max 0 min
Histogram: 4 0 0 0 0 0 0 0 3 1

Total # of neighbors = 6220
Ave neighs/atom = 188.485
Neighbor list builds = 0
Dangerous builds = 0
WARNING: Using 'neigh_modify every 1 delay 0 check yes' setting during minimization (../min.cpp:190)
Setting up cg style minimization ...
  Unit style    : real
  Current step  : 168
Per MPI rank memory allocation (min/avg/max) = 18.34 | 19.39 | 20.67 Mbytes
Step Temp E_pair E_mol TotEng Press 
     168            0   -5873.5771            0   -5873.5771   -168.81788 
     169            0   -5873.5771            0   -5873.5771   -168.82266 
Loop time of 0.122095 on 8 procs for 1 steps with 33 atoms

99.4% CPU use with 8 MPI tasks x no OpenMP threads

Minimization stats:
  Stopping criterion = linesearch alpha is zero
  Energy initial, next-to-last, final = 
        -5873.57710647     -5873.57710647     -5873.57710728
  Force two-norm initial, final = 53.4929 53.4929
  Force max component initial, final = 18.9817 18.9817
  Final line search alpha, max atom move = 2.45321e-12 4.65661e-11
  Iterations, force evaluations = 1 57

MPI task timing breakdown:
Section |  min time  |  avg time  |  max time  |%varavg| %total
---------------------------------------------------------------
Pair    | 0.087798   | 0.094103   | 0.10335    |   1.9 | 77.07
Neigh   | 0          | 0          | 0          |   0.0 |  0.00
Comm    | 0.00099549 | 0.010284   | 0.016519   |   5.8 |  8.42
Output  | 0          | 0          | 0          |   0.0 |  0.00
Modify  | 0.017308   | 0.017393   | 0.017475   |   0.1 | 14.25
Other   |            | 0.0003136  |            |       |  0.26

Nlocal:    4.125 ave 9 max 0 min
Histogram: 4 0 0 0 0 0 0 0 3 1
Nghost:    591.375 ave 619 max 575 min
Histogram: 2 1 1 1 0 2 0 0 0 1
Neighs:    776.25 ave 1719 max 0 min
Histogram: 4 0 0 0 0 0 0 0 3 1

Total # of neighbors = 6210
Ave neighs/atom = 188.182
Neighbor list builds = 0
Dangerous builds = 0
Setting up Verlet run ...
  Unit style    : real
  Current step  : 0
  Time step     : 0.25
Per MPI rank memory allocation (min/avg/max) = 17.22 | 18.27 | 19.55 Mbytes
Step Temp TotEng KinEng PotEng Press 
       0          300   -5844.9613    28.615776   -5873.5771    875.12201 
     200    290.76204   -5832.5784    27.734605    -5860.313   -10945.607 
     400    310.17387    -5831.437     29.58622   -5861.0232    4635.2865 
     600     248.3596   -5840.8627     23.69001   -5864.5527   -27980.803 
     800    212.12631   -5844.7922    20.233864   -5865.0261   -11285.473 
    1000    357.96679   -5829.5211    34.144992   -5863.6661    -4058.748 
    1200    274.45545   -5837.9665    26.179186   -5864.1457    18127.121 
    1400    249.53069   -5836.9007    23.801715   -5860.7024   -1501.5236 
    1600    331.88936    -5828.406    31.657572   -5860.0636    -2196.373 
    1800    221.69382    -5837.435    21.146469   -5858.5814    10374.945 
    2000    403.88307   -5825.1748    38.524759   -5863.6995    15915.096 
    2200    266.55463   -5840.8792    25.425559   -5866.3048    5470.0488 
    2400    277.39135   -5840.3391    26.459229   -5866.7983     418.9671 
    2600    380.27212   -5825.1467    36.272606   -5861.4193   -30850.522 
    2800    324.91406   -5830.0847    30.992227   -5861.0769    13780.175 
    3000    252.24455   -5837.0551    24.060579   -5861.1157    5656.2629 
    3200    374.27971   -5822.3158    35.701015   -5858.0168    13492.463 
    3400    284.79767   -5827.1746    27.165688   -5854.3403    19352.407 
    3600    266.84117   -5832.5057    25.452891   -5857.9585   -9549.2783 
    3800    356.28576    -5823.199    33.984646   -5857.1836   -6382.2345 
    4000    297.44542   -5836.4302    28.372106   -5864.8023   -17268.256 
    4200     271.4788   -5839.4289    25.895256   -5865.3241   -6428.4645 
    4400    367.94142   -5824.0217    35.096431   -5859.1182    8823.4676 
    4600    290.45942   -5835.6118    27.705739   -5863.3175    5093.7224 
    4800    309.19898   -5834.9789    29.493229   -5864.4721    11931.382 
    5000    314.98625   -5821.3127    30.045253   -5851.3579    30887.048 
    5200    321.16863   -5825.4319    30.634966   -5856.0669   -11057.941 
    5400    264.74632    -5838.148    25.253072   -5863.4011   -11806.347 
    5600    330.53077   -5827.3512    31.527982   -5858.8791     30196.28 
    5800     340.7518    -5828.945    32.502924    -5861.448   -3624.4056 
    6000    347.77664   -5833.2007    33.172996   -5866.3737    18905.808 
    6200    297.31263   -5835.0293    28.359439   -5863.3887    -9409.305 
    6400    347.49585    -5825.193    33.146212   -5858.3393   -20173.234 
    6600    336.60872   -5821.3126    32.107733   -5853.4203   -336.10676 
    6800    301.54355   -5833.5457     28.76301   -5862.3087    8466.7174 
    7000    348.14653    -5824.751    33.208278   -5857.9593    19158.954 
    7200    275.19213   -5830.9494    26.249455   -5857.1988     4730.878 
    7400    251.07028   -5837.1965     23.94857   -5861.1451    2058.9396 
    7600    356.80488   -5823.0928    34.034162    -5857.127   -30133.769 
    7800    323.50567   -5834.6057    30.857886   -5865.4636    1886.4882 
    8000    268.81037   -5831.0445    25.640724   -5856.6852    6616.7316 
    8200    315.47682    -5822.034    30.092047    -5852.126    22014.123 
    8400    295.78818   -5821.9853    28.214028   -5850.1993    23424.119 
    8600       329.08   -5832.9919    31.389599   -5864.3815    5620.8478 
    8800    291.90055   -5828.4726    27.843203   -5856.3158   -3341.5735 
    9000    424.54876   -5818.4277    40.495975   -5858.9237   -15417.182 
    9200    341.64054   -5831.2216    32.587698   -5863.8093   -23624.296 
    9400     303.8792   -5834.1651    28.985798   -5863.1509   -5176.8857 
    9600    355.33302   -5825.4901    33.893768   -5859.3838   -37714.298 
    9800    259.52777   -5839.8095    24.755296   -5864.5648    19738.532 
   10000    261.70016   -5831.4484    24.962511   -5856.4109   -20928.446 
   10200    281.38322   -5829.0188    26.839998   -5855.8588   -27431.691 
   10400    283.07751   -5836.0313    27.001609   -5863.0329   -22839.066 
   10600    246.78088   -5846.1468    23.539422   -5869.6863    11128.369 
   10800     335.2481    -5832.229    31.977949    -5864.207   -10141.955 
   11000     324.0486   -5834.6432    30.909674   -5865.5529   -14764.448 
   11200    231.24685   -5839.1574    22.057694   -5861.2151   -26116.135 
   11400    288.82083   -5835.9186    27.549441    -5863.468    9145.0536 
   11600    232.99577   -5831.8092    22.224516   -5854.0337   -6798.4723 
   11800    277.79386   -5838.2521    26.497623   -5864.7497   -409.93378 
   12000    326.45336   -5834.9323    31.139055   -5866.0714    7536.9317 
   12200    297.51698   -5828.1496    28.378931   -5856.5285    8881.0872 
   12400    277.74884   -5838.6523    26.493329   -5865.1456   -3148.6037 
   12600    221.22252   -5836.0376    21.101514   -5857.1391    9973.3488 
   12800    316.27868   -5826.9206    30.168534   -5857.0891   -6871.0678 
   13000    305.94929   -5827.7177    29.183255    -5856.901    6548.4754 
   13200    276.50966   -5832.3286    26.375129   -5858.7037   -35653.151 
   13400    210.08033   -5843.7401    20.038705   -5863.7788    27686.424 
   13600    342.91308    -5828.218     32.70908   -5860.9271    11547.285 
   13800    305.41241   -5829.1953    29.132044   -5858.3273        15471 
   14000    269.26739   -5837.6631    25.684318   -5863.3475   -15373.504 
   14200    354.07619   -5830.0296    33.773884   -5863.8035   -20228.825 
   14400    285.03344   -5829.8698    27.188178    -5857.058    12953.287 
   14600    345.86678   -5825.7899    32.990821   -5858.7808    741.10283 
   14800    336.72659   -5829.1856    32.118976   -5861.3046   -9527.8071 
   15000    234.23902    -5836.213    22.343105   -5858.5561   -7488.4913 
   15200    352.51801   -5821.0244    33.625256   -5854.6496     27408.27 
   15400    318.25899   -5830.2467    30.357427   -5860.6041    18725.376 
   15600    294.67817   -5834.4725    28.108149   -5862.5807    16502.021 
   15800     351.3322   -5820.3965    33.512145   -5853.9086   -2006.2795 
   16000    268.76148   -5834.7949    25.636061    -5860.431    5003.0081 
   16200    332.00385   -5827.9677    31.668493   -5859.6362   -3043.6418 
   16400    311.17101    -5832.863    29.681334   -5862.5444    11270.875 
   16600    280.71155   -5839.5312     26.77593   -5866.3071    22337.581 
   16800    278.14156   -5834.0728    26.530789   -5860.6036    18810.829 
   17000     291.9704   -5823.8579    27.849866   -5851.7078   -21571.578 
   17200     293.9938   -5834.2575     28.04287   -5862.3004    5104.7913 
   17400    292.94555   -5840.0161    27.942881   -5867.9589   -10133.016 
   17600    263.81321   -5829.6857    25.164066   -5854.8498    2316.6284 
   17800    262.13202   -5835.9718    25.003704   -5860.9755   -563.59394 
   18000     321.6912    -5836.633    30.684812   -5867.3178   -8045.6202 
   18200    319.06873   -5831.9234    30.434665   -5862.3581   -6703.0132 
   18400    333.72997   -5836.0734    31.833141   -5867.9066   -9526.7886 
   18600    328.36457   -5832.1496    31.321357    -5863.471    5138.5138 
   18800    358.76254    -5821.168    34.220896   -5855.3889    13969.098 
   19000    236.16644   -5834.7577    22.526954   -5857.2847   -1060.0354 
   19200    289.12636    -5832.169    27.578584   -5859.7476    8276.3166 
   19400    360.77704   -5817.7883    34.413051   -5852.2014    25269.596 
   19600    339.00178   -5826.7506    32.335997   -5859.0866    2580.2068 
   19800    303.59093   -5834.5673    28.958301   -5863.5256   -42850.021 
   20000    368.52981   -5821.6727    35.152556   -5856.8253    22714.846 
   20200    362.61064   -5828.7192     34.58795   -5863.3071    15546.397 
   20400    279.20444   -5836.4886    26.632172   -5863.1207   -14916.974 
   20600    338.19751   -5823.9844    32.259281   -5856.2437   -3898.2998 
   20800     296.9762   -5829.6153    28.327348   -5857.9427    3481.0189 
   21000     273.7695   -5834.7164    26.113756   -5860.8302    26991.429 
   21200      268.716   -5838.3108    25.631723   -5863.9425   -2993.6348 
   21400    370.69532   -5824.6362    35.359115   -5859.9953    235.76155 
   21600    274.16405   -5838.0061    26.151391   -5864.1575   -327.59139 
   21800    243.28379   -5837.2742    23.205848   -5860.4801    1827.7922 
   22000    362.87134   -5827.0113    34.612818   -5861.6242   -12597.845 
   22200    332.00732   -5833.7373    31.668824   -5865.4061    20732.204 
   22400    309.36413    -5835.854    29.508983    -5865.363    13034.949 
   22600     337.7161   -5825.1666    32.213362   -5857.3799    1145.0906 
   22800    232.18141   -5834.6655    22.146837   -5856.8123   -15560.607 
   23000    232.59254   -5835.9593    22.186054   -5858.1453    25996.759 
   23200     353.8015   -5827.6754    33.747682   -5861.4231    8832.3211 
   23400    301.09182   -5833.7445    28.719921   -5862.4644    -5119.579 
   23600    288.33696   -5836.5707    27.503287    -5864.074   -16006.745 
   23800      352.045   -5831.1952    33.580137   -5864.7753   -21721.013 
   24000    300.81031   -5831.6121    28.693068   -5860.3052   -1399.9835 
   24200    318.20172   -5831.3307    30.351964   -5861.6827   -17635.863 
   24400    246.40413   -5845.1312    23.503485   -5868.6347    10108.933 
   24600    298.00516   -5836.5679    28.425497   -5864.9934    18638.646 
   24800    374.59624   -5830.6629    35.731208   -5866.3941   -20018.796 
   25000    235.27612   -5840.8629    22.442029   -5863.3049    9934.3723 
   25200    259.41852   -5836.2892    24.744874    -5861.034    -13431.04 
   25400    328.35448   -5827.3491    31.320394   -5858.6695   -33340.625 
   25600    300.40865   -5833.6187    28.654756   -5862.2735   -145.95136 
   25800    185.19074   -5846.3032     17.66459   -5863.9678    34.732619 
   26000    236.36738   -5834.4752    22.546121   -5857.0213    5487.6932 
   26200    275.94588     -5829.18    26.321352   -5855.5013    19284.565 
   26400    376.10903   -5827.8285    35.875506   -5863.7041   -8988.7226 
   26600    306.30531   -5835.9046    29.217214   -5865.1218    31931.404 
   26800    409.20357   -5824.2763     39.03226   -5863.3085   -7223.0849 
   27000    219.76279   -5840.7757    20.962277    -5861.738    20859.852 
   27200    321.73881   -5829.1194    30.689353   -5859.8087    -1624.472 
   27400    287.61949   -5830.9636     27.43485   -5858.3984   -13668.869 
   27600    273.92337   -5839.7453    26.128433   -5865.8737    739.94115 
   27800    332.01292   -5828.2805    31.669359   -5859.9499   -34917.751 
   28000    303.98167   -5833.3336    28.995571   -5862.3292   -3283.9741 
   28200    245.82154   -5838.5759    23.447914   -5862.0238   -5498.6008 
   28400     297.7506   -5825.3553    28.401216   -5853.7565    8140.8808 
   28600    281.11889   -5834.8273    26.814784    -5861.642    8065.9124 
   28800    238.71274   -5846.6417    22.769835   -5869.4115   -915.22983 
   29000     279.5741    -5834.424    26.667434   -5861.0915   -2008.3535 
   29200    291.77438   -5827.1577    27.831168   -5854.9889   -7058.6504 
   29400    307.31497   -5830.3929    29.313522   -5859.7065   -1623.6186 
   29600     236.3689   -5836.2321    22.546265   -5858.7784   -5692.4216 
   29800    262.09399   -5829.0467    25.000076   -5854.0468    -15930.99 
   30000    283.25425   -5833.3518    27.018467   -5860.3702    4311.4904 
   30200    248.12285   -5845.5912    23.667427   -5869.2587   -36310.712 
   30400     264.8982   -5832.6976    25.267559   -5857.9652     18101.43 
   30600    307.81689   -5832.2912    29.361398   -5861.6526     -1767.57 
   30800    357.10019   -5831.6745    34.062331   -5865.7368    19450.464 
   31000    274.72856   -5839.9127    26.205237    -5866.118   -2319.6545 
   31200    348.19524   -5825.6587    33.212923   -5858.8716    1133.7304 
   31400    288.59167   -5830.6086    27.527583   -5858.1361    1721.5044 
   31600    246.80105   -5840.9995    23.541345   -5864.5409   -16526.196 
   31800    210.92826   -5850.0429    20.119586   -5870.1625    -1815.228 
   32000    268.19621   -5836.5516    25.582143   -5862.1338   -564.72131 
   32200    325.26259   -5827.0057    31.025472   -5858.0311     -11857.5 
   32400    284.87387   -5834.9128    27.172957   -5862.0857   -6637.5864 
   32600    228.90078   -5838.1378    21.833911   -5859.9717    -3086.202 
   32800    327.39035   -5824.7097     31.22843   -5855.9382    1554.8311 
   33000    308.00403    -5829.606    29.379248   -5858.9852   -42.482199 
   33200    195.96295   -5844.0583    18.692106   -5862.7504   -21035.032 
   33400    248.24691    -5835.946    23.679261   -5859.6253   -33449.561 
   33600    281.34913   -5832.8867    26.836746   -5859.7235    11150.116 
   33800    252.55119   -5841.5245    24.089828   -5865.6143   -32206.824 
   34000    280.26733   -5835.5892    26.733557   -5862.3228    12829.848 
   34200    335.97453   -5829.7124     32.04724   -5861.7596   -4714.4909 
   34400    236.89638   -5836.6558     22.59658   -5859.2524    12769.853 
   34600    250.05398   -5839.3088    23.851629   -5863.1604    1103.4748 
   34800    292.52825   -5830.5437    27.903077   -5858.4467    11595.086 
   35000    329.52857    -5836.067    31.432387   -5867.4993   -7384.0778 
   35200    244.25473   -5843.6765    23.298463    -5866.975    20212.195 
   35400    311.18973   -5835.3868     29.68312   -5865.0699   -9909.5027 
   35600    339.30429   -5826.9946    32.364852   -5859.3595    7248.9658 
   35800    272.09612   -5841.4784    25.954139   -5867.4325    14291.508 
   36000    237.79923   -5834.9569    22.682699   -5857.6396    -1269.802 
   36200    302.23495   -5828.4748    28.828959   -5857.3038    13024.097 
   36400    267.39283   -5837.8544    25.505512   -5863.3599   -10170.942 
   36600    256.25606   -5845.3397     24.44322   -5869.7829    20261.433 
   36800    324.85577   -5831.8881    30.986667   -5862.8747    26385.776 
   37000    321.53989   -5829.1029    30.670379   -5859.7733     4671.658 
   37200    252.60081   -5841.0814    24.094561   -5865.1759   -13791.726 
   37400    291.08321   -5831.5349     27.76524   -5859.3001   -15232.777 
   37600    276.42813   -5830.3459    26.367352   -5856.7132    3338.7956 
   37800    301.81498    -5834.141      28.7889   -5862.9299    1436.6773 
   38000    262.75769   -5838.2519    25.063384   -5863.3152      2247.48 
   38200    316.82417   -5826.6259    30.220565   -5856.8465   -10217.098 
   38400    242.97214   -5834.1788    23.176121   -5857.3549    -15602.33 
   38600    262.64587    -5846.373    25.052719   -5871.4257   -8086.2123 
   38800    280.99616   -5836.2094    26.803078   -5863.0125    20766.527 
   39000    368.58138   -5824.8211    35.157474   -5859.9785    23543.421 
   39200    306.61214    -5834.695    29.246481   -5863.9415   -30010.923 
   39400    307.72982   -5831.9207    29.353092   -5861.2738   -12242.039 
   39600    279.93995   -5826.0714     26.70233   -5852.7737   -11807.725 
   39800    296.00391   -5831.0992    28.234606   -5859.3338   -26452.362 
   40000    291.76441   -5835.1729    27.830217   -5863.0032    23513.791 
   40200    359.12538   -5819.7537    34.255506   -5854.0092    23003.539 
   40400    266.65597   -5830.8272    25.435226   -5856.2625   -6110.5635 
   40600    287.21336   -5835.9716    27.396111   -5863.3677   -818.65646 
   40800    279.13432   -5828.1622    26.625485   -5854.7877    11714.411 
   41000    334.27982    -5828.929    31.885588   -5860.8146    2264.4496 
   41200    247.00125   -5835.3627    23.560442   -5858.9231   -6755.5737 
   41400    247.71587   -5829.3579    23.628606   -5852.9865   -4591.4036 
   41600    469.90401   -5817.6929    44.822227   -5862.5151     25016.75 
   41800    368.45953   -5824.1664    35.145851   -5859.3122    11944.748 
   42000    301.95354   -5829.5597    28.802116   -5858.3618   -12976.877 
   42200    330.97212    -5831.949    31.570081   -5863.5191    -7181.471 
   42400    202.78965   -5841.7202    19.343278   -5861.0635   -8684.6189 
   42600    360.05078   -5830.9804    34.343776   -5865.3241     28355.33 
   42800    283.81435   -5835.7576    27.071894   -5862.8295   -6789.2329 
   43000    362.01151   -5831.7517    34.530802   -5866.2825   -40919.017 
   43200     305.4275   -5829.1407    29.133484   -5858.2742    23868.884 
   43400    280.11385   -5839.5888    26.718918   -5866.3077    2573.0887 
   43600    360.55202   -5828.7025    34.391586    -5863.094    4551.1489 
   43800    279.20309   -5831.7544    26.632044   -5858.3864    -20598.54 
   44000    243.04493    -5844.164    23.183064   -5867.3471     7700.153 
   44200    324.62419   -5833.0504    30.964577    -5864.015    25491.109 
   44400    281.13002   -5832.6082    26.815846   -5859.4241   -17541.293 
   44600    326.88636   -5835.1784    31.180357   -5866.3588   -24404.988 
   44800       199.61   -5842.7321    19.039984    -5861.772   -19093.051 
   45000    286.74531   -5827.1194    27.351465   -5854.4709    17950.416 
   45200    295.09774   -5830.2826     28.14817   -5858.4308   -18733.668 
   45400    213.14287   -5841.9992    20.330829     -5862.33    332.38671 
   45600    372.34616   -5826.4267    35.516582   -5861.9432   -21764.717 
   45800    301.91435   -5835.0162    28.798378   -5863.8146    10188.208 
   46000      337.181    -5836.718    32.162321   -5868.8803   -1587.5736 
   46200    391.58518    -5821.235    37.351713   -5858.5867    28318.288 
   46400    294.04497   -5827.8539     28.04775   -5855.9016    28576.929 
   46600    213.95953   -5837.1607    20.408727   -5857.5695    3678.6311 
   46800    298.02934   -5823.6433    28.427803   -5852.0711    22497.968 
   47000    295.25462   -5833.1518    28.163134   -5861.3149    10780.135 
   47200    328.62106   -5835.6459    31.345822   -5866.9917   -40243.612 
   47400    323.50847   -5834.2973    30.858153   -5865.1554    22883.936 
   47600    248.06052   -5829.6084    23.661482   -5853.2699    26745.907 
   47800    217.20163   -5837.0653    20.717978   -5857.7833    4296.5431 
   48000    303.27651   -5835.2299    28.928309   -5864.1583   -7980.2686 
   48200    350.69983   -5819.2341    33.451826    -5852.686    26930.515 
   48400    278.40354   -5831.6753    26.555778   -5858.2311    7004.4698 
   48600    295.16935    -5834.482    28.155001    -5862.637    5735.8299 
   48800    370.32849   -5829.2527    35.324124   -5864.5768   -10665.967 
   49000    398.53835   -5824.4164    38.014948   -5862.4313    1334.5889 
   49200     226.6354   -5839.4712    21.617826    -5861.089   -23893.637 
   49400    320.92819   -5830.5903    30.612032   -5861.2023    498.06378 
   49600    343.71766   -5826.7628    32.785826   -5859.5486    22009.932 
   49800    289.13846   -5831.4193    27.579738   -5858.9991    -3512.308 
   50000    302.27299   -5823.6429    28.832588   -5852.4755   -1455.0653 
   50200    351.88184   -5817.6302    33.564574   -5851.1948    12813.305 
   50400    330.21265   -5832.6525    31.497638   -5864.1501    15233.341 
   50600    297.44222    -5833.467      28.3718   -5861.8388    7116.1775 
   50800    267.89825   -5840.3706    25.553721   -5865.9243   -14185.617 
   51000    293.22249    -5831.938    27.969297   -5859.9073    9549.3019 
   51200    353.87294   -5830.2021    33.754497   -5863.9566   -22210.628 
   51400    273.56098   -5835.7958    26.093866   -5861.8897    8780.7585 
   51600    300.83097   -5833.0631    28.695039   -5861.7582    31541.331 
   51800    378.69124   -5820.8684    36.121813   -5856.9902   -21500.015 
   52000    313.34639   -5831.9752    29.888834    -5861.864    8159.3394 
   52200    331.68328    -5832.711    31.637915   -5864.3489   -2543.2801 
   52400    296.29005   -5826.8961    28.261899    -5855.158    13432.482 
   52600     287.5732    -5834.222    27.430435   -5861.6524   -5401.7315 
   52800    251.31716   -5841.7742    23.972119   -5865.7463    693.07829 
   53000      356.924   -5825.9245    34.045525   -5859.9701   -14314.003 
   53200    338.24019   -5833.4873    32.263352   -5865.7506    482.89969 
   53400    317.37231   -5840.5241     30.27285    -5870.797   -4981.9742 
   53600    274.73201   -5823.6676    26.205566   -5849.8732   -16947.684 
   53800    325.23174   -5833.3729    31.022529   -5864.3955   -1811.8778 
   54000     216.7636   -5838.9677    20.676196   -5859.6439   -4527.2272 
   54200    305.59287   -5826.0125    29.149258   -5855.1618   -28188.245 
   54400    315.39644   -5837.0949     30.08438   -5867.1793    788.14842 
   54600    280.60977    -5834.227    26.766221   -5860.9933   -18719.587 
   54800    406.27158   -5824.4633    38.752589   -5863.2159   -6552.2447 
   55000    226.02394    -5836.402    21.559502   -5857.9615   -10045.255 
   55200    333.84246   -5831.6342    31.843871    -5863.478     12127.28 
   55400    334.12681   -5814.4054    31.870993   -5846.2764    -14562.08 
   55600    310.79281   -5828.9722    29.645259   -5858.6174    3165.4557 
   55800    282.15224   -5837.8934    26.913351   -5864.8067    -3086.573 
   56000    294.15368   -5823.4243    28.058119   -5851.4824    25513.378 
   56200    378.16559   -5829.6335    36.071673   -5865.7052    17363.787 
   56400    313.81799   -5837.1609    29.933819   -5867.0947   -3213.6118 
   56600    356.70589   -5823.8964     34.02472   -5857.9211   -6723.2001 
   56800    335.98882   -5830.5458    32.048604   -5862.5944    -13025.18 
   57000    298.98709   -5829.6973     28.51916   -5858.2165    6348.7648 
   57200    399.55277   -5824.7369    38.111709   -5862.8486    4703.3515 
   57400    284.75474   -5832.8078    27.161594   -5859.9694   -766.23208 
   57600     255.1885   -5841.4142    24.341391   -5865.7556   -14809.252 
   57800    362.54507   -5825.3085    34.581696   -5859.8902   -20222.362 
   58000    290.08908    -5831.924    27.670414   -5859.5944    39795.746 
   58200    336.37184   -5835.0124    32.085138   -5867.0976    8776.0185 
   58400    349.37595   -5824.6516    33.325547   -5857.9772    3751.6322 
   58600    336.77738   -5824.3869    32.123821   -5856.5108   -5603.4473 
   58800    265.33972   -5837.7004    25.309674   -5863.0101    5340.0974 
   59000    328.42182   -5827.4023    31.326818   -5858.7291    12923.395 
   59200    356.15291   -5827.4871    33.971974   -5861.4591   -685.33655 
   59400    255.94112    -5838.277     24.41318   -5862.6902   -19140.685 
   59600    318.16955    -5831.278    30.348896   -5861.6269   -13268.736 
   59800    235.24158   -5842.9747    22.438735   -5865.4134    6041.1779 
   60000    252.27703   -5836.8858    24.063677   -5860.9494   -6973.3162 
   60200    335.16933    -5830.471    31.970435   -5862.4414   -6155.8723 
   60400    317.35128   -5829.9808    30.270845   -5860.2517    27987.229 
   60600    313.79964   -5820.2491    29.932068   -5850.1811   -9920.7219 
   60800    304.62417   -5832.4202    29.056857    -5861.477   -31156.756 
   61000    269.85176   -5834.3681    25.740058   -5860.1081    25104.101 
   61200    335.11128   -5829.8864    31.964898   -5861.8513   -12890.562 
   61400     240.8645   -5846.0406    22.975082   -5869.0156   -13952.347 
   61600    222.82134   -5842.4207    21.254019   -5863.6747    17377.854 
   61800     260.0323   -5832.7238    24.803421   -5857.5272    18914.233 
   62000    324.84101   -5827.1493    30.985259   -5858.1345    1180.7834 
   62200    269.54345   -5837.7914     25.71065   -5863.5021   -20384.177 
   62400    302.07809   -5829.5214    28.813997   -5858.3354   -9844.9852 
   62600    306.68849   -5830.6612    29.253764   -5859.9149    2283.3322 
   62800    202.02352   -5842.2049    19.270199   -5861.4751   -2694.7408 
   63000    282.72202   -5832.0542      26.9677   -5859.0219    6875.9478 
   63200    343.65169    -5825.426    32.779534   -5858.2055    1561.1393 
   63400    279.94401   -5833.3348    26.702717   -5860.0375    21129.804 
   63600    272.17043   -5832.1889    25.961227   -5858.1502    22515.998 
   63800    388.86208   -5814.5961    37.091968   -5851.6881   -12763.141 
   64000    271.43088   -5827.6949    25.890685   -5853.5856   -28663.538 
   64200    253.64302   -5838.3857    24.193973   -5862.5797   -14384.662 
   64400    375.27484   -5827.0983    35.795937   -5862.8942    16130.894 
   64600    303.83413   -5832.2255    28.981498    -5861.207   -20272.132 
   64800    267.91515   -5841.9546    25.555333   -5867.5099    8164.5883 
   65000    243.58821   -5831.4382    23.234886   -5854.6731   -12489.024 
   65200    295.35456   -5827.3375    28.172667   -5855.5101   -4700.3708 
   65400    258.92504   -5839.0009    24.697804   -5863.6987       4206.9 
   65600    288.43616    -5824.428    27.512749   -5851.9408   -4853.9604 
   65800    323.68875   -5829.0873     30.87535   -5859.9627    14233.964 
   66000    297.23632   -5830.8099     28.35216    -5859.162    310.55081 
   66200    258.14037   -5840.0953    24.622957   -5864.7183    -12520.87 
   66400    360.47993   -5831.2742     34.38471   -5865.6589    15873.208 
   66600    334.86298   -5831.1865    31.941214   -5863.1277   -9148.6219 
   66800    186.22171   -5846.0597    17.762929   -5863.8226    3700.3036 
   67000    337.06278   -5830.7539    32.151044   -5862.9049   -3405.0253 
   67200    319.90945   -5825.4804    30.514858   -5855.9952   -6684.1605 
   67400    328.53718   -5834.4721    31.337822     -5865.81    19399.156 
   67600     263.0788   -5838.1419    25.094014    -5863.236    10075.181 
   67800    380.36695   -5822.1108    36.281652   -5858.3925    10636.411 
   68000    285.56105   -5833.6587    27.238504   -5860.8973   -11541.062 
   68200    302.50758   -5835.5939    28.854964   -5864.4488    8170.9943 
   68400    321.09402   -5818.9619    30.627849   -5849.5898    18163.211 
   68600     306.0578   -5835.2732    29.193606   -5864.4668    12598.563 
   68800    276.17172   -5837.1158    26.342894   -5863.4587    5086.6544 
   69000    371.46694   -5825.4758    35.432716   -5860.9085   -7906.4329 
   69200    282.40479   -5833.2464    26.937441   -5860.1839    15746.702 
   69400    275.70156   -5840.6002    26.298047   -5866.8982    3047.4307 
   69600    330.50593   -5830.7997    31.525613   -5862.3253   -41470.338 
   69800    336.65358   -5829.4935    32.112012   -5861.6055    32555.237 
   70000    224.35155   -5844.9923    21.399979   -5866.3923    18959.925 
   70200    256.86878   -5838.5768    24.501666   -5863.0785   -25363.646 
   70400    274.49161   -5828.8625    26.182635   -5855.0452    15297.536 
   70600    280.02698   -5838.4751    26.710631   -5865.1858    1018.7209 
   70800    291.08142   -5834.4193    27.765069   -5862.1844    5715.5805 
   71000    289.63695   -5827.9006    27.627287   -5855.5279   -13446.164 
   71200    325.93247   -5831.4275    31.089369   -5862.5169     20156.38 
   71400    260.38002   -5841.2718    24.836588   -5866.1084    1154.1829 
   71600    303.48856   -5830.6326    28.948536   -5859.5811   -25938.788 
   71800    245.41748   -5835.1468    23.409373   -5858.5561   -5251.7321 
   72000    322.50016   -5833.2644    30.761975   -5864.0263   -1914.8869 
   72200    272.74241   -5833.6737    26.015786   -5859.6895    1524.0505 
   72400    372.90122   -5822.1893    35.569527   -5857.7588    3518.3942 
   72600    302.59431   -5833.9022    28.863237   -5862.7654   -9284.2077 
   72800    342.58712   -5829.8541    32.677988   -5862.5321   -4294.6492 
   73000    253.99043    -5843.262    24.227111   -5867.4891   -7579.7949 
   73200    259.70583   -5838.7779     24.77228   -5863.5502    15735.433 
   73400     296.7991   -5833.3525    28.310455    -5861.663    5214.8752 
   73600    317.14394   -5831.7971    30.251067   -5862.0481   -7074.3765 
   73800    313.54707   -5833.7588    29.907976   -5863.6668   -16.418566 
   74000    359.72299   -5830.2143    34.312509   -5864.5268   -14158.749 
   74200    319.47664   -5827.4604    30.473573   -5857.9339    -4397.902 
   74400    247.02353   -5840.8704    23.562567    -5864.433    18562.256 
   74600    331.29033   -5832.6112    31.600434   -5864.2116   -9680.0527 
   74800    320.20111   -5829.1104    30.542678   -5859.6531   -12098.832 
   75000    348.95483   -5829.4537    33.285378   -5862.7391   -8960.6209 
   75200    268.89842   -5835.6579    25.649124    -5861.307    11889.732 
   75400    271.03202   -5836.6748    25.852639   -5862.5275   -10492.208 
   75600    325.70166   -5821.2466    31.067353    -5852.314    5938.4258 
   75800    300.21919    -5835.143    28.636684   -5863.7797    10335.248 
   76000    278.45047   -5831.3807    26.560255    -5857.941   -14651.708 
   76200    348.67819   -5823.3715     33.25899   -5856.6305   -4159.6198 
   76400    276.17225   -5832.9624    26.342945   -5859.3054   -7563.0272 
   76600    321.50465   -5832.4651    30.667017   -5863.1321   -6167.8712 
   76800    268.66589   -5841.4155    25.626943   -5867.0425   -4066.5357 
   77000    346.27955   -5831.7456    33.030194   -5864.7758    9986.8859 
   77200    337.52981   -5830.1233    32.195592   -5862.3189    10457.139 
   77400    283.35591   -5837.5197    27.028164   -5864.5479   -32334.271 
   77600     286.5411   -5833.0248    27.331987   -5860.3568   -29020.428 
   77800    266.63346     -5823.05    25.433078   -5848.4831   -6826.3336 
   78000    345.57753   -5825.2603    32.963231   -5858.2236    10927.406 
   78200    225.26053   -5835.8618    21.486683   -5857.3485   -6363.3425 
   78400    323.60203   -5827.1766    30.867078   -5858.0437    15231.815 
   78600    267.44405   -5840.3385    25.510397   -5865.8489    29284.873 
   78800    236.16716   -5839.8045    22.527022   -5862.3315   -594.89843 
   79000    310.89351   -5826.0503    29.654864   -5855.7051     22653.12 
   79200    299.81849   -5835.1339    28.598463   -5863.7324    9090.3282 
   79400    249.62478   -5836.8418     23.81069   -5860.6525   -18115.979 
   79600    353.40582   -5826.3205     33.70994   -5860.0305    4979.4343 
   79800    265.35052   -5831.1454    25.310704   -5856.4561   -849.62665 
   80000    295.02728   -5836.5912    28.141449   -5864.7326   -18656.376 
   80200    323.10237   -5831.9934    30.819417   -5862.8128    21487.436 
   80400    347.83731   -5822.8589    33.178783   -5856.0377    10881.121 
   80600    314.62537    -5838.164    30.010831   -5868.1749    7180.5648 
   80800    283.62167   -5833.9951    27.053514   -5861.0486   -23945.329 
   81000    303.50087   -5826.1452    28.949711   -5855.0949   -967.97826 
   81200    296.50525   -5827.0952    28.282427   -5855.3777   -14651.328 
   81400    275.95317   -5838.5779    26.322047      -5864.9    18366.965 
   81600    266.21168    -5831.694    25.392846   -5857.0869    24572.478 
   81800    328.58763    -5827.987    31.342634   -5859.3297   -4347.9728 
   82000    258.46138   -5830.6353    24.653577   -5855.2889     7577.882 
   82200    267.80479   -5837.6743    25.544807   -5863.2191    -34027.19 
   82400    339.95565   -5823.3184    32.426983   -5855.7453    8710.6316 
   82600    341.91704   -5830.9991    32.614072   -5863.6132   -19709.056 
   82800    289.71427   -5832.9237    27.634662   -5860.5583   -9067.2075 
   83000    312.32769   -5831.5606    29.791664   -5861.3523    7873.3782 
   83200    283.95833    -5830.532    27.085627   -5857.6176   -3788.2378 
   83400    317.65099   -5824.3895    30.299432    -5854.689   -8216.5282 
   83600    288.35554   -5836.9085    27.505059   -5864.4136   -6841.9862 
   83800    284.07785   -5833.5661    27.097028   -5860.6631   -13131.646 
   84000    387.11468   -5828.8525     36.92529   -5865.7778    3736.6662 
   84200    288.31683   -5839.9548    27.501366   -5867.4562   -2141.1793 
   84400     262.9088   -5841.1284    25.077798   -5866.2062   -9465.5865 
   84600    259.68406   -5833.3402    24.770203   -5858.1104   -31184.941 
   84800    260.66731   -5834.7483    24.863991   -5859.6123   -20128.903 
   85000    223.87118   -5844.8475    21.354159   -5866.2016   -17834.461 
   85200    302.53955   -5832.1451    28.858014   -5861.0031   -8744.7188 
   85400    406.37738   -5827.0647    38.762681   -5865.8274   -18702.864 
   85600    303.45703   -5836.7624    28.945529   -5865.7079    24070.127 
   85800    314.52042   -5837.3561     30.00082   -5867.3569    10141.869 
   86000    299.41544   -5832.1798    28.560018   -5860.7398    15064.881 
   86200    303.73725   -5832.2521    28.972258   -5861.2244   -24462.125 
   86400    214.39031   -5843.8698    20.449818   -5864.3197   -5659.3555 
   86600    326.14491   -5831.9395    31.109633   -5863.0491    16533.513 
   86800    369.76196   -5827.4924    35.270085   -5862.7625    2858.2809 
   87000    220.76587   -5836.7592    21.057956   -5857.8171    7593.5375 
   87200    305.86937   -5836.0659    29.175632   -5865.2415    12345.706 
   87400    393.57778   -5825.2043    37.541779    -5862.746    5896.8627 
   87600     274.3526   -5833.4343    26.169375   -5859.6037    6699.1613 
   87800    215.30142   -5844.8062    20.536724   -5865.3429   -6601.8382 
   88000    252.02317   -5838.1398    24.039462   -5862.1792    21187.506 
   88200    327.01163    -5828.999    31.192306   -5860.1913     3313.029 
   88400    393.45963   -5825.2726     37.53051   -5862.8032   -8865.0189 
   88600     319.2015   -5833.2573     30.44733   -5863.7046    31757.404 
   88800    252.04165   -5837.5387    24.041226     -5861.58    6309.7617 
   89000     288.6576   -5832.4663    27.533872   -5860.0002    8275.9556 
   89200    341.79586   -5826.2135    32.602514    -5858.816   -21938.288 
   89400    375.09633   -5815.9615    35.778909   -5851.7404   -27956.391 
   89600    295.48361   -5831.8218    28.184977   -5860.0068    42116.055 
   89800    290.65718   -5833.6426    27.724603   -5861.3672    9607.1887 
   90000    358.27969   -5822.1294    34.174839   -5856.3043   -2878.1606 
   90200    309.46464   -5832.7116     29.51857   -5862.2302    19713.196 
   90400    293.68851   -5835.1094    28.013749   -5863.1231   -20550.239 
   90600     277.0836   -5825.6058    26.429874   -5852.0357   -4380.7042 
   90800    355.19914   -5821.3315    33.880997   -5855.2125    10236.334 
   91000    307.55781   -5834.5592    29.336685   -5863.8959    13157.292 
   91200    341.09202    -5824.613    32.535377   -5857.1484   -44021.997 
   91400    261.50453   -5834.3819    24.943851   -5859.3258    31858.674 
   91600    291.83735   -5834.2207    27.837174   -5862.0579    5254.8499 
   91800    340.54063   -5827.0019    32.482782   -5859.4847    13107.109 
   92000    307.08394   -5823.0014    29.291485   -5852.2929    2440.9925 
   92200    303.57334   -5837.2958    28.956622   -5866.2524   -7585.1322 
   92400    326.31712   -5830.6349     31.12606   -5861.7609    243.80622 
   92600    285.76226   -5822.5592    27.257697   -5849.8169    14798.967 
   92800    297.59227    -5832.467    28.386113   -5860.8531    14994.215 
   93000    266.72063   -5843.3032    25.441393   -5868.7446   -8852.4173 
   93200     297.4213   -5834.4663    28.369805   -5862.8361    10086.914 
   93400    261.29154   -5833.0427    24.923535   -5857.9663    18553.948 
   93600    250.78954   -5835.8587    23.921791   -5859.7805    3479.0157 
   93800    287.24346   -5832.5496    27.398982   -5859.9486   -2478.9499 
   94000    426.80839   -5822.1404    40.711511   -5862.8519    27818.731 
   94200    264.78335    -5837.414    25.256604   -5862.6706   -12463.526 
   94400    339.98888   -5832.0785    32.430152   -5864.5086   -2840.6783 
   94600    394.70952   -5818.9293    37.649732   -5856.5791   -4932.6545 
   94800    274.39508   -5834.7672    26.173428   -5860.9406    20084.079 
   95000     367.1355   -5833.1856    35.019558   -5868.2052   -16932.496 
   95200    285.11569   -5827.9311    27.196023   -5855.1271    7789.7851 
   95400    329.78544   -5824.0534    31.456888   -5855.5103    9423.8138 
   95600    286.13285   -5832.4152    27.293046   -5859.7082    -4651.593 
   95800    284.25305   -5828.5215    27.113739   -5855.6353   -13276.751 
   96000    273.60338   -5834.5503    26.097911   -5860.6482    8260.2574 
   96200    322.15285   -5837.5186    30.728846   -5868.2474    13745.012 
   96400    304.77187   -5823.2791    29.070945     -5852.35    23521.353 
   96600     329.8617   -5825.8741    31.464162   -5857.3383    8476.2219 
   96800    261.92062   -5840.7642     24.98354   -5865.7477    -8503.442 
   97000    284.70772    -5831.613    27.157109   -5858.7702     5273.346 
   97200    326.75771    -5826.819    31.168085   -5857.9871   -4040.9768 
   97400    258.00775   -5843.4055    24.610307   -5868.0158    2493.1088 
   97600    259.54922   -5834.6228    24.757341   -5859.3802     22165.48 
   97800    296.22741   -5829.7475    28.255924   -5858.0034    523.51927 
   98000    253.75037   -5841.7863    24.204213   -5865.9905    4816.8458 
   98200    275.16772   -5837.1626    26.247127   -5863.4098    8572.2173 
   98400    292.24589    -5830.273    27.876144   -5858.1491    498.22267 
   98600    241.45007   -5835.4618    23.030938   -5858.4927   -22263.883 
   98800    259.78689   -5837.4157    24.780012   -5862.1957   -4971.7151 
   99000    343.57869   -5825.1111     32.77257   -5857.8837   -856.74458 
   99200    317.91051   -5837.4857    30.324187   -5867.8099   -23502.446 
   99400    244.91031   -5834.6578    23.360995   -5858.0188   -29453.629 
   99600    359.08799   -5813.9117    34.251939   -5848.1637   -16530.281 
   99800    394.81841   -5819.0664    37.660118   -5856.7266    2554.5979 
  100000    295.10199   -5832.9471    28.148575   -5861.0957   -10461.636 
  100200    335.09705   -5832.2215    31.963541    -5864.185   -1677.8135 
  100400    403.15266   -5817.0079    38.455088    -5855.463   -12603.757 
  100600    288.40936   -5832.1941    27.510193   -5859.7042   -19880.125 
  100800    325.13444   -5834.0824    31.013248   -5865.0957    10677.031 
  101000    337.07755    -5827.661    32.152453   -5859.8135    15700.993 
  101200    364.57059   -5822.2258    34.774902   -5857.0007   -26241.398 
  101400    253.03939   -5838.1859    24.136396   -5862.3223    38909.121 
  101600    323.29581   -5828.0828    30.837869   -5858.9207    31702.502 
  101800    289.07631   -5831.6434     27.57381   -5859.2173    6349.0358 
  102000    333.30346   -5834.2333    31.792458   -5866.0257   -29344.191 
  102200    332.17767   -5831.1904    31.685073   -5862.8754   -9262.7458 
  102400    295.53709   -5832.9356    28.190077   -5861.1257    42016.928 
  102600    231.32831     -5839.89    22.065464   -5861.9555    876.03957 
  102800    381.87472   -5826.4426    36.425472   -5862.8681    17628.974 
  103000     295.3641   -5830.9368    28.173577   -5859.1104   -2748.4905 
  103200    288.54879   -5838.3931    27.523493   -5865.9166    22332.821 
  103400    328.97259   -5829.2463    31.379354   -5860.6257    27992.174 
  103600    310.61447    -5828.697    29.628248   -5858.3252   -31869.732 
  103800    285.96391   -5837.5594    27.276931   -5864.8363   -4122.0709 
  104000    280.70637   -5826.5493    26.775436   -5853.3248    6716.8146 
  104200    306.03826   -5830.0375    29.191741   -5859.2292    4264.8157 
  104400    324.91173   -5830.4575    30.992005   -5861.4495    6763.8877 
  104600    305.36422    -5838.963    29.127447   -5868.0905    -9808.413 
  104800    271.31645   -5835.1805    25.879769   -5861.0602   -70.366716 
  105000    393.55737   -5826.2793    37.539832   -5863.8191    14127.006 
  105200    311.62331   -5837.8971    29.724476   -5867.6216     2233.387 
  105400    308.47572   -5833.7274    29.424241   -5863.1516    15163.178 
  105600    283.69109   -5829.8847    27.060136   -5856.9448   -4040.0143 
  105800    338.91239   -5816.5658    32.327471   -5848.8932    8596.9542 
  106000    323.88151   -5833.9548    30.893736   -5864.8486   -10109.055 
  106200    279.25112   -5836.1254    26.636626    -5862.762    9126.8155 
  106400    342.21529   -5822.6614    32.642521   -5855.3039   -9318.6932 
  106600    300.33157   -5833.4044    28.647403   -5862.0518    22951.967 
  106800    322.53113     -5835.12    30.764929   -5865.8849    -17693.93 
  107000    321.45464   -5823.9447    30.662247    -5854.607   -11825.206 
  107200    381.66613   -5829.7302    36.405576   -5866.1358    9116.5171 
  107400    327.03417   -5839.3783    31.194456   -5870.5728    18713.068 
  107600    313.51456   -5826.6335    29.904875   -5856.5384   -30791.683 
  107800    292.69944   -5831.5362    27.919406   -5859.4556    19586.303 
  108000    262.74997   -5841.9238    25.062648   -5866.9865    4513.7212 
  108200    328.81807   -5831.1111    31.364615   -5862.4757    3714.4533 
  108400    319.60952   -5831.8135    30.486248   -5862.2997   -22361.899 
  108600    235.84269   -5846.3352    22.496072   -5868.8313   -3423.9492 
  108800    210.96513    -5849.338    20.123104   -5869.4611    2000.0719 
  109000    252.93692   -5833.5677    24.126621   -5857.6943    11910.086 
  109200    338.61027   -5824.6905    32.298653   -5856.9892   -4646.6487 
  109400    268.32384   -5836.2316    25.594316   -5861.8259    13972.745 
  109600    276.96604   -5829.2788    26.418661   -5855.6975    11193.677 
  109800     364.6689   -5824.7298    34.784279   -5859.5141    26502.016 
  110000    315.90419   -5835.7688    30.132813   -5865.9016    15765.561 
  110200     382.1715   -5826.9121    36.453781   -5863.3658   -3902.4083 
  110400    316.71436   -5829.6883    30.210091   -5859.8984    16123.643 
  110600    275.97953    -5833.313    26.324562   -5859.6375   -14563.069 
  110800    305.73747   -5832.9815     29.16305   -5862.1445   -12103.986 
  111000    278.00148   -5839.3146    26.517427   -5865.8321   -5484.3758 
  111200    318.63498    -5827.848    30.393291   -5858.2412    15860.534 
  111400    230.32136   -5836.6601    21.969415   -5858.6295    12487.945 
  111600    269.16212   -5837.5858    25.674277     -5863.26   -8583.7962 
  111800    290.01939   -5831.0288    27.663767   -5858.6926   -625.42278 
  112000    249.05339   -5843.4952    23.756187   -5867.2514    1548.5201 
  112200    317.86239   -5835.8592    30.319597   -5866.1788    2785.4884 
  112400    289.85484   -5831.0114    27.648071   -5858.6595    12249.347 
  112600    361.83493   -5822.9945    34.513958   -5857.5084   -3737.9515 
  112800    347.86592   -5830.4568    33.181511   -5863.6383     7804.561 
  113000    272.78638   -5836.9791     26.01998   -5862.9991   -11481.869 
  113200    310.64951   -5825.5403    29.631589   -5855.1719   -4402.6048 
  113400    317.09378   -5834.7276    30.246283   -5864.9739    248.31615 
  113600    256.28411   -5840.2822    24.445896   -5864.7281    16573.389 
  113800    317.85519   -5828.1287     30.31891   -5858.4476   -14140.361 
  114000     297.4882   -5831.4028    28.376186    -5859.779    5181.7983 
  114200    252.98959   -5843.4055    24.131645   -5867.5372    2608.7271 
  114400     284.3743   -5833.1492    27.125305   -5860.2745    17755.759 
  114600    322.00503   -5828.9745    30.714747   -5859.6893   -4400.8798 
  114800    277.53739   -5840.5496     26.47316   -5867.0228   -16487.514 
  115000    379.60921   -5827.2494    36.209374   -5863.4588    15187.296 
  115200    290.66254   -5824.4304    27.725114   -5852.1555    9654.6584 
  115400    266.99682   -5836.1553    25.467737   -5861.6231     16564.47 
  115600    316.82451   -5830.5633    30.220598   -5860.7839   -18890.076 
  115800    430.03871   -5815.9915    41.019639   -5857.0112   -18710.617 
  116000    327.12989   -5829.9099    31.203586   -5861.1134     9255.503 
  116200    305.45414    -5836.932    29.136025   -5866.0681   -2216.0105 
  116400    285.24711   -5825.2821    27.208558   -5852.4907   -20437.144 
  116600    374.65509   -5824.3689    35.736821   -5860.1057   -7967.0669 
  116800    292.26471   -5837.0829    27.877938   -5864.9608    1736.1535 
  117000    325.46351   -5829.2368    31.044636   -5860.2814    30461.499 
  117200     301.5752   -5829.4132    28.766029   -5858.1793   -32466.185 
  117400    279.23181   -5830.1956    26.634784   -5856.8303    17722.916 
  117600    272.17864    -5832.038    25.962011        -5858    32155.459 
  117800     263.6339   -5826.6293    25.146963   -5851.7763    9635.8858 
  118000    281.16936   -5828.0237    26.819599   -5854.8433   -3873.2865 
  118200    268.02048   -5836.0638     25.56538   -5861.6292   -17870.422 
  118400    322.34778   -5830.1671     30.74744   -5860.9145   -9514.9621 
  118600    380.37546   -5820.0397    36.282464   -5856.3221   -1688.4387 
  118800    333.49925   -5835.4837    31.811133   -5867.2948   -13318.843 
  119000    282.70891   -5831.6667     26.96645   -5858.6332   -38115.705 
  119200    372.22387   -5821.5691    35.504917    -5857.074   -5231.2478 
  119400    261.87343   -5830.1733    24.979039   -5855.1524    25511.735 
  119600     235.1645   -5839.7933    22.431382   -5862.2247    12868.247 
  119800    310.14846   -5824.5048    29.583797   -5854.0886   -2410.7248 
  120000    255.04159   -5830.2961    24.327378   -5854.6235   -3935.2332 
  120200    256.87964   -5842.3279    24.502701   -5866.8306    3498.7858 
  120400    290.62109   -5834.7179    27.721161    -5862.439    -42728.43 
  120600    338.83113   -5826.9076    32.319719   -5859.2273   -16318.106 
  120800    310.40211    -5834.767    29.607991    -5864.375    2470.2202 
  121000     222.1161   -5846.4645    21.186749   -5867.6513    13199.373 
  121200    298.14272   -5834.1013    28.438618     -5862.54    9049.6107 
  121400    346.29075   -5827.5805    33.031262   -5860.6118   -7740.4969 
  121600    321.72426   -5835.6754    30.687965   -5866.3634    9873.8623 
  121800     302.4568   -5836.1467     28.85012   -5864.9968    6010.5345 
  122000    258.42967   -5831.5508    24.650552   -5856.2013    10743.796 
  122200    265.88301   -5834.5691    25.361496   -5859.9306    5253.7986 
  122400    266.59091   -5843.0862     25.42902   -5868.5152    -2930.978 
  122600    349.35441   -5829.9985    33.323492    -5863.322    4118.0749 
  122800    360.87437   -5823.5792    34.422335   -5858.0016   -21308.091 
  123000    283.22319   -5838.7671    27.015505   -5865.7826     22089.55 
  123200    262.79744   -5833.1938    25.067176    -5858.261    1600.9446 
  123400    355.37843    -5825.115    33.898099   -5859.0131   -29906.658 
  123600    349.53772   -5833.8345    33.340977   -5867.1754    4325.7094 
  123800    243.89149    -5833.881    23.263815   -5857.1449    31156.019 
  124000     366.8282   -5825.6095    34.990246   -5860.5998   -2700.1738 
  124200    363.40971   -5824.4318     34.66417   -5859.0959   -13256.854 
  124400    306.14918   -5834.2641    29.202322   -5863.4664   -3783.0165 
  124600    363.97462   -5827.6165    34.718055   -5862.3345    3304.7447 
  124800    313.94299   -5826.8016    29.945741   -5856.7473   -28051.804 
  125000    318.22533   -5834.9069    30.354217   -5865.2611    7139.0434 
  125200    283.94063   -5830.8766    27.083939   -5857.9605   -15015.158 
  125400    200.40447   -5841.4443    19.115765   -5860.5601   -9720.2029 
  125600    365.36581   -5826.9433    34.850754   -5861.7941    4616.9082 
  125800    310.37476   -5831.7456    29.605383    -5861.351    14189.881 
  126000     235.2939   -5835.8379    22.443725   -5858.2816   -50531.952 
  126200    366.45451   -5824.4001    34.954601   -5859.3547    3521.5816 
  126400    301.82367   -5835.9897    28.789729   -5864.7795   -19118.417 
  126600     312.7527   -5824.3466    29.832205   -5854.1788    19224.382 
  126800    334.24778     -5826.71    31.882532   -5858.5925    9749.0172 
  127000    265.92491    -5838.192    25.365493   -5863.5575    7469.3059 
  127200    299.44574   -5830.6309    28.562908   -5859.1938    11026.664 
  127400    314.75795    -5831.469    30.023477   -5861.4924    21015.991 
  127600    321.44815    -5830.976    30.661628   -5861.6377    14957.766 
  127800    292.39827   -5834.9006    27.890678   -5862.7913   -12812.342 
  128000    245.52783   -5841.5784    23.419899   -5864.9983    4850.6405 
  128200    365.84773    -5826.702    34.896723   -5861.5988    4807.2345 
  128400    316.70319   -5834.2272    30.209026   -5864.4362     39130.88 
  128600    242.39214   -5838.7418    23.120797   -5861.8626   -5250.1337 
  128800    305.35286   -5826.1353    29.126364   -5855.2617   -32824.508 
  129000    273.02057   -5833.0065    26.042319   -5859.0488   -5474.1859 
  129200    254.48925   -5838.5068    24.274692   -5862.7815   -6590.6634 
  129400    351.07254   -5821.6605    33.487378   -5855.1479   -25312.452 
  129600     314.4277   -5832.7714    29.991976   -5862.7634   -47896.869 
  129800    238.47292    -5839.719     22.74696    -5862.466    -9811.629 
  130000    260.70106   -5836.0451    24.867211   -5860.9123    14513.923 
  130200    314.88543   -5830.2691    30.035637   -5860.3047   -8370.1996 
  130400     346.0891   -5832.8096    33.012028   -5865.8216   -31457.014 
  130600    375.20547   -5825.2466     35.78932   -5861.0359    6111.0251 
  130800    272.42265   -5835.6339    25.985286   -5861.6192    13220.284 
  131000    290.44967   -5838.7463    27.704809   -5866.4511    6035.6537 
  131200    370.95402   -5821.3326    35.383791   -5856.7164    15726.382 
  131400    264.47759   -5833.5126    25.227439     -5858.74    20646.946 
  131600    312.58876   -5833.1917    29.816567   -5863.0083    10136.451 
  131800    370.92956   -5819.0163    35.381458   -5854.3978   -5520.4387 
  132000    339.46116   -5827.8349    32.379816   -5860.2147   -13530.218 
  132200    317.96426   -5836.0344    30.329314   -5866.3637   -6600.8752 
  132400     275.5467   -5831.6836    26.283276   -5857.9669    12838.581 
  132600    281.58576    -5826.482    26.859317   -5853.3413    2346.6163 
  132800    253.40163   -5838.1558    24.170948   -5862.3268   -8629.3147 
  133000    269.35277   -5832.1189    25.692462   -5857.8114   -26185.591 
  133200    312.86121   -5826.6555    29.842555    -5856.498   -3305.3609 
  133400    284.23211   -5839.4496    27.111741   -5866.5613    957.97902 
  133600    323.09525   -5827.8368    30.818738   -5858.6556   -44926.056 
  133800    345.72357    -5828.196    32.977162   -5861.1732    17436.143 
  134000    283.13301   -5836.8714    27.006903   -5863.8783    3853.4044 
  134200    412.69397   -5823.9012    39.365195   -5863.2664   -29046.296 
  134400    326.46225   -5822.2142    31.139902   -5853.3541    14846.193 
  134600     266.1834   -5836.9026    25.390148   -5862.2927   -7914.9465 
  134800     300.4568   -5833.5729    28.659349   -5862.2322   -6602.9999 
  135000    361.51653   -5824.3661    34.483588   -5858.8497    19950.994 
  135200    246.02823   -5836.3924    23.467629     -5859.86   -23755.156 
  135400     276.5781   -5832.1941    26.381657   -5858.5757   -10324.312 
  135600    282.30399   -5832.1903    26.927826   -5859.1181   -35174.676 
  135800    262.69478   -5841.6248    25.057384   -5866.6822    8370.7338 
  136000    332.81787   -5828.3713    31.746139   -5860.1175    2398.3269 
  136200    357.19424   -5828.2189    34.071302   -5862.2902   -13139.229 
  136400    174.35799   -5844.4781    16.631298   -5861.1094    8409.6073 
  136600    211.45183   -5845.4998    20.169528   -5865.6693   -9379.7116 
  136800    315.61934   -5831.7287    30.105642   -5861.8343    -6282.422 
  137000    293.28932   -5829.5377    27.975672   -5857.5134    -11839.38 
  137200    256.69648   -5843.7937     24.48523   -5868.2789   -23763.139 
  137400    297.83451   -5834.4352    28.409219   -5862.8444    11956.727 
  137600    281.55897   -5832.0954    26.856762   -5858.9521    11873.554 
  137800     281.6822    -5832.321    26.868516   -5859.1896    2927.8495 
  138000    245.90098   -5828.9469    23.455492   -5852.4024    3249.8095 
  138200    383.33599   -5826.8624    36.564857   -5863.4273    7361.0586 
  138400    245.36006   -5838.9992    23.403896   -5862.4031   -2162.9297 
  138600    326.36912   -5827.3253    31.131019   -5858.4563   -16633.287 
  138800    231.93142   -5834.0026    22.122993   -5856.1256    44950.761 
  139000    285.92103   -5837.5632    27.272841    -5864.836    4841.6181 
  139200    299.84883   -5831.9097    28.601357   -5860.5111    7986.6817 
  139400    347.48033   -5820.8596    33.144731   -5854.0044    18217.414 
  139600    287.49341    -5836.815    27.422824   -5864.2378    2098.5875 
  139800     333.9004      -5831.4    31.849397   -5863.2494    1488.5983 
  140000    237.02417   -5829.8265    22.608769   -5852.4353    22796.822 
  140200    236.50979   -5843.4078    22.559704   -5865.9675    1682.2651 
  140400    195.78919    -5850.638    18.675533   -5869.3135    -13014.95 
  140600     316.6934   -5836.3792    30.208092   -5866.5873   -6692.6364 
  140800    335.80434   -5824.6078    32.031006   -5856.6388   -1947.8747 
  141000    295.81089   -5836.7801    28.216194   -5864.9963    14937.454 
  141200     247.8912   -5834.6051    23.645331   -5858.2505   -10055.138 
  141400    338.45285   -5821.4598    32.283637   -5853.7434    16824.405 
  141600    278.56973   -5835.6756    26.571631   -5862.2473    29493.438 
  141800    254.57926   -5833.2537    24.283277    -5857.537   -31256.799 
  142000    284.55814   -5823.8459    27.142841   -5850.9888    -15406.12 
  142200    275.78058   -5839.1422    26.305585   -5865.4478   -15125.231 
  142400    284.57754   -5837.7437    27.144691   -5864.8884    10773.547 
  142600    421.20817   -5827.9743     40.17733   -5868.1516   -12809.804 
  142800    216.85714   -5840.5506    20.685118   -5861.2357    24781.238 
  143000    260.99537    -5842.387    24.895284   -5867.2823   -25016.619 
  143200    317.02083   -5828.4793    30.239324   -5858.7186   -1727.9996 
  143400    284.12614   -5832.1292    27.101633   -5859.2308    38273.601 
  143600    329.75877   -5830.6797    31.454344   -5862.1341   -6203.7297 
  143800     277.8875   -5828.5063    26.506556   -5855.0129   -14716.049 
  144000    234.27894   -5836.2975    22.346912   -5858.6444    11706.768 
  144200    302.22504    -5835.143    28.828014    -5863.971   -22830.002 
  144400    401.70505   -5820.8866    38.317007   -5859.2036    24739.899 
  144600    308.14193   -5836.7511    29.392402   -5866.1435     18100.47 
  144800    270.62497   -5834.6318    25.813812   -5860.4456   -14317.781 
  145000    364.10032   -5825.6013    34.730044   -5860.3314   -17723.166 
  145200    354.95566   -5828.9703    33.857773   -5862.8281    3310.2731 
  145400    255.14221   -5833.9755    24.336975   -5858.3124   -12822.228 
  145600    401.32266   -5820.9364    38.280532   -5859.2169    11770.695 
  145800    222.33096   -5833.4235    21.207243   -5854.6308    4378.1714 
  146000    280.80228   -5835.8663    26.784584   -5862.6508    19122.517 
  146200    319.52998   -5829.7237    30.478661   -5860.2024   -27588.591 
  146400    295.71787   -5829.9335    28.207322   -5858.1408    29258.646 
  146600    242.91136   -5845.7897    23.170324     -5868.96    29129.771 
  146800    258.87324    -5835.986    24.692863   -5860.6789    26521.751 
  147000    298.08425   -5828.5413    28.433041   -5856.9743   -404.93684 
  147200    329.60311   -5833.0604    31.439496   -5864.4999   -15752.224 
  147400    288.57253   -5835.5896    27.525757   -5863.1154    8992.9856 
  147600    281.14441   -5828.4303    26.817219   -5855.2475    -7131.657 
  147800    323.93442   -5830.9899    30.898783   -5861.8886    694.43667 
  148000    284.17786   -5840.8637    27.106568   -5867.9703    10468.102 
  148200    313.43962   -5828.5028    29.897727   -5858.4006    16199.223 
  148400    280.88574   -5829.3224    26.792545   -5856.1149   -15230.369 
  148600    255.46776   -5843.0625    24.368028   -5867.4305    26686.448 
  148800    321.29212   -5832.1087    30.646745   -5862.7555   -25439.921 
  149000    307.71982   -5827.9783    29.352139   -5857.3305    1877.3217 
  149200    291.20931   -5838.7168    27.777268   -5866.4941     64.39852 
  149400    298.82075   -5831.6623    28.503293   -5860.1656    21251.538 
  149600    334.90309    -5826.322     31.94504    -5858.267   -14953.857 
  149800    254.32718   -5836.4859    24.259232   -5860.7451    -16466.66 
  150000    302.59593   -5831.5929    28.863392   -5860.4563   -2815.9072 
  150200    332.95467   -5828.2145    31.759188   -5859.9737    9005.1541 
  150400    298.16689   -5837.8631    28.440923    -5866.304   -16757.447 
  150600    311.87381   -5822.3504    29.748371   -5852.0988   -7864.7141 
  150800    275.24733   -5829.9866     26.25472   -5856.2413    26760.021 
  151000    271.12161   -5839.0475    25.861185   -5864.9087    8528.4887 
  151200    247.11949    -5844.556     23.57172   -5868.1277   -1348.8765 
  151400    286.72289   -5834.3809    27.349327   -5861.7303   -2950.8281 
  151600    382.54192   -5827.8161    36.489114   -5864.3052     12082.28 
  151800    272.85024   -5839.0277    26.026071   -5865.0538   -9863.1835 
  152000    259.61768   -5833.6238    24.763872   -5858.3877    14453.753 
  152200    404.78808   -5825.2375    38.611084   -5863.8486     8625.869 
  152400     251.4948   -5833.5661    23.989064   -5857.5552    955.58901 
  152600     285.5551   -5841.4364    27.237937   -5868.6743   -7758.6903 
  152800    314.45416   -5834.1255      29.9945     -5864.12    -860.1068 
  153000    281.44099   -5829.9553    26.845509   -5856.8008   -11113.397 
  153200    252.68392   -5842.5997    24.102488   -5866.7022   -5269.4471 
  153400    242.90811   -5835.8375    23.170014   -5859.0075    872.34925 
  153600     270.7875   -5830.0884    25.829315   -5855.9177   -10523.295 
  153800    282.60735   -5829.7648    26.956762   -5856.7216    23880.644 
  154000    255.76501   -5839.4477    24.396381   -5863.8441    1038.4537 
  154200    284.14216   -5825.1379    27.103161   -5852.2411   -12768.777 
  154400    342.51279   -5829.7546    32.670898   -5862.4255    6773.9852 
  154600     322.8408   -5837.0057    30.794467   -5867.8002    7386.2191 
  154800    305.75063   -5826.9756    29.164306   -5856.1399    3325.1929 
  155000    350.55675   -5820.9623    33.438179   -5854.4004    7810.7034 
  155200    276.06845   -5835.6463    26.333044   -5861.9794     9061.695 
  155400    310.26117   -5830.7357    29.594548   -5860.3303    -1995.923 
  155600    331.56594   -5824.9054    31.626723   -5856.5322   -26111.872 
  155800    272.95116   -5830.9695    26.035698   -5857.0052    5886.1348 
  156000    282.07404   -5833.0536    26.905892   -5859.9595    2021.5902 
  156200    318.26788   -5832.6547    30.358275   -5863.0129    1194.8759 
  156400    328.38749   -5822.8198    31.323543   -5854.1434   -5328.0292 
  156600    326.84685   -5834.2501    31.176588   -5865.4266    4650.5973 
  156800    286.33103   -5834.1803    27.311949   -5861.4922   -32223.898 
  157000      319.995   -5827.2771    30.523018   -5857.8001    5295.2792 
  157200    247.20663   -5839.9581    23.580032   -5863.5381   -10961.568 
  157400    355.69958   -5829.3951    33.928733   -5863.3238    11154.007 
  157600    286.53444   -5829.4074    27.331352   -5856.7388     6365.152 
  157800    342.79745   -5831.4772     32.69805   -5864.1753    4394.6034 
  158000    274.52109   -5838.5884    26.185447   -5864.7738   -17198.517 
  158200    351.33262   -5823.1652    33.512186   -5856.6774    12554.982 
  158400    279.77006   -5833.4902    26.686125   -5860.1764    5986.1818 
  158600    289.43329    -5836.647    27.607862   -5864.2549   -13165.899 
  158800    281.46467   -5832.2689    26.847767   -5859.1167     3120.939 
  159000    333.41112   -5829.0047    31.802727   -5860.8074    1982.5409 
  159200     262.8662   -5835.8005    25.073735   -5860.8742     122.3396 
  159400    382.78841   -5822.8478    36.512626   -5859.3604   -18590.418 
  159600     240.9299   -5831.2961     22.98132   -5854.2774   -18995.192 
  159800    348.43531   -5834.7254    33.235823   -5867.9612    6533.2558 
  160000    375.66249   -5818.8661    35.832912   -5854.6991    11861.291 
  160200    226.03264    -5836.901    21.560332   -5858.4613    12093.903 
  160400    283.19093   -5830.4734    27.012428   -5857.4858   -20977.762 
  160600    368.15436   -5819.0565    35.116743   -5854.1732   -21847.336 
  160800    275.34072   -5834.1878    26.263628   -5860.4515   -1618.2527 
  161000    293.10714   -5830.1692    27.958295   -5858.1275    2723.9393 
  161200    308.98629   -5825.4041    29.472942    -5854.877    15105.521 
  161400    291.41665   -5834.8855    27.797045   -5862.6825    487.25388 
  161600    315.78283   -5827.8746    30.121237   -5857.9958    16406.921 
  161800    282.92618   -5832.8966    26.987174   -5859.8838    10324.646 
  162000    261.78551   -5841.6496    24.970652   -5866.6203   -14928.505 
  162200    329.06001   -5824.7397    31.387692   -5856.1274    14164.821 
  162400    377.62639   -5827.5388    36.020241   -5863.5591    20598.794 
  162600    311.05617   -5830.3781    29.670379   -5860.0485   -11126.633 
  162800    329.09694   -5824.3323    31.391215   -5855.7235   -29930.706 
  163000     252.4983   -5829.8585    24.084783   -5853.9433    969.36007 
  163200    313.20453   -5831.5298    29.875303   -5861.4051   -26719.511 
  163400    278.20921   -5833.3178    26.537241   -5859.8551   -10336.985 
  163600    280.66515   -5840.5751    26.771504   -5867.3466   -11164.197 
  163800    325.33087   -5824.5172    31.031985   -5855.5492    24572.684 
  164000    338.25946   -5832.7222     32.26519   -5864.9873   -9447.8367 
  164200    345.85875   -5838.5448    32.990056   -5871.5348    3347.6508 
  164400    350.37779   -5824.9009    33.421108    -5858.322    10978.841 
  164600    298.29396   -5832.4407    28.453044   -5860.8938    16177.498 
  164800     260.4826   -5832.8923    24.846373   -5857.7387   -15455.711 
  165000    394.22751    -5818.177    37.603755   -5855.7808    30024.702 
  165200    353.84983   -5832.8012    33.752293   -5866.5535    21304.032 
  165400     240.7275     -5835.98    22.962015    -5858.942    6154.4434 
  165600     389.3275   -5821.7413    37.136362   -5858.8777    10225.942 
  165800    287.25257   -5832.2056    27.399851   -5859.6054     4118.354 
  166000    257.41517    -5834.092    24.553784   -5858.6458    17926.164 
  166200    310.85469   -5824.1314    29.651161   -5853.7826     6241.395 
  166400    382.15601   -5820.3573    36.452303   -5856.8096   -14382.431 
  166600    270.78515   -5835.6676    25.829091   -5861.4966   -23643.297 
  166800    350.90834   -5830.2422    33.471716   -5863.7139   -22335.568 
  167000    284.12332   -5823.3984    27.101364   -5850.4998      23025.3 
  167200    289.41589   -5836.4695    27.606201   -5864.0757    25337.131 
  167400    301.73465   -5828.4366    28.781238   -5857.2178   -8430.8186 
  167600    239.62071   -5832.7443    22.856442   -5855.6008    8509.7167 
  167800    229.43997   -5842.5692    21.885343   -5864.4546    1469.9511 
  168000     296.8301   -5834.5017    28.313413   -5862.8151    -6144.974 
  168200    319.64979   -5827.2729     30.49009    -5857.763   -5266.1175 
  168400    235.04937   -5841.5295    22.420401   -5863.9499    5315.5612 
  168600    269.81607     -5835.45    25.736654   -5861.1867   -11023.691 
  168800    297.32458   -5828.5177    28.360579   -5856.8783   -43764.339 
  169000    302.72831   -5832.7995    28.876019   -5861.6755   -20740.688 
  169200    206.60137   -5846.0633    19.706862   -5865.7701    992.62166 
  169400    295.08386   -5833.5216    28.146846   -5861.6685    6271.1731 
  169600    320.44239   -5828.1599    30.565692   -5858.7256    4386.9324 
  169800    262.51766   -5840.1024    25.040489   -5865.1429   -8531.4536 
  170000    271.62928   -5831.3134    25.909609    -5857.223     23888.86 
  170200    243.15266   -5831.6996     23.19334    -5854.893   -6815.3474 
  170400    235.32617   -5838.1504    22.446803   -5860.5972    13256.543 
  170600    341.73013   -5824.3829    32.596243   -5856.9791    18365.789 
  170800    294.83076    -5835.384    28.122704   -5863.5067   -3620.3572 
  171000    295.29075   -5833.9165    28.166581   -5862.0831   -12972.106 
  171200    402.68989   -5829.5206    38.410946   -5867.9315    17182.487 
  171400    261.89059   -5838.7623    24.980675    -5863.743   -7515.7243 
  171600    321.96069   -5831.7563    30.710517   -5862.4668   -1657.9195 
  171800    346.39525   -5824.3603     33.04123   -5857.4015   -17459.212 
  172000    241.93835   -5838.5482    23.077513   -5861.6257    12324.685 
  172200     354.8198   -5829.4723    33.844814   -5863.3171    17738.064 
  172400    367.35431   -5824.8965     35.04043   -5859.9369    7997.2528 
  172600    240.92605   -5839.0387    22.980953   -5862.0196    -15278.17 
  172800    278.85642    -5831.388    26.598976   -5857.9869    30127.359 
  173000     304.0895   -5822.9465    29.005857   -5851.9524    7788.2185 
  173200    265.74137   -5840.4929    25.347986   -5865.8409   -6782.5198 
  173400    341.40469    -5831.756    32.565201   -5864.3212    18719.937 
  173600    327.96645   -5822.5368    31.283382   -5853.8202    40526.814 
  173800    256.85128   -5837.9063    24.499996   -5862.4063    -17972.48 
  174000    291.59432   -5833.5219    27.813993   -5861.3359   -3180.3184 
  174200    315.46965   -5822.6429    30.091363   -5852.7343    27113.152 
  174400    258.35559   -5838.1911    24.643486   -5862.8346   -28410.311 
  174600    399.47078   -5831.9215    38.103888   -5870.0254    11753.152 
  174800    262.46687   -5825.9695    25.035644   -5851.0051    18750.791 
  175000    231.49342   -5843.8136    22.081214   -5865.8948    27489.197 
  175200    290.63271   -5836.7713    27.722269   -5864.4936   -3386.3597 
  175400     337.0951   -5826.0024    32.154127   -5858.1566     20445.03 
  175600     276.6913   -5838.1742    26.392454   -5864.5667    6689.5555 
  175800    267.32839   -5833.6133    25.499365   -5859.1127    7960.2615 
  176000    292.47125   -5819.2945     27.89764   -5847.1921   -33089.756 
  176200     256.7381   -5834.3213      24.4892   -5858.8105   -565.82385 
  176400    342.03637   -5832.1827    32.625454   -5864.8081   -30481.061 
  176600    391.36772   -5812.9842    37.330971   -5850.3152    5453.4988 
  176800    307.68301   -5826.1671    29.348628   -5855.5157   -23704.102 
  177000    249.75449   -5835.4507    23.823062   -5859.2738   -7142.6872 
  177200    290.29694   -5833.5899    27.690241   -5861.2802    15496.773 
  177400    441.93972   -5823.3218    42.154828   -5865.4767    3026.0797 
  177600    351.53635   -5836.7835    33.531619   -5870.3152     -10870.3 
  177800    256.04476   -5831.9695    24.423065   -5856.3926    16489.188 
  178000    333.08363   -5831.0227    31.771489   -5862.7941    23776.443 
  178200    289.83649   -5832.1677     27.64632    -5859.814   -25170.926 
  178400    264.44498   -5834.9097    25.224328    -5860.134    -1702.293 
  178600    314.37392   -5821.6902    29.986846   -5851.6771   -23.323809 
  178800    294.67686   -5835.4515    28.108024   -5863.5595   -15037.434 
  179000    309.16442   -5834.3197    29.489933   -5863.8096   -1709.9195 
  179200    303.56495   -5831.4877    28.955822   -5860.4436    5242.3189 
  179400    256.98829   -5831.7389    24.513065    -5856.252    13130.364 
  179600    266.19863   -5833.3337    25.391602   -5858.7253    18135.742 
  179800    377.74141   -5827.0172    36.031212   -5863.0484   -1042.9557 
  180000    255.65068   -5834.0285    24.385476   -5858.4139    6086.9652 
  180200    287.27849   -5837.3284    27.402324   -5864.7307    8737.6951 
  180400    330.44232   -5823.7218    31.519546   -5855.2414   -35222.443 
  180600    276.02895   -5834.9071    26.329276   -5861.2364        21185 
  180800    232.87888    -5840.221    22.213367   -5862.4344    37840.561 
  181000    305.64978    -5830.849    29.154686   -5860.0037    11159.915 
  181200    274.83542   -5834.5327     26.21543   -5860.7481    13791.633 
[...]
  950000    293.63869   -5835.8556    28.008997   -5863.8646    3570.1499 
  950200    328.66335   -5824.9201    31.349857   -5856.2699   -14151.478 
  950400    247.13128   -5838.3596    23.572845   -5861.9324    8728.1476 
  950600    320.41629   -5834.0948    30.563203    -5864.658   -14441.193 
  950800    272.25706   -5826.6389    25.969491   -5852.6084    -8791.295 
  951000    443.53753   -5811.7074    42.307236   -5854.0147    1822.1615 
  951200    308.42367   -5831.7911    29.419276   -5861.2103   -240.01927 
  951400    229.00307    -5837.852    21.843669   -5859.6957    29009.083 
  951600    303.20493   -5827.8158    28.921482   -5856.7373   -30848.378 
  951800    297.90102   -5835.9022    28.415563   -5864.3178    27179.018 
  952000    255.99579   -5848.4187    24.418394   -5872.8371   -10340.969 
  952200    289.45279   -5834.3706    27.609721   -5861.9804   -29010.958 
  952400    391.02497   -5824.6185    37.298277   -5861.9167    27350.502 
  952600    221.85529    -5839.108    21.161871   -5860.2698    18479.541 
  952800     233.6274   -5835.9667    22.284765   -5858.2515   -17380.919 
  953000    256.71186   -5824.9283    24.486697    -5849.415    34797.667 
  953200    293.73063   -5831.5927    28.017767   -5859.6104    15950.675 
  953400    225.52657   -5836.9042     21.51206   -5858.4162    28156.586 
  953600    330.35882   -5829.7827     31.51158   -5861.2943   -30282.974 
  953800    294.54982   -5841.6528    28.095906   -5869.7487   -17483.031 
  954000    363.98483   -5831.6825    34.719029   -5866.4015    30980.929 
  954200    245.90265   -5835.8656    23.455651   -5859.3212   -14330.987 
  954400    314.82942   -5831.0309    30.030295   -5861.0612    21954.751 
  954600    275.00233   -5826.1351     26.23135   -5852.3665   -24951.425 
  954800    260.20191   -5833.1694    24.819599    -5857.989    -7504.104 
  955000    376.66743   -5818.3239     35.92877   -5854.2526        21983 
  955200    356.20679   -5828.4902    33.977113   -5862.4673    3031.1406 
  955400    238.40862   -5837.3596    22.740826   -5860.1004   -13522.325 
  955600    319.07775   -5828.4218    30.435525   -5858.8573    16303.671 
  955800    377.12247   -5823.5988    35.972174    -5859.571   -16233.686 
  956000    231.35931   -5836.1075    22.068421    -5858.176    13511.756 
  956200    319.23989   -5830.6547    30.450991   -5861.1057    -6837.247 
  956400    364.01992   -5824.1513    34.722376   -5858.8736    -9762.569 
  956600    339.33938   -5836.2185      32.3682   -5868.5867   -3061.2279 
  956800    257.70664   -5837.0412    24.581586   -5861.6228     19002.97 
  957000    329.67378   -5833.3125    31.446238   -5864.7588   -13739.304 
  957200    356.07039   -5829.5625    33.964102   -5863.5266    7054.3373 
  957400    260.22568   -5840.8344    24.821866   -5865.6563    14694.795 
  957600    302.28435   -5830.7425    28.833671   -5859.5762   -1210.1444 
  957800    287.19787   -5830.6199    27.394633   -5858.0145   -16611.436 
  958000    268.45998    -5840.511    25.607303   -5866.1183   -2570.1564 
  958200    229.50172   -5845.4545    21.891233   -5867.3457    21681.655 
  958400    234.50753    -5829.739    22.368717   -5852.1077    11127.918 
  958600    306.52333   -5835.9173     29.23801   -5865.1553   -17828.934 
  958800    240.88377   -5839.1612    22.976921   -5862.1381    4170.4623 
  959000    319.67631   -5830.5583    30.492619   -5861.0509   -12855.374 
  959200    310.81334   -5824.8501    29.647217   -5854.4973    19254.002 
  959400    358.42222   -5821.5508    34.188433   -5855.7392    2372.6891 
  959600    289.88539   -5835.0149    27.650985   -5862.6659     16215.26 
  959800    288.45852   -5835.6413    27.514882   -5863.1562    4791.5836 
  960000    298.99055   -5822.8337    28.519489   -5851.3532     10934.95 
  960200    272.67671   -5834.8143    26.009519   -5860.8238    16058.423 
  960400    311.31678   -5832.7788    29.695238   -5862.4741   -3369.5907 
  960600    318.87921   -5824.5878    30.416587   -5855.0044    6969.2858 
  960800    267.58357   -5830.0071    25.523705   -5855.5308    -24336.72 
  961000    244.78776   -5843.6022    23.349306   -5866.9515    6170.3764 
  961200    281.07952    -5829.255    26.811029    -5856.066    27157.621 
  961400     303.1633   -5839.7884    28.917511   -5868.7059   -12979.015 
  961600    251.34521   -5840.4019    23.974794   -5864.3767   -14982.311 
  961800    280.49847   -5833.3155    26.755605   -5860.0711     11019.42 
  962000    314.61367   -5828.1551    30.009715   -5858.1648    11992.985 
  962200    207.49485   -5843.7401    19.792087   -5863.5322   -9616.7491 
  962400    294.31597   -5835.1702      28.0736   -5863.2438   -12208.302 
  962600    340.39544   -5830.8929    32.468933   -5863.3619    22303.304 
  962800    290.50267   -5844.8282    27.709865   -5872.5381     22024.13 
  963000    239.51229   -5838.7216    22.846101   -5861.5677   -22890.849 
  963200    191.15262   -5832.1272    18.233269   -5850.3605    15253.285 
  963400    350.92027    -5819.305    33.472853   -5852.7779    11639.825 
  963600    296.45324   -5836.4837    28.277466   -5864.7612    -21198.77 
  963800    334.58582   -5829.4342    31.914777    -5861.349   -11087.776 
  964000    361.95081   -5828.2883    34.525012   -5862.8134    3895.6443 
  964200    288.50274    -5839.282      27.5191   -5866.8011    7365.9107 
  964400    264.61612   -5832.0016    25.240652   -5857.2422   -17963.185 
  964600    331.14896   -5828.6714    31.586948   -5860.2584    12102.938 
  964800    268.32138   -5841.0589    25.594082    -5866.653    2244.1941 
  965000      253.418   -5829.3797     24.17251   -5853.5522   -9885.6851 
  965200    344.92764   -5826.3386    32.901241   -5859.2398    19038.401 
  965400    259.76965     -5838.66    24.778368   -5863.4383    15764.419 
  965600    318.91853   -5831.8754    30.420338   -5862.2957    3307.0585 
  965800    265.20542    -5833.859    25.296863   -5859.1559    7101.3151 
  966000     246.3622   -5838.2637    23.499485   -5861.7632   -7366.5665 
  966200    372.47383   -5828.0626     35.52876   -5863.5914    4516.9942 
  966400    327.84499   -5827.4524    31.271796   -5858.7241    -20362.55 
  966600      308.324   -5820.5929    29.409769   -5850.0027    3470.5894 
  966800    263.26457   -5834.6163    25.111734    -5859.728    24307.343 
  967000    289.91376   -5830.8478    27.653691   -5858.5015    6970.9042 
  967200    283.86587   -5827.3648    27.076808   -5854.4416    2242.2312 
  967400    255.71948     -5840.96    24.392038    -5865.352   -28255.989 
  967600    284.20466   -5831.9358    27.109124    -5859.045    11676.656 
  967800    313.50001   -5831.1075    29.903488    -5861.011   -30000.224 
  968000    299.95097   -5834.1876      28.6111   -5862.7987   -19139.851 
  968200    236.85581    -5841.119     22.59271   -5863.7117    2242.7122 
  968400    310.62131   -5827.3471      29.6289    -5856.976    40499.167 
  968600    272.31227   -5832.9668    25.974757   -5858.9415   -20836.107 
  968800    326.15773    -5834.532    31.110856   -5865.6429    22967.087 
  969000    367.63781   -5815.3027    35.067471   -5850.3702    18873.005 
  969200    292.70352   -5831.0995    27.919795   -5859.0193   -28538.291 
  969400    349.57024   -5827.5215    33.344079   -5860.8656    28546.969 
  969600    354.47995   -5817.9447    33.812396   -5851.7571   -9738.9808 
  969800    323.91019   -5829.6064    30.896472   -5860.5028   -9009.0845 
  970000    271.27413   -5835.1481    25.875733   -5861.0238    20610.085 
  970200    333.46873   -5823.6139    31.808222   -5855.4221    4506.9208 
  970400    307.43884   -5835.3196    29.325337   -5864.6449   -3748.5252 
  970600    275.01473   -5834.3386    26.232533   -5860.5712    21521.244 
  970800    364.06461   -5823.2839    34.726639   -5858.0105     3896.276 
  971000    310.20615   -5829.2686    29.589299   -5858.8578    -17409.73 
  971200    256.73048   -5833.6726    24.488473   -5858.1611    30376.287 
  971400    351.05716    -5826.424    33.485911   -5859.9099   -9230.7769 
  971600    304.39774    -5835.201    29.035259   -5864.2363    1817.0838 
  971800    332.84847   -5836.4993    31.749058   -5868.2484   -240.33591 
  972000    368.12486   -5824.6827    35.113929   -5859.7966    11846.889 
  972200    311.18594   -5829.7302    29.682757   -5859.4129   -16776.002 
  972400    297.48077   -5831.0256    28.375477   -5859.4011    24918.127 
  972600    351.11497   -5825.1312    33.491425   -5858.6227   -8488.4123 
  972800    321.00054   -5838.3357    30.618933   -5868.9546   -3940.5074 
  973000    291.67571    -5836.849    27.821756   -5864.6708    550.98852 
  973200    336.28924   -5829.8002    32.077259   -5861.8775   -2444.6216 
  973400    303.50151   -5830.5674    28.949772   -5859.5172   -11691.525 
  973600    229.47764   -5835.5521    21.888936    -5857.441   -9420.7277 
  973800    336.13784   -5823.0225    32.062818   -5855.0853    9990.2757 
  974000    325.05112   -5832.8236      31.0053   -5863.8289    607.81887 
  974200    256.04345   -5838.3131     24.42294   -5862.7361   -4418.7401 
  974400    258.27936   -5830.5699    24.636215   -5855.2061    -25545.61 
  974600    271.62058   -5840.6452    25.908779    -5866.554   -4513.5158 
  974800    255.17923   -5840.3628    24.340506   -5864.7033    1667.2241 
  975000    386.97758   -5829.3328    36.912213    -5866.245    -5542.169 
  975200    273.86718    -5834.724    26.123073   -5860.8471   -6176.4838 
  975400    213.87666   -5839.4828    20.400822   -5859.8837    15404.268 
  975600    305.71441   -5826.6773    29.160851   -5855.8381    12640.049 
  975800     325.1504   -5833.5614    31.014771   -5864.5762   -335.52835 
  976000    279.55124   -5843.2615    26.665253   -5869.9268     12549.73 
  976200    251.02821   -5831.3626    23.944557   -5855.3072   -10040.394 
  976400    247.03568   -5834.0989    23.563726   -5857.6627   -10648.185 
  976600    271.07041    -5840.383    25.856301   -5866.2393    7446.5213 
  976800    299.09731   -5827.0259    28.529672   -5855.5556   -30104.426 
  977000    365.67814   -5828.4479    34.880546   -5863.3285    16169.165 
  977200    267.85314   -5842.0572    25.549419   -5867.6066   -3568.4665 
  977400    226.97042   -5849.6419    21.649783   -5871.2917   -13612.403 
  977600    297.19446    -5834.565    28.348167   -5862.9132    20863.828 
  977800    292.18035   -5832.6381    27.869892    -5860.508    30044.647 
  978000     329.5092   -5828.6865    31.430539   -5860.1171   -5296.3372 
  978200    213.98001   -5838.7494    20.410681   -5859.1601   -15104.489 
  978400    314.57148   -5827.9572    30.005691   -5857.9629    15940.177 
  978600    329.76995   -5821.5957     31.45541   -5853.0511    19981.194 
  978800    349.79751   -5830.9496    33.365757   -5864.3153    10031.326 
  979000    295.78678   -5837.4535    28.213895   -5865.6674    -13409.81 
  979200    352.90606   -5823.3423    33.662269   -5857.0046    435.65465 
  979400    286.18019   -5834.3825    27.297561   -5861.6801    9682.1459 
  979600    282.81776   -5834.5349    26.976833   -5861.5118    3352.3856 
  979800    299.06775   -5834.3304    28.526853   -5862.8572   -30812.348 
  980000    286.67593   -5826.0868    27.344848   -5853.4316    35007.221 
  980200    266.42655   -5836.8523    25.413342   -5862.2657   -3191.2743 
  980400    299.47072   -5833.6965     28.56529   -5862.2618    14859.626 
  980600    344.86783   -5826.0513    32.895536   -5858.9468   -20364.846 
  980800      316.591   -5832.7982    30.198324   -5862.9965    13972.068 
  981000    263.99428   -5838.4352    25.181338   -5863.6165   -9150.6248 
  981200    319.43898   -5825.3819    30.469982   -5855.8519     2493.204 
  981400    298.97696   -5833.9117    28.518193   -5862.4299    9028.6059 
  981600    316.56666    -5835.417    30.196003    -5865.613   -5534.1486 
  981800    356.18446    -5822.611    33.974983    -5856.586    21100.475 
  982000    286.71521   -5833.6341    27.348595   -5860.9827   -12884.115 
  982200    308.51771   -5838.4905    29.428246   -5867.9187   -679.97853 
  982400    343.36729   -5831.1211    32.752406   -5863.8736    11372.935 
  982600    349.69118   -5825.5258    33.355616   -5858.8814    3884.3625 
  982800    310.51419   -5834.9529    29.618682   -5864.5716    17309.802 
  983000    255.50263   -5839.4397    24.371354    -5863.811   -1908.0728 
  983200    347.29558   -5828.0841    33.127109   -5861.2112    3700.2765 
  983400    236.36473   -5834.8556    22.545867   -5857.4015   -14362.531 
  983600    325.42945   -5822.6622    31.041388   -5853.7036    6269.1195 
  983800    276.02224   -5826.3758    26.328636   -5852.7044    22998.894 
  984000    306.01619   -5834.3172    29.189636   -5863.5068   -8298.4988 
  984200    410.60622   -5821.2375    39.166053   -5860.4036   -33091.284 
  984400    351.14605   -5829.3318     33.49439   -5862.8262   -27487.927 
  984600    294.58821   -5836.8282    28.099568   -5864.9278   -1442.8495 
  984800    399.41549   -5828.1132    38.098615   -5866.2118   -16700.169 
  985000    266.93642    -5832.791    25.461977    -5858.253    8412.5824 
  985200    255.78467   -5837.5783    24.398256   -5861.9765    3006.9015 
  985400     293.6087   -5827.6829    28.006137    -5855.689   -7130.6616 
  985600    320.52772   -5831.0959    30.573832   -5861.6698    -22805.45 
  985800    355.18618   -5831.0107    33.879761   -5864.8905   -5651.6482 
  986000    252.71992   -5839.2197    24.105922   -5863.3257   -8126.0041 
  986200    374.29475   -5830.8041     35.70245   -5866.5065    11579.464 
  986400    351.68235   -5826.4168    33.545545   -5859.9624    3527.6697 
  986600    220.09589   -5841.1434    20.994049   -5862.1375     6809.007 
  986800    326.11712   -5830.0327    31.106982   -5861.1396    10144.125 
  987000    315.82312   -5831.3079    30.125079    -5861.433   -20119.363 
  987200    265.79043    -5831.382    25.352665   -5856.7347   -19747.872 
  987400    297.62689   -5833.7853    28.389415   -5862.1748    2093.6047 
  987600    303.65324   -5825.0882    28.964245   -5854.0524    17525.954 
  987800    359.87846   -5826.6035    34.327339   -5860.9309    -24583.36 
  988000    294.79508   -5838.2312    28.119301   -5866.3505    437.39103 
  988200    364.03041   -5827.1348    34.723376   -5861.8582    -25323.41 
  988400    333.14922   -5822.1376    31.777746   -5853.9153   -375.26482 
  988600    300.87033    -5836.231    28.698794   -5864.9298    16439.517 
  988800    290.86788   -5827.6151      27.7447   -5855.3598   -2289.9097 
  989000    329.50237   -5825.1966    31.429887   -5856.6265    8020.3904 
  989200    291.53907   -5829.2313    27.808723     -5857.04    -40486.21 
  989400    218.97134    -5830.792    20.886783   -5851.6788    12300.955 
  989600    266.37479   -5837.8224    25.408405   -5863.2308    -2629.152 
  989800    298.93214   -5836.4869    28.513918   -5865.0008    7772.4989 
  990000    382.70584     -5829.33     36.50475   -5865.8348   -19335.954 
  990200    231.54355   -5843.9993    22.085995   -5866.0853   -11155.918 
  990400    310.76608   -5835.0328    29.642709   -5864.6755   -9164.0891 
  990600    372.52095   -5824.6003    35.533254   -5860.1335    -17338.09 
  990800    225.65291    -5833.975    21.524111   -5855.4991    6267.1628 
  991000    280.35739   -5839.1817    26.742148   -5865.9239   -4462.8648 
  991200    334.15913   -5829.6639    31.874077    -5861.538   -2383.3746 
  991400     280.2602   -5838.6952    26.732878   -5865.4281   -4354.8528 
  991600    255.23045   -5843.0273    24.345392   -5867.3727   -25816.797 
  991800    268.24651   -5832.7657    25.586941   -5858.3526    1412.7281 
  992000    306.30919   -5828.5911    29.217584   -5857.8087       8224.6 
  992200    279.56383    -5840.948    26.666454   -5867.6145   -21081.519 
  992400    365.68243   -5828.1694    34.880956   -5863.0504   -13949.321 
  992600    270.20666   -5829.1821    25.773911    -5854.956    4292.0234 
  992800    230.22972   -5841.6544    21.960674   -5863.6151    4884.2494 
  993000    272.12191   -5834.8209    25.956599   -5860.7775    8160.9779 
  993200    345.12897   -5828.2194    32.920445   -5861.1398   -8859.4683 
  993400     250.3787   -5836.7345    23.882603   -5860.6171    20288.982 
  993600     352.8048   -5834.8163    33.652611   -5868.4689    8554.6028 
  993800    304.81542   -5826.0198      29.0751   -5855.0949    1613.3042 
  994000    298.71453   -5831.5769    28.493161   -5860.0701   -1556.9331 
  994200    273.59286   -5831.0314    26.096907   -5857.1283     26790.48 
  994400    231.88652   -5834.1209    22.118709   -5856.2396    28120.834 
  994600    243.99886   -5840.8945    23.274057   -5864.1685   -45856.109 
  994800    366.22788   -5825.1205    34.932984   -5860.0535    26017.668 
  995000    330.30079   -5833.0391    31.506045   -5864.5451    3223.9305 
  995200    269.69229   -5839.7192    25.724848   -5865.4441    15302.234 
  995400    293.06175   -5830.2776    27.953965   -5858.2315    21264.707 
  995600    254.65235   -5833.6325    24.290249   -5857.9227   -2674.4529 
  995800    272.76966   -5840.9349    26.018386   -5866.9533    8198.4852 
  996000     367.8635   -5827.3475    35.088999   -5862.4365     4746.943 
  996200    298.86525   -5831.5724    28.507537   -5860.0799   -2613.7121 
  996400    233.00319   -5843.6103    22.225224   -5865.8356   -5090.3985 
  996600    315.20149      -5831.2    30.065785   -5861.2658    7338.7602 
  996800    330.84587   -5830.2317    31.558039   -5861.7897    30158.725 
  997000    248.51312   -5842.0117    23.704653   -5865.7163    1654.4184 
  997200    287.09438   -5828.9963    27.384762   -5856.3811   -3337.9251 
  997400    301.55407   -5830.2357    28.764013   -5858.9997   -19632.783 
  997600    321.33284   -5835.7713    30.650629    -5866.422    26534.757 
  997800    304.10925   -5820.1397    29.007741   -5849.1474    11423.726 
  998000    274.14354   -5829.9268    26.149434   -5856.0762    14751.164 
  998200    329.09689   -5833.6183     31.39121   -5865.0095    19863.939 
  998400    292.12043   -5832.9673    27.864176   -5860.8314   -13176.883 
  998600    317.33439   -5826.8735    30.269234   -5857.1427   -944.22689 
  998800    248.21958   -5840.0057    23.676653   -5863.6823    20350.298 
  999000    294.31456   -5833.6473    28.073466   -5861.7207    13460.953 
  999200    320.51468    -5827.836    30.572588   -5858.4086    4476.2388 
  999400    408.81752   -5824.1945    38.995436   -5863.1899    17104.996 
  999600    237.48441   -5837.5172     22.65267   -5860.1699    119.12687 
  999800       290.95   -5828.1882    27.752534   -5855.9407   -2905.1066 
 1000000     302.0307   -5829.0773    28.809477   -5857.8868    -7053.861 
Loop time of 2333.37 on 8 procs for 1000000 steps with 33 atoms

Performance: 9.257 ns/day, 2.593 hours/ns, 428.565 timesteps/s
99.4% CPU use with 8 MPI tasks x no OpenMP threads

MPI task timing breakdown:
Section |  min time  |  avg time  |  max time  |%varavg| %total
---------------------------------------------------------------
Pair    | 1722.4     | 1864.6     | 2029.5     | 260.2 | 79.91
Neigh   | 0.79282    | 0.81181    | 0.82086    |   1.1 |  0.03
Comm    | 27.148     | 192.38     | 333.52     | 809.1 |  8.24
Output  | 0.094488   | 0.10363    | 0.1626     |   6.9 |  0.00
Modify  | 272.11     | 273.53     | 275.2      |   6.5 | 11.72
Other   |            | 1.898      |            |       |  0.08

Nlocal:    4.125 ave 9 max 0 min
Histogram: 4 0 0 0 0 0 0 0 3 1
Nghost:    696.5 ave 729 max 675 min
Histogram: 2 0 0 2 2 0 1 0 0 1
Neighs:    821.75 ave 1818 max 0 min
Histogram: 4 0 0 0 0 0 0 0 3 1

Total # of neighbors = 6574
Ave neighs/atom = 199.212
Neighbor list builds = 944
Dangerous builds = 0

Please see the log.cite file for references relevant to this simulation

Total wall time: 0:38:56
