ITEM: TIMESTEP
0
ITEM: NUMBER OF ATOMS
160
ITEM: BOX BOUNDS xy xz yz pp pp pp
-6.6294000000000004e+00 1.3258800000000001e+01 -6.6294000000000004e+00
0.0000000000000000e+00 1.1482457623697000e+01 0.0000000000000000e+00
0.0000000000000000e+00 2.1688700000000001e+01 0.0000000000000000e+00
ITEM: ATOMS id type x y z 
8 1 0.706561 4.95147 9.88528 
29 1 4.09014 3.93653 0.162448 
38 1 1.4535 5.38447 8.66377 
67 1 -0.706561 4.95147 0.959074 
87 1 5.45421 1.5739 10.6819 
96 1 -1.4535 5.38447 2.18058 
109 1 0.706561 4.95147 0.959074 
111 1 4.09014 3.93653 10.6819 
127 1 1.4535 5.38447 2.18058 
134 1 -0.706561 4.95147 9.88528 
152 1 -1.4535 5.38447 8.66377 
156 1 5.45421 1.5739 0.162448 
4 1 -1.36407 5.51043 11.0068 
14 1 5.38983 1.43347 19.5081 
33 1 4.64138 1.86383 20.7296 
63 1 1.36407 5.51043 21.5263 
72 1 3.93634 3.951 13.0249 
91 1 3.93481 3.08763 11.8034 
102 1 5.38983 1.43347 13.0249 
106 1 -1.36407 5.51043 21.5263 
114 1 4.64138 1.86383 11.8034 
131 1 1.36407 5.51043 11.0068 
147 1 3.93634 3.951 19.5081 
159 1 3.93481 3.08763 20.7296 
1 1 -2.68855 6.10281 10.5886 
2 1 6.6294e-05 10.583 9.0906 
3 1 -6.6294e-05 7.65501 6.19971 
6 1 -1.17148 6.97869 6.86643 
9 1 1.98769 7.93909 7.51166 
19 1 2.68849 6.1027 10.5886 
20 1 -2.53581 6.191 9.0906 
22 1 -2.69306 7.53146 8.66377 
23 1 1.17141 6.97858 6.86643 
26 1 -1.2399 9.23431 7.51166 
35 1 6.6294e-05 10.7594 10.5886 
36 1 2.53575 6.19088 9.0906 
39 1 6.6294e-05 9.00764 6.86643 
41 1 -2.69459 8.39482 9.88528 
42 1 -0.747796 5.79152 7.51166 
60 1 2.68855 6.10281 0.25571 
61 1 -6.6294e-05 10.583 1.75375 
62 1 6.6294e-05 7.65501 4.64464 
64 1 -1.23957 10.049 2.18058 
65 1 1.17148 6.97869 3.97792 
68 1 -1.98769 7.93909 3.33269 
77 1 -2.68849 6.1027 0.25571 
78 1 2.53581 6.191 1.75375 
81 1 -1.17141 6.97858 3.97792 
83 1 -1.98802 9.61863 0.959074 
84 1 1.2399 9.23431 3.33269 
93 1 -6.6294e-05 10.7594 0.25571 
94 1 -2.53575 6.19088 1.75375 
97 1 -6.6294e-05 9.00764 3.97792 
100 1 0.747796 5.79152 3.33269 
110 1 1.98769 7.93909 3.33269 
117 1 -2.69306 7.53146 2.18058 
120 1 -1.2399 9.23431 3.33269 
129 1 -2.69459 8.39482 0.959074 
130 1 -0.747796 5.79152 3.33269 
132 1 -1.23957 10.049 8.66377 
135 1 -1.98769 7.93909 7.51166 
144 1 -1.98802 9.61863 9.88528 
145 1 1.2399 9.23431 7.51166 
155 1 0.747796 5.79152 7.51166 
7 1 -0.706628 6.38344 11.9045 
24 1 1.45449 7.67878 11.9045 
37 1 -1.17519 9.90856 11.0068 
40 1 -0.747863 8.90269 11.9045 
66 1 0.706628 6.38344 20.6286 
79 1 -2.53926 7.54593 21.5263 
82 1 -1.45449 7.67878 20.6286 
98 1 0.747863 8.90269 20.6286 
108 1 -0.706628 6.38344 20.6286 
118 1 1.45449 7.67878 20.6286 
126 1 -1.17519 9.90856 21.5263 
128 1 -0.747863 8.90269 20.6286 
133 1 0.706628 6.38344 11.9045 
141 1 -2.53926 7.54593 11.0068 
143 1 -1.45449 7.67878 11.9045 
153 1 0.747863 8.90269 11.9045 
16 1 7.33603 5.09901 1.06014 
32 1 5.17491 3.80368 1.06014 
45 1 7.80459 1.5739 0.162448 
48 1 7.37726 2.57976 1.06014 
57 1 5.92277 5.09901 9.78421 
71 1 9.16866 3.93653 10.6819 
74 1 8.08389 3.80368 9.78421 
90 1 5.88154 2.57976 9.78421 
103 1 7.33603 5.09901 9.78421 
113 1 5.17491 3.80368 9.78421 
121 1 7.80459 1.5739 10.6819 
123 1 7.37726 2.57976 9.78421 
138 1 5.92277 5.09901 1.06014 
146 1 9.16866 3.93653 0.162448 
148 1 8.08389 3.80368 1.06014 
158 1 5.88154 2.57976 1.06014 
10 1 9.31795 5.37965 21.433 
11 1 6.62933 0.899421 19.935 
12 1 6.62947 3.82745 17.0441 
15 1 7.80088 4.50376 17.7108 
18 1 4.64171 3.54337 18.356 
27 1 3.94091 5.37976 21.433 
28 1 9.16521 5.29146 19.935 
30 1 9.32246 3.951 19.5081 
31 1 5.45799 4.50388 17.7108 
34 1 7.8693 2.24815 18.356 
43 1 6.62933 0.72305 21.433 
44 1 4.09365 5.29158 19.935 
47 1 6.62933 2.47481 17.7108 
49 1 9.32399 3.08763 20.7296 
50 1 7.3772 5.69094 18.356 
51 1 3.94085 5.37965 11.1001 
52 1 6.62947 0.899421 12.5981 
53 1 6.62933 3.82745 15.489 
55 1 7.86897 1.43347 13.0249 
56 1 5.45792 4.50376 14.8223 
59 1 8.61709 3.54337 14.177 
69 1 9.31789 5.37976 11.1001 
70 1 4.09359 5.29146 12.5981 
73 1 7.80081 4.50388 14.8223 
75 1 8.61742 1.86383 11.8034 
76 1 5.3895 2.24815 14.177 
85 1 6.62947 0.72305 11.1001 
86 1 9.16515 5.29158 12.5981 
89 1 6.62947 2.47481 14.8223 
92 1 5.8816 5.69094 14.177 
105 1 4.64171 3.54337 14.177 
112 1 9.32246 3.951 13.0249 
115 1 7.8693 2.24815 14.177 
124 1 9.32399 3.08763 11.8034 
125 1 7.3772 5.69094 14.177 
137 1 7.86897 1.43347 19.5081 
140 1 8.61709 3.54337 18.356 
149 1 8.61742 1.86383 20.7296 
150 1 5.3895 2.24815 18.356 
160 1 5.8816 5.69094 18.356 
5 1 1.23957 10.049 8.66377 
13 1 7.99347 5.97203 0.162448 
25 1 1.98802 9.61863 9.88528 
54 1 5.26533 5.97203 10.6819 
80 1 2.69306 7.53146 2.18058 
99 1 2.69459 8.39482 0.959074 
101 1 7.99347 5.97203 10.6819 
107 1 1.23957 10.049 2.18058 
119 1 1.98802 9.61863 0.959074 
136 1 5.26533 5.97203 0.162448 
142 1 2.69306 7.53146 8.66377 
154 1 2.69459 8.39482 9.88528 
17 1 5.92284 6.53099 20.7296 
21 1 2.53926 7.54593 11.0068 
46 1 5.1759 6.09799 19.5081 
58 1 7.33596 6.53099 11.8034 
88 1 8.0829 6.09799 13.0249 
95 1 1.17519 9.90856 21.5263 
104 1 5.92284 6.53099 11.8034 
116 1 2.53926 7.54593 21.5263 
122 1 5.1759 6.09799 13.0249 
139 1 7.33596 6.53099 20.7296 
151 1 1.17519 9.90856 11.0068 
157 1 8.0829 6.09799 19.5081 
ITEM: TIMESTEP
10
ITEM: NUMBER OF ATOMS
160
ITEM: BOX BOUNDS xy xz yz pp pp pp
-6.6294000000000004e+00 1.3258800000000001e+01 -6.6294000000000004e+00
0.0000000000000000e+00 1.1482457623697000e+01 0.0000000000000000e+00
0.0000000000000000e+00 2.1688700000000001e+01 0.0000000000000000e+00
ITEM: ATOMS id type x y z 
8 1 0.7334 4.88036 9.86959 
29 1 4.07128 3.89976 0.186703 
38 1 1.47567 5.31065 8.65786 
67 1 -0.7334 4.88036 0.974764 
87 1 5.41293 1.57595 10.6576 
96 1 -1.47567 5.31065 2.18649 
109 1 0.733432 4.88036 0.97477 
111 1 4.07128 3.89972 10.6576 
127 1 1.47571 5.31068 2.18649 
134 1 -0.733432 4.88036 9.86958 
152 1 -1.47571 5.31068 8.65786 
156 1 5.4129 1.57597 0.186706 
4 1 -1.34165 5.47571 11.0311 
14 1 5.33699 1.37736 19.5022 
33 1 4.59321 1.80504 20.7139 
63 1 1.34165 5.47571 21.502 
72 1 3.86132 3.93329 13.0308 
91 1 3.85981 3.07532 11.8191 
102 1 5.33703 1.37734 13.0308 
106 1 -1.34162 5.4757 21.502 
114 1 4.59323 1.80501 11.8191 
131 1 1.34162 5.4757 11.0311 
147 1 3.86133 3.93334 19.5022 
159 1 3.8598 3.07535 20.7139 
1 1 -2.65111 6.12438 10.5739 
2 1 1.00368e-05 10.6063 9.04691 
3 1 -8.62041e-06 7.65498 6.23406 
6 1 -1.21078 6.95593 6.85673 
9 1 2.03388 7.97211 7.46047 
19 1 2.65109 6.12434 10.5739 
20 1 -2.55592 6.17932 9.04691 
22 1 -2.76808 7.54917 8.65786 
23 1 1.21076 6.95594 6.85673 
26 1 -1.29159 9.2578 7.46048 
35 1 1.85813e-05 10.7162 10.5739 
36 1 2.5559 6.17931 9.0469 
39 1 -6.37422e-06 9.05306 6.85674 
41 1 -2.76959 8.40714 9.86959 
42 1 -0.742298 5.73501 7.46047 
60 1 2.65111 6.12438 0.27042 
61 1 -1.00368e-05 10.6063 1.79744 
62 1 8.62041e-06 7.65498 4.61029 
64 1 -1.29241 10.1051 2.18649 
65 1 1.21078 6.95593 3.98762 
68 1 -2.03388 7.97211 3.38388 
77 1 -2.65109 6.12434 0.270423 
78 1 2.55592 6.17932 1.79744 
81 1 -1.21076 6.95594 3.98762 
83 1 -2.03619 9.67742 0.974763 
84 1 1.29159 9.2578 3.38387 
93 1 -1.85813e-05 10.7162 0.27042 
94 1 -2.5559 6.17931 1.79745 
97 1 6.37422e-06 9.05306 3.98761 
100 1 0.742298 5.73501 3.38388 
110 1 2.03388 7.97215 3.38387 
117 1 -2.76807 7.54912 2.1865 
120 1 -1.29162 9.25778 3.38388 
129 1 -2.7696 8.40711 0.974771 
130 1 -0.742249 5.73499 3.38388 
132 1 -1.29237 10.1051 8.65786 
135 1 -2.03388 7.97215 7.46048 
144 1 -2.03617 9.67745 9.86958 
145 1 1.29162 9.25778 7.46047 
155 1 0.742249 5.73499 7.46047 
7 1 -0.733379 6.37441 11.978 
24 1 1.47569 7.66013 11.978 
37 1 -1.21647 9.9065 11.0311 
40 1 -0.742312 8.93038 11.978 
66 1 0.733379 6.37441 20.5551 
79 1 -2.55812 7.5827 21.502 
82 1 -1.47569 7.66013 20.5551 
98 1 0.742312 8.93038 20.5551 
108 1 -0.733367 6.3744 20.5551 
118 1 1.47569 7.66014 20.5551 
126 1 -1.2165 9.90648 21.502 
128 1 -0.742327 8.93037 20.5551 
133 1 0.733367 6.3744 11.978 
141 1 -2.55812 7.58274 11.0311 
143 1 -1.47569 7.66014 11.978 
153 1 0.742327 8.93037 11.978 
16 1 7.36278 5.10805 1.13361 
32 1 5.15371 3.82233 1.13361 
45 1 7.84587 1.57595 0.186706 
48 1 7.37171 2.55208 1.13361 
57 1 5.89602 5.10805 9.71074 
71 1 9.18752 3.89976 10.6576 
74 1 8.10509 3.82233 9.71074 
90 1 5.88709 2.55208 9.71074 
103 1 7.36277 5.10806 9.71075 
113 1 5.15371 3.82231 9.71075 
121 1 7.8459 1.57597 10.6576 
123 1 7.37173 2.55208 9.71075 
138 1 5.89603 5.10806 1.1336 
146 1 9.18752 3.89972 0.186706 
148 1 8.10509 3.82231 1.1336 
158 1 5.88707 2.55208 1.1336 
10 1 9.28051 5.35808 21.4183 
11 1 6.62939 0.876173 19.8913 
12 1 6.62941 3.82748 17.0784 
15 1 7.84018 4.52652 17.7011 
18 1 4.59552 3.51035 18.3048 
27 1 3.97831 5.35811 21.4183 
28 1 9.18532 5.30313 19.8913 
30 1 9.39748 3.93329 19.5022 
31 1 5.41864 4.52652 17.7011 
34 1 7.92099 2.22466 18.3048 
43 1 6.62938 0.766261 21.4183 
44 1 4.0735 5.30315 19.8913 
47 1 6.62941 2.4294 17.7011 
49 1 9.39899 3.07532 20.7139 
50 1 7.3717 5.74745 18.3048 
51 1 3.97829 5.35808 11.1148 
52 1 6.62941 0.876173 12.6418 
53 1 6.62939 3.82748 15.4546 
55 1 7.92181 1.37736 13.0308 
56 1 5.41862 4.52652 14.832 
59 1 8.66328 3.51035 14.2282 
69 1 9.28049 5.35811 11.1148 
70 1 4.07348 5.30313 12.6418 
73 1 7.84016 4.52652 14.832 
75 1 8.66559 1.80504 11.8191 
76 1 5.33781 2.22466 14.2282 
85 1 6.62942 0.766261 11.1148 
86 1 9.1853 5.30315 12.6418 
89 1 6.62939 2.4294 14.832 
92 1 5.8871 5.74745 14.2282 
105 1 4.59552 3.5103 14.2282 
112 1 9.39747 3.93334 13.0308 
115 1 7.92102 2.22468 14.2282 
124 1 9.399 3.07535 11.8191 
125 1 7.37165 5.74747 14.2282 
137 1 7.92177 1.37734 19.5022 
140 1 8.66328 3.5103 18.3048 
149 1 8.66557 1.80501 20.7139 
150 1 5.33778 2.22468 18.3048 
160 1 5.88715 5.74747 18.3048 
5 1 1.29241 10.1051 8.65786 
13 1 7.97105 6.00674 0.186706 
25 1 2.03619 9.67742 9.86959 
54 1 5.28775 6.00674 10.6576 
80 1 2.76808 7.54917 2.18649 
99 1 2.76959 8.40714 0.974762 
101 1 7.97102 6.00676 10.6576 
107 1 1.29237 10.1051 2.18649 
119 1 2.03617 9.67745 0.974768 
136 1 5.28778 6.00676 0.186703 
142 1 2.76807 7.54912 8.65785 
154 1 2.7696 8.40711 9.86958 
17 1 5.896 6.6021 20.7139 
21 1 2.55812 7.5827 11.0311 
46 1 5.15373 6.17181 19.5022 
58 1 7.3628 6.6021 11.8191 
88 1 8.10507 6.17181 13.0308 
95 1 1.21647 9.9065 21.502 
104 1 5.89597 6.6021 11.8191 
116 1 2.55812 7.58274 21.502 
122 1 5.15369 6.17178 13.0308 
139 1 7.36283 6.6021 20.7139 
151 1 1.2165 9.90648 11.0311 
157 1 8.10511 6.17178 19.5022 
ITEM: TIMESTEP
20
ITEM: NUMBER OF ATOMS
160
ITEM: BOX BOUNDS xy xz yz pp pp pp
-6.6294000000000004e+00 1.3258800000000001e+01 -6.6294000000000004e+00
0.0000000000000000e+00 1.1482457623697000e+01 0.0000000000000000e+00
0.0000000000000000e+00 2.1688700000000001e+01 0.0000000000000000e+00
ITEM: ATOMS id type x y z 
8 1 0.733352 4.87776 9.86817 
29 1 4.07244 3.8985 0.18665 
38 1 1.47517 5.3078 8.65682 
67 1 -0.733352 4.87776 0.976181 
87 1 5.41242 1.57759 10.6577 
96 1 -1.47517 5.3078 2.18753 
109 1 0.733389 4.87777 0.976182 
111 1 4.07244 3.89847 10.6577 
127 1 1.47521 5.30781 2.18753 
134 1 -0.733389 4.87777 9.86817 
152 1 -1.47521 5.30781 8.65682 
156 1 5.41239 1.5776 0.186653 
4 1 -1.33998 5.47609 11.031 
14 1 5.33427 1.37636 19.5012 
33 1 4.59094 1.80378 20.7125 
63 1 1.33998 5.47609 21.502 
72 1 3.8591 3.93143 13.0319 
91 1 3.85759 3.07398 11.8205 
102 1 5.3343 1.37634 13.0319 
106 1 -1.33995 5.47607 21.502 
114 1 4.59097 1.80375 11.8205 
131 1 1.33995 5.47607 11.031 
147 1 3.8591 3.93147 19.5012 
159 1 3.85758 3.07402 20.7125 
1 1 -2.65224 6.12372 10.5745 
2 1 1.65498e-05 10.6053 9.04568 
3 1 -7.6556e-06 7.65498 6.23438 
6 1 -1.2126 6.95489 6.85844 
9 1 2.03601 7.97373 7.45968 
19 1 2.65222 6.12369 10.5745 
20 1 -2.5551 6.1798 9.04568 
22 1 -2.7703 7.55102 8.65682 
23 1 1.21258 6.95488 6.85844 
26 1 -1.29407 9.25884 7.45968 
35 1 1.9432e-05 10.7175 10.5745 
36 1 2.55509 6.17977 9.04567 
39 1 3.56089e-06 9.05515 6.85844 
41 1 -2.77181 8.40847 9.86817 
42 1 -0.741959 5.73235 7.45968 
60 1 2.65224 6.12372 0.269854 
61 1 -1.65498e-05 10.6053 1.79867 
62 1 7.6556e-06 7.65498 4.60997 
64 1 -1.29513 10.1061 2.18753 
65 1 1.2126 6.95489 3.98591 
68 1 -2.03601 7.97373 3.38467 
77 1 -2.65222 6.12369 0.269857 
78 1 2.5551 6.1798 1.79867 
81 1 -1.21258 6.95488 3.98591 
83 1 -2.03846 9.67868 0.97618 
84 1 1.29407 9.25884 3.38467 
93 1 -1.9432e-05 10.7175 0.269854 
94 1 -2.55509 6.17977 1.79868 
97 1 -3.56089e-06 9.05515 3.98591 
100 1 0.741959 5.73235 3.38467 
110 1 2.03601 7.97377 3.38467 
117 1 -2.7703 7.55099 2.18754 
120 1 -1.29409 9.25881 3.38467 
129 1 -2.77182 8.40844 0.976184 
130 1 -0.741917 5.73234 3.38468 
132 1 -1.2951 10.1061 8.65682 
135 1 -2.03601 7.97377 7.45968 
144 1 -2.03843 9.67871 9.86817 
145 1 1.29409 9.25881 7.45968 
155 1 0.741917 5.73234 7.45967 
7 1 -0.733304 6.37475 11.9809 
24 1 1.47536 7.66002 11.9809 
37 1 -1.21698 9.90487 11.031 
40 1 -0.742056 8.93015 11.9809 
66 1 0.733304 6.37475 20.5521 
79 1 -2.55696 7.58396 21.502 
82 1 -1.47536 7.66002 20.5521 
98 1 0.742056 8.93015 20.5521 
108 1 -0.733291 6.37474 20.5521 
118 1 1.47536 7.66004 20.5521 
126 1 -1.21701 9.90486 21.502 
128 1 -0.74207 8.93014 20.5521 
133 1 0.733291 6.37474 11.9809 
141 1 -2.55696 7.58399 11.031 
143 1 -1.47536 7.66004 11.9809 
153 1 0.74207 8.93014 11.9809 
16 1 7.3627 5.10771 1.1366 
32 1 5.15404 3.82243 1.1366 
45 1 7.84638 1.57759 0.186652 
48 1 7.37146 2.55231 1.1366 
57 1 5.8961 5.10771 9.70775 
71 1 9.18636 3.8985 10.6577 
74 1 8.10476 3.82243 9.70775 
90 1 5.88734 2.55231 9.70775 
103 1 7.36269 5.10772 9.70776 
113 1 5.15404 3.82242 9.70775 
121 1 7.84641 1.5776 10.6577 
123 1 7.37147 2.55232 9.70776 
138 1 5.89611 5.10772 1.13659 
146 1 9.18636 3.89847 0.186654 
148 1 8.10476 3.82242 1.1366 
158 1 5.88733 2.55232 1.13659 
10 1 9.28164 5.35874 21.4188 
11 1 6.62938 0.877115 19.89 
12 1 6.62941 3.82748 17.0787 
15 1 7.842 4.52757 17.7028 
18 1 4.59339 3.50872 18.304 
27 1 3.97718 5.35877 21.4188 
28 1 9.1845 5.30266 19.89 
30 1 9.3997 3.93143 19.5012 
31 1 5.41682 4.52758 17.7028 
34 1 7.92347 2.22362 18.304 
43 1 6.62938 0.764954 21.4188 
44 1 4.07431 5.30268 19.89 
47 1 6.6294 2.4273 17.7028 
49 1 9.40121 3.07398 20.7125 
50 1 7.37136 5.75011 18.304 
51 1 3.97716 5.35874 11.1142 
52 1 6.62942 0.877115 12.643 
53 1 6.62939 3.82748 15.4543 
55 1 7.92453 1.37636 13.0319 
56 1 5.4168 4.52757 14.8303 
59 1 8.66541 3.50872 14.229 
69 1 9.28162 5.35877 11.1142 
70 1 4.0743 5.30266 12.643 
73 1 7.84198 4.52758 14.8303 
75 1 8.66786 1.80378 11.8205 
76 1 5.33533 2.22362 14.229 
85 1 6.62942 0.764954 11.1142 
86 1 9.18449 5.30268 12.643 
89 1 6.6294 2.4273 14.8303 
92 1 5.88744 5.75011 14.229 
105 1 4.59339 3.50869 14.229 
112 1 9.3997 3.93147 13.0319 
115 1 7.92349 2.22364 14.229 
124 1 9.40122 3.07402 11.8205 
125 1 7.37132 5.75012 14.229 
137 1 7.9245 1.37634 19.5012 
140 1 8.66541 3.50869 18.304 
149 1 8.66783 1.80375 20.7125 
150 1 5.33531 2.22364 18.304 
160 1 5.88748 5.75012 18.304 
5 1 1.29513 10.1061 8.65682 
13 1 7.96938 6.00637 0.186652 
25 1 2.03846 9.67868 9.86817 
54 1 5.28942 6.00637 10.6577 
80 1 2.7703 7.55102 2.18753 
99 1 2.77181 8.40847 0.976178 
101 1 7.96935 6.00639 10.6577 
107 1 1.2951 10.1061 2.18753 
119 1 2.03843 9.67871 0.976181 
136 1 5.28945 6.00639 0.186652 
142 1 2.7703 7.55099 8.65681 
154 1 2.77182 8.40844 9.86817 
17 1 5.89605 6.60469 20.7125 
21 1 2.55696 7.58396 11.031 
46 1 5.15423 6.17466 19.5012 
58 1 7.36275 6.60469 11.8205 
88 1 8.10457 6.17466 13.0319 
95 1 1.21698 9.90487 21.502 
104 1 5.89601 6.60469 11.8205 
116 1 2.55696 7.58399 21.502 
122 1 5.15419 6.17464 13.0319 
139 1 7.36279 6.60469 20.7125 
151 1 1.21701 9.90486 11.031 
157 1 8.10461 6.17464 19.5012 
ITEM: TIMESTEP
22
ITEM: NUMBER OF ATOMS
160
ITEM: BOX BOUNDS xy xz yz pp pp pp
-6.6294000000000004e+00 1.3258800000000001e+01 -6.6294000000000004e+00
0.0000000000000000e+00 1.1482457623697000e+01 0.0000000000000000e+00
0.0000000000000000e+00 2.1688700000000001e+01 0.0000000000000000e+00
ITEM: ATOMS id type x y z 
8 1 0.733352 4.87776 9.86817 
29 1 4.07244 3.8985 0.18665 
38 1 1.47517 5.3078 8.65682 
67 1 -0.733352 4.87776 0.976182 
87 1 5.41242 1.57759 10.6577 
96 1 -1.47517 5.3078 2.18753 
109 1 0.733388 4.87777 0.976183 
111 1 4.07244 3.89847 10.6577 
127 1 1.4752 5.30781 2.18753 
134 1 -0.733388 4.87777 9.86817 
152 1 -1.4752 5.30781 8.65682 
156 1 5.41239 1.5776 0.186654 
4 1 -1.33998 5.47609 11.031 
14 1 5.33427 1.37636 19.5012 
33 1 4.59094 1.80378 20.7125 
63 1 1.33998 5.47609 21.502 
72 1 3.8591 3.93143 13.0319 
91 1 3.85759 3.07398 11.8205 
102 1 5.3343 1.37634 13.0319 
106 1 -1.33995 5.47607 21.502 
114 1 4.59097 1.80375 11.8205 
131 1 1.33995 5.47607 11.031 
147 1 3.8591 3.93147 19.5012 
159 1 3.85758 3.07402 20.7125 
1 1 -2.65224 6.12372 10.5745 
2 1 1.65561e-05 10.6053 9.04568 
3 1 -7.65541e-06 7.65498 6.23438 
6 1 -1.2126 6.95489 6.85844 
9 1 2.03601 7.97373 7.45968 
19 1 2.65222 6.12369 10.5745 
20 1 -2.5551 6.1798 9.04568 
22 1 -2.7703 7.55103 8.65682 
23 1 1.21258 6.95488 6.85844 
26 1 -1.29407 9.25884 7.45968 
35 1 1.94328e-05 10.7175 10.5745 
36 1 2.55508 6.17977 9.04567 
39 1 3.56918e-06 9.05516 6.85844 
41 1 -2.77181 8.40848 9.86817 
42 1 -0.741958 5.73235 7.45968 
60 1 2.65224 6.12372 0.269854 
61 1 -1.65561e-05 10.6053 1.79867 
62 1 7.65541e-06 7.65498 4.60997 
64 1 -1.29513 10.1061 2.18753 
65 1 1.2126 6.95489 3.98591 
68 1 -2.03601 7.97373 3.38467 
77 1 -2.65222 6.12369 0.269856 
78 1 2.5551 6.1798 1.79867 
81 1 -1.21258 6.95488 3.98591 
83 1 -2.03846 9.67868 0.976181 
84 1 1.29407 9.25884 3.38467 
93 1 -1.94328e-05 10.7175 0.269854 
94 1 -2.55508 6.17977 1.79868 
97 1 -3.56918e-06 9.05516 3.98591 
100 1 0.741958 5.73235 3.38467 
110 1 2.03601 7.97377 3.38467 
117 1 -2.7703 7.55099 2.18754 
120 1 -1.29409 9.25881 3.38467 
129 1 -2.77182 8.40844 0.976185 
130 1 -0.741917 5.73234 3.38467 
132 1 -1.2951 10.1061 8.65682 
135 1 -2.03601 7.97377 7.45968 
144 1 -2.03843 9.67871 9.86817 
145 1 1.29409 9.25881 7.45968 
155 1 0.741917 5.73234 7.45968 
7 1 -0.733304 6.37475 11.9809 
24 1 1.47536 7.66002 11.9809 
37 1 -1.21698 9.90487 11.031 
40 1 -0.742055 8.93014 11.9809 
66 1 0.733304 6.37475 20.5521 
79 1 -2.55696 7.58396 21.502 
82 1 -1.47536 7.66002 20.5521 
98 1 0.742055 8.93014 20.5521 
108 1 -0.73329 6.37474 20.5521 
118 1 1.47536 7.66004 20.5521 
126 1 -1.21701 9.90485 21.502 
128 1 -0.74207 8.93014 20.5521 
133 1 0.73329 6.37474 11.9809 
141 1 -2.55696 7.58399 11.031 
143 1 -1.47536 7.66004 11.9809 
153 1 0.74207 8.93014 11.9809 
16 1 7.3627 5.10771 1.1366 
32 1 5.15404 3.82243 1.1366 
45 1 7.84638 1.57759 0.186652 
48 1 7.37146 2.55231 1.1366 
57 1 5.8961 5.10771 9.70775 
71 1 9.18636 3.8985 10.6577 
74 1 8.10476 3.82243 9.70775 
90 1 5.88734 2.55231 9.70775 
103 1 7.36269 5.10772 9.70775 
113 1 5.15404 3.82242 9.70775 
121 1 7.84641 1.5776 10.6577 
123 1 7.37147 2.55232 9.70775 
138 1 5.89611 5.10772 1.1366 
146 1 9.18636 3.89847 0.186654 
148 1 8.10476 3.82242 1.1366 
158 1 5.88733 2.55232 1.1366 
10 1 9.28164 5.35874 21.4188 
11 1 6.62938 0.877115 19.89 
12 1 6.62941 3.82748 17.0787 
15 1 7.842 4.52757 17.7028 
18 1 4.59339 3.50872 18.304 
27 1 3.97718 5.35877 21.4188 
28 1 9.1845 5.30266 19.89 
30 1 9.3997 3.93143 19.5012 
31 1 5.41682 4.52758 17.7028 
34 1 7.92347 2.22362 18.304 
43 1 6.62938 0.764953 21.4188 
44 1 4.07432 5.30268 19.89 
47 1 6.6294 2.4273 17.7028 
49 1 9.40121 3.07398 20.7125 
50 1 7.37136 5.75011 18.304 
51 1 3.97716 5.35874 11.1142 
52 1 6.62942 0.877115 12.643 
53 1 6.62939 3.82748 15.4543 
55 1 7.92453 1.37636 13.0319 
56 1 5.4168 4.52757 14.8303 
59 1 8.66541 3.50872 14.229 
69 1 9.28162 5.35877 11.1142 
70 1 4.0743 5.30266 12.643 
73 1 7.84198 4.52758 14.8303 
75 1 8.66786 1.80378 11.8205 
76 1 5.33533 2.22362 14.229 
85 1 6.62942 0.764953 11.1142 
86 1 9.18448 5.30268 12.643 
89 1 6.6294 2.4273 14.8303 
92 1 5.88744 5.75011 14.229 
105 1 4.59339 3.50869 14.229 
112 1 9.3997 3.93147 13.0319 
115 1 7.92349 2.22364 14.229 
124 1 9.40122 3.07402 11.8205 
125 1 7.37132 5.75012 14.229 
137 1 7.9245 1.37634 19.5012 
140 1 8.66541 3.50869 18.304 
149 1 8.66783 1.80375 20.7125 
150 1 5.33531 2.22364 18.304 
160 1 5.88748 5.75012 18.304 
5 1 1.29513 10.1061 8.65682 
13 1 7.96938 6.00637 0.186652 
25 1 2.03846 9.67868 9.86817 
54 1 5.28942 6.00637 10.6577 
80 1 2.7703 7.55103 2.18753 
99 1 2.77181 8.40848 0.97618 
101 1 7.96935 6.00639 10.6577 
107 1 1.2951 10.1061 2.18753 
119 1 2.03843 9.67871 0.976182 
136 1 5.28945 6.00639 0.186652 
142 1 2.7703 7.55099 8.65681 
154 1 2.77182 8.40844 9.86817 
17 1 5.89605 6.60469 20.7125 
21 1 2.55696 7.58396 11.031 
46 1 5.15423 6.17466 19.5012 
58 1 7.36275 6.60469 11.8205 
88 1 8.10457 6.17466 13.0319 
95 1 1.21698 9.90487 21.502 
104 1 5.89601 6.60469 11.8205 
116 1 2.55696 7.58399 21.502 
122 1 5.1542 6.17464 13.0319 
139 1 7.36279 6.60469 20.7125 
151 1 1.21701 9.90485 11.031 
157 1 8.1046 6.17464 19.5012 
ITEM: TIMESTEP
23
ITEM: NUMBER OF ATOMS
160
ITEM: BOX BOUNDS xy xz yz pp pp pp
-6.6294000000000004e+00 1.3258800000000001e+01 -6.6294000000000004e+00
0.0000000000000000e+00 1.1482457623697000e+01 0.0000000000000000e+00
0.0000000000000000e+00 2.1688700000000001e+01 0.0000000000000000e+00
ITEM: ATOMS id type x y z 
8 1 0.733352 4.87776 9.86817 
29 1 4.07244 3.8985 0.18665 
38 1 1.47517 5.3078 8.65682 
67 1 -0.733352 4.87776 0.976182 
87 1 5.41242 1.57759 10.6577 
96 1 -1.47517 5.3078 2.18753 
109 1 0.733388 4.87777 0.976184 
111 1 4.07244 3.89847 10.6577 
127 1 1.4752 5.30781 2.18753 
134 1 -0.733388 4.87777 9.86817 
152 1 -1.4752 5.30781 8.65682 
156 1 5.41239 1.5776 0.186654 
155 1 0.741916 5.73234 7.45968 
42 1 -0.741958 5.73235 7.45968 
130 1 -0.741916 5.73234 3.38467 
100 1 0.741958 5.73235 3.38467 
4 1 -1.33998 5.47609 11.031 
14 1 5.33427 1.37636 19.5012 
33 1 4.59094 1.80378 20.7125 
63 1 1.33998 5.47609 21.502 
72 1 3.8591 3.93143 13.0319 
91 1 3.85759 3.07398 11.8205 
102 1 5.3343 1.37634 13.0319 
106 1 -1.33995 5.47607 21.502 
114 1 4.59097 1.80375 11.8205 
131 1 1.33995 5.47607 11.031 
147 1 3.8591 3.93147 19.5012 
159 1 3.85758 3.07402 20.7125 
18 1 4.59339 3.50872 18.304 
76 1 5.33533 2.22362 14.229 
150 1 5.33531 2.22364 18.304 
105 1 4.59339 3.50869 14.229 
1 1 -2.65224 6.12372 10.5745 
2 1 1.65565e-05 10.6053 9.04568 
3 1 -7.65539e-06 7.65498 6.23438 
6 1 -1.2126 6.95489 6.85844 
132 1 -1.2951 10.1061 8.65682 
19 1 2.65222 6.12369 10.5745 
20 1 -2.5551 6.1798 9.04568 
22 1 -2.7703 7.55103 8.65682 
23 1 1.21258 6.95488 6.85844 
26 1 -1.29407 9.25884 7.45968 
35 1 1.94328e-05 10.7175 10.5745 
36 1 2.55508 6.17977 9.04567 
39 1 3.56965e-06 9.05516 6.85844 
41 1 -2.77181 8.40848 9.86817 
129 1 -2.77182 8.40844 0.976185 
60 1 2.65224 6.12372 0.269854 
61 1 -1.65565e-05 10.6053 1.79867 
62 1 7.65539e-06 7.65498 4.60997 
64 1 -1.29513 10.1061 2.18753 
65 1 1.2126 6.95489 3.98591 
68 1 -2.03601 7.97373 3.38467 
77 1 -2.65222 6.12369 0.269856 
78 1 2.5551 6.1798 1.79867 
81 1 -1.21258 6.95488 3.98591 
83 1 -2.03846 9.67868 0.976181 
144 1 -2.03843 9.67871 9.86817 
93 1 -1.94328e-05 10.7175 0.269854 
94 1 -2.55508 6.17977 1.79868 
97 1 -3.56965e-06 9.05516 3.98591 
120 1 -1.29409 9.25881 3.38467 
135 1 -2.03601 7.97377 7.45968 
117 1 -2.7703 7.55099 2.18754 
7 1 -0.733304 6.37475 11.9809 
24 1 1.47536 7.66002 11.9809 
37 1 -1.21698 9.90487 11.031 
40 1 -0.742055 8.93014 11.9809 
66 1 0.733304 6.37475 20.5521 
79 1 -2.55696 7.58396 21.502 
82 1 -1.47536 7.66002 20.5521 
98 1 0.742055 8.93014 20.5521 
108 1 -0.73329 6.37474 20.5521 
118 1 1.47536 7.66004 20.5521 
126 1 -1.21701 9.90485 21.502 
128 1 -0.74207 8.93014 20.5521 
133 1 0.73329 6.37474 11.9809 
141 1 -2.55696 7.58399 11.031 
143 1 -1.47536 7.66004 11.9809 
153 1 0.74207 8.93014 11.9809 
16 1 7.3627 5.10771 1.1366 
32 1 5.15404 3.82243 1.1366 
45 1 7.84638 1.57759 0.186652 
48 1 7.37146 2.55231 1.1366 
57 1 5.8961 5.10771 9.70775 
71 1 9.18636 3.8985 10.6577 
74 1 8.10476 3.82243 9.70775 
90 1 5.88734 2.55231 9.70775 
103 1 7.36269 5.10772 9.70775 
113 1 5.15404 3.82242 9.70775 
121 1 7.84641 1.5776 10.6577 
123 1 7.37147 2.55232 9.70775 
138 1 5.89611 5.10772 1.1366 
146 1 9.18636 3.89847 0.186654 
148 1 8.10476 3.82242 1.1366 
158 1 5.88733 2.55232 1.1366 
10 1 9.28164 5.35874 21.4188 
11 1 6.62938 0.877115 19.89 
12 1 6.62941 3.82748 17.0787 
15 1 7.842 4.52757 17.7028 
137 1 7.9245 1.37634 19.5012 
27 1 3.97718 5.35877 21.4188 
28 1 9.1845 5.30266 19.89 
30 1 9.3997 3.93143 19.5012 
31 1 5.41682 4.52758 17.7028 
34 1 7.92347 2.22362 18.304 
43 1 6.62938 0.764953 21.4188 
44 1 4.07432 5.30268 19.89 
47 1 6.6294 2.4273 17.7028 
49 1 9.40121 3.07398 20.7125 
124 1 9.40122 3.07402 11.8205 
51 1 3.97716 5.35874 11.1142 
52 1 6.62942 0.877115 12.643 
53 1 6.62939 3.82748 15.4543 
55 1 7.92453 1.37636 13.0319 
56 1 5.4168 4.52757 14.8303 
59 1 8.66541 3.50872 14.229 
69 1 9.28162 5.35877 11.1142 
70 1 4.0743 5.30266 12.643 
73 1 7.84198 4.52758 14.8303 
75 1 8.66786 1.80378 11.8205 
149 1 8.66783 1.80375 20.7125 
85 1 6.62942 0.764953 11.1142 
86 1 9.18448 5.30268 12.643 
89 1 6.6294 2.4273 14.8303 
115 1 7.92349 2.22364 14.229 
140 1 8.66541 3.50869 18.304 
112 1 9.3997 3.93147 13.0319 
5 1 1.29513 10.1061 8.65682 
13 1 7.96938 6.00637 0.186652 
25 1 2.03846 9.67868 9.86817 
54 1 5.28942 6.00637 10.6577 
80 1 2.7703 7.55103 2.18753 
99 1 2.77181 8.40848 0.97618 
101 1 7.96935 6.00639 10.6577 
107 1 1.2951 10.1061 2.18753 
119 1 2.03843 9.67871 0.976182 
136 1 5.28945 6.00639 0.186652 
142 1 2.7703 7.55099 8.65681 
154 1 2.77182 8.40844 9.86817 
9 1 2.03601 7.97373 7.45968 
84 1 1.29407 9.25884 3.38467 
145 1 1.29409 9.25881 7.45968 
110 1 2.03601 7.97377 3.38467 
17 1 5.89605 6.60469 20.7125 
21 1 2.55696 7.58396 11.031 
46 1 5.15423 6.17466 19.5012 
58 1 7.36275 6.60469 11.8205 
88 1 8.10457 6.17466 13.0319 
95 1 1.21698 9.90487 21.502 
104 1 5.89601 6.60469 11.8205 
116 1 2.55696 7.58399 21.502 
122 1 5.1542 6.17464 13.0319 
139 1 7.36279 6.60469 20.7125 
151 1 1.21701 9.90485 11.031 
157 1 8.1046 6.17464 19.5012 
160 1 5.88748 5.75012 18.304 
50 1 7.37136 5.75011 18.304 
125 1 7.37132 5.75012 14.229 
92 1 5.88744 5.75011 14.229 
ITEM: TIMESTEP
30
ITEM: NUMBER OF ATOMS
160
ITEM: BOX BOUNDS xy xz yz pp pp pp
-6.6386811600000000e+00 1.3263440579999999e+01 -6.6340405799999997e+00
-4.0188601682939508e-03 1.1486476483865292e+01 0.0000000000000000e+00
-7.5910450000000011e-03 2.1696291044999995e+01 0.0000000000000000e+00
ITEM: ATOMS id type x y z 
8 1 0.729224 4.87716 9.86748 
29 1 4.07065 3.89721 0.17919 
38 1 1.47156 5.30749 8.65529 
67 1 -0.738505 4.87716 0.969275 
87 1 5.41157 1.57467 10.6576 
96 1 -1.48084 5.30749 2.18147 
109 1 0.72926 4.87716 0.969276 
111 1 4.07065 3.89718 10.6576 
127 1 1.4716 5.30751 2.18147 
134 1 -0.738542 4.87716 9.86748 
152 1 -1.48088 5.30751 8.65529 
156 1 5.41154 1.57469 0.179193 
155 1 0.737795 5.73233 7.45731 
42 1 -0.747118 5.73234 7.45731 
130 1 -0.747076 5.73233 3.37945 
100 1 0.737837 5.73234 3.37945 
4 1 -1.34556 5.4759 11.0311 
14 1 5.33336 1.3733 19.5072 
33 1 4.58951 1.80102 20.7194 
63 1 1.33628 5.4759 21.5095 
72 1 3.85716 3.93016 13.0334 
91 1 3.85565 3.07211 11.8212 
102 1 5.33339 1.37329 13.0334 
106 1 -1.34553 5.47588 21.5095 
114 1 4.58954 1.801 11.8212 
131 1 1.33625 5.47588 11.0311 
147 1 3.85716 3.9302 19.5072 
159 1 3.85564 3.07215 20.7194 
18 1 4.59196 3.50716 18.3092 
76 1 5.33443 2.22116 14.2314 
150 1 5.33441 2.22118 18.3092 
105 1 4.59196 3.50713 14.2314 
1 1 -2.65874 6.12399 10.5743 
2 1 -0.00462401 10.6087 9.04442 
3 1 -0.00464824 7.65632 6.23115 
6 1 -1.21809 6.95574 6.85565 
132 1 -1.30065 10.1092 8.65529 
19 1 2.64944 6.12396 10.5743 
20 1 -2.56153 6.18011 9.04442 
22 1 -2.77688 7.55229 8.65529 
23 1 1.20879 6.95573 6.85565 
26 1 -1.29961 9.2613 7.45731 
35 1 -0.00462113 10.721 10.5743 
36 1 2.55223 6.18008 9.04441 
39 1 -0.004637 9.05747 6.85565 
41 1 -2.77839 8.41034 9.86749 
129 1 -2.7784 8.41031 0.969278 
60 1 2.64946 6.12399 0.262452 
61 1 -0.00465715 10.6087 1.79234 
62 1 -0.00463292 7.65632 4.60561 
64 1 -1.30068 10.1092 2.18147 
65 1 1.20881 6.95574 3.98111 
68 1 -2.04208 7.9753 3.37945 
77 1 -2.65872 6.12396 0.262454 
78 1 2.55225 6.18011 1.79234 
81 1 -1.21807 6.95573 3.98111 
83 1 -2.04453 9.68143 0.969274 
144 1 -2.0445 9.68146 9.86748 
93 1 -0.00466003 10.721 0.262452 
94 1 -2.56151 6.18008 1.79234 
97 1 -0.00464416 9.05747 3.9811 
120 1 -1.29963 9.26128 3.37945 
135 1 -2.04208 7.97533 7.45731 
117 1 -2.77688 7.55226 2.18148 
7 1 -0.738457 6.37519 11.9817 
24 1 1.47175 7.66137 11.9817 
37 1 -1.22247 9.90779 11.0311 
40 1 -0.747215 8.93238 11.9817 
66 1 0.729176 6.37519 20.5589 
79 1 -2.56339 7.58525 21.5095 
82 1 -1.48103 7.66137 20.5589 
98 1 0.737934 8.93238 20.5589 
108 1 -0.738443 6.37518 20.5589 
118 1 1.47175 7.66138 20.5589 
126 1 -1.2225 9.90777 21.5095 
128 1 -0.74723 8.93237 20.5589 
133 1 0.729162 6.37518 11.9817 
141 1 -2.56339 7.58528 11.0311 
143 1 -1.48103 7.66138 11.9817 
153 1 0.737949 8.93237 11.9817 
16 1 7.36322 5.10727 1.1298 
32 1 5.15301 3.82109 1.1298 
45 1 7.84723 1.57467 0.179192 
48 1 7.37197 2.55008 1.1298 
57 1 5.89558 5.10727 9.70696 
71 1 9.18815 3.89721 10.6576 
74 1 8.10579 3.82109 9.70696 
90 1 5.88683 2.55008 9.70696 
103 1 7.3632 5.10728 9.70696 
113 1 5.15301 3.82107 9.70696 
121 1 7.84726 1.57469 10.6576 
123 1 7.37199 2.55009 9.70696 
138 1 5.8956 5.10728 1.1298 
146 1 9.18815 3.89718 0.179193 
148 1 8.10579 3.82107 1.1298 
158 1 5.88681 2.55009 1.1298 
10 1 9.2835 5.35847 21.4262 
11 1 6.62938 0.873711 19.8964 
12 1 6.62941 3.82614 17.0831 
15 1 7.84285 4.52672 17.7076 
137 1 7.92541 1.37329 19.5072 
27 1 3.97532 5.3585 21.4262 
28 1 9.18629 5.30235 19.8964 
30 1 9.40164 3.93016 19.5072 
31 1 5.41597 4.52673 17.7076 
34 1 7.92437 2.22116 18.3093 
43 1 6.62938 0.76147 21.4262 
44 1 4.07253 5.30238 19.8964 
47 1 6.6294 2.42498 17.7076 
49 1 9.40315 3.07211 20.7194 
124 1 9.40316 3.07215 11.8212 
51 1 3.9753 5.35847 11.1144 
52 1 6.62942 0.873711 12.6443 
53 1 6.62939 3.82614 15.4575 
55 1 7.92544 1.3733 13.0334 
56 1 5.41595 4.52672 14.833 
59 1 8.66684 3.50716 14.2314 
69 1 9.28348 5.3585 11.1144 
70 1 4.07251 5.30235 12.6443 
73 1 7.84283 4.52673 14.833 