ITEM: TIMESTEP
0
ITEM: NUMBER OF ATOMS
58
ITEM: BOX BOUNDS pp pp pp
0.0000000000000000e+00 3.2808000000000000e+01
0.0000000000000000e+00 1.7780000000000001e+01
0.0000000000000000e+00 2.4729999999999999e+00
ITEM: ATOMS id type x y z 
13 1 7.043 0.849 2.464 
29 1 7.397 1.432 1.228 
37 1 8.035 2.733 1.228 
1 1 6.173 17.398 2.464 
5 1 5.371 17.398 1.228 
9 1 3.973 17.398 1.228 
16 1 7.043 16.167 2.464 
32 1 7.397 15.584 1.228 
40 1 8.035 14.283 1.228 
45 1 3.236 17.398 2.464 
49 1 1.81 17.398 2.464 
53 1 1.083 17.398 1.228 
57 2 3.295 16.049 0.021 
58 3 3.295 15.073 0.021 
4 1 10.968 8.508 2.464 
8 1 11.771 8.508 1.228 
12 1 13.168 8.508 1.228 
18 1 10.098 7.277 2.464 
21 1 8.308 3.392 2.464 
26 1 8.833 4.734 2.464 
34 1 9.745 6.694 1.228 
42 1 9.106 5.393 1.228 
48 1 13.906 8.508 2.464 
52 1 15.331 8.508 2.464 
56 1 16.058 8.508 1.228 
19 1 10.098 9.739 2.464 
24 1 8.308 13.624 2.464 
27 1 8.833 12.282 2.464 
35 1 9.745 10.322 1.228 
43 1 9.106 11.623 1.228 
3 1 22.577 8.508 2.464 
7 1 21.775 8.508 1.228 
11 1 20.377 8.508 1.228 
20 1 23.447 7.277 2.464 
36 1 23.801 6.694 1.228 
44 1 24.439 5.393 1.228 
47 1 19.64 8.508 2.464 
51 1 18.214 8.508 2.464 
55 1 17.487 8.508 1.228 
17 1 23.447 9.739 2.464 
33 1 23.801 10.322 1.228 
41 1 24.439 11.623 1.228 
15 1 26.502 0.849 2.464 
23 1 25.237 3.392 2.464 
28 1 24.712 4.734 2.464 
31 1 26.149 1.432 1.228 
39 1 25.511 2.733 1.228 
2 1 27.373 17.398 2.464 
6 1 28.175 17.398 1.228 
10 1 29.572 17.398 1.228 
14 1 26.502 16.167 2.464 
22 1 25.237 13.624 2.464 
25 1 24.712 12.282 2.464 
30 1 26.149 15.584 1.228 
38 1 25.511 14.283 1.228 
46 1 30.31 17.398 2.464 
50 1 31.735 17.398 2.464 
54 1 32.462 17.398 1.228 
ITEM: TIMESTEP
10
ITEM: NUMBER OF ATOMS
58
ITEM: BOX BOUNDS pp pp pp
0.0000000000000000e+00 3.2808000000000000e+01
0.0000000000000000e+00 1.7780000000000001e+01
0.0000000000000000e+00 2.4729999999999999e+00
ITEM: ATOMS id type x y z 
13 1 7.05743 0.854084 2.46424 
29 1 7.40487 1.43761 1.22776 
37 1 8.03997 2.73864 1.22777 
1 1 6.20063 17.3973 2.46437 
5 1 5.37551 17.4014 1.22828 
9 1 4.01752 17.4809 1.23139 
16 1 7.05705 16.1621 2.46424 
32 1 7.40473 15.578 1.22776 
40 1 8.03994 14.2773 1.22777 
45 1 3.23678 17.3195 2.46786 
49 1 1.76285 17.4249 2.46423 
53 1 1.07833 17.4008 1.22762 
57 2 3.27885 16.0337 0.0116341 
58 3 3.29696 15.053 0.0226059 
4 1 10.9741 8.50791 2.46424 
8 1 11.7762 8.50798 1.22775 
12 1 13.1729 8.508 1.22777 
18 1 10.0982 7.27978 2.46423 
21 1 8.31155 3.39963 2.46424 
26 1 8.83418 4.73765 2.46423 
34 1 9.74467 6.6974 1.22777 
42 1 9.10834 5.40085 1.22776 
48 1 13.9078 8.508 2.46424 
52 1 15.3348 8.508 2.46424 
56 1 16.0591 8.508 1.22776 
19 1 10.0982 9.73615 2.46423 
24 1 8.31161 13.6162 2.46424 
27 1 8.83421 12.2783 2.46423 
35 1 9.74471 10.3185 1.22777 
43 1 9.10839 11.615 1.22776 
3 1 22.5758 8.508 2.46424 
7 1 21.7743 8.508 1.22775 
11 1 20.3769 8.508 1.22777 
20 1 23.4468 7.27727 2.46424 
36 1 23.8004 6.69495 1.22777 
44 1 24.4375 5.39484 1.22776 
47 1 19.6396 8.508 2.46424 
51 1 18.2146 8.508 2.46424 
55 1 17.4889 8.508 1.22776 
17 1 23.4468 9.73873 2.46424 
33 1 23.8004 10.321 1.22777 
41 1 24.4375 11.6212 1.22776 
15 1 26.4969 0.851478 2.46423 
23 1 25.2359 3.39612 2.46423 
28 1 24.7112 4.73484 2.46423 
31 1 26.1454 1.43629 1.22777 
39 1 25.5097 2.73568 1.22776 
2 1 27.36 17.398 2.46424 
6 1 28.1666 17.398 1.22775 
10 1 29.5595 17.398 1.22776 
14 1 26.4969 16.1645 2.46423 
22 1 25.2359 13.6199 2.46423 
25 1 24.7112 12.2812 2.46423 
30 1 26.1454 15.5797 1.22777 
38 1 25.5097 14.2803 1.22776 
46 1 30.2969 17.398 2.46424 
50 1 31.7247 17.3978 2.46424 
54 1 32.4454 17.3977 1.22775 
ITEM: TIMESTEP
20
ITEM: NUMBER OF ATOMS
58
ITEM: BOX BOUNDS pp pp pp
0.0000000000000000e+00 3.2808000000000000e+01
0.0000000000000000e+00 1.7780000000000001e+01
0.0000000000000000e+00 2.4729999999999999e+00
ITEM: ATOMS id type x y z 
13 1 7.05954 0.848483 2.46432 
29 1 7.40689 1.43283 1.2278 
37 1 8.04074 2.7375 1.22776 
1 1 6.19456 17.3966 2.46487 
5 1 5.35647 17.416 1.22894 
9 1 4.01407 17.4989 1.23167 
16 1 7.05733 16.167 2.46432 
32 1 7.40583 15.583 1.2278 
40 1 8.04032 14.2788 1.22776 
45 1 3.24344 17.2446 2.46802 
49 1 1.76436 17.4306 2.46467 
53 1 1.08546 17.4133 1.22797 
57 2 3.27304 16.0577 0.00929469 
58 3 3.29804 15.0522 0.0223322 
4 1 10.9735 8.508 2.46425 
8 1 11.7781 8.50795 1.22775 
12 1 13.1744 8.508 1.22776 
18 1 10.097 7.28191 2.46424 
21 1 8.31077 3.39584 2.46424 
26 1 8.8336 4.73814 2.46424 
34 1 9.74169 6.69937 1.22776 
42 1 9.10631 5.40155 1.22776 
48 1 13.909 8.508 2.46424 
52 1 15.3366 8.508 2.46424 
56 1 16.0603 8.508 1.22776 
19 1 10.097 9.73401 2.46424 
24 1 8.31063 13.6203 2.46424 
27 1 8.83355 12.278 2.46424 
35 1 9.74167 10.3166 1.22776 
43 1 9.10629 11.6145 1.22776 
3 1 22.5761 8.508 2.46425 
7 1 21.7744 8.508 1.22775 
11 1 20.3782 8.508 1.22776 
20 1 23.4487 7.27907 2.46424 
36 1 23.8018 6.697 1.22776 
44 1 24.4383 5.39631 1.22776 
47 1 19.6406 8.508 2.46424 
51 1 18.2167 8.508 2.46424 
55 1 17.4916 8.508 1.22776 
17 1 23.4487 9.73693 2.46424 
33 1 23.8018 10.319 1.22776 
41 1 24.4383 11.6197 1.22776 
15 1 26.4936 0.849469 2.46424 
23 1 25.2356 3.39635 2.46424 
28 1 24.7111 4.73579 2.46424 
31 1 26.143 1.43435 1.22776 
39 1 25.5087 2.73482 1.22776 
2 1 27.365 17.398 2.46425 
6 1 28.1657 17.398 1.22775 
10 1 29.5631 17.398 1.22776 
14 1 26.4936 16.1665 2.46424 
22 1 25.2356 13.6196 2.46424 
25 1 24.7111 12.2802 2.46424 
30 1 26.143 15.5816 1.22776 
38 1 25.5087 14.2812 1.22776 
46 1 30.2998 17.3978 2.46424 
50 1 31.7298 17.3973 2.46423 
54 1 32.4475 17.3991 1.22776 
ITEM: TIMESTEP
30
ITEM: NUMBER OF ATOMS
58
ITEM: BOX BOUNDS pp pp pp
0.0000000000000000e+00 3.2808000000000000e+01
0.0000000000000000e+00 1.7780000000000001e+01
0.0000000000000000e+00 2.4729999999999999e+00
ITEM: ATOMS id type x y z 
13 1 7.06013 0.841954 2.46472 
29 1 7.41066 1.42798 1.2281 
37 1 8.038 2.7335 1.2278 
1 1 6.18143 17.3992 2.46598 
5 1 5.34512 17.447 1.22992 
9 1 3.99842 17.4831 1.23214 
16 1 7.04252 16.169 2.4647 
32 1 7.40057 15.589 1.22809 
40 1 8.03386 14.2863 1.2278 
45 1 3.24369 17.1854 2.46884 
49 1 1.77414 17.4281 2.46571 
53 1 1.09407 17.4422 1.22893 
57 2 3.26407 16.0301 0.0013068 
58 3 3.30024 15.0609 0.023094 
4 1 10.9686 8.51048 2.46425 
8 1 11.7694 8.50884 1.22775 
12 1 13.1684 8.50798 1.22775 
18 1 10.0958 7.27971 2.46425 
21 1 8.30966 3.39381 2.46427 
26 1 8.83221 4.73646 2.46425 
34 1 9.73913 6.69877 1.22775 
42 1 9.10368 5.39589 1.22775 
48 1 13.9058 8.50799 2.46425 
52 1 15.3317 8.508 2.46425 
56 1 16.0593 8.508 1.22775 
19 1 10.0948 9.73971 2.46424 
24 1 8.30732 13.6263 2.46427 
27 1 8.83099 12.2837 2.46425 
35 1 9.73788 10.3211 1.22775 
43 1 9.10271 11.6245 1.22775 
3 1 22.5791 8.508 2.46425 
7 1 21.7785 8.508 1.22775 
11 1 20.3792 8.508 1.22775 
20 1 23.453 7.27851 2.46425 
36 1 23.8071 6.69592 1.22775 
44 1 24.4409 5.39301 1.22775 
47 1 19.6411 8.508 2.46425 
51 1 18.2163 8.508 2.46425 
55 1 17.4878 8.508 1.22775 
17 1 23.453 9.73749 2.46425 
33 1 23.8071 10.3201 1.22775 
41 1 24.4409 11.623 1.22775 
15 1 26.4976 0.844488 2.46425 
23 1 25.2378 3.39112 2.46425 
28 1 24.713 4.73272 2.46425 
31 1 26.1423 1.42686 1.22775 
39 1 25.5098 2.73148 1.22775 
2 1 27.3749 17.398 2.46425 
6 1 28.1762 17.3981 1.22775 
10 1 29.5744 17.3977 1.22775 
14 1 26.4976 16.1715 2.46425 
22 1 25.2378 13.6249 2.46425 
25 1 24.713 12.2833 2.46425 
30 1 26.1423 15.5891 1.22775 
38 1 25.5098 14.2845 1.22775 
46 1 30.3091 17.3965 2.46425 
50 1 31.7382 17.3977 2.46437 
54 1 32.4591 17.411 1.22796 
ITEM: TIMESTEP
40
ITEM: NUMBER OF ATOMS
58
ITEM: BOX BOUNDS pp pp pp
0.0000000000000000e+00 3.2808000000000000e+01
0.0000000000000000e+00 1.7780000000000001e+01
0.0000000000000000e+00 2.4729999999999999e+00
ITEM: ATOMS id type x y z 
13 1 7.06472 0.842915 2.46498 
29 1 7.41429 1.42974 1.22836 
37 1 8.03943 2.73578 1.22789 
1 1 6.18287 17.4034 2.46618 
5 1 5.34668 17.4478 1.23009 
9 1 3.99936 17.474 1.23166 
16 1 7.03561 16.1672 2.46495 
32 1 7.39351 15.5868 1.22834 
40 1 8.03151 14.2867 1.22788 
45 1 3.2421 17.1816 2.46799 
49 1 1.77434 17.4329 2.46603 
53 1 1.09339 17.4475 1.22932 
57 2 3.26325 16.0175 -0.000384442 
58 3 3.30043 15.0353 0.0231279 
4 1 10.9695 8.51305 2.46425 
8 1 11.7707 8.51079 1.22775 
12 1 13.1681 8.5081 1.22775 
18 1 10.0979 7.28189 2.46424 
21 1 8.30992 3.3968 2.46434 
26 1 8.83351 4.73906 2.46426 
34 1 9.74257 6.70028 1.22776 
42 1 9.1057 5.39757 1.22776 
48 1 13.9067 8.50789 2.46425 
52 1 15.3319 8.50796 2.46425 
56 1 16.059 8.508 1.22776 
19 1 10.096 9.74195 2.46424 
24 1 8.30549 13.6269 2.46433 
27 1 8.8313 12.2853 2.46426 
35 1 9.74032 10.3237 1.22776 
43 1 9.10393 11.6267 1.22776 
3 1 22.578 8.50801 2.46425 
7 1 21.7767 8.508 1.22775 
11 1 20.3786 8.508 1.22775 
20 1 23.4508 7.27791 2.46424 
36 1 23.8054 6.695 1.22776 
44 1 24.4393 5.39277 1.22776 
47 1 19.6415 8.508 2.46425 
51 1 18.2151 8.508 2.46425 
55 1 17.4886 8.508 1.22776 
17 1 23.4508 9.7381 2.46424 
33 1 23.8055 10.321 1.22776 
41 1 24.4393 11.6232 1.22776 
15 1 26.4995 0.846405 2.46424 
23 1 25.2385 3.39115 2.46424 
28 1 24.7124 4.73295 2.46424 
31 1 26.1439 1.42852 1.22776 
39 1 25.5105 2.73239 1.22776 
2 1 27.3743 17.398 2.46425 
6 1 28.1753 17.398 1.22775 
10 1 29.5729 17.3969 1.22778 
14 1 26.4995 16.1696 2.46424 
22 1 25.2385 13.6249 2.46424 
25 1 24.7124 12.2831 2.46424 
30 1 26.1439 15.5875 1.22776 
38 1 25.5105 14.2836 1.22776 
46 1 30.3086 17.3955 2.4643 
50 1 31.7377 17.4015 2.46458 
54 1 32.4593 17.4191 1.2282 
ITEM: TIMESTEP
50
ITEM: NUMBER OF ATOMS
58
ITEM: BOX BOUNDS pp pp pp
0.0000000000000000e+00 3.2808000000000000e+01
0.0000000000000000e+00 1.7780000000000001e+01
0.0000000000000000e+00 2.4729999999999999e+00
ITEM: ATOMS id type x y z 
13 1 7.06682 0.843768 2.46512 
29 1 7.41636 1.43064 1.22848 
37 1 8.04101 2.73833 1.22795 
1 1 6.18315 17.4058 2.46611 
5 1 5.34759 17.4459 1.22998 
9 1 3.99917 17.4686 1.23109 
16 1 7.03278 16.1669 2.46509 
32 1 7.38895 15.5853 1.22846 
40 1 8.03009 14.2856 1.22794 
45 1 3.24189 17.1802 2.46765 
49 1 1.77335 17.4348 2.466 
53 1 1.09323 17.4485 1.22941 
57 2 3.26293 16.0107 -0.000195855 
58 3 3.30003 15.0232 0.0227275 
4 1 10.9696 8.5143 2.46424 
8 1 11.7712 8.51225 1.22776 
12 1 13.1693 8.50832 1.22774 
18 1 10.0989 7.28319 2.46427 
21 1 8.31036 3.39874 2.46442 
26 1 8.83421 4.74023 2.46429 
34 1 9.74417 6.70061 1.22773 
42 1 9.10771 5.40018 1.22776 
48 1 13.9063 8.50781 2.46426 
52 1 15.3323 8.5079 2.46426 
56 1 16.0592 8.50799 1.22774 
19 1 10.0969 9.74323 2.46427 
24 1 8.30467 13.6269 2.46442 
27 1 8.8316 12.2864 2.46429 
35 1 9.74154 10.3257 1.22773 
43 1 9.10533 11.6266 1.22776 
3 1 22.5786 8.50801 2.46424 
7 1 21.7763 8.50801 1.22775 
11 1 20.3791 8.508 1.22774 
20 1 23.4495 7.27763 2.46427 
36 1 23.8036 6.69473 1.22773 
44 1 24.4388 5.39168 1.22774 
47 1 19.6405 8.508 2.46426 
51 1 18.2161 8.508 2.46426 
55 1 17.4884 8.508 1.22774 
17 1 23.4495 9.73839 2.46427 
33 1 23.8036 10.3213 1.22773 
41 1 24.4388 11.6243 1.22774 
15 1 26.5002 0.847535 2.46427 
23 1 25.2385 3.3921 2.46426 
28 1 24.7117 4.73319 2.46426 
31 1 26.1453 1.43013 1.22773 
39 1 25.5112 2.73276 1.22774 
2 1 27.3726 17.398 2.46425 
6 1 28.1744 17.3978 1.22777 
10 1 29.5723 17.3961 1.22781 
14 1 26.5002 16.1685 2.46427 
22 1 25.2385 13.6239 2.46426 
25 1 24.7117 12.2828 2.46426 
30 1 26.1454 15.5859 1.22773 
38 1 25.5112 14.2833 1.22774 
46 1 30.3094 17.3954 2.46437 
50 1 31.7362 17.4051 2.46474 
54 1 32.4587 17.4231 1.22833 
ITEM: TIMESTEP
60
ITEM: NUMBER OF ATOMS
58
ITEM: BOX BOUNDS pp pp pp
0.0000000000000000e+00 3.2808000000000000e+01
0.0000000000000000e+00 1.7780000000000001e+01
0.0000000000000000e+00 2.4729999999999999e+00
ITEM: ATOMS id type x y z 
13 1 7.06833 0.844996 2.46521 
29 1 7.41858 1.43161 1.22861 
37 1 8.04138 2.73817 1.22806 
1 1 6.18284 17.4086 2.46602 
5 1 5.34633 17.4464 1.2298 
9 1 3.99921 17.4606 1.23083 
16 1 7.02901 16.1668 2.46519 
32 1 7.38356 15.5842 1.22859 
40 1 8.0263 14.2868 1.22805 
45 1 3.2406 17.1729 2.46728 
49 1 1.77396 17.4345 2.466 
53 1 1.09349 17.4509 1.22938 
57 2 3.2617 16.0017 -0.000254397 
58 3 3.29918 15.0127 0.0221637 
4 1 10.9702 8.51601 2.46425 
8 1 11.7718 8.51407 1.22775 
12 1 13.1695 8.50873 1.22775 
18 1 10.0997 7.28454 2.46426 
21 1 8.31078 3.40004 2.46451 
26 1 8.83513 4.74161 2.46432 
34 1 9.74591 6.70217 1.22776 
42 1 9.10832 5.39978 1.2278 
48 1 13.9076 8.50775 2.46425 
52 1 15.3321 8.50776 2.46425 
56 1 16.0591 8.50794 1.22775 
19 1 10.0975 9.7451 2.46426 
24 1 8.30302 13.6278 2.4645 
27 1 8.83198 12.288 2.46431 
35 1 9.74283 10.3273 1.22776 
43 1 9.10558 11.6297 1.2278 
3 1 22.578 8.508 2.46425 
7 1 21.7761 8.50801 1.22775 
11 1 20.3782 8.508 1.22775 
20 1 23.4489 7.27708 2.46425 
36 1 23.8025 6.69363 1.22775 
44 1 24.4374 5.39231 1.22775 
47 1 19.6414 8.508 2.46425 
51 1 18.215 8.50801 2.46425 
55 1 17.4886 8.50801 1.22775 
17 1 23.4489 9.73893 2.46425 
33 1 23.8025 10.3224 1.22775 
41 1 24.4374 11.6237 1.22775 
15 1 26.5016 0.847876 2.46425 
23 1 25.2389 3.39219 2.46425 
28 1 24.7115 4.73227 2.46425 
31 1 26.1475 1.43018 1.22775 
39 1 25.512 2.73341 1.22775 
2 1 27.3739 17.3981 2.46427 
6 1 28.1752 17.3975 1.22778 
10 1 29.5735 17.3952 1.2279 
14 1 26.5015 16.1681 2.46425 
22 1 25.2389 13.6238 2.46425 
25 1 24.7115 12.2837 2.46425 
30 1 26.1475 15.5858 1.22775 
38 1 25.512 14.2826 1.22775 
46 1 30.3086 17.3957 2.46445 
50 1 31.737 17.4098 2.46488 
54 1 32.4594 17.4283 1.22849 
ITEM: TIMESTEP
70
ITEM: NUMBER OF ATOMS
58
ITEM: BOX BOUNDS pp pp pp
0.0000000000000000e+00 3.2808000000000000e+01
0.0000000000000000e+00 1.7780000000000001e+01
0.0000000000000000e+00 2.4729999999999999e+00
ITEM: ATOMS id type x y z 
13 1 7.08075 0.856819 2.46612 
29 1 7.43992 1.43826 1.2297 
37 1 8.05462 2.75053 1.22942 
1 1 6.1665 17.4445 2.46508 
5 1 5.33026 17.4686 1.22837 
9 1 3.98792 17.3499 1.2283 
16 1 6.97374 16.1713 2.46614 
32 1 7.31328 15.5812 1.22971 
40 1 7.97604 14.2912 1.22939 
45 1 3.23345 17.0478 2.46521 
49 1 1.78628 17.4178 2.46555 
53 1 1.10842 17.485 1.22911 
57 2 3.23965 15.8737 -0.00484047 
58 3 3.28318 14.881 0.0150557 
4 1 10.9687 8.53864 2.4643 
8 1 11.7712 8.53729 1.22778 
12 1 13.1691 8.51563 1.22775 
18 1 10.1093 7.29974 2.46439 
21 1 8.31848 3.41405 2.46583 
26 1 8.84665 4.7543 2.46498 
34 1 9.76177 6.71312 1.22793 
42 1 9.12525 5.41222 1.22839 
48 1 13.9062 8.5081 2.46425 
52 1 15.3319 8.5055 2.46425 
56 1 16.0588 8.50664 1.22775 
19 1 10.1045 9.77323 2.46439 
24 1 8.27347 13.6425 2.4658 
27 1 8.83476 12.3159 2.46496 
35 1 9.75507 10.3593 1.22793 
43 1 9.11725 11.6589 1.22837 
3 1 22.5786 8.50759 2.46425 
7 1 21.776 8.50782 1.22775 
11 1 20.3784 8.50801 1.22775 
20 1 23.4409 7.27136 2.46425 
36 1 23.7887 6.68478 1.22775 
44 1 24.4258 5.38252 1.22775 
47 1 19.6405 8.50805 2.46425 
51 1 18.2157 8.50812 2.46425 
55 1 17.4881 8.50795 1.22775 
17 1 23.4407 9.74404 2.46425 
33 1 23.7885 10.3306 1.22775 
41 1 24.4256 11.6328 1.22775 
15 1 26.522 0.852419 2.46434 
23 1 25.2467 3.39143 2.46425 
28 1 24.7043 4.72619 2.46425 
31 1 26.1707 1.43691 1.22782 
39 1 25.528 2.73543 1.22776 
2 1 27.3867 17.3978 2.46463 
6 1 28.189 17.392 1.22826 
10 1 29.5874 17.3876 1.22913 
14 1 26.5195 16.1642 2.46434 
22 1 25.2464 13.6239 2.46425 
25 1 24.7042 12.2891 2.46425 
30 1 26.1692 15.5789 1.22782 
38 1 25.5275 14.2799 1.22776 
46 1 30.324 17.407 2.46577 
50 1 31.7499 17.4758 2.4665 
54 1 32.4719 17.5051 1.22998 
ITEM: TIMESTEP
80
ITEM: NUMBER OF ATOMS
58
ITEM: BOX BOUNDS pp pp pp
0.0000000000000000e+00 3.2808000000000000e+01
0.0000000000000000e+00 1.7780000000000001e+01
0.0000000000000000e+00 2.4729999999999999e+00
ITEM: ATOMS id type x y z 
13 1 7.0759 0.857594 2.46594 
29 1 7.43495 1.43969 1.22947 
37 1 8.05357 2.74977 1.2293 
1 1 6.16648 17.4437 2.46535 
5 1 5.32884 17.4681 1.22876 
9 1 3.98929 17.3473 1.22876 
16 1 6.97283 16.1726 2.46594 
32 1 7.31433 15.5829 1.22948 
40 1 7.97356 14.292 1.22928 
45 1 3.23195 17.0517 2.4652 
49 1 1.78606 17.4107 2.4656 
53 1 1.10897 17.4791 1.22918 
57 2 3.23805 15.8752 -0.00492892 
58 3 3.28089 14.8802 0.0148347 
4 1 10.9671 8.53896 2.46433 
8 1 11.7695 8.53687 1.22781 
12 1 13.1679 8.51614 1.22776 
18 1 10.1087 7.2989 2.46446 
21 1 8.31947 3.41199 2.46574 
26 1 8.84752 4.75268 2.46505 
34 1 9.76106 6.71224 1.228 
42 1 9.12483 5.4097 1.22846 
48 1 13.9057 8.50889 2.46426 
52 1 15.3309 8.50543 2.46425 
56 1 16.0582 8.50628 1.22775 
19 1 10.1042 9.77499 2.46445 
24 1 8.26969 13.643 2.46572 
27 1 8.83386 12.3171 2.46503 
35 1 9.75523 10.361 1.22799 
43 1 9.11718 11.6625 1.22844 
3 1 22.579 8.50738 2.46425 
7 1 21.7764 8.50764 1.22775 
11 1 20.3783 8.50801 1.22775 
20 1 23.4411 7.2706 2.46425 
36 1 23.7894 6.68402 1.22775 
44 1 24.4255 5.38107 1.22775 
47 1 19.6404 8.5081 2.46425 
51 1 18.2151 8.50813 2.46425 
55 1 17.4877 8.50781 1.22775 
17 1 23.4409 9.74443 2.46425 
33 1 23.7891 10.331 1.22775 
41 1 24.4253 11.6339 1.22775 
15 1 26.5248 0.852052 2.46438 
23 1 25.2481 3.39019 2.46426 
28 1 24.7043 4.72493 2.46425 
31 1 26.1722 1.43558 1.22785 
39 1 25.5293 2.73494 1.22777 
2 1 27.3898 17.3974 2.4647 
6 1 28.1922 17.3921 1.22834 
10 1 29.5902 17.3913 1.2291 
14 1 26.5216 16.1646 2.46438 
22 1 25.2477 13.6248 2.46426 
25 1 24.704 12.2901 2.46425 
30 1 26.1699 15.5802 1.22785 
38 1 25.5284 14.2802 1.22777 
46 1 30.3266 17.4107 2.46571 
50 1 31.7524 17.477 2.46622 
54 1 32.4746 17.5045 1.22972 
ITEM: TIMESTEP
90
ITEM: NUMBER OF ATOMS
58
ITEM: BOX BOUNDS pp pp pp
0.0000000000000000e+00 3.2808000000000000e+01
0.0000000000000000e+00 1.7780000000000001e+01
0.0000000000000000e+00 2.4729999999999999e+00
ITEM: ATOMS id type x y z 
13 1 7.07202 0.859723 2.46577 
29 1 7.4303 1.44239 1.22927 
37 1 8.0536 2.7504 1.22914 
1 1 6.16625 17.4434 2.46559 
5 1 5.32809 17.4689 1.22905 
9 1 3.98878 17.3486 1.22911 
16 1 6.97419 16.1741 2.46577 
32 1 7.31562 15.5844 1.22927 
40 1 7.97124 14.2915 1.22913 
45 1 3.23301 17.0466 2.46551 
49 1 1.7873 17.4041 2.46566 
53 1 1.10923 17.4725 1.2292 
57 2 3.23663 15.8722 -0.00495671 
58 3 3.27694 14.8797 0.0144319 
4 1 10.9674 8.53921 2.46439 
8 1 11.7704 8.53671 1.22786 
12 1 13.1683 8.51698 1.22778 
18 1 10.1085 7.2999 2.46455 
21 1 8.3214 3.41154 2.4656 
26 1 8.84975 4.75257 2.4651 
34 1 9.76125 6.71312 1.22809 
42 1 9.12608 5.40991 1.22853 
48 1 13.9056 8.50997 2.46427 
52 1 15.331 8.50545 2.46425 
56 1 16.0584 8.50584 1.22775 
19 1 10.1052 9.77537 2.46455 
24 1 8.26602 13.6421 2.46558 
27 1 8.83332 12.3169 2.46509 
35 1 9.75669 10.3618 1.22809 
43 1 9.11834 11.6629 1.22851 
3 1 22.5788 8.50709 2.46425 
7 1 21.7757 8.50735 1.22775 
11 1 20.3785 8.50799 1.22775 
20 1 23.4402 7.27026 2.46425 
36 1 23.7885 6.6839 1.22775 
44 1 24.4243 5.38036 1.22775 
47 1 19.6406 8.50816 2.46425 
51 1 18.2149 8.50808 2.46425 
55 1 17.4879 8.50755 1.22775 
17 1 23.4399 9.74422 2.46425 
33 1 23.7881 10.3306 1.22775 
41 1 24.4239 11.6341 1.22775 
15 1 26.5266 0.852793 2.46445 
23 1 25.2493 3.3902 2.46429 
28 1 24.7033 4.72487 2.46426 
31 1 26.1743 1.43597 1.22792 
39 1 25.5309 2.73515 1.22779 
2 1 27.3909 17.3969 2.46477 
6 1 28.1924 17.3924 1.22839 
10 1 29.5916 17.3964 1.22901 
14 1 26.5225 16.1637 2.46445 
22 1 25.2486 13.6244 2.46429 
25 1 24.7029 12.2896 2.46426 
30 1 26.1708 15.5798 1.22792 
38 1 25.5295 14.2797 1.22779 
46 1 30.3275 17.4162 2.4656 
50 1 31.7519 17.4793 2.46593 
54 1 32.4758 17.5042 1.22944 
ITEM: TIMESTEP
91
ITEM: NUMBER OF ATOMS
58
ITEM: BOX BOUNDS pp pp pp
0.0000000000000000e+00 3.2808000000000000e+01
0.0000000000000000e+00 1.7780000000000001e+01
0.0000000000000000e+00 2.4729999999999999e+00
ITEM: ATOMS id type x y z 
13 1 7.07195 0.859746 2.46577 
29 1 7.43023 1.44243 1.22927 
37 1 8.0536 2.75041 1.22914 
1 1 6.16625 17.4434 2.46559 
5 1 5.32808 17.4689 1.22905 
9 1 3.98877 17.3486 1.22911 
16 1 6.9742 16.1741 2.46577 
32 1 7.31564 15.5844 1.22927 
40 1 7.9712 14.2915 1.22913 
45 1 3.23302 17.0466 2.46551 
49 1 1.78732 17.404 2.46567 
53 1 1.10922 17.4724 1.2292 
57 2 3.23661 15.8722 -0.00495702 
58 3 3.27687 14.8797 0.0144256 
4 1 10.9673 8.53921 2.46439 
8 1 11.7704 8.53671 1.22786 
12 1 13.1683 8.517 1.22778 
18 1 10.1085 7.29992 2.46455 
21 1 8.32143 3.41153 2.46559 
26 1 8.84979 4.75256 2.4651 
34 1 9.76125 6.71313 1.22809 
42 1 9.12609 5.4099 1.22853 
48 1 13.9056 8.50999 2.46427 
52 1 15.331 8.50545 2.46425 
56 1 16.0584 8.50584 1.22775 
19 1 10.1052 9.77538 2.46455 
24 1 8.26596 13.6421 2.46558 
27 1 8.83331 12.3169 2.46509 
35 1 9.75671 10.3618 1.22809 
43 1 9.11836 11.6629 1.22851 
3 1 22.5788 8.50709 2.46425 
7 1 21.7757 8.50735 1.22775 
11 1 20.3785 8.50799 1.22775 
20 1 23.4402 7.27026 2.46425 
36 1 23.7885 6.6839 1.22775 
44 1 24.4242 5.38034 1.22775 
47 1 19.6406 8.50816 2.46425 
51 1 18.2149 8.50808 2.46425 
55 1 17.4879 8.50754 1.22775 
17 1 23.4399 9.74421 2.46425 
33 1 23.7881 10.3306 1.22775 
41 1 24.4239 11.6341 1.22775 
15 1 26.5266 0.852803 2.46445 
23 1 25.2494 3.3902 2.46429 
28 1 24.7033 4.72487 2.46426 
31 1 26.1743 1.43597 1.22792 
39 1 25.5309 2.73516 1.22779 
2 1 27.3909 17.3969 2.46477 
6 1 28.1924 17.3924 1.22839 
10 1 29.5916 17.3965 1.22901 
14 1 26.5226 16.1637 2.46445 
22 1 25.2486 13.6244 2.46429 
25 1 24.7029 12.2896 2.46426 
30 1 26.1708 15.5798 1.22792 
38 1 25.5295 14.2797 1.22779 
46 1 30.3275 17.4163 2.4656 
50 1 31.7518 17.4793 2.46593 
54 1 32.4758 17.5042 1.22944 
ITEM: TIMESTEP
100
ITEM: NUMBER OF ATOMS
58
ITEM: BOX BOUNDS pp pp pp
0.0000000000000000e+00 3.2808000000000000e+01
0.0000000000000000e+00 1.7780000000000001e+01
0.0000000000000000e+00 2.4729999999999999e+00
ITEM: ATOMS id type x y z 
13 1 7.07142 0.861484 2.46573 
29 1 7.42893 1.44344 1.22924 
37 1 8.05357 2.75068 1.2291 
1 1 6.16567 17.4434 2.46562 
5 1 5.328 17.4689 1.22911 
9 1 3.98831 17.3486 1.2291 
16 1 6.97535 16.1736 2.46573 
32 1 7.31603 15.5846 1.22923 
40 1 7.97038 14.2912 1.22909 
45 1 3.23443 17.0442 2.46569 
49 1 1.78686 17.402 2.46568 
53 1 1.11059 17.4701 1.2292 
57 2 3.23644 15.8715 2.46803 
58 3 3.27536 14.8784 0.0142902 
4 1 10.9676 8.53954 2.46442 
8 1 11.77 8.53681 1.22788 
12 1 13.1682 8.51732 1.22779 
18 1 10.1083 7.30003 2.46459 
21 1 8.32221 3.41199 2.46555 
26 1 8.85051 4.75229 2.4651 
34 1 9.76112 6.71317 1.22813 
42 1 9.12678 5.41019 1.22854 
48 1 13.9059 8.51031 2.46428 
52 1 15.3312 8.50547 2.46426 
56 1 16.0585 8.50572 1.22775 
19 1 10.1054 9.7759 2.46458 
24 1 8.26501 13.6415 2.46554 
27 1 8.83294 12.3171 2.46509 
35 1 9.75708 10.3624 1.22812 
43 1 9.11844 11.6634 1.22853 
3 1 22.5787 8.50698 2.46425 
7 1 21.7766 8.50724 1.22775 
11 1 20.3779 8.50798 1.22775 
20 1 23.4404 7.2696 2.46425 
36 1 23.7884 6.68318 1.22775 
44 1 24.4235 5.38072 1.22776 
47 1 19.6403 8.50818 2.46425 
51 1 18.215 8.50804 2.46425 
55 1 17.4877 8.50744 1.22775 
17 1 23.4401 9.74467 2.46425 
33 1 23.788 10.3311 1.22775 
41 1 24.4231 11.6336 1.22776 
15 1 26.5272 0.852728 2.46447 
23 1 25.2495 3.39089 2.46429 
28 1 24.7033 4.72415 2.46426 
31 1 26.1747 1.43681 1.22794 
39 1 25.5315 2.73545 1.22781 
2 1 27.3906 17.3967 2.46479 
6 1 28.1928 17.3925 1.22839 
10 1 29.591 17.3983 1.22898 
14 1 26.5228 16.1636 2.46447 
22 1 25.2486 13.6236 2.46429 
25 1 24.7028 12.2901 2.46426 
30 1 26.1709 15.579 1.22794 
38 1 25.5298 14.2793 1.22781 
46 1 30.3265 17.4183 2.46555 
50 1 31.754 17.4803 2.46586 
54 1 32.4749 17.5041 1.22937 
ITEM: TIMESTEP
110
ITEM: NUMBER OF ATOMS
58
ITEM: BOX BOUNDS pp pp pp
-3.2984526457898494e-03 3.2811298452645794e+01
-5.8270145363422928e-05 1.7780058270145364e+01
8.4124117291621493e-05 2.4729158758827081e+00
ITEM: ATOMS id type x y z 
13 1 7.06929 0.861426 2.46565 
29 1 7.42692 1.44342 1.22923 
37 1 8.05189 2.7507 1.22909 
1 1 6.16346 17.4435 2.46554 
5 1 5.3255 17.4689 1.22911 
9 1 3.98594 17.3484 1.22913 
16 1 6.97341 16.1739 2.46564 
32 1 7.3142 15.5848 1.22923 
40 1 7.96857 14.2912 1.22908 
45 1 3.23167 17.0445 2.46561 
49 1 1.78387 17.4017 2.4656 
53 1 1.10721 17.4699 1.2292 
57 2 3.23379 15.8714 2.46795 
58 3 3.27252 14.8783 0.0143555 
4 1 10.9667 8.53955 2.46434 
8 1 11.7692 8.53682 1.22789 
12 1 13.1677 8.51736 1.22779 
18 1 10.1071 7.30012 2.46451 
21 1 8.32063 3.41188 2.46546 
26 1 8.84913 4.75234 2.46502 
34 1 9.75984 6.71329 1.22813 
42 1 9.12537 5.41012 1.22854 
48 1 13.9055 8.51035 2.4642 
52 1 15.331 8.50548 2.46417 
56 1 16.0584 8.50571 1.22776 
19 1 10.1043 9.77592 2.4645 
24 1 8.26321 13.6415 2.46545 
27 1 8.8314 12.3171 2.46501 
35 1 9.75586 10.3623 1.22812 
43 1 9.11701 11.6634 1.22853 
3 1 22.5797 8.50696 2.46417 
7 1 21.7775 8.50723 1.22775 
11 1 20.3786 8.50798 1.22775 
20 1 23.4417 7.26965 2.46417 
36 1 23.7898 6.68324 1.22775 
44 1 24.4252 5.38048 1.22776 
47 1 19.6409 8.50818 2.46417 
51 1 18.2154 8.50803 2.46417 
55 1 17.4879 8.50742 1.22775 
17 1 23.4414 9.74459 2.46417 
33 1 23.7894 10.331 1.22775 
41 1 24.4247 11.6338 1.22776 
15 1 26.5293 0.852708 2.46439 
23 1 25.2514 3.3907 2.46421 
28 1 24.7049 4.72419 2.46418 
31 1 26.1769 1.43662 1.22795 
39 1 25.5334 2.73545 1.22781 
2 1 27.3931 17.3968 2.4647 
6 1 28.1951 17.3926 1.2284 
10 1 29.5939 17.3986 1.22897 
14 1 26.5249 16.1636 2.46439 
22 1 25.2505 13.6237 2.46421 
25 1 24.7044 12.2901 2.46418 
30 1 26.173 15.5791 1.22795 
38 1 25.5317 14.2793 1.22781 
46 1 30.3296 17.4186 2.46546 
50 1 31.757 17.4805 2.46577 
54 1 32.4782 17.5041 1.22936 
ITEM: TIMESTEP
120
ITEM: NUMBER OF ATOMS
58
ITEM: BOX BOUNDS pp pp pp
1.8508353043408046e-03 3.2806149164695661e+01
4.3096024574023886e-03 1.7775690397542597e+01
-4.3256821992504810e-04 2.4734325682199252e+00
ITEM: ATOMS id type x y z 
13 1 7.07153 0.865404 2.46615 
29 1 7.42923 1.44729 1.22922 
37 1 8.05451 2.75382 1.22907 
1 1 6.16616 17.4394 2.46607 
5 1 5.32852 17.4645 1.22912 
9 1 3.99 17.3438 1.22917 
16 1 6.97629 16.1708 2.46615 
32 1 7.3171 15.5817 1.22921 
40 1 7.97091 14.2885 1.22906 
45 1 3.23517 17.0409 2.46613 
49 1 1.78824 17.3965 2.46612 
53 1 1.1117 17.4648 1.2292 
57 2 3.2379 15.8676 2.46846 
58 3 3.27609 14.875 0.0137954 
4 1 10.9692 8.53979 2.46486 
8 1 11.771 8.53701 1.22789 
12 1 13.1692 8.51766 1.22779 
18 1 10.1092 7.3012 2.46503 
21 1 8.32333 3.41447 2.46596 
26 1 8.85185 4.7545 2.46554 
34 1 9.76207 6.71474 1.22814 
42 1 9.12786 5.41188 1.22854 
48 1 13.9066 8.51066 2.46471 
52 1 15.3315 8.50569 2.46469 
56 1 16.0586 8.50587 1.22775 
19 1 10.1066 9.77547 2.46502 
24 1 8.26536 13.6392 2.46595 
27 1 8.8337 12.3153 2.46552 
35 1 9.75824 10.3615 1.22813 
43 1 9.11937 11.6621 1.22853 
3 1 22.577 8.50711 2.46468 
7 1 21.7753 8.50738 1.22775 
11 1 20.3771 8.50816 1.22775 
20 1 23.4392 7.27061 2.46468 
36 1 23.7872 6.68447 1.22775 
44 1 24.4226 5.38197 1.22776 
47 1 19.6395 8.50837 2.46468 
51 1 18.2146 8.5082 2.46468 
55 1 17.4875 8.50757 1.22775 
17 1 23.4389 9.74394 2.46468 
33 1 23.7868 10.3301 1.22775 
41 1 24.4221 11.6326 1.22776 
15 1 26.5265 0.856668 2.46491 
23 1 25.2488 3.39319 2.46473 
28 1 24.7021 4.72634 2.46469 
31 1 26.1743 1.43996 1.22795 
39 1 25.5308 2.73848 1.22781 
2 1 27.3902 17.3925 2.46522 
6 1 28.1917 17.3885 1.22839 
10 1 29.5905 17.3951 1.22895 
14 1 26.522 16.16 2.46491 
22 1 25.2479 13.6216 2.46473 
25 1 24.7017 12.2882 2.46469 
30 1 26.1703 15.5762 1.22795 
38 1 25.529 14.2766 1.22781 
46 1 30.3258 17.4152 2.46596 
50 1 31.7518 17.4766 2.46626 
54 1 32.4734 17.4996 1.22934 
ITEM: TIMESTEP
130
ITEM: NUMBER OF ATOMS
58
ITEM: BOX BOUNDS pp pp pp
-3.8642736872896849e-03 3.2811864273687291e+01
2.7984945062574534e-03 1.7777201505493746e+01
-1.1304606493417502e-04 2.4731130460649347e+00
ITEM: ATOMS id type x y z 
13 1 7.06807 0.86414 2.46583 
29 1 7.42586 1.44602 1.22921 
37 1 8.05159 2.75279 1.22907 
1 1 6.16254 17.4409 2.46575 
5 1 5.32445 17.4659 1.22913 
9 1 3.98545 17.345 1.22918 
16 1 6.97303 16.1721 2.46583 
32 1 7.31391 15.583 1.22921 
40 1 7.96784 14.2894 1.22906 
45 1 3.23069 17.0423 2.46582 
49 1 1.78301 17.3975 2.4658 
53 1 1.10614 17.4659 1.2292 
57 2 3.23329 15.8687 2.46814 
58 3 3.27129 14.8758 0.014092 
4 1 10.9677 8.53978 2.46455 
8 1 11.7697 8.53696 1.2279 
12 1 13.1682 8.51765 1.2278 
18 1 10.1071 7.30106 2.46472 
21 1 8.32061 3.4136 2.46564 
26 1 8.84935 4.75384 2.46522 
34 1 9.75981 6.71451 1.22814 
42 1 9.12544 5.41137 1.22855 
48 1 13.9059 8.51065 2.4644 
52 1 15.3312 8.50563 2.46437 
56 1 16.0585 8.50579 1.22776 
19 1 10.1046 9.77562 2.46471 
24 1 8.26238 13.6399 2.46563 
27 1 8.83105 12.3158 2.46521 
35 1 9.75603 10.3617 1.22814 
43 1 9.11687 11.6626 1.22853 
3 1 22.579 8.50704 2.46436 
7 1 21.7769 8.5073 1.22775 
11 1 20.3782 8.5081 1.22775 
20 1 23.4415 7.27035 2.46436 
36 1 23.7897 6.68417 1.22775 
44 1 24.4253 5.38141 1.22776 
47 1 19.6405 8.50831 2.46436 
51 1 18.2153 8.50813 2.46436 
55 1 17.4879 8.50749 1.22775 
17 1 23.4412 9.74405 2.46436 
33 1 23.7892 10.3303 1.22775 
41 1 24.4248 11.633 1.22776 
15 1 26.5302 0.855232 2.4646 
23 1 25.252 3.39224 2.46441 
28 1 24.705 4.72558 2.46438 
31 1 26.1778 1.43879 1.22795 
39 1 25.534 2.73747 1.22781 
2 1 27.3947 17.3939 2.4649 
6 1 28.1959 17.39 1.2284 
10 1 29.5947 17.3968 1.22895 
14 1 26.5257 16.1613 2.4646 
22 1 25.251 13.6224 2.46441 
25 1 24.7045 12.2888 2.46438 
30 1 26.1737 15.5772 1.22795 
38 1 25.5322 14.2775 1.22781 
46 1 30.3306 17.417 2.46563 
50 1 31.7576 17.4782 2.46593 
54 1 32.479 17.501 1.22933 
ITEM: TIMESTEP
140
ITEM: NUMBER OF ATOMS
58
ITEM: BOX BOUNDS pp pp pp
-1.2225345046481383e-02 3.2820225345046488e+01
7.4337057552745197e-03 1.7772566294244729e+01
-1.3624167131563199e-04 2.4731362416713161e+00
ITEM: ATOMS id type x y z 
13 1 7.06102 0.869122 2.46582 
29 1 7.4192 1.45048 1.22917 
37 1 8.04723 2.75608 1.22902 
1 1 6.15517 17.4366 2.4658 
5 1 5.3178 17.4608 1.22919 
9 1 3.97826 17.3391 1.22928 
16 1 6.96831 16.1695 2.46581 
32 1 7.30932 15.5807 1.22917 
40 1 7.96227 14.2866 1.22901 
45 1 3.22361 17.0378 2.46595 
49 1 1.77433 17.3895 2.46584 
53 1 1.09772 17.4579 1.22921 
57 2 3.22634 15.8639 2.46815 
58 3 3.26242 14.8709 0.0138798 
4 1 10.9681 8.54038 2.46461 
8 1 11.7696 8.53724 1.22793 
12 1 13.1681 8.51832 1.22781 
18 1 10.105 7.30317 2.46478 
21 1 8.31738 3.41671 2.46561 
26 1 8.84677 4.75626 2.46525 
34 1 9.75706 6.71713 1.22818 
42 1 9.12292 5.41413 1.22856 
48 1 13.9059 8.51135 2.46444 
52 1 15.3312 8.50592 2.4644 
56 1 16.0587 8.50588 1.22776 
19 1 10.1031 9.77503 2.46478 