ITEM: TIMESTEP
0
ITEM: NUMBER OF ATOMS
50
ITEM: BOX BOUNDS pp pp pp
0.0000000000000000e+00 1.1000000000000000e+01
0.0000000000000000e+00 1.1002000000000001e+01
0.0000000000000000e+00 1.1000000000000000e+01
ITEM: ATOMS id type x y z 
10 1 4.603 4.603 4.603 
11 1 3.085 3.085 3.085 
12 1 3.796 3.796 3.796 
46 1 0.726 0.725 0.725 
47 1 2.26 2.259 2.26 
48 1 1.551 1.55 1.55 
19 1 4.546 4.545 6.226 
20 1 3.013 3.013 7.764 
21 1 3.721 3.721 7.053 
31 1 0.668 0.667 10.103 
32 1 2.187 2.187 8.589 
33 1 1.476 1.475 9.298 
16 1 4.546 6.225 4.546 
17 1 3.013 7.765 3.013 
18 1 3.721 7.053 3.722 
25 1 0.668 10.103 0.668 
26 1 2.188 8.589 2.188 
27 1 1.476 9.298 1.476 
4 1 4.608 6.169 6.169 
5 1 3.086 7.684 7.684 
6 1 3.799 6.974 6.974 
37 1 0.729 10.046 10.046 
38 1 2.259 8.509 8.508 
39 1 1.552 9.219 9.219 
13 1 6.225 4.546 4.546 
14 1 7.764 3.013 3.013 
15 1 7.053 3.721 3.722 
28 1 10.102 0.667 0.668 
29 1 8.589 2.187 2.188 
30 1 9.298 1.475 1.476 
1 1 6.168 4.608 6.169 
2 1 7.684 3.086 7.684 
3 1 6.974 3.799 6.974 
40 1 10.045 0.728 10.046 
41 1 8.508 2.259 8.508 
42 1 9.218 1.551 9.218 
7 1 6.169 6.169 4.608 
8 1 7.684 7.684 3.086 
9 1 6.974 6.974 3.799 
43 1 10.046 10.047 0.729 
44 1 8.508 8.509 2.259 
45 1 9.219 9.219 1.552 
22 1 6.229 6.229 6.229 
23 1 7.764 7.765 7.765 
24 1 7.055 7.056 7.055 
34 1 10.108 10.108 10.107 
35 1 8.59 8.59 8.59 
36 1 9.301 9.301 9.3 
49 2 8.079 8.024 9.708 
50 3 7.103 8.024 9.708 
ITEM: TIMESTEP
10
ITEM: NUMBER OF ATOMS
50
ITEM: BOX BOUNDS pp pp pp
0.0000000000000000e+00 1.1000000000000000e+01
0.0000000000000000e+00 1.1002000000000001e+01
0.0000000000000000e+00 1.1000000000000000e+01
ITEM: ATOMS id type x y z 
10 1 4.59559 4.58647 4.6005 
11 1 3.08234 3.07387 3.08553 
12 1 3.78795 3.80276 3.78154 
46 1 0.73833 0.735497 0.741328 
47 1 2.27036 2.26896 2.27411 
48 1 1.56062 1.56158 1.55305 
19 1 4.53458 4.53035 6.23822 
20 1 2.99966 2.99528 7.77709 
21 1 3.70593 3.71503 7.06738 
31 1 0.685898 0.666228 10.1017 
32 1 2.19661 2.18529 8.58901 
33 1 1.46786 1.48689 9.28843 
16 1 4.52887 6.23877 4.53293 
17 1 2.99718 7.77449 3.00055 
18 1 3.71171 7.07281 3.70733 
25 1 0.692763 10.1058 0.668145 
26 1 2.19525 8.59289 2.1861 
27 1 1.46895 9.28486 1.48475 
4 1 4.59701 6.17108 6.17239 
5 1 3.07088 7.6883 7.68696 
6 1 3.80198 6.99005 6.99241 
37 1 0.753221 10.033 10.0366 
38 1 2.26397 8.50244 8.5071 
39 1 1.56943 9.20765 9.19742 
13 1 6.2384 4.52854 4.5338 
14 1 7.77607 2.99527 3.00047 
15 1 7.06891 3.71411 3.70566 
28 1 10.1092 0.686259 0.681878 
29 1 8.59372 2.19137 2.19491 
30 1 9.27991 1.47685 1.4728 
1 1 6.16939 4.59643 6.1726 
2 1 7.68572 3.0722 7.68775 
3 1 6.99051 3.8036 6.98728 
40 1 10.0287 0.753571 10.0276 
41 1 8.50632 2.25807 8.50504 
42 1 9.19711 1.57934 9.19883 
7 1 6.17253 6.17171 4.59685 
8 1 7.68751 7.68845 3.07021 
9 1 6.98805 6.98693 3.80544 
43 1 10.0272 10.0245 0.756869 
44 1 8.49668 8.49317 2.27122 
45 1 9.19936 9.2072 1.57207 
22 1 6.22292 6.23596 6.22364 
23 1 7.7249 7.78111 7.8131 
24 1 7.07836 7.05506 7.07121 
34 1 10.116 10.13 10.1438 
35 1 8.83051 8.73054 8.31538 
36 1 9.35932 9.32022 9.21309 
49 2 7.93709 7.89962 9.90464 
50 3 6.97272 7.9486 9.77514 
ITEM: TIMESTEP
20
ITEM: NUMBER OF ATOMS
50
ITEM: BOX BOUNDS pp pp pp
0.0000000000000000e+00 1.1000000000000000e+01
0.0000000000000000e+00 1.1002000000000001e+01
0.0000000000000000e+00 1.1000000000000000e+01
ITEM: ATOMS id type x y z 
10 1 4.5989 4.60083 4.60037 
11 1 3.08391 3.08482 3.08398 
12 1 3.79126 3.79055 3.79154 
46 1 0.733686 0.732709 0.732039 
47 1 2.27199 2.27016 2.27052 
48 1 1.5673 1.56641 1.56842 
19 1 4.53662 4.53709 6.23303 
20 1 3.0028 3.00282 7.77512 
21 1 3.70783 3.70732 7.06645 
31 1 0.677839 0.669837 10.0978 
32 1 2.18764 2.18873 8.58636 
33 1 1.48273 1.47897 9.29308 
16 1 4.53676 6.23191 4.53725 
17 1 3.00181 7.77771 3.00077 
18 1 3.70671 7.06649 3.7081 
25 1 0.678332 10.1 0.669773 
26 1 2.18925 8.58449 2.19149 
27 1 1.48528 9.29292 1.48119 
4 1 4.61244 6.17512 6.17661 
5 1 3.08509 7.68329 7.68424 
6 1 3.79623 6.97983 6.97966 
37 1 0.734241 10.0478 10.046 
38 1 2.26377 8.50303 8.50099 
39 1 1.56887 9.20574 9.20622 
13 1 6.23216 4.53667 4.53716 
14 1 7.77675 3.00148 3.00146 
15 1 7.06638 3.70682 3.7081 
28 1 10.1004 0.678738 0.678336 
29 1 8.58518 2.18798 2.18991 
30 1 9.29442 1.48261 1.48141 
1 1 6.17422 4.61375 6.17584 
2 1 7.6843 3.08458 7.6841 
3 1 6.97881 3.79706 6.97878 
40 1 10.0455 0.736912 10.0481 
41 1 8.49176 2.27541 8.4926 
42 1 9.20213 1.56631 9.20074 
7 1 6.17495 6.17523 4.61351 
8 1 7.68259 7.6821 3.08619 
9 1 6.9773 6.97763 3.79753 
43 1 10.0406 10.0453 0.737112 
44 1 8.49286 8.49603 2.27192 
45 1 9.20335 9.19992 1.57058 
22 1 6.24298 6.23004 6.24089 
23 1 7.75672 7.79631 7.83388 
24 1 7.06778 7.09671 7.08254 
34 1 10.1033 10.1026 10.1203 
35 1 8.7885 8.69504 8.32033 
36 1 9.37285 9.33549 9.16985 
49 2 7.89207 7.88591 9.93356 
50 3 7.00488 7.93384 9.73622 
ITEM: TIMESTEP
30
ITEM: NUMBER OF ATOMS
50
ITEM: BOX BOUNDS pp pp pp
0.0000000000000000e+00 1.1000000000000000e+01
0.0000000000000000e+00 1.1002000000000001e+01
0.0000000000000000e+00 1.1000000000000000e+01
ITEM: ATOMS id type x y z 
10 1 4.59907 4.59912 4.59985 
11 1 3.08522 3.08484 3.08531 
12 1 3.79219 3.79362 3.79233 
46 1 0.73754 0.735845 0.737643 
47 1 2.2729 2.27155 2.27229 
48 1 1.56591 1.56443 1.5655 
19 1 4.53874 4.54031 6.23587 
20 1 3.00345 3.00294 7.77353 
21 1 3.70937 3.70982 7.06645 
31 1 0.673972 0.673033 10.0981 
32 1 2.1896 2.18909 8.58558 
33 1 1.48151 1.48087 9.29213 
16 1 4.53897 6.23582 4.54044 
17 1 3.00418 7.77387 3.00332 
18 1 3.70942 7.06599 3.71058 
25 1 0.675979 10.1001 0.673566 
26 1 2.18947 8.58602 2.18975 
27 1 1.48216 9.29339 1.48151 
4 1 4.61485 6.17531 6.17625 
5 1 3.08404 7.68389 7.68399 
6 1 3.7986 6.97942 6.9806 
37 1 0.736714 10.0394 10.0407 
38 1 2.26876 8.49953 8.49798 
39 1 1.56483 9.20698 9.20667 
13 1 6.23515 4.53902 4.53923 
14 1 7.77363 3.00316 3.00381 
15 1 7.06573 3.70945 3.70988 
28 1 10.1003 0.676088 0.674523 
29 1 8.58536 2.18916 2.19033 
30 1 9.29311 1.48227 1.48194 
1 1 6.17525 4.61449 6.17587 
2 1 7.68341 3.0846 7.68327 
3 1 6.97913 3.7989 6.97943 
40 1 10.0365 0.736967 10.0398 
41 1 8.49808 2.26845 8.4973 
42 1 9.20515 1.56472 9.20619 
7 1 6.17471 6.1743 4.61584 
8 1 7.68178 7.68183 3.08526 
9 1 6.97815 6.97798 3.80017 
43 1 10.0346 10.0363 0.737187 
44 1 8.49632 8.49691 2.27085 
45 1 9.20363 9.20468 1.56581 
22 1 6.25128 6.24894 6.25113 
23 1 7.73802 7.80032 7.83842 
24 1 7.06672 7.08369 7.08479 
34 1 10.0976 10.1041 10.1125 
35 1 8.78502 8.69134 8.31919 
36 1 9.38869 9.34369 9.15434 
49 2 7.88844 7.87993 9.95798 
50 3 7.00074 7.92247 9.707 
ITEM: TIMESTEP
40
ITEM: NUMBER OF ATOMS
50
ITEM: BOX BOUNDS pp pp pp
0.0000000000000000e+00 1.1000000000000000e+01
0.0000000000000000e+00 1.1002000000000001e+01
0.0000000000000000e+00 1.1000000000000000e+01
ITEM: ATOMS id type x y z 
10 1 4.60406 4.60436 4.6047 
11 1 3.08709 3.0872 3.0869 
12 1 3.79469 3.79383 3.795 
46 1 0.735784 0.734753 0.736805 
47 1 2.27255 2.27119 2.27036 
48 1 1.56408 1.56407 1.56699 
19 1 4.54612 4.54934 6.24265 
20 1 3.00329 3.00432 7.7693 
21 1 3.71371 3.71321 7.07008 
31 1 0.673745 0.672324 10.1022 
32 1 2.18965 2.18879 8.5845 
33 1 1.48258 1.48084 9.29375 
16 1 4.54628 6.2427 4.55034 
17 1 3.00431 7.76951 3.00453 
18 1 3.71462 7.06988 3.71436 
25 1 0.667798 10.0997 0.677294 
26 1 2.18993 8.58697 2.18804 
27 1 1.47935 9.29328 1.48259 
4 1 4.61953 6.18057 6.18197 
5 1 3.08535 7.68602 7.68582 
6 1 3.79726 6.98046 6.98107 
37 1 0.735552 10.035 10.0378 
38 1 2.26966 8.49915 8.49822 
39 1 1.56384 9.20531 9.20545 
13 1 6.24127 4.54638 4.54758 
14 1 7.77042 3.00486 3.00458 
15 1 7.06657 3.71233 3.71319 
28 1 10.1006 0.66607 0.677072 
29 1 8.58628 2.19016 2.18917 
30 1 9.29279 1.47915 1.4844 
1 1 6.18164 4.61714 6.18084 
2 1 7.68558 3.08464 7.68443 
3 1 6.97925 3.79825 6.98086 
40 1 10.0307 0.733155 10.036 
41 1 8.49857 2.26884 8.49804 
42 1 9.20427 1.56183 9.20618 
7 1 6.18075 6.17988 4.61698 
8 1 7.6843 7.68452 3.08327 
9 1 6.98162 6.98128 3.79988 
43 1 10.0266 10.0293 0.722913 
44 1 8.49928 8.49971 2.26974 
45 1 9.20246 9.20408 1.55783 
22 1 6.26422 6.26321 6.25434 
23 1 7.67768 7.80835 7.90456 
24 1 7.05494 7.08691 7.09779 
34 1 10.1058 10.105 10.0896 
35 1 8.79449 8.68814 8.29502 
36 1 9.41995 9.35142 9.10173 
49 2 7.84712 7.86634 10.039 
50 3 7.01615 7.87538 9.60628 
ITEM: TIMESTEP
50
ITEM: NUMBER OF ATOMS
50
ITEM: BOX BOUNDS pp pp pp
0.0000000000000000e+00 1.1000000000000000e+01
0.0000000000000000e+00 1.1002000000000001e+01
0.0000000000000000e+00 1.1000000000000000e+01
ITEM: ATOMS id type x y z 
10 1 4.60302 4.60327 4.60382 
11 1 3.08899 3.08642 3.08814 
12 1 3.79386 3.79793 3.7951 
46 1 0.730076 0.730633 0.736865 
47 1 2.27385 2.27386 2.27594 
48 1 1.56958 1.56722 1.56505 
19 1 4.55069 4.54951 6.24445 
20 1 3.00468 3.00297 7.77229 
21 1 3.70902 3.7135 7.0679 
31 1 0.6771 0.677098 10.1018 
32 1 2.19163 2.18665 8.58702 
33 1 1.47651 1.4829 9.29063 
16 1 4.54957 6.24346 4.55073 
17 1 3.00547 7.77296 3.00314 
18 1 3.70962 7.06792 3.71389 
25 1 0.66676 10.0984 0.680391 
26 1 2.19092 8.58566 2.18859 
27 1 1.47916 9.29252 1.48439 
4 1 4.6184 6.18052 6.18014 
5 1 3.08059 7.68366 7.68327 
6 1 3.80739 6.98489 6.98589 
37 1 0.73355 10.0381 10.0403 
38 1 2.27161 8.49622 8.49484 
39 1 1.5674 9.20379 9.20497 
13 1 6.23914 4.54629 4.54907 
14 1 7.77008 3.00218 3.00244 
15 1 7.07198 3.71355 3.71322 
28 1 10.097 0.667136 0.678084 
29 1 8.58727 2.18929 2.18895 
30 1 9.29249 1.47808 1.48305 
1 1 6.17853 4.61808 6.18092 
2 1 7.68247 3.07923 7.68488 
3 1 6.98858 3.80581 6.98396 
40 1 10.0362 0.728064 10.0412 
41 1 8.49729 2.27008 8.49667 
42 1 9.2018 1.56412 9.20381 
7 1 6.1815 6.18173 4.61832 
8 1 7.68536 7.68502 3.08119 
9 1 6.98374 6.9844 3.80132 
43 1 10.0302 10.0328 0.715953 
44 1 8.49779 8.49849 2.2713 
45 1 9.20058 9.20184 1.55653 
22 1 6.26589 6.2538 6.25089 
23 1 7.65997 7.80179 7.93522 
24 1 7.05107 7.10183 7.09539 
34 1 10.1081 10.1086 10.0825 
35 1 8.802 8.69005 8.28226 
36 1 9.4154 9.34607 9.09962 
49 2 7.83432 7.8655 10.052 
50 3 7.02578 7.86512 9.58362 
ITEM: TIMESTEP
60
ITEM: NUMBER OF ATOMS
50
ITEM: BOX BOUNDS pp pp pp
0.0000000000000000e+00 1.1000000000000000e+01
0.0000000000000000e+00 1.1002000000000001e+01
0.0000000000000000e+00 1.1000000000000000e+01
ITEM: ATOMS id type x y z 
10 1 4.60517 4.60464 4.61027 
11 1 3.08861 3.08753 3.0907 
12 1 3.79694 3.79874 3.79323 
46 1 0.734499 0.733901 0.737222 
47 1 2.27513 2.27362 2.26955 
48 1 1.56337 1.56353 1.57323 
19 1 4.54986 4.55224 6.24234 
20 1 3.00362 3.005 7.76854 
21 1 3.71814 3.71674 7.06944 
31 1 0.67648 0.679024 10.1057 
32 1 2.18884 2.18816 8.58364 
33 1 1.48427 1.48326 9.29435 
16 1 4.54706 6.24244 4.55128 
17 1 3.00474 7.76939 3.00533 
18 1 3.71577 7.07188 3.71429 
25 1 0.664234 10.0999 0.682545 
26 1 2.1901 8.58538 2.18891 
27 1 1.47879 9.29275 1.48429 
4 1 4.62239 6.17745 6.18303 
5 1 3.0842 7.68232 7.68365 
6 1 3.80705 6.98459 6.98223 
37 1 0.73572 10.0373 10.0383 
38 1 2.26933 8.49736 8.4963 
39 1 1.56849 9.20434 9.20564 
13 1 6.24248 4.54833 4.54992 
14 1 7.77204 3.00619 3.00549 
15 1 7.06514 3.71179 3.71284 
28 1 10.098 0.663605 0.678722 
29 1 8.58479 2.18997 2.18886 
30 1 9.29341 1.47774 1.48628 
1 1 6.18287 4.62391 6.18289 
2 1 7.68681 3.0878 7.6852 
3 1 6.97729 3.79607 6.98006 
40 1 10.0341 0.72887 10.0358 
41 1 8.49778 2.26811 8.49675 
42 1 9.20352 1.56319 9.2071 
7 1 6.18466 6.18182 4.61814 
8 1 7.6867 7.68659 3.08222 
9 1 6.98422 6.9844 3.79956 
43 1 10.0271 10.0276 0.708422 
44 1 8.49985 8.49967 2.26622 
45 1 9.2035 9.20646 1.55277 
22 1 6.27155 6.26619 6.25012 
23 1 7.62069 7.80055 7.97593 
24 1 7.05877 7.10098 7.09818 
34 1 10.1127 10.1062 10.0736 
35 1 8.80645 8.6885 8.26545 
36 1 9.41194 9.34021 9.09011 
49 2 7.8158 7.86523 10.0781 
50 3 7.03897 7.84755 9.54913 
ITEM: TIMESTEP
70
ITEM: NUMBER OF ATOMS
50
ITEM: BOX BOUNDS pp pp pp
0.0000000000000000e+00 1.1000000000000000e+01
0.0000000000000000e+00 1.1002000000000001e+01
0.0000000000000000e+00 1.1000000000000000e+01
ITEM: ATOMS id type x y z 
10 1 4.60556 4.60681 4.60659 
11 1 3.0895 3.08928 3.08876 
12 1 3.79631 3.79649 3.79717 
46 1 0.732588 0.73266 0.738865 
47 1 2.27517 2.27385 2.2716 
48 1 1.5648 1.5647 1.57195 
19 1 4.55154 4.55227 6.24489 
20 1 3.00503 3.0053 7.7692 
21 1 3.71467 3.71511 7.06987 
31 1 0.676895 0.679284 10.1062 
32 1 2.18951 2.18862 8.58303 
33 1 1.48365 1.48346 9.29475 
16 1 4.54918 6.24369 4.55184 
17 1 3.00569 7.77075 3.00501 
18 1 3.71442 7.06995 3.71508 
25 1 0.664454 10.0999 0.681979 
26 1 2.19026 8.5853 2.18891 
27 1 1.47813 9.29211 1.48513 
4 1 4.62695 6.18199 6.18259 
5 1 3.08619 7.68439 7.68356 
6 1 3.8044 6.98103 6.98267 
37 1 0.736298 10.0381 10.0392 
38 1 2.2708 8.49694 8.49655 
39 1 1.56652 9.20439 9.20472 
13 1 6.24215 4.54839 4.55017 
14 1 7.77126 3.00534 3.00486 
15 1 7.06763 3.71275 3.7134 
28 1 10.0982 0.663479 0.678975 
29 1 8.58596 2.18944 2.18957 
30 1 9.29165 1.47755 1.48456 
1 1 6.18321 4.62483 6.18231 
2 1 7.68522 3.085 7.68506 
3 1 6.98143 3.80058 6.98204 
40 1 10.0347 0.728142 10.0369 
41 1 8.4978 2.26902 8.49776 
42 1 9.20346 1.56186 9.20492 
7 1 6.18507 6.18332 4.61909 
8 1 7.68718 7.6873 3.0816 
9 1 6.98547 6.98501 3.79965 
43 1 10.0271 10.0282 0.706177 
44 1 8.50045 8.50127 2.26606 
45 1 9.20233 9.20378 1.55046 
22 1 6.27363 6.2668 6.24853 
23 1 7.61056 7.79784 7.987 
24 1 7.05852 7.10394 7.09727 
34 1 10.1142 10.1058 10.0697 
35 1 8.80626 8.68673 8.26082 
36 1 9.41111 9.33901 9.08493 
49 2 7.80887 7.86538 10.0874 
50 3 7.04204 7.84186 9.54264 
ITEM: TIMESTEP
80
ITEM: NUMBER OF ATOMS
50
ITEM: BOX BOUNDS pp pp pp
0.0000000000000000e+00 1.1000000000000000e+01
0.0000000000000000e+00 1.1002000000000001e+01
0.0000000000000000e+00 1.1000000000000000e+01
ITEM: ATOMS id type x y z 
10 1 4.60776 4.60799 4.60783 
11 1 3.09138 3.0894 3.09004 
12 1 3.79608 3.79961 3.79747 
46 1 0.730367 0.731273 0.74245 
47 1 2.27451 2.2735 2.27435 
48 1 1.56678 1.56653 1.56978 
19 1 4.55469 4.55484 6.24678 
20 1 3.00572 3.00579 7.76824 
21 1 3.71659 3.71677 7.07082 
31 1 0.678134 0.681415 10.1093 
32 1 2.18951 2.18926 8.58262 
33 1 1.48424 1.48425 9.29546 
16 1 4.55097 6.24459 4.55343 
17 1 3.00667 7.77055 3.00568 
18 1 3.7155 7.07032 3.71605 
25 1 0.66303 10.0995 0.682097 
26 1 2.18962 8.58428 2.18924 
27 1 1.47755 9.29232 1.48667 
4 1 4.63123 6.18385 6.18311 
5 1 3.08704 7.68341 7.68356 
6 1 3.80788 6.98234 6.9829 
37 1 0.735869 10.0391 10.038 
38 1 2.27197 8.49641 8.49667 
39 1 1.56643 9.20422 9.20319 
13 1 6.24338 4.54941 4.55154 
14 1 7.77092 3.00594 3.00536 
15 1 7.06852 3.71357 3.71439 
28 1 10.0969 0.662051 0.678097 
29 1 8.58592 2.18892 2.18953 
30 1 9.29083 1.47603 1.48485 
1 1 6.18658 4.62805 6.18314 
2 1 7.68522 3.08506 7.68519 
3 1 6.98282 3.80341 6.98346 
40 1 10.0359 0.724474 10.0343 
41 1 8.49738 2.26923 8.49816 
42 1 9.20362 1.56037 9.20383 
7 1 6.18769 6.18555 4.61803 
8 1 7.68934 7.69003 3.0807 
9 1 6.98842 6.98682 3.79824 
43 1 10.0247 10.0258 0.696151 
44 1 8.50096 8.50362 2.26264 
45 1 9.20411 9.20212 1.5445 
22 1 6.28018 6.27051 6.24442 
23 1 7.58775 7.79214 8.01272 
24 1 7.0588 7.11146 7.09533 
34 1 10.1161 10.1038 10.0598 
35 1 8.80139 8.68165 8.25339 
36 1 9.41159 9.33458 9.06779 
49 2 7.79012 7.86775 10.1135 
50 3 7.0454 7.82506 9.53721 
ITEM: TIMESTEP
90
ITEM: NUMBER OF ATOMS
50
ITEM: BOX BOUNDS pp pp pp
0.0000000000000000e+00 1.1000000000000000e+01
0.0000000000000000e+00 1.1002000000000001e+01
0.0000000000000000e+00 1.1000000000000000e+01
ITEM: ATOMS id type x y z 
10 1 4.60737 4.60898 4.60812 
11 1 3.09087 3.09057 3.09028 
12 1 3.79776 3.79833 3.79788 
46 1 0.729969 0.731175 0.742284 
47 1 2.27482 2.27369 2.27379 
48 1 1.56605 1.56599 1.57117 
19 1 4.55567 4.55563 6.24751 
20 1 3.00595 3.00604 7.76825 
21 1 3.71688 3.71694 7.0708 
31 1 0.678828 0.681552 10.1102 
32 1 2.18998 2.18911 8.58241 
33 1 1.48398 1.48546 9.29561 
16 1 4.55148 6.24504 4.55366 
17 1 3.00675 7.7707 3.00578 
18 1 3.71564 7.07046 3.71609 
25 1 0.663184 10.1 0.682269 
26 1 2.18938 8.58457 2.18962 
27 1 1.47714 9.29166 1.48624 
4 1 4.63255 6.18417 6.18347 
5 1 3.08737 7.68309 7.68367 
6 1 3.80879 6.98294 6.98293 
37 1 0.735731 10.0392 10.0373 
38 1 2.27191 8.49638 8.49648 
39 1 1.56697 9.20416 9.20329 
13 1 6.24328 4.54949 4.5516 
14 1 7.77063 3.00551 3.00504 
15 1 7.06987 3.71414 3.71486 
28 1 10.0967 0.661617 0.677741 
29 1 8.58574 2.18835 2.18968 
30 1 9.29095 1.47619 1.48442 
1 1 6.18639 4.62841 6.18343 
2 1 7.6843 3.08436 7.68552 
3 1 6.98501 3.80549 6.98364 
40 1 10.0359 0.723881 10.0337 
41 1 8.49762 2.26904 8.49868 
42 1 9.20371 1.55986 9.20314 
7 1 6.18856 6.18574 4.61758 
8 1 7.69019 7.69056 3.08013 
9 1 6.98883 6.98797 3.79817 
43 1 10.0253 10.0249 0.694063 
44 1 8.50207 8.50325 2.26246 
45 1 9.20217 9.20268 1.54189 
22 1 6.2813 6.27215 6.24309 
23 1 7.58427 7.79153 8.01633 
24 1 7.05866 7.1118 7.09577 
34 1 10.1165 10.1033 10.0567 
35 1 8.79871 8.67992 8.25151 
36 1 9.41243 9.3341 9.06371 
49 2 7.78522 7.86834 10.1208 
50 3 7.04457 7.82063 9.53924 
ITEM: TIMESTEP
100
ITEM: NUMBER OF ATOMS
50
ITEM: BOX BOUNDS pp pp pp
0.0000000000000000e+00 1.1000000000000000e+01
0.0000000000000000e+00 1.1002000000000001e+01
0.0000000000000000e+00 1.1000000000000000e+01
ITEM: ATOMS id type x y z 
10 1 4.61593 4.61499 4.6157 
11 1 3.09459 3.09623 3.09543 
12 1 3.80478 3.8025 3.80145 
46 1 0.719533 0.726329 0.749476 
47 1 2.2751 2.27451 2.27606 
48 1 1.56349 1.56576 1.57928 
19 1 4.57308 4.56818 6.25681 
20 1 3.01143 3.01147 7.7637 
21 1 3.72663 3.72444 7.07344 
31 1 0.686282 0.690582 10.124 
32 1 2.19224 2.19412 8.5806 
33 1 1.4893 1.49264 9.29893 
16 1 4.5611 6.24997 4.55698 
17 1 3.00906 7.77202 3.00938 
18 1 3.71992 7.07234 3.71786 
25 1 0.658382 10.0998 0.67908 
26 1 2.18314 8.58225 2.19277 
27 1 1.4747 9.29203 1.48762 
4 1 4.65323 6.19359 6.18514 
5 1 3.09651 7.68267 7.68505 
6 1 3.82035 6.9858 6.9838 
37 1 0.735795 10.0425 10.0279 
38 1 2.277 8.49361 8.49637 
39 1 1.56956 9.20399 9.19805 
13 1 6.2494 4.55557 4.55733 
14 1 7.77265 3.00659 3.00736 
15 1 7.07346 3.71728 3.71741 
28 1 10.0905 0.65005 0.666369 
29 1 8.58072 2.17925 2.18843 
30 1 9.29489 1.47469 1.4839 
1 1 6.19847 4.64238 6.18415 
2 1 7.68371 3.08848 7.69162 
3 1 6.99705 3.81737 6.98432 
40 1 10.0399 0.708787 10.02 
41 1 8.49825 2.26731 8.50107 
42 1 9.20332 1.55167 9.19716 
7 1 6.19857 6.19416 4.60476 
8 1 7.70061 7.70776 3.07575 
9 1 7.00613 6.99136 3.78494 
43 1 10.0183 10.013 0.646461 
44 1 8.50839 8.50964 2.24373 
45 1 9.20157 9.20177 1.50841 
22 1 6.30439 6.29627 6.22459 
23 1 7.53188 7.77979 8.08987 
24 1 7.0503 7.12408 7.1078 
34 1 10.1228 10.0902 10.0001 
35 1 8.75518 8.65809 8.23269 
36 1 9.42308 9.3237 8.9861 
49 2 7.68983 7.87812 10.2526 
50 3 7.02953 7.73922 9.58019 
ITEM: TIMESTEP
110
ITEM: NUMBER OF ATOMS
50
ITEM: BOX BOUNDS pp pp pp
0.0000000000000000e+00 1.1000000000000000e+01
0.0000000000000000e+00 1.1002000000000001e+01
0.0000000000000000e+00 1.1000000000000000e+01
ITEM: ATOMS id type x y z 
10 1 4.61582 4.61505 4.61573 
11 1 3.0958 3.09597 3.09513 
12 1 3.80291 3.80283 3.80257 
46 1 0.719599 0.7254 0.750284 
47 1 2.27432 2.27373 2.2779 
48 1 1.56305 1.56702 1.5785 
19 1 4.57454 4.56871 6.25685 
20 1 3.01233 3.01249 7.76407 
21 1 3.72751 3.7249 7.0741 
31 1 0.686351 0.690935 10.1235 
32 1 2.19372 2.19522 8.58201 
33 1 1.48848 1.49359 9.29761 
16 1 4.56191 6.2495 4.55464 
17 1 3.00772 7.77234 3.00925 
18 1 3.72013 7.07432 3.71758 
25 1 0.656884 10.099 0.677081 
26 1 2.18274 8.58427 2.19256 
27 1 1.47142 9.28977 1.48692 
4 1 4.64359 6.19336 6.18258 
5 1 3.09759 7.68318 7.68551 
6 1 3.82253 6.98625 6.98449 
37 1 0.738495 10.0439 10.0267 
38 1 2.27802 8.49327 8.49634 
39 1 1.57057 9.20501 9.19758 
13 1 6.251 4.5555 4.55485 
14 1 7.77351 3.00476 3.00695 
15 1 7.07598 3.71609 3.71574 
28 1 10.0915 0.650388 0.665403 
29 1 8.58647 2.17969 2.18846 
30 1 9.28665 1.46738 1.47901 
1 1 6.19955 4.635 6.1836 
2 1 7.68634 3.09072 7.69275 
3 1 6.996 3.81583 6.98595 
40 1 10.0415 0.709254 10.0172 
41 1 8.49745 2.2661 8.50103 
42 1 9.20572 1.55164 9.19691 
7 1 6.20012 6.19223 4.59159 
8 1 7.70578 7.70757 3.0734 
9 1 7.00235 6.9968 3.78225 
43 1 10.0195 10.0127 0.643079 
44 1 8.50861 8.51081 2.23889 
45 1 9.20358 9.20249 1.50482 
22 1 6.3077 6.2977 6.22478 
23 1 7.55145 7.80156 8.1382 
24 1 7.03912 7.11364 7.09571 
34 1 10.1217 10.0876 9.99093 
35 1 8.74959 8.65803 8.23544 
36 1 9.42416 9.32751 8.98645 
49 2 7.67472 7.87787 10.2635 
50 3 7.02803 7.73007 9.58568 
ITEM: TIMESTEP
120
ITEM: NUMBER OF ATOMS
50
ITEM: BOX BOUNDS pp pp pp
0.0000000000000000e+00 1.1000000000000000e+01
0.0000000000000000e+00 1.1002000000000001e+01
0.0000000000000000e+00 1.1000000000000000e+01
ITEM: ATOMS id type x y z 
10 1 4.615 4.61464 4.61522 
11 1 3.09544 3.0956 3.09491 
12 1 3.80268 3.80252 3.80244 
46 1 0.719405 0.725658 0.749503 
47 1 2.27349 2.27379 2.27747 
48 1 1.56277 1.56563 1.57897 
19 1 4.57484 4.56887 6.25693 
20 1 3.01249 3.01261 7.7645 
21 1 3.72766 3.72499 7.07437 
31 1 0.686213 0.690765 10.1228 
32 1 2.19279 2.19533 8.58134 
33 1 1.49032 1.49392 9.29989 
16 1 4.56238 6.24986 4.55413 
17 1 3.00705 7.77286 3.0091 
18 1 3.71991 7.07488 3.71693 
25 1 0.656551 10.0992 0.676414 
26 1 2.18198 8.58446 2.19256 
27 1 1.47135 9.29002 1.48627 
4 1 4.64346 6.19249 6.18152 
5 1 3.09855 7.6837 7.68692 
6 1 3.82065 6.98671 6.9833 
37 1 0.739702 10.0443 10.0259 
38 1 2.27777 8.49346 8.49603 
39 1 1.57203 9.20541 9.19843 
13 1 6.25181 4.55589 4.55398 
14 1 7.77476 3.00366 3.00582 
15 1 7.07703 3.71481 3.7152 
28 1 10.0914 0.649651 0.664879 
29 1 8.58607 2.17885 2.18792 
30 1 9.28745 1.46703 1.47869 
1 1 6.20045 4.63514 6.18251 
2 1 7.68882 3.09175 7.69304 
3 1 6.99344 3.81329 6.98717 
40 1 10.042 0.710625 10.0163 
41 1 8.49665 2.26656 8.50046 
42 1 9.20625 1.55203 9.19667 
7 1 6.1996 6.19126 4.58917 
8 1 7.70682 7.70734 3.07172 
9 1 7.00235 6.99929 3.78182 
43 1 10.0196 10.0129 0.643293 
44 1 8.50852 8.51092 2.23781 
45 1 9.20402 9.20224 1.50398 
22 1 6.30538 6.29493 6.2207 
23 1 7.55333 7.80329 8.14507 
24 1 7.03781 7.11341 7.09996 
34 1 10.1226 10.0874 9.98982 
35 1 8.75158 8.66046 8.23526 
36 1 9.42464 9.32957 8.98889 
49 2 7.6713 7.87773 10.2681 
50 3 7.02589 7.7274 9.58791 
ITEM: TIMESTEP
130
ITEM: NUMBER OF ATOMS
50
ITEM: BOX BOUNDS pp pp pp
0.0000000000000000e+00 1.1000000000000000e+01
0.0000000000000000e+00 1.1002000000000001e+01
0.0000000000000000e+00 1.1000000000000000e+01
ITEM: ATOMS id type x y z 
10 1 4.61514 4.61452 4.61494 
11 1 3.09514 3.09545 3.09478 
12 1 3.80262 3.80211 3.80238 
46 1 0.719488 0.725682 0.749461 
47 1 2.27311 2.27354 2.27766 
48 1 1.56256 1.56559 1.57892 
19 1 4.57505 4.56877 6.25667 
20 1 3.01269 3.0128 7.76484 
21 1 3.72781 3.72514 7.07441 
31 1 0.686581 0.691096 10.1225 
32 1 2.19286 2.19559 8.58158 
33 1 1.49058 1.49402 9.30014 
16 1 4.56249 6.24986 4.5533 
17 1 3.00675 7.77316 3.00901 
18 1 3.71961 7.07523 3.71672 
25 1 0.656676 10.099 0.675938 
26 1 2.18148 8.58457 2.1923 
27 1 1.47101 9.29037 1.48611 
4 1 4.64327 6.19225 6.18061 
5 1 3.09897 7.68375 7.68716 
6 1 3.8207 6.98687 6.98306 
37 1 0.740916 10.0447 10.0255 
38 1 2.2782 8.49347 8.49609 
39 1 1.5725 9.20567 9.19829 
13 1 6.25215 4.55576 4.5534 
14 1 7.7753 3.00312 3.00571 
15 1 7.07728 3.7146 3.71475 
28 1 10.0914 0.649581 0.664415 
29 1 8.58642 2.17829 2.18757 
30 1 9.2871 1.46622 1.47802 
1 1 6.20046 4.63483 6.18189 
2 1 7.68894 3.0921 7.69333 
3 1 6.99368 3.81322 6.98693 
40 1 10.0425 0.711504 10.0157 
41 1 8.49656 2.26661 8.50045 
42 1 9.20661 1.55227 9.19642 
7 1 6.19947 6.19123 4.58841 
8 1 7.70715 7.7079 3.07126 
9 1 7.00252 6.99912 3.78053 
43 1 10.0197 10.0129 0.6432 
44 1 8.50858 8.51091 2.23695 
45 1 9.20423 9.20227 1.5032 
22 1 6.30478 6.29426 6.21968 
23 1 7.55422 7.8037 8.14877 
24 1 7.03572 7.1121 7.10246 
34 1 10.1236 10.088 9.98944 
35 1 8.75212 8.66176 8.23537 
36 1 9.42455 9.33064 8.99009 
49 2 7.66822 7.87756 10.2719 
50 3 7.02467 7.72538 9.58964 
ITEM: TIMESTEP
140
ITEM: NUMBER OF ATOMS
50
ITEM: BOX BOUNDS pp pp pp
0.0000000000000000e+00 1.1000000000000000e+01
0.0000000000000000e+00 1.1002000000000001e+01
0.0000000000000000e+00 1.1000000000000000e+01
ITEM: ATOMS id type x y z 
10 1 4.61815 4.61242 4.61161 
11 1 3.09223 3.09308 3.09503 
12 1 3.80216 3.79963 3.8006 
46 1 0.720677 0.72666 0.748581 
47 1 2.26954 2.27216 2.28008 
48 1 1.55952 1.56394 1.58083 
19 1 4.57725 4.56806 6.25171 
20 1 3.01661 3.01757 7.76859 
21 1 3.73057 3.72623 7.07331 
31 1 0.692013 0.695746 10.122 
32 1 2.19602 2.20198 8.58482 
33 1 1.49494 1.49498 9.29915 
16 1 4.56434 6.24864 4.54391 
17 1 3.00253 7.77726 3.00948 
18 1 3.7178 7.07726 3.71237 
25 1 0.658814 10.099 0.670256 
26 1 2.17579 8.58606 2.19185 
27 1 1.46828 9.29155 1.48229 
4 1 4.64537 6.19158 6.16993 
5 1 3.1064 7.68307 7.68792 
6 1 3.82286 6.9863 6.97877 
37 1 0.752994 10.0498 10.0216 
38 1 2.28358 8.49231 8.49517 
39 1 1.58297 9.20921 9.19734 
13 1 6.25441 4.55571 4.54576 
14 1 7.78036 2.99749 3.00452 
15 1 7.08153 3.71108 3.71037 
28 1 10.09 0.64778 0.657359 
29 1 8.58566 2.17008 2.18344 
30 1 9.28836 1.46153 1.47246 
1 1 6.20246 4.6362 6.17315 
2 1 7.68957 3.09763 7.69472 
3 1 6.99452 3.81386 6.98359 
40 1 10.0498 0.720619 10.0089 
41 1 8.49488 2.26881 8.49901 
42 1 9.20954 1.55713 9.19302 
7 1 6.19943 6.19026 4.58122 
8 1 7.70848 7.71004 3.06352 
9 1 7.00427 7.00004 3.77207 
43 1 10.0222 10.0135 0.638305 
44 1 8.50839 8.50956 2.22602 
45 1 9.20558 9.2021 1.49479 
22 1 6.30055 6.29132 6.21574 
23 1 7.55871 7.79943 8.18161 
24 1 7.01001 7.09604 7.13843 
34 1 10.135 10.0963 9.98424 
35 1 8.7484 8.67231 8.24263 
36 1 9.4206 9.34054 8.9999 
49 2 7.625 7.87463 10.321 
50 3 7.0149 7.70058 9.60911 
ITEM: TIMESTEP
150
ITEM: NUMBER OF ATOMS
50
ITEM: BOX BOUNDS pp pp pp
0.0000000000000000e+00 1.1000000000000000e+01
0.0000000000000000e+00 1.1002000000000001e+01
0.0000000000000000e+00 1.1000000000000000e+01
ITEM: ATOMS id type x y z 
10 1 4.61814 4.61222 4.61097 
11 1 3.09255 3.09317 3.0955 
12 1 3.80225 3.80007 3.80067 
46 1 0.720256 0.72651 0.749271 
47 1 2.26919 2.27198 2.28105 
48 1 1.56018 1.56451 1.57984 
19 1 4.57721 4.56772 6.25091 
20 1 3.01698 3.01778 7.76806 
21 1 3.7312 3.72729 7.07359 
31 1 0.692469 0.694792 10.1211 
32 1 2.19693 2.2011 8.58355 
33 1 1.49489 1.49819 9.30101 
16 1 4.56486 6.24856 4.54369 
17 1 3.00254 7.7771 3.00974 
18 1 3.71817 7.07694 3.71238 
25 1 0.658762 10.0992 0.670148 
26 1 2.17583 8.58584 2.19212 
27 1 1.46854 9.29138 1.48257 
4 1 4.6457 6.19198 6.16979 
5 1 3.10627 7.6822 7.687 
6 1 3.82487 6.9866 6.9788 
37 1 0.753555 10.0503 10.0217 
38 1 2.2853 8.49253 8.49524 
39 1 1.58203 9.2081 9.19637 
13 1 6.25464 4.55614 4.54551 
14 1 7.78018 2.99741 3.00468 
15 1 7.08144 3.71136 3.71042 
28 1 10.0908 0.648042 0.657038 
29 1 8.58589 2.17044 2.18372 
30 1 9.28719 1.46095 1.47225 
1 1 6.20283 4.63674 6.17301 
2 1 7.68869 3.09729 7.69381 
3 1 6.99495 3.81608 6.98376 
40 1 10.0501 0.720224 10.0089 
41 1 8.49491 2.26917 8.49896 
42 1 9.2095 1.55742 9.19273 
7 1 6.20014 6.1907 4.58246 
8 1 7.70799 7.70915 3.06329 
9 1 7.0037 7.0002 3.77284 
43 1 10.0224 10.0135 0.637227 
44 1 8.50844 8.50951 2.22566 
45 1 9.2054 9.2019 1.49432 
22 1 6.30107 6.2925 6.21803 
23 1 7.55668 7.79699 8.17992 
24 1 7.00982 7.09531 7.13841 
34 1 10.1345 10.0965 9.98403 
35 1 8.74544 8.67097 8.24473 
36 1 9.42009 9.33999 8.99894 
49 2 7.62262 7.87432 10.3224 
50 3 7.01592 7.70012 9.60991 
ITEM: TIMESTEP
160
ITEM: NUMBER OF ATOMS
50
ITEM: BOX BOUNDS pp pp pp
0.0000000000000000e+00 1.1000000000000000e+01
0.0000000000000000e+00 1.1002000000000001e+01
0.0000000000000000e+00 1.1000000000000000e+01
ITEM: ATOMS id type x y z 
10 1 4.61833 4.61241 4.61001 
11 1 3.09255 3.09361 3.09571 
12 1 3.80274 3.79963 3.80125 
46 1 0.720211 0.726694 0.74929 
47 1 2.26918 2.27221 2.28156 
48 1 1.56029 1.56456 1.58019 
19 1 4.57753 4.56779 6.25026 
20 1 3.01792 3.0187 7.76793 
21 1 3.73175 3.72785 7.07265 
31 1 0.6931 0.694891 10.121 
32 1 2.19774 2.20189 8.58351 
33 1 1.49549 1.49895 9.30072 
16 1 4.56569 6.24849 4.54313 
17 1 3.00259 7.77673 3.01001 
18 1 3.71855 7.07676 3.7125 
25 1 0.659307 10.0995 0.669272 
26 1 2.17624 8.58575 2.19235 
27 1 1.46807 9.29081 1.48317 
4 1 4.64635 6.19264 6.17002 
5 1 3.10711 7.68159 7.68634 
6 1 3.82574 6.98621 6.97795 
37 1 0.752731 10.0503 10.0211 
38 1 2.28578 8.49237 8.49523 
39 1 1.58335 9.20851 9.19628 
13 1 6.25503 4.55695 4.54527 
14 1 7.77983 2.99737 3.00502 
15 1 7.08124 3.71185 3.7105 
28 1 10.0912 0.648266 0.656657 
29 1 8.58572 2.17033 2.184 
30 1 9.28659 1.46094 1.47194 
1 1 6.20355 4.63786 6.1731 
2 1 7.68799 3.09802 7.69328 
3 1 6.99478 3.81683 6.98275 
40 1 10.0507 0.719589 10.0085 
41 1 8.49503 2.26972 8.49861 
42 1 9.20922 1.55801 9.19267 
7 1 6.2013 6.19155 4.58421 
8 1 7.70753 7.70863 3.06351 
9 1 7.00279 6.99939 3.77233 
43 1 10.0228 10.0133 0.63577 
44 1 8.50848 8.50939 2.22548 
45 1 9.20482 9.20129 1.49308 
22 1 6.3018 6.29386 6.22073 
23 1 7.5539 7.79371 8.17852 
24 1 7.01011 7.09492 7.13904 
34 1 10.1346 10.0967 9.9835 
35 1 8.7414 8.66919 8.24793 
36 1 9.41933 9.33941 8.99772 
49 2 7.61901 7.87391 10.3249 
50 3 7.01684 7.69911 9.61146 
ITEM: TIMESTEP
170
ITEM: NUMBER OF ATOMS
50
ITEM: BOX BOUNDS pp pp pp
0.0000000000000000e+00 1.1000000000000000e+01
0.0000000000000000e+00 1.1002000000000001e+01
0.0000000000000000e+00 1.1000000000000000e+01
ITEM: ATOMS id type x y z 
10 1 4.619 4.61235 4.60862 
11 1 3.09258 3.09326 3.09691 
12 1 3.80324 3.80049 3.80074 
46 1 0.72007 0.726694 0.749013 
47 1 2.26887 2.2721 2.28253 
48 1 1.56014 1.56499 1.58081 
19 1 4.57822 4.56805 6.24817 
20 1 3.01969 3.0206 7.76729 
21 1 3.73352 3.72934 7.07156 
31 1 0.694253 0.69547 10.1209 
32 1 2.19944 2.20401 8.58335 
33 1 1.49757 1.50052 9.30043 
16 1 4.56774 6.24864 4.54206 
17 1 3.00263 7.77591 3.01086 
18 1 3.7197 7.07618 3.71244 
25 1 0.659219 10.0998 0.668193 
26 1 2.17566 8.58523 2.19353 
27 1 1.46926 9.29055 1.48295 
4 1 4.64723 6.19358 6.1695 
5 1 3.10852 7.6807 7.68511 
6 1 3.82759 6.98571 6.97676 
37 1 0.752106 10.0508 10.0199 
38 1 2.28811 8.49219 8.49508 
39 1 1.58525 9.20861 9.19555 
13 1 6.25626 4.55897 4.54455 
14 1 7.77907 2.99703 3.00545 
15 1 7.08143 3.7126 3.71055 