ITEM: TIMESTEP
0
ITEM: NUMBER OF ATOMS
50
ITEM: BOX BOUNDS pp pp pp
0.0000000000000000e+00 1.1000000000000000e+01
0.0000000000000000e+00 1.1002000000000001e+01
0.0000000000000000e+00 1.1000000000000000e+01
ITEM: ATOMS id type x y z 
10 1 4.603 4.603 4.603 
11 1 3.085 3.085 3.085 
12 1 3.796 3.796 3.796 
46 1 0.726 0.725 0.725 
47 1 2.26 2.259 2.26 
48 1 1.551 1.55 1.55 
49 2 1.135 1.236 2.804 
50 3 1.135 1.236 3.78 
19 1 4.546 4.545 6.226 
20 1 3.013 3.013 7.764 
21 1 3.721 3.721 7.053 
31 1 0.668 0.667 10.103 
32 1 2.187 2.187 8.589 
33 1 1.476 1.475 9.298 
16 1 4.546 6.225 4.546 
17 1 3.013 7.765 3.013 
18 1 3.721 7.053 3.722 
25 1 0.668 10.103 0.668 
26 1 2.188 8.589 2.188 
27 1 1.476 9.298 1.476 
4 1 4.608 6.169 6.169 
5 1 3.086 7.684 7.684 
6 1 3.799 6.974 6.974 
37 1 0.729 10.046 10.046 
38 1 2.259 8.509 8.508 
39 1 1.552 9.219 9.219 
13 1 6.225 4.546 4.546 
14 1 7.764 3.013 3.013 
15 1 7.053 3.721 3.722 
28 1 10.102 0.667 0.668 
29 1 8.589 2.187 2.188 
30 1 9.298 1.475 1.476 
1 1 6.168 4.608 6.169 
2 1 7.684 3.086 7.684 
3 1 6.974 3.799 6.974 
40 1 10.045 0.728 10.046 
41 1 8.508 2.259 8.508 
42 1 9.218 1.551 9.218 
7 1 6.169 6.169 4.608 
8 1 7.684 7.684 3.086 
9 1 6.974 6.974 3.799 
43 1 10.046 10.047 0.729 
44 1 8.508 8.509 2.259 
45 1 9.219 9.219 1.552 
22 1 6.229 6.229 6.229 
23 1 7.764 7.765 7.765 
24 1 7.055 7.056 7.055 
34 1 10.108 10.108 10.107 
35 1 8.59 8.59 8.59 
36 1 9.301 9.301 9.3 
ITEM: TIMESTEP
10
ITEM: NUMBER OF ATOMS
50
ITEM: BOX BOUNDS pp pp pp
0.0000000000000000e+00 1.1000000000000000e+01
0.0000000000000000e+00 1.1002000000000001e+01
0.0000000000000000e+00 1.1000000000000000e+01
ITEM: ATOMS id type x y z 
10 1 4.59461 4.59471 4.59565 
11 1 3.0855 3.08383 3.078 
12 1 3.80015 3.80063 3.79939 
46 1 0.707296 0.705836 0.679269 
47 1 2.33764 2.33027 2.21389 
48 1 1.58209 1.58272 1.56955 
49 2 1.08779 1.18993 2.85672 
50 3 1.10856 1.21541 3.82379 
19 1 4.53899 4.53899 6.23858 
20 1 3.00173 3.00213 7.77332 
21 1 3.71058 3.7098 7.06694 
31 1 0.676027 0.674323 10.0985 
32 1 2.19136 2.19018 8.58261 
33 1 1.48606 1.48733 9.29165 
16 1 4.53903 6.23803 4.53975 
17 1 3.00194 7.77413 3.00273 
18 1 3.71136 7.06629 3.71089 
25 1 0.673493 10.1017 0.6775 
26 1 2.19072 8.58515 2.19256 
27 1 1.48633 9.29026 1.48323 
4 1 4.60191 6.17431 6.1741 
5 1 3.08356 7.68834 7.68863 
6 1 3.78836 6.98103 6.98029 
37 1 0.737016 10.0324 10.0341 
38 1 2.27244 8.49693 8.49564 
39 1 1.56373 9.20476 9.20544 
13 1 6.23828 4.53941 4.53948 
14 1 7.77371 3.00214 3.00259 
15 1 7.06608 3.71019 3.71048 
28 1 10.0997 0.672586 0.675326 
29 1 8.58337 2.19043 2.19113 
30 1 9.29262 1.4849 1.4867 
1 1 6.17365 4.60065 6.17359 
2 1 7.6879 3.08242 7.68765 
3 1 6.98155 3.79066 6.98197 
40 1 10.0315 0.735513 10.0339 
41 1 8.49673 2.27144 8.4957 
42 1 9.20395 1.56302 9.20583 
7 1 6.174 6.17379 4.60171 
8 1 7.6885 7.68823 3.08342 
9 1 6.98057 6.98118 3.78861 
43 1 10.0348 10.0348 0.736962 
44 1 8.49627 8.49569 2.27164 
45 1 9.20428 9.2071 1.56529 
22 1 6.23626 6.23707 6.23571 
23 1 7.7746 7.7762 7.77468 
24 1 7.06746 7.06715 7.06896 
34 1 10.0998 10.1007 10.0984 
35 1 8.58563 8.58568 8.58544 
36 1 9.29253 9.29263 9.29205 
ITEM: TIMESTEP
20
ITEM: NUMBER OF ATOMS
50
ITEM: BOX BOUNDS pp pp pp
0.0000000000000000e+00 1.1000000000000000e+01
0.0000000000000000e+00 1.1002000000000001e+01
0.0000000000000000e+00 1.1000000000000000e+01
ITEM: ATOMS id type x y z 
10 1 4.61341 4.61026 4.62217 
11 1 3.11467 3.11182 3.06893 
12 1 3.81862 3.81163 3.78221 
46 1 0.729447 0.726154 0.674753 
47 1 2.36973 2.35755 2.06066 
48 1 1.66577 1.65973 1.36657 
49 2 1.10264 1.19729 3.15322 
50 3 0.953843 1.09015 4.04009 
19 1 4.54284 4.53767 6.25417 
20 1 3.01049 3.00279 7.77508 
21 1 3.6998 3.7159 7.06103 
31 1 0.661527 0.673414 10.0724 
32 1 2.20183 2.21154 8.60116 
33 1 1.47588 1.45605 9.24097 
16 1 4.54182 6.25228 4.53472 
17 1 3.00629 7.77981 2.99477 
18 1 3.69335 7.07083 3.71431 
25 1 0.675363 10.1081 0.653849 
26 1 2.20442 8.59747 2.17109 
27 1 1.4403 9.28917 1.50748 
4 1 4.59602 6.18068 6.16963 
5 1 3.06694 7.67742 7.67127 
6 1 3.83502 6.99319 7.00171 
37 1 0.717719 9.99244 10.0191 
38 1 2.28444 8.49572 8.48998 
39 1 1.5548 9.18718 9.19884 
13 1 6.2522 4.53985 4.53966 
14 1 7.77871 3.00208 3.00277 
15 1 7.06604 3.70535 3.70458 
28 1 10.1207 0.669465 0.669996 
29 1 8.61331 2.19455 2.19698 
30 1 9.25774 1.45847 1.46033 
1 1 6.19129 4.60476 6.17658 
2 1 7.68422 3.08203 7.68157 
3 1 6.97968 3.80501 6.98314 
40 1 9.99218 0.715885 10.0248 
41 1 8.49827 2.28221 8.49813 
42 1 9.18991 1.54877 9.19177 
7 1 6.17083 6.17435 4.59616 
8 1 7.67025 7.68214 3.06991 
9 1 7.00523 6.98294 3.82844 
43 1 10.0221 10.0332 0.731889 
44 1 8.49261 8.5063 2.27804 
45 1 9.21038 9.1861 1.5503 
22 1 6.23892 6.23414 6.24548 
23 1 7.76994 7.76257 7.77752 
24 1 7.06456 7.07891 7.04925 
34 1 10.0981 10.1004 10.1025 
35 1 8.59016 8.58229 8.59004 
36 1 9.28773 9.30504 9.28992 
ITEM: TIMESTEP
30
ITEM: NUMBER OF ATOMS
50
ITEM: BOX BOUNDS pp pp pp
0.0000000000000000e+00 1.1000000000000000e+01
0.0000000000000000e+00 1.1002000000000001e+01
0.0000000000000000e+00 1.1000000000000000e+01
ITEM: ATOMS id type x y z 
10 1 4.60151 4.60392 4.60664 
11 1 3.11421 3.11021 3.03478 
12 1 3.80319 3.79701 3.77358 
46 1 0.748157 0.746433 0.679492 
47 1 2.37807 2.36717 2.06658 
48 1 1.6592 1.65013 1.37325 
49 2 1.09975 1.19445 3.15697 
50 3 0.940888 1.07886 4.06259 
19 1 4.53932 4.54021 6.23446 
20 1 3.00431 3.00911 7.77401 
21 1 3.71381 3.71323 7.06783 
31 1 0.658725 0.652738 10.0729 
32 1 2.191 2.19006 8.5901 
33 1 1.47265 1.46889 9.2712 
16 1 4.53611 6.23811 4.53673 
17 1 3.0047 7.77735 3.00014 
18 1 3.70695 7.0714 3.70811 
25 1 0.667151 10.1175 0.667003 
26 1 2.18523 8.59591 2.18138 
27 1 1.46576 9.29971 1.48348 
4 1 4.60723 6.1779 6.16878 
5 1 3.08684 7.68483 7.6829 
6 1 3.8056 6.9823 6.98068 
37 1 0.722654 10.0133 10.0283 
38 1 2.26463 8.4976 8.49805 
39 1 1.56262 9.1979 9.20143 
13 1 6.2381 4.53675 4.53518 
14 1 7.77766 3.00079 3.00145 
15 1 7.07523 3.70955 3.70896 
28 1 10.1166 0.669082 0.667707 
29 1 8.59715 2.1836 2.18549 
30 1 9.29238 1.47011 1.47286 
1 1 6.182 4.59973 6.16556 
2 1 7.68899 3.08567 7.67905 
3 1 6.97319 3.80331 6.98675 
40 1 10.0135 0.723224 10.0287 
41 1 8.49825 2.26975 8.49804 
42 1 9.194 1.55855 9.20105 
7 1 6.17345 6.17314 4.60221 
8 1 7.68496 7.68744 3.08701 
9 1 6.98275 6.97897 3.80121 
43 1 10.038 10.0374 0.73872 
44 1 8.49675 8.49938 2.26563 
45 1 9.20593 9.2016 1.55983 
22 1 6.24381 6.24391 6.2373 
23 1 7.77324 7.77226 7.77262 
24 1 7.06557 7.06878 7.06231 
34 1 10.0917 10.0948 10.0958 
35 1 8.586 8.58845 8.58658 
36 1 9.29262 9.29041 9.29865 
ITEM: TIMESTEP
40
ITEM: NUMBER OF ATOMS
50
ITEM: BOX BOUNDS pp pp pp
0.0000000000000000e+00 1.1000000000000000e+01
0.0000000000000000e+00 1.1002000000000001e+01
0.0000000000000000e+00 1.1000000000000000e+01
ITEM: ATOMS id type x y z 
10 1 4.59929 4.60022 4.60288 
11 1 3.11431 3.10785 3.02604 
12 1 3.80196 3.7999 3.76625 
46 1 0.746726 0.745531 0.680001 
47 1 2.37973 2.36837 2.06443 
48 1 1.66226 1.6533 1.37859 
49 2 1.09745 1.19245 3.16545 
50 3 0.935144 1.07373 4.0688 
19 1 4.53977 4.53888 6.2341 
20 1 3.00373 3.00703 7.77736 
21 1 3.70999 3.71121 7.068 
31 1 0.659742 0.654934 10.0715 
32 1 2.18909 2.18806 8.58453 
33 1 1.47567 1.47295 9.27729 
16 1 4.53648 6.23638 4.53579 
17 1 3.00217 7.77974 2.99894 
18 1 3.70668 7.07125 3.70509 
25 1 0.669456 10.1185 0.672488 
26 1 2.18126 8.59216 2.1857 
27 1 1.47756 9.30494 1.48032 
4 1 4.60551 6.17878 6.16833 
5 1 3.08942 7.68617 7.6855 
6 1 3.79923 6.98167 6.9768 
37 1 0.726041 10.0177 10.0308 
38 1 2.27096 8.49395 8.49393 
39 1 1.55899 9.19548 9.20158 
13 1 6.23759 4.5374 4.53497 
14 1 7.78113 3.00035 3.00105 
15 1 7.07275 3.70666 3.70612 
28 1 10.1163 0.671502 0.668731 
29 1 8.59087 2.18085 2.18435 
30 1 9.30311 1.47796 1.4774 
1 1 6.17655 4.60259 6.16754 
2 1 7.68616 3.08856 7.68657 
3 1 6.98099 3.79558 6.97571 
40 1 10.0166 0.725373 10.0312 
41 1 8.49482 2.27249 8.49502 
42 1 9.19503 1.55777 9.20123 
7 1 6.17175 6.17139 4.59914 
8 1 7.6873 7.68821 3.0882 
9 1 6.98048 6.97953 3.7953 
43 1 10.0389 10.0386 0.741404 
44 1 8.49532 8.49565 2.26575 
45 1 9.20538 9.20513 1.56497 
22 1 6.24211 6.24142 6.23502 
23 1 7.77481 7.77563 7.77421 
24 1 7.06898 7.06879 7.06535 
34 1 10.0936 10.0947 10.1013 
35 1 8.58341 8.58305 8.58568 
36 1 9.28946 9.29263 9.29336 
ITEM: TIMESTEP
50
ITEM: NUMBER OF ATOMS
50
ITEM: BOX BOUNDS pp pp pp
0.0000000000000000e+00 1.1000000000000000e+01
0.0000000000000000e+00 1.1002000000000001e+01
0.0000000000000000e+00 1.1000000000000000e+01
ITEM: ATOMS id type x y z 
10 1 4.59647 4.5973 4.60122 
11 1 3.11609 3.11009 3.02005 
12 1 3.80515 3.80227 3.75901 
46 1 0.748254 0.747239 0.683885 
47 1 2.38197 2.36994 2.06119 
48 1 1.66136 1.6524 1.38103 
49 2 1.09497 1.19028 3.17442 
50 3 0.928123 1.06747 4.07684 
19 1 4.53801 4.53793 6.23266 
20 1 3.00427 3.00729 7.77733 
21 1 3.71005 3.71108 7.06714 
31 1 0.660975 0.656042 10.0709 
32 1 2.18853 2.18711 8.5831 
33 1 1.47493 1.4735 9.27748 
16 1 4.53543 6.23512 4.53376 
17 1 3.00174 7.77983 2.99941 
18 1 3.70665 7.07004 3.7044 
25 1 0.673893 10.1197 0.673441 
26 1 2.18198 8.59301 2.18632 
27 1 1.47821 9.30548 1.48035 
4 1 4.60459 6.17765 6.1669 
5 1 3.0903 7.68611 7.6854 
6 1 3.79817 6.98112 6.97537 
37 1 0.726746 10.0185 10.0322 
38 1 2.26987 8.49416 8.49486 
39 1 1.5589 9.19633 9.20292 
13 1 6.23595 4.53598 4.53313 
14 1 7.78134 3.00028 3.00125 
15 1 7.07104 3.70615 3.70531 
28 1 10.1183 0.674732 0.670627 
29 1 8.59174 2.18171 2.1847 
30 1 9.30392 1.47824 1.47835 
1 1 6.17664 4.60121 6.16581 
2 1 7.68546 3.08898 7.68474 
3 1 6.98004 3.79721 6.97576 
40 1 10.018 0.725377 10.0318 
41 1 8.49476 2.2702 8.49568 
42 1 9.19642 1.55952 9.20318 
7 1 6.17104 6.17083 4.59726 
8 1 7.68769 7.68833 3.08831 
9 1 6.97919 6.97861 3.79286 
43 1 10.041 10.0417 0.74361 
44 1 8.49698 8.497 2.26478 
45 1 9.20728 9.20774 1.56533 
22 1 6.2405 6.23975 6.23387 
23 1 7.77271 7.77369 7.7721 
24 1 7.06763 7.06689 7.06352 
34 1 10.0941 10.0955 10.1039 
35 1 8.58407 8.58538 8.58598 
36 1 9.29064 9.29085 9.29654 
ITEM: TIMESTEP
60
ITEM: NUMBER OF ATOMS
50
ITEM: BOX BOUNDS pp pp pp
0.0000000000000000e+00 1.1000000000000000e+01
0.0000000000000000e+00 1.1002000000000001e+01
0.0000000000000000e+00 1.1000000000000000e+01
ITEM: ATOMS id type x y z 
10 1 4.5956 4.59615 4.6004 
11 1 3.1173 3.11125 3.01644 
12 1 3.80672 3.80376 3.75525 
46 1 0.74895 0.747824 0.685079 
47 1 2.3834 2.37115 2.05984 
48 1 1.66127 1.65221 1.38255 
49 2 1.09359 1.18909 3.17957 
50 3 0.924172 1.06394 4.08127 
19 1 4.53747 4.53743 6.2319 
20 1 3.00439 3.007 7.77768 
21 1 3.70955 3.71093 7.06671 
31 1 0.660683 0.656748 10.071 
32 1 2.18811 2.1873 8.58234 
33 1 1.47533 1.47309 9.27698 
16 1 4.53518 6.23439 4.53277 
17 1 3.00149 7.77989 2.99943 
18 1 3.70625 7.06967 3.70407 
25 1 0.675461 10.1202 0.67366 
26 1 2.18248 8.59315 2.18686 
27 1 1.47916 9.30579 1.48069 
4 1 4.60381 6.17718 6.16605 
5 1 3.09032 7.68633 7.68533 
6 1 3.79767 6.98094 6.97523 
37 1 0.726992 10.0192 10.0329 
38 1 2.2697 8.49395 8.49509 
39 1 1.5593 9.19628 9.20307 
13 1 6.23498 4.53547 4.5323 
14 1 7.78119 3.00024 3.0013 
15 1 7.0706 3.70578 3.70487 
28 1 10.1189 0.675894 0.671241 
29 1 8.59186 2.18212 2.18532 
30 1 9.30452 1.47924 1.47872 
1 1 6.17621 4.60146 6.16521 
2 1 7.68572 3.08927 7.6853 
3 1 6.98015 3.79598 6.97476 
40 1 10.0192 0.725825 10.0324 
41 1 8.49439 2.27041 8.49579 
42 1 9.19651 1.5592 9.20332 
7 1 6.17053 6.17008 4.59587 
8 1 7.68794 7.68828 3.08756 
9 1 6.97916 6.97912 3.79208 
43 1 10.0421 10.0433 0.744759 
44 1 8.49755 8.49757 2.26484 
45 1 9.20784 9.20838 1.5658 
22 1 6.23975 6.2386 6.23275 
23 1 7.77291 7.77355 7.77196 
24 1 7.06722 7.06699 7.06345 
34 1 10.0944 10.0955 10.1057 
35 1 8.58395 8.58493 8.58604 
36 1 9.29008 9.29099 9.2965 
ITEM: TIMESTEP
70
ITEM: NUMBER OF ATOMS
50
ITEM: BOX BOUNDS pp pp pp
0.0000000000000000e+00 1.1000000000000000e+01
0.0000000000000000e+00 1.1002000000000001e+01
0.0000000000000000e+00 1.1000000000000000e+01
ITEM: ATOMS id type x y z 
10 1 4.59556 4.59612 4.60037 
11 1 3.11737 3.11132 3.01629 
12 1 3.80679 3.80383 3.75511 
46 1 0.748987 0.747847 0.685114 
47 1 2.38346 2.3712 2.05979 
48 1 1.66125 1.65219 1.3826 
49 2 1.09353 1.18904 3.17979 
50 3 0.924001 1.06379 4.08146 
19 1 4.53744 4.53742 6.23188 
20 1 3.0044 3.007 7.77768 
21 1 3.70953 3.71092 7.06669 
31 1 0.660683 0.656755 10.071 
32 1 2.1881 2.18729 8.5823 
33 1 1.47533 1.47308 9.27698 
16 1 4.53516 6.23437 4.53275 
17 1 3.00146 7.7799 2.99942 
18 1 3.70629 7.06963 3.70408 
25 1 0.6755 10.1202 0.673653 
26 1 2.18249 8.59316 2.18689 
27 1 1.47921 9.30581 1.48069 
4 1 4.60379 6.17715 6.16602 
5 1 3.0903 7.68632 7.68532 
6 1 3.79768 6.98097 6.97522 
37 1 0.726978 10.0192 10.0329 
38 1 2.26968 8.49395 8.49507 
39 1 1.55933 9.19628 9.20316 
13 1 6.23495 4.53545 4.53226 
14 1 7.7812 3.00022 3.00127 
15 1 7.07059 3.70577 3.70487 
28 1 10.1189 0.675947 0.671262 
29 1 8.59188 2.18215 2.18534 
30 1 9.30452 1.47924 1.47875 
1 1 6.17619 4.60144 6.16519 
2 1 7.68571 3.08924 7.68528 
3 1 6.98017 3.79603 6.97479 
40 1 10.0192 0.725838 10.0324 
41 1 8.4944 2.27038 8.49581 
42 1 9.19649 1.55923 9.20332 
7 1 6.17052 6.17008 4.59584 
8 1 7.68795 7.68828 3.08752 
9 1 6.97916 6.97913 3.79206 
43 1 10.0422 10.0433 0.744795 
44 1 8.49757 8.49759 2.26484 
45 1 9.20787 9.20842 1.56583 
22 1 6.23973 6.23857 6.23271 
23 1 7.77288 7.7735 7.77191 
24 1 7.0672 7.06701 7.06345 
34 1 10.0944 10.0954 10.1058 
35 1 8.58396 8.58491 8.58606 
36 1 9.29005 9.29102 9.29649 
ITEM: TIMESTEP
78
ITEM: NUMBER OF ATOMS
50
ITEM: BOX BOUNDS pp pp pp
0.0000000000000000e+00 1.1000000000000000e+01
0.0000000000000000e+00 1.1002000000000001e+01
0.0000000000000000e+00 1.1000000000000000e+01
ITEM: ATOMS id type x y z 
10 1 4.59555 4.59612 4.60037 
11 1 3.11738 3.11133 3.01627 
12 1 3.8068 3.80384 3.7551 
46 1 0.74899 0.747849 0.685117 
47 1 2.38346 2.3712 2.05978 
48 1 1.66125 1.65218 1.38261 
49 2 1.09353 1.18903 3.17981 
50 3 0.923985 1.06378 4.08147 
19 1 4.53744 4.53742 6.23187 
20 1 3.0044 3.007 7.77768 
21 1 3.70953 3.71092 7.06669 
31 1 0.660683 0.656756 10.071 
32 1 2.18809 2.18729 8.5823 
33 1 1.47534 1.47308 9.27697 
16 1 4.53516 6.23437 4.53274 
17 1 3.00145 7.7799 2.99942 
18 1 3.70629 7.06963 3.70408 
25 1 0.675504 10.1202 0.673652 
26 1 2.18249 8.59316 2.18689 
27 1 1.47921 9.30582 1.48069 
4 1 4.60379 6.17715 6.16602 
5 1 3.0903 7.68632 7.68532 
6 1 3.79768 6.98096 6.97522 
37 1 0.726978 10.0193 10.0329 
38 1 2.26968 8.49395 8.49507 
39 1 1.55933 9.19628 9.20316 
13 1 6.23495 4.53545 4.53226 
14 1 7.7812 3.00022 3.00127 
15 1 7.07059 3.70577 3.70487 
28 1 10.1189 0.675954 0.671265 
29 1 8.59188 2.18216 2.18534 
30 1 9.30451 1.47924 1.47875 
1 1 6.17619 4.60144 6.16519 
2 1 7.68571 3.08923 7.68528 
3 1 6.98017 3.79603 6.97479 
40 1 10.0193 0.72584 10.0324 
41 1 8.4944 2.27038 8.49581 
42 1 9.19649 1.55923 9.20332 
7 1 6.17052 6.17008 4.59584 
8 1 7.68795 7.68828 3.08752 
9 1 6.97916 6.97913 3.79206 
43 1 10.0422 10.0433 0.7448 
44 1 8.49757 8.4976 2.26484 
45 1 9.20787 9.20842 1.56583 
22 1 6.23973 6.23857 6.2327 
23 1 7.77288 7.7735 7.77191 
24 1 7.0672 7.067 7.06345 
34 1 10.0944 10.0954 10.1058 
35 1 8.58396 8.5849 8.58606 
36 1 9.29005 9.29102 9.29649 
ITEM: TIMESTEP
79
ITEM: NUMBER OF ATOMS
50
ITEM: BOX BOUNDS pp pp pp
0.0000000000000000e+00 1.1000000000000000e+01
0.0000000000000000e+00 1.1002000000000001e+01
0.0000000000000000e+00 1.1000000000000000e+01
ITEM: ATOMS id type x y z 
10 1 4.59555 4.59612 4.60037 
11 1 3.11738 3.11133 3.01627 
12 1 3.8068 3.80384 3.7551 
46 1 0.74899 0.747849 0.685117 
47 1 2.38346 2.3712 2.05978 
48 1 1.66125 1.65218 1.38261 
49 2 1.09353 1.18903 3.17981 
50 3 0.923985 1.06378 4.08147 
19 1 4.53744 4.53742 6.23187 
20 1 3.0044 3.007 7.77768 
21 1 3.70953 3.71092 7.06669 
31 1 0.660683 0.656756 10.071 
32 1 2.18809 2.18729 8.5823 
33 1 1.47534 1.47308 9.27697 
16 1 4.53516 6.23437 4.53274 
17 1 3.00145 7.7799 2.99942 
18 1 3.70629 7.06963 3.70408 
25 1 0.675504 10.1202 0.673652 
26 1 2.18249 8.59316 2.18689 
27 1 1.47921 9.30582 1.48069 
4 1 4.60379 6.17715 6.16602 
5 1 3.0903 7.68632 7.68532 
6 1 3.79768 6.98096 6.97522 
37 1 0.726978 10.0193 10.0329 
38 1 2.26968 8.49395 8.49507 
39 1 1.55933 9.19628 9.20316 
13 1 6.23495 4.53545 4.53226 
14 1 7.7812 3.00022 3.00127 
15 1 7.07059 3.70577 3.70487 
28 1 10.1189 0.675954 0.671265 
29 1 8.59188 2.18216 2.18534 
30 1 9.30451 1.47924 1.47875 
1 1 6.17619 4.60144 6.16519 
2 1 7.68571 3.08923 7.68527 
3 1 6.98017 3.79603 6.97479 
40 1 10.0193 0.72584 10.0324 
41 1 8.4944 2.27038 8.49581 
42 1 9.19649 1.55923 9.20332 
7 1 6.17052 6.17008 4.59584 
8 1 7.68795 7.68828 3.08752 
9 1 6.97916 6.97913 3.79206 
43 1 10.0422 10.0433 0.7448 
44 1 8.49757 8.4976 2.26484 
45 1 9.20787 9.20842 1.56583 
22 1 6.23973 6.23857 6.2327 
23 1 7.77288 7.7735 7.77191 
24 1 7.0672 7.067 7.06345 
34 1 10.0944 10.0954 10.1058 
35 1 8.58396 8.5849 8.58606 
36 1 9.29005 9.29102 9.29649 
ITEM: TIMESTEP
80
ITEM: NUMBER OF ATOMS
50
ITEM: BOX BOUNDS pp pp pp
-5.1804177713864912e-04 1.1000518041777138e+01
-5.1713390045083089e-04 1.1002517133900451e+01
-5.5000000000000003e-04 1.1000550000000000e+01
ITEM: ATOMS id type x y z 
10 1 4.59547 4.59603 4.60028 
11 1 3.11715 3.1111 3.01603 
12 1 3.80664 3.80368 3.75492 
46 1 0.748543 0.747402 0.684636 
47 1 2.38317 2.37091 2.05944 
48 1 1.66089 1.65182 1.3822 
49 2 1.09311 1.18863 3.17958 
50 3 0.923553 1.06336 4.08133 
19 1 4.53735 4.53733 6.23195 
20 1 3.00417 3.00676 7.77791 
21 1 3.70936 3.71075 7.06684 
31 1 0.660226 0.656301 10.0714 
32 1 2.18778 2.18698 8.58261 
33 1 1.47496 1.4727 9.27735 
16 1 4.53507 6.23444 4.53265 
17 1 3.00122 7.78012 2.99917 
18 1 3.70612 7.06978 3.7039 
25 1 0.67505 10.1207 0.67317 
26 1 2.18218 8.59345 2.18656 
27 1 1.47883 9.30617 1.48029 
4 1 4.60371 6.17722 6.16608 
5 1 3.09007 7.68653 7.68554 
6 1 3.79752 6.9811 6.97537 
37 1 0.726528 10.0197 10.0333 
38 1 2.26937 8.49423 8.49537 
39 1 1.55896 9.19663 9.20353 
13 1 6.23502 4.53536 4.53216 
14 1 7.78141 2.99998 3.00102 
15 1 7.07074 3.7056 3.70469 
28 1 10.1193 0.675501 0.670782 
29 1 8.59218 2.18185 2.18501 
30 1 9.30487 1.47886 1.47835 
1 1 6.17626 4.60136 6.16525 
2 1 7.68591 3.08901 7.68549 
3 1 6.98031 3.79587 6.97494 
40 1 10.0197 0.725391 10.0329 
41 1 8.49468 2.27008 8.49611 
42 1 9.19684 1.55886 9.20369 
7 1 6.17059 6.17014 4.59575 
8 1 7.68816 7.68848 3.08728 
9 1 6.9793 6.97927 3.79189 
43 1 10.0426 10.0437 0.744324 
44 1 8.49786 8.49788 2.26452 
45 1 9.20822 9.20877 1.56543 
22 1 6.2398 6.23864 6.23278 
23 1 7.77309 7.77371 7.77214 
24 1 7.06735 7.06715 7.06361 
34 1 10.0948 10.0959 10.1063 
35 1 8.58425 8.58519 8.58637 
36 1 9.2904 9.29138 9.29687 
ITEM: TIMESTEP
90
ITEM: NUMBER OF ATOMS
50
ITEM: BOX BOUNDS pp pp pp
-2.2991069552299971e-03 1.1002299106955229e+01
-2.1986436283485283e-03 1.1004198643628351e+01
-6.0499999999999998e-03 1.1006050000000005e+01
ITEM: ATOMS id type x y z 
10 1 4.59544 4.59603 4.59965 
11 1 3.11651 3.1105 3.01351 
12 1 3.80603 3.80309 3.75303 
46 1 0.746803 0.745738 0.679534 
47 1 2.38206 2.36986 2.05586 
48 1 1.65945 1.65045 1.378 
49 2 1.09165 1.18728 3.17739 
50 3 0.921972 1.06191 4.08002 
19 1 4.53726 4.53725 6.23242 
20 1 3.00348 3.00611 7.78008 
21 1 3.70895 3.71037 7.06822 
31 1 0.658387 0.654559 10.0763 
32 1 2.18662 2.18589 8.58576 
33 1 1.47375 1.47155 9.28102 
16 1 4.53499 6.23442 4.5319 
17 1 3.00051 7.7807 2.99678 
18 1 3.70571 7.07008 3.70227 
25 1 0.673232 10.1224 0.668055 
26 1 2.18104 8.59448 2.18318 
27 1 1.47763 9.30725 1.47637 
4 1 4.6037 6.17713 6.16645 
5 1 3.08937 7.68712 7.68763 
6 1 3.79687 6.98164 6.97694 
37 1 0.724762 10.0213 10.0381 
38 1 2.26821 8.49526 8.49849 
39 1 1.55751 9.19792 9.20741 
13 1 6.23501 4.53528 4.53142 
14 1 7.78204 2.99932 2.99863 
15 1 7.07107 3.70522 3.70306 
28 1 10.1211 0.673766 0.665676 
29 1 8.59327 2.18077 2.18163 
30 1 9.30602 1.47774 1.47443 
1 1 6.17618 4.60137 6.16562 
2 1 7.68654 3.08835 7.68759 
3 1 6.98089 3.79525 6.9765 
40 1 10.0214 0.723713 10.0376 
41 1 8.49576 2.26897 8.49923 
42 1 9.1982 1.55748 9.20756 
7 1 6.17052 6.17006 4.59511 
8 1 7.68879 7.68907 3.08493 
9 1 6.97987 6.97982 3.79007 
43 1 10.0443 10.0454 0.73935 
44 1 8.49896 8.49892 2.26118 
45 1 9.2096 9.21009 1.56134 
22 1 6.23979 6.23862 6.23326 
23 1 7.7737 7.77428 7.77428 
24 1 7.06769 7.06746 7.06499 
34 1 10.0966 10.0975 10.1112 
35 1 8.58533 8.58622 8.58954 
36 1 9.29153 9.29244 9.30057 
ITEM: TIMESTEP
100
ITEM: NUMBER OF ATOMS
50
ITEM: BOX BOUNDS pp pp pp
-1.7849249156222796e-03 1.1001784924915620e+01
-1.5149359971096334e-03 1.1003514935997112e+01
-1.1550000000000000e-02 1.1011550000000010e+01
ITEM: ATOMS id type x y z 
10 1 4.59599 4.5966 4.59921 
11 1 3.11699 3.11104 3.01095 
12 1 3.80605 3.80318 3.75099 
46 1 0.746909 0.745973 0.674219 
47 1 2.38207 2.36996 2.05209 
48 1 1.65961 1.65073 1.37391 
49 2 1.092 1.18776 3.17534 
50 3 0.922214 1.0623 4.07878 
19 1 4.53772 4.53777 6.23268 
20 1 3.00404 3.00675 7.78202 
21 1 3.70929 3.71074 7.06959 
31 1 0.658366 0.654694 10.0814 
32 1 2.18678 2.18615 8.58893 
33 1 1.47429 1.47224 9.28465 
16 1 4.53548 6.2339 4.53133 
17 1 3.00105 7.78009 2.9946 
18 1 3.70603 7.0697 3.70064 
25 1 0.673233 10.1223 0.662731 
26 1 2.18124 8.59424 2.17976 
27 1 1.47822 9.30663 1.47251 
4 1 4.60426 6.17652 6.16658 
5 1 3.08972 7.68671 7.68967 
6 1 3.79686 6.98162 6.97858 
37 1 0.724813 10.0212 10.0431 
38 1 2.26818 8.49519 8.50182 
39 1 1.55773 9.19764 9.21129 
13 1 6.23451 4.53579 4.53085 
14 1 7.78149 2.99994 2.99644 
15 1 7.07073 3.70559 3.70143 
28 1 10.1212 0.673925 0.660362 
29 1 8.59313 2.18108 2.17821 
30 1 9.30551 1.47843 1.47058 
1 1 6.1756 4.60197 6.16577 
2 1 7.6862 3.08877 7.68964 
3 1 6.98092 3.7953 6.97813 
40 1 10.0214 0.723915 10.0426 
41 1 8.49579 2.26904 8.50257 
42 1 9.19804 1.55781 9.21144 
7 1 6.16996 6.16948 4.59468 
8 1 7.68846 7.68867 3.08261 
9 1 6.97989 6.97981 3.78816 
43 1 10.0443 10.0453 0.734195 
44 1 8.49903 8.49891 2.25763 
45 1 9.20945 9.20983 1.55726 
22 1 6.23927 6.23809 6.23353 
23 1 7.77314 7.77365 7.7762 
24 1 7.06736 7.06708 7.06637 
34 1 10.0967 10.0975 10.1163 
35 1 8.58517 8.58597 8.59277 
36 1 9.291 9.29178 9.30422 
ITEM: TIMESTEP
110
ITEM: NUMBER OF ATOMS
50
ITEM: BOX BOUNDS pp pp pp
-1.7379459180023506e-03 1.1001737945918000e+01
-1.3068779746691463e-03 1.1003306877974671e+01
-1.6855214451225793e-02 1.1016855214451240e+01
ITEM: ATOMS id type x y z 
10 1 4.59645 4.59708 4.5988 
11 1 3.11727 3.11138 3.00845 
12 1 3.80595 3.80312 3.749 
46 1 0.746625 0.745809 0.669063 
47 1 2.38176 2.36973 2.04839 
48 1 1.65952 1.65074 1.37005 
49 2 1.09196 1.18786 3.17342 
50 3 0.922045 1.06228 4.07759 
19 1 4.53812 4.53819 6.23288 
20 1 3.00447 3.00724 7.78382 
21 1 3.70939 3.71091 7.07096 
31 1 0.657936 0.65442 10.0863 
32 1 2.18666 2.18613 8.59196 
33 1 1.4745 1.47258 9.28817 
16 1 4.53589 6.23343 4.53081 
17 1 3.00145 7.7796 2.99258 
18 1 3.70614 7.06952 3.69901 
25 1 0.672861 10.1225 0.657572 
26 1 2.1812 8.59429 2.17647 
27 1 1.47842 9.30631 1.4688 
4 1 4.60475 6.17598 6.16671 
5 1 3.08988 7.6865 7.69166 
6 1 3.79668 6.98173 6.98012 
37 1 0.724447 10.0215 10.0479 
38 1 2.2678 8.49545 8.50513 
39 1 1.55768 9.19764 9.21497 
13 1 6.23406 4.53623 4.53034 
14 1 7.78107 3.00042 2.99441 
15 1 7.07059 3.70574 3.6998 
28 1 10.1216 0.673682 0.655221 
29 1 8.59327 2.18112 2.17492 
30 1 9.30531 1.47877 1.46686 
1 1 6.1751 4.6025 6.16589 
2 1 7.68607 3.08899 7.69161 
3 1 6.98105 3.79516 6.9797 
40 1 10.0218 0.723689 10.0474 
41 1 8.49613 2.26874 8.50587 
42 1 9.19814 1.55788 9.21514 
7 1 6.16946 6.16898 4.59428 
8 1 7.68832 7.68847 3.08037 
9 1 6.98005 6.9799 3.78631 
43 1 10.0447 10.0455 0.729188 
44 1 8.49943 8.49922 2.25414 
45 1 9.20957 9.20982 1.55337 
22 1 6.23882 6.23761 6.23374 
23 1 7.77271 7.77313 7.77797 
24 1 7.06723 7.06692 7.06775 
34 1 10.0971 10.0978 10.1213 
35 1 8.58527 8.58596 8.59588 
36 1 9.29078 9.29148 9.30773 
ITEM: TIMESTEP
120
ITEM: NUMBER OF ATOMS
50
ITEM: BOX BOUNDS pp pp pp
-1.6241994096870868e-03 1.1001624199409683e+01
-1.0034093892500847e-03 1.1003003409389253e+01
-2.2055241587814110e-02 1.1022055241587832e+01
ITEM: ATOMS id type x y z 
10 1 4.59701 4.59765 4.59849 
11 1 3.11768 3.11185 3.00589 
12 1 3.80583 3.80308 3.74698 
46 1 0.746333 0.745657 0.663856 
47 1 2.38141 2.36948 2.04467 
48 1 1.65945 1.6508 1.36636 
49 2 1.09193 1.188 3.17169 
50 3 0.921846 1.06226 4.07648 
19 1 4.53862 4.53874 6.2329 
20 1 3.00505 3.00789 7.78545 
21 1 3.70952 3.7111 7.07227 
31 1 0.657489 0.654165 10.0913 
32 1 2.18657 2.18615 8.59496 
33 1 1.47478 1.47301 9.29152 
16 1 4.53641 6.23283 4.53043 
17 1 3.00199 7.77894 2.99072 
18 1 3.70626 7.06932 3.69744 
25 1 0.672446 10.1228 0.652391 
26 1 2.18114 8.59428 2.17322 
27 1 1.47879 9.30594 1.46521 
4 1 4.60533 6.17533 6.1667 
5 1 3.09009 7.68623 7.69358 
6 1 3.79645 6.98185 6.98165 
37 1 0.724044 10.0218 10.0527 
38 1 2.26734 8.49578 8.5085 
39 1 1.55766 9.19755 9.21861 
13 1 6.23348 4.53678 4.52997 
14 1 7.7805 3.00106 2.99253 
15 1 7.07042 3.70592 3.69822 
28 1 10.122 0.673455 0.65007 
29 1 8.59342 2.18121 2.1717 
30 1 9.305 1.47922 1.46324 
1 1 6.17449 4.60312 6.16587 
2 1 7.68589 3.08928 7.69352 
3 1 6.98122 3.79502 6.98127 
40 1 10.0223 0.72346 10.0523 
41 1 8.49657 2.26839 8.50924 
42 1 9.19818 1.55799 9.21878 
7 1 6.16888 6.16838 4.59401 
8 1 7.68814 7.68821 3.0782 
9 1 6.98021 6.98001 3.78441 
43 1 10.0452 10.0459 0.724141 
44 1 8.49992 8.49962 2.2506 
45 1 9.20965 9.20978 1.54957 
22 1 6.23822 6.23701 6.23379 
23 1 7.77212 7.77248 7.77957 
24 1 7.06708 7.06669 7.06908 
34 1 10.0976 10.0981 10.1263 
35 1 8.58533 8.58596 8.59894 
36 1 9.2905 9.29098 9.31117 
ITEM: TIMESTEP
130
ITEM: NUMBER OF ATOMS
50
ITEM: BOX BOUNDS pp pp pp
-2.2547153595730359e-03 1.1002254715359570e+01
-1.4836462610630363e-03 1.1003483646261065e+01
-2.6309734423936373e-02 1.1026309734423958e+01
ITEM: ATOMS id type x y z 
10 1 4.59732 4.598 4.59828 
11 1 3.11771 3.11197 3.00376 
12 1 3.80558 3.80283 3.74521 
46 1 0.745449 0.744881 0.659516 
47 1 2.38068 2.36884 2.04159 
48 1 1.65886 1.65031 1.36339 
49 2 1.0913 1.18751 3.1704 
50 3 0.921017 1.06159 4.07561 
19 1 4.53893 4.53908 6.23282 
20 1 3.00525 3.00814 7.78674 
21 1 3.70939 3.71101 7.07332 
31 1 0.656474 0.653315 10.0953 
32 1 2.18604 2.18573 8.59742 
33 1 1.47451 1.47283 9.29423 
16 1 4.53676 6.23239 4.5302 
17 1 3.00215 7.77867 2.98925 
18 1 3.70613 7.06933 3.69614 
25 1 0.671498 10.1236 0.648122 
26 1 2.1807 8.59475 2.17059 
27 1 1.47854 9.30604 1.46225 
4 1 4.60566 6.17488 6.16661 
5 1 3.08991 7.6863 7.69509 
6 1 3.79609 6.98214 6.98301 
37 1 0.723047 10.0227 10.0568 
38 1 2.26651 8.4965 8.5113 
39 1 1.55712 9.19795 9.22162 
13 1 6.23304 4.53713 4.52974 
14 1 7.78027 3.00128 2.99105 
15 1 7.07048 3.70585 3.69692 
28 1 10.1229 0.672615 0.645792 
29 1 8.59392 2.18083 2.16903 
30 1 9.30532 1.47911 1.46037 
1 1 6.17405 4.6035 6.16581 
2 1 7.686 3.08917 7.69506 
3 1 6.98159 3.7947 6.98259 
40 1 10.0234 0.722604 10.0563 
41 1 8.49736 2.26763 8.51204 
42 1 9.19869 1.55755 9.22177 
7 1 6.16845 6.16793 4.59376 
8 1 7.68824 7.68826 3.07636 
9 1 6.9806 6.98037 3.78292 
43 1 10.0463 10.0468 0.719954 
44 1 8.50079 8.5004 2.24768 
45 1 9.21021 9.21025 1.54642 
22 1 6.23779 6.23653 6.23376 
23 1 7.7719 7.77215 7.78086 
24 1 7.06714 7.06678 7.07009 
34 1 10.0986 10.099 10.1305 
35 1 8.58582 8.58633 8.60148 
36 1 9.29071 9.29115 9.31394 
ITEM: TIMESTEP
140
ITEM: NUMBER OF ATOMS
50
ITEM: BOX BOUNDS pp pp pp
-3.1458046520976839e-03 1.1003145804652091e+01
-2.2307209134548749e-03 1.1004230720913457e+01
-3.0248882204543720e-02 1.1030248882204569e+01
ITEM: ATOMS id type x y z 
10 1 4.59763 4.59832 4.59816 
11 1 3.11775 3.11205 3.00164 
12 1 3.80525 3.80252 3.74342 
46 1 0.744296 0.743824 0.655302 
47 1 2.37973 2.36796 2.03864 
48 1 1.65802 1.64957 1.36076 
49 2 1.09041 1.18678 3.16946 
50 3 0.919851 1.0606 4.07488 
19 1 4.53926 4.53945 6.23249 
20 1 3.00539 3.00834 7.78779 
21 1 3.70921 3.71085 7.07427 
31 1 0.655194 0.652184 10.0992 
32 1 2.18533 2.1851 8.59968 
33 1 1.47407 1.47256 9.29671 
16 1 4.53715 6.23187 4.53013 
17 1 3.00227 7.7784 2.988 
18 1 3.70592 7.0694 3.69499 
25 1 0.670288 10.1247 0.644037 
26 1 2.18008 8.59537 2.16813 
27 1 1.4782 9.30636 1.45958 
4 1 4.60601 6.17439 6.16645 
5 1 3.08968 7.68644 7.69651 
6 1 3.79552 6.98258 6.98417 
37 1 0.721743 10.024 10.0607 
38 1 2.26544 8.49746 8.51402 
39 1 1.55636 9.19852 9.22446 
13 1 6.23251 4.53751 4.52968 
14 1 7.78003 3.00146 2.98977 
15 1 7.07062 3.7057 3.69579 
28 1 10.1242 0.671524 0.641754 
29 1 8.59465 2.18029 2.16661 
30 1 9.30571 1.47888 1.45765 
1 1 6.17362 4.60391 6.16564 
2 1 7.68623 3.08901 7.69646 
3 1 6.98203 3.79416 6.9838 
40 1 10.0248 0.721432 10.0602 
41 1 8.49839 2.26663 8.51476 
42 1 9.19938 1.55689 9.22461 
7 1 6.16804 6.1675 4.59367 
8 1 7.68847 7.68842 3.0747 
9 1 6.98106 6.98079 3.78138 
43 1 10.0477 10.0481 0.715923 
44 1 8.5019 8.50145 2.24489 
45 1 9.21097 9.21091 1.54346 
22 1 6.23727 6.23603 6.23348 
23 1 7.77168 7.77189 7.78188 
24 1 7.06727 7.06682 7.07105 
34 1 10.0999 10.1001 10.1345 
35 1 8.58644 8.5869 8.60384 
36 1 9.29108 9.29137 9.3165 
ITEM: TIMESTEP
150
ITEM: NUMBER OF ATOMS
50
ITEM: BOX BOUNDS pp pp pp
-4.4712652325386796e-03 1.1004471265232532e+01
-3.4487858186518050e-03 1.1005448785818656e+01
-3.3604790309623093e-02 1.1033604790309651e+01
ITEM: ATOMS id type x y z 
10 1 4.59784 4.59852 4.59805 
11 1 3.11772 3.11206 2.99954 
12 1 3.80476 3.80205 3.74182 
46 1 0.742776 0.74236 0.651505 
47 1 2.3785 2.36678 2.03604 
48 1 1.65681 1.64843 1.35866 
49 2 1.08912 1.18563 3.16899 
50 3 0.918193 1.05911 4.07437 
19 1 4.53956 4.53976 6.23201 
20 1 3.00543 3.00837 7.78862 
21 1 3.70882 3.71054 7.0749 
31 1 0.653574 0.650698 10.1027 
32 1 2.18435 2.18419 8.60154 
33 1 1.47338 1.47198 9.29882 
16 1 4.5375 6.23137 4.53024 
17 1 3.00223 7.77829 2.98704 
18 1 3.70555 7.06958 3.69408 
25 1 0.668743 10.1261 0.640468 
26 1 2.17918 8.59625 2.16606 
27 1 1.47765 9.30701 1.4573 
4 1 4.60623 6.17401 6.16618 
5 1 3.08923 7.68679 7.69767 
6 1 3.79482 6.98313 6.98526 
37 1 0.720011 10.0257 10.0643 
38 1 2.26405 8.49869 8.51646 