
     Program PWSCF v.7.1 starts on 24May2025 at  9:41: 5 

     This program is part of the open-source Quantum ESPRESSO suite
     for quantum simulation of materials; please cite
         "P. Giannozzi et al., J. Phys.:Condens. Matter 21 395502 (2009);
         "P. Giannozzi et al., J. Phys.:Condens. Matter 29 465901 (2017);
         "P. Giannozzi et al., J. Chem. Phys. 152 154105 (2020);
          URL http://www.quantum-espresso.org", 
     in publications or presentations arising from this work. More details at
     http://www.quantum-espresso.org/quote

     Parallel version (MPI), running on    16 processors

     MPI processes distributed on     1 nodes
     252106 MiB available memory on the printing compute node when the environment starts

     Reading input from input.pwi
Warning: card &CELL ignored
Warning: card / ignored
Warning: card &FCP ignored
Warning: card / ignored
Warning: card &RISM ignored
Warning: card / ignored

     Current dimensions of program PWSCF are:
     Max number of different atomic species (ntypx) = 10
     Max number of k-points (npk) =  40000
     Max angular momentum in pseudopotentials (lmaxx) =  4
     file C.pbe-n-kjpaw_psl.1.0.0.UPF: wavefunction(s)  2S 2P renormalized

     IMPORTANT: XC functional enforced from input :
     Exchange-correlation= PBE
                           (   1   4   3   4   0   0   0)
     Any further DFT definition will be discarded
     Please, verify this is what you really want


     gamma-point specific algorithms are used
     Message from routine  set_nelup_neldw :
     BEWARE: non-integer number of up and down electrons!

     R & G space division:  proc/nbgrp/npool/nimage =      16
     Subspace diagonalization in iterative solution of the eigenvalue problem:
     one sub-group per band group will be used
     custom distributed-memory algorithm (size of sub-group:  2*  2 procs)


     Parallelization info
     --------------------
     sticks:   dense  smooth     PW     G-vecs:    dense   smooth      PW
     Min        1939     970    242               257184    90894   11370
     Max        1942     972    244               257194    90900   11376
     Sum       31061   15541   3885              4115019  1454361  181955

     Using Slab Decomposition



     bravais-lattice index     =            0
     lattice parameter (alat)  =      31.2277  a.u.
     unit-cell volume          =   30456.0493 (a.u.)^3
     number of atoms/cell      =           97
     number of atomic types    =            2
     number of electrons       =       385.00 (up: 192.50, down: 192.50)
     number of Kohn-Sham states=          231
     kinetic-energy cutoff     =      50.0000  Ry
     charge density cutoff     =     400.0000  Ry
     scf convergence threshold =      1.0E-06
     mixing beta               =       0.3000
     number of iterations used =            8  plain     mixing
     energy convergence thresh.=      1.0E-04
     force convergence thresh. =      1.0E-03
     Exchange-correlation= PBE
                           (   1   4   3   4   0   0   0)
     nstep                     =         1000


     celldm(1)=  31.227724  celldm(2)=   0.000000  celldm(3)=   0.000000
     celldm(4)=   0.000000  celldm(5)=   0.000000  celldm(6)=   0.000000

     crystal axes: (cart. coord. in units of alat)
               a(1) = (   1.000000   0.000000   0.000000 )  
               a(2) = (   0.000000   1.000061   0.000000 )  
               a(3) = (   0.000000   0.000000   1.000061 )  

     reciprocal axes: (cart. coord. in units 2 pi/alat)
               b(1) = (  1.000000  0.000000  0.000000 )  
               b(2) = (  0.000000  0.999939  0.000000 )  
               b(3) = (  0.000000  0.000000  0.999939 )  


     PseudoPot. # 1 for C  read from file:
     /home/ana.bisette/espresso/pseudo/C.pbe-n-kjpaw_psl.1.0.0.UPF
     MD5 check sum: 5d2aebdfa2cae82b50a7e79e9516da0f
     Pseudo is Projector augmented-wave + core cor, Zval =  4.0
     Generated using "atomic" code by A. Dal Corso  v.5.1
     Shape of augmentation charge: PSQ
     Using radial grid of 1073 points,  4 beta functions with: 
                l(1) =   0
                l(2) =   0
                l(3) =   1
                l(4) =   1
     Q(r) pseudized with 0 coefficients 


     PseudoPot. # 2 for H  read from file:
     /home/ana.bisette/espresso/pseudo/H.pbe-rrkjus_psl.1.0.0.UPF
     MD5 check sum: f52b6d4d1c606e5624b1dc7b2218f220
     Pseudo is Ultrasoft, Zval =  1.0
     Generated using "atomic" code by A. Dal Corso  v.5.1
     Using radial grid of  929 points,  2 beta functions with: 
                l(1) =   0
                l(2) =   0
     Q(r) pseudized with 0 coefficients 


     atomic species   valence    mass     pseudopotential
        C              4.00    12.01100     C ( 1.00)
        H              1.00     1.00800     H ( 1.00)

     Starting magnetic structure 
     atomic species   magnetization
        C            0.000
        H            0.000

     No symmetry found



   Cartesian axes

     site n.     atom                  positions (alat units)
         1           C   tau(   1) = (   0.1097126   0.1097126   0.1097126  )
         2           C   tau(   2) = (   0.8522844   0.8522844   0.8522844  )
         3           C   tau(   3) = (   0.8522844   0.8522844   0.1097126  )
         4           C   tau(   4) = (   0.1097126   0.1097126   0.8522844  )
         5           C   tau(   5) = (   0.8522844   0.1097126   0.8522844  )
         6           C   tau(   6) = (   0.1097126   0.8522844   0.1097126  )
         7           C   tau(   7) = (   0.1097126   0.8522844   0.8522844  )
         8           C   tau(   8) = (   0.8522844   0.1097126   0.1097126  )
         9           C   tau(   9) = (   0.6097428   0.6097428   0.6097428  )
        10           C   tau(  10) = (   0.3522542   0.3522542   0.3522542  )
        11           C   tau(  11) = (   0.3522542   0.3522542   0.6097428  )
        12           C   tau(  12) = (   0.6097428   0.6097428   0.3522542  )
        13           C   tau(  13) = (   0.3522542   0.6097428   0.3522542  )
        14           C   tau(  14) = (   0.6097428   0.3522542   0.6097428  )
        15           C   tau(  15) = (   0.6097428   0.3522542   0.3522542  )
        16           C   tau(  16) = (   0.3522542   0.6097428   0.6097428  )
        17           C   tau(  17) = (   0.2050227   0.2050227   0.2050227  )
        18           C   tau(  18) = (   0.7569743   0.7569743   0.7569743  )
        19           C   tau(  19) = (   0.7569743   0.7569743   0.2050227  )
        20           C   tau(  20) = (   0.2050227   0.2050227   0.7569743  )
        21           C   tau(  21) = (   0.7569743   0.2050227   0.7569743  )
        22           C   tau(  22) = (   0.2050227   0.7569743   0.2050227  )
        23           C   tau(  23) = (   0.2050227   0.7569743   0.7569743  )
        24           C   tau(  24) = (   0.7569743   0.2050227   0.2050227  )
        25           C   tau(  25) = (   0.7050530   0.7050530   0.7050530  )
        26           C   tau(  26) = (   0.2569440   0.2569440   0.2569440  )
        27           C   tau(  27) = (   0.2569440   0.2569440   0.7050530  )
        28           C   tau(  28) = (   0.7050530   0.7050530   0.2569440  )
        29           C   tau(  29) = (   0.2569440   0.7050530   0.2569440  )
        30           C   tau(  30) = (   0.7050530   0.2569440   0.7050530  )
        31           C   tau(  31) = (   0.7050530   0.2569440   0.2569440  )
        32           C   tau(  32) = (   0.2569440   0.7050530   0.7050530  )
        33           C   tau(  33) = (   0.0171861   0.1210287   0.1210287  )
        34           C   tau(  34) = (   0.9448109   0.8409682   0.8409682  )
        35           C   tau(  35) = (   0.9448109   0.8409682   0.1210287  )
        36           C   tau(  36) = (   0.0171861   0.1210287   0.8409682  )
        37           C   tau(  37) = (   0.9448109   0.1210287   0.8409682  )
        38           C   tau(  38) = (   0.0171861   0.8409682   0.1210287  )
        39           C   tau(  39) = (   0.0171861   0.8409682   0.8409682  )
        40           C   tau(  40) = (   0.9448109   0.1210287   0.1210287  )
        41           C   tau(  41) = (   0.1210287   0.0171861   0.1210287  )
        42           C   tau(  42) = (   0.8409682   0.9448714   0.8409682  )
        43           C   tau(  43) = (   0.1210287   0.9448714   0.8409682  )
        44           C   tau(  44) = (   0.8409682   0.0171861   0.1210287  )
        45           C   tau(  45) = (   0.8409682   0.9448714   0.1210287  )
        46           C   tau(  46) = (   0.1210287   0.0171861   0.8409682  )
        47           C   tau(  47) = (   0.8409682   0.0171861   0.8409682  )
        48           C   tau(  48) = (   0.1210287   0.9448714   0.1210287  )
        49           C   tau(  49) = (   0.1210287   0.1210287   0.0171256  )
        50           C   tau(  50) = (   0.8409682   0.8409682   0.9448714  )
        51           C   tau(  51) = (   0.8409682   0.1210287   0.9448714  )
        52           C   tau(  52) = (   0.1210287   0.8409682   0.0171256  )
        53           C   tau(  53) = (   0.1210287   0.8409682   0.9448714  )
        54           C   tau(  54) = (   0.8409682   0.1210287   0.0171256  )
        55           C   tau(  55) = (   0.8409682   0.8409682   0.0171256  )
        56           C   tau(  56) = (   0.1210287   0.1210287   0.9448714  )
        57           C   tau(  57) = (   0.5171558   0.6210590   0.6210590  )
        58           C   tau(  58) = (   0.4448411   0.3409380   0.3409380  )
        59           C   tau(  59) = (   0.4448411   0.3409380   0.6210590  )
        60           C   tau(  60) = (   0.5172163   0.6210590   0.3409380  )
        61           C   tau(  61) = (   0.4448411   0.6210590   0.3409380  )
        62           C   tau(  62) = (   0.5171558   0.3409380   0.6210590  )
        63           C   tau(  63) = (   0.5172163   0.3409380   0.3409380  )
        64           C   tau(  64) = (   0.4448411   0.6210590   0.6210590  )
        65           C   tau(  65) = (   0.6210590   0.5171558   0.6210590  )
        66           C   tau(  66) = (   0.3409380   0.4448411   0.3409380  )
        67           C   tau(  67) = (   0.6210590   0.4448411   0.3409380  )
        68           C   tau(  68) = (   0.3409380   0.5172163   0.6210590  )
        69           C   tau(  69) = (   0.3409380   0.4448411   0.6210590  )
        70           C   tau(  70) = (   0.6210590   0.5172163   0.3409380  )
        71           C   tau(  71) = (   0.3409380   0.5171558   0.3409380  )
        72           C   tau(  72) = (   0.6210590   0.4448411   0.6210590  )
        73           C   tau(  73) = (   0.6210590   0.6210590   0.5172163  )
        74           C   tau(  74) = (   0.3409380   0.3409380   0.4448411  )
        75           C   tau(  75) = (   0.3409380   0.6210590   0.4448411  )
        76           C   tau(  76) = (   0.6210590   0.3409380   0.5171558  )
        77           C   tau(  77) = (   0.6210590   0.3409380   0.4448411  )
        78           C   tau(  78) = (   0.3409380   0.6210590   0.5171558  )
        79           C   tau(  79) = (   0.3409380   0.3409380   0.5171558  )
        80           C   tau(  80) = (   0.6210590   0.6210590   0.4448411  )
        81           C   tau(  81) = (   0.1627231   0.1627231   0.1627231  )
        82           C   tau(  82) = (   0.7992738   0.7992738   0.7992738  )
        83           C   tau(  83) = (   0.7992738   0.7992738   0.1627231  )
        84           C   tau(  84) = (   0.1627231   0.1627231   0.7992738  )
        85           C   tau(  85) = (   0.7992738   0.1627231   0.7992738  )
        86           C   tau(  86) = (   0.1627231   0.7992738   0.1627231  )
        87           C   tau(  87) = (   0.1627231   0.7992738   0.7992738  )
        88           C   tau(  88) = (   0.7992738   0.1627231   0.1627231  )
        89           C   tau(  89) = (   0.6627534   0.6627534   0.6627534  )
        90           C   tau(  90) = (   0.2992436   0.2992436   0.2992436  )
        91           C   tau(  91) = (   0.2992436   0.2992436   0.6627534  )
        92           C   tau(  92) = (   0.6627534   0.6627534   0.2992436  )
        93           C   tau(  93) = (   0.2992436   0.6627534   0.2992436  )
        94           C   tau(  94) = (   0.6627534   0.2992436   0.6627534  )
        95           C   tau(  95) = (   0.6627534   0.2992436   0.2992436  )
        96           C   tau(  96) = (   0.2992436   0.6627534   0.6627534  )
        97           H   tau(  97) = (   0.1097126   0.1762784   0.1097126  )

     number of k points=     1  Gaussian smearing, width (Ry)=  0.0001
                       cart. coord. in units 2pi/alat
        k(    1) = (   0.0000000   0.0000000   0.0000000), wk =   1.0000000

     Dense  grid:  2057510 G-vectors     FFT dimensions: ( 200, 200, 200)

     Smooth grid:   727181 G-vectors     FFT dimensions: ( 144, 144, 144)

     Estimated max dynamical RAM per process >     926.98 MB

     Estimated total dynamical RAM >      14.48 GB

     Check: negative core charge=   -0.000003
     Generating pointlists ...
     new r_m :   0.0275 (alat units)  0.8575 (a.u.) for type    1
     new r_m :   0.0275 (alat units)  0.8575 (a.u.) for type    2

     Initial potential from superposition of free atoms

     starting charge     384.9960, renormalised to     385.0000

     negative rho (up, down):  6.315E-04 6.315E-04
     Starting wfcs are  385 randomized atomic wfcs
     Checking if some PAW data can be deallocated... 

     total cpu time spent up to now is       13.0 secs

     Self-consistent Calculation

     iteration #  1     ecut=    50.00 Ry     beta= 0.30
     Davidson diagonalization with overlap
     ethr =  1.00E-02,  avg # of iterations =  2.0

     negative rho (up, down):  6.918E-04 6.918E-04

     total cpu time spent up to now is       31.5 secs

     total energy              =   -1763.68518429 Ry
     estimated scf accuracy    <      13.37598572 Ry

     total magnetization       =    -0.00 Bohr mag/cell
     absolute magnetization    =     0.10 Bohr mag/cell

     iteration #  2     ecut=    50.00 Ry     beta= 0.30
     Davidson diagonalization with overlap
     ethr =  3.47E-03,  avg # of iterations =  1.0

     negative rho (up, down):  1.277E-03 1.276E-03

     total cpu time spent up to now is       44.4 secs

     total energy              =   -1761.59105142 Ry
     estimated scf accuracy    <       4.12500383 Ry

     total magnetization       =    -0.00 Bohr mag/cell
     absolute magnetization    =     0.08 Bohr mag/cell

     iteration #  3     ecut=    50.00 Ry     beta= 0.30
     Davidson diagonalization with overlap
     ethr =  1.07E-03,  avg # of iterations =  2.0

     negative rho (up, down):  1.105E-03 1.105E-03

     total cpu time spent up to now is       61.7 secs

     total energy              =   -1762.52533825 Ry
     estimated scf accuracy    <       0.30404160 Ry

     total magnetization       =     0.00 Bohr mag/cell
     absolute magnetization    =     0.06 Bohr mag/cell

     iteration #  4     ecut=    50.00 Ry     beta= 0.30
     Davidson diagonalization with overlap
     ethr =  7.90E-05,  avg # of iterations =  8.5

     negative rho (up, down):  1.316E-03 1.316E-03

     total cpu time spent up to now is       82.0 secs

     total energy              =   -1762.55821962 Ry
     estimated scf accuracy    <       0.13645756 Ry

     total magnetization       =     0.00 Bohr mag/cell
     absolute magnetization    =     0.04 Bohr mag/cell

     iteration #  5     ecut=    50.00 Ry     beta= 0.30
     Davidson diagonalization with overlap
     c_bands:  2 eigenvalues not converged
     c_bands:  1 eigenvalues not converged
     ethr =  3.54E-05,  avg # of iterations = 20.0

     negative rho (up, down):  1.243E-03 1.243E-03

     total cpu time spent up to now is      106.1 secs

     total energy              =   -1762.58418270 Ry
     estimated scf accuracy    <       0.00898458 Ry

     total magnetization       =     0.00 Bohr mag/cell
     absolute magnetization    =     0.03 Bohr mag/cell

     iteration #  6     ecut=    50.00 Ry     beta= 0.30
     Davidson diagonalization with overlap
     c_bands:  1 eigenvalues not converged
     c_bands:  1 eigenvalues not converged
     ethr =  2.33E-06,  avg # of iterations = 20.0

     negative rho (up, down):  1.185E-03 1.185E-03

     total cpu time spent up to now is      132.0 secs

     total energy              =   -1762.58059688 Ry
     estimated scf accuracy    <       0.01687902 Ry

     total magnetization       =    -0.00 Bohr mag/cell
     absolute magnetization    =     0.02 Bohr mag/cell

     iteration #  7     ecut=    50.00 Ry     beta= 0.30
     Davidson diagonalization with overlap
     c_bands:  1 eigenvalues not converged
     ethr =  2.33E-06,  avg # of iterations = 11.0

     negative rho (up, down):  1.166E-03 1.166E-03

     total cpu time spent up to now is      151.4 secs

     total energy              =   -1762.58184049 Ry
     estimated scf accuracy    <       0.00130932 Ry

     total magnetization       =    -0.00 Bohr mag/cell
     absolute magnetization    =     0.02 Bohr mag/cell

     iteration #  8     ecut=    50.00 Ry     beta= 0.30
     Davidson diagonalization with overlap
     c_bands:  1 eigenvalues not converged
     ethr =  3.40E-07,  avg # of iterations = 12.5

     negative rho (up, down):  1.154E-03 1.155E-03

     total cpu time spent up to now is      173.1 secs

     total energy              =   -1762.58208325 Ry
     estimated scf accuracy    <       0.00127131 Ry

     total magnetization       =     0.00 Bohr mag/cell
     absolute magnetization    =     0.01 Bohr mag/cell

     iteration #  9     ecut=    50.00 Ry     beta= 0.30
     Davidson diagonalization with overlap
     ethr =  3.30E-07,  avg # of iterations =  2.0

     negative rho (up, down):  1.151E-03 1.151E-03

     total cpu time spent up to now is      189.0 secs

     total energy              =   -1762.58221518 Ry
     estimated scf accuracy    <       0.00014418 Ry

     total magnetization       =    -0.00 Bohr mag/cell
     absolute magnetization    =     0.01 Bohr mag/cell

     iteration # 10     ecut=    50.00 Ry     beta= 0.30
     Davidson diagonalization with overlap
     ethr =  3.75E-08,  avg # of iterations =  4.0

     negative rho (up, down):  1.148E-03 1.148E-03

     total cpu time spent up to now is      207.3 secs

     total energy              =   -1762.58224659 Ry
     estimated scf accuracy    <       0.00002116 Ry

     total magnetization       =     0.00 Bohr mag/cell
     absolute magnetization    =     0.01 Bohr mag/cell

     iteration # 11     ecut=    50.00 Ry     beta= 0.30
     Davidson diagonalization with overlap
     ethr =  5.50E-09,  avg # of iterations =  2.0

     negative rho (up, down):  1.146E-03 1.146E-03

     total cpu time spent up to now is      224.6 secs

     total energy              =   -1762.58225266 Ry
     estimated scf accuracy    <       0.00000263 Ry

     total magnetization       =     0.00 Bohr mag/cell
     absolute magnetization    =     0.01 Bohr mag/cell

     iteration # 12     ecut=    50.00 Ry     beta= 0.30
     Davidson diagonalization with overlap
     ethr =  6.84E-10,  avg # of iterations =  3.0

     negative rho (up, down):  1.143E-03 1.143E-03

     Magnetic moment per site  (integrated on atomic sphere of radius R)
     atom   1 (R=0.027)  charge=  0.8217  magn= -0.0000
     atom   2 (R=0.027)  charge=  0.7974  magn=  0.0000
     atom   3 (R=0.027)  charge=  0.8004  magn= -0.0000
     atom   4 (R=0.027)  charge=  0.8016  magn=  0.0000
     atom   5 (R=0.027)  charge=  0.8005  magn=  0.0000
     atom   6 (R=0.027)  charge=  0.8019  magn=  0.0000
     atom   7 (R=0.027)  charge=  0.8004  magn= -0.0000
     atom   8 (R=0.027)  charge=  0.8016  magn= -0.0000
     atom   9 (R=0.027)  charge=  0.8005  magn=  0.0000
     atom  10 (R=0.027)  charge=  0.7967  magn= -0.0000
     atom  11 (R=0.027)  charge=  0.8003  magn=  0.0000
     atom  12 (R=0.027)  charge=  0.8018  magn=  0.0000
     atom  13 (R=0.027)  charge=  0.8003  magn=  0.0000
     atom  14 (R=0.027)  charge=  0.8015  magn= -0.0000
     atom  15 (R=0.027)  charge=  0.8004  magn=  0.0000
     atom  16 (R=0.027)  charge=  0.8017  magn=  0.0000
     atom  17 (R=0.027)  charge=  0.8692  magn= -0.0000
     atom  18 (R=0.027)  charge=  0.8680  magn= -0.0000
     atom  19 (R=0.027)  charge=  0.8698  magn= -0.0000
     atom  20 (R=0.027)  charge=  0.8704  magn=  0.0000
     atom  21 (R=0.027)  charge=  0.8697  magn= -0.0000
     atom  22 (R=0.027)  charge=  0.8708  magn=  0.0000
     atom  23 (R=0.027)  charge=  0.8698  magn= -0.0000
     atom  24 (R=0.027)  charge=  0.8704  magn= -0.0000
     atom  25 (R=0.027)  charge=  0.8701  magn=  0.0000
     atom  26 (R=0.027)  charge=  0.8666  magn= -0.0000
     atom  27 (R=0.027)  charge=  0.8701  magn= -0.0000
     atom  28 (R=0.027)  charge=  0.8708  magn=  0.0000
     atom  29 (R=0.027)  charge=  0.8699  magn=  0.0000
     atom  30 (R=0.027)  charge=  0.8708  magn=  0.0000
     atom  31 (R=0.027)  charge=  0.8701  magn= -0.0000
     atom  32 (R=0.027)  charge=  0.8708  magn=  0.0000
     atom  33 (R=0.027)  charge=  0.8891  magn= -0.0000
     atom  34 (R=0.027)  charge=  0.8834  magn= -0.0000
     atom  35 (R=0.027)  charge=  0.8837  magn= -0.0000
     atom  36 (R=0.027)  charge=  0.8842  magn= -0.0001
     atom  37 (R=0.027)  charge=  0.8833  magn=  0.0001
     atom  38 (R=0.027)  charge=  0.8838  magn=  0.0000
     atom  39 (R=0.027)  charge=  0.8841  magn=  0.0000
     atom  40 (R=0.027)  charge=  0.8823  magn=  0.0000
     atom  41 (R=0.027)  charge=  0.8899  magn=  0.0000
     atom  42 (R=0.027)  charge=  0.8831  magn=  0.0000
     atom  43 (R=0.027)  charge=  0.8830  magn=  0.0000
     atom  44 (R=0.027)  charge=  0.8843  magn=  0.0000
     atom  45 (R=0.027)  charge=  0.8830  magn= -0.0000
     atom  46 (R=0.027)  charge=  0.8843  magn= -0.0000
     atom  47 (R=0.027)  charge=  0.8842  magn= -0.0000
     atom  48 (R=0.027)  charge=  0.8844  magn= -0.0000
     atom  49 (R=0.027)  charge=  0.8896  magn= -0.0000
     atom  50 (R=0.027)  charge=  0.8838  magn= -0.0000
     atom  51 (R=0.027)  charge=  0.8838  magn= -0.0000
     atom  52 (R=0.027)  charge=  0.8842  magn= -0.0000
     atom  53 (R=0.027)  charge=  0.8841  magn=  0.0000
     atom  54 (R=0.027)  charge=  0.8846  magn=  0.0000
     atom  55 (R=0.027)  charge=  0.8844  magn=  0.0000
     atom  56 (R=0.027)  charge=  0.8827  magn=  0.0000
     atom  57 (R=0.027)  charge=  0.8844  magn=  0.0000
     atom  58 (R=0.027)  charge=  0.8828  magn=  0.0000
     atom  59 (R=0.027)  charge=  0.8838  magn= -0.0000
     atom  60 (R=0.027)  charge=  0.8842  magn= -0.0000
     atom  61 (R=0.027)  charge=  0.8832  magn= -0.0000
     atom  62 (R=0.027)  charge=  0.8845  magn=  0.0000
     atom  63 (R=0.027)  charge=  0.8845  magn= -0.0000
     atom  64 (R=0.027)  charge=  0.8839  magn= -0.0000
     atom  65 (R=0.027)  charge=  0.8844  magn=  0.0000
     atom  66 (R=0.027)  charge=  0.8839  magn=  0.0000
     atom  67 (R=0.027)  charge=  0.8833  magn=  0.0000
     atom  68 (R=0.027)  charge=  0.8840  magn= -0.0000
     atom  69 (R=0.027)  charge=  0.8833  magn=  0.0000
     atom  70 (R=0.027)  charge=  0.8840  magn= -0.0000
     atom  71 (R=0.027)  charge=  0.8849  magn= -0.0000
     atom  72 (R=0.027)  charge=  0.8840  magn= -0.0000
     atom  73 (R=0.027)  charge=  0.8840  magn=  0.0000
     atom  74 (R=0.027)  charge=  0.8834  magn=  0.0000
     atom  75 (R=0.027)  charge=  0.8837  magn= -0.0000
     atom  76 (R=0.027)  charge=  0.8845  magn=  0.0001
     atom  77 (R=0.027)  charge=  0.8838  magn= -0.0001
     atom  78 (R=0.027)  charge=  0.8846  magn=  0.0000
     atom  79 (R=0.027)  charge=  0.8849  magn= -0.0000
     atom  80 (R=0.027)  charge=  0.8834  magn=  0.0000
     atom  81 (R=0.027)  charge=  0.8931  magn=  0.0000
     atom  82 (R=0.027)  charge=  0.8788  magn=  0.0000
     atom  83 (R=0.027)  charge=  0.8797  magn=  0.0000
     atom  84 (R=0.027)  charge=  0.8789  magn= -0.0000
     atom  85 (R=0.027)  charge=  0.8797  magn=  0.0000
     atom  86 (R=0.027)  charge=  0.8787  magn= -0.0000
     atom  87 (R=0.027)  charge=  0.8796  magn=  0.0000
     atom  88 (R=0.027)  charge=  0.8790  magn=  0.0000
     atom  89 (R=0.027)  charge=  0.8755  magn= -0.0000
     atom  90 (R=0.027)  charge=  0.8807  magn=  0.0000
     atom  91 (R=0.027)  charge=  0.8793  magn=  0.0000
     atom  92 (R=0.027)  charge=  0.8786  magn= -0.0000
     atom  93 (R=0.027)  charge=  0.8796  magn= -0.0000
     atom  94 (R=0.027)  charge=  0.8785  magn= -0.0000
     atom  95 (R=0.027)  charge=  0.8793  magn=  0.0000
     atom  96 (R=0.027)  charge=  0.8786  magn= -0.0000
     atom  97 (R=0.027)  charge=  0.5106  magn=  0.0000

     total cpu time spent up to now is      240.0 secs

     End of self-consistent calculation

 ------ SPIN UP ------------


          k = 0.0000 0.0000 0.0000 ( 90978 PWs)   bands (ev):

   -21.9842 -20.3121 -20.2777 -20.1598 -20.1200 -20.0730 -20.0652 -20.0414
   -20.0034 -19.9022 -19.8685 -19.8244 -19.8121 -19.7819 -19.6405 -19.5063
   -18.2814 -18.2223 -18.2114 -18.1893 -18.1484 -18.1391 -18.1114 -17.9570
   -17.5270 -17.5008 -17.3778 -17.3695 -17.3547 -17.3480 -17.3442 -17.3317
   -17.3231 -17.3169 -17.3016 -17.2893 -17.2803 -17.2746 -17.2574 -17.2379
   -17.2216 -16.9078 -16.8499 -16.7100 -16.6853 -16.4763 -16.3854 -16.3629
   -16.3249 -16.2622 -16.2479 -15.9861 -15.9219 -15.9076 -15.8591 -15.4708
   -14.2654 -13.6727 -13.6431 -13.6222 -13.5772 -13.5440 -13.5206 -13.3195
   -13.1426 -12.5427 -12.4880 -12.3177 -12.3163 -12.2975 -12.2637 -12.2430
   -12.2363 -12.1951 -12.1721 -12.1663 -12.1592 -12.1560 -12.1357 -12.0537
   -12.0468 -11.9264 -11.8970 -11.8876 -11.8534 -11.6360 -11.6173 -11.6024
   -11.4963 -11.4632 -11.4408 -11.4150 -11.3616 -11.2073 -11.2052 -11.1886
   -11.0953 -11.0701 -10.9348 -10.8874 -10.8859 -10.8263 -10.8234 -10.8197
   -10.7923 -10.7913 -10.7540 -10.7504 -10.7057 -10.6539 -10.6343 -10.6214
    -7.2814  -7.1722  -7.1574  -7.1339  -7.1222  -7.1132  -7.0903  -7.0832
    -7.0770  -7.0650  -7.0646  -7.0567  -7.0514  -7.0475  -7.0141  -7.0101
    -6.6844  -6.6812  -6.5833  -6.5485  -6.5431  -6.4331  -6.3968  -6.3882
    -6.3829  -6.3823  -6.3630  -6.2885  -6.0853  -6.0624  -6.0515  -6.0126
    -5.9877  -5.9749  -5.9256  -5.9192  -5.9001  -5.8509  -5.8452  -5.8289
    -5.8278  -5.8217  -5.8130  -5.8110  -5.8017  -5.7886  -5.7870  -5.7777
    -5.7643  -5.7617  -5.7566  -5.7481  -5.4504  -5.3217  -5.3017  -5.2863
    -5.2667  -5.2409  -5.2369  -5.2061  -5.1973  -5.1934  -5.1162  -5.0993
    -5.0853  -5.0813  -5.0657  -5.0536  -5.0469  -5.0286  -4.9431  -4.9158
    -4.9107  -4.8668  -4.8638  -4.8309  -4.8238  -4.8216  -4.7716  -4.6992
    -1.9243  -0.7820  -0.6317  -0.6278  -0.5900  -0.5811  -0.5557  -0.5174
    -0.4906  -0.4811  -0.4322  -0.4211  -0.4100  -0.4030  -0.3653  -0.3527
    -0.2809  -0.2805  -0.2724  -0.1967  -0.1679  -0.1592  -0.1543  -0.1401
    -0.1321  -0.1056  -0.0299  -0.0289   0.8069   0.8940   1.0625   1.0873
     1.1029   1.1940   1.1972   1.2328   1.2710   1.3837   1.3966

 ------ SPIN DOWN ----------


          k = 0.0000 0.0000 0.0000 ( 90978 PWs)   bands (ev):

   -21.9842 -20.3121 -20.2777 -20.1598 -20.1200 -20.0730 -20.0652 -20.0414
   -20.0035 -19.9022 -19.8685 -19.8244 -19.8121 -19.7819 -19.6405 -19.5063
   -18.2814 -18.2223 -18.2114 -18.1893 -18.1484 -18.1392 -18.1114 -17.9569
   -17.5270 -17.5008 -17.3778 -17.3695 -17.3547 -17.3481 -17.3442 -17.3317
   -17.3231 -17.3169 -17.3016 -17.2893 -17.2804 -17.2746 -17.2575 -17.2379
   -17.2216 -16.9078 -16.8499 -16.7100 -16.6853 -16.4763 -16.3853 -16.3629
   -16.3250 -16.2622 -16.2479 -15.9861 -15.9219 -15.9076 -15.8591 -15.4708
   -14.2654 -13.6727 -13.6431 -13.6222 -13.5772 -13.5440 -13.5206 -13.3195
   -13.1426 -12.5427 -12.4880 -12.3177 -12.3163 -12.2975 -12.2637 -12.2430
   -12.2362 -12.1951 -12.1721 -12.1663 -12.1592 -12.1560 -12.1356 -12.0537
   -12.0468 -11.9264 -11.8969 -11.8876 -11.8534 -11.6360 -11.6173 -11.6024
   -11.4963 -11.4632 -11.4408 -11.4150 -11.3616 -11.2073 -11.2052 -11.1886
   -11.0953 -11.0701 -10.9348 -10.8874 -10.8859 -10.8263 -10.8234 -10.8197
   -10.7923 -10.7913 -10.7540 -10.7504 -10.7057 -10.6539 -10.6343 -10.6214
    -7.2815  -7.1722  -7.1574  -7.1339  -7.1222  -7.1132  -7.0903  -7.0832
    -7.0770  -7.0650  -7.0646  -7.0567  -7.0514  -7.0475  -7.0140  -7.0100
    -6.6844  -6.6813  -6.5833  -6.5485  -6.5431  -6.4331  -6.3968  -6.3882
    -6.3829  -6.3823  -6.3630  -6.2886  -6.0853  -6.0624  -6.0515  -6.0126
    -5.9878  -5.9749  -5.9256  -5.9192  -5.9001  -5.8509  -5.8452  -5.8289
    -5.8278  -5.8217  -5.8130  -5.8110  -5.8017  -5.7886  -5.7871  -5.7777
    -5.7644  -5.7617  -5.7566  -5.7481  -5.4504  -5.3217  -5.3017  -5.2863
    -5.2667  -5.2409  -5.2369  -5.2061  -5.1973  -5.1934  -5.1162  -5.0993
    -5.0853  -5.0813  -5.0657  -5.0536  -5.0469  -5.0286  -4.9431  -4.9158
    -4.9107  -4.8668  -4.8638  -4.8309  -4.8238  -4.8216  -4.7716  -4.6992
    -1.9243  -0.7820  -0.6317  -0.6278  -0.5900  -0.5811  -0.5557  -0.5174
    -0.4905  -0.4811  -0.4322  -0.4211  -0.4100  -0.4030  -0.3653  -0.3527
    -0.2809  -0.2805  -0.2724  -0.1968  -0.1678  -0.1592  -0.1543  -0.1401
    -0.1321  -0.1056  -0.0299  -0.0290   0.8069   0.8940   1.0625   1.0873
     1.1028   1.1938   1.1971   1.2326   1.2706   1.3819   1.3960

     the spin up/dw Fermi energies are    -1.9243   -1.9243 ev

!    total energy              =   -1762.58225287 Ry
     estimated scf accuracy    <       0.00000041 Ry
     smearing contrib. (-TS)   =      -0.00005642 Ry
     internal energy E=F+TS    =   -1762.58219645 Ry

     The total energy is F=E-TS. E is the sum of the following terms:
     one-electron contribution =   -3723.33404225 Ry
     hartree contribution      =    1928.12203871 Ry
     xc contribution           =    -434.69776760 Ry
     ewald contribution        =    1059.44736224 Ry
     one-center paw contrib.   =    -592.11978754 Ry

     total magnetization       =     0.00 Bohr mag/cell
     absolute magnetization    =     0.01 Bohr mag/cell

     convergence has been achieved in  12 iterations

     negative rho (up, down):  1.143E-03 1.143E-03

     Forces acting on atoms (cartesian axes, Ry/au):

     atom    1 type  1   force =    -0.02169483   -0.21076439   -0.02209897
     atom    2 type  1   force =     0.03527656    0.03549605    0.03585287
     atom    3 type  1   force =     0.03566103    0.03518907   -0.03574274
     atom    4 type  1   force =    -0.03583492   -0.03413855    0.03317877
     atom    5 type  1   force =     0.03478387   -0.03547989    0.03535696
     atom    6 type  1   force =    -0.03453160    0.03306287   -0.03508863
     atom    7 type  1   force =    -0.03517652    0.03518870    0.03623353
     atom    8 type  1   force =     0.03261664   -0.03413142   -0.03639558
     atom    9 type  1   force =    -0.03615446   -0.03601359   -0.03558215
     atom   10 type  1   force =     0.03059112    0.03032753    0.03061617
     atom   11 type  1   force =     0.03604500    0.03615963   -0.03700741
     atom   12 type  1   force =    -0.03588334   -0.03558268    0.03596662
     atom   13 type  1   force =     0.03531621   -0.03639813    0.03534157
     atom   14 type  1   force =    -0.03627890    0.03609121   -0.03628807
     atom   15 type  1   force =    -0.03646600    0.03619805    0.03608551
     atom   16 type  1   force =     0.03594187   -0.03553377   -0.03641893
     atom   17 type  1   force =     0.17965848    0.18116280    0.17964537
     atom   18 type  1   force =    -0.09941100   -0.09940080   -0.09941389
     atom   19 type  1   force =    -0.09943159   -0.09940530    0.09950067
     atom   20 type  1   force =     0.09975305    0.09973660   -0.09959305
     atom   21 type  1   force =    -0.09940834    0.09950479   -0.09940753
     atom   22 type  1   force =     0.10023924   -0.10008149    0.10023978
     atom   23 type  1   force =     0.09950188   -0.09940664   -0.09942893
     atom   24 type  1   force =    -0.09959511    0.09973388    0.09975111
     atom   25 type  1   force =     0.09948782    0.09947337    0.09947821
     atom   26 type  1   force =    -0.13521577   -0.13194243   -0.13521295
     atom   27 type  1   force =    -0.09956680   -0.09958126    0.09960205
     atom   28 type  1   force =     0.09951120    0.09947697   -0.09940405
     atom   29 type  1   force =    -0.09993374    0.10006770   -0.09993008
     atom   30 type  1   force =     0.09947599   -0.09940319    0.09946736
     atom   31 type  1   force =     0.09960765   -0.09957971   -0.09956066
     atom   32 type  1   force =    -0.09941007    0.09947679    0.09950381
     atom   33 type  1   force =     0.09495071   -0.01911519    0.01820794
     atom   34 type  1   force =    -0.12118129   -0.00298535   -0.00315030
     atom   35 type  1   force =    -0.12173733   -0.00314997    0.00321623
     atom   36 type  1   force =     0.12159840    0.00353698   -0.00294071
     atom   37 type  1   force =    -0.12154774    0.00323330   -0.00274096
     atom   38 type  1   force =     0.12142048   -0.00311053    0.00302720
     atom   39 type  1   force =     0.12094268   -0.00293719   -0.00314274
     atom   40 type  1   force =    -0.12942181    0.00405806    0.00092068
     atom   41 type  1   force =    -0.00088545    0.05510717   -0.00103193
     atom   42 type  1   force =    -0.00299531   -0.12170171   -0.00294043
     atom   43 type  1   force =     0.00306509   -0.12185912   -0.00279631
     atom   44 type  1   force =    -0.00241074    0.12146906    0.00342336
     atom   45 type  1   force =    -0.00285259   -0.12186558    0.00300646
     atom   46 type  1   force =     0.00348060    0.12146571   -0.00235470
     atom   47 type  1   force =    -0.00308007    0.12096160   -0.00302583
     atom   48 type  1   force =     0.00349785   -0.13764548    0.00344853
     atom   49 type  1   force =     0.01816858   -0.01922734    0.09969194
     atom   50 type  1   force =    -0.00311980   -0.00290046   -0.12605044
     atom   51 type  1   force =    -0.00271183    0.00314836   -0.12641493
     atom   52 type  1   force =     0.00299960   -0.00302344    0.12628680
     atom   53 type  1   force =     0.00318905   -0.00306308   -0.12660400
     atom   54 type  1   force =    -0.00290920    0.00345166    0.12646817
     atom   55 type  1   force =    -0.00311291   -0.00285158    0.12581716
     atom   56 type  1   force =     0.00089928    0.00398357   -0.13424837
     atom   57 type  1   force =     0.12591578    0.00318041    0.00328758
     atom   58 type  1   force =    -0.12170307   -0.00254762   -0.00238533
     atom   59 type  1   force =    -0.12613147   -0.00307554    0.00334389
     atom   60 type  1   force =     0.12113486    0.00344905   -0.00312433
     atom   61 type  1   force =    -0.12185382    0.00322486   -0.00293984
     atom   62 type  1   force =     0.12600655   -0.00308650    0.00332506
     atom   63 type  1   force =     0.12188262   -0.00337078   -0.00335782
     atom   64 type  1   force =    -0.12604683    0.00320120    0.00320572
     atom   65 type  1   force =     0.00319363    0.12586725    0.00324932
     atom   66 type  1   force =    -0.00120250   -0.12412208   -0.00120969
     atom   67 type  1   force =     0.00349053   -0.12195685   -0.00309646
     atom   68 type  1   force =    -0.00308799    0.12105374    0.00339488
     atom   69 type  1   force =    -0.00309959   -0.12200826    0.00343335
     atom   70 type  1   force =     0.00345287    0.12100844   -0.00307768
     atom   71 type  1   force =    -0.00326478    0.12789498   -0.00327274
     atom   72 type  1   force =     0.00321988   -0.12616394    0.00321990
     atom   73 type  1   force =     0.00330005    0.00324879    0.12106193
     atom   74 type  1   force =    -0.00235840   -0.00252624   -0.12589196
     atom   75 type  1   force =    -0.00291323    0.00320631   -0.12604235
     atom   76 type  1   force =     0.00332500   -0.00308832    0.12601363
     atom   77 type  1   force =     0.00340007   -0.00307230   -0.12607005
     atom   78 type  1   force =    -0.00306782    0.00337949    0.12605557
     atom   79 type  1   force =    -0.00329189   -0.00330190    0.12681524
     atom   80 type  1   force =     0.00328005    0.00321870   -0.12179837
     atom   81 type  1   force =    -0.09720244   -0.10808525   -0.09720781
     atom   82 type  1   force =     0.04380534    0.04392766    0.04386849
     atom   83 type  1   force =     0.04373518    0.04400287   -0.04399889
     atom   84 type  1   force =    -0.04431890   -0.04401875    0.04459047
     atom   85 type  1   force =     0.04388566   -0.04385184    0.04394813
     atom   86 type  1   force =    -0.04507298    0.04402439   -0.04513955
     atom   87 type  1   force =    -0.04393042    0.04400341    0.04379893
     atom   88 type  1   force =     0.04452758   -0.04401705   -0.04438547
     atom   89 type  1   force =    -0.04391471   -0.04393406   -0.04383907
     atom   90 type  1   force =     0.06429365    0.06184461    0.06428382
     atom   91 type  1   force =     0.04391977    0.04390668   -0.04376011
     atom   92 type  1   force =    -0.04377658   -0.04383732    0.04381302
     atom   93 type  1   force =     0.04447206   -0.04409788    0.04446390
     atom   94 type  1   force =    -0.04389615    0.04380184   -0.04389110
     atom   95 type  1   force =    -0.04367104    0.04388340    0.04389399
     atom   96 type  1   force =     0.04383423   -0.04386116   -0.04386532
     atom   97 type  2   force =     0.00400843    0.29821331    0.00396758

     Total force =     1.266153     Total SCF correction =     0.000905

     BFGS Geometry Optimization
     Energy error            =      0.0E+00 Ry
     Gradient error          =      3.0E-01 Ry/Bohr

     number of scf cycles    =   1
     number of bfgs steps    =   0

     energy             new  =   -1762.5822528701 Ry

     new trust radius        =       0.3120410034 bohr
     new conv_thr            =       0.0000010000 Ry


ATOMIC_POSITIONS (angstrom)
C             1.8015195910        1.7014682902        1.8013057293
C            14.1026675495       14.1027837012       14.1029725215
C            14.1028710026       14.1026212545        1.7940857550
C             1.7940369762        1.7949346582       14.1015574489
C            14.1024068332        1.7942248498       14.1027100999
C             1.7947266643       14.1014961188        1.7944318945
C             1.7943853869       14.1026210578       14.1031739575
C            14.1012599846        1.7949384286        1.7937402884
C            10.0568678811       10.0569424268       10.0571707386
C             5.8371881222        5.8370486378        5.8372013778
C             5.8400741904        5.8401348498       10.0564165211
C            10.0570113523       10.0571704575        5.8400327180
C             5.8396885347       10.0567389410        5.8397019543
C            10.0568020334        5.8400986463       10.0567971816
C            10.0567030226        5.8401551812        5.8400956308
C             5.8400196177       10.0571963388       10.0567279318
C             3.4830711737        3.4838672260        3.4830642337
C            12.4563939654       12.4563993620       12.4563924368
C            12.4563830668       12.4563969805        3.4406534860
C             3.4407870383        3.4407783342       12.4562976253
C            12.4563953728        3.4406556683       12.4563958001
C             3.4410443205       12.4560391562        3.4410446062
C             3.4406541250       12.4563962697       12.4563844744
C            12.4562965392        3.4407768964        3.4407860139
C            11.7036466893       11.7036390422       11.7036416006
C             4.1744468982        4.1761790745        4.1744483858
C             4.1933115171        4.1933038669       11.7037071337
C            11.7036590582       11.7036409481        4.1933976435
C             4.1931173426       11.7039535489        4.1931192804
C            11.7036404259        4.1933980975       11.7036358586
C            11.7037100970        4.1933046886        4.1933147687
C             4.1933944543       11.7036408517       11.7036551482
C             0.3342457495        1.9898846775        2.0096352284
C            15.5488736230       13.8954202190       13.8953329325
C            15.5485793784       13.8953331074        2.0017019559
C             0.3483471011        2.0018716902       13.8954438436
C            15.5486797075        2.0017109873       13.8955495448
C             0.3482529500       13.8953539792        2.0016019228
C             0.3480001085       13.8954457079       13.8953369324
C            15.5445129251        2.0021474319        2.0004872029
C             1.9995314389        0.3131614564        1.9994539260
C            13.8954149490       15.5495982302       13.8954439909
C             2.0016219774       15.5495149318       13.8955202543
C            13.8957242928        0.3482786577        2.0018115632
C            13.8954904752       15.5495115113        2.0015909503
C             2.0018418537        0.3482768862       13.8957539468
C            13.8953700994        0.3480101227       13.8953987977
C             2.0018509828       15.5411611494        2.0018248827
C             2.0096143975        1.9898253298        0.3357547002
C            13.8953490710       13.8954651452       15.5472969814
C            13.8955649589        2.0016660402       15.5471040998
C             2.0015873192       13.8954000670        0.3498280966
C             2.0016875746       13.8953790898       15.5470040477
C            13.8954605161        2.0018265414        0.3499240733
C            13.8953527192       13.8954910078        0.3495795749
C             2.0004758793        2.0021080160       15.5429588198
C             8.6126317634       10.2646830029       10.2647397139
C             7.2865975092        5.6326518590        5.6327377386
C             7.2842541011        5.6323724938       10.2647695105
C             8.6111018052       10.2648251585        5.6323466781
C             7.2865177380       10.2647065214        5.6324443011
C             8.6126797933        5.6323666963       10.2647595457
C             8.6114975050        5.6322162590        5.6322231168
C             7.2842988880       10.2646940021       10.2646963934
C            10.2646899952        8.6126060784       10.2647194663
C             5.6333636652        7.2853174223        5.6333598609
C            10.2648471102        7.2864632140        5.6323614217
C             5.6323659076        8.6110588789       10.2647964917
C             5.6323597656        7.2864360083       10.2648168531
C            10.2648271790        8.6110349099        5.6323713622
C             5.6322723538        8.6136791106        5.6322681424
C            10.2647038880        7.2842369189       10.2647039000
C            10.2647463107       10.2647191870        8.6110632159
C             5.6327519894        5.6326631713        7.2843808435
C             5.6324583859       10.2646967043        7.2843012629
C            10.2647595152        5.6323657304        8.6126835431
C            10.2647992383        5.6323742098        7.2842866006
C             5.6323765773       10.2647883478        8.6127057348
C             5.6322580062        5.6322527081        8.6131077363
C            10.2647357267       10.2647032622        7.2865470779
C             2.6375626847        2.6318037497        2.6375598416
C            13.2311807872       13.2312455148       13.2312142043
C            13.2311436589       13.2312853144        2.6657167901
C             2.6655474460        2.6657062833       13.2315962603
C            13.2312232917        2.6657946057       13.2312563513
C             2.6651484082       13.2312967034        2.6651131777
C             2.6657530251       13.2312856007       13.2311773946
C            13.2315629828        2.6657071791        2.6655122227
C            10.9287613368       10.9287510968       10.9288013631
C             4.9790227323        4.9777267591        4.9790175302
C             4.9682413414        4.9682344167       10.9288431465
C            10.9288344288       10.9288022899        4.9681848534
C             4.9685336015       10.9286644061        4.9685292834
C            10.9287711568        4.9681789347       10.9287738296
C            10.9288902787        4.9682220974        4.9682277003
C             4.9681960753       10.9287896721       10.9287874730
H             1.8151211714        3.0708076873        1.8150995530



     Writing config-only to output data dir ./pwscf.save/
     NEW-OLD atomic charge density approx. for the potential

     Check: negative core charge=   -0.000003

     negative rho (up, down):  1.015E-03 1.015E-03
     Generating pointlists ...

     total cpu time spent up to now is      255.9 secs

     Self-consistent Calculation

     iteration #  1     ecut=    50.00 Ry     beta= 0.30
     Davidson diagonalization with overlap
     c_bands:  5 eigenvalues not converged
     c_bands:  5 eigenvalues not converged
     ethr =  1.00E-06,  avg # of iterations = 20.0

     negative rho (up, down):  9.685E-04 9.685E-04

     total cpu time spent up to now is      320.5 secs

     total energy              =   -1761.36255413 Ry
     estimated scf accuracy    <       1.97774819 Ry

     total magnetization       =    -0.00 Bohr mag/cell
     absolute magnetization    =     0.00 Bohr mag/cell

     iteration #  2     ecut=    50.00 Ry     beta= 0.30
     Davidson diagonalization with overlap
     ethr =  5.14E-04,  avg # of iterations =  3.0

     negative rho (up, down):  9.519E-04 9.519E-04

     total cpu time spent up to now is      335.5 secs

     total energy              =   -1761.47429368 Ry
     estimated scf accuracy    <       0.43177387 Ry

     total magnetization       =     0.00 Bohr mag/cell
     absolute magnetization    =     0.02 Bohr mag/cell

     iteration #  3     ecut=    50.00 Ry     beta= 0.30
     Davidson diagonalization with overlap
     ethr =  1.12E-04,  avg # of iterations =  5.0

     negative rho (up, down):  9.528E-04 9.528E-04

     total cpu time spent up to now is      350.8 secs

     total energy              =   -1761.47605736 Ry
     estimated scf accuracy    <       0.31979422 Ry

     total magnetization       =     0.00 Bohr mag/cell
     absolute magnetization    =     0.02 Bohr mag/cell

     iteration #  4     ecut=    50.00 Ry     beta= 0.30
     Davidson diagonalization with overlap
     ethr =  8.31E-05,  avg # of iterations =  5.0

     negative rho (up, down):  9.541E-04 9.541E-04

     total cpu time spent up to now is      365.5 secs

     total energy              =   -1761.50573533 Ry
     estimated scf accuracy    <       0.07808458 Ry

     total magnetization       =    -0.00 Bohr mag/cell
     absolute magnetization    =     0.02 Bohr mag/cell

     iteration #  5     ecut=    50.00 Ry     beta= 0.30
     Davidson diagonalization with overlap
     ethr =  2.03E-05,  avg # of iterations =  8.0

     negative rho (up, down):  9.636E-04 9.636E-04

     total cpu time spent up to now is      380.8 secs

     total energy              =   -1761.51129464 Ry
     estimated scf accuracy    <       0.01112325 Ry

     total magnetization       =     0.00 Bohr mag/cell
     absolute magnetization    =     0.02 Bohr mag/cell

     iteration #  6     ecut=    50.00 Ry     beta= 0.30
     Davidson diagonalization with overlap
     c_bands:  1 eigenvalues not converged
     ethr =  2.89E-06,  avg # of iterations = 15.5

     negative rho (up, down):  9.822E-04 9.821E-04

     total cpu time spent up to now is      399.8 secs

     total energy              =   -1761.51240759 Ry
     estimated scf accuracy    <       0.00911004 Ry

     total magnetization       =    -0.00 Bohr mag/cell
     absolute magnetization    =     0.02 Bohr mag/cell

     iteration #  7     ecut=    50.00 Ry     beta= 0.30
     Davidson diagonalization with overlap
     ethr =  2.37E-06,  avg # of iterations =  1.5

     negative rho (up, down):  9.837E-04 9.836E-04

     total cpu time spent up to now is      413.3 secs

     total energy              =   -1761.51343944 Ry
     estimated scf accuracy    <       0.00051896 Ry

     total magnetization       =     0.00 Bohr mag/cell
     absolute magnetization    =     0.02 Bohr mag/cell

     iteration #  8     ecut=    50.00 Ry     beta= 0.30
     Davidson diagonalization with overlap
     ethr =  1.35E-07,  avg # of iterations = 13.0

     negative rho (up, down):  9.830E-04 9.829E-04

     total cpu time spent up to now is      434.1 secs

     total energy              =   -1761.51356162 Ry
     estimated scf accuracy    <       0.00035412 Ry

     total magnetization       =    -0.00 Bohr mag/cell
     absolute magnetization    =     0.01 Bohr mag/cell

     iteration #  9     ecut=    50.00 Ry     beta= 0.30
     Davidson diagonalization with overlap
     ethr =  9.20E-08,  avg # of iterations =  2.0

     negative rho (up, down):  9.901E-04 9.901E-04

     total cpu time spent up to now is      448.2 secs

     total energy              =   -1761.51357722 Ry
     estimated scf accuracy    <       0.00009681 Ry

     total magnetization       =    -0.00 Bohr mag/cell
     absolute magnetization    =     0.01 Bohr mag/cell

     iteration # 10     ecut=    50.00 Ry     beta= 0.30
     Davidson diagonalization with overlap
     ethr =  2.51E-08,  avg # of iterations =  3.0

     negative rho (up, down):  9.887E-04 9.887E-04

     total cpu time spent up to now is      463.8 secs

     total energy              =   -1761.51359053 Ry
     estimated scf accuracy    <       0.00003266 Ry

     total magnetization       =    -0.00 Bohr mag/cell
     absolute magnetization    =     0.00 Bohr mag/cell

     iteration # 11     ecut=    50.00 Ry     beta= 0.30
     Davidson diagonalization with overlap
     ethr =  8.48E-09,  avg # of iterations =  2.0

     negative rho (up, down):  9.875E-04 9.874E-04

     total cpu time spent up to now is      478.0 secs

     total energy              =   -1761.51359028 Ry
     estimated scf accuracy    <       0.00000916 Ry

     total magnetization       =     0.00 Bohr mag/cell
     absolute magnetization    =     0.00 Bohr mag/cell

     iteration # 12     ecut=    50.00 Ry     beta= 0.30
     Davidson diagonalization with overlap
     ethr =  2.38E-09,  avg # of iterations =  4.0

     negative rho (up, down):  9.868E-04 9.868E-04

     total cpu time spent up to now is      493.1 secs

     total energy              =   -1761.51359142 Ry
     estimated scf accuracy    <       0.00000127 Ry

     total magnetization       =     0.00 Bohr mag/cell
     absolute magnetization    =     0.00 Bohr mag/cell

     iteration # 13     ecut=    50.00 Ry     beta= 0.30
     Davidson diagonalization with overlap
     ethr =  3.29E-10,  avg # of iterations =  4.0

     negative rho (up, down):  9.866E-04 9.866E-04

     Magnetic moment per site  (integrated on atomic sphere of radius R)
     atom   1 (R=0.027)  charge=  0.8387  magn=  0.0000
     atom   2 (R=0.027)  charge=  0.8343  magn=  0.0000
     atom   3 (R=0.027)  charge=  0.8346  magn=  0.0000
     atom   4 (R=0.027)  charge=  0.8358  magn=  0.0000
     atom   5 (R=0.027)  charge=  0.8347  magn= -0.0000
     atom   6 (R=0.027)  charge=  0.8367  magn= -0.0000
     atom   7 (R=0.027)  charge=  0.8346  magn=  0.0000
     atom   8 (R=0.027)  charge=  0.8358  magn=  0.0000
     atom   9 (R=0.027)  charge=  0.8351  magn= -0.0000
     atom  10 (R=0.027)  charge=  0.8346  magn=  0.0000
     atom  11 (R=0.027)  charge=  0.8349  magn=  0.0000
     atom  12 (R=0.027)  charge=  0.8344  magn=  0.0000
     atom  13 (R=0.027)  charge=  0.8349  magn= -0.0000
     atom  14 (R=0.027)  charge=  0.8354  magn= -0.0000
     atom  15 (R=0.027)  charge=  0.8347  magn=  0.0000
     atom  16 (R=0.027)  charge=  0.8351  magn=  0.0000
     atom  17 (R=0.027)  charge=  0.8756  magn=  0.0000
     atom  18 (R=0.027)  charge=  0.8601  magn= -0.0000
     atom  19 (R=0.027)  charge=  0.8597  magn=  0.0000
     atom  20 (R=0.027)  charge=  0.8591  magn=  0.0000
     atom  21 (R=0.027)  charge=  0.8597  magn= -0.0000
     atom  22 (R=0.027)  charge=  0.8593  magn=  0.0000
     atom  23 (R=0.027)  charge=  0.8597  magn=  0.0000
     atom  24 (R=0.027)  charge=  0.8591  magn=  0.0000
     atom  25 (R=0.027)  charge=  0.8590  magn= -0.0000
     atom  26 (R=0.027)  charge=  0.8868  magn=  0.0000
     atom  27 (R=0.027)  charge=  0.8601  magn= -0.0000
     atom  28 (R=0.027)  charge=  0.8595  magn=  0.0000
     atom  29 (R=0.027)  charge=  0.8600  magn= -0.0000
     atom  30 (R=0.027)  charge=  0.8595  magn= -0.0000
     atom  31 (R=0.027)  charge=  0.8600  magn= -0.0000
     atom  32 (R=0.027)  charge=  0.8594  magn=  0.0000
     atom  33 (R=0.027)  charge=  0.8424  magn=  0.0000
     atom  34 (R=0.027)  charge=  0.8399  magn= -0.0000
     atom  35 (R=0.027)  charge=  0.8401  magn= -0.0000
     atom  36 (R=0.027)  charge=  0.8402  magn= -0.0000
     atom  37 (R=0.027)  charge=  0.8397  magn=  0.0000
     atom  38 (R=0.027)  charge=  0.8397  magn=  0.0000
     atom  39 (R=0.027)  charge=  0.8398  magn=  0.0000
     atom  40 (R=0.027)  charge=  0.8434  magn= -0.0000
     atom  41 (R=0.027)  charge=  0.8650  magn=  0.0000
     atom  42 (R=0.027)  charge=  0.8397  magn= -0.0000
     atom  43 (R=0.027)  charge=  0.8394  magn=  0.0000
     atom  44 (R=0.027)  charge=  0.8400  magn=  0.0000
     atom  45 (R=0.027)  charge=  0.8394  magn= -0.0000
     atom  46 (R=0.027)  charge=  0.8400  magn= -0.0000
     atom  47 (R=0.027)  charge=  0.8399  magn=  0.0000
     atom  48 (R=0.027)  charge=  0.8519  magn= -0.0000
     atom  49 (R=0.027)  charge=  0.8412  magn=  0.0000
     atom  50 (R=0.027)  charge=  0.8388  magn= -0.0000
     atom  51 (R=0.027)  charge=  0.8386  magn=  0.0000
     atom  52 (R=0.027)  charge=  0.8387  magn=  0.0000
     atom  53 (R=0.027)  charge=  0.8390  magn= -0.0000
     atom  54 (R=0.027)  charge=  0.8391  magn= -0.0000
     atom  55 (R=0.027)  charge=  0.8388  magn=  0.0000
     atom  56 (R=0.027)  charge=  0.8422  magn= -0.0000
     atom  57 (R=0.027)  charge=  0.8390  magn=  0.0000
     atom  58 (R=0.027)  charge=  0.8389  magn= -0.0000
     atom  59 (R=0.027)  charge=  0.8388  magn= -0.0000
     atom  60 (R=0.027)  charge=  0.8401  magn= -0.0000
     atom  61 (R=0.027)  charge=  0.8396  magn=  0.0000
     atom  62 (R=0.027)  charge=  0.8390  magn=  0.0000
     atom  63 (R=0.027)  charge=  0.8401  magn=  0.0000
     atom  64 (R=0.027)  charge=  0.8390  magn= -0.0000
     atom  65 (R=0.027)  charge=  0.8389  magn= -0.0000
     atom  66 (R=0.027)  charge=  0.8384  magn= -0.0000
     atom  67 (R=0.027)  charge=  0.8398  magn=  0.0000
     atom  68 (R=0.027)  charge=  0.8399  magn= -0.0000
     atom  69 (R=0.027)  charge=  0.8398  magn=  0.0000
     atom  70 (R=0.027)  charge=  0.8399  magn= -0.0000
     atom  71 (R=0.027)  charge=  0.8396  magn=  0.0000
     atom  72 (R=0.027)  charge=  0.8391  magn=  0.0000
     atom  73 (R=0.027)  charge=  0.8400  magn=  0.0000
     atom  74 (R=0.027)  charge=  0.8379  magn=  0.0000
     atom  75 (R=0.027)  charge=  0.8387  magn=  0.0000
     atom  76 (R=0.027)  charge=  0.8391  magn=  0.0000
     atom  77 (R=0.027)  charge=  0.8389  magn= -0.0000
     atom  78 (R=0.027)  charge=  0.8392  magn= -0.0000
     atom  79 (R=0.027)  charge=  0.8393  magn= -0.0000
     atom  80 (R=0.027)  charge=  0.8400  magn= -0.0000
     atom  81 (R=0.027)  charge=  0.8226  magn= -0.0000
     atom  82 (R=0.027)  charge=  0.8290  magn=  0.0000
     atom  83 (R=0.027)  charge=  0.8294  magn= -0.0000
     atom  84 (R=0.027)  charge=  0.8300  magn= -0.0000
     atom  85 (R=0.027)  charge=  0.8295  magn=  0.0000
     atom  86 (R=0.027)  charge=  0.8298  magn= -0.0000
     atom  87 (R=0.027)  charge=  0.8294  magn= -0.0000
     atom  88 (R=0.027)  charge=  0.8300  magn= -0.0000
     atom  89 (R=0.027)  charge=  0.8295  magn=  0.0000
     atom  90 (R=0.027)  charge=  0.8245  magn= -0.0000
     atom  91 (R=0.027)  charge=  0.8289  magn=  0.0000
     atom  92 (R=0.027)  charge=  0.8296  magn= -0.0000
     atom  93 (R=0.027)  charge=  0.8292  magn=  0.0000
     atom  94 (R=0.027)  charge=  0.8295  magn=  0.0000
     atom  95 (R=0.027)  charge=  0.8290  magn=  0.0000
     atom  96 (R=0.027)  charge=  0.8295  magn= -0.0000
     atom  97 (R=0.027)  charge=  0.4370  magn=  0.0000

     total cpu time spent up to now is      508.8 secs

     End of self-consistent calculation

 ------ SPIN UP ------------


          k = 0.0000 0.0000 0.0000 ( 90978 PWs)   bands (ev):

   -21.6660 -21.1421 -21.1308 -21.0310 -21.0062 -20.9625 -20.9593 -20.9478
   -20.9026 -20.8314 -20.8156 -20.7716 -20.7691 -20.7566 -20.6365 -20.5547
   -18.4657 -18.3867 -18.3768 -18.3684 -18.3606 -18.3511 -18.3334 -18.2989
   -17.1958 -17.0360 -16.9361 -16.9270 -16.9008 -16.8977 -16.8872 -16.8825
   -16.8651 -16.8534 -16.8375 -16.7703 -16.7641 -16.7445 -16.7292 -16.7223
   -16.7016 -16.4960 -16.4916 -16.4779 -16.2656 -16.1810 -16.1414 -16.1315
   -15.9409 -15.9362 -15.8712 -15.8157 -15.5113 -15.5068 -15.3815 -14.8257
   -14.7957 -14.5705 -14.5216 -14.5122 -14.4170 -14.3716 -14.3550 -13.8371
   -13.6858 -13.3513 -13.3444 -13.2951 -13.2909 -13.2874 -13.2839 -13.2548
   -13.2059 -13.1942 -12.9808 -12.9201 -12.9028 -12.7025 -12.6348 -12.6165
   -12.5597 -12.5440 -12.5381 -12.4551 -12.1536 -12.0762 -12.0371 -12.0163
   -11.9179 -11.8692 -11.8513 -11.7210 -11.6430 -11.5829 -11.5285 -11.5050
   -11.4990 -11.4933 -11.4844 -11.4595 -11.4480 -11.3848 -11.3831 -11.3792
   -11.3579 -11.3368 -11.3328 -11.3233 -11.3124 -11.2781 -11.2677 -11.2565
    -7.3863  -7.2137  -7.2004  -7.1904  -7.1788  -7.1766  -7.1644  -7.1580
    -7.1547  -7.1518  -7.1501  -7.1479  -7.1446  -7.1437  -7.1073  -7.1037
    -6.5313  -6.5241  -6.3849  -6.3711  -6.3571  -6.3114  -6.3082  -6.2545
    -6.2452  -6.2415  -6.1249  -6.0330  -5.9951  -5.8574  -5.8310  -5.7916
    -5.7579  -5.7501  -5.7061  -5.6773  -5.6558  -5.6496  -5.6306  -5.6285
    -5.6154  -5.6097  -5.6047  -5.5891  -5.5844  -5.5810  -5.5750  -5.5723
    -5.5686  -5.5536  -5.5503  -5.5501  -5.3164  -4.9115  -4.8766  -4.7166
    -4.7104  -4.6952  -4.6925  -4.6719  -4.6664  -4.6560  -4.6497  -4.6207
    -4.6020  -4.5627  -4.5191  -4.5162  -4.5131  -4.4912  -4.4539  -4.4107
    -4.3317  -4.2662  -4.1892  -4.1776  -4.1636  -4.1617  -4.1422  -3.9813
    -2.7249  -1.9168  -1.7810  -1.6921  -1.6012  -1.5968  -1.5866  -1.5826
    -1.5772  -1.5611  -1.5450  -1.5270  -1.5090  -1.4499  -1.4437  -1.4337
    -1.3395  -1.3220  -1.2723  -1.2679  -1.2416  -1.2345  -1.2217  -1.1259
    -1.1240  -1.0585  -1.0519  -1.0352   0.1147   0.2134   0.2339   0.2578
     0.2767   0.3154   0.4088   0.4319   0.4400   0.4714   0.4829

 ------ SPIN DOWN ----------


          k = 0.0000 0.0000 0.0000 ( 90978 PWs)   bands (ev):

   -21.6660 -21.1421 -21.1308 -21.0310 -21.0062 -20.9625 -20.9593 -20.9478
   -20.9026 -20.8314 -20.8156 -20.7716 -20.7691 -20.7566 -20.6365 -20.5547
   -18.4656 -18.3867 -18.3767 -18.3684 -18.3606 -18.3510 -18.3334 -18.2989
   -17.1958 -17.0360 -16.9361 -16.9270 -16.9008 -16.8977 -16.8872 -16.8825
   -16.8651 -16.8534 -16.8374 -16.7702 -16.7641 -16.7445 -16.7292 -16.7223
   -16.7016 -16.4960 -16.4916 -16.4779 -16.2656 -16.1810 -16.1414 -16.1315
   -15.9409 -15.9362 -15.8712 -15.8157 -15.5112 -15.5068 -15.3815 -14.8257
   -14.7957 -14.5705 -14.5216 -14.5122 -14.4170 -14.3716 -14.3550 -13.8371
   -13.6858 -13.3513 -13.3444 -13.2951 -13.2909 -13.2874 -13.2839 -13.2548
   -13.2060 -13.1942 -12.9808 -12.9201 -12.9028 -12.7025 -12.6348 -12.6165
   -12.5597 -12.5440 -12.5381 -12.4551 -12.1535 -12.0762 -12.0371 -12.0163
   -11.9179 -11.8692 -11.8513 -11.7210 -11.6430 -11.5829 -11.5285 -11.5050
   -11.4990 -11.4933 -11.4844 -11.4595 -11.4480 -11.3848 -11.3831 -11.3792
   -11.3579 -11.3368 -11.3328 -11.3233 -11.3124 -11.2781 -11.2677 -11.2565
    -7.3863  -7.2137  -7.2004  -7.1903  -7.1788  -7.1766  -7.1644  -7.1580
    -7.1548  -7.1518  -7.1501  -7.1479  -7.1446  -7.1437  -7.1073  -7.1037
    -6.5313  -6.5241  -6.3849  -6.3711  -6.3571  -6.3114  -6.3082  -6.2545
    -6.2452  -6.2415  -6.1249  -6.0330  -5.9951  -5.8574  -5.8310  -5.7916
    -5.7579  -5.7502  -5.7061  -5.6773  -5.6557  -5.6495  -5.6306  -5.6284
    -5.6154  -5.6097  -5.6047  -5.5890  -5.5843  -5.5811  -5.5750  -5.5722
    -5.5686  -5.5536  -5.5503  -5.5501  -5.3164  -4.9115  -4.8766  -4.7166
    -4.7104  -4.6952  -4.6925  -4.6719  -4.6664  -4.6560  -4.6497  -4.6207
    -4.6021  -4.5627  -4.5191  -4.5161  -4.5131  -4.4912  -4.4539  -4.4107
    -4.3317  -4.2662  -4.1892  -4.1775  -4.1636  -4.1617  -4.1422  -3.9813
    -2.7249  -1.9169  -1.7810  -1.6921  -1.6012  -1.5968  -1.5866  -1.5826
    -1.5772  -1.5611  -1.5450  -1.5270  -1.5090  -1.4499  -1.4437  -1.4337
    -1.3396  -1.3220  -1.2724  -1.2679  -1.2417  -1.2345  -1.2217  -1.1259
    -1.1240  -1.0585  -1.0519  -1.0352   0.1147   0.2133   0.2340   0.2578
     0.2767   0.3153   0.4087   0.4319   0.4400   0.4714   0.4828

     the spin up/dw Fermi energies are    -2.7249   -2.7249 ev

!    total energy              =   -1761.51359156 Ry
     estimated scf accuracy    <       0.00000033 Ry
     smearing contrib. (-TS)   =      -0.00005642 Ry
     internal energy E=F+TS    =   -1761.51353514 Ry

     The total energy is F=E-TS. E is the sum of the following terms:
     one-electron contribution =   -3711.09502072 Ry
     hartree contribution      =    1918.42261972 Ry
     xc contribution           =    -431.01207574 Ry
     ewald contribution        =    1054.02145985 Ry
     one-center paw contrib.   =    -591.85051825 Ry

     total magnetization       =     0.00 Bohr mag/cell
     absolute magnetization    =     0.00 Bohr mag/cell

     convergence has been achieved in  13 iterations

     negative rho (up, down):  9.866E-04 9.866E-04

     Forces acting on atoms (cartesian axes, Ry/au):

     atom    1 type  1   force =     0.00220313   -0.09249410    0.00365474
     atom    2 type  1   force =    -0.01494932   -0.01466179   -0.01699064
     atom    3 type  1   force =    -0.01532557   -0.01486229    0.01645247
     atom    4 type  1   force =     0.01434116    0.01626964   -0.02093131
     atom    5 type  1   force =    -0.01502517    0.01451732   -0.01705870
     atom    6 type  1   force =     0.01532344   -0.02005750    0.01734447
     atom    7 type  1   force =     0.01442025   -0.01486673   -0.01736741
     atom    8 type  1   force =    -0.01888314    0.01624049    0.01637001
     atom    9 type  1   force =     0.01624795    0.01625403    0.01422405
     atom   10 type  1   force =    -0.00978705   -0.01025068   -0.01196932
     atom   11 type  1   force =    -0.01670609   -0.01437257    0.01650165
     atom   12 type  1   force =     0.01465006    0.01465913   -0.01483416
     atom   13 type  1   force =    -0.01453206    0.01695848   -0.01675443
     atom   14 type  1   force =     0.01604042   -0.01645436    0.01605038
     atom   15 type  1   force =     0.01468309   -0.01460495   -0.01691715
     atom   16 type  1   force =    -0.01661916    0.01417205    0.01620938
     atom   17 type  1   force =    -0.32099706   -0.34538637   -0.32100405
     atom   18 type  1   force =     0.20677460    0.20680513    0.20680491
     atom   19 type  1   force =     0.20682677    0.20689205   -0.20718729
     atom   20 type  1   force =    -0.20794282   -0.20788688    0.20755584
     atom   21 type  1   force =     0.20680929   -0.20709181    0.20683765
     atom   22 type  1   force =    -0.20868544    0.20808915   -0.20870006
     atom   23 type  1   force =    -0.20713682    0.20688012    0.20683954
     atom   24 type  1   force =     0.20754365   -0.20789874   -0.20798162
     atom   25 type  1   force =    -0.20713547   -0.20713983   -0.20709985
     atom   26 type  1   force =     0.31645649    0.31541864    0.31646663
     atom   27 type  1   force =     0.20708823    0.20706145   -0.20730888
     atom   28 type  1   force =    -0.20709754   -0.20712193    0.20681588
     atom   29 type  1   force =     0.20762753   -0.20798854    0.20763288
     atom   30 type  1   force =    -0.20708056    0.20676849   -0.20707204
     atom   31 type  1   force =    -0.20728564    0.20705559    0.20708098
     atom   32 type  1   force =     0.20680925   -0.20710654   -0.20710024
     atom   33 type  1   force =    -0.28817243   -0.01345518    0.00566941
     atom   34 type  1   force =     0.32728391   -0.00949573   -0.00974821
     atom   35 type  1   force =     0.32877080   -0.00969966    0.00990782
     atom   36 type  1   force =    -0.32933324    0.00993971   -0.01037366
     atom   37 type  1   force =     0.32839845    0.00982137   -0.00954271
     atom   38 type  1   force =    -0.32910444   -0.01006460    0.00985689
     atom   39 type  1   force =    -0.32707540   -0.00954132   -0.00969281
     atom   40 type  1   force =     0.30532203    0.00313147    0.01206643
     atom   41 type  1   force =    -0.00026520   -0.35690277   -0.00015895
     atom   42 type  1   force =    -0.00951676    0.32731837   -0.00956723
     atom   43 type  1   force =     0.00981011    0.32791976   -0.00899677
     atom   44 type  1   force =    -0.00892593   -0.32748093    0.00990359
     atom   45 type  1   force =    -0.00895094    0.32793688    0.00986094
     atom   46 type  1   force =     0.00985388   -0.32745767   -0.00896380
     atom   47 type  1   force =    -0.00965872   -0.32779348   -0.00970857
     atom   48 type  1   force =     0.01056951    0.27056223    0.01061866
     atom   49 type  1   force =     0.00580744   -0.01292930   -0.29765149
     atom   50 type  1   force =    -0.00999438   -0.00979268    0.33702150
     atom   51 type  1   force =    -0.00978840    0.01011534    0.33809811
     atom   52 type  1   force =     0.01010222   -0.01035712   -0.33880918
     atom   53 type  1   force =     0.01014983   -0.00999806    0.33847370
     atom   54 type  1   force =    -0.01062354    0.01023598   -0.33905579
     atom   55 type  1   force =    -0.00993943   -0.00984052   -0.33681826
     atom   56 type  1   force =     0.01233715    0.00326484    0.31533190
     atom   57 type  1   force =    -0.33693563    0.01018465    0.01016974
     atom   58 type  1   force =     0.32686157   -0.00981695   -0.00833845
     atom   59 type  1   force =     0.33717242   -0.00990629    0.01018139
     atom   60 type  1   force =    -0.32779379    0.01002956   -0.00966511
     atom   61 type  1   force =     0.32772303    0.00975854   -0.00957059
     atom   62 type  1   force =    -0.33717456   -0.01004581    0.01033186
     atom   63 type  1   force =    -0.32722206   -0.01018354   -0.01028569
     atom   64 type  1   force =     0.33703637    0.01009192    0.01017446
     atom   65 type  1   force =     0.01016328   -0.33688032    0.01010960
     atom   66 type  1   force =    -0.00842999    0.33408781   -0.00856762
     atom   67 type  1   force =     0.00994893    0.32784320   -0.00972133
     atom   68 type  1   force =    -0.00971778   -0.32806285    0.01004922
     atom   69 type  1   force =    -0.00973173    0.32791691    0.00999727
     atom   70 type  1   force =     0.00999373   -0.32783674   -0.00961064
     atom   71 type  1   force =    -0.01062450   -0.33274595   -0.01073921
     atom   72 type  1   force =     0.01018413    0.33720625    0.01018950
     atom   73 type  1   force =     0.00994472    0.00989384   -0.32800188
     atom   74 type  1   force =    -0.00854749   -0.01016119    0.33616606
     atom   75 type  1   force =    -0.00977975    0.01007425    0.33703385
     atom   76 type  1   force =     0.01034422   -0.01003809   -0.33717563
     atom   77 type  1   force =     0.01013413   -0.00989412    0.33705414
     atom   78 type  1   force =    -0.01004502    0.01034032   -0.33703478
     atom   79 type  1   force =    -0.01057041   -0.01049527   -0.33636211
     atom   80 type  1   force =     0.00980475    0.00977211    0.32748459
     atom   81 type  1   force =     0.06067240    0.22981892    0.06071604
     atom   82 type  1   force =    -0.14845710   -0.14836994   -0.14853436
     atom   83 type  1   force =    -0.14858720   -0.14843316    0.14882255
     atom   84 type  1   force =     0.14972939    0.14990556   -0.15039531
     atom   85 type  1   force =    -0.14862079    0.14881483   -0.14869731
     atom   86 type  1   force =     0.15004370   -0.15158889    0.15011952
     atom   87 type  1   force =     0.14873746   -0.14842231   -0.14865534
     atom   88 type  1   force =    -0.15032402    0.14991248    0.14981556
     atom   89 type  1   force =     0.14882716    0.14881130    0.14874660
     atom   90 type  1   force =    -0.13600950   -0.13630829   -0.13611669
     atom   91 type  1   force =    -0.14838254   -0.14820314    0.14877207
     atom   92 type  1   force =     0.14858216    0.14853366   -0.14825466
     atom   93 type  1   force =    -0.14822498    0.14931760   -0.14836948
     atom   94 type  1   force =     0.14874285   -0.14853199    0.14874184
     atom   95 type  1   force =     0.14862540   -0.14814266   -0.14831895
     atom   96 type  1   force =    -0.14852854    0.14865545    0.14878387
     atom   97 type  2   force =     0.08472263    0.18386524    0.08466962

     Total force =     2.958696     Total SCF correction =     0.000918
     Energy error            =      1.1E+00 Ry
     Gradient error          =      3.6E-01 Ry/Bohr

     number of scf cycles    =   2
     number of bfgs steps    =   1

     energy             old  =   -1762.5822528701 Ry
     energy             new  =   -1761.5135915566 Ry

     CASE: energy            _new > energy            _old

     new trust radius        =       0.0936158328 bohr
     new conv_thr            =       0.0000010000 Ry


ATOMIC_POSITIONS (angstrom)
C             1.8095557474        1.7795392247        1.8094915864
C            14.0896004761       14.0896353230       14.0896919712
C            14.0896615144       14.0895865871        1.8073255124
C             1.8073108782        1.8075801930       14.0892674334
C            14.0895222583        1.8073672424       14.0896132417
C             1.8075177925       14.0892490337        1.8074293582
C             1.8074154054       14.0895865281       14.0897524043
C            14.0891781907        1.8075813241        1.8072218685
C            10.0702601478       10.0702825124       10.0703510085
C             5.8258566199        5.8258147730        5.8258605967
C             5.8267224730        5.8267406715       10.0701247347
C            10.0703031908       10.0703509241        5.8267100308
C             5.8266067719       10.0702214643        5.8266107979
C            10.0702403927        5.8267298101       10.0702389371
C            10.0702106884        5.8267467712        5.8267289054
C             5.8267061006       10.0703586888       10.0702181614
C             3.4165224282        3.4167612529        3.4165203461
C            12.4932175942       12.4932192132       12.4932171356
C            12.4932143245       12.4932184988        3.4037966417
C             3.4038367089        3.4038340976       12.4931886911
C            12.4932180164        3.4037972965       12.4932181446
C             3.4039138965       12.4931111475        3.4039139822
C             3.4037968335       12.4932182855       12.4932147468
C            12.4931883652        3.4038336663        3.4038364016
C            11.6667946027       11.6667923085       11.6667930760
C             4.2245332596        4.2250529321        4.2245337059
C             4.2301928588        4.2301905636       11.6668127367
C            11.6667983135       11.6667928802        4.2302186977
C             4.2301346042       11.6668866640        4.2301351856
C            11.6667927236        4.2302188339       11.6667913533
C            11.6668136257        4.2301908102        4.2301938343
C             4.2302177409       11.6667928513       11.6667971404
C             0.2990742935        1.9969652888        2.0028906776
C            15.5937613611       13.8965260478       13.8964998609
C            15.5936730844       13.8964999134        2.0005106060
C             0.3033048586        2.0005615282       13.8965331355
C            15.5937031843        2.0005133156       13.8965648470
C             0.3032766122       13.8965061751        2.0004805950
C             0.3032007569       13.8965336948       13.8965010609
C            15.5924531024        2.0006442539        2.0001461664
C             1.9998594264        0.2927487670        1.9998361716
C            13.8965244668       15.5946787402       13.8965331796
C             2.0004866116       15.5946537497       13.8965560596
C            13.8966172734        0.3032843248        2.0005434895
C            13.8965471255       15.5946527235        2.0004773031
C             2.0005525770        0.3032837934       13.8966261699
C            13.8965110114        0.3032037613       13.8965196212
C             2.0005553158       15.5921475204        2.0005474855
C             2.0028844281        1.9969474838        0.2988270071
C            13.8965047026       13.8965395262       15.5939883395
C            13.8965694714        2.0004998309       15.5939304728
C             2.0004762137       13.8965200020        0.3030491854
C             2.0005062915       13.8965137086       15.5939004560
C            13.8965381374        2.0005479831        0.3030779795
C            13.8965057971       13.8965472852        0.3029746260
C             2.0001427692        2.0006324287       15.5926868419
C             8.5659902832       10.2635049199       10.2635219339
C             7.3316785238        5.6335955424        5.6336213073
C             7.3309754749        5.6335117297       10.2635308732
C             8.5662312671       10.2635475682        5.6335039847
C             7.3316545916       10.2635119757        5.6335332727
C             8.5660046927        5.6335099904       10.2635278836
C             8.5663499815        5.6334648575        5.6334669149
C             7.3309889115       10.2635082198       10.2635089372
C            10.2635070177        8.5659825774       10.2635158594
C             5.6338090924        7.3312944833        5.6338079510
C            10.2635541540        7.3316382338        5.6335084080
C             5.6335097538        8.5662183887       10.2635389678
C             5.6335079111        7.3316300717       10.2635450765
C            10.2635481744        8.5662111977        5.6335113902
C             5.6334816866        8.5663044992        5.6334804231
C            10.2635111857        7.3309703200       10.2635111893
C            10.2635239130       10.2635157756        8.5662196898
C             5.6336255827        5.6335989362        7.3310134990
C             5.6335374983       10.2635090305        7.3309896239
C            10.2635278745        5.6335097006        8.5660058177
C            10.2635397918        5.6335122445        7.3309852251
C             5.6335129548       10.2635365246        8.5660124754
C             5.6334773822        5.6334757927        8.5661330804
C            10.2635207377       10.2635109979        7.3316633939
C             2.6735682232        2.6718404776        2.6735673703
C            13.2149544985       13.2149739175       13.2149645240
C            13.2149433596       13.2149858579        2.6820147735
C             2.6819639683        2.6820116213       13.2150791452
C            13.2149672504        2.6820381191       13.2149771686
C             2.6818442525       13.2149892747        2.6818336829
C             2.6820256444       13.2149859438       13.2149534807
C            13.2150691615        2.6820118901        2.6819534010
C            10.9450281380       10.9450250659       10.9450401464
C             4.9552072048        4.9548183981        4.9552056441
C             4.9519726655        4.9519705880       10.9450526819
C            10.9450500665       10.9450404244        4.9519557184
C             4.9520603468       10.9449990577        4.9520590513
C            10.9450310841        4.9519539427       10.9450318860
C            10.9450668220        4.9519668920        4.9519685730
C             4.9519590851       10.9450366389       10.9450359792
H             1.8136363754        2.9603440923        1.8136298897



     Writing config-only to output data dir ./pwscf.save/
     NEW-OLD atomic charge density approx. for the potential

     Check: negative core charge=   -0.000003

     negative rho (up, down):  1.072E-03 1.072E-03
     Generating pointlists ...

     total cpu time spent up to now is      524.8 secs

     Self-consistent Calculation

     iteration #  1     ecut=    50.00 Ry     beta= 0.30
     Davidson diagonalization with overlap
     c_bands:  3 eigenvalues not converged
     c_bands:  3 eigenvalues not converged
     ethr =  1.00E-06,  avg # of iterations = 20.0

     negative rho (up, down):  1.103E-03 1.103E-03

     total cpu time spent up to now is      583.8 secs

     total energy              =   -1762.73031330 Ry
     estimated scf accuracy    <       0.93453253 Ry

     total magnetization       =     0.00 Bohr mag/cell
     absolute magnetization    =     0.00 Bohr mag/cell

     iteration #  2     ecut=    50.00 Ry     beta= 0.30
     Davidson diagonalization with overlap
     ethr =  2.43E-04,  avg # of iterations =  2.0

     negative rho (up, down):  1.124E-03 1.124E-03

     total cpu time spent up to now is      598.5 secs

     total energy              =   -1762.78360902 Ry
     estimated scf accuracy    <       0.15684855 Ry

     total magnetization       =     0.00 Bohr mag/cell
     absolute magnetization    =     0.00 Bohr mag/cell

     iteration #  3     ecut=    50.00 Ry     beta= 0.30
     Davidson diagonalization with overlap
     ethr =  4.07E-05,  avg # of iterations =  2.0

     negative rho (up, down):  1.162E-03 1.162E-03

     total cpu time spent up to now is      613.7 secs

     total energy              =   -1762.78822337 Ry
     estimated scf accuracy    <       0.03548493 Ry

     total magnetization       =    -0.00 Bohr mag/cell
     absolute magnetization    =     0.00 Bohr mag/cell

     iteration #  4     ecut=    50.00 Ry     beta= 0.30
     Davidson diagonalization with overlap
     ethr =  9.22E-06,  avg # of iterations =  7.5

     negative rho (up, down):  1.150E-03 1.150E-03

     total cpu time spent up to now is      631.6 secs

     total energy              =   -1762.79193459 Ry
     estimated scf accuracy    <       0.00767789 Ry

     total magnetization       =    -0.00 Bohr mag/cell
     absolute magnetization    =     0.00 Bohr mag/cell

     iteration #  5     ecut=    50.00 Ry     beta= 0.30
     Davidson diagonalization with overlap
     c_bands:  1 eigenvalues not converged
     c_bands:  2 eigenvalues not converged
     ethr =  1.99E-06,  avg # of iterations = 20.0

     negative rho (up, down):  1.160E-03 1.160E-03

     total cpu time spent up to now is      650.8 secs

     total energy              =   -1762.79208169 Ry
     estimated scf accuracy    <       0.00244641 Ry

     total magnetization       =     0.00 Bohr mag/cell
     absolute magnetization    =     0.00 Bohr mag/cell

     iteration #  6     ecut=    50.00 Ry     beta= 0.30
     Davidson diagonalization with overlap
     ethr =  6.35E-07,  avg # of iterations =  4.0

     negative rho (up, down):  1.141E-03 1.141E-03

     total cpu time spent up to now is      667.6 secs

     total energy              =   -1762.79256306 Ry
     estimated scf accuracy    <       0.00042468 Ry

[...]

 ------ SPIN DOWN ----------


          k = 0.0000 0.0000 0.0000 ( 90978 PWs)   bands (ev):

   -20.4834 -20.4489 -20.2687 -20.2664 -20.2616 -20.2460 -20.2348 -20.1892
   -20.0198 -20.0151 -20.0142 -19.9888 -19.9800 -19.8960 -19.7152 -19.6245
   -18.3606 -18.2444 -18.2270 -18.2237 -18.1983 -18.1822 -18.1788 -18.0756
   -17.2756 -17.2747 -17.2630 -17.2614 -17.2592 -17.2585 -17.2571 -17.2451
   -17.2365 -17.2218 -17.1500 -17.1363 -17.1306 -17.1199 -17.1117 -17.1076
   -17.1023 -16.6989 -16.6730 -16.6717 -16.6572 -16.2910 -16.2861 -16.2822
   -16.2161 -16.2155 -16.1829 -15.8296 -15.8276 -15.8157 -15.7435 -15.2755
   -14.1531 -13.9207 -13.8906 -13.8868 -13.8385 -13.8068 -13.8021 -13.5855
   -12.5428 -12.5381 -12.5357 -12.5278 -12.5203 -12.4930 -12.4418 -12.4385
   -12.4341 -12.3968 -12.3582 -12.3415 -12.3081 -12.1465 -12.1338 -12.1118
   -12.0645 -12.0505 -12.0278 -11.9305 -11.7787 -11.6420 -11.6334 -11.5686
   -11.5085 -11.4780 -11.4588 -11.3591 -11.2955 -11.2099 -11.1994 -11.1555
   -11.0981 -11.0724 -11.0589 -11.0357 -11.0328 -11.0089 -10.9995 -10.9841
   -10.9592 -10.9245 -10.8965 -10.8944 -10.8880 -10.8734 -10.8212 -10.3936
    -9.2481  -7.1802  -7.1655  -7.1444  -7.1336  -7.1257  -7.1076  -7.0963
    -7.0935  -7.0932  -7.0896  -7.0894  -7.0858  -7.0852  -7.0827  -7.0803
    -6.6933  -6.6154  -6.5670  -6.4577  -6.4492  -6.4190  -6.3948  -6.3923
    -6.3597  -6.3516  -6.3223  -6.2230  -6.1379  -6.0018  -5.9980  -5.9735
    -5.9196  -5.9057  -5.8744  -5.8137  -5.8097  -5.8048  -5.8012  -5.8004
    -5.8002  -5.7980  -5.7949  -5.7941  -5.7894  -5.7840  -5.7828  -5.7825
    -5.7743  -5.7736  -5.7640  -5.7627  -5.6286  -5.1923  -5.1884  -5.0532
    -5.0492  -5.0413  -5.0405  -5.0314  -5.0093  -4.9962  -4.9818  -4.9780
    -4.9720  -4.9400  -4.9170  -4.9001  -4.8969  -4.8941  -4.8687  -4.8267
    -4.8032  -4.7124  -4.6915  -4.6655  -4.6602  -4.6597  -4.6538  -4.6055
    -2.9556  -1.0468  -1.0348  -0.9966  -0.7612  -0.7599  -0.7518  -0.7260
    -0.7192  -0.7126  -0.7027  -0.6951  -0.6838  -0.6663  -0.6407  -0.6397
    -0.5839  -0.5327  -0.5199  -0.4392  -0.4252  -0.4200  -0.4129  -0.3937
    -0.3289  -0.3204  -0.3117  -0.3115   0.7857   0.8127   0.8208   0.8339
     0.8921   0.9267   0.9306   0.9750   1.0685   1.0722   1.1045

     the spin up/dw Fermi energies are    -2.9556   -2.9556 ev

!    total energy              =   -1763.11344522 Ry
     estimated scf accuracy    <          8.7E-09 Ry
     smearing contrib. (-TS)   =      -0.00005642 Ry
     internal energy E=F+TS    =   -1763.11338880 Ry

     The total energy is F=E-TS. E is the sum of the following terms:
     one-electron contribution =   -3696.99068162 Ry
     hartree contribution      =    1914.16754465 Ry
     xc contribution           =    -433.46814687 Ry
     ewald contribution        =    1045.20595385 Ry
     one-center paw contrib.   =    -592.02805881 Ry

     total magnetization       =    -0.00 Bohr mag/cell
     absolute magnetization    =     0.00 Bohr mag/cell

     convergence has been achieved in   6 iterations

     negative rho (up, down):  1.116E-03 1.116E-03

     Forces acting on atoms (cartesian axes, Ry/au):

     atom    1 type  1   force =    -0.00007485    0.00003902   -0.00002183
     atom    2 type  1   force =     0.00006162   -0.00008632    0.00002003
     atom    3 type  1   force =     0.00008974   -0.00003728   -0.00001660
     atom    4 type  1   force =     0.00006184   -0.00001346    0.00009566
     atom    5 type  1   force =    -0.00006726   -0.00013680   -0.00004169
     atom    6 type  1   force =    -0.00008853    0.00008334    0.00000885
     atom    7 type  1   force =    -0.00006386   -0.00000275   -0.00000242
     atom    8 type  1   force =     0.00014955    0.00001249    0.00003451
     atom    9 type  1   force =    -0.00003363   -0.00021951   -0.00003221
     atom   10 type  1   force =    -0.00000084   -0.00000140    0.00000004
     atom   11 type  1   force =    -0.00006974    0.00012302   -0.00014793
     atom   12 type  1   force =     0.00013631    0.00020238    0.00002543
     atom   13 type  1   force =     0.00005950    0.00007912    0.00006239
     atom   14 type  1   force =     0.00002255   -0.00018544    0.00001900
     atom   15 type  1   force =    -0.00014650    0.00012280   -0.00006841
     atom   16 type  1   force =     0.00002380    0.00020752    0.00013760
     atom   17 type  1   force =    -0.00012224    0.00011363   -0.00012262
     atom   18 type  1   force =     0.00011391    0.00011460    0.00011435
     atom   19 type  1   force =     0.00024542    0.00020642   -0.00029270
     atom   20 type  1   force =     0.00016574    0.00014476   -0.00013510
     atom   21 type  1   force =    -0.00009483    0.00022152   -0.00009507
     atom   22 type  1   force =    -0.00003018   -0.00002749   -0.00003119
     atom   23 type  1   force =    -0.00032218    0.00023658    0.00027663
     atom   24 type  1   force =    -0.00004340    0.00005077    0.00007117
     atom   25 type  1   force =    -0.00075654   -0.00076102   -0.00075572
     atom   26 type  1   force =    -0.00015696    0.00016938   -0.00015735
     atom   27 type  1   force =     0.00012626    0.00004789   -0.00015540
     atom   28 type  1   force =     0.00040420    0.00039115   -0.00040367
     atom   29 type  1   force =     0.00002938    0.00009103    0.00002805
     atom   30 type  1   force =     0.00048209   -0.00043630    0.00048271
     atom   31 type  1   force =    -0.00016167    0.00005418    0.00013272
     atom   32 type  1   force =    -0.00043591    0.00042392    0.00043765
     atom   33 type  1   force =     0.00036765    0.00000615   -0.00013766
     atom   34 type  1   force =    -0.00016135   -0.00004170    0.00008042
     atom   35 type  1   force =    -0.00089246    0.00001235    0.00001763
     atom   36 type  1   force =    -0.00008837   -0.00010346    0.00003328
     atom   37 type  1   force =     0.00014080   -0.00011833   -0.00016846
     atom   38 type  1   force =     0.00084687    0.00007380    0.00003692
     atom   39 type  1   force =     0.00015797   -0.00015238   -0.00001326
     atom   40 type  1   force =    -0.00024969   -0.00007124    0.00007583
     atom   41 type  1   force =     0.00000927    0.00010684    0.00000961
     atom   42 type  1   force =     0.00015155   -0.00021155    0.00015001
     atom   43 type  1   force =     0.00002774    0.00009706    0.00007885
     atom   44 type  1   force =    -0.00000809   -0.00037580   -0.00005331
     atom   45 type  1   force =     0.00007401    0.00040086    0.00003031
     atom   46 type  1   force =    -0.00005742   -0.00007175   -0.00000876
     atom   47 type  1   force =    -0.00014159   -0.00003753   -0.00014097
     atom   48 type  1   force =     0.00000522    0.00007463    0.00000740
     atom   49 type  1   force =    -0.00012480    0.00001532   -0.00012312
     atom   50 type  1   force =     0.00007659   -0.00004912    0.00024668
     atom   51 type  1   force =    -0.00016648   -0.00012173   -0.00008997
     atom   52 type  1   force =     0.00004509    0.00004712   -0.00010466
     atom   53 type  1   force =     0.00003479    0.00001249    0.00006233
     atom   54 type  1   force =     0.00003668   -0.00010477    0.00014667
     atom   55 type  1   force =    -0.00001884   -0.00016047   -0.00024855
     atom   56 type  1   force =     0.00008001   -0.00006991    0.00024148
     atom   57 type  1   force =     0.00011509   -0.00007327    0.00003723
     atom   58 type  1   force =    -0.00026873   -0.00001705   -0.00004349
     atom   59 type  1   force =    -0.00003129    0.00012144   -0.00009732
     atom   60 type  1   force =     0.00011130    0.00009271    0.00007367
     atom   61 type  1   force =     0.00003960    0.00007733    0.00004194
     atom   62 type  1   force =    -0.00008149   -0.00008299   -0.00007258
     atom   63 type  1   force =     0.00012303    0.00004606   -0.00015910
     atom   64 type  1   force =    -0.00005579    0.00013809    0.00012944
     atom   65 type  1   force =    -0.00001027    0.00014569   -0.00000996
     atom   66 type  1   force =    -0.00002125    0.00071590   -0.00002050
     atom   67 type  1   force =     0.00005009    0.00040398   -0.00008055
     atom   68 type  1   force =     0.00007619   -0.00011514    0.00009639
     atom   69 type  1   force =    -0.00008059    0.00041868    0.00005060
     atom   70 type  1   force =     0.00009594   -0.00010239    0.00007615
     atom   71 type  1   force =    -0.00003833   -0.00069389   -0.00003795
     atom   72 type  1   force =     0.00006439   -0.00052329    0.00006379
     atom   73 type  1   force =     0.00003718   -0.00007316    0.00009687
     atom   74 type  1   force =    -0.00004387   -0.00001713   -0.00027354
     atom   75 type  1   force =     0.00004226    0.00007688    0.00001574
     atom   76 type  1   force =    -0.00007273   -0.00008288   -0.00005734
     atom   77 type  1   force =    -0.00009733    0.00012183   -0.00005778
     atom   78 type  1   force =     0.00007377    0.00009201    0.00013653
     atom   79 type  1   force =    -0.00015847    0.00004655    0.00012873
     atom   80 type  1   force =     0.00012978    0.00013830   -0.00003766
     atom   81 type  1   force =    -0.00011750   -0.00006015   -0.00011365
     atom   82 type  1   force =     0.00010271   -0.00000906    0.00010027
     atom   83 type  1   force =    -0.00016866   -0.00044885    0.00030497
     atom   84 type  1   force =    -0.00025192   -0.00027549    0.00010496
     atom   85 type  1   force =     0.00003261   -0.00020164    0.00003390
     atom   86 type  1   force =     0.00000510    0.00004058    0.00001061
     atom   87 type  1   force =     0.00033823   -0.00048206   -0.00020939
     atom   88 type  1   force =     0.00002057   -0.00018714   -0.00016705
     atom   89 type  1   force =     0.00078578    0.00065636    0.00078652
     atom   90 type  1   force =    -0.00013031    0.00023211   -0.00013034
     atom   91 type  1   force =    -0.00014779   -0.00007987    0.00008933
     atom   92 type  1   force =    -0.00036831   -0.00035918    0.00044755
     atom   93 type  1   force =     0.00014743    0.00015411    0.00014718
     atom   94 type  1   force =    -0.00045032    0.00020363   -0.00045036
     atom   95 type  1   force =     0.00007870   -0.00006871   -0.00013701
     atom   96 type  1   force =     0.00048337   -0.00039577   -0.00040503
     atom   97 type  2   force =    -0.00000612    0.00004225   -0.00000738

     Total force =     0.003745     Total SCF correction =     0.000132
     Energy error            =      5.8E-06 Ry
     Gradient error          =      8.9E-04 Ry/Bohr

     bfgs converged in  51 scf cycles and  48 bfgs steps
     (criteria: energy <  1.0E-04 Ry, force <  1.0E-03 Ry/Bohr)

     End of BFGS Geometry Optimization

     Final energy             =   -1763.1134452215 Ry

     File ./pwscf.bfgs deleted, as requested
Begin final coordinates

ATOMIC_POSITIONS (angstrom)
C             1.7596816852        1.7861469728        1.7591950999
C            14.1014528860       14.0823325427       14.1019470858
C            14.1074770128       14.0845582663        1.7974519407
C             1.7836648569        1.7733783669       14.0713285384
C            14.0898737798        1.7772592135       14.0903566074
C             1.8113701406       14.1234521756        1.8108552037
C             1.7979344838       14.0845583560       14.1079495689
C            14.0708267886        1.7733770089        1.7831723096
C            10.0536643115       10.0571809885       10.0536717311
C             5.8520898409        5.8066931781        5.8520514333
C             5.8451471404        5.8245891364       10.0709014192
C            10.0552740615       10.0451707748        5.8322992044
C             5.8325496410       10.0346767252        5.8325299279
C            10.0640212695        5.8370692944       10.0640356154
C            10.0709242595        5.8245977738        5.8451403662
C             5.8323021370       10.0451608487       10.0552729117
C             3.4506394420        3.3821887767        3.4503261899
C            12.4852876642       12.4743257806       12.4855722888
C            12.4941802092       12.4674426612        3.4097007083
C             3.4062352810        3.3922725431       12.4749590789
C            12.4817676395        3.3979196489       12.4820515849
C             3.4153486985       12.4867140848        3.4150291366
C             3.4099983247       12.4674332036       12.4944627351
C            12.4746617131        3.3922956797        3.4059437332
C            11.6695564170       11.6658865281       11.6697391198
C             4.2386979811        4.1695371989        4.2384893172
C             4.2255027828        4.2081998713       11.6714401006
C            11.6757266421       11.6559880612        4.2212242105
C             4.2239965216       11.6619591822        4.2237802893
C            11.6723665314        4.2178180845       11.6725505010
C            11.6712663213        4.2082114647        4.2253003794
C             4.2214255988       11.6559747247       11.6759158477
C             0.2663575439        1.9546587530        1.9662498672
C            15.6009876327       13.8706359923       13.8936746491
C            15.6111077577       13.8947095359        2.0130711686
C             0.2849963945        1.9864467247       13.8616066975
C            15.5871694149        1.9886649790       13.8737843292
C             0.3094174583       13.9116445344        2.0174992329
C             0.2989562142       13.8692009791       13.9000922617
C            15.5685162059        1.9764726826        1.9882442677
C             2.0366992452        0.3221495809        2.0362267427
C            13.8878497966       15.5803628027       13.8883354753
C             2.0041560188       15.5795370328       13.8760278058
C            13.8607771144        0.2761160337        1.9981564136
C            13.8755612585       15.5794964625        2.0036687866
C             1.9986599842        0.2760802422       13.8612644492
C            13.8823582754        0.2772419610       13.8828393046
C             2.0336987922       15.6225887261        2.0332176909
C             1.9667809424        1.9546736741        0.2659302355
C            13.8931906149       13.8706261368       15.6014423970
C            13.8732805527        1.9886778073       15.5876916185
C             2.0179803142       13.9116493701        0.3090160834
C             2.0135443196       13.8947022409       15.6114626376
C            13.8610820058        1.9864589246        0.2844632804
C            13.8996208799       13.8691863484        0.2985177397
C             1.9887844120        1.9764793344       15.5689610423
C             8.5539973812       10.2657622201       10.2643897283
C             7.3513227786        5.6047260266        5.6427361474
C             7.3439542075        5.6179848806       10.2836126779
C             8.5549900834       10.2508911738        5.6197297080
C             7.3318342612       10.2469254056        5.6212060118
C             8.5666727193        5.6234173793       10.2780486611
C             8.5738406637        5.6083294027        5.6390816576
C             7.3310110126       10.2612210710       10.2640287646
C            10.2679720826        8.5595463099       10.2679765109
C             5.6331677587        7.3086381462        5.6331297706
C            10.2770950230        7.3234506541        5.6300826238
C             5.6262110247        8.5464038349       10.2716027039
C             5.6300838366        7.3234385823       10.2770780014
C            10.2716115960        8.5464124425        5.6262078608
C             5.6249860537        8.5327997673        5.6249546703
C            10.2722742619        7.3367828154       10.2722848063
C            10.2644343958       10.2657812273        8.5540056658
C             5.6427362945        5.6047129176        7.3512887813
C             5.6212038649       10.2469341321        7.3318261695
C            10.2780466014        5.6234035504        8.5666765815
C            10.2836290241        5.6179729154        7.3439612685
C             5.6197145304       10.2509022595        8.5549792407
C             5.6390720695        5.6083078066        8.5738085540
C            10.2640693259       10.2612442454        7.3310114856
C             2.5349706979        3.0718894355        2.5345880095
C            13.2040255997       13.1867687714       13.2044331929
C            13.2144035754       13.1823545648        2.6941150843
C             2.6836489055        2.6730694939       13.1824897967
C            13.1947773723        2.6748268404       13.1951839315
C             2.7028737615       13.2126924642        2.7024376454
C             2.6945053489       13.1823579679       13.2147935411
C            13.1820937044        2.6730550110        2.6832257511
C            10.9503849275       10.9536023710       10.9504817821
C             4.9713332940        4.8926000692        4.9712247274
C             4.9471656888        4.9272381092       10.9626650401
C            10.9539091305       10.9415254843        4.9350712743
C             4.9361475738       10.9353917199        4.9360468476
C            10.9592849368        4.9405188178       10.9593768910
C            10.9626034683        4.9272450988        4.9470732378
C             4.9351561417       10.9415189923       10.9540057174
H             2.0533398092        3.9395256458        2.0529911165
End final coordinates



     Writing all to output data dir ./pwscf.save/

     init_run     :     12.37s CPU     12.85s WALL (       1 calls)
     electrons    :   7092.83s CPU   7416.31s WALL (      51 calls)
     update_pot   :    203.30s CPU    207.79s WALL (      50 calls)
     forces       :    421.12s CPU    442.71s WALL (      51 calls)

     Called by init_run:
     wfcinit      :      6.46s CPU      6.68s WALL (       1 calls)
     potinit      :      2.80s CPU      2.89s WALL (       1 calls)
     hinit0       :      1.99s CPU      2.03s WALL (       1 calls)

     Called by electrons:
     c_bands      :   5268.79s CPU   5414.40s WALL (     428 calls)
     sum_band     :    965.17s CPU   1024.65s WALL (     428 calls)
     v_of_rho     :    368.85s CPU    395.69s WALL (     449 calls)
     newd         :    240.65s CPU    285.01s WALL (     449 calls)
     PAW_pot      :    272.53s CPU    274.21s WALL (     499 calls)
     mix_rho      :     54.32s CPU     58.30s WALL (     428 calls)

     Called by c_bands:
     init_us_2    :     63.35s CPU     64.02s WALL (    1916 calls)
     init_us_2:cp :     63.33s CPU     64.02s WALL (    1916 calls)
     regterg      :   5178.12s CPU   5322.62s WALL (     856 calls)

     Called by *egterg:
     rdiaghg      :    118.80s CPU    120.59s WALL (    3798 calls)
     h_psi        :   2894.09s CPU   2982.13s WALL (    3960 calls)
     s_psi        :    579.36s CPU    583.01s WALL (    3960 calls)
     g_psi        :      9.03s CPU      9.17s WALL (    3102 calls)

     Called by h_psi:
     h_psi:calbec :    570.16s CPU    574.94s WALL (    3960 calls)
     vloc_psi     :   1715.46s CPU   1794.82s WALL (    3960 calls)
     add_vuspsi   :    583.84s CPU    587.52s WALL (    3960 calls)

     General routines
     calbec       :    921.01s CPU    928.80s WALL (    5324 calls)
     fft          :    270.19s CPU    298.57s WALL (    9947 calls)
     ffts         :     10.08s CPU     11.54s WALL (    1754 calls)
     fftw         :   1406.13s CPU   1484.07s WALL (  590816 calls)
     interpolate  :     31.92s CPU     35.13s WALL (     898 calls)

     Parallel routines

     PWSCF        :      2h11m CPU      2h17m WALL


   This run was terminated on:  11:58:26  24May2025            

=------------------------------------------------------------------------------=
   JOB DONE.
=------------------------------------------------------------------------------=
