ITEM: TIMESTEP
0
ITEM: NUMBER OF ATOMS
49
ITEM: BOX BOUNDS pp pp pp
0.0000000000000000e+00 1.1000000000000000e+01
0.0000000000000000e+00 1.1002000000000001e+01
0.0000000000000000e+00 1.1000000000000000e+01
ITEM: ATOMS id type x y z 
10 1 4.603 4.603 4.603 
11 1 3.085 3.085 3.085 
12 1 3.796 3.796 3.796 
46 1 0.726 0.725 0.725 
47 1 2.26 2.259 2.26 
48 1 1.551 1.55 1.55 
19 1 4.546 4.545 6.226 
20 1 3.013 3.013 7.764 
21 1 3.721 3.721 7.053 
31 1 0.668 0.667 10.103 
32 1 2.187 2.187 8.589 
33 1 1.476 1.475 9.298 
16 1 4.546 6.225 4.546 
17 1 3.013 7.765 3.013 
18 1 3.721 7.053 3.722 
25 1 0.668 10.103 0.668 
26 1 2.188 8.589 2.188 
27 1 1.476 9.298 1.476 
4 1 4.608 6.169 6.169 
5 1 3.086 7.684 7.684 
6 1 3.799 6.974 6.974 
37 1 0.729 10.046 10.046 
38 1 2.259 8.509 8.508 
39 1 1.552 9.219 9.219 
49 2 0.851 8.999 10.363 
13 1 6.225 4.546 4.546 
14 1 7.764 3.013 3.013 
15 1 7.053 3.721 3.722 
28 1 10.102 0.667 0.668 
29 1 8.589 2.187 2.188 
30 1 9.298 1.475 1.476 
1 1 6.168 4.608 6.169 
2 1 7.684 3.086 7.684 
3 1 6.974 3.799 6.974 
40 1 10.045 0.728 10.046 
41 1 8.508 2.259 8.508 
42 1 9.218 1.551 9.218 
7 1 6.169 6.169 4.608 
8 1 7.684 7.684 3.086 
9 1 6.974 6.974 3.799 
43 1 10.046 10.047 0.729 
44 1 8.508 8.509 2.259 
45 1 9.219 9.219 1.552 
22 1 6.229 6.229 6.229 
23 1 7.764 7.765 7.765 
24 1 7.055 7.056 7.055 
34 1 10.108 10.108 10.107 
35 1 8.59 8.59 8.59 
36 1 9.301 9.301 9.3 
ITEM: TIMESTEP
10
ITEM: NUMBER OF ATOMS
49
ITEM: BOX BOUNDS pp pp pp
0.0000000000000000e+00 1.1000000000000000e+01
0.0000000000000000e+00 1.1002000000000001e+01
0.0000000000000000e+00 1.1000000000000000e+01
ITEM: ATOMS id type x y z 
10 1 4.60555 4.60884 4.60469 
11 1 3.09107 3.09035 3.08773 
12 1 3.79792 3.79992 3.80424 
46 1 0.737941 0.727781 0.741121 
47 1 2.26519 2.26739 2.26659 
48 1 1.56069 1.55306 1.55778 
19 1 4.54509 4.53903 6.22892 
20 1 3.01716 3.01458 7.76211 
21 1 3.7236 3.72401 7.04756 
31 1 0.664294 0.72503 10.0987 
32 1 2.20645 2.19926 8.56839 
33 1 1.48586 1.50249 9.28793 
16 1 4.54533 6.22837 4.54004 
17 1 3.01545 7.76312 3.0138 
18 1 3.72269 7.04796 3.72316 
25 1 0.648002 10.1463 0.772136 
26 1 2.20349 8.57365 2.19465 
27 1 1.48091 9.30074 1.51122 
4 1 4.59841 6.17876 6.17731 
5 1 3.09677 7.67603 7.67199 
6 1 3.80961 6.95872 6.95784 
37 1 0.682327 10.0668 10.0837 
38 1 2.31692 8.47023 8.43865 
39 1 1.60519 9.14098 9.19588 
49 2 0.875255 8.96008 10.3001 
13 1 6.22796 4.54508 4.54343 
14 1 7.76509 3.01297 3.0119 
15 1 7.0528 3.71958 3.72275 
28 1 10.0821 0.677199 0.676254 
29 1 8.58468 2.1902 2.1938 
30 1 9.2935 1.47975 1.47565 
1 1 6.16391 4.60866 6.16904 
2 1 7.68003 3.08729 7.68286 
3 1 6.97484 3.80193 6.97045 
40 1 10.0347 0.736437 10.0448 
41 1 8.50549 2.26287 8.50677 
42 1 9.21622 1.55207 9.21397 
7 1 6.16489 6.16805 4.61095 
8 1 7.68242 7.68156 3.08998 
9 1 6.96913 6.97121 3.79911 
43 1 10.0439 10.0405 0.742992 
44 1 8.50299 8.50629 2.26265 
45 1 9.21929 9.21476 1.55639 
22 1 6.23507 6.22977 6.23127 
23 1 7.76173 7.7609 7.76235 
24 1 7.05246 7.05332 7.04909 
34 1 10.0388 10.1226 10.1062 
35 1 8.57793 8.56892 8.57196 
36 1 9.27182 9.29468 9.28807 
ITEM: TIMESTEP
20
ITEM: NUMBER OF ATOMS
49
ITEM: BOX BOUNDS pp pp pp
0.0000000000000000e+00 1.1000000000000000e+01
0.0000000000000000e+00 1.1002000000000001e+01
0.0000000000000000e+00 1.1000000000000000e+01
ITEM: ATOMS id type x y z 
10 1 4.60578 4.606 4.60243 
11 1 3.08947 3.09123 3.09097 
12 1 3.80337 3.80161 3.80088 
46 1 0.736001 0.732338 0.745136 
47 1 2.26909 2.26981 2.26843 
48 1 1.56026 1.55516 1.56251 
19 1 4.54802 4.53562 6.22686 
20 1 3.01731 3.01386 7.76114 
21 1 3.72658 3.72215 7.04572 
31 1 0.663616 0.734362 10.1013 
32 1 2.2089 2.20022 8.56688 
33 1 1.48343 1.50999 9.28806 
16 1 4.54752 6.2263 4.53606 
17 1 3.01589 7.76137 3.01148 
18 1 3.72417 7.04739 3.7205 
25 1 0.642544 10.1571 0.797285 
26 1 2.20416 8.57332 2.19431 
27 1 1.47613 9.31071 1.5274 
4 1 4.60562 6.16982 6.16936 
5 1 3.10467 7.66875 7.65688 
6 1 3.82102 6.95151 6.9458 
37 1 0.665963 10.0652 10.0994 
38 1 2.31745 8.47351 8.4386 
39 1 1.59888 9.11872 9.22769 
49 2 0.903813 8.95866 10.2411 
13 1 6.23042 4.54318 4.54274 
14 1 7.76635 3.01135 3.01173 
15 1 7.05305 3.72051 3.72163 
28 1 10.0763 0.681337 0.676594 
29 1 8.5836 2.19236 2.19515 
30 1 9.2896 1.47972 1.47584 
1 1 6.16979 4.60494 6.16764 
2 1 7.68139 3.08775 7.68284 
3 1 6.9732 3.80076 6.9703 
40 1 10.031 0.741085 10.05 
41 1 8.50508 2.26267 8.50271 
42 1 9.21203 1.55699 9.21987 
7 1 6.16777 6.16756 4.60584 
8 1 7.68094 7.68238 3.08876 
9 1 6.97112 6.9699 3.80022 
43 1 10.037 10.0469 0.750404 
44 1 8.5016 8.50218 2.26482 
45 1 9.21591 9.21661 1.56218 
22 1 6.23865 6.22689 6.22718 
23 1 7.76263 7.75994 7.76063 
24 1 7.0533 7.04932 7.04794 
34 1 10.0253 10.126 10.1081 
35 1 8.57722 8.56722 8.56892 
36 1 9.26015 9.29773 9.29074 
ITEM: TIMESTEP
30
ITEM: NUMBER OF ATOMS
49
ITEM: BOX BOUNDS pp pp pp
0.0000000000000000e+00 1.1000000000000000e+01
0.0000000000000000e+00 1.1002000000000001e+01
0.0000000000000000e+00 1.1000000000000000e+01
ITEM: ATOMS id type x y z 
10 1 4.60724 4.60337 4.6002 
11 1 3.08896 3.09158 3.09106 
12 1 3.8051 3.8014 3.79967 
46 1 0.733639 0.736113 0.748425 
47 1 2.27036 2.27052 2.27107 
48 1 1.55995 1.55724 1.56302 
19 1 4.55066 4.53113 6.22531 
20 1 3.01849 3.01396 7.75931 
21 1 3.72943 3.71998 7.04391 
31 1 0.66398 0.740627 10.1029 
32 1 2.20861 2.20075 8.56648 
33 1 1.48169 1.51441 9.29047 
16 1 4.54877 6.22544 4.53043 
17 1 3.01606 7.76045 3.00896 
18 1 3.72608 7.04589 3.71714 
25 1 0.638543 10.1623 0.811129 
26 1 2.20377 8.57491 2.19548 
27 1 1.47166 9.31777 1.53974 
4 1 4.60935 6.16403 6.16327 
5 1 3.10417 7.67346 7.64784 
6 1 3.82612 6.95017 6.94429 
37 1 0.653608 10.0659 10.1111 
38 1 2.31741 8.46952 8.44335 
39 1 1.59748 9.09473 9.25006 
49 2 0.93083 8.96066 10.1893 
13 1 6.23393 4.54075 4.54104 
14 1 7.76679 3.01185 3.0121 
15 1 7.05292 3.72008 3.72148 
28 1 10.0706 0.683845 0.676418 
29 1 8.58175 2.19344 2.19656 
30 1 9.28709 1.4814 1.47585 
1 1 6.17273 4.60238 6.16605 
2 1 7.68229 3.08673 7.68316 
3 1 6.97422 3.79928 6.96992 
40 1 10.0265 0.745336 10.0569 
41 1 8.50385 2.2639 8.50385 
42 1 9.21191 1.55818 9.22036 
7 1 6.17094 6.16704 4.60277 
8 1 7.68093 7.68298 3.08814 
9 1 6.97201 6.96841 3.79931 
43 1 10.0314 10.0527 0.756301 
44 1 8.50276 8.50075 2.26645 
45 1 9.21084 9.21973 1.56485 
22 1 6.24345 6.2241 6.22568 
23 1 7.76268 7.75772 7.75952 
24 1 7.0554 7.0467 7.04453 
34 1 10.0163 10.1268 10.1108 
35 1 8.57656 8.56838 8.56877 
36 1 9.25322 9.30125 9.29428 
ITEM: TIMESTEP
40
ITEM: NUMBER OF ATOMS
49
ITEM: BOX BOUNDS pp pp pp
0.0000000000000000e+00 1.1000000000000000e+01
0.0000000000000000e+00 1.1002000000000001e+01
0.0000000000000000e+00 1.1000000000000000e+01
ITEM: ATOMS id type x y z 
10 1 4.60778 4.60213 4.59713 
11 1 3.08892 3.09102 3.09034 
12 1 3.80564 3.80112 3.79818 
46 1 0.731309 0.739108 0.754073 
47 1 2.27027 2.2707 2.27084 
48 1 1.55735 1.55779 1.56606 
19 1 4.5536 4.52712 6.22331 
20 1 3.02035 3.01368 7.75727 
21 1 3.7323 3.71829 7.04149 
31 1 0.665632 0.745141 10.1054 
32 1 2.209 2.20476 8.56516 
33 1 1.48374 1.51814 9.28906 
16 1 4.55107 6.22337 4.5261 
17 1 3.01797 7.75824 3.00644 
18 1 3.72813 7.04378 3.713 
25 1 0.63502 10.1682 0.820884 
26 1 2.20235 8.57797 2.20016 
27 1 1.46746 9.32418 1.55076 
4 1 4.6122 6.15963 6.1599 
5 1 3.1064 7.67542 7.63841 
6 1 3.83037 6.95252 6.93632 
37 1 0.644037 10.0609 10.1192 
38 1 2.32038 8.46011 8.44583 
39 1 1.6054 9.08052 9.26093 
49 2 0.942711 8.96265 10.1572 
13 1 6.2369 4.53798 4.53899 
14 1 7.7675 3.01118 3.01204 
15 1 7.05354 3.72002 3.7213 
28 1 10.0644 0.688743 0.676205 
29 1 8.58013 2.19547 2.19879 
30 1 9.28228 1.48381 1.47508 
1 1 6.17621 4.60011 6.16634 
2 1 7.6837 3.08528 7.6841 
3 1 6.9764 3.79721 6.96901 
40 1 10.0198 0.748825 10.0628 
41 1 8.50495 2.26399 8.50376 
42 1 9.20898 1.55937 9.22768 
7 1 6.17255 6.16727 4.60044 
8 1 7.68156 7.68241 3.08744 
9 1 6.97236 6.96755 3.79825 
43 1 10.0232 10.0597 0.763737 
44 1 8.50144 8.49974 2.26913 
45 1 9.20753 9.22326 1.56818 
22 1 6.24744 6.22111 6.22319 
23 1 7.76345 7.75565 7.75771 
24 1 7.05798 7.04369 7.04194 
34 1 10.0101 10.1283 10.1139 
35 1 8.57264 8.57072 8.56912 
36 1 9.24852 9.30205 9.29648 
ITEM: TIMESTEP
50
ITEM: NUMBER OF ATOMS
49
ITEM: BOX BOUNDS pp pp pp
0.0000000000000000e+00 1.1000000000000000e+01
0.0000000000000000e+00 1.1002000000000001e+01
0.0000000000000000e+00 1.1000000000000000e+01
ITEM: ATOMS id type x y z 
10 1 4.60935 4.60016 4.59105 
11 1 3.08974 3.08851 3.0873 
12 1 3.80347 3.80125 3.79593 
46 1 0.727335 0.738444 0.758179 
47 1 2.26973 2.2705 2.27231 
48 1 1.55334 1.56056 1.5702 
19 1 4.55794 4.52195 6.21848 
20 1 3.02452 3.01536 7.75046 
21 1 3.73863 3.71604 7.03848 
31 1 0.67058 0.744136 10.1071 
32 1 2.20716 2.20806 8.56586 
33 1 1.48325 1.52 9.29203 
16 1 4.5541 6.21822 4.51837 
17 1 3.01937 7.75604 3.0006 
18 1 3.73284 7.04056 3.70856 
25 1 0.627891 10.1761 0.83368 
26 1 2.19695 8.58621 2.21012 
27 1 1.46174 9.33267 1.56114 
4 1 4.61884 6.15598 6.15334 
5 1 3.11153 7.67713 7.62427 
6 1 3.83065 6.95225 6.92041 
37 1 0.631903 10.0588 10.1256 
38 1 2.32866 8.44657 8.44761 
39 1 1.62722 9.07387 9.26853 
49 2 0.942512 8.96131 10.133 
13 1 6.23883 4.53405 4.53702 
14 1 7.76741 3.01064 3.0127 
15 1 7.05434 3.72143 3.72326 
28 1 10.0537 0.695917 0.673158 
29 1 8.5757 2.1998 2.20127 
30 1 9.27645 1.48776 1.4757 
1 1 6.18277 4.5945 6.16647 
2 1 7.68832 3.08205 7.68525 
3 1 6.98013 3.79354 6.96922 
40 1 10.0137 0.751583 10.0751 
41 1 8.50431 2.26497 8.50754 
42 1 9.20511 1.56001 9.23482 
7 1 6.17401 6.16637 4.59436 
8 1 7.68323 7.67986 3.08481 
9 1 6.97269 6.96804 3.7992 
43 1 10.0128 10.0691 0.774779 
44 1 8.49847 8.50036 2.27332 
45 1 9.20416 9.22984 1.57257 
22 1 6.25461 6.21715 6.22106 
23 1 7.76588 7.75381 7.75555 
24 1 7.06299 7.04068 7.03919 
34 1 10.0051 10.1272 10.1194 
35 1 8.56676 8.57353 8.57283 
36 1 9.24229 9.30716 9.29783 
ITEM: TIMESTEP
60
ITEM: NUMBER OF ATOMS
49
ITEM: BOX BOUNDS pp pp pp
0.0000000000000000e+00 1.1000000000000000e+01
0.0000000000000000e+00 1.1002000000000001e+01
0.0000000000000000e+00 1.1000000000000000e+01
ITEM: ATOMS id type x y z 
10 1 4.60797 4.60011 4.59134 
11 1 3.08947 3.08882 3.08744 
12 1 3.80459 3.80092 3.79567 
46 1 0.727887 0.739546 0.75747 
47 1 2.26918 2.27088 2.27302 
48 1 1.55315 1.55937 1.56875 
19 1 4.5591 4.52209 6.21793 
20 1 3.02322 3.01356 7.752 
21 1 3.73878 3.71613 7.03768 
31 1 0.670846 0.742415 10.1088 
32 1 2.2062 2.20847 8.56665 
33 1 1.48389 1.51892 9.29189 
16 1 4.55399 6.21831 4.51798 
17 1 3.01987 7.75534 3.00167 
18 1 3.73259 7.04129 3.70584 
25 1 0.627364 10.1764 0.832985 
26 1 2.19721 8.58696 2.21019 
27 1 1.45993 9.33336 1.56366 
4 1 4.62071 6.15561 6.15196 
5 1 3.11114 7.6774 7.62226 
6 1 3.8317 6.95111 6.92022 
37 1 0.632032 10.0585 10.125 
38 1 2.32936 8.44615 8.44795 
39 1 1.62971 9.07491 9.26993 
49 2 0.941125 8.96181 10.1318 
13 1 6.23937 4.53372 4.53658 
14 1 7.76771 3.01042 3.01222 
15 1 7.05478 3.721 3.72363 
28 1 10.0531 0.696794 0.67376 
29 1 8.57527 2.20059 2.20085 
30 1 9.27608 1.48735 1.47662 
1 1 6.18302 4.5953 6.16718 
2 1 7.68849 3.08179 7.68443 
3 1 6.98001 3.79414 6.97005 
40 1 10.0138 0.752906 10.0739 
41 1 8.50376 2.26443 8.5078 
42 1 9.20508 1.56177 9.2353 
7 1 6.17453 6.16766 4.59625 
8 1 7.6835 7.67999 3.08552 
9 1 6.97244 6.96739 3.79777 
43 1 10.0123 10.0691 0.77528 
44 1 8.49861 8.50058 2.27256 
45 1 9.20329 9.23077 1.57472 
22 1 6.25466 6.21669 6.21958 
23 1 7.76562 7.75372 7.75417 
24 1 7.06282 7.03895 7.0398 
34 1 10.0058 10.1262 10.1195 
35 1 8.56571 8.57462 8.57236 
36 1 9.24227 9.3057 9.29909 
ITEM: TIMESTEP
70
ITEM: NUMBER OF ATOMS
49
ITEM: BOX BOUNDS pp pp pp
0.0000000000000000e+00 1.1000000000000000e+01
0.0000000000000000e+00 1.1002000000000001e+01
0.0000000000000000e+00 1.1000000000000000e+01
ITEM: ATOMS id type x y z 
10 1 4.60776 4.59969 4.59144 
11 1 3.08977 3.08851 3.08702 
12 1 3.8045 3.80085 3.79536 
46 1 0.729733 0.741214 0.755844 
47 1 2.26829 2.27044 2.27345 
48 1 1.55193 1.55973 1.56819 
19 1 4.56076 4.52049 6.21681 
20 1 3.02273 3.01221 7.75221 
21 1 3.73788 3.71381 7.03821 
31 1 0.67148 0.739024 10.1109 
32 1 2.20475 2.20937 8.56793 
33 1 1.48466 1.5174 9.29234 
16 1 4.55511 6.21736 4.51465 
17 1 3.02013 7.75566 3.00025 
18 1 3.73275 7.0409 3.70395 
25 1 0.623717 10.1772 0.83545 
26 1 2.19519 8.5902 2.21371 
27 1 1.45783 9.33523 1.5656 
4 1 4.62293 6.15359 6.14891 
5 1 3.11107 7.67648 7.61748 
6 1 3.83229 6.95041 6.91585 
37 1 0.631046 10.0565 10.1227 
38 1 2.33206 8.44468 8.44887 
39 1 1.63981 9.07757 9.27435 
49 2 0.936813 8.96267 10.1273 
13 1 6.24 4.53312 4.53645 
14 1 7.76777 3.0106 3.0126 
15 1 7.05443 3.72147 3.7247 
28 1 10.05 0.698391 0.672696 
29 1 8.57393 2.20177 2.20099 
30 1 9.27479 1.48855 1.47654 
1 1 6.18321 4.59452 6.16798 
2 1 7.68913 3.0815 7.6845 
3 1 6.98063 3.79316 6.96936 
40 1 10.0138 0.755458 10.0744 
41 1 8.50328 2.2641 8.50969 
42 1 9.20553 1.56261 9.2377 
7 1 6.17459 6.16775 4.59576 
8 1 7.68371 7.6795 3.08498 
9 1 6.97295 6.96697 3.79768 
43 1 10.0112 10.072 0.777747 
44 1 8.4976 8.50182 2.27381 
45 1 9.20219 9.23206 1.57663 
22 1 6.25691 6.21588 6.21823 
23 1 7.76627 7.75413 7.75355 
24 1 7.06434 7.03761 7.03991 
34 1 10.0066 10.1245 10.1205 
35 1 8.56314 8.5769 8.57275 
36 1 9.24199 9.30446 9.30096 
ITEM: TIMESTEP
80
ITEM: NUMBER OF ATOMS
49
ITEM: BOX BOUNDS pp pp pp
0.0000000000000000e+00 1.1000000000000000e+01
0.0000000000000000e+00 1.1002000000000001e+01
0.0000000000000000e+00 1.1000000000000000e+01
ITEM: ATOMS id type x y z 
10 1 4.60537 4.59789 4.59209 
11 1 3.08993 3.08709 3.08459 
12 1 3.80388 3.7988 3.79444 
46 1 0.733884 0.744049 0.750562 
47 1 2.26377 2.2701 2.27548 
48 1 1.55052 1.56036 1.56596 
19 1 4.56528 4.51316 6.21376 
20 1 3.02136 3.00819 7.75202 
21 1 3.73835 3.70767 7.03673 
31 1 0.677233 0.727965 10.1165 
32 1 2.20044 2.21089 8.57181 
33 1 1.48581 1.51435 9.29632 
16 1 4.55879 6.21292 4.50222 
17 1 3.02006 7.75745 2.99539 
18 1 3.73443 7.0404 3.69429 
25 1 0.611017 10.1823 0.845868 
26 1 2.18752 8.60267 2.22621 
27 1 1.44708 9.34481 1.57807 
4 1 4.63104 6.14615 6.13552 
5 1 3.1092 7.67316 7.59653 
6 1 3.8346 6.94602 6.90014 
37 1 0.624553 10.0476 10.1133 
38 1 2.34396 8.43885 8.45313 
39 1 1.68711 9.08728 9.29399 
49 2 0.920923 8.96314 10.1049 
13 1 6.24301 4.53009 4.53736 
14 1 7.76844 3.01137 3.01594 
15 1 7.05284 3.72289 3.72503 
28 1 10.0385 0.707 0.666244 
29 1 8.56971 2.20615 2.20256 
30 1 9.26718 1.49424 1.47347 
1 1 6.18382 4.59047 6.17053 
2 1 7.69317 3.07799 7.68416 
3 1 6.98268 3.79006 6.97142 
40 1 10.0132 0.762954 10.0817 
41 1 8.50126 2.26418 8.51778 
42 1 9.20691 1.56558 9.24582 
7 1 6.17574 6.16841 4.59465 
8 1 7.68489 7.67689 3.08406 
9 1 6.97305 6.96533 3.79676 
43 1 10.0069 10.0822 0.788456 
44 1 8.49344 8.50559 2.27898 
45 1 9.19727 9.24025 1.58494 
22 1 6.2655 6.21115 6.21444 
23 1 7.76852 7.75374 7.75231 
24 1 7.07001 7.03548 7.03717 
34 1 10.0103 10.1151 10.1254 
35 1 8.55459 8.58076 8.57723 
36 1 9.23604 9.30873 9.30283 
ITEM: TIMESTEP
90
ITEM: NUMBER OF ATOMS
49
ITEM: BOX BOUNDS pp pp pp
0.0000000000000000e+00 1.1000000000000000e+01
0.0000000000000000e+00 1.1002000000000001e+01
0.0000000000000000e+00 1.1000000000000000e+01
ITEM: ATOMS id type x y z 
10 1 4.60478 4.59738 4.59176 
11 1 3.08954 3.08671 3.08485 
12 1 3.80347 3.79888 3.79431 
46 1 0.733865 0.741936 0.750567 
47 1 2.26398 2.27095 2.27533 
48 1 1.55153 1.55998 1.56626 
19 1 4.56456 4.51286 6.2141 
20 1 3.02161 3.00865 7.7513 
21 1 3.73909 3.70821 7.03627 
31 1 0.679405 0.728275 10.1154 
32 1 2.20093 2.21078 8.57138 
33 1 1.48627 1.51442 9.29679 
16 1 4.55864 6.21233 4.502 
17 1 3.02012 7.75801 2.9954 
18 1 3.73414 7.0408 3.69436 
25 1 0.609689 10.1839 0.847248 
26 1 2.18653 8.60335 2.22718 
27 1 1.44642 9.3456 1.57896 
4 1 4.63063 6.14705 6.13469 
5 1 3.10805 7.67269 7.59536 
6 1 3.83327 6.9455 6.8991 
37 1 0.622418 10.0471 10.1122 
38 1 2.34585 8.43819 8.45341 
39 1 1.69492 9.08835 9.2988 
49 2 0.922039 8.96055 10.0993 
13 1 6.24189 4.53007 4.53724 
14 1 7.76764 3.01186 3.01523 
15 1 7.05413 3.72239 3.72715 
28 1 10.0377 0.70831 0.664994 
29 1 8.56948 2.20644 2.20237 
30 1 9.26676 1.49488 1.47277 
1 1 6.18424 4.58994 6.17098 
2 1 7.69327 3.07758 7.68464 
3 1 6.98259 3.78977 6.97211 
40 1 10.0127 0.762411 10.0832 
41 1 8.5015 2.26512 8.51751 
42 1 9.20563 1.56602 9.24612 
7 1 6.17557 6.16796 4.59472 
8 1 7.68467 7.67682 3.08419 
9 1 6.97285 6.96529 3.79694 
43 1 10.0066 10.082 0.789653 
44 1 8.49298 8.50669 2.27906 
45 1 9.19846 9.24061 1.58557 
22 1 6.26517 6.21066 6.2146 
23 1 7.76835 7.75336 7.75196 
24 1 7.06913 7.03572 7.03693 
34 1 10.0101 10.1161 10.1242 
35 1 8.55282 8.58206 8.57648 
36 1 9.23696 9.30549 9.30399 
ITEM: TIMESTEP
100
ITEM: NUMBER OF ATOMS
49
ITEM: BOX BOUNDS pp pp pp
0.0000000000000000e+00 1.1000000000000000e+01
0.0000000000000000e+00 1.1002000000000001e+01
0.0000000000000000e+00 1.1000000000000000e+01
ITEM: ATOMS id type x y z 
10 1 4.60303 4.59699 4.59108 
11 1 3.08807 3.08686 3.08554 
12 1 3.8034 3.79783 3.7949 
46 1 0.734683 0.740224 0.749407 
47 1 2.26302 2.27263 2.27539 
48 1 1.5564 1.55842 1.56477 
19 1 4.56391 4.51257 6.21412 
20 1 3.02177 3.00864 7.75021 
21 1 3.73859 3.70886 7.03657 
31 1 0.683606 0.724888 10.1156 
32 1 2.20211 2.21059 8.5723 
33 1 1.48682 1.51238 9.29584 
16 1 4.55759 6.21123 4.50139 
17 1 3.01992 7.7599 2.99627 
18 1 3.73385 7.04167 3.69366 
25 1 0.60523 10.1851 0.849213 
26 1 2.18399 8.60619 2.22944 
27 1 1.44245 9.34792 1.58272 
4 1 4.62877 6.14734 6.13295 
5 1 3.10348 7.66925 7.59275 
6 1 3.83016 6.94794 6.89242 
37 1 0.617887 10.0453 10.1069 
38 1 2.34978 8.43759 8.45762 
39 1 1.72222 9.09323 9.31371 
49 2 0.923316 8.9555 10.0827 
13 1 6.24107 4.52917 4.53898 
14 1 7.76786 3.0125 3.01554 
15 1 7.05352 3.7221 3.72942 
28 1 10.0361 0.710597 0.661889 
29 1 8.56933 2.20687 2.20283 
30 1 9.26448 1.49867 1.46821 
1 1 6.18459 4.58877 6.17257 
2 1 7.69272 3.07746 7.68597 
3 1 6.98212 3.78905 6.97243 
40 1 10.0116 0.762807 10.0856 
41 1 8.5015 2.26674 8.51805 
42 1 9.20521 1.56692 9.24769 
7 1 6.17525 6.16715 4.59478 
8 1 7.68412 7.67762 3.08475 
9 1 6.97275 6.9646 3.79646 
43 1 10.0075 10.0816 0.792691 
44 1 8.49209 8.50885 2.28042 
45 1 9.19913 9.24185 1.58792 
22 1 6.26351 6.20968 6.21511 
23 1 7.76628 7.75362 7.75086 
24 1 7.06804 7.03522 7.03607 
34 1 10.0123 10.1154 10.1223 
35 1 8.54868 8.58356 8.57646 
36 1 9.23918 9.30006 9.30462 
ITEM: TIMESTEP
110
ITEM: NUMBER OF ATOMS
49
ITEM: BOX BOUNDS pp pp pp
0.0000000000000000e+00 1.1000000000000000e+01
0.0000000000000000e+00 1.1002000000000001e+01
0.0000000000000000e+00 1.1000000000000000e+01
ITEM: ATOMS id type x y z 
10 1 4.60318 4.5967 4.59158 
11 1 3.08818 3.08662 3.08549 
12 1 3.80245 3.79824 3.79527 
46 1 0.736769 0.739531 0.748238 
47 1 2.26425 2.27159 2.27457 
48 1 1.55386 1.55937 1.56497 
19 1 4.5638 4.51297 6.21416 
20 1 3.02139 3.00877 7.75063 
21 1 3.7388 3.70836 7.03605 
31 1 0.683677 0.723625 10.1157 
32 1 2.20134 2.21042 8.57193 
33 1 1.4885 1.51163 9.29692 
16 1 4.55774 6.21133 4.50075 
17 1 3.01986 7.76061 2.99613 
18 1 3.73311 7.04185 3.69373 
25 1 0.603807 10.1855 0.849956 
26 1 2.18328 8.60691 2.23036 
27 1 1.44201 9.34812 1.58265 
4 1 4.62856 6.14811 6.13127 
5 1 3.10238 7.67054 7.59077 
6 1 3.82904 6.94576 6.89367 
37 1 0.618106 10.0438 10.1053 
38 1 2.35074 8.43663 8.45873 
39 1 1.72834 9.0957 9.31768 
49 2 0.922663 8.95574 10.0795 
13 1 6.24121 4.52883 4.53927 
14 1 7.76781 3.01255 3.0161 
15 1 7.05372 3.72193 3.72894 
28 1 10.0356 0.71165 0.660266 
29 1 8.56867 2.20807 2.20143 
30 1 9.26508 1.49765 1.47001 
1 1 6.18382 4.58865 6.17269 
2 1 7.69265 3.07728 7.6861 
3 1 6.98219 3.78917 6.9729 
40 1 10.0116 0.76345 10.0856 
41 1 8.50183 2.26686 8.51848 
42 1 9.20472 1.56706 9.24793 
7 1 6.17543 6.16698 4.59453 
8 1 7.68391 7.67744 3.08479 
9 1 6.97248 6.96486 3.79693 
43 1 10.0084 10.082 0.79321 
44 1 8.49211 8.5091 2.28119 
45 1 9.19868 9.24204 1.58787 
22 1 6.26355 6.20951 6.21483 
23 1 7.76615 7.75383 7.75071 
24 1 7.06714 7.03533 7.03618 
34 1 10.0136 10.1132 10.1223 
35 1 8.54911 8.58222 8.57704 
36 1 9.23774 9.30206 9.30375 
ITEM: TIMESTEP
120
ITEM: NUMBER OF ATOMS
49
ITEM: BOX BOUNDS pp pp pp
0.0000000000000000e+00 1.1000000000000000e+01
0.0000000000000000e+00 1.1002000000000001e+01
0.0000000000000000e+00 1.1000000000000000e+01
ITEM: ATOMS id type x y z 
10 1 4.59925 4.59308 4.59777 
11 1 3.08157 3.08665 3.08542 
12 1 3.79317 3.78987 3.80527 
46 1 0.755653 0.731311 0.725419 
47 1 2.2661 2.27036 2.26741 
48 1 1.56218 1.55571 1.55414 
19 1 4.55812 4.5152 6.21235 
20 1 3.01647 3.00613 7.75161 
21 1 3.73203 3.70474 7.03582 
31 1 0.705359 0.688671 10.1183 
32 1 2.20124 2.20096 8.57371 
33 1 1.4994 1.49919 9.30521 
16 1 4.55306 6.21368 4.49091 
17 1 3.01134 7.77871 3.00139 
18 1 3.72704 7.04881 3.68545 
25 1 0.571422 10.1882 0.867746 
26 1 2.16431 8.62641 2.24575 
27 1 1.41735 9.36104 1.59704 
4 1 4.61126 6.15473 6.10505 
5 1 3.06222 7.67051 7.56187 
6 1 3.80694 6.93938 6.89402 
37 1 0.621593 10.0147 10.0518 
38 1 2.37006 8.42829 8.50572 
39 1 1.92374 9.14857 9.42582 
49 2 0.920353 8.9524 9.97203 
13 1 6.23868 4.52652 4.5436 
14 1 7.76798 3.01411 3.01881 
15 1 7.05167 3.71929 3.73347 
28 1 10.0276 0.725313 0.635197 
29 1 8.56897 2.21593 2.19488 
30 1 9.25927 1.51003 1.45389 
1 1 6.17434 4.58707 6.182 
2 1 7.68999 3.07831 7.69391 
3 1 6.97664 3.78597 6.97929 
40 1 10.0117 0.768029 10.0955 
41 1 8.50528 2.27058 8.52865 
42 1 9.20593 1.57105 9.25823 
7 1 6.17448 6.15772 4.59646 
8 1 7.67641 7.68034 3.08829 
9 1 6.9732 6.96336 3.80339 
43 1 10.0175 10.0826 0.803836 
44 1 8.48796 8.51849 2.29281 
45 1 9.20066 9.24904 1.60199 
22 1 6.25496 6.20944 6.20881 
23 1 7.75172 7.7556 7.74836 
24 1 7.05513 7.03612 7.03318 
34 1 10.0313 10.0896 10.1115 
35 1 8.53416 8.57774 8.57714 
36 1 9.23611 9.2905 9.29876 
ITEM: TIMESTEP
130
ITEM: NUMBER OF ATOMS
49
ITEM: BOX BOUNDS pp pp pp
0.0000000000000000e+00 1.1000000000000000e+01
0.0000000000000000e+00 1.1002000000000001e+01
0.0000000000000000e+00 1.1000000000000000e+01
ITEM: ATOMS id type x y z 
10 1 4.59649 4.59332 4.59828 
11 1 3.08208 3.08307 3.09263 
12 1 3.79515 3.79923 3.79819 
46 1 0.759402 0.733249 0.718914 
47 1 2.26504 2.27019 2.26985 
48 1 1.5701 1.55811 1.5469 
19 1 4.55495 4.5151 6.2138 
20 1 3.01467 3.00441 7.74959 
21 1 3.73159 3.70796 7.03889 
31 1 0.706376 0.694761 10.1248 
32 1 2.2003 2.19971 8.58216 
33 1 1.49653 1.48467 9.30071 
16 1 4.55015 6.21069 4.49644 
17 1 3.0125 7.77697 3.0035 
18 1 3.72723 7.05056 3.69102 
25 1 0.564517 10.1914 0.878059 
26 1 2.16346 8.62749 2.25112 
27 1 1.41392 9.35941 1.60233 
4 1 4.60499 6.1572 6.11133 
5 1 3.06218 7.65895 7.58274 
6 1 3.78464 6.95571 6.862 
37 1 0.638578 10.0178 10.0287 
38 1 2.39958 8.43459 8.5147 
39 1 1.92646 9.12984 9.44181 
49 2 0.951788 8.95115 9.9421 
13 1 6.23718 4.52345 4.54748 
14 1 7.76907 3.01429 3.02127 
15 1 7.04978 3.7204 3.73057 
28 1 10.026 0.723823 0.629656 
29 1 8.5659 2.21767 2.18965 
30 1 9.26366 1.51163 1.45643 
1 1 6.17413 4.58665 6.17944 
2 1 7.69108 3.07804 7.69261 
3 1 6.97268 3.78889 6.98635 
40 1 10.0138 0.761635 10.0905 
41 1 8.50286 2.27387 8.53027 
42 1 9.20507 1.57149 9.25543 
7 1 6.17428 6.15875 4.59535 
8 1 7.6802 7.68142 3.09541 
9 1 6.9641 6.96258 3.79599 
43 1 10.0154 10.0823 0.797956 
44 1 8.48883 8.52046 2.29706 
45 1 9.19734 9.24721 1.60028 
22 1 6.24892 6.20749 6.21235 
23 1 7.74793 7.75519 7.74718 
24 1 7.04925 7.03569 7.03282 
34 1 10.0223 10.09 10.1151 
35 1 8.53503 8.57704 8.57898 
36 1 9.23555 9.29453 9.30023 
ITEM: TIMESTEP
140
ITEM: NUMBER OF ATOMS
49
ITEM: BOX BOUNDS pp pp pp
0.0000000000000000e+00 1.1000000000000000e+01
0.0000000000000000e+00 1.1002000000000001e+01
0.0000000000000000e+00 1.1000000000000000e+01
ITEM: ATOMS id type x y z 
10 1 4.5979 4.59375 4.59905 
11 1 3.08198 3.0865 3.08972 
12 1 3.79545 3.79394 3.80405 
46 1 0.764228 0.733323 0.711838 
47 1 2.26931 2.27093 2.26978 
48 1 1.56889 1.56068 1.55022 
19 1 4.55589 4.51699 6.21654 
20 1 3.01432 3.00484 7.75458 
21 1 3.72721 3.70386 7.03609 
31 1 0.702354 0.689709 10.1255 
32 1 2.19851 2.19443 8.57991 
33 1 1.49693 1.48771 9.30762 
16 1 4.54935 6.2124 4.49452 
17 1 3.01091 7.77868 3.00246 
18 1 3.72507 7.05263 3.69165 
25 1 0.565909 10.1904 0.877228 
26 1 2.16305 8.62495 2.24703 
27 1 1.40988 9.36545 1.61124 
4 1 4.60304 6.15761 6.10956 
5 1 3.0644 7.66352 7.57586 
6 1 3.78534 6.94902 6.86438 
37 1 0.633057 10.0233 10.0205 
38 1 2.40664 8.42858 8.51968 
39 1 1.94044 9.12676 9.44429 
49 2 0.950062 8.95185 9.94128 
13 1 6.23541 4.52515 4.54575 
14 1 7.76675 3.01551 3.01736 
15 1 7.05329 3.71857 3.73631 
28 1 10.03 0.722378 0.633775 
29 1 8.57015 2.2171 2.19187 
30 1 9.2587 1.51132 1.44883 
1 1 6.16909 4.58961 6.18326 
2 1 7.68626 3.08218 7.69597 
3 1 6.97545 3.78822 6.97783 
40 1 10.0145 0.756408 10.0833 
41 1 8.50082 2.27619 8.52866 
42 1 9.20377 1.57182 9.25211 
7 1 6.1723 6.15584 4.59604 
8 1 7.67623 7.68108 3.09348 
9 1 6.96887 6.96248 3.80272 
43 1 10.0133 10.0777 0.789342 
44 1 8.48861 8.52044 2.29862 
45 1 9.19611 9.24503 1.60063 
22 1 6.24616 6.20793 6.21201 
23 1 7.74702 7.75688 7.74856 
24 1 7.05121 7.03534 7.03467 
34 1 10.0252 10.0958 10.1173 
35 1 8.53763 8.58195 8.57941 
36 1 9.23598 9.2932 9.30667 
ITEM: TIMESTEP
150
ITEM: NUMBER OF ATOMS
49
ITEM: BOX BOUNDS pp pp pp
0.0000000000000000e+00 1.1000000000000000e+01
0.0000000000000000e+00 1.1002000000000001e+01
0.0000000000000000e+00 1.1000000000000000e+01
ITEM: ATOMS id type x y z 
10 1 4.59987 4.59354 4.60332 
11 1 3.08398 3.08844 3.09207 
12 1 3.79789 3.79513 3.80638 
46 1 0.767406 0.733437 0.707841 
47 1 2.26987 2.27352 2.27101 
48 1 1.57538 1.56197 1.54853 
19 1 4.55141 4.51489 6.21649 
20 1 3.0108 3.00127 7.75532 
21 1 3.7258 3.70251 7.04245 
31 1 0.698773 0.681682 10.1262 
32 1 2.19405 2.18936 8.58497 
33 1 1.4931 1.48173 9.31183 
16 1 4.5479 6.21375 4.49353 
17 1 3.00939 7.78016 3.00263 
18 1 3.72266 7.05378 3.69231 
25 1 0.56317 10.195 0.881689 
26 1 2.15902 8.62788 2.2509 
27 1 1.40853 9.36427 1.60649 
4 1 4.60191 6.15404 6.10461 
5 1 3.06573 7.66289 7.57164 
6 1 3.78817 6.94829 6.8634 
37 1 0.63204 10.0275 10.0023 
38 1 2.41796 8.4269 8.52674 
39 1 1.9503 9.12031 9.45505 
49 2 0.953809 8.95714 9.93624 
13 1 6.23616 4.52398 4.54631 
14 1 7.76896 3.01411 3.01794 
15 1 7.0529 3.7194 3.73193 
28 1 10.0317 0.719955 0.628535 
29 1 8.57127 2.21654 2.18701 
30 1 9.26093 1.50789 1.44773 
1 1 6.16613 4.59375 6.18155 
2 1 7.68395 3.08524 7.69174 
3 1 6.96974 3.79483 6.98085 
40 1 10.0123 0.75366 10.0763 
41 1 8.49663 2.28007 8.52588 
42 1 9.20018 1.57377 9.24507 
7 1 6.17203 6.15381 4.60082 
8 1 7.67428 7.67989 3.09697 
9 1 6.9679 6.96095 3.80666 
43 1 10.0129 10.0709 0.779626 
44 1 8.48687 8.51969 2.30133 
45 1 9.19276 9.24098 1.59868 
22 1 6.24516 6.20943 6.21331 
23 1 7.74758 7.75915 7.75136 
24 1 7.05208 7.03817 7.03768 
34 1 10.0305 10.0992 10.1224 
35 1 8.54028 8.5866 8.58601 
36 1 9.2408 9.29869 9.30936 
ITEM: TIMESTEP
160
ITEM: NUMBER OF ATOMS
49
ITEM: BOX BOUNDS pp pp pp
0.0000000000000000e+00 1.1000000000000000e+01
0.0000000000000000e+00 1.1002000000000001e+01
0.0000000000000000e+00 1.1000000000000000e+01
ITEM: ATOMS id type x y z 
10 1 4.60473 4.59284 4.61049 
11 1 3.08748 3.08985 3.09512 
12 1 3.79859 3.79829 3.80956 
46 1 0.771528 0.728245 0.705761 
47 1 2.27257 2.27598 2.26939 
48 1 1.58047 1.56317 1.54698 
19 1 4.54552 4.51293 6.21941 
20 1 3.00763 2.99774 7.76066 
21 1 3.71963 3.69893 7.04657 
31 1 0.69498 0.663132 10.1242 
32 1 2.18878 2.18334 8.59196 
33 1 1.48811 1.47023 9.31249 
16 1 4.54584 6.2162 4.49531 
17 1 3.00703 7.78101 3.00702 
18 1 3.72005 7.05416 3.69119 
25 1 0.557899 10.2026 0.888754 
26 1 2.15435 8.62894 2.2512 
27 1 1.40468 9.36938 1.61046 
4 1 4.59856 6.14914 6.09681 
5 1 3.07144 7.6636 7.5705 
6 1 3.78846 6.94803 6.85993 
37 1 0.634514 10.0381 9.96928 
38 1 2.43525 8.42445 8.53833 
39 1 1.96595 9.11011 9.47286 
49 2 0.957668 8.9672 9.92823 
13 1 6.23624 4.52352 4.54399 
14 1 7.77225 3.0127 3.01427 
15 1 7.05491 3.71756 3.7284 
28 1 10.0339 0.716269 0.616772 
29 1 8.57304 2.21274 2.18134 
30 1 9.26493 1.50646 1.44276 
1 1 6.15808 4.60193 6.18219 
2 1 7.67828 3.09322 7.68958 
3 1 6.9632 3.802 6.97853 
40 1 10.0071 0.756244 10.071 
41 1 8.49187 2.28357 8.51852 
42 1 9.19339 1.57753 9.23959 
7 1 6.17084 6.15079 4.60815 
8 1 7.67269 7.67892 3.10493 
9 1 6.96512 6.95784 3.81032 
43 1 10.0159 10.0596 0.768683 
44 1 8.4835 8.51957 2.30235 
45 1 9.19021 9.23398 1.59538 
22 1 6.24491 6.21375 6.21719 
23 1 7.74917 7.76458 7.75817 
24 1 7.05215 7.04344 7.04238 
34 1 10.042 10.1023 10.1247 
35 1 8.5436 8.59238 8.59086 
36 1 9.24397 9.30142 9.31649 
ITEM: TIMESTEP
170
ITEM: NUMBER OF ATOMS
49
ITEM: BOX BOUNDS pp pp pp
0.0000000000000000e+00 1.1000000000000000e+01
0.0000000000000000e+00 1.1002000000000001e+01
0.0000000000000000e+00 1.1000000000000000e+01
ITEM: ATOMS id type x y z 
10 1 4.60579 4.5918 4.61206 
11 1 3.08625 3.09176 3.09654 
12 1 3.80286 3.79661 3.80918 
46 1 0.772122 0.726509 0.705524 
47 1 2.27355 2.27671 2.26778 
48 1 1.58112 1.56189 1.54698 
19 1 4.5434 4.51208 6.21954 
20 1 3.00551 2.99679 7.76207 
21 1 3.71949 3.69803 7.04799 
31 1 0.695443 0.655366 10.1216 
32 1 2.18772 2.18236 8.59398 
33 1 1.48741 1.46582 9.31128 
16 1 4.54539 6.21569 4.49466 
17 1 3.00459 7.78204 3.00583 
18 1 3.7197 7.05457 3.69239 
25 1 0.556169 10.2049 0.894496 
26 1 2.15386 8.62852 2.2514 
27 1 1.40311 9.37166 1.6145 
4 1 4.59771 6.14976 6.0969 
5 1 3.07364 7.66471 7.57176 
6 1 3.78806 6.94794 6.85847 
37 1 0.633925 10.0437 9.95718 
38 1 2.43996 8.42441 8.54363 
39 1 1.96943 9.10781 9.47867 
49 2 0.958326 8.97098 9.92565 
13 1 6.23483 4.52339 4.54346 
14 1 7.77086 3.0129 3.01445 
15 1 7.05623 3.71881 3.7279 
28 1 10.0352 0.716618 0.614226 
29 1 8.57528 2.2115 2.18073 
30 1 9.26382 1.50575 1.4383 
1 1 6.15603 4.60499 6.18088 
2 1 7.67603 3.09405 7.68805 
3 1 6.96251 3.80629 6.97948 
40 1 10.0051 0.758452 10.0723 
41 1 8.49023 2.28518 8.51706 
42 1 9.19207 1.57776 9.23768 
7 1 6.1713 6.14794 4.6104 
8 1 7.67165 7.67906 3.10494 
9 1 6.9669 6.95873 3.81379 
43 1 10.0181 10.0562 0.765519 
44 1 8.48246 8.51906 2.3026 