LAMMPS (3 Mar 2020)
Reading data file ...
  orthogonal box = (0 0 0) to (11 11.002 11)
  2 by 2 by 2 MPI processor grid
  reading atoms ...
  49 atoms
  read_data CPU = 0.0261707 secs
WARNING: Using 'neigh_modify every 1 delay 0 check yes' setting during minimization (../min.cpp:190)
WARNING: Total cutoff < 2*bond cutoff. May need to use an increased neighbor list skin. (../pair_reaxc.cpp:413)
Neighbor list info ...
  update every 1 steps, delay 0 steps, check yes
  max neighbors/atom: 2000, page size: 100000
  master list distance cutoff = 9.5
  ghost atom cutoff = 9.5
  binsize = 4.75, bins = 3 3 3
  2 neighbor lists, perpetual/occasional/extra = 2 0 0
  (1) pair reax/c, perpetual
      attributes: half, newton off, ghost
      pair build: half/bin/newtoff/ghost
      stencil: half/ghost/bin/3d/newtoff
      bin: standard
  (2) fix qeq/reax, perpetual, copy from (1)
      attributes: half, newton off, ghost
      pair build: copy
      stencil: none
      bin: none
Setting up cg style minimization ...
  Unit style    : real
  Current step  : 0
Per MPI rank memory allocation (min/avg/max) = 18.75 | 18.81 | 18.91 Mbytes
Step Temp E_pair E_mol TotEng Press 
       0            0   -8589.6334            0   -8589.6334    15080.987 
     183            0   -8678.5232            0   -8678.5232    42651.806 
Loop time of 13.3318 on 8 procs for 183 steps with 49 atoms

99.8% CPU use with 8 MPI tasks x no OpenMP threads

Minimization stats:
  Stopping criterion = energy tolerance
  Energy initial, next-to-last, final = 
        -8589.63338311     -8678.52309818     -8678.52315919
  Force two-norm initial, final = 345.005 187.535
  Force max component initial, final = 139.576 44.1558
  Final line search alpha, max atom move = 7.07648e-05 0.00312468
  Iterations, force evaluations = 183 1193

MPI task timing breakdown:
Section |  min time  |  avg time  |  max time  |%varavg| %total
---------------------------------------------------------------
Pair    | 9.2838     | 9.3415     | 9.4171     |   1.4 | 70.07
Neigh   | 0          | 0          | 0          |   0.0 |  0.00
Comm    | 0.26964    | 0.34455    | 0.4028     |   7.1 |  2.58
Output  | 0.0021163  | 0.0030483  | 0.0044311  |   1.4 |  0.02
Modify  | 3.5875     | 3.5882     | 3.5917     |   0.1 | 26.91
Other   |            | 0.05454    |            |       |  0.41

Nlocal:    6.125 ave 7 max 6 min
Histogram: 7 0 0 0 0 0 0 0 0 1
Nghost:    598.125 ave 604 max 595 min
Histogram: 3 0 0 1 2 1 0 0 0 1
Neighs:    772.5 ave 877 max 754 min
Histogram: 7 0 0 0 0 0 0 0 0 1

Total # of neighbors = 6180
Ave neighs/atom = 126.122
Neighbor list builds = 0
Dangerous builds = 0
WARNING: Using 'neigh_modify every 1 delay 0 check yes' setting during minimization (../min.cpp:190)
WARNING: Total cutoff < 2*bond cutoff. May need to use an increased neighbor list skin. (../pair_reaxc.cpp:413)
Setting up cg style minimization ...
  Unit style    : real
  Current step  : 183
Per MPI rank memory allocation (min/avg/max) = 18.75 | 18.81 | 18.91 Mbytes
Step Temp E_pair E_mol TotEng Press 
     183            0   -8678.5232            0   -8678.5232    42651.806 
     184            0   -8678.5232            0   -8678.5232    42651.605 
Loop time of 0.101222 on 8 procs for 1 steps with 49 atoms

99.5% CPU use with 8 MPI tasks x no OpenMP threads

Minimization stats:
  Stopping criterion = energy tolerance
  Energy initial, next-to-last, final = 
        -8678.52315919     -8678.52315919     -8678.52317048
  Force two-norm initial, final = 187.535 187.532
  Force max component initial, final = 44.1558 44.155
  Final line search alpha, max atom move = 7.07721e-05 0.00312494
  Iterations, force evaluations = 1 8

MPI task timing breakdown:
Section |  min time  |  avg time  |  max time  |%varavg| %total
---------------------------------------------------------------
Pair    | 0.071025   | 0.072058   | 0.072702   |   0.2 | 71.19
Neigh   | 0          | 0          | 0          |   0.0 |  0.00
Comm    | 0.0017531  | 0.0024284  | 0.0034333  |   1.1 |  2.40
Output  | 0          | 0          | 0          |   0.0 |  0.00
Modify  | 0.026081   | 0.026093   | 0.026123   |   0.0 | 25.78
Other   |            | 0.000643   |            |       |  0.64

Nlocal:    6.125 ave 7 max 6 min
Histogram: 7 0 0 0 0 0 0 0 0 1
Nghost:    603.125 ave 608 max 598 min
Histogram: 1 1 0 1 0 0 1 3 0 1
Neighs:    785.25 ave 892 max 764 min
Histogram: 6 1 0 0 0 0 0 0 0 1

Total # of neighbors = 6282
Ave neighs/atom = 128.204
Neighbor list builds = 0
Dangerous builds = 0
WARNING: Using 'neigh_modify every 1 delay 0 check yes' setting during minimization (../min.cpp:190)
WARNING: Total cutoff < 2*bond cutoff. May need to use an increased neighbor list skin. (../pair_reaxc.cpp:413)
Setting up cg style minimization ...
  Unit style    : real
  Current step  : 184
WARNING: Energy due to 3 extra global DOFs will be included in minimizer energies
Per MPI rank memory allocation (min/avg/max) = 18.75 | 18.81 | 18.91 Mbytes
Step Temp E_pair E_mol TotEng Press Volume 
     184            0   -8678.5232            0   -8678.5232    42651.605     1331.242 
     802            0   -8690.9567            0   -8690.9567    571.78718    1352.3705 
Loop time of 9.64094 on 8 procs for 618 steps with 49 atoms

99.6% CPU use with 8 MPI tasks x no OpenMP threads

Minimization stats:
  Stopping criterion = energy tolerance
  Energy initial, next-to-last, final = 
        -8678.52317048     -8690.95665626      -8690.9566882
  Force two-norm initial, final = 1447.45 37.3514
  Force max component initial, final = 855.747 11.478
  Final line search alpha, max atom move = 8.94253e-07 1.02643e-05
  Iterations, force evaluations = 618 962

MPI task timing breakdown:
Section |  min time  |  avg time  |  max time  |%varavg| %total
---------------------------------------------------------------
Pair    | 7.5981     | 7.6699     | 7.7491     |   1.7 | 79.56
Neigh   | 0          | 0          | 0          |   0.0 |  0.00
Comm    | 0.17584    | 0.25452    | 0.32619    |   9.0 |  2.64
Output  | 0.0061241  | 0.0085189  | 0.012672   |   2.2 |  0.09
Modify  | 1.6052     | 1.6059     | 1.6085     |   0.1 | 16.66
Other   |            | 0.1021     |            |       |  1.06

Nlocal:    6.125 ave 7 max 6 min
Histogram: 7 0 0 0 0 0 0 0 0 1
Nghost:    603.125 ave 608 max 598 min
Histogram: 1 1 0 1 0 0 1 3 0 1
Neighs:    785.25 ave 892 max 764 min
Histogram: 6 1 0 0 0 0 0 0 0 1

Total # of neighbors = 6282
Ave neighs/atom = 128.204
Neighbor list builds = 0
Dangerous builds = 0
WARNING: Using 'neigh_modify every 1 delay 0 check yes' setting during minimization (../min.cpp:190)
WARNING: Total cutoff < 2*bond cutoff. May need to use an increased neighbor list skin. (../pair_reaxc.cpp:413)
Setting up cg style minimization ...
  Unit style    : real
  Current step  : 802
Per MPI rank memory allocation (min/avg/max) = 18.75 | 18.81 | 18.91 Mbytes
Step Temp E_pair E_mol TotEng Press 
     802            0   -8690.9567            0   -8690.9567    571.78718 
     993            0   -8719.4634            0   -8719.4634    21802.551 
Loop time of 16.6487 on 8 procs for 191 steps with 49 atoms

99.7% CPU use with 8 MPI tasks x no OpenMP threads

Minimization stats:
  Stopping criterion = energy tolerance
  Energy initial, next-to-last, final = 
         -8690.9566882     -8719.46339503     -8719.46340662
  Force two-norm initial, final = 31.8953 64.3921
  Force max component initial, final = 10.1041 28.5626
  Final line search alpha, max atom move = 2.21875e-06 6.33734e-05
  Iterations, force evaluations = 191 1534

MPI task timing breakdown:
Section |  min time  |  avg time  |  max time  |%varavg| %total
---------------------------------------------------------------
Pair    | 11.637     | 11.857     | 12.112     |   4.5 | 71.22
Neigh   | 0          | 0          | 0          |   0.0 |  0.00
Comm    | 0.24131    | 0.49112    | 0.70763    |  21.5 |  2.95
Output  | 0.0021095  | 0.0027566  | 0.0039124  |   1.0 |  0.02
Modify  | 4.2333     | 4.2341     | 4.2383     |   0.1 | 25.43
Other   |            | 0.06337    |            |       |  0.38

Nlocal:    6.125 ave 7 max 6 min
Histogram: 7 0 0 0 0 0 0 0 0 1
Nghost:    582.5 ave 595 max 573 min
Histogram: 4 0 0 0 0 1 0 1 0 2
Neighs:    773.25 ave 878 max 751 min
Histogram: 6 1 0 0 0 0 0 0 0 1

Total # of neighbors = 6186
Ave neighs/atom = 126.245
Neighbor list builds = 0
Dangerous builds = 0
WARNING: Using 'neigh_modify every 1 delay 0 check yes' setting during minimization (../min.cpp:190)
WARNING: Total cutoff < 2*bond cutoff. May need to use an increased neighbor list skin. (../pair_reaxc.cpp:413)
Setting up cg style minimization ...
  Unit style    : real
  Current step  : 993
WARNING: Energy due to 3 extra global DOFs will be included in minimizer energies
Per MPI rank memory allocation (min/avg/max) = 18.75 | 18.81 | 18.91 Mbytes
Step Temp E_pair E_mol TotEng Press Volume 
     993            0   -8719.4634            0   -8719.4634    21802.551    1352.3705 
    2358            0   -8740.8883            0   -8740.8883    956.53251    1363.8762 
Loop time of 19.2532 on 8 procs for 1365 steps with 49 atoms

99.5% CPU use with 8 MPI tasks x no OpenMP threads

Minimization stats:
  Stopping criterion = energy tolerance
  Energy initial, next-to-last, final = 
        -8719.46340662     -8740.88823897     -8740.88826762
  Force two-norm initial, final = 747.871 35.3034
  Force max component initial, final = 438.973 19.4056
  Final line search alpha, max atom move = 2.1153e-05 0.000410487
  Iterations, force evaluations = 1365 1948

MPI task timing breakdown:
Section |  min time  |  avg time  |  max time  |%varavg| %total
---------------------------------------------------------------
Pair    | 14.949     | 15.097     | 15.447     |   4.2 | 78.41
Neigh   | 0          | 0          | 0          |   0.0 |  0.00
Comm    | 0.26816    | 0.61607    | 0.76432    |  20.9 |  3.20
Output  | 0.013641   | 0.0168     | 0.023981   |   2.4 |  0.09
Modify  | 3.3152     | 3.3162     | 3.3213     |   0.1 | 17.22
Other   |            | 0.2068     |            |       |  1.07

Nlocal:    6.125 ave 7 max 6 min
Histogram: 7 0 0 0 0 0 0 0 0 1
Nghost:    583.75 ave 599 max 572 min
Histogram: 2 0 1 0 2 0 2 0 0 1
Neighs:    776.75 ave 882 max 755 min
Histogram: 5 2 0 0 0 0 0 0 0 1

Total # of neighbors = 6214
Ave neighs/atom = 126.816
Neighbor list builds = 0
Dangerous builds = 0
WARNING: Using 'neigh_modify every 1 delay 0 check yes' setting during minimization (../min.cpp:190)
WARNING: Total cutoff < 2*bond cutoff. May need to use an increased neighbor list skin. (../pair_reaxc.cpp:413)
Setting up cg style minimization ...
  Unit style    : real
  Current step  : 2358
Per MPI rank memory allocation (min/avg/max) = 18.75 | 18.81 | 18.91 Mbytes
Step Temp E_pair E_mol TotEng Press 
    2358            0   -8740.8883            0   -8740.8883    956.53251 
    2445            0   -8741.3314            0   -8741.3314    367.19787 
Loop time of 9.00193 on 8 procs for 87 steps with 49 atoms

99.5% CPU use with 8 MPI tasks x no OpenMP threads

Minimization stats:
  Stopping criterion = energy tolerance
  Energy initial, next-to-last, final = 
        -8740.88826762     -8741.33137238     -8741.33137645
  Force two-norm initial, final = 12.8874 18.0029
  Force max component initial, final = 6.05107 10.8721
  Final line search alpha, max atom move = 3.27317e-06 3.55862e-05
  Iterations, force evaluations = 87 850

MPI task timing breakdown:
Section |  min time  |  avg time  |  max time  |%varavg| %total
---------------------------------------------------------------
Pair    | 6.498      | 6.5615     | 6.6909     |   2.3 | 72.89
Neigh   | 0          | 0          | 0          |   0.0 |  0.00
Comm    | 0.12629    | 0.25421    | 0.31661    |  11.8 |  2.82
Output  | 0.00085894 | 0.0010502  | 0.0015683  |   0.7 |  0.01
Modify  | 2.1507     | 2.1511     | 2.1533     |   0.1 | 23.90
Other   |            | 0.03402    |            |       |  0.38

Nlocal:    6.125 ave 7 max 6 min
Histogram: 7 0 0 0 0 0 0 0 0 1
Nghost:    581.75 ave 595 max 572 min
Histogram: 2 0 0 2 2 0 0 1 0 1
Neighs:    770.25 ave 874 max 748 min
Histogram: 6 1 0 0 0 0 0 0 0 1

Total # of neighbors = 6162
Ave neighs/atom = 125.755
Neighbor list builds = 0
Dangerous builds = 0
WARNING: Total cutoff < 2*bond cutoff. May need to use an increased neighbor list skin. (../pair_reaxc.cpp:413)
Setting up Verlet run ...
  Unit style    : real
  Current step  : 0
  Time step     : 0.25
Per MPI rank memory allocation (min/avg/max) = 17.63 | 17.68 | 17.78 Mbytes
Step Temp TotEng KinEng PotEng Press 
       0          300   -8698.4077    42.923665   -8741.3314    1805.8463 
     200    199.24984   -8680.2666    28.508444   -8708.7751   -6305.9342 
     400    280.62845   -8653.3495    40.152006   -8693.5015   -15360.467 
     600    353.29669   -8641.0349    50.549295   -8691.5842    52390.393 
     800    335.13991   -8657.5374    47.951443   -8705.4889    8418.4322 
    1000    288.48051   -8665.8707     41.27547   -8707.1462    5178.4602 
    1200    290.98393     -8649.67    41.633656   -8691.3037     34148.68 
    1400    285.58121   -8652.5487     40.86064   -8693.4094    38847.077 
    1600    257.06486   -8661.6036    36.780553   -8698.3842   -5491.0321 
    1800    336.62936    -8643.741    48.164553   -8691.9056   -20273.861 
    2000    303.95267   -8656.9002    43.489209   -8700.3894   -5762.9385 
    2200    310.01321   -8658.4607    44.356343    -8702.817   -8650.7827 
    2400    284.11217   -8659.8705    40.650452    -8700.521   -2348.7269 
    2600    298.00147   -8648.1811    42.637718   -8690.8188   -21842.361 
    2800    271.63663   -8661.1798    38.865465   -8700.0453   -15202.053 
    3000    281.10034   -8663.7076    40.219522   -8703.9271   -16671.564 
    3200    284.52869   -8652.7041    40.710047   -8693.4142   -35991.654 
    3400    265.18449   -8654.2804      37.9423   -8692.2227    2162.3616 
    3600    355.59161   -8638.1417    50.877651   -8689.0193   -30181.875 
    3800    290.44432   -8655.4123    41.556448   -8696.9687    20892.685 
    4000    326.10868   -8659.4632    46.659266   -8706.1225   -5782.6607 
    4200    262.91116   -8661.3275    37.617035   -8698.9445     29750.25 
    4400    265.13851    -8646.445    37.935721   -8684.3807    14772.427 
    4600    275.34965   -8660.1506     39.39672   -8699.5473    21420.358 
    4800    332.13427   -8657.0599      47.5214   -8704.5813    42617.552 
    5000    313.91163   -8651.8832    44.914126   -8696.7973     10391.05 
    5200    268.95647   -8669.0407    38.481991   -8707.5227    28315.327 
    5400    323.60379   -8657.3707    46.300869   -8703.6715   -14169.076 
    5600    287.20001   -8650.5224    41.092256   -8691.6147   -6036.0256 
    5800    289.46419   -8654.9199    41.416212   -8696.3361   -13892.643 
    6000    241.86966   -8664.6538     34.60644   -8699.2602   -5469.7931 
    6200    297.75969   -8653.4009    42.603124    -8696.004    2748.5525 
    6400    286.50353   -8658.5373    40.992605   -8699.5299   -27952.278 
    6600     272.0347   -8667.4761    38.922422   -8706.3985   -10912.307 
    6800    362.12841   -8653.0329    51.812928   -8704.8459    2310.2397 
    7000    228.78266   -8653.2662    32.733968   -8686.0002    11993.404 
    7200    323.33239   -8654.7037    46.262036   -8700.9658    395.66212 
    7400    273.06208   -8662.1481    39.069417   -8701.2175    28631.157 
    7600    324.15777   -8641.4386    46.380132   -8687.8188    12431.052 
    7800    293.62254   -8651.8026    42.011185   -8693.8138   -28455.597 
    8000    338.48692   -8655.6555    48.430331   -8704.0859   -5352.1552 
    8200    288.62147   -8667.6193    41.295637    -8708.915    37046.242 
    8400    285.13046    -8654.142    40.796147   -8694.9382   -27540.522 
    8600    305.51701   -8651.2684    43.713032   -8694.9815   -8303.1454 
    8800    245.41681   -8670.4446    35.113963   -8705.5586   -12468.677 
    9000    254.82974   -8664.2374    36.460754   -8700.6981   -20789.772 
    9200    308.12168   -8651.0729    44.085705   -8695.1586   -10750.035 
    9400    284.95935   -8664.1325    40.771666   -8704.9042   -11068.258 
    9600     285.3406   -8663.2474    40.826213   -8704.0736    364.94618 
    9800    279.54411   -8652.2955    39.996858   -8692.2923   -11460.054 
   10000    278.74344   -8659.8432      39.8823   -8699.7255    4040.2225 
   10200    278.01725   -8667.6307    39.778398    -8707.409    4161.7208 
   10400    317.71156     -8653.02    45.457815   -8698.4778    38874.686 
   10600     317.5788   -8651.6714     45.43882   -8697.1102    7664.6237 
   10800    363.96498   -8648.9298    52.075702   -8701.0055   -12937.467 
   11000     310.5187   -8658.7625    44.428669   -8703.1911    -51161.71 
   11200    246.89099     -8654.18    35.324887   -8689.5049   -963.85974 
   11400    304.82494   -8647.2701    43.614012   -8690.8841   -22581.452 
   11600    307.69562   -8664.7482    44.024746   -8708.7729   -9051.4805 
   11800    320.93354   -8657.0161    45.918812   -8702.9349    30662.877 
   12000    286.29061   -8652.3046     40.96214   -8693.2668    23352.367 
   12200    226.99423    -8663.863     32.47808   -8696.3411    8407.5291 
   12400    283.16992   -8660.7883    40.515635   -8701.3039   -15366.229 
   12600    315.49105   -8648.2326    45.140107   -8693.3727   -5985.3138 
   12800    255.48829   -8659.4652    36.554979   -8696.0202    22414.601 
   13000    343.63762    -8646.171    49.167287   -8695.3383   -11167.614 
   13200    281.60585   -8656.7028     40.29185   -8696.9946    32381.079 
   13400    286.77791   -8662.1616    41.031863   -8703.1934   -3056.7858 
   13600    258.50724   -8660.5689    36.986928   -8697.5558    29444.731 
   13800    296.23667   -8649.7319    42.385212   -8692.1171      22972.1 
   14000    278.45928   -8666.9863    39.841642   -8706.8279    759.57489 
   14200    347.81517    -8660.068    49.765006    -8709.833    31540.343 
   14400    304.18306   -8656.6843    43.522173   -8700.2065    40427.513 
   14600    401.04015   -8639.6985    57.380376   -8697.0789   -16998.079 
   14800    252.13293   -8659.6526    36.074898   -8695.7275    27987.476 
   15000    332.80335   -8648.1174    47.617131   -8695.7346    13262.781 
   15200    392.14798   -8651.3484    56.108095   -8707.4565   -9222.8083 
   15400    310.05046   -8656.0269    44.361673   -8700.3885   -11299.836 
   15600      322.872   -8653.3218    46.196165    -8699.518   -35397.923 
   15800    221.45739   -8665.4815    31.685876   -8697.1674   -24437.638 
   16000      300.474    -8659.383    42.991484   -8702.3745   -24740.911 
   16200    327.01524    -8649.252    46.788975   -8696.0409    -21935.08 
   16400    326.93339   -8655.4589    46.777264   -8702.2362     -12847.3 
   16600    267.30158   -8660.5212    38.245212   -8698.7664   -6830.0242 
   16800    338.79358   -8646.1516    48.474207   -8694.6258    19799.239 
   17000    261.72901   -8653.1941    37.447895    -8690.642    36161.295 
   17200    291.75672   -8651.5565    41.744225   -8693.3007    -41459.32 
   17400    358.35198   -8644.5188    51.272601   -8695.7914    18098.902 
   17600    282.67076   -8660.6789    40.444217   -8701.1231    17488.925 
   17800    303.10242   -8658.3355    43.367556   -8701.7031   -9250.0352 
   18000    323.86468   -8646.6986    46.338196   -8693.0368   -41186.706 
   18200     293.8694   -8663.9316    42.046506   -8705.9781   -4633.8683 
   18400    272.59995   -8665.7384    39.003297   -8704.7417    631.49252 
   18600     321.5938   -8650.7833    46.013281   -8696.7966    6823.2241 
   18800    272.02639   -8662.8602    38.921232   -8701.7815   -4974.2515 
   19000    282.55878   -8661.9257    40.428195   -8702.3539    4887.1837 
   19200      331.494   -8652.7337     47.42979   -8700.1635    -53416.89 
   19400    218.01098   -8668.9884    31.192767   -8700.1812   -4432.8815 
   19600    365.83863   -8659.1786    52.343783   -8711.5223     9125.802 
   19800    297.26272   -8657.2998    42.532018   -8699.8318    34539.236 
   20000    297.74206   -8638.3922    42.600601   -8680.9928   -11247.814 
   20200    308.23672   -8652.3831    44.102165   -8696.4852   -18442.614 
   20400    315.86364   -8655.4557    45.193416   -8700.6491   -40246.637 
   20600    242.99555   -8664.1111    34.767531   -8698.8786    19618.189 
   20800    271.11593   -8661.7694    38.790964   -8700.5604    22550.106 
   21000    354.50579   -8652.2405    50.722292   -8702.9628    2082.9619 
   21200    319.71168   -8659.7837     45.74399   -8705.5277    18384.107 
   21400     346.4975   -8643.7826    49.576475   -8693.3591   -14039.355 
   21600    311.05328   -8654.2516    44.505156   -8698.7567   -11099.863 
   21800    262.72129   -8663.8561    37.589869   -8701.4459    17135.753 
   22000    345.89503   -8658.6385    49.490275   -8708.1288    28708.377 
   22200    391.39098   -8636.6277    55.999785   -8692.6275   -14283.327 
   22400    293.19945   -8653.9145     41.95065   -8695.8651    4398.8429 
   22600    345.46008   -8659.1658    49.428041   -8708.5938   -13419.893 
   22800    310.65156   -8651.0266    44.447679   -8695.4743    47252.366 
   23000    263.90367    -8659.972    37.759042   -8697.7311    20737.953 
   23200    264.19902   -8666.4083      37.8013   -8704.2096    2916.8777 
   23400    370.05702   -8645.3975    52.947345   -8698.3448   -6522.2129 
   23600    290.35794   -8655.0711     41.54409   -8696.6152    35695.087 
   23800     256.6098   -8663.3173    36.715444   -8700.0327    2823.1035 
   24000    300.93804   -8646.2897    43.057878   -8689.3476    6731.9226 
   24200    281.17054   -8663.0001    40.229567   -8703.2297   -12088.028 
   24400    349.99601   -8657.6798    50.077038   -8707.7568    16186.837 
   24600    306.46347   -8652.9133     43.84845   -8696.7617   -34845.001 
   24800    316.04686    -8654.798    45.219631   -8700.0176     -13927.2 
   25000    271.15861   -8660.8061    38.797071   -8699.6032   -27581.367 
   25200    272.19823   -8669.4741    38.945819   -8708.4199   -13770.914 
   25400    314.30407   -8650.8158    44.970275   -8695.7861   -41449.124 
   25600    305.99691   -8654.5373    43.781696    -8698.319   -12618.035 
   25800     266.3633   -8668.9553    38.110963   -8707.0663    529.34695 
   26000    318.81608   -8658.4886    45.615849   -8704.1044   -3965.6326 
   26200    321.62011   -8656.9012    46.017046   -8702.9182    -10312.63 
   26400    217.87798   -8670.2879    31.173738   -8701.4617    4662.2216 
   26600    320.38857   -8652.6531    45.840838   -8698.4939    22978.436 
   26800    313.75105   -8657.2136     44.89115   -8702.1047     -25489.5 
   27000    285.58449   -8663.1202     40.86111   -8703.9813   -35215.208 
   27200    275.35473   -8653.6264    39.397447   -8693.0238    -5013.846 
   27400    279.41291   -8652.3087    39.978087   -8692.2868    11717.187 
   27600    312.29902   -8664.3519    44.683395   -8709.0353   -8539.6507 
   27800    292.51121   -8653.2997    41.852177   -8695.1519    9000.6007 
   28000    312.62089   -8656.8042    44.729447   -8701.5337    639.24257 
   28200    314.38901   -8671.3411    44.982429   -8716.3236    1675.3596 
   28400    271.27265   -8655.9015    38.813387   -8694.7149   -27726.427 
   28600    307.33996   -8652.7356    43.973858   -8696.7095   -15367.722 
   28800    219.27837    -8668.084    31.374105   -8699.4581    43972.606 
   29000    336.03283   -8656.3988    48.079202    -8704.478    5969.7451 
   29200    295.74428   -8657.9383     42.31476   -8700.2531    -31518.69 
   29400    318.66329   -8654.5411    45.593987   -8700.1351   -2690.3005 
   29600    234.22247   -8654.0037    33.512289    -8687.516    20750.981 
   29800     284.1584   -8661.3836    40.657067   -8702.0406    5487.7296 
   30000    283.56893   -8665.0637    40.572725   -8705.6364    8536.8199 
   30200    317.93949   -8648.4669    45.490427   -8693.9573     7670.378 
   30400    263.45002   -8660.7179    37.694135    -8698.412   -584.50876 
   30600    291.07072   -8659.8143    41.646074   -8701.4604    53387.724 
   30800    370.13893   -8651.3599    52.959064   -8704.3189    23952.924 
   31000     257.1674   -8665.9499    36.795225   -8702.7452    37097.795 
   31200    304.22779   -8658.9599    43.528572   -8702.4885   -10589.936 
   31400    324.99833   -8651.8313    46.500398   -8698.3317   -8188.6659 
   31600    295.65978    -8660.836     42.30267   -8703.1386   -11392.836 
   31800    274.32818    -8667.657     39.25057   -8706.9076   -4559.5167 
   32000    315.77665   -8651.2448     45.18097   -8696.4257   -18671.208 
   32200    315.94308   -8661.2242    45.204783    -8706.429    21484.742 
   32400    283.14607   -8666.9415    40.512223   -8707.4538    -18838.77 
   32600    300.73263   -8648.6133    43.028489   -8691.6418    8263.1338 
   32800    309.17214   -8654.9161    44.236005   -8699.1521    8234.9075 
   33000    248.42244   -8665.2445    35.544005   -8700.7885   -38752.163 
   33200    308.66561   -8653.1012    44.163531   -8697.2647   -19189.703 
   33400    284.11198   -8658.7766    40.650424    -8699.427   -15227.536 
   33600    287.30518   -8656.4774    41.107305   -8697.5847    -4173.997 
   33800    290.50984   -8649.8986    41.565824   -8691.4644    1176.3558 
   34000    297.56514   -8657.4581    42.575287   -8700.0334   -45054.771 
   34200    292.38956   -8655.8799    41.834771   -8697.7147   -5511.3611 
   34400     344.0597   -8658.8205    49.227678   -8708.0481   -8185.2348 
   34600    300.20589   -8653.4258    42.953123   -8696.3789   -17022.253 
   34800    289.30745   -8654.9315    41.393786   -8696.3253    12703.622 
   35000    292.63614   -8661.0313    41.870052   -8702.9013   -7105.7006 
   35200    313.96041   -8650.7656    44.921105   -8695.6867   -14490.608 
   35400    383.46445    -8634.819    54.865664   -8689.6847    16269.379 
   35600    329.56697   -8657.0244    47.154074   -8704.1785    -15963.08 
   35800    247.71537   -8657.1999    35.442838   -8692.6428   -12980.543 
   36000    318.94599   -8650.2031    45.634435   -8695.8375   -34311.926 
   36200    237.61416   -8658.0413    33.997568   -8692.0388   -8126.0172 
   36400    310.31711   -8656.5282    44.399825    -8700.928    23000.689 
   36600      280.987   -8664.9561    40.203306   -8705.1594    5225.7575 
   36800    290.55672   -8652.9695    41.572531    -8694.542    1772.9193 
   37000    334.34547   -8654.9275    47.837777   -8702.7653    14613.961 
   37200      235.767   -8667.8781    33.733279   -8701.6114     40819.77 
   37400    264.18282   -8672.6604    37.798982   -8710.4594    20979.056 
   37600    276.61743   -8656.8642    39.578113   -8696.4423   -36146.854 
   37800    315.45338   -8649.9489    45.134718   -8695.0836    35468.442 
   38000    302.58277   -8652.6218    43.293205    -8695.915    11978.326 
   38200    277.36055   -8665.7427    39.684438   -8705.4271    2719.7742 
   38400    311.71863   -8648.5392    44.600354   -8693.1395    12930.709 
   38600    325.51645   -8650.0784     46.57453   -8696.6529    29881.014 
   38800    276.49399   -8659.6216    39.560452    -8699.182    5829.5083 
   39000    264.22111   -8654.5879    37.804462   -8692.3923    687.52183 
   39200    346.49371   -8644.3475    49.575932   -8693.9234     21465.93 
   39400    230.55445   -8664.1515    32.987473   -8697.1389     9000.204 
   39600    302.61858    -8653.519    43.298329   -8696.8174    -13294.79 
   39800    320.13321     -8642.22    45.804301   -8688.0243   -25827.957 
   40000    281.34052   -8654.3671    40.253887    -8694.621   -3898.9596 
   40200     292.4613   -8661.8397    41.845036   -8703.6847   -4992.4235 
   40400    301.72229   -8657.1998    43.170088   -8700.3699    72088.287 
   40600    304.59428   -8648.8981    43.581009   -8692.4791   -32231.905 
   40800    301.20637   -8666.8068     43.09627    -8709.903   -553.48007 
   41000    284.18312   -8661.3228    40.660604   -8701.9834   -41488.455 
   41200    306.56679    -8653.482    43.863234   -8697.3452    16629.787 
   41400    279.44196   -8653.0078    39.982243     -8692.99   -23640.065 
   41600    288.92558   -8665.5829    41.339149   -8706.9221    289.61429 
   41800    293.05227   -8648.0932    41.929591   -8690.0228    40412.107 
   42000    325.22234     -8647.95    46.532449   -8694.4824   -22388.375 
   42200    247.71347   -8663.9057    35.442567   -8699.3483   -39057.766 
   42400    241.42894   -8660.7652    34.543383   -8695.3086   -8650.6492 
   42600    335.84863   -8644.6221    48.052846    -8692.675    6908.8567 
   42800    349.32173   -8646.5982    49.980563   -8696.5788    16259.788 
   43000    269.21836    -8662.055    38.519463   -8700.5745    15827.372 
   43200    300.90592   -8658.3936    43.053283   -8701.4469     21169.99 
   43400    298.35563   -8646.3221     42.68839   -8689.0104   -17927.475 
   43600    274.26619   -8664.9952      39.2417   -8704.2369   -2114.6006 
   43800    284.52638   -8656.3248    40.709716   -8697.0345    19861.668 
   44000      347.386   -8648.8949      49.7036   -8698.5985    17637.316 
   44200    252.81857   -8665.4973    36.172998   -8701.6703    -17315.69 
   44400    292.70443   -8651.8762    41.879822    -8693.756   -32623.871 
   44600    275.27291   -8659.4023     39.38574   -8698.7881   -16852.633 
   44800    257.08171   -8656.6071    36.782964   -8693.3901   -1379.0431 
   45000    325.90739   -8650.7285    46.630465   -8697.3589    1253.1258 
   45200    254.47875    -8665.124    36.410535   -8701.5346    37441.306 
   45400    306.75558   -8653.9194    43.890245   -8697.8096     -6554.41 
   45600    333.71473   -8650.7126    47.747531   -8698.4601    10206.815 
   45800    309.97794   -8660.1248    44.351297   -8704.4761     11798.65 
   46000    291.38426   -8654.5541    41.690934    -8696.245    501.98276 
   46200    385.94327   -8637.4355    55.220331   -8692.6559   -16115.253 
   46400     310.0412   -8656.8556    44.360348   -8701.2159   -31932.814 
   46600     319.5988   -8658.2062     45.72784   -8703.9341   -11148.212 
   46800    326.94476   -8642.9879    46.778891   -8689.7668    1463.3482 
   47000    290.43847   -8660.8248    41.555612   -8702.3804    -23896.62 
   47200    300.32931   -8657.7622    42.970781    -8700.733    19199.794 
   47400    347.50132   -8646.7069    49.720101    -8696.427   -42862.497 
   47600    309.81117   -8657.9569    44.327435   -8702.2843    36931.701 
   47800    312.58334   -8659.6023    44.724075   -8704.3263   -20814.055 
   48000     357.3938    -8642.963    51.135506   -8694.0985    21821.906 
   48200    238.40788   -8665.4861    34.111133   -8699.5972    2571.0959 
   48400    342.15215   -8656.2723    48.954748   -8705.2271    3992.6599 
   48600    308.31233   -8652.8236    44.112984   -8696.9365    23727.267 
   48800    285.54562   -8665.9334    40.855548    -8706.789   -20698.806 
   49000    263.39085   -8658.8512    37.685669   -8696.5368    14326.984 
   49200    324.60493   -8652.5653     46.44411   -8699.0094    9016.0051 
   49400    265.33131   -8664.6946    37.963308   -8702.6579   -14909.036 
   49600    250.31041    -8668.728    35.814134   -8704.5421    23117.863 
   49800    348.17715   -8651.8701    49.816798   -8701.6869    8637.0011 
   50000    308.26803   -8655.8349    44.106645   -8699.9415   -37596.841 
   50200    273.00852   -8667.6104    39.061754   -8706.6721    -11619.36 
   50400    305.49228   -8658.1678    43.709494   -8701.8773    11559.279 
   50600    317.56073   -8653.5564    45.436234   -8698.9926    14671.952 
   50800     273.7571   -8666.6302     39.16886    -8705.799    5022.5945 
   51000    295.26226   -8662.9383    42.245794   -8705.1841    -664.8359 
   51200    346.97803   -8655.6184    49.645228   -8705.2637    7423.0193 
   51400    303.85138   -8653.3558    43.474716   -8696.8305    12507.957 
   51600    250.60392   -8663.9989    35.856129   -8699.8551   -14663.535 
   51800    277.08012   -8661.9949    39.644314   -8701.6392   -8322.8386 
   52000    304.92889   -8647.7898    43.628885   -8691.4187     17009.72 
   52200    260.95377   -8662.7531    37.336973   -8700.0901    2047.6057 
   52400    302.97322   -8658.4777     43.34907   -8701.8267    26928.234 
   52600     392.1544   -8642.5133    56.109014   -8698.6223   -20101.328 
   52800    258.00687   -8660.6265    36.915334   -8697.5418    26057.518 
   53000    303.08577    -8650.127    43.365173   -8693.4922   -3253.5359 
   53200     235.1565   -8658.0111    33.645929    -8691.657    15850.584 
   53400    275.94881   -8666.0684    39.482447   -8705.5509   -35163.312 
   53600    336.77777   -8648.3828    48.185787   -8696.5686    -18750.23 
   53800     311.5538   -8653.1174    44.576769   -8697.6942   -2000.5128 
   54000    283.37149   -8658.9465    40.544476   -8699.4909   -5861.8032 
   54200     299.1031   -8655.7377    42.795337    -8698.533   -30733.722 
   54400    269.47889    -8657.445    38.556738   -8696.0017    35980.157 
   54600    307.80926   -8658.1709    44.041006   -8702.2119    8747.0665 
   54800    369.40576   -8644.3972    52.854164   -8697.2514    8926.9804 
   55000    314.49665    -8652.372    44.997829   -8697.3698    38300.338 
   55200    319.98458   -8661.6774    45.783036   -8707.4604    14060.828 
   55400    348.34231   -8649.5848    49.840428   -8699.4252   -22441.056 
   55600    314.97185   -8653.4346    45.065821   -8698.5004   -21758.209 
   55800    279.54317   -8660.6773    39.996724   -8700.6741    1192.1843 
   56000    365.13897   -8645.8978    52.243676   -8698.1415   -8383.7701 
   56200    276.38931   -8655.1307    39.545474   -8694.6762   -6330.0518 
   56400    258.31557   -8660.6393    36.959504   -8697.5988    33524.217 
   56600    382.98681   -8653.5253    54.797324   -8708.3227    13416.428 
   56800    291.85987   -8647.7079    41.758984   -8689.4669   -39451.473 
   57000    275.64705   -8661.3783    39.439272   -8700.8176   -37841.016 
   57200    326.16875   -8656.9169     46.66786   -8703.5848    21133.075 
   57400    332.22314   -8648.3029    47.534115    -8695.837    8314.2908 
   57600    336.20805   -8658.3934    48.104271   -8706.4977   -8881.7018 
   57800    290.61267   -8659.9049    41.580536   -8701.4854   -19057.105 
   58000    381.79601   -8635.9293    54.626947   -8690.5562   -16053.371 
   58200    283.85898   -8646.1618    40.614225    -8686.776    29090.421 
   58400    249.33244   -8662.4732    35.674206   -8698.1474   -25661.955 
   58600    258.65773   -8660.1599     37.00846   -8697.1683   -22708.761 
   58800    367.73248   -8650.2603    52.614752   -8702.8751     4301.822 
   59000    314.64017   -8656.3316    45.018364     -8701.35    26925.867 
   59200     241.2717   -8657.8514    34.520885   -8692.3722    17135.781 
   59400     344.8991   -8648.3027    49.347778   -8697.6505   -9367.2737 
   59600    291.85024   -8661.3184    41.757607    -8703.076   -7074.9176 
   59800    247.61461   -8664.0081    35.428422   -8699.4366    1703.1145 
   60000    331.35746   -8650.8576    47.410254   -8698.2679   -19120.058 
   60200    279.59597   -8656.7713    40.004279   -8696.7755   -18952.446 
   60400    258.25889   -8660.8823    36.951394   -8697.8337    6223.5422 
   60600    306.45824   -8651.9581    43.847703   -8695.8058    4359.8701 
   60800    278.35656    -8661.121    39.826945    -8700.948    21041.918 
   61000    280.71002   -8664.7395    40.163676   -8704.9031    13105.465 
   61200     351.3137   -8647.3364    50.265572    -8697.602   -11998.635 
   61400    291.32811   -8662.7276    41.682901   -8704.4105    5280.9763 
   61600    312.04023   -8664.0636    44.646368   -8708.7099   -9115.6684 
   61800    326.97481   -8654.4559    46.783191   -8701.2391   -1326.7924 
   62000    323.56583   -8656.6804    46.295438   -8702.9758   -19699.858 
   62200    259.71847   -8655.1156    37.160228   -8692.2758   -20029.757 
   62400     353.8515   -8641.4883    50.628677    -8692.117    939.30593 
   62600    297.84195   -8655.7795    42.614893   -8698.3944    -14422.83 
   62800    311.48204   -8657.3303    44.566502   -8701.8968    3396.3129 
   63000    276.88202   -8651.0425    39.615969   -8690.6584    10457.949 
   63200    355.51317   -8645.2987    50.866427   -8696.1652    3996.3772 
   63400    312.40989   -8662.4591    44.699258   -8707.1583    14017.886 
   63600    363.02359   -8652.9761    51.941009   -8704.9171    20685.027 
   63800    362.00549   -8646.2915     51.79534   -8698.0868    17665.802 
   64000    266.17813    -8662.835     38.08447   -8700.9194    13069.472 
   64200    377.42629   -8653.1719    54.001732   -8707.1736    31917.808 
   64400    269.20098   -8658.0561    38.516975    -8696.573   -48368.281 
   64600    248.48311   -8663.8955    35.552686   -8699.4481   -6138.4799 
   64800    320.43896   -8652.2844    45.848048   -8698.1324   -3042.8986 
   65000    330.07453   -8652.6533    47.226694   -8699.8799    25104.239 
   65200    298.13731   -8659.9728    42.657153     -8702.63   -13821.227 
   65400    269.81438   -8670.2601     38.60474   -8708.8648   -23578.301 
   65600    282.36474   -8655.5463    40.400432   -8695.9467    11138.551 
   65800    348.99618   -8653.1092    49.933984   -8703.0432    9599.6815 
   66000    264.41762   -8671.6462    37.832577   -8709.4787    13943.573 
   66200    245.64421   -8663.3926    35.146498   -8698.5391   -5568.1694 
   66400    322.43715   -8650.1651    46.133948   -8696.2991    14385.355 
   66600    235.69305   -8663.3998    33.722698   -8697.1225    7813.8104 
   66800    285.94788   -8661.7521    40.913102   -8702.6652   -26777.666 
   67000    308.95491   -8652.6525    44.204923   -8696.8574   -5468.7422 
   67200    341.38484   -8644.3586    48.844962   -8693.2036    28927.809 
   67400      288.932   -8662.0936    41.340067   -8703.4337    23585.362 
   67600     349.6218   -8656.4797    50.023496   -8706.5032    13956.708 
   67800    341.70984    -8643.099    48.891462   -8691.9905    9714.7921 
   68000    272.35003   -8662.2426    38.967538   -8701.2102    4690.9693 
   68200    323.16086   -8661.0231    46.237495   -8707.2606    11502.143 
   68400    355.86855   -8640.6248    50.917274   -8691.5421   -22918.803 
   68600    317.02493   -8656.5139    45.359573   -8701.8735   -28407.368 
   68800    300.26827   -8654.2292    42.962048   -8697.1912   -18759.196 
   69000    324.65723   -8640.1515    46.451593   -8686.6031     27407.65 
   69200     288.8781   -8661.9697    41.332356   -8703.3021    29017.111 
   69400    284.21742   -8657.1848     40.66551   -8697.8503   -5764.8502 
   69600    397.74573   -8646.6831    56.909014   -8703.5921    9105.8295 
   69800    298.12637   -8661.1416    42.655588   -8703.7972   -26791.894 
   70000    387.77276   -8651.5487    55.482092   -8707.0308    -24440.34 
   70200    341.77652   -8648.6226    48.901003   -8697.5236   -12751.416 
   70400    308.53102   -8662.6763    44.144273   -8706.8205   -20580.739 
   70600    301.20356   -8657.8283    43.095868   -8700.9242    20319.384 
   70800    350.66631   -8639.5293    50.172944   -8689.7022    29756.469 
   71000    265.74479     -8661.88    38.022468   -8699.9025    17207.679 
   71200    324.83881   -8652.7875    46.477574    -8699.265    44946.362 
   71400    304.77201   -8661.7382    43.606439   -8705.3447    15036.751 
   71600    281.07638   -8661.9393    40.216094   -8702.1554    1485.9259 
   71800    314.78625   -8655.4489    45.039265   -8700.4882   -16633.677 
   72000    286.16445   -8656.7222    40.944089   -8697.6663   -3187.5491 
   72200    286.32202   -8656.4047    40.966635   -8697.3713    15476.396 
   72400    325.50775   -8661.0034    46.573285   -8707.5767   -711.50755 
   72600    264.97315   -8661.5648    37.912062   -8699.4769   -19289.126 
   72800    340.19476   -8653.1279    48.674687   -8701.8026    1295.7902 
   73000     315.6156   -8658.2737    45.157927   -8703.4316     7595.004 
   73200    235.93949   -8664.8614    33.757959   -8698.6194   -28713.419 
   73400    279.77147     -8664.77     40.02939   -8704.7994    6474.6835 
   73600    290.24739   -8659.0459    41.528272   -8700.5741     7071.538 
   73800    344.13368   -8642.3011    49.238263   -8691.5394    1385.6255 
   74000     359.8268   -8651.8194    51.483616    -8703.303   -403.86349 
   74200    269.45214     -8661.18    38.552911   -8699.7329   -20908.236 
   74400    364.99698   -8645.6815     52.22336   -8697.9049   -9266.9402 
   74600    287.61437   -8656.2356    41.151543   -8697.3872    46189.608 
   74800    280.62337   -8663.0612    40.151279   -8703.2124    24843.194 
   75000    323.81042   -8649.9161    46.330433   -8696.2466   -18555.743 
   75200    310.05226    -8652.126    44.361931    -8696.488   -9856.6727 
   75400    233.51594   -8661.4295      33.4112   -8694.8407   -17970.059 
   75600    310.83103   -8653.9099    44.473357   -8698.3832     17812.44 
   75800     300.0164   -8668.4588    42.926011   -8711.3848   -9850.5332 
   76000    338.37973   -8650.6153    48.414994   -8699.0302   -41107.836 
   76200    282.14788   -8650.5107    40.369403   -8690.8801    3703.4633 
   76400    288.29362   -8664.2684    41.248729   -8705.5171    10810.506 
   76600    291.90741   -8662.8495    41.765786   -8704.6153    20162.489 
   76800    257.31102   -8652.9235    36.815774   -8689.7392    9126.9169 
   77000    326.13255   -8655.5833    46.662681    -8702.246    13041.747 
   77200    285.51063   -8658.4656    40.850542   -8699.3161   -5721.2793 
   77400    378.67721   -8644.6433    54.180712    -8698.824     1877.035 
   77600    267.08964   -8655.2529    38.214887   -8693.4678   -230.86502 
   77800    320.37576   -8658.8739    45.839005   -8704.7129   -181.75499 
   78000    238.23755   -8672.4039    34.086763   -8706.4907   -458.45908 
   78200    298.94964   -8653.3699    42.773381   -8696.1433   -21039.058 
   78400    338.68715   -8654.9443    48.458978   -8703.4032   -24685.428 
   78600    286.08771   -8667.1178     40.93311   -8708.0509    17053.616 
   78800    359.83203   -8647.5674    51.484364   -8699.0517   -22005.854 
   79000    310.54465   -8659.8086    44.432382    -8704.241    -33067.62 
   79200    282.61395   -8656.3176    40.436088   -8696.7537   -1749.8617 
   79400    316.41653    -8651.164    45.272524   -8696.4365    5145.0775 
   79600    327.65072   -8659.0146    46.879898   -8705.8945    9761.0448 
   79800    249.84069   -8665.1921    35.746927   -8700.9391    -6933.791 
   80000    274.75252    -8660.179    39.311283   -8699.4903    15842.032 
   80200    304.05453   -8650.3816    43.503783   -8693.8854    4962.3349 
   80400    259.19231   -8664.0326    37.084946   -8701.1175   -29995.395 
   80600    273.76908   -8661.5166    39.170574   -8700.6872   -19853.637 
   80800    340.20383   -8651.9085    48.675984   -8700.5845    11739.678 
   81000    276.78909   -8656.7611    39.602674   -8696.3637    13089.666 
   81200    280.91544   -8660.6502    40.193067   -8700.8433   -3974.6235 
   81400    310.49756   -8651.2035    44.425644   -8695.6292   -8231.2282 
   81600    321.14901   -8652.7628    45.949641   -8698.7124   -14667.531 
   81800      298.432   -8658.2345    42.699317   -8700.9338    15570.294 
   82000    309.39255   -8654.1134    44.267541   -8698.3809     13518.43 
   82200    338.36855    -8653.845    48.413395   -8702.2584     20980.99 
   82400    278.80439    -8665.097     39.89102    -8704.988    18784.887 
   82600    273.64071   -8652.0542    39.152207   -8691.2064      20000.8 
   82800    322.45147   -8651.5258    46.135996   -8697.6618    25205.983 
   83000    280.99706   -8666.5252    40.204746     -8706.73    2647.6948 
   83200    260.31647   -8663.0952     37.24579    -8700.341    2369.0583 
   83400    311.54605   -8650.5276     44.57566   -8695.1032   -5740.4598 
   83600    332.31239   -8649.2304    47.546886   -8696.7773   -12195.514 
   83800    270.32154   -8663.1656    38.677304   -8701.8429    5102.4513 
   84000    328.53879   -8651.7273    47.006962   -8698.7342   -10089.257 
   84200    323.17027   -8648.3783    46.238842   -8694.6172    14738.389 
   84400    315.88524   -8655.5198    45.196508   -8700.7163   -5473.3407 
   84600    290.00398   -8656.0392    41.493446   -8697.5327   -16467.287 
   84800    282.32709    -8667.068    40.395045   -8707.4631    11818.624 
   85000    286.94698   -8661.9313    41.056053   -8702.9873   -30440.318 
   85200    283.82082   -8656.0806    40.608766   -8696.6894   -11549.508 
   85400    269.88892   -8660.6251    38.615405   -8699.2405    3043.4336 
   85600    253.98743   -8669.0606    36.340238   -8705.4008    28507.981 
   85800    306.90477   -8654.7069    43.911591   -8698.6185   -2488.9787 
   86000    314.10494   -8649.4529    44.941784   -8694.3947   -39330.048 
   86200    324.54307   -8653.6706     46.43526   -8700.1058   -27735.432 
   86400    300.94582   -8660.4541    43.058991   -8703.5131   -13760.504 
   86600    303.90981   -8663.2027    43.483076   -8706.6858   -18059.505 
   86800    401.51329   -8650.4642    57.448072   -8707.9123   -30419.976 
   87000    270.30575   -8662.9436    38.675045   -8701.6187   -8014.2495 
   87200    266.39005   -8666.6064     38.11479   -8704.7212    20586.894 
   87400    341.19287   -8654.7611    48.817495   -8703.5786    10934.906 
   87600    370.65904   -8638.8898    53.033481   -8691.9232   -15084.864 
   87800    292.85392   -8660.1952    41.901212   -8702.0964    11671.171 
   88000    308.78326    -8657.504    44.180364   -8701.6843    48765.294 
   88200    354.62635   -8642.4713    50.739542   -8693.2108   -19664.462 
   88400    284.24634   -8658.2966    40.669649   -8698.9662    3077.8662 
   88600     276.5839   -8659.4541    39.573315   -8699.0275   -1639.0571 
   88800    283.92569   -8654.0713     40.62377   -8694.6951   -28204.414 
   89000    254.02479   -8670.9909    36.345583   -8707.3365   -32274.329 
   89200      287.492   -8666.0701    41.134034   -8707.2042     -29231.3 
   89400    308.79727   -8659.3965    44.182369   -8703.5788   -21065.784 
   89600    379.03111    -8658.623    54.231348   -8712.8544    -15270.19 
   89800    310.07619   -8648.2523    44.365354   -8692.6176    24515.029 
   90000    331.54375   -8651.9475    47.436909   -8699.3844    8789.3858 
   90200    263.47961   -8662.5477    37.698369    -8700.246    3068.4967 
   90400    343.05961   -8648.7933    49.084585   -8697.8779    42597.462 
   90600    310.67209    -8665.675    44.450615   -8710.1256   -40245.371 
   90800    317.27963   -8662.9918    45.396014   -8708.3879   -3377.6815 
   91000    327.11817   -8650.5012    46.803702   -8697.3049    2054.8698 
   91200    296.92684   -8655.8358     42.48396   -8698.3197    8674.4536 
   91400    289.27037   -8665.3243    41.388482   -8706.7128    16388.999 
   91600    351.75395    -8652.336    50.328562   -8702.6646    14132.344 
   91800    297.29379    -8658.788    42.536463   -8701.3244   -3377.6502 
   92000    303.44158   -8663.0293    43.416083   -8706.4454   -7360.7211 
   92200     277.5948   -8650.9028    39.717953   -8690.6207   -6075.6546 
   92400    264.91719   -8653.3194    37.904055   -8691.2235    13876.303 
   92600    266.18548   -8668.0925    38.085522    -8706.178    19157.405 
   92800    321.00698   -8653.6401     45.92932   -8699.5695    54979.361 
   93000    237.41401   -8666.3866    33.968931   -8700.3556    -6963.394 
   93200    262.53211   -8669.7023    37.562802   -8707.2651      6073.28 
   93400    323.84857   -8658.2316    46.335891   -8704.5675   -786.74544 
   93600    281.47935   -8651.5443     40.27375    -8691.818    -13593.82 
   93800    274.73574   -8671.2312    39.308883   -8710.5401   -11785.679 
   94000    314.69469   -8659.3334    45.026165   -8704.3596    30367.085 
   94200    297.20182   -8652.4354    42.523304   -8694.9587   -11356.185 
   94400     337.7292   -8645.7376    48.321916   -8694.0595    27295.433 
   94600    263.43696    -8662.809    37.692266   -8700.5013    6115.9255 
   94800    309.02276   -8659.5395    44.214631   -8703.7542   -25099.219 
   95000    272.77454   -8657.8845    39.028277   -8696.9127   -11937.142 
   95200    284.62557   -8658.9474    40.723909   -8699.6713    12329.268 
   95400     254.4239   -8667.5201    36.402687   -8703.9227    33513.721 
   95600    326.40833   -8663.6302    46.702139   -8710.3324   -7176.4261 
   95800    290.48616   -8651.6257    41.562435   -8693.1881   -7429.6099 
   96000     280.6166   -8669.8799     40.15031   -8710.0302    14722.307 
   96200    311.43424   -8665.9159    44.559663   -8710.4756   -26099.883 
   96400    320.61828   -8653.6971    45.873705   -8699.5708    18780.781 
   96600    269.94799   -8662.8717    38.623857   -8701.4955    4068.6701 
   96800    301.48469    -8661.763    43.136093   -8704.8991   -19294.987 
   97000    319.36479   -8656.2298    45.694357   -8701.9242    53626.496 
   97200    260.43502   -8665.0823    37.262752   -8702.3451   -9483.9931 
   97400    274.84067   -8673.9993    39.323896   -8713.3232    3866.5504 
   97600    346.12023   -8657.9979    49.522496   -8707.5204   -9162.3703 
   97800    272.02489   -8659.0155    38.921017   -8697.9365    39469.191 
   98000    277.56287   -8657.0327    39.713385   -8696.7461   -6073.8129 
   98200    247.59607   -8654.9211    35.425769   -8690.3469     22520.57 
   98400    263.99242   -8658.9731    37.771741   -8696.7448   -16416.776 
   98600    299.23915   -8655.1121    42.814804   -8697.9269    8300.2838 
   98800    288.38388   -8659.7765    41.261644   -8701.0381   -15351.635 
   99000    296.21518   -8673.7499    42.382136   -8716.1321   -21886.815 
   99200    288.67911   -8664.7909    41.303884   -8706.0948   -7511.6947 
   99400      267.569   -8664.6699    38.283474   -8702.9534   -2291.8798 
   99600    350.38731   -8652.3358    50.133025   -8702.4688   -15721.866 
   99800    249.57751   -8660.6656    35.709271   -8696.3749   -19349.977 
  100000    297.81091   -8665.2369    42.610452   -8707.8474   -2623.2721 
  100200    348.36178   -8659.1445    49.843214   -8708.9877    -22999.26 
  100400    308.82978    -8665.721    44.187019    -8709.908    32133.687 
  100600    282.68006   -8665.8965    40.445546    -8706.342     8074.217 
  100800     313.1343   -8652.5494    44.802906   -8697.3523    8676.8444 
  101000     260.2132   -8657.5584    37.231014   -8694.7894    24940.822 
  101200    298.15451   -8658.0569    42.659614   -8700.7166    6058.6813 
  101400    342.74663   -8647.5317    49.039804   -8696.5715    4267.5393 
  101600    379.81757   -8648.1717    54.343873   -8702.5156    16705.508 
  101800    290.90917   -8653.8161    41.622959   -8695.4391   -1290.3603 
  102000    272.44227   -8671.5379    38.980735   -8710.5187    12185.971 
  102200     285.2182   -8666.8875    40.808702   -8707.6962    2069.7572 
  102400    337.72394   -8662.5557    48.321163   -8710.8769    9670.2817 
  102600    280.47446   -8671.7077    40.129972   -8711.8377    22187.755 
  102800     292.4029   -8660.7838     41.83668   -8702.6205   -9987.4459 
  103000    266.74749   -8651.9853    38.165932   -8690.1512    5826.1407 
  103200    364.54576   -8641.0666      52.1588   -8693.2254    41878.844 
  103400    291.19388   -8664.9365    41.663695   -8706.6002    -464.3916 
  103600    295.18672   -8666.0441    42.234986   -8708.2791     10689.18 
  103800    281.95503   -8661.5677    40.341811   -8701.9095    -17638.54 
  104000    323.21639   -8647.6151     46.24544   -8693.8605   -3210.6392 
  104200     263.8946   -8666.6804    37.757744   -8704.4381   -26811.304 
  104400    322.09794   -8658.4921    46.085414   -8704.5775   -15264.108 
  104600    355.58391   -8652.3978    50.876548   -8703.2744   -11085.343 
  104800    273.10629   -8668.5403    39.075743    -8707.616    21548.708 
  105000    279.22876   -8660.1866    39.951739   -8700.1383   -8279.0054 
  105200    327.39637   -8650.2457    46.843507   -8697.0892   -58028.689 
  105400    337.99878   -8653.4202    48.360488   -8701.7807   -20775.588 
  105600    317.66589   -8660.1014     45.45128   -8705.5527   -9194.5894 
  105800    326.44704   -8649.4285    46.707678   -8696.1362   -11409.805 
  106000     319.9071   -8666.2983    45.771951   -8712.0702    5079.1048 
  106200    288.48427   -8663.5937    41.276007   -8704.8698    16491.834 
  106400    323.54371   -8654.2322    46.292272   -8700.5245   -13145.652 
  106600    278.92047   -8659.0743    39.907629   -8698.9819    16112.253 
  106800    309.36017   -8646.3575    44.262907   -8690.6204   -329.16682 
  107000    303.53336   -8661.4837    43.429215   -8704.9129    11143.447 
  107200    276.02101    -8660.694    39.492777   -8700.1868   -419.85478 
  107400    362.95794   -8654.5882    51.931617   -8706.5198    -7226.964 
  107600     284.1104   -8670.1033    40.650199   -8710.7535    2835.3938 
  107800    288.07317   -8653.7519    41.217187    -8694.969   -46754.731 
  108000    279.82129   -8654.0947    40.036518   -8694.1313   -10699.917 
  108200    277.13009   -8669.0291    39.651463   -8708.6805   -13652.068 
  108400    297.27629   -8664.5633    42.533959   -8707.0973    17347.725 
  108600    338.95388   -8657.1417    48.497143   -8705.6388    12455.659 
  108800    318.91943   -8648.3366    45.630636   -8693.9673    1715.9792 
  109000    273.76968   -8663.9547     39.17066   -8703.1254    31295.271 
  109200    299.18747   -8654.1695    42.807409   -8696.9769    27629.416 
  109400    318.01992    -8655.346    45.501935    -8700.848   -34126.261 
  109600    259.23902   -8663.8492    37.091629   -8700.9408   -7398.3662 
  109800    353.46219   -8649.2217    50.572975   -8699.7947   -6404.0614 
  110000    294.60366    -8650.321    42.151563   -8692.4726   -7144.7942 
  110200    350.00668   -8658.4422    50.078565   -8708.5207    -6085.086 
  110400    382.98154   -8653.0897     54.79657   -8707.8863    20442.174 
  110600    252.58029   -8670.2509    36.138906   -8706.3898     19206.73 
  110800    248.59513   -8664.3332    35.568714   -8699.9019   -23840.294 
  111000    321.24776   -8657.4995     45.96377   -8703.4633    -2853.621 
  111200    323.09041   -8653.8734    46.227415   -8700.1008   -1542.8809 
  111400    305.45279   -8653.3114    43.703843   -8697.0153   -1258.0941 
  111600    228.24051   -8666.2311    32.656397   -8698.8875    3548.4479 
  111800    391.62603   -8645.1081    56.033415   -8701.1415    8249.4615 
  112000    304.40657    -8654.834    43.554152   -8698.3881   -22555.023 
  112200    310.60379   -8661.8812    44.440843    -8706.322    9192.4899 
  112400     371.7703   -8656.5927    53.192479   -8709.7852    20103.632 
  112600     240.3015    -8656.167     34.38207   -8690.5491   -3697.5656 
  112800    262.97578   -8671.5267     37.62628    -8709.153   -41270.781 
  113000    236.52488   -8660.5446    33.841716   -8694.3864    -19238.52 
  113200    362.06928   -8652.6571    51.804468   -8704.4616   -8951.5829 
  113400    288.19218   -8667.8251    41.234216   -8709.0594   -7385.2089 
  113600    334.69102   -8651.1158    47.887217    -8699.003   -5651.3732 
  113800    354.14701   -8651.8111    50.670958    -8702.482   -10314.603 
  114000    260.81837   -8664.2185    37.317601   -8701.5361     11326.23 
  114200     355.5353   -8641.7175    50.869594   -8692.5871   -15022.197 
  114400    345.59417   -8658.2096    49.447228   -8707.6568    10436.034 
  114600    246.99268   -8665.5448    35.339437   -8700.8842   -4196.8968 
  114800    394.39076   -8649.8285     56.42899   -8706.2575    36127.948 
  115000    278.55892     -8654.95    39.855899   -8694.8059    1239.0146 
  115200    297.85132   -8662.8909    42.616233   -8705.5071   -12923.571 
  115400    294.72962    -8663.489    42.169585   -8705.6586    30678.093 
  115600    345.18684   -8648.5498    49.388947   -8697.9388    62815.597 
  115800    285.15547   -8669.7058    40.799726   -8710.5055   -25826.374 
  116000    272.81354   -8656.1351    39.033857   -8695.1689   -5835.7133 
  116200    301.02754   -8647.8768    43.070684   -8690.9475   -11755.229 
  116400    284.83513   -8668.6021    40.753892    -8709.356   -25395.701 
  116600    338.47086   -8655.4591    48.428033   -8703.8871   -31957.427 
  116800    245.46269   -8665.1638    35.120527   -8700.2844   -17899.175 
  117000    272.77264   -8672.2989    39.028004   -8711.3269    5971.8284 
  117200    293.22064   -8660.0692    41.953682   -8702.0229    19837.017 
  117400    340.26475   -8650.0325      48.6847   -8698.7172    4076.0393 
  117600    283.73768   -8668.0045    40.596871   -8708.6013    12290.819 
  117800    332.97353   -8660.9105    47.641481    -8708.552   -6011.3732 
  118000     280.0335   -8660.2949    40.066881   -8700.3618     7989.515 
  118200    377.36014   -8657.0747    53.992268    -8711.067   -15343.945 
  118400    274.80329   -8663.8184    39.318547   -8703.1369   -21845.445 
  118600    338.29828   -8651.5929     48.40334   -8699.9962    10100.073 
  118800     292.5094   -8659.8166    41.851918   -8701.6685   -9456.7012 
  119000    247.71576   -8669.3017    35.442894   -8704.7446    3756.5395 
  119200    333.04135   -8658.2122    47.651184   -8705.8634    2302.3499 
  119400     316.1386   -8661.9694    45.232758   -8707.2021   -4130.7833 
  119600    252.58015   -8671.2552    36.138885   -8707.3941    5642.6975 
  119800    291.18538   -8654.8208    41.662479   -8696.4833    14256.966 
  120000    270.56014   -8650.9801    38.711443   -8689.6915   -13538.382 
  120200    248.70997   -8671.0307    35.585144   -8706.6159    10710.472 
  120400    311.34285   -8658.0693    44.546587   -8702.6159   -7263.9865 
  120600    285.56255   -8656.2073    40.857971   -8697.0653   -25426.179 
  120800    308.31842   -8662.9649    44.113855   -8707.0787    23402.458 
  121000    293.94319   -8663.7305    42.057064   -8705.7876    -24719.69 
  121200    291.09955   -8652.0365    41.650198   -8693.6867   -14483.699 
  121400    289.25653   -8663.6163    41.386501   -8705.0028    1167.8102 
  121600    293.91125   -8672.5657    42.052493   -8714.6182   -9021.2769 
  121800    325.38118   -8661.3461    46.555176   -8707.9013   -6715.2055 
  122000    325.65358   -8652.5103    46.594151   -8699.1045    12615.086 
  122200    227.90846   -8670.7633    32.608888   -8703.3722    9962.3761 
  122400    299.86571   -8664.9968    42.904451   -8707.9013   -5311.6238 
  122600    301.28091   -8654.7788    43.106937   -8697.8858   -32871.028 
  122800    234.89234   -8668.4729    33.608134    -8702.081    50342.699 
  123000    279.61298   -8666.1728    40.006713   -8706.1795     1164.382 
  123200    297.60746   -8657.3956    42.581342   -8699.9769    4592.9455 
  123400    296.91733   -8660.1956      42.4826   -8702.6782    17080.763 
  123600    265.60294   -8671.2188    38.002172    -8709.221    8876.2925 
  123800    291.17969   -8657.1889    41.661664   -8698.8506    19622.685 
  124000    324.62354   -8656.1515    46.446773   -8702.5983    18048.309 
  124200    278.58229   -8666.9069    39.859243   -8706.7662   -22470.152 
  124400    299.95996   -8659.1775    42.917936   -8702.0955   -49487.188 
  124600    284.11894   -8655.4458    40.651421   -8696.0972    18388.783 
  124800    408.16458   -8638.7703    58.399731     -8697.17    15667.293 
  125000    320.78441    -8656.689    45.897475   -8702.5865   -4431.3468 
  125200    285.74846   -8662.9889    40.884571   -8703.8735   -26444.841 
  125400    298.74694   -8664.1549    42.744378   -8706.8993    -43515.68 
  125600    356.36367   -8650.4855    50.988115   -8701.4736    15638.864 
  125800    229.93348   -8665.5108    32.898625   -8698.4094   -4368.8688 
  126000    304.60547   -8659.1811    43.582611   -8702.7637    39287.917 
  126200    321.48037   -8655.8087    45.997052   -8701.8058    49330.894 
  126400    367.36555   -8650.1059    52.562252   -8702.6682   -14559.898 
  126600    258.04099   -8663.1358    36.920216    -8700.056    25562.689 
  126800     292.6242   -8659.9588    41.868343   -8701.8272    3047.8673 
  127000    331.48397   -8653.1813    47.428356   -8700.6097    -11341.77 
  127200    258.76022   -8654.9664    37.023124   -8691.9896    29008.759 
  127400    263.40097     -8669.97    37.687117   -8707.6572    5116.1421 
  127600    280.36497   -8660.6382    40.114307   -8700.7525   -19564.807 
  127800     287.4975   -8657.9512    41.134821    -8699.086    18411.022 
  128000    285.91856   -8658.6393    40.908908   -8699.5482     12674.74 
  128200    270.92212   -8663.2031    38.763235   -8701.9663    13240.717 
  128400    291.31929   -8652.6028    41.681638   -8694.2844    1041.4859 
  128600     334.6329   -8655.8055    47.878901   -8703.6844    528.68131 
  128800    349.92625   -8644.4067    50.067057   -8694.4738    36755.117 
  129000    287.09809   -8660.5036    41.077674   -8701.5813     19694.91 
  129200    267.95634   -8664.7517    38.338894   -8703.0906    30467.403 
  129400    406.04905   -8645.5174    58.097044   -8703.6144    9882.0194 
  129600    290.75687   -8652.7091    41.601169   -8694.3103    9530.5411 
  129800    276.00076   -8665.4227     39.48988   -8704.9126    554.55476 
  130000    348.36744   -8650.8696    49.844024   -8700.7136   -9339.4078 
  130200    275.47948   -8666.3495    39.415296   -8705.7648   -28207.997 
  130400    275.78665   -8664.0573    39.459245   -8703.5166    5085.4695 
  130600    337.80094    -8650.384    48.332181   -8698.7161    21155.779 
  130800    296.30103   -8669.7062     42.39442   -8712.1006    1577.2335 
  131000    317.39206   -8657.8218    45.412101   -8703.2339    666.54671 
  131200    281.93743   -8654.9261    40.339292   -8695.2654   -18361.699 
  131400    293.70112   -8664.3782    42.022428   -8706.4006   -19617.466 
  131600    288.71491   -8656.1071    41.309006   -8697.4161   -4073.7839 
  131800    311.90062   -8654.6532    44.626393   -8699.2796   -202.45854 
  132000    292.37287   -8659.7677    41.832383   -8701.6001   -10238.716 
  132200     399.8922   -8651.2565    57.216128   -8708.4726   -15584.093 
  132400    273.51437    -8659.351     39.13413   -8698.4852   -121.90928 
  132600    316.27499   -8665.9481    45.252272   -8711.2003    32931.365 
  132800    332.69891   -8648.8423    47.602188   -8696.4445   -29577.293 
  133000    284.70007   -8658.8152    40.734568   -8699.5498    11593.007 
  133200    313.89035   -8661.5626    44.911081   -8706.4737   -15804.953 
  133400    292.74297   -8661.3554    41.885337   -8703.2407    14264.602 
  133600    293.85739   -8651.5881    42.044787   -8693.6329   -16009.651 
  133800    303.04306   -8657.5736    43.359063   -8700.9327    40906.376 
  134000    311.07939   -8662.4754    44.508891   -8706.9843   -22003.612 
  134200    341.93649   -8660.9221    48.923891    -8709.846   -24147.181 
  134400    300.84492   -8662.4072    43.044555   -8705.4517    3760.8299 
  134600    343.44487   -8656.2854    49.139709   -8705.4251    1316.3074 
  134800    238.57547   -8671.3177    34.135111   -8705.4529   -19239.193 
  135000    321.36821   -8658.7044    45.981004   -8704.6854     -36909.8 
  135200    277.58062   -8660.8596    39.715925   -8700.5755   -14035.897 
  135400    293.43023   -8665.9932     41.98367   -8707.9769     23075.91 
  135600    325.30805   -8653.0549    46.544712   -8699.5996   -36308.605 
  135800    313.82499   -8662.5694    44.901729   -8707.4711    30474.544 
  136000     254.0355   -8666.8704    36.347115   -8703.2175    12866.829 
  136200    356.63617   -8656.5419    51.027105   -8707.5691   -16597.869 
  136400    336.01479   -8640.5031    48.076621   -8688.5797   -2306.2133 
  136600    281.11618   -8661.3003    40.221789   -8701.5221   -26044.437 
  136800      306.519    -8663.832    43.856396   -8707.6884    4333.4789 
  137000    345.68961   -8652.4219    49.460883   -8701.8828   -1028.6337 
  137200    287.96232   -8662.5042    41.201327   -8703.7056   -3628.5569 
  137400    277.75972   -8665.4785    39.741551   -8705.2201    12922.975 
  137600    308.73631   -8651.3509    44.173646   -8695.5246    13118.473 
  137800    391.48381    -8641.509    56.013067    -8697.522     12607.47 
  138000    241.57869    -8663.465     34.56481   -8698.0298    27663.774 
  138200    274.06199   -8659.2138    39.212484   -8698.4263    4432.7085 
  138400    355.36925    -8647.026    50.845835   -8697.8718    22107.361 
  138600    278.70508   -8669.1972    39.876811    -8709.074   -40871.349 
  138800     291.3469   -8658.0129    41.685588   -8699.6985   -37869.201 
  139000    328.69814   -8658.7666    47.029762   -8705.7963   -5983.4564 
  139200    307.40612   -8659.0839    43.983325   -8703.0672   -22118.549 
  139400    283.25423   -8662.7474    40.527699   -8703.2751    17817.552 
  139600    303.93922   -8658.4575    43.487284   -8701.9448    19520.578 
  139800    316.10047   -8652.3657    45.227301    -8697.593    26563.912 
  140000    284.21101   -8669.1239    40.664594   -8709.7884    141.10955 
  140200    284.91715   -8659.4918    40.765627   -8700.2574   -36706.452 
  140400    333.13254   -8653.2461    47.664232   -8700.9103    42075.859 
  140600    309.48881   -8658.3863    44.281313   -8702.6676    8547.6285 
  140800    380.44481   -8647.7887    54.433618   -8702.2223    23507.091 
  141000    316.99697   -8664.0263    45.355572   -8709.3819   -1578.7707 
  141200    311.74273   -8669.5972    44.603801    -8714.201    16779.394 
  141400     376.8963   -8650.3994    53.925902   -8704.3253    19394.746 
  141600    347.35479   -8656.7701    49.699136   -8706.4692   -6586.8177 
  141800    269.30379    -8677.273    38.531686   -8715.8047   -536.49063 
  142000     276.7844   -8670.1694    39.602003   -8709.7714   -40079.675 
  142200    305.90318   -8660.0976    43.768285   -8703.8658   -6429.5118 
  142400    257.58347   -8666.6091    36.854756   -8703.4638   -18418.392 
  142600    244.58758   -8673.4041    34.995317   -8708.3994   -14413.813 
  142800    333.82593   -8659.7441     47.76344   -8707.5075    16491.198 
  143000     292.0987   -8661.1961    41.793155   -8702.9893   -15211.084 
  143200     319.8305   -8653.4443     45.76099   -8699.2053    8527.8104 
  143400    310.84543     -8667.93    44.475416   -8712.4054    10718.109 
  143600    323.99598   -8662.7087    46.356982   -8709.0656     34669.53 
  143800    338.63095   -8656.4217    48.450937   -8704.8727   -10147.326 
  144000    310.41214   -8671.4336    44.413421   -8715.8471     7278.097 
  144200    369.71253   -8653.3143    52.898056   -8706.2124   -10710.374 
  144400    306.39123    -8663.156    43.838114   -8706.9941    2195.4665 
  144600    299.83274   -8669.2157    42.899733   -8712.1154   -2646.2492 
  144800    314.42204   -8654.3846    44.987155   -8699.3718   -30879.032 
  145000    348.63845    -8660.383    49.882799   -8710.2658    -1627.376 
  145200    264.45242   -8670.8695    37.837556   -8708.7071    8694.5332 
  145400    325.52185   -8656.4868    46.575303   -8703.0621    2034.3129 
  145600    292.91214   -8659.6942    41.909542   -8701.6038   -7728.9461 
  145800    266.16719   -8675.0875    38.082904   -8713.1704   -9606.4342 
  146000     353.2503    -8663.717    50.542658   -8714.2597   -7305.1745 
  146200    309.91289   -8660.9181    44.341989   -8705.2601    4123.0486 
  146400      282.326   -8663.5128    40.394888   -8703.9077    -9945.026 
  146600    278.41675   -8669.2858    39.835558   -8709.1213     7810.767 
  146800    334.23206   -8654.0051    47.821549   -8701.8266   -36690.398 
  147000     283.2387   -8667.4712    40.525477   -8707.9966    1005.7912 
  147200    315.78038   -8662.0872    45.181503   -8707.2687    22788.021 
  147400    284.23347   -8646.2778    40.667808   -8686.9456   -9893.8822 
  147600    262.29516   -8661.9401    37.528898    -8699.469   -16555.857 
  147800    294.90512   -8662.3116    42.194695   -8704.5063   -23088.272 
  148000    340.23625   -8647.1618    48.680622   -8695.8424   -723.96875 
  148200    322.15498   -8661.3193    46.093574   -8707.4129   -15128.337 
  148400    291.54117   -8664.5541    41.713385   -8706.2675    15506.701 
  148600    358.74118   -8656.9327    51.328287    -8708.261    -12687.23 
  148800    379.48481    -8650.373    54.296262   -8704.6693   -18966.781 
  149000    233.16029   -8670.1536    33.360313   -8703.5139    -6314.549 
  149200    334.43224   -8662.3173    47.850191   -8710.1675   -52.680573 
  149400    337.77622   -8649.1267    48.328645   -8697.4553   -27343.901 
  149600    248.79888   -8657.3995    35.597866   -8692.9974    34742.747 
  149800    279.80754   -8663.4791     40.03455   -8703.5137   -5805.1505 
  150000    246.40895   -8674.9838    35.255917   -8710.2397    2811.2826 
  150200    289.72281   -8656.9451    41.453216   -8698.3983    8762.6133 
  150400    305.74826   -8664.1822     43.74612   -8707.9283   -8467.6217 
  150600    242.74506   -8682.3167    34.731691   -8717.0483   -8205.3714 
  150800    258.34145   -8670.2127    36.963205   -8707.1759   -20270.053 
  151000    292.78038   -8657.7485     41.89069   -8699.6392    29413.671 
  151200    357.36878   -8647.6111    51.131926   -8698.7431   -13776.893 
  151400    270.47578   -8666.1633    38.699373   -8704.8627    33318.032 
  151600    295.27471   -8665.5847    42.247575   -8707.8322    17980.201 
  151800    327.29918   -8660.5662    46.829601   -8707.3958    5614.0351 
  152000    281.32989   -8659.8714    40.252366   -8700.1238    13486.742 
  152200    240.55738   -8674.2155    34.418681   -8708.6342    28857.299 
  152400     343.1867   -8664.3414     49.10277   -8713.4442    17326.838 
  152600    287.61566   -8660.9286    41.151727   -8702.0803     17510.59 
  152800    396.33661   -8645.6224    56.707399   -8702.3298    67569.195 
  153000    295.05844   -8660.3012    42.216631   -8702.5179   -855.41613 
  153200    314.10918   -8664.2873    44.942391   -8709.2297    21369.676 
  153400    219.73295   -8673.8796    31.439145   -8705.3187   -29038.665 
  153600    303.50682   -8656.0589    43.425417   -8699.4843     37439.38 
  153800    323.08188   -8662.0618    46.226195    -8708.288    -3650.996 
  154000    253.95617    -8672.331    36.335764   -8708.6667   -4130.5446 
  154200    296.94852    -8663.655    42.487062    -8706.142    478.84785 
  154400    285.15608   -8652.0606    40.799814   -8692.8604   -7114.7645 
  154600    347.68455   -8655.9975    49.746318   -8705.7438   -2421.4971 
  154800    316.14012   -8663.7183    45.232976   -8708.9513   -5317.7143 
  155000    277.28365   -8658.6415    39.673435   -8698.3149    1731.9529 
  155200     277.6409   -8654.7547    39.724549   -8694.4793    7391.0179 
  155400    308.97962   -8666.3363    44.208459   -8710.5448    33937.548 
  155600    262.03487   -8665.8914    37.491656   -8703.3831   -24450.819 
  155800    343.74507    -8646.404     49.18266   -8695.5866     19459.47 
  156000    311.27246   -8660.2423    44.536516   -8704.7788   -11167.299 
  156200    314.02533   -8663.1338    44.930393   -8708.0642    3985.7524 
  156400    253.63732   -8677.5401    36.290145   -8713.8302    15175.045 
  156600    361.42755   -8655.9459    51.712649   -8707.6586    6423.2892 
  156800     280.8772   -8668.9665    40.187595   -8709.1541      19908.1 
  157000    327.65526   -8664.0727    46.880548   -8710.9533   -14984.711 
  157200    281.96445   -8655.8195    40.343158   -8696.1626   -16252.723 
  157400    282.11658   -8664.8389    40.364925   -8705.2038    2018.4702 
  157600    258.56777   -8674.1438    36.995587   -8711.1394    13726.312 
  157800    300.52558   -8661.9681    42.998864    -8704.967    22361.409 
  158000    309.29783   -8668.4491    44.253988   -8712.7031    -18567.42 
  158200    286.33988   -8666.0136     40.96919   -8706.9828    7297.1907 
  158400    285.33149   -8652.1728    40.824911   -8692.9977    51204.448 
  158600    235.42278   -8669.8198    33.684029   -8703.5038     13919.05 
  158800    304.58871   -8662.9494    43.580213   -8706.5296   -3788.9869 
  159000    332.85565   -8660.9859    47.624615   -8708.6105   -6862.6284 
  159200    287.01731   -8677.3142    41.066116   -8718.3803   -35132.083 
  159400    298.71891   -8662.1118    42.740367   -8704.8522   -28197.718 
  159600    292.14516   -8659.7258    41.799803   -8701.5256   -23127.495 
  159800    197.62186   -8672.7121    28.275515   -8700.9876    7901.6483 
  160000    299.87248   -8656.8904     42.90542   -8699.7959   -27112.132 
  160200    316.67533   -8653.8314    45.309552    -8699.141     43051.67 
  160400     307.0461   -8667.4462    43.931812   -8711.3781   -20198.977 
  160600    277.20692   -8665.6173    39.662456   -8705.2797   -6964.2731 
  160800    376.35515   -8649.5164    53.848474   -8703.3649    10298.605 
  161000    286.23261   -8664.6693    40.953842   -8705.6231    4579.9281 
  161200    331.99035   -8656.8117    47.500809   -8704.3125    31024.029 
  161400    295.91704   -8652.0056     42.33948   -8694.3451   -34374.398 
  161600    292.37392   -8666.5144    41.832533    -8708.347    12154.251 
  161800    275.07478   -8663.3379    39.357392   -8702.6953    12203.352 
  162000    367.19904    -8648.006    52.538428   -8700.5444   -22701.319 
  162200    277.19059   -8665.3796     39.66012   -8705.0397    19522.193 
  162400    236.73345   -8664.6917    33.871557   -8698.5632    17195.916 
  162600    329.33239   -8651.4924    47.120511   -8698.6129    24554.152 
  162800    286.30533    -8666.668    40.964247   -8707.6323   -21000.805 
  163000    288.34863   -8665.9343    41.256599   -8707.1909    6299.7676 
  163200    295.59415   -8649.0358    42.293281    -8691.329    -24270.36 
  163400    304.59884    -8660.107    43.581661   -8703.6886   -21467.988 
  163600    304.13912   -8665.9972    43.515885   -8709.5131   -8330.0994 
  163800     330.0599   -8660.8265    47.224602   -8708.0511    12065.362 
  164000    280.36144   -8674.1356    40.113801   -8714.2494    8724.2493 
  164200    287.00631   -8671.8375    41.064542    -8712.902   -822.17503 
  164400    268.81436   -8658.1661    38.461659   -8696.6278   -12198.818 
  164600    268.20553   -8665.6416    38.374548   -8704.0161    28093.288 
  164800    287.17362   -8670.2244     41.08848   -8711.3129   -11222.021 
  165000    285.94209   -8661.7418    40.912275   -8702.6541    11657.883 
  165200    369.34476    -8645.581    52.845435   -8698.4264   -11661.934 
  165400    282.73079   -8666.8152    40.452805    -8707.268   -20305.761 
  165600    280.11031   -8661.8664    40.077869   -8701.9443    47047.955 
  165800     329.6516   -8645.6357    47.166183   -8692.8018    40670.337 
  166000    290.39463    -8668.686    41.549339   -8710.2354    27630.369 
  166200    306.90564   -8663.4564    43.911717   -8707.3682    11587.596 
  166400    399.90901    -8654.218    57.218534   -8711.4365    28587.561 
  166600    248.42436    -8667.695     35.54428   -8703.2393    8551.8716 
  166800    331.61275   -8662.2965    47.446782   -8709.7433   -15405.827 
  167000    335.20759   -8646.4118    47.961127   -8694.3729    -12431.27 
  167200     296.4012   -8650.8082    42.408753   -8693.2169   -6571.2296 
  167400    301.09357   -8663.5037    43.080132   -8706.5838    34931.932 
  167600    284.95903   -8672.5112     40.77162   -8713.2828    17687.423 
  167800     339.5875   -8654.9045      48.5878   -8703.4923   -16444.485 
  168000    272.71353   -8664.6356    39.019547   -8703.6551   -23724.273 
  168200    250.72849   -8664.1235    35.873952   -8699.9975    20860.919 
  168400    311.95339   -8645.1189    44.633942   -8689.7528    5178.3365 
  168600    297.87631   -8658.1715     42.61981   -8700.7913    17895.057 
  168800     258.2777   -8668.1387    36.954085   -8705.0927    -21712.46 
  169000    289.76002   -8664.4197     41.45854   -8705.8782    21189.153 
  169200    286.38148   -8655.3269    40.975143    -8696.302    6181.4543 
  169400    244.26333   -8668.9668    34.948924   -8703.9158   -3543.8938 
  169600     357.7861     -8663.43    51.191636   -8714.6216    6657.4239 
  169800    305.61385   -8663.2223    43.726888   -8706.9492    20550.223 
  170000    250.32277   -8670.6483    35.815902   -8706.4642    12117.544 
  170200    247.25783   -8673.4856    35.377374    -8708.863    10100.113 
  170400      283.795   -8658.1804    40.605071   -8698.7855     182.7004 
  170600    275.57537   -8666.5757    39.429016   -8706.0048    57089.346 
  170800     187.7463   -8677.3966     26.86253   -8704.2591   -30995.803 
  171000     284.4832    -8661.486    40.703538   -8702.1895   -15064.658 
  171200    270.13996    -8664.602    38.651324   -8703.2533    30443.917 
  171400    240.55027   -8675.6541    34.417663   -8710.0718   -5182.9001 
  171600     346.4919   -8658.2457    49.575674   -8707.8213    36313.776 
  171800    329.14926   -8659.1413    47.094309   -8706.2356    45158.748 
  172000    234.84107   -8675.8363    33.600799   -8709.4371    8703.2782 
  172200    320.13872   -8664.9694     45.80509   -8710.7744   -13630.674 
  172400    301.43653   -8661.4425    43.129202   -8704.5717    16550.155 
  172600    271.62548   -8669.0163     38.86387   -8707.8802   -9964.9186 
  172800    214.83168   -8679.4702    30.737877   -8710.2081     9831.697 
  173000     310.1796   -8658.7822     44.38015   -8703.1624   -36874.898 
  173200    262.67755   -8662.9784    37.583611    -8700.562   -22124.487 
  173400    292.51057   -8671.0235    41.852085   -8712.8756    5043.0551 
  173600     383.6281   -8652.3237     54.88908   -8707.2128   -6762.4439 
  173800    339.06764   -8665.1763    48.513419   -8713.6897    39114.838 
  174000    305.60753   -8669.3374    43.725984   -8713.0634   -26754.816 
  174200     315.8383   -8656.1721    45.189791   -8701.3619    13119.664 
  174400    421.06321   -8665.5529    60.245254   -8725.7981   -44680.047 
  174600    278.16718   -8689.8516    39.799849   -8729.6515   -4347.9443 
  174800    320.96722   -8694.5635    45.923632   -8740.4871   -16090.421 
  175000    292.20206   -8686.5798    41.807945   -8728.3878    5582.4366 
  175200    304.98764   -8684.3787    43.637291    -8728.016   -27780.106 
  175400    294.20073   -8697.6253    42.093912   -8739.7192   -8194.0105 
  175600    303.50226    -8692.579    43.424765   -8736.0037   -29136.435 
  175800    335.05876   -8690.7373    47.939832   -8738.6771    -21365.21 
  176000    243.74194    -8703.649    34.874324   -8738.5233   -31899.978 
  176200    300.82266   -8687.8375     43.04137   -8730.8788   -24744.091 
  176400    305.08029   -8690.9128    43.650547   -8734.5634    8673.1877 
  176600    213.42042   -8708.3796    30.535955   -8738.9156   -7491.6403 
  176800    277.08754   -8694.5413    39.645376   -8734.1867    21825.386 
  177000    262.05353   -8686.8106    37.494326   -8724.3049   -19353.511 
  177200    327.16974   -8684.2728    46.811081   -8731.0839    3506.9531 
  177400    314.38623   -8688.1823    44.982031   -8733.1643    1266.7703 
  177600    369.04105   -8671.3019    52.801982   -8724.1039    18666.957 
  177800    353.87361   -8686.8851    50.631841   -8737.5169    36237.994 
  178000    293.28664   -8693.5763    41.963124   -8735.5395   -13739.407 
  178200    348.21361   -8677.1385    49.822014   -8726.9606   -9279.6518 
  178400    275.37647   -8691.4223    39.400558   -8730.8229   -18993.102 
  178600    307.58114   -8694.1328    44.008366   -8738.1411    2399.7082 
  178800    246.51621   -8696.7415    35.271264   -8732.0127    19229.513 
  179000    332.36456   -8686.0294     47.55435   -8733.5838    17766.736 
  179200    278.83799   -8700.0637    39.895828   -8739.9595   -2385.2176 
  179400    306.17443   -8688.5912    43.807096   -8732.3983    22991.829 
[...]
  950000    324.03314   -8740.1958    46.362299   -8786.5581    18222.763 
  950200    251.70801   -8755.1918    36.014101   -8791.2059   -2823.3076 
  950400    329.24037   -8739.4832    47.107345   -8786.5905   -12476.396 
  950600    277.53313   -8745.4017    39.709131   -8785.1108    -22384.12 
  950800    291.18341   -8747.1402    41.662197   -8788.8024   -186.29309 
  951000    384.35069   -8726.9594    54.992467   -8781.9518   -7071.5762 
  951200    321.76904   -8740.8261    46.038355   -8786.8645    7482.9258 
  951400    257.95644   -8749.3377    36.908119   -8786.2458    10603.761 
  951600    244.15138    -8765.448    34.932907   -8800.3809   -11530.247 
  951800    282.75705   -8749.1578    40.456562   -8789.6143   -22848.982 
  952000      311.055   -8738.8399    44.505401   -8783.3453   -13871.551 
  952200    343.75967   -8742.4914    49.184749   -8791.6762   -23555.475 
  952400     288.8064   -8753.5721    41.322097   -8794.8942   -11202.279 
  952600    324.70858   -8739.1153     46.45894   -8785.5743   -21233.904 
  952800    304.69216   -8743.2136    43.595013   -8786.8086   -23449.874 
  953000    261.24947   -8748.7789    37.379283   -8786.1582   -8446.2194 
  953200    345.31711   -8742.3361    49.407587   -8791.7436   -5526.2414 
  953400    276.52915   -8742.6899    39.565481   -8782.2554    -16003.21 
  953600     277.0927   -8753.4147    39.646114   -8793.0608   -30351.815 
  953800    292.82615   -8741.0512    41.897239   -8782.9485   -7671.0596 
  954000    330.16883   -8739.1976    47.240187   -8786.4378    14398.131 
  954200    256.85874   -8755.6847    36.751062   -8792.4358    7883.1915 
  954400    299.30531   -8753.2657    42.824269     -8796.09    38442.358 
  954600    320.33149   -8738.6515    45.832671   -8784.4842    -19447.58 
  954800     331.6667   -8741.0104    47.454501   -8788.4649    26841.772 
  955000    255.38782   -8754.3311    36.540604   -8790.8717     20937.16 
  955200    387.65697   -8739.7125    55.465526    -8795.178    20741.557 
  955400    330.43683   -8745.6143    47.278532   -8792.8928    34786.808 
  955600     222.2255    -8758.022    31.795775   -8789.8178    17991.794 
  955800    305.24581   -8745.2689     43.67423   -8788.9432   -13737.306 
  956000    326.63586   -8739.5356    46.734694   -8786.2703   -28183.859 
  956200    242.50281   -8753.2913    34.697031   -8787.9883   -4405.7848 
  956400    263.55334   -8759.5654    37.708917   -8797.2743    8092.4273 
  956600    338.51781   -8739.9736    48.434749   -8788.4083   -3022.3367 
  956800    225.24722   -8747.5596    32.228121   -8779.7877    22529.019 
  957000    300.76063   -8751.5655    43.032495    -8794.598    2886.4696 
  957200    345.17635   -8730.7878    49.387446   -8780.1753   -24553.577 
  957400    308.14965   -8745.3424    44.089707   -8789.4321   -16611.327 
  957600    274.28538   -8751.1985    39.244446   -8790.4429   -29554.854 
  957800    286.45438    -8746.564    40.985573   -8787.5495   -40962.251 
  958000    312.60849    -8735.162    44.727673   -8779.8897    25219.177 
  958200    257.75527   -8754.0651    36.879336   -8790.9444   -20310.803 
  958400    313.85737   -8749.5339    44.906362   -8794.4403    -7214.775 
  958600     358.0711   -8740.8973    51.232413   -8792.1297   -23654.681 
  958800    353.99314   -8741.1765    50.648943   -8791.8254    27107.562 
  959000     263.0781    -8748.673    37.640921   -8786.3139    39470.325 
  959200    347.13724   -8741.5027    49.668008   -8791.1707   -31178.288 
  959400    286.58729   -8752.5247    41.004589   -8793.5293    14034.735 
  959600    254.41863   -8752.3345    36.401933   -8788.7365   -18188.917 
  959800    303.57704   -8742.3176    43.435464   -8785.7531   -15287.349 
  960000    281.98795   -8747.7545    40.346521    -8788.101    25218.252 
  960200    253.96331   -8754.8942    36.336786   -8791.2309    33050.711 
  960400    306.55494   -8740.6151    43.861538   -8784.4766    -5497.234 
  960600    295.15511   -8744.2188    42.230463   -8786.4492    31117.325 
  960800    260.21251   -8761.1291    37.230915     -8798.36   -1094.7461 
  961000    233.58863   -8758.0538      33.4216   -8791.4754    -24644.98 
  961200    289.28993   -8745.7071    41.391279   -8787.0984    7907.3489 
  961400    310.86975   -8741.2193    44.478896   -8785.6982   -22218.346 
  961600    271.05339   -8757.1386    38.782017   -8795.9206    5975.3231 
  961800    352.97085   -8738.2445    50.502674   -8788.7471    40307.644 
  962000    311.42833   -8738.1452    44.558818    -8782.704    37117.146 
  962200    284.65432   -8753.3906    40.728021   -8794.1186    5255.1737 
  962400    265.80785     -8746.09     38.03149   -8784.1215    19760.061 
  962600    320.78907   -8724.8851    45.898141   -8770.7832    30653.903 
  962800    381.14394   -8744.5962    54.533649   -8799.1298   -17266.861 
  963000    263.78916   -8751.5253    37.742658    -8789.268    23356.723 
  963200    318.36861   -8733.6556    45.551825   -8779.2074    18066.833 
  963400    326.13412   -8740.4964    46.662906   -8787.1593       -19278 
  963600     250.8314   -8751.0915    35.888676   -8786.9801   -25250.353 
  963800    325.64278    -8744.986    46.592605   -8791.5786    21846.225 
  964000     373.0043   -8736.4217    53.369038   -8789.7908    12329.624 
  964200    250.83459   -8750.6154    35.889133   -8786.5045    21349.313 
  964400    343.16442    -8736.308    49.099581   -8785.4076    1997.7925 
  964600    305.04345     -8737.29    43.645275   -8780.9352   -13191.828 
  964800    314.43233   -8746.2234    44.988626    -8791.212   -5744.8966 
  965000    259.08893   -8756.6027    37.070154   -8793.6728   -29297.343 
  965200    330.32957   -8752.2468    47.263185     -8799.51   -5544.4432 
  965400    323.67943   -8737.8361    46.311691   -8784.1478   -6851.0953 
  965600    267.88724    -8747.814    38.329006    -8786.143   -22380.535 
  965800    288.51944    -8748.455    41.281039    -8789.736   -2041.8408 
  966000    319.19196   -8734.3352    45.669629   -8780.0048   -16535.224 
  966200    390.07276   -8721.8833    55.811174   -8777.6944   -5786.3444 
  966400    254.37489   -8748.6794    36.395676   -8785.0751   -20590.499 
  966600    295.20588   -8749.9259    42.237728   -8792.1637    5239.8698 
  966800    396.79301   -8740.5591      56.7727   -8797.3318     3903.274 
  967000    340.23199   -8737.8187    48.680013   -8786.4987   -18601.361 
  967200    317.72187   -8748.8914     45.45929   -8794.3507    11821.381 
  967400    300.76735   -8744.4125    43.033457   -8787.4459   -25841.947 
  967600    300.86788    -8733.159     43.04784   -8776.2069    15818.111 
  967800    257.33704   -8751.7549    36.819496   -8788.5744    17867.528 
  968000    320.96393   -8743.3869     45.92316     -8789.31    -20270.72 
  968200     367.4986   -8730.8696    52.581289   -8783.4509   -24727.214 
  968400    289.33863   -8742.0178    41.398248    -8783.416     39629.27 
  968600    241.20551   -8749.4755    34.511415   -8783.9869    -5945.756 
  968800    339.51636   -8735.4086    48.577621   -8783.9862   -13325.026 
  969000     269.9098   -8756.1181    38.618393   -8794.7365     2531.838 
  969200    246.33526   -8746.5663    35.245373   -8781.8117    5560.1292 
  969400    353.37988   -8738.2924    50.561198   -8788.8536    9108.4036 
  969600    300.41791   -8742.9172    42.983458   -8785.9006   -31156.205 
  969800    262.15569   -8749.0541    37.508943   -8786.5631   -21483.717 
  970000    356.08853   -8730.2301    50.948749   -8781.1788    4199.3695 
  970200    329.97601   -8739.9288    47.212598   -8787.1414   -13906.796 
  970400    320.62005   -8749.2426    45.873959   -8795.1166   -1529.6887 
  970600    270.03903   -8757.3509    38.636883   -8795.9877   -20690.383 
  970800     300.2187   -8743.8006    42.954956   -8786.7556    22087.401 
  971000    355.46878   -8734.9583    50.860076   -8785.8184    23952.842 
  971200    212.15172   -8755.0075     30.35443    -8785.362    21147.532 
  971400    300.80115     -8745.56    43.038292   -8788.5983    19986.069 
  971600    290.61017   -8740.4288    41.580178    -8782.009    4820.2293 
  971800    335.47208   -8746.5143     47.99897   -8794.5132    9769.6987 
  972000    231.95334   -8746.6707    33.187624   -8779.8583    93.835258 
  972200    323.02821   -8738.8851    46.218516   -8785.1037   -16560.335 
  972400    345.53869   -8739.3838     49.43929   -8788.8231    16121.545 
  972600    252.65586   -8749.6095    36.149718   -8785.7592    23441.339 
  972800    331.49185   -8735.5172    47.429483   -8782.9467    30195.133 
  973000    261.76557   -8749.4219    37.453126    -8786.875     10897.14 
  973200    274.44373   -8745.6972    39.267102   -8784.9643   -24222.272 
  973400    307.14541   -8733.1269    43.946022   -8777.0729   -10338.718 
  973600    308.97003   -8735.9259    44.207087    -8780.133   -10529.713 
  973800    284.35461   -8748.9292     40.68514   -8789.6143   -30275.044 
  974000    260.97517   -8752.6556    37.340036   -8789.9957    7122.7364 
  974200    347.19006   -8736.9861    49.675566   -8786.6617   -28188.976 
  974400    291.77196   -8750.3393    41.746406   -8792.0857   -13729.108 
  974600    294.28901   -8749.7298    42.106543   -8791.8363    17365.253 
  974800    326.20487   -8743.6673    46.673028   -8790.3403   -5253.9348 
  975000    314.89478   -8737.0315    45.054793   -8782.0863   -395.25544 
  975200    272.44271   -8742.2423    38.980799   -8781.2231    11118.915 
  975400     262.7356   -8750.7004    37.591917   -8788.2924   -27760.995 
  975600    384.68365   -8730.5366    55.040106   -8785.5767    8402.3519 
  975800    307.10685   -8747.5722    43.940504   -8791.5127    2762.6432 
  976000    286.49521   -8748.7305    40.991415   -8789.7219   -10477.388 
  976200    334.35219   -8733.9287    47.838737   -8781.7674    19120.669 
  976400    353.87345   -8743.1238    50.631818   -8793.7556    10110.886 
  976600    293.01694   -8745.9798    41.924537   -8787.9043   -28373.222 
  976800    342.25856   -8736.9213    48.969972   -8785.8913    29959.354 
  977000     370.4789   -8732.0456    53.007707   -8785.0533    21723.888 
  977200    277.39325    -8750.645    39.689116   -8790.3342   -21452.395 
  977400    361.05908   -8738.8392     51.65993   -8790.4991   -10881.417 
  977600    279.44459    -8747.537    39.982619   -8787.5196     9281.722 
  977800    276.52329    -8750.074    39.564644   -8789.6386    4232.5139 
  978000    341.35886   -8740.9505    48.841244   -8789.7918   -10313.164 
  978200    250.22427    -8756.108    35.801809   -8791.9098    11006.132 
  978400    281.79419   -8743.1626    40.318798   -8783.4814    10841.569 
  978600    287.50057    -8741.181     41.13526   -8782.3163    122.16307 
  978800    301.73196   -8745.0944    43.171472   -8788.2658   -25033.906 
  979000    286.55243   -8748.2385    40.999602   -8789.2381   -34101.349 
  979200    267.43449   -8747.5834    38.264227   -8785.8476   -4791.7153 
  979400    367.05668   -8736.1096    52.518059   -8788.6277   -8190.8574 
  979600     241.7635     -8750.72    34.591251   -8785.3112   -10482.407 
  979800     355.3908   -8746.2227    50.848919   -8797.0716    40725.846 
  980000    308.21024   -8727.2382    44.098376   -8771.3365    7096.6283 
  980200    298.56619   -8742.0741    42.718517   -8784.7926   -6917.0644 
  980400    269.12818    -8754.049    38.506559   -8792.5556   -9191.7474 
  980600    289.63905   -8737.7763    41.441232   -8779.2175     -33000.7 
  980800    317.94668   -8739.2859    45.491455   -8784.7774   -15750.595 
  981000    344.77925   -8748.7444    49.330629   -8798.0751    17115.587 
  981200    239.50121    -8764.611    34.267566   -8798.8785   -19564.557 
  981400    302.64751   -8748.5428    43.302468   -8791.8453    11341.654 
  981600    328.34923   -8740.3513    46.979841   -8787.3311    14587.143 
  981800    256.07569   -8746.9922    36.639024   -8783.6312    11167.918 
  982000    267.11538   -8755.6469     38.21857   -8793.8654    5011.5786 
  982200    282.78691   -8737.8808    40.460835   -8778.3416    36073.417 
  982400    313.61461   -8748.7993    44.871627   -8793.6709    9087.4327 
  982600    279.75292   -8761.2249    40.026735   -8801.2516   -15691.826 
  982800    329.02673    -8750.457    47.076777   -8797.5338      8696.52 
  983000    315.49677   -8744.5533    45.140925   -8789.6943   -7379.7299 
  983200     330.4482   -8743.6037    47.280159   -8790.8839   -676.98521 
  983400    257.17594   -8754.9571    36.796445   -8791.7535    48831.653 
  983600    312.67373   -8736.7614    44.737007   -8781.4985    12715.826 
  983800    298.33062   -8741.9099    42.684811   -8784.5947   -27359.624 
  984000    292.36035   -8748.0412    41.830592   -8789.8718   -8749.1055 
  984200    291.06278   -8746.4424    41.644937   -8788.0874   -3791.1599 
  984400    350.02899   -8725.9396    50.081756   -8776.0213   -35271.601 
  984600    265.49909   -8742.1498    37.987313   -8780.1372   -24324.935 
  984800    304.91681   -8744.6611    43.627157   -8788.2883    -24438.78 
  985000    335.76142   -8740.6564    48.040369   -8788.6968    5611.5875 
  985200    281.11473   -8745.4141    40.221581   -8785.6357    -6909.619 
  985400    284.81601   -8754.8627    40.751157   -8795.6138   -18599.452 
  985600    308.36616   -8737.0801    44.120685   -8781.2008    2332.7772 
  985800    330.94532   -8740.9346    47.351287   -8788.2859    858.75123 
  986000    254.23119   -8758.9038    36.375115   -8795.2789   -14446.684 
  986200    287.23625    -8753.286    41.097442   -8794.3835    3091.4019 
  986400    305.35689   -8741.4279    43.690122    -8785.118   -7707.0366 
  986600    301.40546   -8746.6978    43.124757   -8789.8225   -2871.3762 
  986800    260.17298   -8756.5484    37.225259   -8793.7737   -37005.246 
  987000    292.42274    -8740.257    41.839519   -8782.0965    7927.1072 
  987200     308.5127   -8745.2586    44.141652   -8789.4003    6516.7453 
  987400    272.22577   -8753.3979    38.949759   -8792.3476    31164.474 
  987600    321.96225   -8736.6796    46.065999   -8782.7456    21033.907 
  987800    289.09289    -8750.374    41.363088   -8791.7371    4963.9546 
  988000    255.01918    -8751.192    36.487859   -8787.6799    15905.709 
  988200    326.53801   -8743.4364    46.720694   -8790.1571    10513.241 
  988400    296.48096    -8744.188    42.420165   -8786.6081   -17436.844 
  988600    314.54097    -8750.827    45.004171   -8795.8312   -7853.1195 
  988800    327.19545   -8734.5041    46.814759   -8781.3188    25751.613 
  989000    279.88587   -8749.8638    40.045758   -8789.9095    8814.5271 
  989200    274.49437   -8750.9133    39.274348   -8790.1877     27607.96 
  989400    301.41698   -8738.2226    43.126405    -8781.349    562.32331 
  989600    266.06481   -8749.7789    38.068255   -8787.8471    17681.698 
  989800    196.00332   -8767.4278    28.043936   -8795.4717    37078.399 
  990000    287.46378   -8749.1485    41.129996   -8790.2785   -4792.2528 
  990200    293.20107   -8743.1204    41.950882   -8785.0713   -10107.269 
  990400     266.4287   -8744.9587    38.120321   -8783.0791    10628.866 
  990600    249.63835   -8750.0357    35.717976   -8785.7537     23867.07 
  990800     306.7179   -8736.9791    43.884854    -8780.864   -43135.814 
  991000    315.90679   -8753.6408    45.199591   -8798.8404   -3291.7664 
  991200    278.12705   -8752.5453    39.794108   -8792.3394    26563.611 
  991400    355.85714   -8741.4916    50.915643   -8792.4072   -8399.7964 
  991600    270.63619   -8741.2785    38.722324   -8780.0009    10277.725 
  991800    247.28104   -8755.8885    35.380695   -8791.2692   -16738.774 
  992000    275.95828   -8753.2057    39.483802   -8792.6895   -5828.4799 
  992200    302.33735    -8740.595    43.258091   -8783.8531    -31484.38 
  992400     292.8122   -8744.1674    41.895242   -8786.0626     18199.77 
  992600    289.31456   -8750.0198    41.394804   -8791.4146   -7594.3739 
  992800    337.93943   -8742.7834    48.351996   -8791.1354    11407.252 
  993000     318.6011   -8736.8529     45.58509    -8782.438    9464.0132 
  993200     263.5924   -8752.4172    37.714507   -8790.1317    8462.7123 
  993400      313.565   -8740.4707     44.86453   -8785.3352   -16021.088 
  993600    281.61774    -8742.287    40.293551   -8782.5806   -15009.716 
  993800    252.85531   -8752.6343    36.178255   -8788.8125    -12911.31 
  994000    334.75293   -8739.6233    47.896075   -8787.5194   -24513.642 
  994200    308.89357    -8733.879    44.196146   -8778.0752   -2560.0505 
  994400    252.64438   -8751.9974    36.148076   -8788.1455   -1773.3138 
  994600    347.37246    -8745.118    49.701664   -8794.8197    1647.9851 
  994800    390.29249   -8732.8818    55.842613   -8788.7244    15211.167 
  995000    343.70309   -8736.7129    49.176654   -8785.8896   -1126.7465 
  995200    283.80105   -8748.9785    40.605937   -8789.5844    7694.2545 
  995400    299.24608    -8740.604    42.815795   -8783.4198    15041.771 
  995600    361.86421   -8738.1231    51.775126   -8789.8982    15524.868 
  995800    287.12779   -8748.9863    41.081923   -8790.0682   -14549.751 
  996000    362.94494   -8738.9407    51.929757   -8790.8704   -5057.3996 
  996200    355.76843   -8735.8068     50.90295   -8786.7098   -7828.9705 
  996400    267.69418   -8753.0077    38.301384   -8791.3091   -21148.943 
  996600    323.00788   -8739.5851    46.215607   -8785.8007    3192.6152 
  996800    274.91353    -8739.491     39.33432   -8778.8253    2883.2424 
  997000    276.67632   -8753.5088    39.586538   -8793.0953    25815.397 
  997200     248.8085   -8763.0993    35.599243   -8798.6985   -23726.727 
  997400    275.53679   -8746.2439    39.423497   -8785.6674    6986.6047 
  997600    312.78948   -8736.3686    44.753569   -8781.1222    18038.165 
  997800    325.21313   -8739.9037    46.531132   -8786.4349    15337.658 
  998000    264.29362   -8746.5885    37.814835   -8784.4033    15215.802 
  998200    378.00872    -8733.199    54.085065   -8787.2841    -25023.86 
  998400    252.19227    -8754.026    36.083389   -8790.1094    20201.841 
  998600    311.37139   -8747.4081    44.550671   -8791.9588     17.85615 
  998800    335.84663   -8732.7788     48.05256   -8780.8314    15776.003 
  999000    336.60087    -8732.344    48.160476   -8780.5045   -14113.124 
  999200    286.44142   -8748.7929    40.983719   -8789.7767   -7935.5166 
  999400    301.32112   -8743.6555    43.112689   -8786.7682   -18992.949 
  999600    359.19052   -8737.0234    51.392578   -8788.4159     4800.719 
  999800    282.24033   -8751.4112    40.382631   -8791.7938    7930.7815 
 1000000    293.02054    -8747.748    41.925052    -8789.673   -6790.7139 
Loop time of 9414.17 on 8 procs for 1000000 steps with 49 atoms

Performance: 2.294 ns/day, 10.460 hours/ns, 106.223 timesteps/s
99.4% CPU use with 8 MPI tasks x no OpenMP threads

MPI task timing breakdown:
Section |  min time  |  avg time  |  max time  |%varavg| %total
---------------------------------------------------------------
Pair    | 7447.3     | 7547.4     | 7671.6     |  66.9 | 80.17
Neigh   | 0.13528    | 0.13678    | 0.13901    |   0.4 |  0.00
Comm    | 145.4      | 268.72     | 368.52     | 352.8 |  2.85
Output  | 0.45622    | 0.48727    | 0.66229    |   9.5 |  0.01
Modify  | 1577.6     | 1578.9     | 1580.6     |   2.6 | 16.77
Other   |            | 18.53      |            |       |  0.20

Nlocal:    6.125 ave 7 max 6 min
Histogram: 7 0 0 0 0 0 0 0 0 1
Nghost:    567.5 ave 576 max 554 min
Histogram: 1 0 0 1 0 1 1 1 2 1
Neighs:    767 ave 857 max 741 min
Histogram: 2 5 0 0 0 0 0 0 0 1

Total # of neighbors = 6136
Ave neighs/atom = 125.224
Neighbor list builds = 53
Dangerous builds = 0

Please see the log.cite file for references relevant to this simulation

Total wall time: 2:38:02
