ITEM: TIMESTEP
0
ITEM: NUMBER OF ATOMS
58
ITEM: BOX BOUNDS pp pp pp
0.0000000000000000e+00 3.2808000000000000e+01
0.0000000000000000e+00 1.7780000000000001e+01
0.0000000000000000e+00 2.4729999999999999e+00
ITEM: ATOMS id type x y z 
13 1 7.043 0.849 2.464 
29 1 7.397 1.432 1.228 
37 1 8.035 2.733 1.228 
1 1 6.173 17.398 2.464 
5 1 5.371 17.398 1.228 
9 1 3.973 17.398 1.228 
16 1 7.043 16.167 2.464 
32 1 7.397 15.584 1.228 
40 1 8.035 14.283 1.228 
45 1 3.236 17.398 2.464 
49 1 1.81 17.398 2.464 
53 1 1.083 17.398 1.228 
57 2 7.224 17.339 1.616 
58 3 8.2 17.339 1.616 
4 1 10.968 8.508 2.464 
8 1 11.771 8.508 1.228 
12 1 13.168 8.508 1.228 
18 1 10.098 7.277 2.464 
21 1 8.308 3.392 2.464 
26 1 8.833 4.734 2.464 
34 1 9.745 6.694 1.228 
42 1 9.106 5.393 1.228 
48 1 13.906 8.508 2.464 
52 1 15.331 8.508 2.464 
56 1 16.058 8.508 1.228 
19 1 10.098 9.739 2.464 
24 1 8.308 13.624 2.464 
27 1 8.833 12.282 2.464 
35 1 9.745 10.322 1.228 
43 1 9.106 11.623 1.228 
3 1 22.577 8.508 2.464 
7 1 21.775 8.508 1.228 
11 1 20.377 8.508 1.228 
20 1 23.447 7.277 2.464 
36 1 23.801 6.694 1.228 
44 1 24.439 5.393 1.228 
47 1 19.64 8.508 2.464 
51 1 18.214 8.508 2.464 
55 1 17.487 8.508 1.228 
17 1 23.447 9.739 2.464 
33 1 23.801 10.322 1.228 
41 1 24.439 11.623 1.228 
15 1 26.502 0.849 2.464 
23 1 25.237 3.392 2.464 
28 1 24.712 4.734 2.464 
31 1 26.149 1.432 1.228 
39 1 25.511 2.733 1.228 
2 1 27.373 17.398 2.464 
6 1 28.175 17.398 1.228 
10 1 29.572 17.398 1.228 
14 1 26.502 16.167 2.464 
22 1 25.237 13.624 2.464 
25 1 24.712 12.282 2.464 
30 1 26.149 15.584 1.228 
38 1 25.511 14.283 1.228 
46 1 30.31 17.398 2.464 
50 1 31.735 17.398 2.464 
54 1 32.462 17.398 1.228 
ITEM: TIMESTEP
10
ITEM: NUMBER OF ATOMS
58
ITEM: BOX BOUNDS pp pp pp
0.0000000000000000e+00 3.2808000000000000e+01
0.0000000000000000e+00 1.7780000000000001e+01
0.0000000000000000e+00 2.4729999999999999e+00
ITEM: ATOMS id type x y z 
13 1 6.8781 0.991745 2.49828 
29 1 7.24404 1.55052 1.25313 
37 1 8.05277 2.76191 1.22642 
1 1 6.12476 17.3842 2.58231 
5 1 5.29903 17.3956 1.35978 
9 1 3.93321 17.3965 1.25277 
16 1 6.89451 16 2.4792 
32 1 7.17652 15.4148 1.237 
40 1 8.04047 14.2388 1.22357 
45 1 3.19076 17.3977 2.47843 
49 1 1.76113 17.398 2.46476 
53 1 1.0399 17.398 1.22799 
57 2 7.77931 17.3969 1.25107 
58 3 8.68254 17.4101 1.61874 
4 1 10.9996 8.51091 2.46428 
8 1 11.7961 8.50674 1.22777 
12 1 13.1929 8.50808 1.22777 
18 1 10.0975 7.29828 2.4642 
21 1 8.33156 3.41739 2.46228 
26 1 8.83728 4.75062 2.46412 
34 1 9.73692 6.71559 1.22778 
42 1 9.10401 5.41935 1.22773 
48 1 13.9235 8.50804 2.46423 
52 1 15.3482 8.50801 2.46422 
56 1 16.0687 8.508 1.22778 
19 1 10.0961 9.71907 2.46421 
24 1 8.33345 13.6013 2.46067 
27 1 8.8427 12.254 2.46402 
35 1 9.73835 10.2988 1.22778 
43 1 9.11038 11.583 1.2277 
3 1 22.5848 8.508 2.46426 
7 1 21.7785 8.508 1.22775 
11 1 20.3862 8.508 1.22777 
20 1 23.4505 7.27804 2.46421 
36 1 23.801 6.69745 1.22778 
44 1 24.4375 5.39657 1.22778 
47 1 19.6497 8.508 2.46423 
51 1 18.2193 8.508 2.46422 
55 1 17.4976 8.508 1.22778 
17 1 23.4505 9.73796 2.46421 
33 1 23.801 10.3186 1.22778 
41 1 24.4375 11.6194 1.22778 
15 1 26.4846 0.85535 2.46421 
23 1 25.2332 3.40326 2.46422 
28 1 24.7111 4.73508 2.46422 
31 1 26.1379 1.44304 1.22777 
39 1 25.5067 2.73877 1.22778 
2 1 27.3411 17.398 2.46428 
6 1 28.1465 17.398 1.22778 
10 1 29.5345 17.398 1.22776 
14 1 26.4846 16.1607 2.46421 
22 1 25.2332 13.6127 2.46422 
25 1 24.7111 12.2809 2.46422 
30 1 26.1379 15.573 1.22777 
38 1 25.5067 14.2772 1.22778 
46 1 30.2679 17.398 2.46422 
50 1 31.6948 17.398 2.46423 
54 1 32.4148 17.398 1.22779 
ITEM: TIMESTEP
20
ITEM: NUMBER OF ATOMS
58
ITEM: BOX BOUNDS pp pp pp
0.0000000000000000e+00 3.2808000000000000e+01
0.0000000000000000e+00 1.7780000000000001e+01
0.0000000000000000e+00 2.4729999999999999e+00
ITEM: ATOMS id type x y z 
13 1 6.8738 0.938802 2.50926 
29 1 7.2195 1.53331 1.26719 
37 1 8.00616 2.75756 1.23365 
1 1 6.15235 17.3904 2.52877 
5 1 5.33908 17.3937 1.2957 
9 1 3.93817 17.3967 1.26675 
16 1 6.85121 16.0543 2.49828 
32 1 7.18835 15.4602 1.25606 
40 1 7.99051 14.2467 1.22873 
45 1 3.20306 17.3976 2.49762 
49 1 1.7791 17.3981 2.47033 
53 1 1.05351 17.3981 1.23158 
57 2 7.87413 17.3912 1.24295 
58 3 8.73174 17.4074 1.61809 
4 1 10.9753 8.50552 2.46427 
8 1 11.7742 8.50493 1.22774 
12 1 13.1726 8.50797 1.22775 
18 1 10.0908 7.28009 2.46423 
21 1 8.31926 3.39029 2.46848 
26 1 8.83295 4.72833 2.46418 
34 1 9.72614 6.69892 1.22771 
42 1 9.10116 5.40838 1.22741 
48 1 13.9114 8.50819 2.46426 
52 1 15.3368 8.50806 2.46425 
56 1 16.0646 8.508 1.22775 
19 1 10.0942 9.72567 2.46422 
24 1 8.32052 13.6174 2.46421 
27 1 8.84131 12.2731 2.4635 
35 1 9.73074 10.3044 1.22768 
43 1 9.09997 11.6087 1.22701 
3 1 22.5815 8.508 2.46427 
7 1 21.7766 8.508 1.22773 
11 1 20.3793 8.508 1.22775 
20 1 23.4621 7.28445 2.46424 
36 1 23.8132 6.70093 1.22775 
44 1 24.4452 5.40112 1.22775 
47 1 19.6435 8.508 2.46425 
51 1 18.2192 8.508 2.46425 
55 1 17.4932 8.508 1.22775 
17 1 23.4621 9.73155 2.46424 
33 1 23.8132 10.3151 1.22775 
41 1 24.4452 11.6149 1.22775 
15 1 26.4729 0.844633 2.46424 
23 1 25.2319 3.39884 2.46424 
28 1 24.7135 4.73728 2.46425 
31 1 26.1284 1.43254 1.22775 
39 1 25.5009 2.73315 1.22775 
2 1 27.3491 17.398 2.46427 
6 1 28.152 17.398 1.22774 
10 1 29.5498 17.398 1.22775 
14 1 26.4729 16.1714 2.46424 
22 1 25.2319 13.6172 2.46424 
25 1 24.7135 12.2787 2.46425 
30 1 26.1284 15.5835 1.22775 
38 1 25.5009 14.2829 1.22775 
46 1 30.2801 17.398 2.46426 
50 1 31.708 17.398 2.46435 
54 1 32.4337 17.398 1.22804 
ITEM: TIMESTEP
30
ITEM: NUMBER OF ATOMS
58
ITEM: BOX BOUNDS pp pp pp
0.0000000000000000e+00 3.2808000000000000e+01
0.0000000000000000e+00 1.7780000000000001e+01
0.0000000000000000e+00 2.4729999999999999e+00
ITEM: ATOMS id type x y z 
13 1 6.88654 0.93977 2.50737 
29 1 7.21729 1.53396 1.26808 
37 1 7.98885 2.75459 1.23957 
1 1 6.14647 17.3919 2.51327 
5 1 5.3365 17.3976 1.27482 
9 1 3.93479 17.3968 1.26632 
16 1 6.86487 16.0549 2.50003 
32 1 7.19525 15.4603 1.26018 
40 1 7.97769 14.2434 1.23414 
45 1 3.2008 17.3976 2.50112 
49 1 1.77445 17.3981 2.47435 
53 1 1.05132 17.3981 1.23578 
57 2 7.92921 17.387 1.23157 
58 3 8.78189 17.4059 1.62746 
4 1 10.9759 8.50538 2.46423 
8 1 11.7783 8.50413 1.22776 
12 1 13.1732 8.50772 1.22775 
18 1 10.092 7.28172 2.46419 
21 1 8.31519 3.39406 2.47263 
26 1 8.83937 4.73481 2.46506 
34 1 9.73085 6.70515 1.2277 
42 1 9.0971 5.39564 1.22812 
48 1 13.9079 8.50829 2.46425 
52 1 15.3355 8.50813 2.46425 
56 1 16.0581 8.50802 1.22775 
19 1 10.0922 9.72793 2.46412 
24 1 8.31281 13.6111 2.46781 
27 1 8.84404 12.2754 2.46381 
35 1 9.73151 10.3066 1.22758 
43 1 9.10371 11.6081 1.22717 
3 1 22.574 8.508 2.46424 
7 1 21.7737 8.508 1.22776 
11 1 20.3767 8.508 1.22775 
20 1 23.4593 7.28753 2.46425 
36 1 23.8154 6.7067 1.22775 
44 1 24.4468 5.40267 1.22775 
47 1 19.6409 8.508 2.46425 
51 1 18.214 8.508 2.46425 
55 1 17.489 8.50799 1.22775 
17 1 23.4593 9.72847 2.46425 
33 1 23.8154 10.3093 1.22775 
41 1 24.4468 11.6133 1.22775 
15 1 26.4702 0.84399 2.46425 
23 1 25.2305 3.3982 2.46425 
28 1 24.7139 4.74132 2.46425 
31 1 26.1216 1.43048 1.22775 
39 1 25.4969 2.73615 1.22774 
2 1 27.3433 17.398 2.46424 
6 1 28.15 17.398 1.22776 
10 1 29.5408 17.398 1.22777 
14 1 26.4702 16.172 2.46425 
22 1 25.2305 13.6178 2.46425 
25 1 24.7139 12.2747 2.46425 
30 1 26.1216 15.5855 1.22775 
38 1 25.4969 14.2798 1.22774 
46 1 30.2772 17.398 2.4643 
50 1 31.7049 17.398 2.46487 
54 1 32.4276 17.398 1.22884 
ITEM: TIMESTEP
40
ITEM: NUMBER OF ATOMS
58
ITEM: BOX BOUNDS pp pp pp
0.0000000000000000e+00 3.2808000000000000e+01
0.0000000000000000e+00 1.7780000000000001e+01
0.0000000000000000e+00 2.4729999999999999e+00
ITEM: ATOMS id type x y z 
13 1 6.88783 0.934854 2.50355 
29 1 7.2186 1.52957 1.26485 
37 1 7.97775 2.7523 1.24256 
1 1 6.1432 17.3929 2.50768 
5 1 5.33308 17.3986 1.2702 
9 1 3.93377 17.3971 1.2635 
16 1 6.8697 16.0627 2.49772 
32 1 7.19743 15.4658 1.25871 
40 1 7.9698 14.2418 1.23751 
45 1 3.1985 17.3975 2.49848 
49 1 1.77114 17.3981 2.47734 
53 1 1.04809 17.3981 1.23901 
57 2 7.98245 17.3848 1.21966 
58 3 8.82477 17.4047 1.63832 
4 1 10.9742 8.50607 2.46421 
8 1 11.7757 8.50386 1.22773 
12 1 13.1721 8.5075 1.22775 
18 1 10.0902 7.2809 2.46429 
21 1 8.307 3.39634 2.47613 
26 1 8.84128 4.73527 2.46664 
34 1 9.73101 6.70339 1.22786 
42 1 9.09919 5.39375 1.22945 
48 1 13.9065 8.50831 2.46425 
52 1 15.3344 8.50823 2.46425 
56 1 16.0578 8.50805 1.22775 
19 1 10.0913 9.72709 2.46409 
24 1 8.30255 13.6095 2.47144 
27 1 8.84432 12.2773 2.46496 
35 1 9.73223 10.3071 1.22758 
43 1 9.10611 11.6104 1.228 
3 1 22.5724 8.508 2.46424 
7 1 21.7726 8.508 1.22776 
11 1 20.3753 8.508 1.22775 
20 1 23.4585 7.28753 2.46425 
36 1 23.8169 6.70835 1.22775 
44 1 24.4483 5.40465 1.22775 
47 1 19.6387 8.508 2.46425 
51 1 18.2134 8.50799 2.46425 
55 1 17.4883 8.50799 1.22775 
17 1 23.4585 9.72847 2.46425 
33 1 23.8169 10.3076 1.22775 
41 1 24.4483 11.6114 1.22775 
15 1 26.4667 0.845068 2.46425 
23 1 25.229 3.39917 2.46425 
28 1 24.7146 4.74344 2.46425 
31 1 26.1169 1.43027 1.22775 
39 1 25.4946 2.73585 1.22775 
2 1 27.34 17.398 2.46425 
6 1 28.1449 17.398 1.22777 
10 1 29.5374 17.398 1.22788 
14 1 26.4667 16.1709 2.46425 
22 1 25.229 13.6168 2.46425 
25 1 24.7146 12.2726 2.46425 
30 1 26.1169 15.5857 1.22775 
38 1 25.4946 14.2801 1.22775 
46 1 30.2738 17.398 2.46449 
50 1 31.7004 17.398 2.46599 
54 1 32.4244 17.398 1.23017 
ITEM: TIMESTEP
50
ITEM: NUMBER OF ATOMS
58
ITEM: BOX BOUNDS pp pp pp
0.0000000000000000e+00 3.2808000000000000e+01
0.0000000000000000e+00 1.7780000000000001e+01
0.0000000000000000e+00 2.4729999999999999e+00
ITEM: ATOMS id type x y z 
13 1 6.88858 0.929954 2.50124 
29 1 7.21903 1.52612 1.26308 
37 1 7.97661 2.76124 1.24365 
1 1 6.14227 17.3936 2.50447 
5 1 5.33158 17.3986 1.26772 
9 1 3.93031 17.3974 1.262 
16 1 6.87378 16.0685 2.49578 
32 1 7.19926 15.4699 1.25753 
40 1 7.96476 14.2405 1.23891 
45 1 3.19501 17.3974 2.49678 
49 1 1.76986 17.3981 2.47885 
53 1 1.04508 17.3981 1.24043 
57 2 8.0165 17.3838 1.2111 
58 3 8.8504 17.4031 1.64738 
4 1 10.9715 8.5039 2.46422 
8 1 11.7733 8.50357 1.22772 
12 1 13.1692 8.50736 1.22775 
18 1 10.0898 7.28021 2.46444 
21 1 8.30068 3.39741 2.47792 
26 1 8.84 4.73099 2.46776 
34 1 9.73052 6.70003 1.22808 
42 1 9.10229 5.39515 1.23038 
48 1 13.9056 8.5083 2.46425 
52 1 15.3317 8.50828 2.46425 
56 1 16.0572 8.50808 1.22775 
19 1 10.0909 9.7271 2.46413 
24 1 8.29649 13.6079 2.47345 
27 1 8.84457 12.2771 2.46582 
35 1 9.73304 10.3073 1.22768 
43 1 9.10727 11.613 1.22873 
3 1 22.5723 8.508 2.46425 
7 1 21.7709 8.508 1.22775 
11 1 20.3752 8.508 1.22775 
20 1 23.4582 7.28796 2.46425 
36 1 23.8179 6.70911 1.22775 
44 1 24.449 5.40699 1.22775 
47 1 19.639 8.508 2.46425 
51 1 18.2125 8.50799 2.46425 
55 1 17.4874 8.50799 1.22775 
17 1 23.4582 9.72804 2.46425 
33 1 23.8179 10.3069 1.22775 
41 1 24.449 11.609 1.22775 
15 1 26.4643 0.844936 2.46425 
23 1 25.2278 3.40026 2.46425 
28 1 24.7156 4.74375 2.46425 
31 1 26.1141 1.42982 1.22775 
39 1 25.4927 2.73613 1.22775 
2 1 27.3388 17.398 2.46426 
6 1 28.1423 17.398 1.22779 
10 1 29.5365 17.398 1.22803 
14 1 26.4643 16.1711 2.46425 
22 1 25.2278 13.6157 2.46425 
25 1 24.7156 12.2722 2.46425 
30 1 26.1141 15.5862 1.22775 
38 1 25.4927 14.2799 1.22775 
46 1 30.2722 17.398 2.4647 
50 1 31.699 17.398 2.46684 
54 1 32.423 17.398 1.23113 
ITEM: TIMESTEP
60
ITEM: NUMBER OF ATOMS
58
ITEM: BOX BOUNDS pp pp pp
0.0000000000000000e+00 3.2808000000000000e+01
0.0000000000000000e+00 1.7780000000000001e+01
0.0000000000000000e+00 2.4729999999999999e+00
ITEM: ATOMS id type x y z 
13 1 6.90247 0.911288 0.0151238 
29 1 7.22693 1.5087 1.25155 
37 1 7.94268 2.76605 1.24916 
1 1 6.13016 17.3932 0.0151266 
5 1 5.31837 17.3961 1.2516 
9 1 3.9166 17.3983 1.25194 
16 1 6.90064 16.0966 0.0118786 
32 1 7.21713 15.4945 1.24814 
40 1 7.93165 14.2347 1.24593 
45 1 3.18309 17.3976 0.0153817 
49 1 1.75905 17.3978 0.0116744 
53 1 1.03343 17.3981 1.24725 
57 2 8.24504 17.3799 1.1479 
4 1 10.9635 8.50426 2.46454 
8 1 11.7651 8.50327 1.22791 
12 1 13.1617 8.50666 1.22774 
18 1 10.0861 7.27713 2.46624 
21 1 8.26496 3.40438 0.0116204 
26 1 8.83815 4.72664 2.4747 
34 1 9.73383 6.69457 1.23028 
42 1 9.11095 5.3854 1.237 
48 1 13.898 8.50805 2.46423 
52 1 15.3232 8.50862 2.46425 
56 1 16.0491 8.50835 1.22775 
19 1 10.0873 9.73053 2.46518 
24 1 8.25694 13.5999 0.00844923 
27 1 8.84024 12.2818 2.47185 
35 1 9.73607 10.3154 1.22905 
43 1 9.11612 11.6232 1.23427 
58 3 9.00656 17.3909 1.71806 
3 1 22.5645 8.508 2.46425 
7 1 21.7646 8.508 1.22775 
11 1 20.3687 8.508 1.22775 
20 1 23.4554 7.29094 2.46425 
36 1 23.8212 6.716 1.22775 
44 1 24.4568 5.41542 1.22775 
47 1 19.6319 8.50798 2.46425 
51 1 18.2055 8.50796 2.46425 
55 1 17.48 8.508 1.22775 
17 1 23.4554 9.72506 2.46425 
33 1 23.8212 10.3 1.22775 
41 1 24.4568 11.6006 1.22775 
15 1 26.4487 0.843906 2.46428 
23 1 25.2214 3.40255 2.46425 
28 1 24.7202 4.75135 2.46425 
31 1 26.097 1.42746 1.22777 
39 1 25.4806 2.73641 1.22775 
2 1 27.324 17.398 2.46448 
6 1 28.1285 17.398 1.22816 
10 1 29.5238 17.398 1.2297 
14 1 26.4487 16.1721 2.46428 
22 1 25.2214 13.6135 2.46425 
25 1 24.7202 12.2647 2.46425 
30 1 26.097 15.5885 1.22777 
38 1 25.4806 14.2796 1.22775 
46 1 30.2589 17.398 2.46676 
50 1 31.6859 17.398 2.47269 
54 1 32.4108 17.3981 1.23736 
ITEM: TIMESTEP
70
ITEM: NUMBER OF ATOMS
58
ITEM: BOX BOUNDS pp pp pp
0.0000000000000000e+00 3.2808000000000000e+01
0.0000000000000000e+00 1.7780000000000001e+01
0.0000000000000000e+00 2.4729999999999999e+00
ITEM: ATOMS id type x y z 
13 1 6.91672 0.89451 0.0097883 
29 1 7.24399 1.49165 1.24597 
37 1 7.92353 2.76929 1.24068 
1 1 6.11596 17.3938 0.010676 
5 1 5.30809 17.3946 1.24719 
9 1 3.9092 17.3963 1.24697 
16 1 6.8969 16.1046 0.0102609 
32 1 7.23794 15.5146 1.24639 
40 1 7.91536 14.2344 1.23809 
45 1 3.17326 17.3993 0.0102712 
49 1 1.74759 17.3983 0.00459153 
53 1 1.0211 17.3977 1.24088 
57 2 8.53561 17.3862 1.03851 
4 1 10.9538 8.50435 2.46754 
8 1 11.7567 8.5038 1.23039 
12 1 13.1528 8.5065 1.22822 
18 1 10.0852 7.271 2.47198 
21 1 8.23429 3.41314 0.00359887 
26 1 8.82282 4.72455 2.47774 
34 1 9.74103 6.68408 1.23613 
42 1 9.11025 5.37617 1.24105 
48 1 13.8891 8.50728 2.46455 
52 1 15.3162 8.50862 2.46426 
56 1 16.0433 8.5088 1.22774 
19 1 10.0888 9.73757 2.47042 
24 1 8.22698 13.5907 0.000872655 
27 1 8.82303 12.2811 2.4761 
35 1 9.74338 10.3263 1.23448 
43 1 9.11272 11.631 1.23943 
58 3 9.10704 17.3916 1.83814 
3 1 22.5562 8.508 2.46425 
7 1 21.7568 8.508 1.22775 
11 1 20.3598 8.50797 1.22775 
20 1 23.449 7.29203 2.46425 
36 1 23.8179 6.71894 1.22775 
44 1 24.463 5.42343 1.22775 
47 1 19.6227 8.50792 2.46425 
51 1 18.1966 8.50795 2.46425 
55 1 17.4729 8.50822 1.22774 
17 1 23.449 9.72397 2.46425 
33 1 23.8179 10.2971 1.22775 
41 1 24.463 11.5926 1.22775 
15 1 26.4347 0.842425 2.46465 
23 1 25.2145 3.40485 2.46428 
28 1 24.7265 4.75977 2.46425 
31 1 26.0827 1.42573 1.22804 
39 1 25.4691 2.73667 1.22779 
2 1 27.3138 17.398 2.46596 
6 1 28.1164 17.398 1.23013 
10 1 29.5133 17.398 1.23464 
14 1 26.4347 16.1736 2.46465 
22 1 25.2145 13.6112 2.46428 
25 1 24.7265 12.2562 2.46425 
30 1 26.0827 15.5903 1.22804 
38 1 25.4691 14.2793 1.22779 
46 1 30.2486 17.398 2.47193 
50 1 31.6729 17.3982 2.47703 
54 1 32.3977 17.3981 1.24092 
ITEM: TIMESTEP
80
ITEM: NUMBER OF ATOMS
58
ITEM: BOX BOUNDS pp pp pp
0.0000000000000000e+00 3.2808000000000000e+01
0.0000000000000000e+00 1.7780000000000001e+01
0.0000000000000000e+00 2.4729999999999999e+00
ITEM: ATOMS id type x y z 
13 1 6.91828 0.888259 0.00800805 
29 1 7.24524 1.48667 1.24432 
37 1 7.92133 2.77075 1.24158 
1 1 6.11251 17.3941 0.00941314 
5 1 5.30536 17.398 1.24624 
9 1 3.90611 17.3973 1.24542 
16 1 6.90863 16.1137 0.00790403 
32 1 7.23352 15.5144 1.24414 
40 1 7.91226 14.2362 1.23996 
45 1 3.16977 17.3982 0.00861717 
49 1 1.74446 17.3984 0.00556701 
53 1 1.01868 17.398 1.24176 
57 2 8.58112 17.386 1.05966 
4 1 10.9509 8.50134 2.46892 
8 1 11.7544 8.5028 1.23173 
12 1 13.151 8.50625 1.22893 
18 1 10.0857 7.26926 2.47248 
21 1 8.22957 3.41149 0.0047178 
26 1 8.82003 4.72563 2.4766 
34 1 9.73949 6.68104 1.23649 
42 1 9.10847 5.37825 1.23976 
48 1 13.8883 8.50739 2.46516 
52 1 15.3145 8.50861 2.4644 
56 1 16.0408 8.50875 1.22784 
19 1 10.0883 9.73843 2.47128 
24 1 8.22369 13.5924 0.00299416 
27 1 8.81885 12.2817 2.47482 
35 1 9.74313 10.3265 1.23515 
43 1 9.10963 11.6299 1.23802 
58 3 9.14768 17.3918 1.81944 
3 1 22.5556 8.508 2.46425 
7 1 21.7553 8.508 1.22775 
11 1 20.3589 8.50795 1.22775 
20 1 23.4471 7.29134 2.46425 
36 1 23.8173 6.71887 1.22775 
44 1 24.4636 5.42452 1.22776 
47 1 19.6227 8.50791 2.46425 
51 1 18.1963 8.50802 2.46425 
55 1 17.4709 8.50829 1.22775 
17 1 23.4471 9.72466 2.46425 
33 1 23.8173 10.2971 1.22775 
41 1 24.4636 11.5915 1.22776 
15 1 26.4324 0.842785 2.46502 
23 1 25.214 3.4058 2.46434 
28 1 24.7272 4.75968 2.46426 
31 1 26.0795 1.42602 1.22836 
39 1 25.4667 2.73802 1.22788 
2 1 27.3113 17.398 2.46667 
6 1 28.1131 17.398 1.23084 
10 1 29.5093 17.398 1.235 
14 1 26.4324 16.1732 2.46502 
22 1 25.214 13.6102 2.46434 
25 1 24.7272 12.2563 2.46426 
30 1 26.0795 15.59 1.22836 
38 1 25.4667 14.278 1.22788 
46 1 30.2457 17.398 2.47212 
50 1 31.6718 17.3981 2.47593 
54 1 32.3971 17.398 1.23986 
ITEM: TIMESTEP
90
ITEM: NUMBER OF ATOMS
58
ITEM: BOX BOUNDS pp pp pp
0.0000000000000000e+00 3.2808000000000000e+01
0.0000000000000000e+00 1.7780000000000001e+01
0.0000000000000000e+00 2.4729999999999999e+00
ITEM: ATOMS id type x y z 
13 1 6.91891 0.887305 0.00741764 
29 1 7.24624 1.48469 1.24382 
37 1 7.91983 2.76938 1.24185 
1 1 6.11149 17.3941 0.00841992 
5 1 5.30483 17.3972 1.24516 
9 1 3.90555 17.3978 1.24482 
16 1 6.9092 16.1149 0.00706608 
32 1 7.23526 15.5169 1.24338 
40 1 7.91044 14.236 1.24049 
45 1 3.16904 17.398 0.00812644 
49 1 1.74406 17.3983 0.00577106 
53 1 1.01809 17.3982 1.24195 
57 2 8.59946 17.3856 1.05509 
4 1 10.9493 8.50138 2.46947 
8 1 11.7527 8.50271 1.23234 
12 1 13.1493 8.5061 1.22951 
18 1 10.0854 7.26842 2.47248 
21 1 8.22789 3.41178 0.00500017 
26 1 8.81795 4.72631 2.47619 
34 1 9.73945 6.681 1.23641 
42 1 9.10665 5.3786 1.23932 
48 1 13.8865 8.50739 2.46571 
52 1 15.3128 8.50863 2.46461 
56 1 16.0398 8.50873 1.22801 
19 1 10.0879 9.73925 2.47143 
24 1 8.22199 13.593 0.00357393 
27 1 8.8165 12.2818 2.47454 
35 1 9.74266 10.3268 1.23523 
43 1 9.10773 11.6293 1.2377 
58 3 9.18003 17.3921 1.82531 
3 1 22.5541 8.508 2.46425 
7 1 21.7537 8.50799 1.22775 
11 1 20.3571 8.50793 1.22775 
20 1 23.446 7.29146 2.46425 
36 1 23.8167 6.71873 1.22775 
44 1 24.4638 5.42472 1.22778 
47 1 19.6211 8.50791 2.46425 
51 1 18.1946 8.50807 2.46427 
55 1 17.4695 8.50832 1.22779 
17 1 23.446 9.72453 2.46425 
33 1 23.8167 10.2973 1.22775 
41 1 24.4638 11.5913 1.22778 
15 1 26.431 0.842595 2.46531 
23 1 25.2137 3.40598 2.46444 
28 1 24.7274 4.76017 2.46429 
31 1 26.0779 1.42617 1.22864 
39 1 25.4658 2.73852 1.228 
2 1 27.3098 17.398 2.46699 
6 1 28.1122 17.398 1.23111 
10 1 29.5082 17.398 1.23487 
14 1 26.431 16.1734 2.46531 
22 1 25.2137 13.61 2.46444 
25 1 24.7274 12.2558 2.46429 
30 1 26.0779 15.5898 1.22864 
38 1 25.4658 14.2775 1.228 
46 1 30.2449 17.398 2.47193 
50 1 31.6715 17.3981 2.47549 
54 1 32.3965 17.398 1.23943 
ITEM: TIMESTEP
100
ITEM: NUMBER OF ATOMS
58
ITEM: BOX BOUNDS pp pp pp
0.0000000000000000e+00 3.2808000000000000e+01
0.0000000000000000e+00 1.7780000000000001e+01
0.0000000000000000e+00 2.4729999999999999e+00
ITEM: ATOMS id type x y z 
13 1 6.91971 0.886525 0.00699895 
29 1 7.24755 1.484 1.24344 
37 1 7.91877 2.76831 1.24179 
1 1 6.11105 17.3945 0.00778826 
5 1 5.30354 17.3972 1.24439 
9 1 3.90437 17.3979 1.24435 
16 1 6.91042 16.1162 0.00655831 
32 1 7.23669 15.5178 1.24292 
40 1 7.9099 14.2357 1.24057 
45 1 3.16816 17.3981 0.00768963 
49 1 1.74305 17.3983 0.00572054 
53 1 1.01708 17.3982 1.24186 
57 2 8.62074 17.3853 1.05757 
4 1 10.9488 8.5028 2.4698 
8 1 11.7518 8.50286 1.23271 
12 1 13.1487 8.50602 1.22995 
18 1 10.0848 7.26822 2.4725 
21 1 8.22629 3.41169 0.00502325 
26 1 8.81562 4.72585 2.47598 
34 1 9.73874 6.68042 1.23639 
42 1 9.10486 5.37844 1.23913 
48 1 13.8859 8.50734 2.46614 
52 1 15.3118 8.50863 2.46483 
56 1 16.0378 8.50873 1.22821 
19 1 10.0873 9.73986 2.47155 
24 1 8.22047 13.5926 0.0037392 
27 1 8.81479 12.281 2.47449 
35 1 9.74181 10.3277 1.23533 
43 1 9.10601 11.6293 1.23765 
58 3 9.20334 17.3923 1.82382 
3 1 22.5534 8.508 2.46425 
7 1 21.7528 8.50799 1.22775 
11 1 20.3567 8.50792 1.22775 
20 1 23.4449 7.29145 2.46426 
36 1 23.8156 6.71928 1.22776 
44 1 24.4637 5.42497 1.22781 
47 1 19.6199 8.50792 2.46426 
51 1 18.1936 8.50811 2.46432 
55 1 17.4678 8.50835 1.22785 
17 1 23.4449 9.72455 2.46426 
33 1 23.8156 10.2967 1.22776 
41 1 24.4637 11.591 1.22781 
15 1 26.4302 0.842559 2.46554 
23 1 25.2133 3.40639 2.46454 
28 1 24.7273 4.76089 2.46432 
31 1 26.0771 1.42591 1.22887 
39 1 25.4655 2.73813 1.22811 
2 1 27.3091 17.398 2.46718 
6 1 28.1111 17.398 1.23127 
10 1 29.5071 17.398 1.23478 
14 1 26.4301 16.1734 2.46554 
22 1 25.2133 13.6096 2.46454 
25 1 24.7273 12.2551 2.46432 
30 1 26.0771 15.5901 1.22887 
38 1 25.4655 14.2779 1.22811 
46 1 30.2436 17.398 2.47181 
50 1 31.6698 17.398 2.47525 
54 1 32.3952 17.3981 1.2392 
ITEM: TIMESTEP
110
ITEM: NUMBER OF ATOMS
58
ITEM: BOX BOUNDS pp pp pp
0.0000000000000000e+00 3.2808000000000000e+01
0.0000000000000000e+00 1.7780000000000001e+01
0.0000000000000000e+00 2.4729999999999999e+00
ITEM: ATOMS id type x y z 
13 1 6.92504 0.87668 0.00343057 
29 1 7.25688 1.47235 1.24012 
37 1 7.91253 2.76446 1.24051 
1 1 6.10147 17.3947 0.0025188 
5 1 5.29606 17.3963 1.23917 
9 1 3.89756 17.3984 1.24007 
16 1 6.91964 16.1283 0.00256835 
32 1 7.24863 15.5309 1.23923 
40 1 7.90311 14.2388 1.24019 
45 1 3.16053 17.3985 0.00364445 
49 1 1.73563 17.3982 0.00391174 
53 1 1.00901 17.3983 1.24021 
57 2 8.82023 17.3824 1.06389 
4 1 10.9381 8.50284 2.47221 
8 1 11.7408 8.50297 1.23542 
12 1 13.1376 8.50543 1.23358 
18 1 10.0788 7.26493 2.47287 
21 1 8.21231 3.41172 0.00388503 
26 1 8.79727 4.72849 2.47473 
34 1 9.73277 6.67735 1.23651 
42 1 9.08967 5.379 1.23795 
48 1 13.8758 8.50681 2.46972 
52 1 15.3018 8.50854 2.46712 
56 1 16.0277 8.5088 1.23029 
19 1 10.0803 9.74293 2.47281 
24 1 8.20519 13.592 0.00361601 
27 1 8.79588 12.2783 2.47456 
35 1 9.73447 10.3307 1.23644 
43 1 9.09035 11.6282 1.2378 
58 3 9.41945 17.3938 1.82614 
3 1 22.5437 8.508 2.4643 
7 1 21.7432 8.50795 1.2278 
11 1 20.3468 8.50787 1.22789 
20 1 23.4346 7.29101 2.46435 
36 1 23.8067 6.71987 1.22787 
44 1 24.4612 5.42844 1.22819 
47 1 19.6099 8.50797 2.46444 
51 1 18.1835 8.5084 2.46499 
55 1 17.4574 8.50863 1.22866 
17 1 23.4346 9.72499 2.46435 
33 1 23.8067 10.2961 1.22787 
41 1 24.4612 11.5875 1.22819 
15 1 26.4213 0.842644 2.46741 
23 1 25.2108 3.40947 2.46563 
28 1 24.7269 4.76487 2.46478 
31 1 26.0686 1.42646 1.23073 
39 1 25.4606 2.74082 1.2293 
2 1 27.3006 17.398 2.46862 
6 1 28.1021 17.398 1.23246 
10 1 29.4986 17.398 1.2342 
14 1 26.4212 16.1733 2.46741 
22 1 25.2108 13.6065 2.46563 
25 1 24.7269 12.2511 2.46478 
30 1 26.0686 15.5895 1.23073 
38 1 25.4606 14.2752 1.2293 
46 1 30.2353 17.398 2.47103 
50 1 31.661 17.398 2.47355 
54 1 32.3869 17.3982 1.23746 
ITEM: TIMESTEP
111
ITEM: NUMBER OF ATOMS
58
ITEM: BOX BOUNDS pp pp pp
0.0000000000000000e+00 3.2808000000000000e+01
0.0000000000000000e+00 1.7780000000000001e+01
0.0000000000000000e+00 2.4729999999999999e+00
ITEM: ATOMS id type x y z 
13 1 6.92505 0.876687 0.00343058 
29 1 7.25688 1.47234 1.24012 
37 1 7.91253 2.76447 1.24051 
1 1 6.10146 17.3947 0.00252558 
5 1 5.29607 17.3963 1.23917 
9 1 3.89756 17.3984 1.24007 
16 1 6.91964 16.1283 0.00256968 
32 1 7.24862 15.5309 1.23923 
40 1 7.90311 14.2388 1.24019 
45 1 3.16053 17.3985 0.00364453 
49 1 1.73563 17.3982 0.00391017 
53 1 1.009 17.3983 1.24021 
57 2 8.82029 17.3824 1.06391 
4 1 10.9381 8.50283 2.47221 
8 1 11.7408 8.50297 1.23542 
12 1 13.1376 8.50543 1.23358 
18 1 10.0788 7.26493 2.47287 
21 1 8.2123 3.41172 0.00388382 
26 1 8.79727 4.72849 2.47473 
34 1 9.73276 6.67734 1.23651 
42 1 9.08967 5.379 1.23795 
48 1 13.8758 8.50681 2.46972 
52 1 15.3018 8.50854 2.46712 
56 1 16.0277 8.5088 1.23029 
19 1 10.0803 9.74292 2.47281 
24 1 8.20518 13.592 0.00361433 
27 1 8.79588 12.2783 2.47456 
35 1 9.73447 10.3307 1.23644 
43 1 9.09035 11.6282 1.2378 
58 3 9.41948 17.3938 1.82613 
3 1 22.5437 8.508 2.4643 
7 1 21.7432 8.50795 1.2278 
11 1 20.3468 8.50787 1.22789 
20 1 23.4346 7.29101 2.46435 
36 1 23.8067 6.71987 1.22787 
44 1 24.4612 5.42845 1.22819 
47 1 19.61 8.50797 2.46444 
51 1 18.1835 8.5084 2.46499 
55 1 17.4574 8.50863 1.22866 
17 1 23.4346 9.72499 2.46435 
33 1 23.8067 10.2961 1.22787 
41 1 24.4612 11.5875 1.22819 
15 1 26.4213 0.84264 2.46741 
23 1 25.2108 3.40947 2.46563 
28 1 24.7269 4.76486 2.46478 
31 1 26.0686 1.42645 1.23073 
39 1 25.4606 2.74083 1.2293 
2 1 27.3007 17.398 2.46862 
6 1 28.1021 17.398 1.23246 
10 1 29.4986 17.398 1.2342 
14 1 26.4212 16.1734 2.46741 
22 1 25.2108 13.6065 2.46563 
25 1 24.7269 12.2511 2.46478 
30 1 26.0686 15.5895 1.23073 
38 1 25.4606 14.2752 1.2293 
46 1 30.2353 17.398 2.47103 
50 1 31.661 17.398 2.47355 
54 1 32.3869 17.3982 1.23746 
ITEM: TIMESTEP
120
ITEM: NUMBER OF ATOMS
58
ITEM: BOX BOUNDS pp pp pp
0.0000000000000000e+00 3.2808000000000000e+01
0.0000000000000000e+00 1.7780000000000001e+01
0.0000000000000000e+00 2.4729999999999999e+00
ITEM: ATOMS id type x y z 
13 1 6.9257 0.876169 0.00333164 
29 1 7.25739 1.47206 1.23997 
37 1 7.9128 2.76481 1.24014 
1 1 6.10115 17.395 0.00276499 
5 1 5.29588 17.3963 1.23935 
9 1 3.89743 17.3983 1.23997 
16 1 6.91992 16.1286 0.00266291 
32 1 7.2493 15.5313 1.23927 
40 1 7.90325 14.2393 1.23977 
45 1 3.16006 17.3985 0.00350758 
49 1 1.73524 17.3983 0.00346535 
53 1 1.00867 17.3983 1.23978 
4 1 10.9366 8.50252 2.47211 
8 1 11.7404 8.50303 1.2353 
12 1 13.1379 8.50546 1.23348 
18 1 10.0779 7.26494 2.47297 
21 1 8.21199 3.41161 0.00352391 
26 1 8.79657 4.72844 0.00180931 
34 1 9.73194 6.67761 1.23663 
42 1 9.0888 5.37887 1.23807 
48 1 13.8751 8.50677 2.46964 
52 1 15.3005 8.5085 2.46726 
56 1 16.027 8.50881 1.23045 
19 1 10.0794 9.74282 2.4729 
24 1 8.20491 13.5921 0.00319566 
27 1 8.795 12.2782 0.00163414 
35 1 9.73368 10.3304 1.23655 
43 1 9.08962 11.6277 1.23791 
58 3 9.42733 17.394 1.8258 
57 2 8.83136 17.3823 1.06456 
3 1 22.5432 8.50799 2.46433 
7 1 21.7426 8.50795 1.22783 
11 1 20.3464 8.50788 1.22796 
20 1 23.4339 7.29088 2.46439 
36 1 23.806 6.71956 1.22792 
44 1 24.4604 5.42871 1.22827 
47 1 19.6096 8.50798 2.46452 
51 1 18.1827 8.50841 2.46516 
55 1 17.4567 8.50865 1.22883 
17 1 23.4339 9.72512 2.46439 
33 1 23.806 10.2964 1.22792 
41 1 24.4604 11.5873 1.22827 
15 1 26.4213 0.842738 2.46738 
23 1 25.2109 3.40938 2.46571 
28 1 24.7264 4.76488 2.46486 
31 1 26.0687 1.42671 1.2307 
39 1 25.4607 2.74127 1.22937 
2 1 27.3006 17.398 2.46856 
6 1 28.102 17.398 1.23241 
10 1 29.4987 17.398 1.23429 
14 1 26.4213 16.1733 2.46738 
22 1 25.2109 13.6066 2.46571 
25 1 24.7264 12.2511 2.46486 
30 1 26.0687 15.5893 1.2307 
38 1 25.4607 14.2747 1.22937 
46 1 30.2351 17.398 2.47113 
50 1 31.6611 17.398 0.000584495 
54 1 32.3868 17.3982 1.23746 
ITEM: TIMESTEP
125
ITEM: NUMBER OF ATOMS
58
ITEM: BOX BOUNDS pp pp pp
0.0000000000000000e+00 3.2808000000000000e+01
0.0000000000000000e+00 1.7780000000000001e+01
0.0000000000000000e+00 2.4729999999999999e+00
ITEM: ATOMS id type x y z 
13 1 6.92573 0.876176 0.00333001 
29 1 7.25739 1.47205 1.23996 
37 1 7.91278 2.76475 1.24013 
1 1 6.10133 17.3949 0.00276743 
5 1 5.29585 17.3963 1.23936 
9 1 3.8973 17.3983 1.23997 
16 1 6.91993 16.1286 0.00266388 
32 1 7.24925 15.5314 1.23927 
40 1 7.90326 14.2393 1.23976 
45 1 3.16004 17.3985 0.00350534 
49 1 1.73519 17.3983 0.00345897 
53 1 1.00868 17.3983 1.23977 
4 1 10.9367 8.50263 2.47211 
8 1 11.7404 8.50304 1.2353 
12 1 13.1377 8.50546 1.23348 
18 1 10.0779 7.26496 2.47297 
21 1 8.21199 3.41161 0.00351894 
26 1 8.79657 4.72847 0.00180993 
34 1 9.73186 6.67751 1.23663 
42 1 9.08879 5.37888 1.23807 
48 1 13.8751 8.50677 2.46964 
52 1 15.3005 8.5085 2.46726 
56 1 16.027 8.50881 1.23045 
19 1 10.0794 9.74281 2.4729 
24 1 8.20493 13.5921 0.00318992 
27 1 8.79498 12.2782 0.0016348 
35 1 9.73367 10.3304 1.23655 
43 1 9.08958 11.6278 1.23792 
58 3 9.42747 17.394 1.82581 
57 2 8.83153 17.3823 1.06455 
3 1 22.5432 8.50799 2.46433 
7 1 21.7426 8.50795 1.22783 
11 1 20.3462 8.50788 1.22796 
20 1 23.4339 7.29087 2.46439 
36 1 23.8061 6.71952 1.22792 
44 1 24.4604 5.42863 1.22828 
47 1 19.6096 8.50798 2.46452 
51 1 18.1828 8.50841 2.46516 
55 1 17.4568 8.50865 1.22883 
17 1 23.4339 9.72513 2.46439 
33 1 23.806 10.2965 1.22792 
41 1 24.4604 11.5874 1.22828 
15 1 26.4213 0.842734 2.46738 
23 1 25.2108 3.4095 2.46571 
28 1 24.7264 4.76496 2.46486 
31 1 26.0688 1.42661 1.2307 
39 1 25.4607 2.74121 1.22937 
2 1 27.3005 17.398 2.46856 
6 1 28.102 17.398 1.23241 
10 1 29.4986 17.398 1.23429 
14 1 26.4213 16.1733 2.46738 
22 1 25.2108 13.6065 2.46571 
25 1 24.7264 12.251 2.46486 
30 1 26.0688 15.5894 1.2307 
38 1 25.4607 14.2748 1.22937 
46 1 30.2351 17.398 2.47113 
50 1 31.6612 17.398 0.000584636 
54 1 32.3869 17.3982 1.23745 
ITEM: TIMESTEP
130
ITEM: NUMBER OF ATOMS
58
ITEM: BOX BOUNDS pp pp pp
-5.3820258933029216e-03 3.2813382025893304e+01
-1.3423869481768158e-03 1.7781342386948175e+01
-1.2416212409965669e-04 2.4731241621240994e+00
ITEM: ATOMS id type x y z 
13 1 6.92261 0.874971 0.00320553 
29 1 7.2544 1.47093 1.23996 
37 1 7.90998 2.7638 1.24013 
1 1 6.09793 17.3961 0.0026448 
5 1 5.29222 17.3975 1.23936 
9 1 3.89317 17.3996 1.23997 
16 1 6.91679 16.1297 0.00254036 
32 1 7.24623 15.5325 1.23927 
40 1 7.90049 14.2401 1.23976 
45 1 3.15568 17.3998 0.00338078 
49 1 1.73036 17.3996 0.00333236 
53 1 1.00362 17.3995 1.23977 
4 1 10.9351 8.50264 2.47223 
8 1 11.7388 8.50299 1.2353 
12 1 13.1366 8.5054 1.23348 
18 1 10.0759 7.26472 2.47309 
21 1 8.20929 3.41077 0.00339288 
26 1 8.79408 4.72787 0.00168618 
34 1 9.72965 6.67713 1.23663 
42 1 9.08638 5.37834 1.23807 
48 1 13.8743 8.50671 2.46976 
52 1 15.3001 8.50844 2.46738 
56 1 16.0269 8.50875 1.23045 