LAMMPS (3 Mar 2020)
# Alpha
clear
units		real
dimension 3
boundary        p p p
atom_style	charge
newton on
read_data       O_23.lmp
  orthogonal box = (0 0 0) to (11 11.002 11)
  2 by 2 by 2 MPI processor grid
  reading atoms ...
  49 atoms
  read_data CPU = 0.0142879 secs

timestep 0.25

# ---------- Define Interatomic Potential ---------------------
pair_style      reax/c NULL checkqeq no
pair_coeff      * * ffield.reax C O
fix             2 all qeq/reax 1 0.0 10.0 1.0e-6 reax/c

#------------ Equilibration of the system -------------------------
reset_timestep 0

dump 1 all custom 10 min.lammpstrj id type x y z

minimize 1.0e-8 1.0e-8 100000 100000
WARNING: Using 'neigh_modify every 1 delay 0 check yes' setting during minimization (../min.cpp:190)
WARNING: Total cutoff < 2*bond cutoff. May need to use an increased neighbor list skin. (../pair_reaxc.cpp:413)
Neighbor list info ...
  update every 1 steps, delay 0 steps, check yes
  max neighbors/atom: 2000, page size: 100000
  master list distance cutoff = 9.5
  ghost atom cutoff = 9.5
  binsize = 4.75, bins = 3 3 3
  2 neighbor lists, perpetual/occasional/extra = 2 0 0
  (1) pair reax/c, perpetual
      attributes: half, newton off, ghost
      pair build: half/bin/newtoff/ghost
      stencil: half/ghost/bin/3d/newtoff
      bin: standard
  (2) fix qeq/reax, perpetual, copy from (1)
      attributes: half, newton off, ghost
      pair build: copy
      stencil: none
      bin: none
Per MPI rank memory allocation (min/avg/max) = 18.82 | 18.91 | 19.17 Mbytes
Step Temp E_pair E_mol TotEng Press 
       0            0     -8671.74            0     -8671.74    11148.688 
      18            0   -8726.5792            0   -8726.5792   -27486.731 
Loop time of 0.291882 on 8 procs for 18 steps with 49 atoms

99.3% CPU use with 8 MPI tasks x no OpenMP threads

Minimization stats:
  Stopping criterion = energy tolerance
  Energy initial, next-to-last, final = 
        -8671.73996079     -8726.57916716     -8726.57922202
  Force two-norm initial, final = 812.706 915.653
  Force max component initial, final = 492.767 395.905
  Final line search alpha, max atom move = 3.15731e-05 0.0125
  Iterations, force evaluations = 18 104

MPI task timing breakdown:
Section |  min time  |  avg time  |  max time  |%varavg| %total
---------------------------------------------------------------
Pair    | 0.22245    | 0.22559    | 0.22856    |   0.4 | 77.29
Neigh   | 0          | 0          | 0          |   0.0 |  0.00
Comm    | 0.0020781  | 0.0050511  | 0.0081762  |   2.7 |  1.73
Output  | 2.2762e-05 | 2.9336e-05 | 4.6817e-05 |   0.0 |  0.01
Modify  | 0.06046    | 0.060489   | 0.060506   |   0.0 | 20.72
Other   |            | 0.0007265  |            |       |  0.25

Nlocal:    6.125 ave 7 max 6 min
Histogram: 7 0 0 0 0 0 0 0 0 1
Nghost:    603.75 ave 618 max 599 min
Histogram: 4 0 0 3 0 0 0 0 0 1
Neighs:    773.25 ave 878 max 754 min
Histogram: 7 0 0 0 0 0 0 0 0 1

Total # of neighbors = 6186
Ave neighs/atom = 126.245
Neighbor list builds = 0
Dangerous builds = 0

###
min_style cg
minimize 1.0e-8 1.0e-8 100000 100000
WARNING: Using 'neigh_modify every 1 delay 0 check yes' setting during minimization (../min.cpp:190)
WARNING: Total cutoff < 2*bond cutoff. May need to use an increased neighbor list skin. (../pair_reaxc.cpp:413)
Per MPI rank memory allocation (min/avg/max) = 18.82 | 18.91 | 19.17 Mbytes
Step Temp E_pair E_mol TotEng Press 
      18            0   -8726.5792            0   -8726.5792   -27486.731 
      19            0   -8726.5792            0   -8726.5792   -27486.706 
Loop time of 0.0190982 on 8 procs for 1 steps with 49 atoms

99.3% CPU use with 8 MPI tasks x no OpenMP threads

Minimization stats:
  Stopping criterion = energy tolerance
  Energy initial, next-to-last, final = 
        -8726.57922202     -8726.57922202     -8726.57924356
  Force two-norm initial, final = 915.653 915.651
  Force max component initial, final = 395.905 395.905
  Final line search alpha, max atom move = 3.15732e-05 0.0125
  Iterations, force evaluations = 1 6

MPI task timing breakdown:
Section |  min time  |  avg time  |  max time  |%varavg| %total
---------------------------------------------------------------
Pair    | 0.014515   | 0.01472    | 0.014891   |   0.1 | 77.08
Neigh   | 0          | 0          | 0          |   0.0 |  0.00
Comm    | 0.00016174 | 0.00033064 | 0.00053408 |   0.0 |  1.73
Output  | 0          | 0          | 0          |   0.0 |  0.00
Modify  | 0.0039397  | 0.003941   | 0.0039423  |   0.0 | 20.64
Other   |            | 0.0001063  |            |       |  0.56

Nlocal:    6.125 ave 7 max 6 min
Histogram: 7 0 0 0 0 0 0 0 0 1
Nghost:    603.75 ave 618 max 599 min
Histogram: 4 0 0 3 0 0 0 0 0 1
Neighs:    777 ave 894 max 754 min
Histogram: 6 1 0 0 0 0 0 0 0 1

Total # of neighbors = 6216
Ave neighs/atom = 126.857
Neighbor list builds = 0
Dangerous builds = 0

###
fix 1 all box/relax aniso 0.0
min_style cg
minimize 1.0e-8 1.0e-8 100000 100000
WARNING: Using 'neigh_modify every 1 delay 0 check yes' setting during minimization (../min.cpp:190)
WARNING: Total cutoff < 2*bond cutoff. May need to use an increased neighbor list skin. (../pair_reaxc.cpp:413)
Per MPI rank memory allocation (min/avg/max) = 18.82 | 18.91 | 19.17 Mbytes
Step Temp E_pair E_mol TotEng Press Volume 
      19            0   -8726.5792            0   -8726.5792   -27486.706     1331.242 
     566            0   -8773.7995            0   -8773.7995    1326.8343    1341.8194 
Loop time of 1.78709 on 8 procs for 547 steps with 49 atoms

99.4% CPU use with 8 MPI tasks x no OpenMP threads

Minimization stats:
  Stopping criterion = energy tolerance
  Energy initial, next-to-last, final = 
        -8726.57924356     -8773.79948335     -8773.79951322
  Force two-norm initial, final = 1305.89 60.1421
  Force max component initial, final = 609.366 26.162
  Final line search alpha, max atom move = 6.50995e-07 1.70313e-05
  Iterations, force evaluations = 547 731

MPI task timing breakdown:
Section |  min time  |  avg time  |  max time  |%varavg| %total
---------------------------------------------------------------
Pair    | 1.4937     | 1.5127     | 1.5316     |   0.9 | 84.65
Neigh   | 0          | 0          | 0          |   0.0 |  0.00
Comm    | 0.014306   | 0.033078   | 0.052085   |   6.2 |  1.85
Output  | 0.00089842 | 0.001233   | 0.0022305  |   1.1 |  0.07
Modify  | 0.22577    | 0.22583    | 0.2259     |   0.0 | 12.64
Other   |            | 0.01421    |            |       |  0.80

Nlocal:    6.125 ave 7 max 6 min
Histogram: 7 0 0 0 0 0 0 0 0 1
Nghost:    603.75 ave 618 max 599 min
Histogram: 4 0 0 3 0 0 0 0 0 1
Neighs:    777 ave 894 max 754 min
Histogram: 6 1 0 0 0 0 0 0 0 1

Total # of neighbors = 6216
Ave neighs/atom = 126.857
Neighbor list builds = 0
Dangerous builds = 0

unfix 1
###
min_style cg
minimize 1.0e-8 1.0e-8 100000 100000
WARNING: Using 'neigh_modify every 1 delay 0 check yes' setting during minimization (../min.cpp:190)
WARNING: Total cutoff < 2*bond cutoff. May need to use an increased neighbor list skin. (../pair_reaxc.cpp:413)
Per MPI rank memory allocation (min/avg/max) = 18.82 | 18.91 | 19.17 Mbytes
Step Temp E_pair E_mol TotEng Press 
     566            0   -8773.7995            0   -8773.7995    1326.8343 
     577            0   -8773.8113            0   -8773.8113    216.40693 
Loop time of 0.415019 on 8 procs for 11 steps with 49 atoms

99.4% CPU use with 8 MPI tasks x no OpenMP threads

Minimization stats:
  Stopping criterion = energy tolerance
  Energy initial, next-to-last, final = 
        -8773.79951323     -8773.81122238     -8773.81129725
  Force two-norm initial, final = 40.063 48.1499
  Force max component initial, final = 8.44358 17.6073
  Final line search alpha, max atom move = 3.04e-07 5.35262e-06
  Iterations, force evaluations = 11 165

MPI task timing breakdown:
Section |  min time  |  avg time  |  max time  |%varavg| %total
---------------------------------------------------------------
Pair    | 0.34       | 0.34202    | 0.34491    |   0.3 | 82.41
Neigh   | 0          | 0          | 0          |   0.0 |  0.00
Comm    | 0.0030431  | 0.0059716  | 0.0080235  |   2.3 |  1.44
Output  | 1.9837e-05 | 2.816e-05  | 6.1165e-05 |   0.0 |  0.01
Modify  | 0.066063   | 0.066083   | 0.066113   |   0.0 | 15.92
Other   |            | 0.0009138  |            |       |  0.22

Nlocal:    6.125 ave 7 max 6 min
Histogram: 7 0 0 0 0 0 0 0 0 1
Nghost:    598.125 ave 603 max 595 min
Histogram: 3 0 0 0 0 3 1 0 0 1
Neighs:    777.25 ave 896 max 754 min
Histogram: 6 1 0 0 0 0 0 0 0 1

Total # of neighbors = 6218
Ave neighs/atom = 126.898
Neighbor list builds = 0
Dangerous builds = 0

###
fix 1 all box/relax aniso 0.0
min_style cg
minimize 1.0e-8 1.0e-8 100000 100000
WARNING: Using 'neigh_modify every 1 delay 0 check yes' setting during minimization (../min.cpp:190)
WARNING: Total cutoff < 2*bond cutoff. May need to use an increased neighbor list skin. (../pair_reaxc.cpp:413)
Per MPI rank memory allocation (min/avg/max) = 18.82 | 18.91 | 19.17 Mbytes
Step Temp E_pair E_mol TotEng Press Volume 
     577            0   -8773.8113            0   -8773.8113    216.40693    1341.8194 
     585            0   -8773.8131            0   -8773.8131     21.42114    1341.8274 
Loop time of 0.207875 on 8 procs for 8 steps with 49 atoms

99.4% CPU use with 8 MPI tasks x no OpenMP threads

Minimization stats:
  Stopping criterion = energy tolerance
  Energy initial, next-to-last, final = 
        -8773.81129725     -8773.81302526     -8773.81306085
  Force two-norm initial, final = 48.7055 71.0785
  Force max component initial, final = 17.6073 36.7079
  Final line search alpha, max atom move = 2.05695e-07 7.55062e-06
  Iterations, force evaluations = 8 86

MPI task timing breakdown:
Section |  min time  |  avg time  |  max time  |%varavg| %total
---------------------------------------------------------------
Pair    | 0.17659    | 0.17773    | 0.17932    |   0.2 | 85.50
Neigh   | 0          | 0          | 0          |   0.0 |  0.00
Comm    | 0.0015365  | 0.0031449  | 0.0042879  |   1.8 |  1.51
Output  | 1.9446e-05 | 2.657e-05  | 5.6385e-05 |   0.0 |  0.01
Modify  | 0.02565    | 0.025657   | 0.025664   |   0.0 | 12.34
Other   |            | 0.00132    |            |       |  0.64

Nlocal:    6.125 ave 7 max 6 min
Histogram: 7 0 0 0 0 0 0 0 0 1
Nghost:    598.125 ave 603 max 595 min
Histogram: 3 0 0 0 0 3 1 0 0 1
Neighs:    777.25 ave 896 max 754 min
Histogram: 6 1 0 0 0 0 0 0 0 1

Total # of neighbors = 6218
Ave neighs/atom = 126.898
Neighbor list builds = 0
Dangerous builds = 0

unfix 1
###
min_style cg
minimize 1.0e-8 1.0e-8 100000 100000
WARNING: Using 'neigh_modify every 1 delay 0 check yes' setting during minimization (../min.cpp:190)
WARNING: Total cutoff < 2*bond cutoff. May need to use an increased neighbor list skin. (../pair_reaxc.cpp:413)
Per MPI rank memory allocation (min/avg/max) = 18.82 | 18.91 | 19.17 Mbytes
Step Temp E_pair E_mol TotEng Press 
     585            0   -8773.8131            0   -8773.8131     21.42114 
     588            0   -8773.8135            0   -8773.8135    26.564237 
Loop time of 0.138687 on 8 procs for 3 steps with 49 atoms

99.4% CPU use with 8 MPI tasks x no OpenMP threads

Minimization stats:
  Stopping criterion = energy tolerance
  Energy initial, next-to-last, final = 
        -8773.81306086     -8773.81340257     -8773.81345282
  Force two-norm initial, final = 71.0747 36.0682
  Force max component initial, final = 36.7079 7.76338
  Final line search alpha, max atom move = 3.56751e-08 2.76959e-07
  Iterations, force evaluations = 3 56

MPI task timing breakdown:
Section |  min time  |  avg time  |  max time  |%varavg| %total
---------------------------------------------------------------
Pair    | 0.11407    | 0.11496    | 0.11616    |   0.2 | 82.89
Neigh   | 0          | 0          | 0          |   0.0 |  0.00
Comm    | 0.0019182  | 0.0031294  | 0.0040254  |   1.2 |  2.26
Output  | 0          | 0          | 0          |   0.0 |  0.00
Modify  | 0.020195   | 0.020203   | 0.020211   |   0.0 | 14.57
Other   |            | 0.0003956  |            |       |  0.29

Nlocal:    6.125 ave 7 max 6 min
Histogram: 7 0 0 0 0 0 0 0 0 1
Nghost:    598.125 ave 603 max 595 min
Histogram: 3 0 0 0 0 3 1 0 0 1
Neighs:    777.25 ave 896 max 754 min
Histogram: 6 1 0 0 0 0 0 0 0 1

Total # of neighbors = 6218
Ave neighs/atom = 126.898
Neighbor list builds = 0
Dangerous builds = 0

undump 1
#############
#----------- Thermo ------------
reset_timestep 0
thermo  200

thermo_style    custom step temp etotal ke pe press
velocity all create 300 12345 mom yes rot yes
fix 1 all npt temp 300 300 25.0 iso 0.0 0.0 250.0

variable vpe equal pe
variable vtemp equal temp
variable vstep equal step

fix output all print 2500 "${vstep} ${vtemp} ${vpe}" file temp-tpdh-Pt.dat screen no

dump 1 all custom 2500 thermo-tpdh-Pt.lammpstrj id type x y z

run 1000000
WARNING: Total cutoff < 2*bond cutoff. May need to use an increased neighbor list skin. (../pair_reaxc.cpp:413)
Per MPI rank memory allocation (min/avg/max) = 17.7 | 17.78 | 18.04 Mbytes
Step Temp TotEng KinEng PotEng Press 
       0          300   -8730.8898    42.923665   -8773.8135    1488.8525 
     200    390.14425   -8722.0728    55.821403   -8777.8942   -6834.1152 
     400    299.90431   -8751.4884    42.909974   -8794.3984    32818.613 
     600    295.01731   -8755.9899    42.210746   -8798.2007   -13619.248 
     800    317.08624   -8744.4222    45.368345   -8789.7906   -47344.849 
    1000    266.73787   -8763.0087    38.164556   -8801.1733   -2942.5345 
    1200    234.05613   -8751.9323    33.488489   -8785.4207    24428.715 
    1400    314.56994   -8748.9875    45.008316   -8793.9958   -616.49339 
    1600     287.8184   -8759.8079    41.180735   -8800.9886   -17265.805 
    1800    266.32471   -8766.8818    38.105442   -8804.9873    -26518.12 
    2000    300.84626   -8750.9542    43.044747   -8793.9989    14029.859 
    2200     304.0817   -8756.1355     43.50767   -8799.6432   -27642.659 
    2400     336.7242   -8754.7614    48.178122   -8802.9395   -31113.698 
    2600    305.68755   -8738.6624    43.737432   -8782.3998    2247.3293 
    2800    276.19547   -8757.9204    39.517739   -8797.4381   -21249.293 
    3000    353.01754   -8747.7967    50.509355    -8798.306   -5471.9945 
    3200     311.3931   -8753.8129    44.553777   -8798.3667   -15384.496 
    3400    257.73311   -8760.6354    36.876165   -8797.5116    12551.667 
    3600    336.42185   -8742.0719    48.134863   -8790.2068     15240.27 
    3800    269.97458   -8756.9306    38.627662   -8795.5582    -20544.87 
    4000    327.63053   -8750.0755     46.87701   -8796.9525   -46819.244 
    4200    331.76498     -8735.87    47.468563   -8783.3385   -26811.748 
    4400     310.2758    -8749.229    44.393915   -8793.6229    9742.3998 
    4600    306.38158   -8756.2525    43.836734   -8800.0893    2591.5818 
    4800    258.20127    -8751.862    36.943149   -8788.8052   -11445.779 
    5000    287.01342   -8756.4454     41.06556   -8797.5109    3292.0273 
    5200     224.3188   -8770.6647    32.095284   -8802.7599   -13294.509 
    5400    323.22118   -8750.5727    46.246125   -8796.8188    16026.681 
    5600    309.77231   -8741.5077    44.321876   -8785.8295   -909.83039 
    5800    295.87307   -8751.4421    42.333188   -8793.7753    7280.1917 
    6000    248.37492   -8760.7032    35.537206   -8796.2404   -5822.5823 
    6200    327.09285   -8753.2664     46.80008   -8800.0665    6527.1406 
    6400    298.93951   -8752.4822    42.771931   -8795.2541    3786.4723 
    6600    330.79186   -8734.1303     47.32933   -8781.4597   -1015.9614 
    6800    355.32028   -8748.7766    50.838829   -8799.6155   -10684.755 
    7000     316.2271   -8747.5625     45.24542   -8792.8079   -25222.682 
    7200    272.58248   -8757.1929    39.000796   -8796.1937   -9541.8174 
    7400    256.83336   -8758.2718     36.74743   -8795.0193    -6068.856 
    7600    360.17545   -8745.2067    51.533501   -8796.7402   -23918.254 
    7800    382.83758    -8730.518    54.775973   -8785.2939    14751.147 
    8000    297.37913   -8744.7184    42.548673   -8787.2671   -29064.684 
    8200    270.88806   -8758.1537    38.758361   -8796.9121   -24005.729 
    8400    378.26841   -8742.7234    54.122222   -8796.8456    672.07563 
    8600     282.9785   -8751.0678    40.488248   -8791.5561   -34948.355 
    8800    280.54286   -8759.8276    40.139759   -8799.9673   -11001.964 
    9000    321.58425   -8740.0717    46.011915   -8786.0837   -21069.527 
    9200    287.78103    -8744.483    41.175388   -8785.6584    58042.061 
    9400    291.21805   -8752.9065    41.667153   -8794.5737    12624.368 
    9600    301.11847   -8739.6704    43.083695   -8782.7541   -7686.4635 
    9800     296.4127   -8750.1491    42.410398   -8792.5595    9467.3218 
   10000    283.33009   -8759.0167    40.538553   -8799.5552   -30099.195 
   10200    326.32201   -8743.8013    46.689789   -8790.4911    9998.8717 
   10400    268.77311   -8747.3769    38.455756   -8785.8327    10548.955 
   10600    296.40669   -8747.7047    42.409538   -8790.1142   -55493.427 
   10800    324.30313   -8732.8888     46.40093   -8779.2897    43995.713 
   11000    264.72647   -8752.8298    37.876768   -8790.7066    10622.147 
   11200    292.91008   -8760.2249    41.909247   -8802.1342    22741.752 
   11400    339.23981   -8742.9924    48.538054   -8791.5304   -14355.507 
   11600    323.41425   -8745.9125     46.27375   -8792.1863    24254.664 
   11800    257.14809   -8763.3256    36.792461    -8800.118   -20380.786 
   12000    310.77059    -8753.362    44.464709   -8797.8267    648.74287 
   12200    281.83206   -8754.8914    40.324216   -8795.2157   -40358.464 
   12400    274.40647   -8753.2697    39.261771   -8792.5314   -10812.614 
   12600     245.9736   -8747.8715    35.193628   -8783.0652    21744.333 
   12800    318.60571   -8745.0914    45.585749   -8790.6771   -3332.1232 
   13000      258.861   -8761.9796    37.037543   -8799.0171   -18518.764 
   13200    332.79559   -8751.1495    47.616021   -8798.7656    15331.839 
   13400    323.08577   -8739.0978    46.226751   -8785.3246   -54394.436 
   13600    299.55327    -8750.181    42.859746   -8793.0407   -32948.414 
   13800    319.78038   -8755.0741    45.753819   -8800.8279    9298.6928 
   14000     379.7031   -8734.9404    54.327495   -8789.2679     3024.202 
   14200    343.86311   -8747.4423     49.19955   -8796.6418   -26850.794 
   14400    270.55673   -8759.0344    38.710954   -8797.7453      56874.9 
   14600    312.46472   -8749.6645    44.707102   -8794.3716    -14157.54 
   14800    311.35932   -8749.6624    44.548944   -8794.2114   -7846.7141 
   15000     250.4571   -8765.7834    35.835122   -8801.6185    566.15619 
   15200    251.44131   -8755.4898    35.975942   -8791.4657    2404.6681 
   15400    261.17737   -8750.2249    37.368966   -8787.5938   -3016.8822 
   15600     233.9711   -8759.8703    33.476324   -8793.3466   -7637.9996 
   15800    337.94746   -8747.8981    48.353145   -8796.2513    3139.2318 
   16000    222.33276   -8757.1369    31.811122   -8788.9481   -21991.682 
   16200    330.57744   -8759.3092     47.29865   -8806.6078    13745.954 
   16400    338.96482   -8739.8184    48.498708   -8788.3172    15402.177 
   16600    277.56229   -8750.7289    39.713302   -8790.4422   -38840.273 
   16800     290.4118   -8757.5096    41.551796   -8799.0614    33363.664 
   17000    281.39315   -8749.5419    40.261418   -8789.8033   -7504.5276 
   17200    243.85542   -8749.8832    34.890561   -8784.7737    7203.0612 
   17400    285.44016   -8750.4785    40.840459    -8791.319   -37290.534 
   17600    332.06862   -8752.1564    47.512007   -8799.6684   -22246.424 
   17800    245.58323    -8763.469    35.137774   -8798.6068   -8045.6898 
   18000    317.47467   -8749.3015    45.423921   -8794.7254    -36230.64 
   18200    258.70161   -8754.4426    37.014738   -8791.4573   -13077.086 
   18400    339.88178   -8739.0088    48.629905   -8787.6388    4559.3193 
   18600    318.58119   -8753.5638    45.582241   -8799.1461   -23363.329 
   18800    268.19471   -8758.5154    38.372999   -8796.8884    13091.014 
   19000    324.46157   -8750.6264    46.423599     -8797.05    8261.6433 
   19200    306.80344    -8748.512    43.897093   -8792.4091   -10596.936 
   19400    296.44439   -8754.6875    42.414932   -8797.1024   -11185.759 
   19600    345.03831   -8738.4475    49.367695   -8787.8152   -43451.134 
   19800    329.73679   -8751.0377    47.178371   -8798.2161    38319.421 
   20000    254.45209   -8754.3573    36.406721    -8790.764   -5847.6982 
   20200    270.85258   -8753.2212    38.753285   -8791.9745    -23344.23 
   20400    269.82708   -8745.7074    38.606557    -8784.314    36031.724 
   20600    326.47488   -8735.3507    46.711661   -8782.0624   -40078.932 
   20800    338.74788   -8756.0988    48.467669   -8804.5665    24314.587 
   21000    279.61044   -8752.5937     40.00635   -8792.6001   -1073.5107 
   21200    294.60539   -8748.8852     42.15181    -8791.037    11753.238 
   21400    254.28873   -8749.8913    36.383347   -8786.2746    905.61651 
   21600    290.45129   -8754.6613    41.557446   -8796.2187   -25643.902 
   21800    333.34893   -8749.7572    47.695193   -8797.4524    28845.052 
   22000    332.29172   -8749.7371    47.543928    -8797.281   -36488.524 
   22200    313.11845    -8756.708    44.800638   -8801.5086   -45487.989 
   22400    270.38744   -8749.9978    38.686733   -8788.6846    8656.4182 
   22600    260.27225    -8764.462    37.239462   -8801.7015    8109.6963 
   22800    333.36073   -8753.3291     47.69688    -8801.026   -30373.483 
   23000    304.88963   -8748.5626    43.623268   -8792.1859   -30812.338 
   23200    294.22997   -8763.8031    42.098095   -8805.9012    5596.9158 
   23400    288.17276   -8763.2278    41.231437   -8804.4593   -1353.5093 
   23600    294.94793   -8748.8315     42.20082   -8791.0324   -12445.399 
   23800    320.45476   -8751.0831    45.850309   -8796.9334    1296.1247 
   24000    261.24196   -8763.2136    37.378208   -8800.5918    18124.818 
   24200    270.74517   -8747.0826    38.737916   -8785.8205   -17283.559 
   24400    322.10676   -8754.0036    46.086675   -8800.0902   -10759.237 
   24600     323.2506   -8751.7232    46.250335   -8797.9735     3898.338 
   24800    322.01247   -8741.4708    46.073184    -8787.544   -39210.111 
   25000    324.89524   -8746.2165    46.485647   -8792.7022    14130.251 
   25200    216.22448   -8766.4567    30.937157   -8797.3938   -8054.9025 
   25400    318.74614   -8751.6496    45.605842   -8797.2555   -12456.974 
   25600    298.41746   -8750.5639    42.697236   -8793.2611     17251.75 
   25800    284.55476   -8751.4723    40.713777    -8792.186    40080.408 
   26000    299.64774   -8740.9009    42.873264   -8783.7742   -12829.997 
   26200    285.85856   -8755.3552    40.900324   -8796.2555     29447.27 
   26400    296.27934    -8761.391    42.391317   -8803.7823    17720.338 
   26600    266.55431   -8762.5227    38.138292    -8800.661   -43974.015 
   26800    335.89407   -8745.6614    48.059349   -8793.7207    37393.173 
   27000    237.22991   -8756.9019    33.942591   -8790.8445    28535.918 
   27200    354.72461   -8745.7885      50.7536   -8796.5421      15761.6 
   27400     300.1238   -8747.3227    42.941379   -8790.2641   -11668.414 
   27600    317.04353   -8757.3298    45.362233    -8802.692   -6056.8221 
   27800    318.21687   -8754.3919    45.530114    -8799.922    14373.813 
   28000    307.30638   -8752.2108    43.969054   -8796.1799    17620.866 
   28200    248.49244    -8756.435     35.55402    -8791.989   -37973.501 
   28400    375.50705   -8745.5817    53.727129   -8799.3089    15083.343 
   28600    312.57032   -8753.7621    44.722212   -8798.4843   -28247.651 
   28800    284.33325    -8759.232    40.682084   -8799.9141   -17090.215 
   29000    298.99393   -8753.0348    42.779717   -8795.8145   -9097.3066 
   29200    300.20662     -8752.65    42.953227   -8795.6032    14810.211 
   29400     285.8162   -8757.4287    40.894263    -8798.323   -25330.081 
   29600    344.96016   -8745.9107    49.356514   -8795.2672    35889.278 
   29800    269.75605   -8757.4187    38.596395   -8796.0151    20247.689 
   30000    267.41421   -8764.5133    38.261326   -8802.7746   -4853.7422 
   30200    283.76706   -8748.4894    40.601074   -8789.0904   -5615.0286 
   30400    359.29896   -8748.0664    51.408093   -8799.4745    13227.424 
   30600    240.06387   -8762.1284     34.34807   -8796.4764   -8338.7328 
   30800    319.96885   -8752.8427    45.780785   -8798.6235    31718.034 
   31000    333.86735   -8749.1192    47.769368   -8796.8886     11887.36 
   31200    353.80284   -8738.9991    50.621715   -8789.6208   -11353.569 
   31400    281.34216   -8752.5152    40.254122   -8792.7694   -18645.923 
   31600    297.66603   -8746.6887    42.589723   -8789.2784    1691.7035 
   31800    343.32947   -8745.6274    49.123197   -8794.7506    11421.483 
   32000    267.67457   -8759.1991    38.298579   -8797.4977    22393.624 
   32200    286.68031   -8748.3507    41.017898   -8789.3686     6245.246 
   32400    298.78652   -8741.5362    42.750042   -8784.2862   -19240.188 
   32600    262.01428   -8752.7296     37.48871   -8790.2183    13977.223 
   32800    270.32152   -8754.1003    38.677301   -8792.7776   -25146.157 
   33000    270.29747   -8762.1601    38.673859    -8800.834    7106.1459 
   33200    324.84649   -8743.6475    46.478673   -8790.1262    7883.0129 
   33400    279.37223   -8754.4027    39.972266    -8794.375   -35772.069 
   33600    272.92571   -8758.4659    39.049906   -8797.5158    32862.362 
   33800    326.16401   -8743.2835    46.667183   -8789.9507   -6253.0991 
   34000     277.1172   -8757.2915     39.64962   -8796.9411    14072.896 
   34200    311.58909   -8749.8367    44.581819   -8794.4185   -8490.8925 
   34400    284.76151   -8753.1608    40.743359   -8793.9042    9626.5706 
   34600    346.14025   -8745.2125    49.525361   -8794.7379   -27437.498 
   34800    266.49863   -8752.3133    38.130326   -8790.4436   -19247.417 
   35000    277.72492   -8761.2404    39.736571    -8800.977   -8167.7784 
   35200    265.17905   -8754.0209    37.941521   -8791.9624   -26534.353 
   35400    327.98923   -8744.7052    46.928332   -8791.6335   -27585.602 
   35600    288.19661   -8757.0835    41.234849   -8798.3184    65397.242 
   35800    358.54724     -8736.76    51.300538   -8788.0605    15493.156 
   36000    303.32409   -8746.1104    43.399272   -8789.5096   -13314.823 
   36200    266.04431   -8756.9285    38.065323   -8794.9939   -1670.0447 
   36400    321.53483   -8744.9572    46.004845   -8790.9621   -9471.6983 
   36600    315.38562   -8748.9611    45.125023   -8794.0862   -16221.332 
   36800    268.10887   -8754.9921    38.360718   -8793.3528   -312.48527 
   37000    379.60115   -8740.5658    54.312908   -8794.8787   -16406.581 
   37200    305.48235     -8749.04    43.708073    -8792.748   -3051.5278 
   37400    326.18553   -8752.8986    46.670261   -8799.5689     10317.75 
   37600    366.18585   -8734.3348    52.393462   -8786.7282   -4283.9421 
   37800     308.1906   -8753.0858    44.095567   -8797.1814   -21384.936 
   38000    341.02889   -8751.5861    48.794033   -8800.3801    31212.663 
   38200    320.09065   -8752.4646    45.798212   -8798.2628   -31780.247 
   38400    284.43836   -8758.4019    40.697123    -8799.099    17332.404 
   38600     318.5982   -8743.7523    45.584674    -8789.337    23630.639 
   38800    301.48823   -8754.6442    43.136598   -8797.7808    5804.2865 
   39000    284.53913   -8753.3897     40.71154   -8794.1012   -47604.326 
   39200    355.06721   -8735.3085    50.802619   -8786.1111   -25956.303 
   39400    259.96418   -8752.3766    37.195384    -8789.572     27986.58 
   39600    285.98482   -8753.2689    40.918389   -8794.1873   -26497.191 
   39800    288.54171   -8736.7117    41.284225   -8777.9959   -14152.256 
   40000    341.35098   -8750.1343    48.840117   -8798.9744    29410.217 
   40200    250.39912   -8753.0046    35.826826   -8788.8315    13556.908 
   40400    300.45075   -8740.9577    42.988157   -8783.9459    9685.0978 
   40600    248.22647   -8760.9949    35.515966   -8796.5109   -27921.101 
   40800    295.27389   -8753.1071    42.247459   -8795.3546   -8403.9437 
   41000    307.40611   -8746.7531    43.983322   -8790.7364   -38879.875 
   41200    253.11529   -8763.3428    36.215453   -8799.5583    3364.9784 
   41400    282.70865   -8752.3173    40.449638   -8792.7669   -18642.722 
   41600    301.12443   -8747.4547    43.084547   -8790.5392    13945.196 
   41800    272.60725   -8761.5974    39.004341   -8800.6018   -29739.775 
   42000    313.52603   -8756.1875    44.858955   -8801.0465    -14769.69 
   42200    289.05081   -8752.2504    41.357067   -8793.6075   -76.080499 
   42400     261.1377   -8755.6488    37.363291   -8793.0121    25058.401 
   42600    367.55924   -8739.7828    52.589966   -8792.3728    23063.778 
   42800    267.60092   -8758.8045    38.288041   -8797.0925   -13456.257 
   43000    311.62391   -8751.0475      44.5868   -8795.6343   -18894.303 
   43200    300.09858   -8745.0203    42.937769    -8787.958   -19317.997 
   43400    333.64797   -8739.5504    47.737979   -8787.2884   -9599.5095 
   43600    284.73334   -8756.5065    40.739328   -8797.2458    1210.9427 
   43800    349.12882   -8748.7538    49.952962   -8798.7067    9923.6369 
   44000    332.48176   -8741.9868    47.571118   -8789.5579    18935.199 
   44200    286.74032   -8752.1521    41.026485   -8793.1786   -35376.323 
   44400    278.04746   -8760.6613     39.78272    -8800.444   -31980.719 
   44600    278.56587    -8746.787    39.856894   -8786.6439    20127.477 
   44800    310.19771   -8749.0477    44.382742   -8793.4304    7763.7175 
   45000    304.06553   -8763.6624    43.505356   -8807.1678    -17052.51 
   45200    298.07716   -8755.4659    42.648547   -8798.1145   -1887.0341 
   45400    330.19701   -8747.2906    47.244219   -8794.5348   -25323.752 
   45600     240.0399   -8760.6126    34.344641   -8794.9573    5474.1692 
   45800    318.93914   -8756.4667    45.633456   -8802.1002   -15180.251 
   46000    275.98396   -8746.5128    39.487477   -8786.0003    18924.281 
   46200    297.45484   -8755.9803    42.559506   -8798.5399   -40733.638 
   46400     250.7685   -8769.8689    35.879677   -8805.7486    -2529.643 
   46600    256.63213   -8757.3608    36.718639   -8794.0794   -931.09591 
   46800    320.48494   -8752.5422    45.854627   -8798.3968     -2287.06 
   47000    260.85298   -8767.4436    37.322552   -8804.7661    1544.5059 
   47200    246.28754   -8752.6113    35.238546   -8787.8498   -5523.1769 
   47400    347.39845   -8746.1463    49.705382   -8795.8517   -678.79104 
   47600    292.09777   -8759.3952    41.793023   -8801.1882   -1938.9369 
   47800    328.39207   -8741.6996     46.98597   -8788.6856    35131.268 
   48000    312.84934   -8745.0871    44.762134   -8789.8492   -26408.713 
   48200    255.16668   -8760.4597    36.508963   -8796.9686   -19620.943 
   48400    314.68105   -8750.5742    45.024213   -8795.5984    18079.926 
   48600    287.33055   -8746.0267    41.110934   -8787.1376    25474.143 
   48800    344.53621   -8738.9096    49.295856   -8788.2054   -3962.2409 
   49000    308.29093    -8747.011    44.109922   -8791.1209    19889.588 
   49200     264.7009   -8759.6061    37.873108   -8797.4792    28098.299 
   49400     337.1118   -8746.0188    48.233579   -8794.2524    -36035.98 
   49600    283.33709   -8753.3525    40.539554   -8793.8921   -34175.687 
   49800    271.45312     -8764.17    38.839209   -8803.0092   -10036.957 
   50000    264.53568   -8766.3437    37.849469   -8804.1931      37852.7 
   50200    274.82902   -8754.6378     39.32223     -8793.96    33622.427 
   50400    372.12704   -8747.0948    53.243521   -8800.3384   -29.317958 
   50600    264.19086   -8764.0533    37.800133   -8801.8535    44812.992 
   50800    317.41697   -8751.4553    45.415666   -8796.8709    6363.5315 
   51000      290.999    -8751.477    41.635811   -8793.1128     14288.82 
   51200    304.43542   -8752.5224     43.55828   -8796.0807    43191.669 
   51400    329.48892   -8745.3001    47.142907    -8792.443    6572.9129 
   51600    246.33542   -8757.8856    35.245396    -8793.131    3376.2811 
   51800    256.46703   -8757.3549    36.695017   -8794.0499   -4563.4521 
   52000      338.321   -8743.3679    48.406591   -8791.7745    23237.901 
   52200    272.04269   -8761.0426    38.923564   -8799.9662   -6444.3243 
   52400    302.43183   -8754.8452    43.271608   -8798.1168   -11880.198 
   52600    330.17573   -8752.3662    47.241174   -8799.6074    49064.687 
   52800    368.50635   -8739.7245    52.725477     -8792.45    14265.026 
   53000    280.26854   -8756.2003     40.10051   -8796.3008    43045.943 
   53200    286.49317   -8750.4573    40.991123   -8791.4484    -28470.25 
   53400    264.11408   -8759.7197    37.789147   -8797.5088    12037.413 
   53600    260.25629   -8753.0294    37.237179   -8790.2666    19705.982 
   53800    317.46778   -8741.6335    45.422935   -8787.0564   -24758.459 
   54000    268.21037   -8750.9652     38.37524   -8789.3404   -5773.8018 
   54200    215.68416   -8765.8419    30.859849   -8796.7018   -38001.421 
   54400    360.52022   -8750.2854     51.58283   -8801.8682    2506.2395 
   54600    335.95779   -8744.7261    48.068465   -8792.7946   -17230.735 
   54800    298.19989   -8757.4078    42.666107   -8800.0739   -6586.6851 
   55000    282.41789   -8747.4055    40.408037   -8787.8136    44027.395 
   55200    353.02301   -8740.7974    50.510138   -8791.3076     10111.24 
   55400    283.91202   -8753.5605    40.621814   -8794.1823   -45137.986 
   55600    282.78912   -8760.3553    40.461151   -8800.8164   -17409.793 
   55800    335.20812   -8752.1581    47.961203   -8800.1193   -6568.9235 
   56000    308.56096   -8741.6201    44.148557   -8785.7686    24802.316 
   56200    280.64373   -8754.8457    40.154192   -8794.9998    16203.701 
   56400    270.74562   -8752.6505     38.73798   -8791.3885     20280.83 
   56600    313.62101    -8744.747    44.872544   -8789.6196    7774.4372 
   56800    242.71691   -8764.4734    34.727665    -8799.201   -10526.116 
   57000     323.6711   -8749.3784    46.310499   -8795.6889    34703.912 
   57200     332.1669   -8749.7242    47.526068   -8797.2503    7252.9892 
   57400    259.12942   -8764.6317    37.075948   -8801.7076    10510.487 
   57600    252.69744   -8754.7026    36.155667   -8790.8583    8530.0802 
   57800    342.38407   -8737.5734     48.98793   -8786.5613    383.31132 
   58000    305.50671   -8742.7229    43.711559   -8786.4345   -4137.4618 
   58200    261.98099   -8756.1793    37.483948   -8793.6632   -11720.701 
   58400    305.15524   -8751.1547     43.66127    -8794.816   -25629.498 
   58600     295.8782   -8746.3661    42.333923      -8788.7   -26324.472 
   58800    283.46159   -8759.4194    40.557367   -8799.9768    2849.8523 
   59000    295.38354   -8753.8545    42.263147   -8796.1177    13474.934 
   59200    359.73382   -8738.6937    51.470313    -8790.164    -42497.54 
   59400    314.37799   -8750.7087    44.980851   -8795.6896    34784.665 
   59600    311.13694   -8760.1648    44.517126   -8804.6819    56273.248 
   59800    366.71361   -8742.5646    52.468973   -8795.0336   -24974.074 
   60000    276.62143   -8758.8544    39.578684   -8798.4331    2383.8117 
   60200    280.46761    -8755.933    40.128992    -8796.062    21217.762 
   60400    265.22011   -8747.4558    37.947396   -8785.4032    10540.567 
   60600    255.37363   -8764.0051    36.538574   -8800.5436   -11619.562 
   60800    268.26047   -8748.4658    38.382409   -8786.8482   -7295.7027 
   61000     285.9564   -8746.5241    40.914322   -8787.4384   -20647.875 
   61200    253.62006   -8760.8254    36.287675   -8797.1131    15871.906 
   61400    284.80318   -8746.3857    40.749321    -8787.135   -22258.013 
   61600     305.8592   -8746.0129    43.761992   -8789.7749     1021.042 
   61800    297.89768   -8750.0342    42.622868    -8792.657    -36399.79 
   62000    250.71015   -8760.6096    35.871328   -8796.4809    4540.2122 
   62200    320.48479   -8743.4154    45.854605     -8789.27     -8919.68 
   62400    283.49271    -8747.682     40.56182   -8788.2438   -4395.5468 
   62600    299.46398   -8758.2184    42.846972   -8801.0653   -23182.271 
   62800    332.85394   -8736.4828    47.624369   -8784.1072   -11799.984 
   63000     333.9198   -8750.4453    47.776872   -8798.2221    23601.838 
   63200    294.89221   -8757.1764    42.192849   -8799.3693    5817.3458 
   63400    294.72296   -8740.9265    42.168632   -8783.0952   -9259.4304 
   63600    276.00954   -8755.2372    39.491136   -8794.7283   -21511.759 
   63800    290.20655   -8757.3839    41.522428   -8798.9063   -4308.3394 
   64000    292.65972   -8747.2607    41.873426   -8789.1341   -3594.2982 
   64200     242.3604    -8766.118    34.676655   -8800.7946   -15060.538 
   64400    260.12027    -8755.643    37.217718   -8792.8607   -2135.8598 
   64600    354.34275   -8748.4596    50.698964   -8799.1586   -28985.835 
   64800    275.60288   -8757.6135    39.432952   -8797.0464   -26510.637 
   65000    219.51875   -8770.4398    31.408497   -8801.8483    6250.6389 
   65200    287.14163   -8755.8583    41.083904   -8796.9422   -11179.389 
   65400    300.14366   -8746.1396     42.94422   -8789.0838    2136.9819 
   65600    264.74733    -8760.892    37.879752   -8798.7718    16045.127 
   65800    291.79693    -8757.931    41.749979    -8799.681   -4405.4265 
   66000    281.43417   -8751.4731    40.267287   -8791.7404   -46159.281 
   66200    323.20008   -8753.1569    46.243106      -8799.4    28002.115 
   66400    279.15357   -8764.5472    39.940981   -8804.4882    2427.3102 
   66600    289.02451   -8747.3388    41.353303   -8788.6921    2199.1689 
   66800    332.48535   -8749.3722    47.571632   -8796.9439    20581.373 
   67000    252.79573   -8756.1705    36.169731   -8792.3403    86258.031 
   67200    318.95569   -8753.6772    45.635824    -8799.313   -10913.411 
   67400    326.35869   -8750.0928    46.695037   -8796.7879    -26121.95 
   67600    337.56274   -8751.5233      48.2981   -8799.8214   -2591.8978 
   67800    253.45928   -8755.1382     36.26467   -8791.4029    12665.806 
   68000    296.80265    -8738.004    42.466191   -8780.4701    12433.046 
   68200    320.24391   -8750.0251    45.820141   -8795.8453    4497.4031 
   68400    333.68487   -8756.0534    47.743259   -8803.7967     -12082.2 
   68600    359.65774   -8740.3855    51.459428   -8791.8449   -19948.444 
   68800    301.51978   -8749.1961    43.141114   -8792.3372   -23449.259 
   69000     284.5161   -8754.3899    40.708245   -8795.0982   -19874.689 
   69200      341.465   -8739.9561    48.856431   -8788.8125   -877.58246 
   69400    282.82989   -8740.1492    40.466985   -8780.6162   -28482.214 
   69600    255.87187   -8757.8734    36.609862   -8794.4832    7054.7106 
   69800    287.80202   -8745.9515    41.178392   -8787.1299    27262.501 
   70000    311.70744    -8748.383    44.598752   -8792.9817    5671.2991 
   70200    251.26654   -8760.4447    35.950936   -8796.3957    5009.4074 
   70400    314.84692   -8745.0469    45.047946   -8790.0949   -23109.996 
   70600    314.77297   -8749.1311    45.037365   -8794.1685   -6493.1965 
   70800    254.12333   -8752.9108    36.359683   -8789.2705    21324.948 
   71000    289.94455   -8753.7471    41.484942    -8795.232    62398.563 
   71200    318.07853   -8759.0035    45.510321   -8804.5138    -3610.396 
   71400     290.3125   -8750.2212    41.537588   -8791.7588   -15109.126 
   71600    310.91194   -8744.4716    44.484932   -8788.9565   -14197.989 
   71800    227.67653   -8761.6038    32.575704   -8794.1795   -42257.353 
   72000    289.75423   -8748.8624    41.457712   -8790.3201   -1345.3827 
   72200    342.92285   -8748.9402    49.065018   -8798.0052    21546.223 
   72400    319.98139   -8755.2428     45.78258   -8801.0253     12664.53 
   72600     290.8388   -8754.8456     41.61289   -8796.4585    4523.6516 
   72800    345.85865   -8740.5874     49.48507   -8790.0724    11157.559 
   73000    287.59803   -8749.6243    41.149205   -8790.7735    9286.3829 
   73200    305.14819   -8749.9575    43.660262   -8793.6178    27170.965 
   73400    290.54107   -8750.2894    41.570291   -8791.8597     13467.18 
   73600    265.76988   -8764.5679    38.026058   -8802.5939    13945.397 
   73800    284.52757   -8751.0738    40.709887   -8791.7837    6688.8273 
   74000    300.74981   -8750.5155    43.030946   -8793.5464   -11163.176 
   74200     271.3776   -8766.6193    38.828404   -8805.4477    15179.784 
   74400    298.14089   -8755.7854    42.657666   -8798.4431   -38452.741 
   74600     279.0903    -8750.447    39.931929   -8790.3789   -2549.8052 
   74800    270.01435   -8757.1094    38.633351   -8795.7427   -6755.8992 
   75000    269.27876   -8764.2796    38.528104   -8802.8077    43392.165 
   75200    274.40474    -8747.243    39.261523   -8786.5045   -25418.839 
   75400    282.90871   -8754.5997    40.478262    -8795.078   -36272.247 
   75600    277.04626   -8760.2129    39.639469   -8799.8524   -2857.1418 
   75800    345.66521   -8745.9938    49.457392   -8795.4512   -3479.3146 
   76000      257.919   -8762.4526    36.902763   -8799.3554    17813.607 
   76200     272.8154   -8760.6939    39.034122    -8799.728   -21883.141 
   76400    324.43007   -8748.1577    46.419092   -8794.5768   -5138.9764 
   76600    330.55658   -8741.0205    47.295666   -8788.3162    10309.761 
   76800    285.85207   -8749.1521    40.899395   -8790.0515    34141.479 
   77000    241.69766   -8757.1997    34.581832   -8791.7815    62666.159 
   77200    330.42972   -8741.0891    47.277515   -8788.3666    24262.594 
   77400    354.13077   -8746.7569    50.668635   -8797.4255      4103.86 
   77600    247.74296   -8758.0182    35.446786    -8793.465    6609.5735 
   77800    319.02409   -8747.6094     45.64561    -8793.255   -1822.8765 
   78000     315.6422   -8741.2183    45.161733   -8786.3801     28660.12 
   78200     251.2371   -8759.3386    35.946723   -8795.2854    5026.2399 
   78400    328.03741   -8746.7865    46.935226   -8793.7217   -1375.4723 
   78600    218.53105    -8759.986    31.267179   -8791.2531    -13831.45 
   78800    277.75376   -8762.7332    39.740697   -8802.4739   -21711.608 
   79000    291.94875    -8748.716    41.771701   -8790.4877    14882.638 
   79200    311.43337   -8747.1112    44.559538   -8791.6707    39325.907 
   79400    341.76586   -8749.4075    48.899478   -8798.3069    28385.314 
   79600    296.29936    -8749.296    42.394181   -8791.6902    11768.411 
   79800    328.31169   -8743.0046    46.974469   -8789.9791   -8136.9135 
   80000    251.64905   -8758.4988    36.005664   -8794.5045    13205.715 
   80200    263.79049   -8745.7826    37.742849   -8783.5254   -10466.832 
   80400    316.17323   -8744.7733    45.237713    -8790.011   -8531.3136 
   80600    304.61724   -8750.6387    43.584295    -8794.223   -9076.9439 
   80800    278.81132   -8759.6998    39.892012   -8799.5918    43354.655 
   81000    318.75388   -8745.3366     45.60695   -8790.9436   -26567.887 
   81200    312.53961   -8748.6001    44.717818    -8793.318    20284.583 
   81400    251.90568    -8763.812    36.042383   -8799.8544   -7780.4055 
   81600     289.1459   -8752.4704    41.370672    -8793.841    23521.732 
   81800    308.57498   -8749.3916    44.150563   -8793.5421   -8304.6273 
   82000    296.33306   -8746.2468    42.399002   -8788.6458   -265.81659 
   82200    262.20487    -8754.339     37.51598    -8791.855   -23541.086 
   82400    271.77873   -8757.5051    38.885797   -8796.3909     -7028.43 
   82600     286.0412   -8741.6582    40.926455   -8782.5847   -9824.8099 
   82800     257.7198   -8758.6574    36.874261   -8795.5317   -5269.0843 
   83000    314.13257   -8750.7089    44.945737   -8795.6547    25735.074 
   83200     325.7164   -8747.1231    46.603138   -8793.7262   -28379.323 
   83400    265.70522   -8762.6974    38.016807   -8800.7143   -9997.0809 
   83600     302.5512   -8749.2775    43.288688   -8792.5662   -9477.0862 
   83800    309.88683   -8748.6536    44.338262   -8792.9919      12626.2 
   84000    299.80048   -8752.7813    42.895118   -8795.6765    -3874.825 
   84200    286.23111   -8755.5007    40.953627   -8796.4543    -56282.26 
   84400    326.14289   -8749.9132    46.664161   -8796.5774    21221.126 
   84600    327.41108   -8748.4513    46.845611   -8795.2969   -2300.2453 
   84800    297.75343   -8760.3866    42.602229   -8802.9888    13475.239 
   85000    341.77548   -8752.0724    48.900854   -8800.9733    -7439.702 
   85200    343.72749   -8748.2295    49.180145   -8797.4096   -16668.417 
   85400    273.45153   -8758.4168    39.125139   -8797.5419   -15397.911 
   85600     326.7823   -8751.6015    46.755646   -8798.3571   -2876.5716 
   85800     277.9536   -8745.9945     39.76929   -8785.7638   -21312.178 
   86000    357.97169   -8736.8514    51.218189   -8788.0696   -9714.6437 
   86200    272.68299   -8752.6511    39.015178   -8791.6663   -5883.8276 
   86400    244.82531   -8753.8922    35.029332   -8788.9215    53238.654 
   86600    317.39648   -8738.0593    45.412734    -8783.472    -10652.05 
   86800    269.91073   -8755.3448    38.618526   -8793.9633    17839.988 
   87000    268.94111   -8754.0677    38.479794   -8792.5475   -11756.683 
   87200    284.51177   -8750.4073    40.707626   -8791.1149   -2609.0598 
   87400    267.83415   -8762.8942    38.321412   -8801.2156   -1605.5808 
   87600     289.3463   -8753.6369    41.399346   -8795.0362   -9470.3357 
   87800     325.7538   -8741.4066    46.608489   -8788.0151     9305.773 
   88000    267.73106   -8760.8929    38.306661   -8799.1996    -24956.31 
   88200    301.43327   -8756.6069    43.128735   -8799.7357    21507.656 
   88400    332.29249   -8746.2633    47.544039   -8793.8074   -5021.7561 
   88600     250.3908   -8762.7264    35.825635    -8798.552   -10501.123 
   88800    287.17602   -8753.5774    41.088824   -8794.6663   -4850.6606 
   89000    334.81143   -8749.1385    47.904446    -8797.043    2271.3154 
   89200    252.40662   -8763.3178    36.114058   -8799.4319   -7342.7903 
   89400    296.50279   -8756.7517    42.423287   -8799.1749    -14523.93 
   89600     311.9149   -8749.8553    44.628436   -8794.4837    27846.634 
   89800    337.66258    -8744.472    48.312384   -8792.7844    3275.8309 
   90000    325.92812   -8751.5173    46.633432   -8798.1507    25980.765 
   90200     280.8163   -8760.3966    40.178882   -8800.5755     1362.137 
   90400    341.08636   -8743.7526    48.802255   -8792.5548    -13282.44 
   90600    299.55295   -8751.1116    42.859701   -8793.9713   -7495.2751 
   90800    231.65536   -8763.0039     33.14499   -8796.1489   -1149.8434 
   91000    352.97625   -8743.4023    50.503447   -8793.9057    4094.5199 
   91200    267.44242   -8755.6817    38.265362    -8793.947   -21701.498 
   91400    286.57408   -8762.0561      41.0027   -8803.0588   -16200.816 
   91600    315.27122   -8753.5051    45.108654   -8798.6137    9998.8742 
   91800    309.53222   -8746.4484    44.287524    -8790.736    37689.293 
   92000    237.52767   -8760.3963    33.985193   -8794.3815    22335.158 
   92200    284.92193   -8754.0082    40.766311   -8794.7745   -3066.5762 
   92400    336.75453    -8747.867    48.182462   -8796.0495   -2232.3022 
   92600    290.46825   -8757.7547    41.559872   -8799.3145    26161.074 
   92800    326.86844   -8736.5244    46.767972   -8783.2923   -6441.7833 
   93000     289.5009   -8749.6759    41.421465   -8791.0974    37894.455 
   93200     324.7242   -8749.7287    46.461175   -8796.1899    16627.095 
   93400    345.88994   -8745.9024    49.489546   -8795.3919    11946.287 
   93600    312.03554   -8752.4934    44.645697   -8797.1391    41.587846 
   93800    359.43637   -8757.8952    51.427754   -8809.3229   -17943.094 
   94000    319.04023   -8748.8643    45.647919   -8794.5122   -2809.1336 
   94200     338.0274   -8742.4108    48.364583   -8790.7754   -52389.203 
   94400    301.03372   -8761.3703    43.071568   -8804.4419    4608.6685 
   94600    317.05987   -8748.6462    45.364571   -8794.0108    994.60859 
   94800    306.80133   -8747.9742    43.896791    -8791.871   -10275.037 
   95000    255.31547   -8754.3599    36.530253   -8790.8901   -26673.604 
   95200    283.15761   -8748.5098    40.513875   -8789.0236   -27942.158 
   95400    222.57513   -8768.1838    31.845801   -8800.0296    17801.164 
   95600    282.68903    -8753.981    40.446831   -8794.4278    7791.9129 
   95800    288.79415   -8748.7521    41.320344   -8790.0724    12081.205 
   96000    265.55683   -8763.3711    37.995575   -8801.3667   -12025.924 
   96200    305.06414   -8755.8137    43.648236    -8799.462   -13738.307 
   96400      347.419   -8744.8984    49.708323   -8794.6067   -24438.192 
   96600    249.83937   -8760.7465    35.746737   -8796.4933   -27418.934 
   96800     264.1326   -8760.0042    37.791797    -8797.796   -8807.5517 
   97000    294.78692   -8748.1455    42.177784   -8790.3233    39604.448 
   97200    302.96745   -8749.3662    43.348244   -8792.7145    12557.129 
   97400    232.56181    -8770.002    33.274683   -8803.2766   -3506.7734 
   97600    291.51945   -8761.3101    41.710278   -8803.0204    1233.7932 
   97800    291.01178   -8748.9074     41.63764    -8790.545    16902.315 
   98000    279.38929   -8748.7068    39.974707   -8788.6815   -10352.596 
   98200    255.07307   -8762.0224     36.49557   -8798.5179   -35333.198 
   98400    331.53185   -8746.2846    47.435206   -8793.7199    15498.462 
   98600    320.98317   -8745.6136    45.925913   -8791.5395   -16417.988 
   98800    273.30796   -8759.6591    39.104598   -8798.7637   -45831.571 
   99000     255.0216    -8753.624    36.488206   -8790.1122   -40417.116 
   99200    276.09754   -8750.9156    39.503727   -8790.4194    -27958.66 
   99400     272.3949   -8746.6875    38.973958   -8785.6614    36064.243 
   99600    260.96251    -8746.371    37.338224   -8783.7092   -30596.842 
   99800    267.78568   -8760.6542    38.314475   -8798.9686   -38422.617 
  100000    368.62717   -8740.6134    52.742763   -8793.3562   -4640.3845 
  100200    324.88555   -8751.1921    46.484261   -8797.6763   -6397.7285 
  100400    278.38925   -8757.9254    39.831623    -8797.757    20369.202 
  100600    405.33361   -8737.6917    57.994679   -8795.6864    282.21789 
  100800    323.12383   -8750.9638    46.232197    -8797.196    -3354.374 
  101000    319.12983   -8755.7104    45.660739   -8801.3711   -52652.638 
  101200    243.46053   -8753.3818    34.834061   -8788.2159   -12279.978 
  101400     301.1025   -8750.7393    43.081409   -8793.8207      1607.48 
  101600    246.15089   -8765.3268    35.218994   -8800.5458    14764.686 
  101800    306.69236   -8749.2657      43.8812   -8793.1469    15371.051 
  102000    310.58258   -8749.2013    44.437808   -8793.6391    -19374.75 
  102200    256.10476   -8758.2604    36.643184   -8794.9036   -51552.974 
  102400    381.57674   -8735.5884    54.595573    -8790.184    14890.265 
  102600    371.06116   -8751.6273    53.091017   -8804.7184   -26697.162 
  102800    252.74538   -8755.0696    36.162526   -8791.2321   -7828.6629 
  103000    322.69914    -8749.708    46.171433   -8795.8794    41019.849 
  103200    315.28528   -8745.1014    45.110666   -8790.2121    240.44371 
  103400    315.45632   -8749.7422    45.135137   -8794.8773   -6358.6878 
  103600    248.69837   -8762.5666    35.583485     -8798.15    50083.383 
  103800    262.71746   -8754.3536    37.589321   -8791.9429    13158.405 
  104000    350.88819   -8745.2396     50.20469   -8795.4442   -6252.4415 
  104200    276.41695    -8763.285    39.549429   -8802.8344    6719.8664 
  104400    319.08694   -8751.6626    45.654603   -8797.3172    29650.049 
  104600    315.28978    -8748.873    45.111309   -8793.9843    11517.666 
  104800    339.40952   -8747.7209    48.562335   -8796.2832   -13431.617 
  105000    273.74339   -8763.9161    39.166899    -8803.083    10370.445 
  105200    304.93668   -8756.6716    43.629999   -8800.3016   -11572.993 
  105400    272.77839   -8751.5401    39.028827   -8790.5689    28252.852 
  105600    389.86991   -8735.8751    55.782151   -8791.6572   -20562.973 
  105800    279.31301   -8750.9781    39.963794   -8790.9419   -13994.229 
  106000    288.11916   -8753.8115    41.223768   -8795.0353    3447.9786 
  106200     291.1087   -8737.1163    41.651508   -8778.7678   -32615.941 
  106400    283.76148   -8750.7833    40.600275   -8791.3836    9102.9172 
  106600    302.48271   -8757.2407    43.278888   -8800.5196    15786.986 
  106800    363.79622   -8743.6155    52.051557   -8795.6671    7135.2302 
  107000    274.93869   -8749.7678    39.337921   -8789.1057   -34973.642 
  107200    293.60472   -8749.4368    42.008635   -8791.4454    6359.3345 
  107400    315.84862   -8751.0444    45.191268   -8796.2357   -11520.782 
  107600    324.54869   -8740.8478    46.436064   -8787.2839    10954.751 
  107800    259.72845   -8757.7724    37.161657    -8794.934   -19578.577 
  108000    281.39787   -8756.2397    40.262093   -8796.5018    -3294.994 
  108200    279.87872   -8744.7447    40.044735   -8784.7895   -10188.144 
  108400    301.76069   -8755.7145    43.175583   -8798.8901   -14008.943 
  108600    220.85536   -8769.9366    31.599738   -8801.5363   -9.5310042 
  108800    273.14434   -8753.0294    39.081187   -8792.1106    63025.223 
  109000    345.97785   -8745.6325    49.502125   -8795.1346   -2597.1152 
  109200    246.77826   -8762.6567    35.308758   -8797.9654   -14737.437 
  109400     277.7365   -8755.9185    39.738228   -8795.6567   -5398.9581 
  109600    329.26291   -8749.2418    47.110569   -8796.3523    5436.2042 
  109800    322.74938   -8746.1289     46.17862   -8792.3076   -17652.772 
  110000    298.24658   -8753.8409    42.672788   -8796.5137    9139.8565 
  110200    290.92255   -8761.2428    41.624873   -8802.8677    26865.551 
  110400    351.55312   -8744.9982    50.299827    -8795.298   -3697.4498 
  110600    272.04982   -8756.0949    38.924585   -8795.0195    29063.242 
  110800    319.93807   -8753.0818    45.776381   -8798.8582   -16940.633 
  111000    332.15455   -8752.9305    47.524301   -8800.4548     46002.08 
  111200     304.5156    -8747.498    43.569752   -8791.0677    11603.201 
  111400    350.56773   -8742.6001    50.158839   -8792.7589     28571.22 
  111600     300.8895   -8757.8702    43.050933   -8800.9211    10450.792 
  111800    306.87903   -8754.4427    43.907908   -8798.3506    7060.1416 
  112000    272.42455   -8746.9921      38.9782   -8785.9703    16921.558 
  112200    281.45366   -8764.2027    40.270075   -8804.4728   -5670.1455 
  112400    286.42004   -8748.2188    40.980659   -8789.1994   -10472.314 
  112600    318.27433   -8744.5158    45.538336   -8790.0542    8315.5334 
  112800    285.82432   -8761.5474    40.895424   -8802.4428    26524.953 
  113000     326.1425   -8750.2078    46.664105   -8796.8719    26241.655 
  113200    365.00406   -8737.1475    52.224373   -8789.3719    45172.991 
  113400    371.02842   -8745.5967    53.086331   -8798.6831    29370.409 
  113600    297.29681   -8753.9871    42.536895   -8796.5239   -27956.907 
  113800    365.27842    -8739.421    52.263628   -8791.6846    17511.038 
  114000    298.04832   -8751.0701    42.644421   -8793.7146    27714.898 
  114200    253.11855   -8758.5784    36.215919   -8794.7943    20668.606 
  114400    365.15833   -8742.2651    52.246445   -8794.5115   -25162.733 
  114600     265.9821   -8751.9372    38.056422   -8789.9936    1863.9266 
  114800    297.37554   -8757.6964     42.54816   -8800.2446    9230.5669 
  115000     315.8213   -8744.7497    45.187359    -8789.937   -1529.7443 
  115200    318.57267   -8747.0105    45.581022   -8792.5915    12143.605 
  115400    260.23828    -8760.957    37.234603   -8798.1916    40026.769 
  115600    326.38084   -8746.5674    46.698206   -8793.2656   -3281.7062 
  115800    322.19241   -8751.2807     46.09893   -8797.3796   -19852.605 
  116000    257.92173   -8763.7389    36.903153   -8800.6421   -20436.196 
  116200    249.10403   -8746.7938    35.641526   -8782.4354    3987.2083 
  116400    316.24383   -8749.6945    45.247813   -8794.9423    -14485.16 
  116600     270.0124   -8762.7757    38.633073   -8801.4088   -27779.514 
  116800    323.88127   -8751.7692    46.340569   -8798.1097    30985.093 
  117000      276.733   -8750.5254    39.594649     -8790.12    28227.824 
  117200    369.47064   -8743.0244    52.863446   -8795.8878   -5844.0289 
  117400    280.36426   -8756.4323    40.114205   -8796.5465   -7654.5198 
  117600    296.87555   -8747.5996    42.476622   -8790.0762   -23165.785 
  117800    361.08251   -8730.5031    51.663282   -8782.1664     5450.483 
  118000    360.90696   -8746.4025    51.638164   -8798.0406   -37379.921 
  118200    252.40414   -8758.4741    36.113702   -8794.5878   -16673.957 
  118400    322.85121   -8741.6233     46.19319   -8787.8165    1881.5475 
  118600    312.42405   -8745.7807    44.701284    -8790.482    9161.7691 
  118800     257.0152    -8753.924    36.773448   -8790.6975   -10111.252 
  119000     315.8689   -8742.9049     45.19417    -8788.099   -15515.276 
  119200    308.18671   -8739.9583     44.09501   -8784.0533   -21138.431 
  119400     289.5324   -8755.4226    41.425972   -8796.8486   -8548.9107 
  119600    284.56489   -8752.5826    40.715226   -8793.2978    15631.654 
  119800    340.71858   -8739.8592    48.749633   -8788.6089   -25509.542 
  120000    275.01976   -8757.6669    39.349521   -8797.0164    13532.614 
  120200    292.21757   -8755.6269    41.810164    -8797.437   -23430.509 
  120400    363.36062   -8735.8777    51.989232   -8787.8669   -890.79926 
  120600    309.82204   -8754.6541    44.328991   -8798.9831   -24210.386 
  120800    292.52757   -8755.2385    41.854518    -8797.093     11465.54 
  121000    372.90629   -8736.1664    53.355016   -8789.5215    30756.962 
  121200    293.13208   -8746.9384     41.94101   -8788.8794    13279.733 
  121400    300.33807   -8755.6109    42.972036   -8798.5829   -10630.339 
  121600    378.84149   -8736.7584    54.204217   -8790.9626   -13218.961 
  121800     293.2203   -8754.8931    41.953633   -8796.8468    21664.678 
  122000    286.71156    -8756.745     41.02237   -8797.7674   -13492.499 
  122200     321.7827   -8742.3315     46.04031   -8788.3718    27950.445 
  122400    257.45497   -8756.4498    36.836369   -8793.2862   -9802.8909 
  122600    269.91583    -8756.798    38.619256   -8795.4172    -3483.814 
  122800    370.52151   -8738.1825    53.013804   -8791.1963    4962.2775 
  123000    306.12209   -8752.3931    43.799606   -8796.1927    -12264.84 
  123200    240.39992   -8762.6886    34.396152   -8797.0848     59159.36 
  123400    301.06717   -8747.4261    43.076354   -8790.5025   -23405.662 
  123600    272.88961   -8754.6728    39.044741   -8793.7175    718.88861 
  123800    239.91614   -8771.0657    34.326934   -8805.3926    10464.856 
  124000    288.43646   -8759.3977    41.269166   -8800.6668    8852.4232 
  124200    268.77712   -8748.5561     38.45633   -8787.0124   -20339.693 
  124400    300.78613   -8744.0316    43.036143   -8787.0678   -8510.1351 
  124600    287.02977   -8756.0113    41.067899   -8797.0792   -27895.362 
  124800     321.5511   -8750.1583    46.007171   -8796.1655   -3476.3698 
  125000    378.75632   -8736.7443    54.192031   -8790.9363   -3808.0457 
  125200    258.67112   -8756.3274    37.010375   -8793.3378   -21378.152 
  125400     275.7722   -8751.7127    39.457179   -8791.1699    56159.284 
  125600    341.23203   -8738.9784    48.823097   -8787.8015    5430.0191 
  125800    308.28095   -8751.2405    44.108494    -8795.349   -32747.583 
  126000    311.57339   -8757.4474    44.579572   -8802.0269   -41411.996 
  126200    372.94103   -8751.4298    53.359985   -8804.7898    19453.336 
  126400    277.86404   -8743.1387    39.756476   -8782.8952    3343.2398 
  126600    314.72339   -8756.4881     45.03027   -8801.5184   -497.46783 
  126800    281.15531   -8755.6316    40.227387    -8795.859    7051.3691 
  127000     313.4223   -8748.8426    44.844113   -8793.6867    18548.907 
  127200    277.92041    -8760.957    39.764542   -8800.7216    11196.474 
  127400    242.92205   -8763.5062    34.757016   -8798.2632    14058.262 
  127600    287.58558   -8752.5181    41.147423   -8793.6656     -37963.2 
  127800    339.26317   -8739.1581    48.541395   -8787.6995     16556.92 
  128000    273.78638   -8748.5361     39.17305   -8787.7092    3732.0424 
  128200       321.44   -8756.7289    45.991276   -8802.7202    9934.8658 
  128400    297.14971   -8747.5731    42.515848    -8790.089   -16356.681 
  128600    236.43738   -8750.5645    33.829197   -8784.3937   -29976.167 
  128800    290.92613   -8755.8624    41.625385   -8797.4878    1877.5854 
  129000    356.73536     -8745.55    51.041297   -8796.5913   -2114.1631 
  129200     361.2667   -8731.0947    51.689636   -8782.7844    3888.6685 
  129400    318.58576   -8750.3111    45.582894   -8795.8939   -16431.651 
  129600    244.27305   -8759.1467    34.950315    -8794.097    30426.462 
  129800    323.94234   -8741.4431    46.349308   -8787.7924   -38799.555 
  130000     305.9998   -8751.7507    43.782109   -8795.5328   -20827.165 
  130200     324.0793   -8750.3348    46.368904   -8796.7037   -5340.2948 
  130400    306.32616    -8750.697    43.828805   -8794.5258    2399.5681 
  130600    274.63338   -8755.2918    39.294238    -8794.586   -9741.6315 
  130800    288.26451   -8754.8668    41.244563   -8796.1114    23242.404 
  131000    295.48109   -8750.6427    42.277104   -8792.9198    43143.302 
  131200    353.45011    -8739.899    50.571247   -8790.4702    8323.1231 
  131400    284.89245   -8757.2888    40.762093   -8798.0509     63.77646 
  131600    302.34788   -8747.3265    43.259596   -8790.5861   -13321.563 
  131800    271.69029   -8755.7015    38.873142   -8794.5747   -41203.465 
  132000    261.16641   -8761.8768    37.367398   -8799.2442   -5006.2713 
  132200     335.0362    -8748.542    47.936604   -8796.4786   -8268.1442 
  132400    369.68812   -8742.1623    52.894563   -8795.0568    20318.436 
  132600    250.77299   -8754.2387    35.880319    -8790.119   -25694.844 
  132800    280.68597   -8744.9193    40.160235   -8785.0795    18572.798 
  133000    353.75697   -8746.9825    50.615152   -8797.5977   -33385.914 
  133200    308.08066    -8752.985    44.079837   -8797.0648    17313.621 
  133400    375.51649   -8744.2437     53.72848   -8797.9722   -3907.1356 
  133600    279.45528   -8735.7489    39.984149    -8775.733    23791.192 
  133800    311.54209    -8753.621    44.575095   -8798.1961    15234.678 
  134000    249.92897    -8760.222    35.759557   -8795.9816    20428.059 
  134200    354.69153   -8742.6159    50.748867   -8793.3648    22197.342 
  134400    332.87084   -8754.3008    47.626788   -8801.9276   -11717.449 
  134600    288.36196   -8752.9118    41.258507   -8794.1703    13769.324 
  134800    376.83608   -8739.0656    53.917285   -8792.9829   -1034.8537 
  135000    288.66447   -8756.5758    41.301789   -8797.8776    12249.186 
  135200     317.5448   -8746.5902    45.433956   -8792.0242   -32352.836 
  135400    258.25084   -8754.9034    36.950242   -8791.8536    9016.3193 
  135600    256.30734   -8755.9493    36.672168   -8792.6215    14964.582 
  135800    322.02095   -8746.2959    46.074398   -8792.3703    4268.8935 
  136000    231.84897   -8750.4903    33.172692    -8783.663   -11046.048 
  136200    262.63177   -8759.4796     37.57706   -8797.0566   -13712.808 
  136400    274.16407    -8745.726    39.227089   -8784.9531    39091.474 
  136600    295.00136   -8748.6973    42.208465   -8790.9058    23057.711 
  136800    247.61733   -8753.3664     35.42881   -8788.7952   -28517.537 
  137000    323.81597   -8753.0739    46.331227   -8799.4051    17407.676 
  137200    253.86868   -8766.1453    36.323247   -8802.4686    16688.779 
  137400    312.82758   -8751.4967    44.759021   -8796.2558    9340.7827 
  137600    379.54821   -8740.0048    54.305334   -8794.3102     8323.933 
  137800    305.31247   -8746.4739    43.683767   -8790.1577    47549.395 
  138000    271.34582   -8756.4669    38.823856   -8795.2908   -12369.863 
  138200    353.45434   -8743.8003    50.571851   -8794.3722    6053.7809 
  138400    291.82224   -8750.7243      41.7536   -8792.4779    10976.161 
  138600    324.49625   -8752.7986     46.42856   -8799.2272   -38933.336 
  138800    235.43571   -8767.4015    33.685879   -8801.0874    18433.654 
  139000     273.2185   -8756.8737    39.091798   -8795.9655    -10481.29 
  139200    295.13128   -8746.3646    42.227054   -8788.5917    127.37942 
  139400     247.9305   -8755.1996    35.473619   -8790.6732    21738.675 
  139600    305.00524    -8756.364    43.639809   -8800.0038    6383.0989 
  139800    306.20406   -8750.9121    43.811335   -8794.7235    5815.6163 
  140000    341.38517   -8743.4363    48.845008   -8792.2813   -3812.3671 
  140200    259.36306   -8756.4741    37.109377   -8793.5835   -18605.598 
  140400    330.87919    -8742.849    47.341825   -8790.1908   -15168.564 
  140600     362.5827   -8730.6298    51.877928   -8782.5078    27210.421 
  140800    323.65106   -8749.6297    46.307631   -8795.9373   -36679.931 
  141000     256.4846   -8761.2225     36.69753     -8797.92   -10161.037 
  141200    267.51339   -8755.4579    38.275517   -8793.7334    8140.9095 
  141400    307.07576   -8746.6464    43.936057   -8790.5824    1341.8342 
  141600    296.46587   -8757.8811    42.418006   -8800.2991    38515.753 
  141800    270.98025   -8761.4869    38.771551   -8800.2585   -32062.122 
  142000     294.6467   -8744.4202     42.15772    -8786.578   -727.95517 
  142200    279.45467   -8754.9648    39.984062   -8794.9489   -25236.682 
  142400     230.4299   -8766.8766    32.969652   -8799.8463    21754.052 
  142600    268.79971   -8755.5631    38.459562   -8794.0226   -4286.0619 
  142800    317.68345   -8750.4752    45.453792    -8795.929    18552.161 
  143000    271.90943   -8758.4033    38.904498   -8797.3078    28053.639 
  143200    269.90718   -8759.7371    38.618018   -8798.3551   -44371.108 
  143400     303.0409   -8746.5065    43.358754   -8789.8653   -23111.388 
  143600    279.56064   -8751.4917    39.999224   -8791.4909    -5151.912 
  143800    238.39764    -8766.126    34.109669   -8800.2357   -8903.0265 
  144000    303.54335   -8751.2478    43.430643   -8794.6784   -11149.034 
  144200    258.65057   -8751.3695    37.007434   -8788.3769    18307.956 
  144400    269.81254   -8763.4988    38.604476   -8802.1032    -555.1365 
  144600      339.953   -8747.5461    48.640095   -8796.1862    2065.6687 
  144800    309.20435   -8750.8794    44.240612   -8795.1201   -4438.6105 
  145000     258.5993   -8766.0896    37.000099   -8803.0897    27342.516 
  145200    260.99037    -8753.896    37.342211   -8791.2383   -7406.1365 
  145400    272.99216   -8750.6462    39.059414   -8789.7057   -31610.677 
  145600    246.06056   -8758.4146     35.20607   -8793.6207   -23332.734 
  145800    285.46689   -8762.5153    40.844283   -8803.3596    90.941628 
  146000    342.50054   -8747.2606    49.004594   -8796.2651   -26934.132 
  146200    267.54106     -8754.76    38.279475   -8793.0395   -22196.169 
  146400    259.39893    -8767.107    37.114508   -8804.2216   -1423.2859 
  146600    326.96672    -8749.866    46.782032    -8796.648    19593.572 
  146800    255.46535   -8746.2377    36.551696   -8782.7894   -53776.486 
  147000    292.77662    -8761.823    41.890152   -8803.7131    2304.8197 
  147200    282.50917   -8753.7168    40.421096   -8794.1379    10628.037 
  147400    278.92661   -8753.6196    39.908507   -8793.5281    17893.248 
  147600    346.82332   -8746.7506    49.623093   -8796.3737    13288.802 
  147800     244.8243   -8750.0132    35.029187   -8785.0424   -12752.104 
  148000     274.8952   -8757.1626    39.331697   -8796.4942    11033.788 
  148200    355.03943   -8732.2871    50.798645   -8783.0858     41700.64 
  148400    342.30844   -8747.4103    48.977109   -8796.3874   -50066.696 
  148600    252.10564   -8760.9607    36.070993   -8797.0317   -11331.677 
  148800    321.64474   -8741.7924    46.020569    -8787.813    25618.808 
  149000    275.60299   -8747.6197    39.432968   -8787.0526    19230.928 
  149200    253.68332   -8764.0102    36.296727   -8800.3069   -22240.856 
  149400    279.32595   -8759.1106    39.965644   -8799.0762    10986.167 
  149600    225.51012   -8749.7596    32.265736   -8782.0253   -341.77489 
  149800    388.82537   -8738.4879    55.632699   -8794.1206    17615.013 
  150000    302.03899   -8752.8238    43.215401   -8796.0392    31605.536 
  150200    304.85565   -8756.7727    43.618406   -8800.3911   -5853.0878 
  150400    343.30135   -8745.4362    49.119173   -8794.5554    37669.905 
  150600    330.48338   -8751.8003    47.285192   -8799.0854    58589.513 
  150800    335.84772   -8748.3463    48.052716    -8796.399   -10855.759 
  151000    285.67311   -8758.5905     40.87379   -8799.4643    19509.527 
  151200    282.85259   -8749.7607    40.470233    -8790.231    20452.341 
  151400    302.44985   -8749.0084    43.274187   -8792.2826   -16434.622 
  151600    255.84953   -8764.7785    36.606665   -8801.3852    39636.784 
  151800    249.82954   -8761.9948    35.745332   -8797.7402    603.71522 
  152000    352.03534   -8748.5685    50.368823   -8798.9374   -11232.808 
  152200    306.91092   -8748.6921    43.912471   -8792.6046    16363.544 
  152400    261.80004   -8762.1237    37.458056   -8799.5818   -21289.386 
  152600    274.46543   -8747.1001    39.270208   -8786.3703    29089.127 
  152800    261.82792   -8747.4527    37.462047   -8784.9147   -1515.6633 
  153000    276.57267   -8763.9092    39.571709   -8803.4809   -11514.618 
  153200    292.51848   -8752.1286    41.853217   -8793.9818   -15948.503 
  153400    314.94544   -8746.2846    45.062041   -8791.3466    33922.514 
  153600    283.84201   -8756.7366    40.611797   -8797.3484     43935.66 
  153800    274.27021   -8757.1867    39.242275   -8796.4289     4161.769 
  154000    343.99616   -8742.6915    49.218586   -8791.9101   -325.47775 
  154200    293.38568   -8756.4711    41.977295   -8798.4484   -13061.154 
  154400    271.24038   -8758.1878     38.80877   -8796.9966    55538.982 
  154600    271.27653   -8744.1642    38.813943   -8782.9782   -2229.8626 
  154800    353.65498   -8745.7812    50.600559   -8796.3818   -21569.878 
  155000     293.5239   -8754.6871    41.997071   -8796.6842    24423.347 
  155200    359.18687   -8737.4129    51.392056    -8788.805   -10743.407 
  155400     298.2153   -8748.5699    42.668312   -8791.2382    3436.1937 
  155600    318.52506   -8753.1853     45.57421   -8798.7595   -7748.7836 
  155800    373.96441   -8744.0342     53.50641   -8797.5406   -2827.2565 
  156000    259.33956   -8751.2527    37.106014   -8788.3587    2426.0584 
  156200    300.79767   -8760.5867    43.037794   -8803.6245    15054.098 
  156400    288.40525   -8740.2173    41.264701    -8781.482    31187.122 
  156600    311.90069   -8751.3751    44.626402   -8796.0015     9413.588 
  156800    301.86464   -8753.3951    43.190455   -8796.5855    35402.073 
  157000    329.58421   -8736.1318     47.15654   -8783.2883    15622.513 
  157200    265.25614     -8750.79    37.952552   -8788.7425   -10643.466 
  157400    278.98096   -8754.0731    39.916283   -8793.9894   -25902.168 
  157600    360.84827   -8739.9484    51.629767   -8791.5782   -17494.797 
  157800     293.7469   -8751.4644    42.028978   -8793.4934   -19618.951 
  158000    297.01267   -8760.2545     42.49624   -8802.7507    3606.3276 
  158200    324.54373    -8741.096    46.435354   -8787.5313    8808.4949 
  158400    322.48854   -8750.5952      46.1413   -8796.7365   -28568.204 
  158600    305.21023    -8757.467    43.669139   -8801.1361   -19952.751 
  158800     317.8986   -8751.1161    45.484576   -8796.6006    1459.0775 
  159000    289.94046   -8752.5594    41.484357   -8794.0438    33882.042 
  159200    301.87546   -8742.1371    43.192004   -8785.3291   -31013.199 
  159400    283.13292   -8752.0785    40.510342   -8792.5889   -21443.887 
  159600    318.28172   -8750.3657    45.539393   -8795.9051   -15743.473 
  159800    253.30275   -8765.9193    36.242275   -8802.1616   -5824.9538 
  160000    326.77228   -8753.7621    46.754212   -8800.5163    6391.1886 
  160200     344.3522   -8741.3206    49.269528   -8790.5902    4328.9048 
  160400    276.42336   -8758.0289    39.550345   -8797.5792   -26690.805 
  160600    312.24222   -8747.7582    44.675268   -8792.4335    8368.3586 
  160800    298.00498   -8748.1557     42.63822   -8790.7939    10128.428 
  161000    275.37404   -8763.9136    39.400211   -8803.3139    11461.919 
  161200     257.3985   -8755.2117     36.82829   -8792.0399   -13155.069 
  161400    251.36158   -8752.6237    35.964534   -8788.5883    3071.7843 
  161600    250.49187   -8759.3576    35.840097   -8795.1977   -21920.161 
  161800    287.07388   -8744.9951     41.07421   -8786.0693   -18375.134 
  162000    331.68223   -8748.7004    47.456723   -8796.1572    1088.2668 
  162200     240.9145   -8763.6887    34.469777   -8798.1585    21118.599 
  162400    302.75771    -8751.984    43.318234   -8795.3022   -11163.874 
  162600    303.36684   -8750.7523    43.405389   -8794.1577    12798.254 
  162800    388.65074   -8741.2938    55.607714   -8796.9015    23234.787 
  163000    283.88556   -8756.6057    40.618029   -8797.2237    10835.415 
  163200     267.0758   -8758.1625    38.212906   -8796.3754   -39905.163 
  163400    281.56037   -8759.3298    40.285343   -8799.6152   -10118.308 
  163600    276.54847   -8745.0361    39.568246   -8784.6043   -50955.808 
  163800    292.89163   -8755.0053    41.906608   -8796.9119      10901.4 
  164000    272.14684   -8757.0764    38.938465   -8796.0149    4246.3995 
  164200      322.373    -8749.837    46.124768   -8795.9618    14599.343 
  164400    270.61134   -8760.5688    38.718768   -8799.2876    6238.8413 
  164600     324.9424   -8756.1246    46.492395    -8802.617   -8028.0879 
  164800    313.74475   -8746.7192    44.890248   -8791.6095    2492.1603 
  165000    332.08643   -8752.9696    47.514556   -8800.4842   -13087.472 
  165200     238.4076   -8761.5398    34.111094   -8795.6509    7456.3166 
  165400    342.35841    -8750.142    48.984259   -8799.1262   -6725.0914 
  165600    296.15419   -8746.0163     42.37341   -8788.3897   -16193.489 
  165800    297.31901   -8749.4641    42.540072   -8792.0042   -38868.348 
  166000    333.01733   -8752.7211    47.647747   -8800.3688   -27815.356 
  166200    227.57774   -8757.9655    32.561569    -8790.527    32778.477 
  166400    334.44436   -8750.7791    47.851925   -8798.6311    5378.0934 
  166600    281.04009   -8746.2164    40.210902   -8786.4273   -41437.797 
  166800    292.87141    -8746.749    41.903714   -8788.6527    1390.5457 
  167000    323.05994    -8753.767    46.223055     -8799.99   -21288.226 
  167200    251.91613   -8760.8039    36.043879   -8796.8477   -11668.644 
  167400    327.34108   -8750.2581    46.835597   -8797.0937   -20056.138 
  167600    300.31806   -8750.2345    42.969173   -8793.2037    9359.1631 
  167800     292.9674   -8760.1871    41.917449   -8802.1045   -31126.114 
  168000     293.1898   -8761.0526     41.94927   -8803.0019     32520.03 
  168200    274.14808   -8749.2617      39.2248   -8788.4865    12574.458 
  168400    306.33269   -8743.9529    43.829739   -8787.7827   -15910.568 
  168600    249.29244   -8762.6943    35.668484   -8798.3628    22613.031 
  168800    354.60554     -8747.38    50.736564   -8798.1166    11457.504 
  169000    300.71563   -8749.0882    43.026056   -8792.1143   -13871.346 
  169200    244.39618   -8767.5779    34.967933   -8802.5458   -12756.208 
  169400    263.17297   -8758.2135    37.654495    -8795.868    32740.361 
  169600    274.56021   -8749.7329    39.283768   -8789.0167    -7212.709 
  169800    279.84164   -8753.4662    40.039428   -8793.5056   -16000.798 
  170000    254.40157   -8764.5441    36.399492   -8800.9436   -7010.9674 
  170200    278.99371   -8747.3278    39.918108   -8787.2459   -27692.858 
  170400    320.70624    -8753.116     45.88629   -8799.0023   -8593.2921 
  170600    291.05896   -8763.0392    41.644391   -8804.6836   -15155.964 
  170800    296.09802    -8748.578    42.365374   -8790.9433   -16969.149 
  171000    310.22467   -8746.5252    44.386599   -8790.9118    17474.636 
  171200    262.12892   -8761.7793    37.505113   -8799.2844   -20080.909 
  171400    322.40148   -8754.1033    46.128843   -8800.2321    3470.4601 
  171600    316.35274   -8749.7107    45.263396   -8794.9741    30388.178 
  171800    336.27748   -8742.0917    48.114206   -8790.2059    22193.732 
  172000    322.89066   -8752.6319    46.198835   -8798.8308    5943.4026 
  172200    277.57339   -8753.1233     39.71489   -8792.8382   -37295.173 
  172400    311.75609   -8743.7545    44.605714   -8788.3603    9529.0676 
  172600    317.23569   -8750.8716    45.389728   -8796.2613    6202.2671 
  172800    318.27065   -8749.3102     45.53781    -8794.848    32732.017 
  173000     305.5418   -8746.0888    43.716579   -8789.8054    19266.299 
  173200    272.15288   -8757.9019     38.93933   -8796.8412    25781.294 
  173400    343.59795   -8743.5452    49.161611   -8792.7068    -17952.98 
  173600     356.0089   -8740.8974    50.937356   -8791.8347   -36007.185 
  173800    284.78829   -8756.4713     40.74719   -8797.2185     -669.454 
  174000    285.36588   -8749.0471    40.829831   -8789.8769   -7143.4326 
  174200    306.39098   -8738.8689    43.838079    -8782.707   -13390.459 
  174400    240.20586   -8759.2962    34.368385   -8793.6646   -23588.512 
  174600    341.09305   -8745.9987    48.803212   -8794.8019     11848.96 
  174800    264.12219   -8755.7716    37.790308   -8793.5619    57.195238 
  175000    292.64697    -8759.246    41.871602   -8801.1176   -4184.6612 
  175200    296.79975   -8747.7356    42.465776   -8790.2014    21124.956 
  175400    291.37312    -8754.182     41.68934   -8795.8714   -12581.005 
  175600    274.70334   -8751.5052    39.304248   -8790.8094     26606.36 
  175800    289.46339   -8757.3356    41.416099   -8798.7517   -9787.9824 
  176000    294.43312   -8757.3548    42.127162    -8799.482    7514.5884 
  176200    346.32205   -8740.5609    49.551372   -8790.1123   -889.21223 
  176400    297.32809   -8756.9471    42.541371   -8799.4884   -7078.7296 
  176600    277.28012   -8752.9605    39.672929   -8792.6335    20109.013 
  176800    287.33336   -8742.0163    41.111336   -8783.1276   -14748.992 
  177000     287.6714   -8759.7137    41.159703   -8800.8734    41673.228 
  177200    280.76264   -8755.8974    40.171204   -8796.0686    5716.6267 
  177400    307.00425   -8747.4188    43.925825   -8791.3446   -10349.677 
  177600     297.7025   -8755.8763     42.59494   -8798.4712    3992.7687 
  177800    240.64011   -8767.4936    34.430519   -8801.9241    1432.5804 
  178000    296.39336   -8751.4617     42.40763   -8793.8694    42364.665 
[...]
  950000    255.75181   -8753.1713    36.592683    -8789.764    17540.991 
  950200    300.47745   -8755.4429    42.991978   -8798.4349     17001.67 
  950400    297.69511   -8743.2153    42.593884   -8785.8092   -1685.3968 
  950600    351.49546   -8735.6855    50.291578    -8785.977    13756.861 
  950800    276.02675   -8756.4666    39.493598   -8795.9602   -41408.341 
  951000    329.47846   -8751.6002     47.14141   -8798.7417    24211.525 
  951200     284.1071   -8754.4889    40.649726   -8795.1386   -33743.726 
  951400    250.81592   -8760.4463    35.886461   -8796.3328    6452.4178 
  951600    235.72626   -8754.9796     33.72745    -8788.707   -36271.773 
  951800    345.96924   -8747.6661    49.500892    -8797.167    10082.225 
  952000    304.06876   -8756.9426    43.505819   -8800.4484   -21731.839 
  952200    288.78774   -8752.1704    41.319427   -8793.4898     8011.323 
  952400    243.63228   -8758.8641    34.858634   -8793.7227    31161.653 
  952600    238.89494   -8759.7062    34.180821    -8793.887   -1982.3724 
  952800    231.21002   -8749.9626    33.081271   -8783.0439    11531.451 
  953000    349.36612   -8744.3627    49.986914   -8794.3496    37806.124 
  953200    269.22964    -8759.293    38.521076   -8797.8141     11293.39 
  953400    333.31335   -8747.6197    47.690102   -8795.3098    28324.456 
  953600    297.41724   -8738.9977    42.554126   -8781.5518    11530.207 
  953800     289.7011   -8752.2693    41.450109   -8793.7194   -7687.7951 
  954000    283.11383   -8758.2436     40.50761   -8798.7513    7776.1433 
  954200    316.89384   -8740.5556    45.340817   -8785.8964   -17553.427 
  954400    277.39637   -8754.6799    39.689563   -8794.3695   -4840.7557 
  954600    304.55598   -8753.5368    43.575529   -8797.1123    38208.816 
  954800    307.84248   -8753.3512    44.045758    -8797.397   -6937.8773 
  955000     358.0942   -8744.6881    51.235718   -8795.9238    18428.592 
  955200    285.26718   -8755.5429     40.81571   -8796.3586    15134.598 
  955400    331.18637   -8752.8029    47.385775   -8800.1887    28014.491 
  955600    277.78219   -8750.6433    39.744765   -8790.3881   -32826.223 
  955800      355.451   -8742.2081    50.857531   -8793.0656    22534.676 
  956000    255.99123   -8758.2172     36.62694   -8794.8441    10995.805 
  956200    316.57463   -8748.7638    45.295144   -8794.0589    5761.6518 
  956400    315.64197   -8738.4838    45.161701   -8783.6455     13646.78 
  956600    234.21833   -8760.5452    33.511697   -8794.0569    38959.335 
  956800    336.27005   -8748.0487    48.113143   -8796.1619   -13172.745 
  957000    353.66232   -8748.9619    50.601609   -8799.5636    16624.291 
  957200    273.78937   -8761.4605    39.173476    -8800.634   -4840.5802 
  957400    304.31797   -8745.9082    43.541475   -8789.4497    16335.422 
  957600    268.41532   -8752.3661    38.404564   -8790.7706   -10068.958 
  957800    366.11001   -8743.3647    52.382611   -8795.7473   -6211.4799 
  958000    319.02087   -8743.1186     45.64515   -8788.7638    23858.895 
  958200    298.69979   -8752.4256    42.737632   -8795.1632   -28102.591 
  958400    298.63916   -8755.6286    42.728957   -8798.3575   -6778.0492 
  958600    351.39315   -8736.9305    50.276939   -8787.2075   -16925.399 
  958800    258.39271   -8753.4098     36.97054   -8790.3803   -15413.334 
  959000    278.34225   -8751.0521    39.824897    -8790.877   -12796.609 
  959200    348.72144   -8742.0475    49.894674   -8791.9422    21212.764 
  959400    289.93484   -8758.7188    41.483553   -8800.2024   -8079.2965 
  959600    286.20412   -8755.7963    40.949765   -8796.7461     4421.977 
  959800    377.45445   -8740.3094    54.005761   -8794.3152     -13119.8 
  960000    290.21166   -8756.0125     41.52316   -8797.5357    3316.2809 
  960200    342.37695   -8746.9466    48.986912   -8795.9335    21281.546 
  960400    369.62321   -8737.0273    52.885276   -8789.9126   -38458.928 
  960600    263.44179   -8755.1697    37.692957   -8792.8627    -23603.45 
  960800    331.04016   -8749.9315    47.364856   -8797.2964   -27643.561 
  961000      404.766   -8738.0589    57.913467   -8795.9724    -2065.726 
  961200    275.28063   -8758.6926    39.386845   -8798.0794   -5070.3574 
  961400    291.58717   -8752.8443    41.719966   -8794.5642   -22590.046 
  961600    298.26529   -8748.6812    42.675465   -8791.3567   -30220.765 
  961800     332.1338   -8749.8874    47.521333   -8797.4087    7946.4183 
  962000    302.69955   -8763.9938    43.309913   -8807.3037   -28713.591 
  962200    287.73205   -8757.3294     41.16838   -8798.4978    22627.095 
  962400    287.23529   -8747.1097    41.097304    -8788.207   -10756.309 
  962600    306.30034   -8757.2945     43.82511   -8801.1196   -2315.2075 
  962800    293.59441   -8752.5014    42.007161   -8794.5086    32291.659 
  963000    312.56922   -8740.9827    44.722054   -8785.7047   -3047.2861 
  963200    321.39181   -8747.7893    45.984381   -8793.7736   -44685.058 
  963400    242.66845   -8756.2213    34.720731   -8790.9421   -33787.309 
  963600     364.9507    -8746.731    52.216738   -8798.9477    34483.688 
  963800    291.61721   -8753.2103    41.724264   -8794.9346    15960.612 
  964000    240.02801   -8765.8872     34.34294   -8800.2302    2796.5631 
  964200    251.48369   -8754.1715    35.982006   -8790.1535    15589.092 
  964400    305.91504   -8747.8965    43.769982   -8791.6665   -14061.123 
  964600    312.72256   -8751.1704    44.743994   -8795.9144   -4034.2147 
  964800    255.82727   -8762.8422     36.60348   -8799.4457    3289.0295 
  965000    354.15037   -8746.0486    50.671439     -8796.72   -714.98673 
  965200     262.0177   -8750.9781    37.489199   -8788.4673   -5877.2305 
  965400    279.50624   -8756.8622    39.991441   -8796.8536    12251.961 
  965600     295.8391   -8750.4058    42.328328   -8792.7342    20128.698 
  965800    283.77856   -8752.4856    40.602719   -8793.0883   -14632.045 
  966000       293.68    -8758.853    42.019406   -8800.8724   -14033.049 
  966200    315.35407   -8744.1177    45.120508   -8789.2382   -18748.645 
  966400    287.13416   -8759.7962    41.082835    -8800.879    54946.602 
  966600    313.15821   -8754.7609    44.806327   -8799.5672    4162.8996 
  966800    298.40021   -8749.8285    42.694769   -8792.5232   -12415.922 
  967000    268.56837   -8764.6759    38.426463   -8803.1024     29402.45 
  967200    322.37472   -8745.8163    46.125015   -8791.9413     67586.48 
  967400    294.23383   -8753.8674    42.098648   -8795.9661   -6860.4249 
  967600    285.88831   -8753.9141    40.904581   -8794.8186    8987.0226 
  967800    351.71893   -8741.3007    50.323552   -8791.6242   -5351.2948 
  968000    304.46844   -8752.2618    43.563004   -8795.8248    46157.619 
  968200    296.89886    -8755.783    42.479957   -8798.2629   -1903.1237 
  968400    335.30706   -8742.6028     47.97536   -8790.5782    28248.442 
  968600    324.53369   -8755.6636    46.433917   -8802.0975   -30552.801 
  968800    266.69853   -8754.2985    38.158927   -8792.4575     329.4019 
  969000    366.78185   -8740.7392    52.478737    -8793.218   -2754.5348 
  969200    328.13422   -8757.7747    46.949077   -8804.7237    44422.264 
  969400    249.79938   -8755.1376    35.741017   -8790.8786    11243.932 
  969600    347.60764   -8740.9301    49.735312   -8790.6654   -4216.9165 
  969800    287.72523   -8758.1847    41.167404   -8799.3521   -21475.439 
  970000    321.90011   -8748.8699    46.057108    -8794.927    24445.151 
  970200    265.03264   -8757.6519    37.920573   -8795.5724    6671.3425 
  970400    291.08461   -8757.4705    41.648061   -8799.1186    15186.014 
  970600    294.28636   -8748.0982    42.106164   -8790.2043    12288.389 
  970800    297.05865   -8755.9564     42.50282   -8798.4592    11990.237 
  971000    230.84565    -8765.188    33.029137   -8798.2171   -23723.249 
  971200    317.99814   -8753.8196    45.498819   -8799.3184   -16316.435 
  971400    278.84009   -8743.8206    39.896129   -8783.7167    -1241.528 
  971600    335.31049   -8741.2858     47.97585   -8789.2616   -14933.807 
  971800    268.13609   -8757.3064    38.364612    -8795.671    15578.919 
  972000    265.81204    -8757.006    38.032089   -8795.0381   -16353.358 
  972200    382.99226   -8739.7813    54.798105   -8794.5794   -12344.834 
  972400    289.39113    -8756.342     41.40576   -8797.7477    -13687.96 
  972600    293.28585   -8758.0448    41.963011   -8800.0078   -5034.2091 
  972800    369.25686   -8739.4105    52.832858   -8792.2434    18158.585 
  973000    275.44334   -8755.9084    39.410125   -8795.3185   -2520.5467 
  973200    364.07906   -8754.4844    52.092025   -8806.5764    13084.171 
  973400    333.23073   -8735.6371     47.67828   -8783.3154    6920.0896 
  973600    341.63637   -8747.5248     48.88095   -8796.4058   -3915.7595 
  973800    284.11149   -8755.7167    40.650354   -8796.3671   -23142.012 
  974000    398.13793   -8739.4693     56.96513   -8796.4344    3699.7334 
  974200    257.30515   -8752.9357    36.814934   -8789.7507   -28099.697 
  974400    255.13292   -8753.7218    36.504133   -8790.2259    12655.621 
  974600    340.99135   -8742.5682    48.788662   -8791.3568   -18736.519 
  974800    248.07773    -8753.927    35.494685   -8789.4217    9420.5808 
  975000     281.8158   -8754.5139     40.32189   -8794.8358    21293.492 
  975200    358.44617   -8735.2868    51.286077   -8786.5729   -10959.047 
  975400    297.68699   -8747.0499    42.592721   -8789.6426    10988.718 
  975600    288.55938   -8752.2242    41.286753   -8793.5109    4797.4655 
  975800    338.31825   -8747.9048    48.406197   -8796.3109    19400.323 
  976000    346.96304   -8752.2898    49.643085   -8801.9328    6437.8039 
  976200    248.49593     -8761.65     35.55452   -8797.2045    3924.3421 
  976400    273.70038   -8756.1583    39.160745    -8795.319   -2697.8845 
  976600     341.2342   -8747.0842    48.823408   -8795.9077   -15420.624 
  976800    248.72602   -8762.8939     35.58744   -8798.4813    13542.964 
  977000    316.55347   -8746.5844    45.292117   -8791.8765    10009.967 
  977200    285.04039    -8751.649     40.78326   -8792.4322    21891.742 
  977400    303.43016    -8757.743    43.414448   -8801.1575   -2877.8467 
  977600    393.09574   -8739.6681    56.243699   -8795.9118    27957.313 
  977800    309.52785   -8747.4029    44.286898   -8791.6898   -30948.376 
  978000    278.65512   -8754.0639    39.869663   -8793.9336   -42.171318 
  978200    237.85139   -8762.3152    34.031511   -8796.3467   -28528.508 
  978400    324.72058   -8748.5571    46.460657   -8795.0178   -6779.8232 
  978600    336.63065   -8747.3183    48.164737    -8795.483    51399.906 
  978800    266.47903   -8762.2821    38.127522   -8800.4096    322.63328 
  979000    292.86832   -8753.8675    41.903271   -8795.7707    38683.119 
  979200    343.54611   -8748.8006    49.154193   -8797.9548     19241.07 
  979400    319.74831   -8756.8089    45.749231   -8802.5582    37906.967 
  979600    240.71181   -8761.0989    34.440777   -8795.5397    10861.403 
  979800    350.20191   -8743.8018    50.106498   -8793.9083   -16941.569 
  980000    284.63141   -8755.3343    40.724744    -8796.059    203.46784 
  980200    290.51416   -8755.7569    41.566441   -8797.3234    1335.7446 
  980400     344.8618    -8747.761    49.342442   -8797.1035   -4107.6831 
  980600    239.63037   -8764.9085    34.286046   -8799.1945    1592.3638 
  980800    306.14344   -8755.0117    43.802662   -8798.8144    1659.5401 
  981000    308.25759   -8745.9939    44.105152    -8790.099    21521.324 
  981200    257.35382   -8761.5514    36.821897   -8798.3733     8239.189 
  981400    234.94542   -8758.9419    33.615729   -8792.5577   -5561.7547 
  981600    281.23313   -8749.9192    40.238523   -8790.1577    -40911.62 
  981800    333.77225   -8747.7969     47.75576   -8795.5526    36027.997 
  982000     281.2429   -8761.3902     40.23992   -8801.6301   -4709.6402 
  982200    308.61858   -8748.2757    44.156801   -8792.4325   -14041.096 
  982400    322.88129   -8744.3308    46.197494   -8790.5283    22890.673 
  982600    268.47267   -8757.7041    38.412769   -8796.1169    18720.662 
  982800    310.17393   -8748.5878    44.379339   -8792.9672    1704.7728 
  983000     395.9443   -8736.4542    56.651268   -8793.1055    4226.3605 
  983200    313.36657   -8756.1215    44.836139   -8800.9576   -21412.354 
  983400     331.4106   -8749.5252    47.417858   -8796.9431   -26459.417 
  983600    336.14975   -8734.7493    48.095931   -8782.8452   -16650.544 
  983800    268.54313   -8749.8534    38.422851   -8788.2763   -23576.745 
  984000    319.97189   -8758.2193     45.78122   -8804.0005   -3521.4108 
  984200    300.42533   -8750.9381    42.984521   -8793.9226   -15862.073 
  984400    324.79075   -8744.7293    46.470697      -8791.2    3226.3126 
  984600    308.26559    -8753.722    44.106295   -8797.8283    11756.678 
  984800    326.59545   -8753.0582    46.728912   -8799.7871    1301.0439 
  985000    312.01115   -8749.6069    44.642207   -8794.2491   -51067.967 
  985200    310.83442   -8753.2202    44.473842   -8797.6941    1667.5638 
  985400    278.60828   -8764.8409    39.862962   -8804.7039    6834.2681 
  985600    309.86429   -8746.1098    44.335037   -8790.4448    10330.751 
  985800    296.13328   -8753.0739    42.370418   -8795.4443    277.88156 
  986000    269.66226   -8765.4635    38.582975   -8804.0465   -11187.794 
  986200     275.6559   -8749.8853    39.440538   -8789.3259    28015.347 
  986400    384.66145   -8743.3093    55.036931   -8798.3463   -21743.592 
  986600    290.53128   -8758.4187    41.568891   -8799.9876   -32124.843 
  986800    319.44397   -8752.7475    45.705686   -8798.4532   -19798.323 
  987000    299.70564   -8728.6763    42.881548   -8771.5578    2296.7389 
  987200    331.85781   -8744.1644    47.481844   -8791.6462   -28439.544 
  987400    282.54271   -8758.9941    40.425896     -8799.42   -27730.513 
  987600    299.84297   -8751.6262    42.901197   -8794.5274   -55625.231 
  987800    319.85726   -8750.4555    45.764819   -8796.2203    20590.312 
  988000    281.86242   -8755.2516     40.32856   -8795.5801    9903.2712 
  988200    359.49627   -8734.9874    51.436324   -8786.4238   -36378.978 
  988400    301.97009   -8749.9189    43.205542   -8793.1244    7826.7645 
  988600    283.00203   -8751.9063    40.491614   -8792.3979   -15023.433 
  988800    292.78567   -8754.2584    41.891446   -8796.1499    9381.4907 
  989000    222.98397   -8757.0872    31.904297   -8788.9915    23436.836 
  989200    289.69536   -8744.2571    41.449288   -8785.7064   -10464.827 
  989400     260.0975   -8754.1138    37.214459   -8791.3283   -50581.231 
  989600    327.40349    -8756.582    46.844526   -8803.4265   -21860.686 
  989800    338.58321     -8738.97    48.444107   -8787.4141    -7386.643 
  990000    298.20149   -8746.6031    42.666336   -8789.2694   -4990.0633 
  990200    313.10673     -8752.21    44.798962   -8797.0089   -14008.613 
  990400     311.8554   -8752.5396    44.619923   -8797.1595   -11313.169 
  990600    280.30926   -8761.7266    40.106336    -8801.833    19133.462 
  990800    285.90323   -8751.9762    40.906714   -8792.8829    14424.937 
  991000    282.13906   -8744.4236    40.368142   -8784.7918   -6918.2175 
  991200    268.73466   -8758.8419    38.450255   -8797.2922   -20087.337 
  991400    282.13485   -8766.4665    40.367539    -8806.834   -27502.147 
  991600    325.90276   -8752.2078    46.629802   -8798.8376   -431.47908 
  991800    251.68608    -8751.231    36.010964   -8787.2419   -9856.9074 
  992000    233.09863   -8766.1208    33.351491   -8799.4723    15514.023 
  992200    246.24244   -8751.0975    35.232094   -8786.3296    17789.231 
  992400    326.56355   -8747.2527    46.724348    -8793.977    -23462.88 
  992600    295.87227   -8761.4015    42.333074   -8803.7346    32532.433 
  992800    246.11629   -8762.2895    35.214044   -8797.5035    27597.245 
  993000    353.36275   -8744.9539    50.558747   -8795.5127   -52.421701 
  993200    295.13922   -8756.9635     42.22819   -8799.1916   -19084.833 
  993400    289.07741   -8756.5923    41.360873   -8797.9531    62125.551 
  993600    328.17315   -8740.8573    46.954648   -8787.8119    17282.357 
  993800     293.5259   -8754.8082    41.997358   -8796.8056    1738.1394 
  994000    310.32414    -8757.665    44.400832   -8802.0658   -13098.324 
  994200    374.60471   -8739.8722    53.598024   -8793.4702     324.6902 
  994400    313.74499    -8752.432    44.890283   -8797.3223   -25642.805 
  994600    268.98969   -8757.4257    38.486745   -8795.9124    22471.873 
  994800    279.42536   -8750.9828    39.979868   -8790.9627    10790.321 
  995000    292.50263   -8739.8932    41.850949   -8781.7442    5302.1621 
  995200    312.08595    -8757.206    44.652908   -8801.8589    589.44991 
  995400    309.96263     -8751.25    44.349106   -8795.5991    8498.5077 
  995600    303.07812   -8744.3464    43.364079   -8787.7105   -1902.0976 
  995800    265.45195   -8761.4705    37.980568    -8799.451   -11744.107 
  996000    325.46511   -8745.7847    46.567184   -8792.3519    24855.317 
  996200    300.80433   -8742.7681    43.038747   -8785.8069   -38948.882 
  996400    329.82285   -8750.3738    47.190685   -8797.5645    18058.232 
  996600    242.64526    -8764.757    34.717412   -8799.4744    16024.638 
  996800    299.28956   -8761.9096    42.822015   -8804.7316   -8582.7232 
  997000    313.00614   -8753.6853    44.784568   -8798.4698    2962.5657 
  997200    342.61413   -8745.5788    49.020846   -8794.5997    18854.091 
  997400    262.05966    -8759.948    37.495204   -8797.4432    8001.0249 
  997600    300.35183   -8758.5675    42.974004   -8801.5415    -38978.03 
  997800    308.86802   -8741.5392    44.192491   -8785.7317    12773.692 
  998000    321.81782   -8757.1114    46.045334   -8803.1567   -26203.679 
  998200    326.68453   -8754.1301    46.741658   -8800.8717     29004.83 
  998400    313.75916   -8742.7435     44.89231   -8787.6359   -6497.5937 
  998600     298.3826    -8742.747    42.692249   -8785.4392    54135.627 
  998800    296.86216   -8755.2028    42.474706   -8797.6775   -18237.734 
  999000    338.08815   -8752.7749    48.373274   -8801.1481    9423.7113 
  999200     325.7298   -8743.4506    46.605056   -8790.0557    7628.1145 
  999400    263.89474   -8763.8179    37.757764   -8801.5757    14061.468 
  999600    333.11317    -8756.617     47.66146   -8804.2784   -12058.574 
  999800    317.86396   -8745.1595     45.47962   -8790.6391    12839.958 
 1000000    310.60873   -8755.9107    44.441551   -8800.3523     21009.59 
Loop time of 2359.91 on 8 procs for 1000000 steps with 49 atoms

Performance: 9.153 ns/day, 2.622 hours/ns, 423.746 timesteps/s
99.4% CPU use with 8 MPI tasks x no OpenMP threads

MPI task timing breakdown:
Section |  min time  |  avg time  |  max time  |%varavg| %total
---------------------------------------------------------------
Pair    | 2015.5     | 2022.1     | 2034.6     |  15.6 | 85.68
Neigh   | 0.24075    | 0.24264    | 0.24416    |   0.2 |  0.01
Comm    | 29.243     | 41.791     | 48.244     | 108.6 |  1.77
Output  | 0.079296   | 0.092203   | 0.17311    |  10.1 |  0.00
Modify  | 293.93     | 294.01     | 294.14     |   0.4 | 12.46
Other   |            | 1.717      |            |       |  0.07

Nlocal:    6.125 ave 7 max 6 min
Histogram: 7 0 0 0 0 0 0 0 0 1
Nghost:    568.625 ave 583 max 554 min
Histogram: 2 0 1 0 1 1 0 1 1 1
Neighs:    765.5 ave 881 max 740 min
Histogram: 5 2 0 0 0 0 0 0 0 1

Total # of neighbors = 6124
Ave neighs/atom = 124.98
Neighbor list builds = 365
Dangerous builds = 0

unfix 1
unfix output
undump 1

Please see the log.cite file for references relevant to this simulation

Total wall time: 0:39:22
