LAMMPS (3 Mar 2020)
# Alpha
clear
units		real
dimension 3
boundary        p p p
atom_style	charge
newton on
read_data       H_3.lmp
  orthogonal box = (0 0 0) to (19.018 19.018 19.018)
  2 by 2 by 2 MPI processor grid
  reading atoms ...
  321 atoms
  read_data CPU = 0.0162133 secs

timestep 0.25

# ---------- Define Interatomic Potential ---------------------
pair_style      reax/c NULL checkqeq no
pair_coeff      * * ffield.reax C H
fix             2 all qeq/reax 1 0.0 10.0 1.0e-6 reax/c

#------------ Equilibration of the system -------------------------
reset_timestep 0

dump 1 all custom 10 min.lammpstrj id type x y z

minimize 1.0e-8 1.0e-8 100000 100000
WARNING: Using 'neigh_modify every 1 delay 0 check yes' setting during minimization (../min.cpp:190)
WARNING: Total cutoff < 2*bond cutoff. May need to use an increased neighbor list skin. (../pair_reaxc.cpp:413)
Neighbor list info ...
  update every 1 steps, delay 0 steps, check yes
  max neighbors/atom: 2000, page size: 100000
  master list distance cutoff = 9.5
  ghost atom cutoff = 9.5
  binsize = 4.75, bins = 5 5 5
  2 neighbor lists, perpetual/occasional/extra = 2 0 0
  (1) pair reax/c, perpetual
      attributes: half, newton off, ghost
      pair build: half/bin/newtoff/ghost
      stencil: half/ghost/bin/3d/newtoff
      bin: standard
  (2) fix qeq/reax, perpetual, copy from (1)
      attributes: half, newton off, ghost
      pair build: copy
      stencil: none
      bin: none
Per MPI rank memory allocation (min/avg/max) = 26.21 | 26.34 | 26.51 Mbytes
Step Temp E_pair E_mol TotEng Press 
       0            0   -59004.046            0   -59004.046    21269.147 
      49            0   -59057.831            0   -59057.831    17314.956 
Loop time of 2.7956 on 8 procs for 49 steps with 321 atoms

99.2% CPU use with 8 MPI tasks x no OpenMP threads

Minimization stats:
  Stopping criterion = energy tolerance
  Energy initial, next-to-last, final = 
        -59004.0458917     -59057.8312515     -59057.8313807
  Force two-norm initial, final = 446.666 29.517
  Force max component initial, final = 135.892 5.77511
  Final line search alpha, max atom move = 0.000739015 0.0042679
  Iterations, force evaluations = 49 310

MPI task timing breakdown:
Section |  min time  |  avg time  |  max time  |%varavg| %total
---------------------------------------------------------------
Pair    | 2.2296     | 2.2837     | 2.3263     |   2.2 | 81.69
Neigh   | 0          | 0          | 0          |   0.0 |  0.00
Comm    | 0.018742   | 0.061183   | 0.11503    |  13.3 |  2.19
Output  | 0.00025839 | 0.0003048  | 0.00039588 |   0.0 |  0.01
Modify  | 0.4459     | 0.44596    | 0.44603    |   0.0 | 15.95
Other   |            | 0.004456   |            |       |  0.16

Nlocal:    40.125 ave 53 max 28 min
Histogram: 4 0 0 0 0 0 0 0 0 4
Nghost:    989.25 ave 1012 max 968 min
Histogram: 4 0 0 0 0 0 0 0 3 1
Neighs:    5260.12 ave 6769 max 3839 min
Histogram: 4 0 0 0 0 0 0 0 0 4

Total # of neighbors = 42081
Ave neighs/atom = 131.093
Neighbor list builds = 0
Dangerous builds = 0

###
min_style cg
minimize 1.0e-8 1.0e-8 100000 100000
WARNING: Using 'neigh_modify every 1 delay 0 check yes' setting during minimization (../min.cpp:190)
WARNING: Total cutoff < 2*bond cutoff. May need to use an increased neighbor list skin. (../pair_reaxc.cpp:413)
Per MPI rank memory allocation (min/avg/max) = 26.21 | 26.34 | 26.51 Mbytes
Step Temp E_pair E_mol TotEng Press 
      49            0   -59057.831            0   -59057.831    17314.956 
     162            0    -59062.78            0    -59062.78    17562.343 
Loop time of 7.10643 on 8 procs for 113 steps with 321 atoms

99.2% CPU use with 8 MPI tasks x no OpenMP threads

Minimization stats:
  Stopping criterion = energy tolerance
  Energy initial, next-to-last, final = 
        -59057.8313807     -59062.7799422     -59062.7800866
  Force two-norm initial, final = 29.517 15.636
  Force max component initial, final = 5.77511 3.76936
  Final line search alpha, max atom move = 0.000628321 0.00236837
  Iterations, force evaluations = 113 821

MPI task timing breakdown:
Section |  min time  |  avg time  |  max time  |%varavg| %total
---------------------------------------------------------------
Pair    | 5.7525     | 5.8747     | 5.9493     |   2.8 | 82.67
Neigh   | 0          | 0          | 0          |   0.0 |  0.00
Comm    | 0.056013   | 0.13058    | 0.25271    |  18.6 |  1.84
Output  | 0.00077003 | 0.0010018  | 0.001447   |   0.8 |  0.01
Modify  | 1.0889     | 1.089      | 1.0891     |   0.0 | 15.32
Other   |            | 0.01123    |            |       |  0.16

Nlocal:    40.125 ave 53 max 28 min
Histogram: 4 0 0 0 0 0 0 0 1 3
Nghost:    992.625 ave 1018 max 970 min
Histogram: 1 3 0 0 0 0 0 2 0 2
Neighs:    5275.25 ave 6785 max 3839 min
Histogram: 4 0 0 0 0 0 0 0 1 3

Total # of neighbors = 42202
Ave neighs/atom = 131.47
Neighbor list builds = 0
Dangerous builds = 0

###
fix 1 all box/relax aniso 0.0
min_style cg
minimize 1.0e-8 1.0e-8 100000 100000
WARNING: Using 'neigh_modify every 1 delay 0 check yes' setting during minimization (../min.cpp:190)
WARNING: Total cutoff < 2*bond cutoff. May need to use an increased neighbor list skin. (../pair_reaxc.cpp:413)
Per MPI rank memory allocation (min/avg/max) = 26.21 | 26.34 | 26.51 Mbytes
Step Temp E_pair E_mol TotEng Press Volume 
     162            0    -59062.78            0    -59062.78    17562.343    6878.5125 
     300            0    -59071.69            0    -59071.69    649.67283    6916.5293 
Loop time of 1.79162 on 8 procs for 138 steps with 321 atoms

99.3% CPU use with 8 MPI tasks x no OpenMP threads

Minimization stats:
  Stopping criterion = energy tolerance
  Energy initial, next-to-last, final = 
        -59062.7800866     -59071.6891534     -59071.6896804
  Force two-norm initial, final = 3053.88 140.743
  Force max component initial, final = 1859.35 71.391
  Final line search alpha, max atom move = 1.99208e-06 0.000142217
  Iterations, force evaluations = 138 221

MPI task timing breakdown:
Section |  min time  |  avg time  |  max time  |%varavg| %total
---------------------------------------------------------------
Pair    | 1.5366     | 1.5845     | 1.6172     |   2.0 | 88.44
Neigh   | 0          | 0          | 0          |   0.0 |  0.00
Comm    | 0.0072663  | 0.039994   | 0.087954   |  12.7 |  2.23
Output  | 0.00069091 | 0.0008263  | 0.0011257  |   0.0 |  0.05
Modify  | 0.1586     | 0.15865    | 0.15872    |   0.0 |  8.85
Other   |            | 0.007678   |            |       |  0.43

Nlocal:    40.125 ave 53 max 28 min
Histogram: 2 2 0 0 0 0 0 0 3 1
Nghost:    1000.5 ave 1046 max 974 min
Histogram: 2 0 2 0 2 1 0 0 0 1
Neighs:    5287.88 ave 6780 max 3847 min
Histogram: 2 2 0 0 0 0 0 0 3 1

Total # of neighbors = 42303
Ave neighs/atom = 131.785
Neighbor list builds = 0
Dangerous builds = 0

unfix 1
###
min_style cg
minimize 1.0e-8 1.0e-8 100000 100000
WARNING: Using 'neigh_modify every 1 delay 0 check yes' setting during minimization (../min.cpp:190)
WARNING: Total cutoff < 2*bond cutoff. May need to use an increased neighbor list skin. (../pair_reaxc.cpp:413)
Per MPI rank memory allocation (min/avg/max) = 26.21 | 26.34 | 26.51 Mbytes
Step Temp E_pair E_mol TotEng Press 
     300            0    -59071.69            0    -59071.69    649.67283 
     306            0   -59071.803            0   -59071.803    23474.757 
Loop time of 0.570327 on 8 procs for 6 steps with 321 atoms

99.2% CPU use with 8 MPI tasks x no OpenMP threads

Minimization stats:
  Stopping criterion = energy tolerance
  Energy initial, next-to-last, final = 
        -59071.6896804     -59071.8029493      -59071.803397
  Force two-norm initial, final = 82.4967 69.9818
  Force max component initial, final = 5.91307 4.64358
  Final line search alpha, max atom move = 0.000167475 0.000777683
  Iterations, force evaluations = 6 65

MPI task timing breakdown:
Section |  min time  |  avg time  |  max time  |%varavg| %total
---------------------------------------------------------------
Pair    | 0.46079    | 0.47397    | 0.48151    |   1.1 | 83.11
Neigh   | 0          | 0          | 0          |   0.0 |  0.00
Comm    | 0.0038264  | 0.011376   | 0.02455    |   7.1 |  1.99
Output  | 0          | 0          | 0          |   0.0 |  0.00
Modify  | 0.084022   | 0.084039   | 0.084061   |   0.0 | 14.74
Other   |            | 0.0009386  |            |       |  0.16

Nlocal:    40.125 ave 53 max 28 min
Histogram: 4 0 0 0 0 0 0 0 0 4
Nghost:    996 ave 1036 max 972 min
Histogram: 2 2 0 0 0 3 0 0 0 1
Neighs:    5181.12 ave 6669 max 3764 min
Histogram: 4 0 0 0 0 0 0 0 0 4

Total # of neighbors = 41449
Ave neighs/atom = 129.125
Neighbor list builds = 0
Dangerous builds = 0

###
fix 1 all box/relax aniso 0.0
min_style cg
minimize 1.0e-8 1.0e-8 100000 100000
WARNING: Using 'neigh_modify every 1 delay 0 check yes' setting during minimization (../min.cpp:190)
WARNING: Total cutoff < 2*bond cutoff. May need to use an increased neighbor list skin. (../pair_reaxc.cpp:413)
Per MPI rank memory allocation (min/avg/max) = 26.21 | 26.34 | 26.51 Mbytes
Step Temp E_pair E_mol TotEng Press Volume 
     306            0   -59071.803            0   -59071.803    23474.757    6916.5293 
     614            0   -59086.457            0   -59086.457   -763.63905    6989.1543 
Loop time of 3.98732 on 8 procs for 308 steps with 321 atoms

99.1% CPU use with 8 MPI tasks x no OpenMP threads

Minimization stats:
  Stopping criterion = energy tolerance
  Energy initial, next-to-last, final = 
         -59071.803397     -59086.4561249     -59086.4566544
  Force two-norm initial, final = 4102.2 158.189
  Force max component initial, final = 2405.95 96.3445
  Final line search alpha, max atom move = 3.03352e-06 0.000292263
  Iterations, force evaluations = 308 497

MPI task timing breakdown:
Section |  min time  |  avg time  |  max time  |%varavg| %total
---------------------------------------------------------------
Pair    | 3.4246     | 3.513      | 3.563      |   2.8 | 88.10
Neigh   | 0          | 0          | 0          |   0.0 |  0.00
Comm    | 0.044492   | 0.094389   | 0.18289    |  16.8 |  2.37
Output  | 0.0018042  | 0.0021136  | 0.0027803  |   0.8 |  0.05
Modify  | 0.36031    | 0.36039    | 0.36048    |   0.0 |  9.04
Other   |            | 0.01743    |            |       |  0.44

Nlocal:    40.125 ave 53 max 28 min
Histogram: 4 0 0 0 0 0 0 0 0 4
Nghost:    996 ave 1036 max 972 min
Histogram: 2 2 0 0 0 3 0 0 0 1
Neighs:    5181 ave 6667 max 3764 min
Histogram: 4 0 0 0 0 0 0 0 0 4

Total # of neighbors = 41448
Ave neighs/atom = 129.121
Neighbor list builds = 0
Dangerous builds = 0

unfix 1
###
min_style cg
minimize 1.0e-8 1.0e-8 100000 100000
WARNING: Using 'neigh_modify every 1 delay 0 check yes' setting during minimization (../min.cpp:190)
WARNING: Total cutoff < 2*bond cutoff. May need to use an increased neighbor list skin. (../pair_reaxc.cpp:413)
Per MPI rank memory allocation (min/avg/max) = 26.21 | 26.34 | 26.51 Mbytes
Step Temp E_pair E_mol TotEng Press 
     614            0   -59086.457            0   -59086.457   -763.63905 
     688            0   -59088.219            0   -59088.219    12444.389 
Loop time of 4.57774 on 8 procs for 74 steps with 321 atoms

99.2% CPU use with 8 MPI tasks x no OpenMP threads

Minimization stats:
  Stopping criterion = energy tolerance
  Energy initial, next-to-last, final = 
        -59086.4566544      -59088.218534     -59088.2190184
  Force two-norm initial, final = 80.2864 20.6409
  Force max component initial, final = 16.7042 3.514
  Final line search alpha, max atom move = 0.000413737 0.00145387
  Iterations, force evaluations = 74 533

MPI task timing breakdown:
Section |  min time  |  avg time  |  max time  |%varavg| %total
---------------------------------------------------------------
Pair    | 3.6773     | 3.7697     | 3.8307     |   2.7 | 82.35
Neigh   | 0          | 0          | 0          |   0.0 |  0.00
Comm    | 0.037966   | 0.098702   | 0.1909     |  17.0 |  2.16
Output  | 0.00042852 | 0.00050698 | 0.00067269 |   0.0 |  0.01
Modify  | 0.70144    | 0.70152    | 0.70157    |   0.0 | 15.32
Other   |            | 0.007288   |            |       |  0.16

Nlocal:    40.125 ave 53 max 28 min
Histogram: 4 0 0 0 0 0 0 0 0 4
Nghost:    984.75 ave 1008 max 964 min
Histogram: 3 1 0 0 0 0 0 1 2 1
Neighs:    5105.62 ave 6604 max 3699 min
Histogram: 4 0 0 0 0 0 0 0 0 4

Total # of neighbors = 40845
Ave neighs/atom = 127.243
Neighbor list builds = 0
Dangerous builds = 0

undump 1
#############
#----------- Thermo ------------
reset_timestep 0
thermo  200

thermo_style    custom step temp etotal ke pe press
velocity all create 300 12345 mom yes rot yes
fix 1 all npt temp 300 300 25.0 iso 0.0 0.0 250.0

variable vpe equal pe
variable vtemp equal temp
variable vstep equal step

fix output all print 2500 "${vstep} ${vtemp} ${vpe}" file temp-tpdh-Pt.dat screen no

dump 1 all custom 2500 thermo-tpdh-Pt.lammpstrj id type x y z

run 1000000
WARNING: Total cutoff < 2*bond cutoff. May need to use an increased neighbor list skin. (../pair_reaxc.cpp:413)
Per MPI rank memory allocation (min/avg/max) = 25.08 | 25.21 | 25.38 Mbytes
Step Temp TotEng KinEng PotEng Press 
       0          300   -58802.061    286.15776   -59088.219    14315.992 
     200    218.06109   -58721.553    207.99958   -58929.553    27238.274 
     400    305.78451   -58613.028    291.67538   -58904.703    21075.235 
     600    285.14341   -58601.367    271.98667   -58873.354   -14414.581 
     800    301.66208   -58635.106    287.74315   -58922.849   -3948.2861 
    1000     288.5843   -58610.848     275.2688   -58886.116    13431.716 
    1200    297.12438   -58586.739    283.41483   -58870.154    8857.4876 
    1400    293.69322   -58627.707    280.14199   -58907.849    8151.5668 
    1600    296.64985   -58594.434     282.9622   -58877.396    9952.2005 
    1800    308.32088    -58620.94    294.09471   -58915.034    44075.493 
    2000    297.34939   -58611.786    283.62946   -58895.416   -37047.547 
    2200    323.29802   -58604.198     308.3808   -58912.579   -5634.2566 
    2400    297.93572    -58631.78    284.18873   -58915.969    3646.0175 
    2600     302.3908   -58594.359    288.43825   -58882.797   -20517.085 
    2800    286.79779   -58609.321    273.56472   -58882.885   -8531.5215 
    3000    275.86598   -58625.327    263.13731   -58888.464    6597.2676 
    3200    303.85659   -58588.246    289.83641   -58878.082    25697.893 
    3400    296.40621   -58624.857     282.7298   -58907.587   -46434.563 
    3600     299.6693   -58615.088    285.84232    -58900.93   -17555.754 
    3800    316.33299   -58579.066    301.73714   -58880.803    31592.099 
    4000    294.84724   -58619.939    281.24275   -58901.182    9461.0351 
    4200     286.5167   -58612.283     273.2966    -58885.58    31115.061 
    4400    333.40454   -58581.433      318.021   -58899.454    33273.595 
    4600    297.94635   -58603.253    284.19887   -58887.451    11481.075 
    4800    306.68655   -58626.363    292.53579   -58918.898    46753.518 
    5000    277.91234   -58651.504    265.08925   -58916.593    28392.432 
    5200    297.15694   -58600.801    283.44588   -58884.246   -16889.974 
    5400    308.19441     -58619.9    293.97407   -58913.874    10170.373 
    5600    276.63257   -58640.549    263.86852   -58904.417    21096.381 
    5800    296.60326   -58614.781    282.91775   -58897.699    3707.3834 
    6000    322.73748   -58602.167    307.84612   -58910.013   -5171.8102 
    6200    281.85787   -58636.356    268.85272   -58905.208    51334.499 
    6400     309.0701   -58617.985    294.80937   -58912.795    -37963.12 
    6600    323.45089   -58581.027    308.52661   -58889.554    35498.653 
    6800    295.16931   -58608.514    281.54997   -58890.064    13573.655 
    7000    310.43052   -58620.952    296.10701   -58917.059    577.49477 
    7200    321.63097   -58584.215    306.79066   -58891.006     1866.923 
    7400    294.56529   -58621.854    280.97382   -58902.827    21704.273 
    7600    281.76611   -58628.324     268.7652   -58897.089    42140.752 
    7800    309.79247   -58584.752    295.49841    -58880.25   -8247.2754 
    8000    302.28104   -58632.203    288.33355   -58920.537     17955.98 
    8200    305.91263   -58619.837    291.79758   -58911.635   -18135.788 
    8400    331.16282   -58600.858    315.88271   -58916.741    1334.8262 
    8600    278.50843   -58636.821    265.65783   -58902.479    10679.254 
    8800    295.49218   -58607.848    281.85794   -58889.706    9379.0555 
    9000     300.3221   -58602.667      286.465   -58889.132    55086.486 
    9200    295.20512   -58628.374    281.58413   -58909.959    52890.747 
    9400    263.20344   -58656.187    251.05903   -58907.246   -16571.032 
    9600    295.26443   -58618.814    281.64069   -58900.455   -13924.143 
    9800     314.3981   -58600.237    299.89153   -58900.129   -14045.437 
   10000    290.11432   -58647.625    276.72822   -58924.353    1021.2661 
   10200    291.14159    -58624.81    277.70809   -58902.518    2847.3919 
   10400    304.10126   -58604.927    290.06979   -58894.996    10561.939 
   10600    300.84263   -58620.884    286.96152   -58907.846   -10468.769 
   10800    290.50726   -58649.704    277.10303   -58926.807   -37645.339 
   11000    297.11896   -58613.267    283.40966   -58896.677   -12604.187 
   11200    326.19873   -58611.544    311.14766   -58922.692   -10580.672 
   11400    299.19767   -58653.125    285.39245   -58938.518   -19971.737 
   11600    315.32233   -58614.233    300.77311   -58915.006      15934.6 
   11800    292.86691    -58622.48     279.3538   -58901.834   -20123.451 
   12000    290.03262   -58657.115    276.65029   -58933.766   -20196.055 
   12200    307.59577   -58609.672    293.40306   -58903.075    13012.892 
   12400     274.4946   -58617.943     261.8292   -58879.772    7817.0112 
   12600    275.45642   -58650.061    262.74664   -58912.807   -3849.7991 
   12800    311.10478   -58598.747    296.75017   -58895.497    25161.645 
   13000    298.41047   -58626.185    284.64158   -58910.827   -21336.742 
   13200    306.21649    -58617.93    292.08742   -58910.017   -1719.3613 
   13400    312.01169   -58594.859    297.61523   -58892.474   -15764.502 
   13600    300.20759   -58634.755    286.35578    -58921.11   -11298.152 
   13800    304.28682   -58613.237    290.24679   -58903.484    14775.513 
   14000     291.3729   -58607.809    277.92872   -58885.737   -15577.347 
   14200    270.90046   -58653.614     258.4009   -58912.015    5328.8079 
   14400    308.56897   -58616.432    294.33136   -58910.763    11239.716 
   14600    289.71571   -58619.384      276.348   -58895.732    25683.097 
   14800    321.89801    -58584.22    307.04538   -58891.266    15899.233 
   15000    312.85716   -58604.679    298.42168     -58903.1    7077.8764 
   15200     301.3293   -58624.055    287.42573    -58911.48   -66.519395 
   15400    327.93907   -58582.818    312.80771   -58895.626   -33280.711 
   15600    314.46798   -58610.179    299.95818   -58910.137   -35474.819 
   15800    286.54166   -58617.229     273.3204   -58890.549   -1672.8516 
   16000    313.68205    -58597.94    299.20851   -58897.148   -16044.208 
   16200     285.2646   -58641.843    272.10227   -58913.946    16685.512 
   16400    312.89571   -58611.862    298.45845    -58910.32    15275.492 
   16600    297.64063   -58611.719    283.90726   -58895.626    -22005.56 
   16800    263.44581   -58645.176    251.29021   -58896.467    7721.8907 
   17000    298.44688   -58599.539    284.67631   -58884.215    -237.1073 
   17200    304.93618   -58617.422    290.86619   -58908.288    20756.557 
   17400    286.00715   -58632.505    272.81056   -58905.315   -2164.1695 
   17600    308.55092   -58588.808    294.31414   -58883.123   -21007.368 
   17800    276.90953   -58618.236     264.1327   -58882.368    -14057.84 
   18000    292.84457   -58633.861    279.33249   -58913.194   -7694.5803 
   18200    308.53738    -58586.42    294.30122   -58880.721   -4424.1986 
   18400    295.08564    -58624.92    281.47016    -58906.39    14669.465 
   18600    297.30947   -58616.564    283.59138   -58900.155    13043.493 
   18800    332.14504   -58564.714    316.81961   -58881.534    35395.173 
   19000    282.66858   -58616.778    269.62603   -58886.404    14085.521 
   19200    283.24999   -58616.163    270.18061   -58886.343    3212.8806 
   19400    317.70008   -58589.574    303.04115   -58892.615   -11023.204 
   19600    271.93269   -58623.514     259.3855   -58882.899    -13463.85 
   19800    305.91801   -58615.836    291.80271   -58907.639   -6090.6964 
   20000    303.35198   -58582.439    289.35508   -58871.794    36071.672 
   20200    319.84637   -58602.126     305.0884   -58907.214   -29302.588 
   20400    281.55931   -58633.895    268.56794   -58902.463    24183.325 
   20600    296.44081   -58626.537    282.76279     -58909.3   -40142.992 
   20800    309.44347    -58596.02    295.16551   -58891.185   -3615.9434 
   21000     288.2347   -58640.186    274.93533   -58915.121   -1136.1841 
   21200    282.30814   -58634.582    269.28222   -58903.864    6237.9148 
   21400    293.35817   -58609.784    279.82239   -58889.606    38791.169 
   21600    302.88594   -58617.141    288.91055   -58906.051   -21746.014 
   21800    300.80247   -58624.256    286.92321   -58911.179    8595.3828 
   22000    290.43761    -58615.93    277.03659   -58892.966   -3890.6146 
   22200    310.41225   -58611.537    296.08958   -58907.627   -9014.2513 
   22400    302.51201   -58638.769    288.55387   -58927.323    9180.2749 
   22600    313.19944   -58617.996    298.74818   -58916.745   -31925.407 
   22800    298.29266   -58594.825    284.52921   -58879.354    33760.418 
   23000    313.59959   -58636.509    299.12986   -58935.639    18559.746 
   23200    306.46545    -58623.24    292.32489   -58915.565    42148.351 
   23400    291.72491   -58604.338    278.26449   -58882.603     19426.53 
   23600     303.0635   -58611.423    289.07991   -58900.503   -20486.933 
   23800    301.80067   -58646.349    287.87535   -58934.225    -40208.61 
   24000     317.8052   -58609.713    303.14142   -58912.855    23153.556 
   24200    294.26959   -58611.953    280.69176   -58892.645    32265.512 
   24400    295.86465   -58638.862    282.21322   -58921.075    -9288.979 
   24600     335.1789    -58612.36    319.71348   -58932.074   -20047.636 
   24800    295.15146   -58615.103    281.53294   -58896.636     24104.29 
   25000     280.7525   -58637.813    267.79836   -58905.611   -8716.4653 
   25200    305.45027   -58625.441    291.35655   -58916.798    9840.3068 
   25400    298.30166   -58602.029    284.53778   -58886.566   -14860.657 
   25600    280.46426   -58632.774    267.52342   -58900.297   -13178.594 
   25800    310.49741   -58604.741    296.17081   -58900.912   -13906.045 
   26000    313.41837   -58606.937      298.957   -58905.894   -7771.3282 
   26200    289.76713    -58636.31    276.39705   -58912.707    2276.1977 
   26400    312.40266   -58597.935    297.98816   -58895.923    3712.1523 
   26600    303.26049   -58603.549    289.26781   -58892.816   -5514.2111 
   26800    289.52605   -58618.736    276.16709   -58894.903     6573.109 
   27000    279.88719   -58641.452    266.97297   -58908.425   -172.24929 
   27200    293.57442   -58621.885    280.02866   -58901.914    10920.715 
   27400    323.13773   -58604.034     308.2279   -58912.262   -13997.327 
   27600    272.22329   -58645.076    259.66269   -58904.739   -21463.925 
   27800     288.4325   -58648.401      275.124   -58923.525   -3232.3966 
   28000    279.52939   -58616.219    266.63168   -58882.851   -12034.032 
   28200    296.51599   -58609.302    282.83451   -58892.136    24750.763 
   28400    282.59051   -58646.163    269.55156   -58915.714    15220.388 
   28600    298.51484   -58617.209    284.74113    -58901.95   -2861.1357 
   28800    295.51917   -58605.691    281.88368   -58887.575    15069.413 
   29000    276.22362   -58627.027    263.47845   -58890.505    44834.495 
   29200    291.02095   -58639.949    277.59301   -58917.542    20787.874 
   29400    308.11519   -58604.989    293.89852   -58898.888    9907.1949 
   29600    293.87286   -58622.032    280.31333   -58902.345     3374.883 
   29800    315.73007   -58621.924    301.16204   -58923.086    1073.7252 
   30000    322.47471   -58577.685    307.59548    -58885.28    6307.1602 
   30200    301.14728   -58626.755    287.25211   -58914.007   -17936.892 
   30400    300.31044   -58625.667    286.45388   -58912.121   -7385.0906 
   30600    309.44669   -58585.013    295.16858   -58880.181    10717.403 
   30800    298.58075   -58624.903      284.804   -58909.707    2639.3572 
   31000    267.52052    -58620.66    255.17691   -58875.837   -3119.0374 
   31200    327.11673   -58590.259     312.0233   -58902.283   -1316.7778 
   31400    294.56807   -58606.559    280.97647   -58887.535    -29490.02 
   31600    281.14423   -58628.224    268.17202   -58896.396     18708.01 
   31800    278.22401   -58657.505    265.38653   -58922.892    19975.029 
   32000    323.04113   -58614.552    308.13576   -58922.688   -27944.634 
   32200    298.96264   -58620.402    285.16827   -58905.571   -5582.1307 
   32400    294.95597   -58642.259    281.34647   -58923.606   -24314.574 
   32600    303.57283   -58596.512    289.56574   -58886.078   -14375.208 
   32800    299.30184   -58627.831    285.49182   -58913.323   -17237.715 
   33000    283.98622   -58634.216    270.88287   -58905.099    4725.7791 
   33200     284.6367   -58618.905    271.50334   -58890.408    47749.958 
   33400    305.96041    -58595.05    291.84316   -58886.893     -13898.5 
   33600    329.69786   -58592.877    314.48534   -58907.363     29020.71 
   33800    287.69671   -58630.575    274.42215   -58904.997     14315.43 
   34000    305.06692   -58623.323    290.99089   -58914.314   -36734.739 
   34200    321.35872   -58578.454    306.53097   -58884.985   -28184.214 
   34400    305.16475    -58623.15    291.08421   -58914.234    20464.042 
   34600    293.49322   -58615.954    279.95121   -58895.906    42282.523 
   34800    332.14986   -58570.444    316.82421   -58887.268   -31687.306 
   35000    305.81032   -58618.569    291.69999   -58910.269    20559.487 
   35200    293.78659   -58638.944    280.23105   -58919.175    -10948.03 
   35400    284.75825   -58602.525    271.61928   -58874.144    2862.0577 
   35600    293.30918    -58612.01    279.77566   -58891.786    6980.0644 
   35800    290.56363   -58623.142    277.15679   -58900.299   -34230.434 
   36000    291.47998   -58605.446    278.03087   -58883.477    9196.8638 
   36200     311.4573    -58606.42    297.08642   -58903.507   -53240.153 
   36400    284.49607   -58629.312     271.3692   -58900.682   -161.99276 
   36600    293.18115   -58613.258    279.65354   -58892.911    14111.792 
   36800    314.13859   -58586.136    299.64399    -58885.78    63014.978 
   37000    302.45814   -58636.726    288.50248   -58925.229    15598.036 
   37200      293.511   -58614.751    279.96817   -58894.719    962.13518 
   37400    333.01312   -58586.497    317.64763   -58904.145   -18389.987 
   37600    300.75067   -58570.485     286.8738   -58857.359    24369.573 
   37800    298.16776   -58620.949    284.41007   -58905.359    12750.339 
   38000    293.34486   -58635.481     279.8097   -58915.291   -29917.667 
   38200    330.30813   -58593.927    315.06745   -58908.994    26139.185 
   38400    292.00517   -58620.478    278.53182    -58899.01   -5080.5939 
   38600     277.4411   -58627.022    264.63975   -58891.662   -16907.019 
   38800    319.87209   -58617.318    305.11294   -58922.431    934.61421 
   39000    294.92469   -58634.229    281.31664   -58915.546    18382.322 
   39200    301.80403   -58618.014    287.87855   -58905.892    11870.394 
   39400    301.73646     -58591.3    287.81411   -58879.114    16136.776 
   39600    263.89775   -58645.056     251.7213   -58896.777    25831.903 
   39800    297.78223   -58628.488    284.04232   -58912.531   -5420.7157 
   40000    314.57822   -58603.844    300.06333   -58903.908    42192.845 
   40200    297.08008   -58646.099    283.37258   -58929.472    29880.665 
   40400    297.89645   -58623.928    284.15128    -58908.08    25363.586 
   40600    299.28885   -58608.598    285.47942   -58894.078    -11319.88 
   40800    304.82454   -58625.479    290.75969   -58916.239    11610.989 
   41000    277.49845   -58656.202    264.69446   -58920.896    15798.964 
   41200    297.48625   -58606.578       283.76   -58890.338   -23222.093 
   41400    294.45839    -58611.17    280.87185   -58892.041    -10631.09 
   41600    272.83896   -58648.907    260.24995   -58909.157   -39502.264 
   41800    298.12308   -58609.856    284.36744   -58894.224   -2951.3807 
   42000    297.71282   -58608.416    283.97612   -58892.392    28302.806 
   42200    292.33933   -58629.916    278.85056   -58908.766   -28067.092 
   42400    276.55364   -58629.139    263.79323   -58892.933   -44633.706 
   42600    303.62858   -58593.937    289.61892   -58883.556    5194.6986 
   42800    294.32735   -58629.233    280.74686   -58909.979    17868.045 
   43000    329.21862   -58588.876    314.02821   -58902.904   -2476.7742 
   43200    291.66591   -58600.133    278.20821   -58878.341   -29034.635 
   43400     273.3571   -58630.554    260.74419   -58891.299    28558.026 
   43600    311.95692   -58585.056    297.56298   -58882.618    9589.7389 
   43800    295.68641   -58598.246    282.04321    -58880.29    8726.7933 
   44000    309.28793   -58619.953    295.01714    -58914.97   -2137.8749 
   44200    301.45646    -58621.89    287.54702   -58909.437    3971.5228 
   44400    324.25381   -58589.091    309.29248   -58898.384   -13491.321 
   44600    289.33975   -58626.278    275.98939   -58902.268   -22936.234 
   44800     294.8456   -58631.449    281.24119    -58912.69   -9480.2775 
   45000    306.68037   -58592.256     292.5299   -58884.785   -776.99695 
   45200    319.55635    -58552.64    304.81177   -58857.452    12687.018 
   45400    299.28232   -58601.932     285.4732   -58887.405    10588.327 
   45600    275.34653   -58639.515    262.64183   -58902.157   -27689.292 
   45800    311.17524   -58602.413    296.81737    -58899.23    17177.116 
   46000    316.57768   -58602.107    301.97054   -58904.078    -13933.07 
   46200    295.32302   -58615.272    281.69659   -58896.969      1436.53 
   46400    290.52392   -58614.191    277.11892    -58891.31   -13663.537 
   46600    314.49988   -58605.973    299.98861   -58905.962    10294.555 
   46800    310.43697   -58608.521    296.11317   -58904.635   -14669.648 
   47000    281.75499   -58636.887     268.7546   -58905.642    35146.183 
   47200    313.58442   -58589.593    299.11539   -58888.709   -16735.442 
   47400    287.29193   -58615.233    274.03606   -58889.269   -23782.406 
   47600    296.89885   -58630.891     283.1997    -58914.09    15002.606 
   47800    297.09657   -58623.721     283.3883   -58907.109    11758.354 
   48000    302.33705   -58610.182    288.38698   -58898.569     2509.616 
   48200    309.24156   -58589.427    294.97291     -58884.4    5478.6019 
   48400    290.63104   -58631.864     277.2211   -58909.085    20546.663 
   48600    302.06765   -58601.809    288.13001   -58889.939   -9676.3809 
   48800    311.50323   -58592.086    297.13022   -58889.216   -15964.736 
   49000    279.57891   -58615.632    266.67892   -58882.311   -28634.449 
   49200    293.14051   -58642.562    279.61477   -58922.177   -7242.7637 
   49400     304.4745   -58638.139    290.42581   -58928.564    17225.903 
   49600    305.06891   -58603.611    290.99279   -58894.604     8430.748 
   49800    289.38264   -58637.829     276.0303   -58913.859    2113.1121 
   50000    304.33983   -58635.834    290.29735   -58926.131   -12815.479 
   50200    299.77975   -58617.782    285.94768    -58903.73   -9455.6054 
   50400    291.31317   -58623.599    277.87175    -58901.47     15045.05 
   50600    313.51954   -58614.779     299.0535   -58913.833    387.03313 
   50800    302.61585    -58615.45    288.65292   -58904.103   -15934.697 
   51000    291.18682   -58648.262    277.75124   -58926.014   -21019.186 
   51200    292.07021   -58611.116    278.59386   -58889.709   -22414.946 
   51400    301.46131   -58612.091    287.55165   -58899.642    25070.513 
   51600    283.78738   -58643.799     270.6932   -58914.492    3630.5618 
   51800    285.69584   -58620.587    272.51361     -58893.1    -53017.93 
   52000    314.69283    -58615.23    300.17266   -58915.403   -31250.631 
   52200    288.10092   -58632.835    274.80771   -58907.643    4570.1824 
   52400    311.22285   -58582.648    296.86278    -58879.51    -9532.047 
   52600      289.691   -58624.749    276.32443   -58901.074    9312.4729 
   52800    310.25884   -58626.607    295.94326   -58922.551    21536.616 
   53000    294.24718   -58608.992    280.67038   -58889.662    36638.078 
   53200    286.11604   -58608.549    272.91442   -58881.464   -26019.827 
   53400    281.56242   -58643.227    268.57091   -58911.798   -17793.635 
   53600    288.84999   -58591.604    275.52222   -58867.126    -14960.49 
   53800    310.31822   -58600.972     295.9999   -58896.971    60167.225 
   54000    306.07836   -58634.504    291.95567   -58926.459    20627.221 
   54200    288.92578   -58662.851    275.59452   -58938.446    17021.064 
   54400    307.28452   -58623.746    293.10617   -58916.852    14524.648 
   54600    315.81528   -58607.029    301.24331   -58908.272    5554.0146 
   54800    295.14032   -58643.283    281.52232   -58924.806    2744.7123 
   55000    308.93335   -58602.833    294.67893   -58897.512   -35250.743 
   55200    288.39494     -58618.4    275.08817   -58893.488   -27256.303 
   55400    296.37243   -58631.827    282.69758   -58914.524    14536.469 
   55600    310.93191    -58579.09    296.58526   -58875.676    17365.549 
   55800    313.20278   -58618.349    298.75136     -58917.1   -26747.313 
   56000     291.8722   -58627.129    278.40499   -58905.534    8595.8326 
   56200    325.79274   -58583.025    310.76041   -58893.786   -22574.457 
   56400    292.77385   -58619.939    279.26503   -58899.204    12748.965 
   56600    328.09086   -58609.057    312.95249    -58922.01    -353.3339 
   56800    321.23979   -58590.992    306.41753    -58897.41     3493.181 
   57000    278.47018   -58628.654    265.62135   -58894.276    2367.5099 
   57200    300.37794    -58608.93    286.51827   -58895.449    18740.459 
   57400    326.80711   -58585.235    311.72798   -58896.963      16445.6 
   57600     291.8679   -58637.058    278.40089   -58915.459    16315.696 
   57800    283.82833   -58607.049    270.73227   -58877.782    -33436.72 
   58000    295.46819   -58608.198    281.83506   -58890.033    18902.918 
   58200    273.98345   -58635.375    261.34164   -58896.717   -13085.894 
   58400    321.54259   -58596.142    306.70636   -58902.849   -7571.7681 
   58600    296.82599   -58645.357    283.13021   -58928.487     12637.97 
   58800    285.26638   -58624.016    272.10397    -58896.12   -4195.9291 
   59000     296.0552   -58603.212    282.39498   -58885.607    14606.307 
   59200    303.16784   -58644.881    289.17943   -58934.061   -34722.753 
   59400    298.43117   -58624.043    284.66132   -58908.704   -23602.868 
   59600    299.06144   -58611.373    285.26251   -58896.635   -25104.751 
   59800    300.98375   -58581.143    287.09613   -58868.239    9595.5031 
   60000    308.02207   -58623.454    293.80969   -58917.264    15509.584 
   60200    282.25175   -58630.267    269.22843   -58899.495   -5707.7595 
   60400    318.34029    -58584.25    303.65182   -58887.902   -12805.668 
   60600    327.14289   -58607.329    312.04826   -58919.377   -14189.124 
   60800    284.23086   -58627.422    271.11623   -58898.539   -2186.0652 
   61000    308.14078   -58591.335    293.92292   -58885.258    16097.082 
   61200    280.84022    -58635.12    267.88203   -58903.002     19227.28 
   61400    309.41486   -58621.525    295.13822   -58916.663   -43829.893 
   61600    319.56789   -58594.359    304.82278   -58899.181    20027.421 
   61800    295.68904   -58609.378    282.04572   -58891.424   -16336.302 
   62000     279.8091    -58639.49    266.89849   -58906.388    13746.532 
   62200    307.76877     -58597.9    293.56808   -58891.468   -3178.0558 
   62400    313.51635   -58607.261    299.05046   -58906.311    7690.5475 
   62600    301.80204   -58617.229    287.87666   -58905.106    5358.0844 
   62800    290.94363    -58634.05    277.51926   -58911.569    13014.667 
   63000    314.39517   -58592.395    299.88873   -58892.284   -16939.602 
   63200    321.26255   -58610.488    306.43924   -58916.927   -34949.533 
   63400    303.86626   -58624.731    289.84563   -58914.577    14838.668 
   63600    324.57638     -58594.5    309.60017     -58904.1     12199.26 
   63800    315.31559   -58616.245    300.76668   -58917.012    6839.3175 
   64000    294.88148   -58624.638    281.27542   -58905.914    -10866.89 
   64200     317.2719   -58594.947    302.63272    -58897.58    12119.586 
   64400    289.55605    -58643.04     276.1957   -58919.236    32935.005 
   64600    307.38544   -58616.809    293.20244   -58910.012     -23170.3 
   64800    299.98464   -58600.718    286.14311   -58886.861    26242.446 
   65000    272.07478   -58650.983    259.52103   -58910.504   -35479.822 
   65200    308.16915   -58631.783    293.94998   -58925.733    5729.7761 
   65400     302.5087   -58605.906    288.55072   -58894.457    6032.9108 
   65600    291.23299   -58622.218    277.79527   -58900.013   -9273.7756 
   65800    268.41719   -58644.999    256.03221   -58901.032   -238.33092 
   66000    315.84815   -58596.806    301.27467    -58898.08    14073.837 
   66200     284.7437   -58620.775     271.6054    -58892.38    -19650.49 
   66400    277.89539   -58663.422    265.07308   -58928.495    7836.2342 
   66600    284.07557   -58649.033     270.9681   -58920.001    7886.5062 
   66800    296.74546    -58614.45    283.05339   -58897.504        13164 
   67000    308.20741   -58613.589    293.98648   -58907.575    10575.312 
   67200    287.65056    -58645.36    274.37814   -58919.738   -3021.6465 
   67400    311.31052   -58611.795    296.94641   -58908.741    7108.7208 
   67600    314.27685   -58619.346    299.77587   -58919.121    25077.787 
   67800    283.06384    -58658.45    270.00305   -58928.453    1816.6877 
   68000    293.51732   -58622.535     279.9742    -58902.51   -8500.6853 
   68200    297.49648   -58606.337    283.76976   -58890.106    4814.5983 
   68400    277.95205   -58653.816    265.12713   -58918.943   -9171.0017 
   68600    314.72208    -58619.65    300.20056   -58919.851    27918.092 
   68800    319.04842   -58616.343    304.32727    -58920.67   -28230.928 
   69000    277.34621   -58621.095    264.54924   -58885.644    7080.0345 
   69200    311.27821   -58610.524    296.91559    -58907.44   -1801.1459 
   69400    306.08969   -58632.471    291.96648   -58924.438   -9735.6657 
   69600    303.37606   -58633.409    289.37805   -58922.787    5268.2588 
   69800    313.33792   -58606.097    298.88026   -58904.977   -37130.866 
   70000    305.68168   -58629.093    291.57728   -58920.671   -21837.024 
   70200    277.34035   -58654.379    264.54365   -58918.923    12388.321 
   70400    301.76623   -58616.473     287.8425   -58904.315   -21480.334 
   70600    297.78127   -58605.641    284.04141   -58889.682   -37472.095 
   70800    323.16843   -58618.279    308.25719   -58926.536   -17236.856 
   71000    299.08234   -58637.961    285.28244   -58923.244    30839.895 
   71200    314.92198    -58593.53    300.39123   -58893.922    8398.7439 
   71400    296.81754    -58609.95    283.12215   -58893.072     11545.29 
   71600     296.4336   -58625.658    282.75592   -58908.414   -23126.548 
   71800    312.32058   -58618.977    297.90987   -58916.887    36239.178 
   72000    320.31784   -58591.166    305.53812   -58896.704    8617.8489 
   72200    293.03272   -58629.948    279.51197   -58909.459    2253.7288 
   72400    297.28269   -58626.323    283.56584   -58909.888   -55910.784 
   72600    317.22922   -58593.053    302.59201   -58895.645   -26342.459 
   72800    320.99086   -58596.636    306.18009   -58902.816    33920.116 
   73000    297.10371   -58633.875    283.39511    -58917.27   -24855.148 
   73200    326.69032   -58594.812    311.61657   -58906.429    20403.179 
   73400    278.40052   -58618.019    265.55491   -58883.574    1942.1472 
   73600    291.04371   -58629.301    277.61472   -58906.916     13134.86 
   73800    299.59062   -58598.497    285.76727   -58884.264   -3476.1916 
   74000    310.97085   -58621.811    296.62242   -58918.433    7402.7768 
   74200    287.33477   -58630.841    274.07692   -58904.917   -13991.834 
   74400    294.56061   -58607.572    280.96935   -58888.542    19474.522 
   74600    304.59714   -58616.149    290.54279   -58906.692    18484.718 
   74800    307.04888   -58618.977     292.8814   -58911.858   -11051.291 
   75000    262.56321   -58669.645    250.44833   -58920.094    16829.679 
   75200    277.70745   -58641.823    264.89381   -58906.717     19978.62 
   75400     306.9006   -58605.652    292.73996   -58898.392   -28222.828 
   75600    306.48439   -58629.208    292.34296   -58921.551    2444.8949 
   75800    277.58775   -58633.592    264.77964   -58898.371   -38763.614 
   76000    307.92156    -58610.17    293.71382   -58903.884   -20930.837 
   76200    295.60058   -58626.398    281.96134   -58908.359     482.0246 
   76400    272.93436   -58656.786    260.34095   -58917.127   -5365.8525 
   76600    295.74202   -58613.437    282.09625   -58895.533    36546.663 
   76800    293.95016   -58612.115    280.38707   -58892.502   -8623.7653 
   77000    306.22083   -58626.249    292.09156   -58918.341   -12629.585 
   77200    288.06668    -58637.72    274.77506   -58912.495    12241.528 
   77400    316.30256    -58595.42    301.70811   -58897.128   -9250.7533 
   77600    296.46371   -58611.982    282.78464   -58894.767    14683.171 
   77800    289.86021   -58638.998    276.48583   -58915.484    47382.397 
   78000    291.58151   -58606.997    278.12771   -58885.125    6834.5382 
   78200    318.59921   -58600.005    303.89879   -58903.904    21853.484 
   78400    294.29425   -58638.662    280.71528   -58919.377    10242.118 
   78600    311.37361   -58600.187    297.00659   -58897.193   -21214.299 
   78800    299.53486   -58611.738    285.71408   -58897.452   -22033.251 
   79000    276.75562   -58636.966     263.9859   -58900.952   -56780.334 
   79200      324.509   -58606.885     309.5359   -58916.421   -17374.233 
   79400    307.46332   -58611.229    293.27672   -58904.505    9208.6071 
   79600    281.30295   -58639.914    268.32341   -58908.238    16158.519 
   79800    327.02381   -58605.175    311.93467   -58917.109    -3754.241 
   80000    290.08261   -58617.271    276.69797   -58893.969    8815.7123 
   80200    283.42532   -58617.769    270.34785   -58888.117    12854.792 
   80400    324.30848   -58584.022    309.34463   -58893.367    2226.7471 
   80600    290.88011   -58627.606    277.45868   -58905.065    49812.559 
   80800    283.89898   -58610.889    270.79966   -58881.688    2054.3907 
   81000    296.00266    -58596.51    282.34486   -58878.855     2253.064 
   81200    293.07121    -58643.66    279.54868   -58923.208   -16749.471 
   81400    305.52985   -58604.035    291.43246   -58895.468   -3348.4513 
   81600    288.25109   -58631.707    274.95096   -58906.658     10039.66 
   81800    261.49254   -58644.416    249.42707   -58893.843    42722.304 
   82000    312.85779   -58605.662    298.42228   -58904.084   -54147.754 
   82200    295.08386    -58619.76    281.46846   -58901.228    13904.294 
   82400    298.36642   -58642.431    284.59956   -58927.031   -12271.439 
   82600    291.82182   -58616.186    278.35693   -58894.543    15975.705 
   82800    305.45807    -58599.19    291.36399   -58890.554   -12281.343 
   83000    306.75179     -58583.6    292.59802   -58876.198    29347.443 
   83200    300.77775   -58628.495    286.89963   -58915.395   -42164.074 
   83400      296.366   -58607.872    282.69144   -58890.563    13589.744 
   83600    323.38122   -58583.813    308.46016   -58892.273    13504.283 
   83800    301.10976   -58617.762    287.21632   -58904.978   -437.41806 
   84000    305.00498   -58622.622    290.93181   -58913.554    28515.433 
   84200    325.64328   -58580.564    310.61784   -58891.182    10564.915 
   84400    302.83624   -58625.394    288.86314   -58914.257   -11917.173 
   84600    301.06023   -58623.726    287.16908   -58910.895   -12279.955 
   84800    320.29734   -58579.007    305.51857   -58884.525   -2142.3671 
   85000    327.22525   -58620.201    312.12682   -58932.328    21851.661 
   85200    295.01438   -58612.945    281.40218   -58894.348   -24300.474 
   85400    310.19855   -58612.448    295.88574   -58908.334    -10057.54 
   85600    293.83928   -58638.256    280.28131   -58918.538    30810.742 
   85800     314.4964   -58593.338    299.98529   -58893.324   -15641.056 
   86000    310.94495   -58612.365    296.59771   -58908.962   -5187.8122 
   86200     291.7061   -58623.038    278.24655   -58901.284    7907.4235 
   86400    300.42206   -58606.198    286.56035   -58892.759    10823.947 
   86600    293.48776   -58639.496    279.94601   -58919.442    28660.848 
   86800    305.90252   -58614.054    291.78794   -58905.842    20077.337 
   87000     322.8201   -58608.756    307.92492    -58916.68    7415.4524 
   87200    280.59414   -58633.392    267.64731   -58901.039    13070.814 
   87400    283.69417   -58652.958     270.6043   -58923.562   -28491.131 
   87600    296.74742   -58615.791    283.05526   -58898.846   -11420.735 
   87800    312.94641   -58598.165    298.50682   -58896.671   -14206.914 
   88000    309.41636   -58591.521    295.13965    -58886.66   -22370.136 
   88200    308.31715   -58625.291    294.09116   -58919.382    37815.124 
   88400    315.72047   -58595.242    301.15288   -58896.395   -37512.403 
   88600    304.99372   -58625.199    290.92107    -58916.12    9506.6962 
   88800    291.29079   -58630.159    277.85041   -58908.009    22190.476 
   89000    279.90037   -58600.929    266.98555   -58867.915    32870.873 
   89200    295.92615   -58618.002    282.27189   -58900.273    23328.747 
   89400    310.96812   -58617.091     296.6198    -58913.71    1223.1984 
   89600    315.34462   -58583.082    300.79438   -58883.876   -7640.1857 
   89800    292.13894   -58629.368    278.65942   -58908.027     10242.13 
   90000    300.24934   -58627.618     286.3956   -58914.014    -21314.44 
   90200    325.62015     -58588.4    310.59578   -58898.996    36642.847 
   90400    278.86848   -58637.371    266.00127   -58903.372    16926.712 
   90600     295.2361   -58617.906    281.61368    -58899.52   -20775.767 
   90800    324.27723   -58602.031    309.31482   -58911.346   -12363.049 
   91000    292.16603   -58645.297    278.68526   -58923.982    23638.941 
   91200    287.64771   -58610.093    274.37542   -58884.469   -366.13938 
   91400    316.38475   -58616.724    301.78651   -58918.511    14701.155 
   91600    281.58868   -58661.713    268.59596   -58930.309   -13833.661 
   91800    288.50585   -58625.367    275.19397   -58900.561   -21319.971 
   92000    287.17875   -58606.387    273.92809   -58880.315    7881.2999 
   92200    322.42315   -58573.355    307.54629   -58880.901    7566.4183 
   92400    298.36243   -58616.391    284.59575   -58900.987   -37187.164 
   92600    291.42987   -58617.638    277.98307   -58895.621   -1116.6471 
   92800    332.18378   -58578.349    316.85656   -58895.205   -43614.141 
   93000     287.5192   -58628.228    274.25284   -58902.481    7100.8371 
   93200    299.45669   -58615.497    285.63952   -58901.137     17520.65 
   93400    303.31551   -58592.134     289.3203   -58881.454    25663.429 
   93600    287.42434   -58643.271    274.16236   -58917.433   -2825.2341 
   93800    296.73678   -58607.675    283.04511   -58890.721   -451.29374 
   94000    298.29256   -58621.615    284.52911   -58906.144   -16629.697 
   94200    289.74685   -58650.941     276.3777   -58927.319   -669.12429 
   94400    299.90805    -58618.13    286.07005     -58904.2   -58704.828 
   94600    309.51576    -58600.02    295.23446   -58895.255   -9304.3988 
   94800    324.60347   -58584.884    309.62601    -58894.51    19962.673 
   95000    305.83277   -58630.266    291.72141   -58921.987    35235.707 
   95200    294.39697   -58619.214    280.81326   -58900.028   -15607.522 
   95400    322.17519   -58583.808    307.30978   -58891.117    668.92715 
   95600    292.78224   -58612.547    279.27304    -58891.82    2013.5863 
   95800     296.2638   -58627.898    282.59395   -58910.492   -41066.456 
   96000    302.79855   -58583.671    288.82719   -58872.498    20305.632 
   96200    294.53476   -58619.272     280.9447   -58900.217   -323.46394 
   96400    302.71925   -58621.389    288.75154    -58910.14   -5287.1422 
   96600    323.37907   -58574.586    308.45811   -58883.044    14986.451 
   96800    317.49935   -58604.926    302.84968   -58907.775   -15284.243 
   97000    297.13958   -58627.393    283.42932   -58910.822    32754.057 
   97200    287.41008   -58647.245    274.14875   -58921.394    5659.8182 
   97400    301.09439   -58606.701    287.20166   -58893.902    12239.495 
   97600    289.65851   -58611.577    276.29344   -58887.871    2316.8543 
   97800    270.53849   -58654.834    258.05563    -58912.89    18928.216 
   98000    291.97102   -58628.114    278.49925   -58906.614    38113.044 
   98200    296.37369   -58596.151    282.69878    -58878.85    20492.484 
   98400    286.47303   -58622.311    273.25494   -58895.566    12327.312 
   98600     308.1021   -58630.199    293.88603   -58924.085   -13419.383 
   98800    314.08955   -58602.134    299.59722   -58901.732    16914.952 
   99000    311.04692   -58612.113    296.69497   -58908.808   -8138.8309 
   99200     270.2019    -58639.91    257.73457   -58897.645   -42157.684 
   99400    309.27462   -58614.021    295.00445   -58909.025   -15990.933 
   99600     313.4599   -58605.032    298.99662   -58904.029    23661.198 
   99800    291.80333   -58637.309    278.33929   -58915.648   -12064.354 
  100000    300.27374   -58624.581    286.41888       -58911    11891.494 
  100200    304.66096   -58610.934    290.60366   -58901.538   -27531.467 
  100400    323.03632   -58588.459    308.13117    -58896.59   -5281.1023 
  100600    284.91432   -58629.586    271.76815   -58901.354    340.71374 
  100800    304.97152   -58625.851     290.8999   -58916.751    -10682.19 
  101000    314.85334    -58572.17    300.32576   -58872.496    12222.678 
  101200    294.07524    -58597.55    280.50638   -58878.057   -25758.036 
  101400    301.70533   -58631.854    287.78441   -58919.638   -1112.0596 
  101600     310.3226   -58599.653    296.00408   -58895.657     10475.67 
  101800    320.87449   -58600.893    306.06909   -58906.963    11040.533 
  102000    279.45563   -58623.855    266.56133   -58890.416    19366.898 
  102200    319.68883    -58608.52    304.93814   -58913.458   -17568.906 
  102400    312.45813   -58574.581    298.04107   -58872.622   -38170.294 
  102600    298.83563   -58618.426    285.04712   -58903.473   -5281.4071 
  102800    279.15105   -58631.955     266.2708   -58898.226   -29044.669 
  103000    321.99772   -58583.977    307.14049   -58891.118   -16382.678 
  103200    302.79675   -58612.633    288.82547   -58901.458     5571.125 
  103400    285.71419   -58617.052    272.53111   -58889.584    1979.3671 
  103600    290.62746   -58650.185    277.21768   -58927.403    23237.296 
  103800    300.38113   -58616.241    286.52131   -58902.762    47660.616 
  104000    324.85476    -58610.14    309.86571   -58920.006    14258.227 
  104200    294.05921   -58638.631    280.49109   -58919.122   -4888.6926 
  104400    295.57095   -58640.104    281.93308   -58922.037   -22668.175 
  104600    301.16855   -58604.157     287.2724    -58891.43   -6499.9496 
  104800    288.62049   -58633.951    275.30331   -58909.254     18489.48 
  105000    277.79131    -58655.58     264.9738   -58920.554    11362.781 
  105200    307.51746   -58604.279    293.32836   -58897.607    11403.906 
  105400    286.02595   -58623.956    272.82849   -58896.784   -2069.0837 
  105600    283.84307   -58656.446    270.74633   -58927.192      24734.7 
  105800    295.05032   -58599.253    281.43647   -58880.689    14915.918 
  106000    292.86381   -58621.114    279.35085   -58900.465   -37018.248 
  106200    289.22486   -58643.673     275.8798   -58919.553    2669.2957 
  106400    318.38682   -58592.218     303.6962   -58895.914    26340.256 
  106600    274.45042   -58625.989    261.78706   -58887.776    3784.1072 
  106800    294.88794   -58622.744    281.28158   -58904.026   -7904.3113 
  107000    314.45566   -58580.916    299.94643   -58880.863   -10700.753 
  107200    298.17407   -58615.258    284.41609   -58899.674    16220.728 
  107400    296.69164   -58621.717    283.00206   -58904.719    19990.559 
  107600    299.41073   -58610.175    285.59569   -58895.771    10598.359 
  107800    277.46819   -58621.701    264.66559   -58886.366   -11812.343 
  108000     287.3193   -58646.225    274.06216   -58920.287    19915.111 
  108200    301.51366   -58610.179    287.60159   -58897.781    -2130.706 
  108400    310.09576   -58608.154     295.7877   -58903.941   -16155.463 
  108600     282.8667   -58652.747    269.81501   -58922.562   -10152.592 
  108800    292.39467   -58625.933    278.90335   -58904.836   -11138.104 
  109000    293.53175   -58617.386    279.98796   -58897.374   -4090.0892 
  109200    305.97283   -58614.194      291.855   -58906.049    -9727.033 
  109400    300.77019   -58604.453    286.89241   -58891.346   -2436.7971 
  109600     294.1338   -58635.958    280.56224   -58916.521   -28511.542 
  109800    304.96343   -58616.965    290.89218   -58907.857   -10338.331 
  110000    290.07964   -58599.444    276.69514   -58876.139   -8291.0788 
  110200    306.05453   -58636.261    291.93294   -58928.194   -11961.931 
  110400    297.93743   -58657.816    284.19036   -58942.006   -12416.286 
  110600    303.98986   -58608.727    289.96353   -58898.691    13640.815 
  110800    315.09055   -58607.155    300.55203   -58907.707    4303.2606 
  111000    303.53824   -58642.044    289.53275   -58931.577    4595.0198 
  111200    326.05553   -58592.818    311.01107   -58903.829    3802.6833 
  111400    289.60426   -58615.497    276.24169   -58891.739    31972.442 
  111600    288.86769   -58667.236    275.53911   -58942.775   -24910.346 
  111800    283.23423   -58652.645    270.16558   -58922.811    25580.533 
  112000    305.94047    -58612.74    291.82414   -58904.564    4235.8631 
  112200     318.9479   -58607.146    304.23139   -58911.377   -3647.9353 
  112400    288.02647   -58649.607    274.73671   -58924.343    29497.453 
  112600    316.33538   -58604.758    301.73942   -58906.497     5148.671 
  112800    291.01577    -58607.04    277.58807   -58884.628   -758.23878 
  113000    293.14438   -58637.219    279.61847   -58916.838   -3448.2644 
  113200    303.62211   -58588.796    289.61275   -58878.409    19249.832 
  113400     286.3059   -58613.545    273.09552    -58886.64    38233.623 
  113600    287.86347   -58615.202    274.58122   -58889.783   -7048.7089 
  113800    309.57265   -58583.725    295.28873   -58879.014   -1567.8946 
  114000    291.57623   -58620.706    278.12267   -58898.828   -24678.026 
  114200    299.44556    -58613.99    285.62891   -58899.618    8965.0183 
  114400    329.08876   -58596.062    313.90434   -58909.966   -20622.787 
  114600    285.61741   -58634.692     272.4388   -58907.131    -15703.79 
  114800    293.28268   -58618.751    279.75039   -58898.502    45583.665 
  115000    300.70505   -58601.124    286.83028   -58887.954   -29523.323 
  115200     288.8759   -58626.238    275.54694   -58901.785    50857.484 
  115400    318.24634   -58600.326    303.56221   -58903.888    4012.3526 
  115600     281.6084   -58613.605    268.61477    -58882.22    6085.4516 
  115800    281.87533   -58633.505    268.86938   -58902.374    15701.657 
  116000    304.15126   -58614.314    290.11748   -58904.431   -5382.9768 
  116200    287.86447   -58616.527    274.58218   -58891.109   -7066.7171 
  116400    300.25817   -58612.577    286.40402   -58898.981    14312.647 
  116600    301.70146   -58613.652    287.78072   -58901.433    10576.606 
  116800    278.06953   -58644.734    265.23919   -58909.973   -11598.177 
  117000    303.73933   -58601.294    289.72456   -58891.018   -7044.9842 
  117200    304.48813   -58622.033    290.43881   -58912.472   -10315.473 
  117400    282.94607     -58628.3    269.89072   -58898.191   -21107.437 
  117600    314.17947   -58610.607    299.68298    -58910.29    1348.0851 
  117800     292.4297   -58625.021    278.93677   -58903.957   -23742.112 
  118000    316.11436   -58585.875     301.5286   -58887.404   -9265.5517 
  118200    306.67667   -58621.151    292.52636   -58913.677    -719.8708 
  118400    279.89217   -58618.893    266.97773   -58885.871    683.73029 
  118600    311.95269   -58585.912    297.55895   -58883.471   -17891.826 
  118800    318.73105   -58607.659    304.02455   -58911.684    11398.835 
  119000    283.97103   -58628.276    270.86838   -58899.144    7100.2594 
  119200    312.26066   -58594.271     297.8527   -58892.124   -10871.626 
  119400    280.98493   -58644.331    268.02006   -58912.351    65968.583 
  119600    307.72796   -58616.656    293.52915   -58910.185    -20271.04 
  119800    324.59234    -58609.93     309.6154   -58919.546    2376.5092 
  120000    267.19647   -58656.987    254.86781   -58911.855   -10933.704 
  120200    308.23662   -58621.481    294.01434   -58915.496    18915.185 
  120400    312.66997   -58611.642    298.24313   -58909.885    5807.3049 
  120600    308.08127   -58607.848    293.86616   -58901.715     21560.01 
  120800    296.84487   -58629.816    283.14821   -58912.964   -36651.968 
  121000    298.35416   -58638.442    284.58787   -58923.029   -12106.082 
  121200    298.32428   -58594.462    284.55937   -58879.022   -40354.472 
  121400    287.59604    -58626.88    274.32614   -58901.206    4820.3996 
  121600    285.36239   -58646.414    272.19554    -58918.61     11323.17 
  121800    301.71899   -58613.604    287.79744   -58901.402   -8825.3939 
  122000    312.00251   -58606.104    297.60647    -58903.71    17450.042 
  122200    279.86091   -58647.203    266.94791   -58914.151    -3680.878 
  122400    307.38608   -58623.963    293.20305   -58917.166   -18965.699 
  122600    307.33337   -58608.214    293.15277   -58901.367    -22096.68 
  122800    293.76164   -58621.605    280.20725   -58901.813   -11938.375 
  123000    284.15322   -58635.717    271.04217   -58906.759    303.55571 
  123200    288.20535   -58606.758    274.90733   -58881.665   -19889.373 
  123400    297.94495   -58615.981    284.19753   -58900.179    9868.4166 
  123600    287.68357   -58632.215    274.40963   -58906.625   -1014.4535 
  123800    276.19965   -58633.619    263.45558   -58897.075   -12641.399 
  124000    284.64295   -58600.683     271.5093   -58872.193   -32173.178 
  124200     286.1968   -58635.067    272.99145   -58908.059    10495.494 
  124400     274.9044   -58667.294     262.2201   -58929.514    2945.6494 
  124600    295.91611   -58626.359    282.26231   -58908.622   -13936.455 
  124800     290.2897   -58593.853     276.8955   -58870.748    837.90607 
  125000    300.43184   -58629.643    286.56968   -58916.212    -47950.62 
  125200    291.34221   -58625.332    277.89945   -58903.231   -18176.208 
  125400    308.55889   -58613.292    294.32174   -58907.614   -2350.7195 
  125600    305.14269   -58609.014    291.06317   -58900.077    15813.562 
  125800    296.60731   -58641.419    282.92162   -58924.341    35373.668 
  126000    305.47707   -58612.291    291.38212   -58903.674    29991.571 
  126200    305.48413   -58602.485    291.38886   -58893.873    38063.735 
  126400    296.63826   -58637.629    282.95114    -58920.58   -32575.042 
  126600    262.96629   -58677.182    250.83282   -58928.014   -2234.6252 
  126800    286.79427   -58627.255    273.56136   -58900.817    12226.637 
  127000    298.68727   -58597.067     284.9056   -58881.973    48244.152 
  127200    286.88392   -58629.954    273.64687   -58903.601    14737.756 
  127400    296.60412    -58626.55    282.91857   -58909.469   -13113.227 
  127600    309.88971   -58613.592    295.59115   -58909.183    5339.1038 
  127800    323.53298   -58605.883    308.60492   -58914.487    16518.319 
  128000    310.39711   -58602.891    296.07514   -58898.966   -11143.109 
  128200    312.00759   -58636.294    297.61131   -58933.906    10330.651 
  128400    297.06817    -58595.85    283.36121   -58879.211    12799.237 
  128600    290.28595   -58605.387    276.89193   -58882.279    11051.108 
  128800    282.41447   -58623.283    269.38364   -58892.667   -13696.563 
  129000    312.39381   -58578.245    297.97971   -58876.225    27516.905 
  129200    292.86798   -58607.229    279.35483   -58886.584   -3035.1222 
  129400    276.00794   -58623.132    263.27271   -58886.405    23129.241 
  129600    328.55465   -58576.383    313.39488   -58889.778   -24464.221 
  129800    307.68132   -58615.596    293.48466    -58909.08    30878.279 
  130000    282.61207   -58622.691    269.57213   -58892.263   -11305.195 
  130200    317.13387   -58588.716    302.50107   -58891.218   -29818.919 
  130400    304.91149   -58624.193    290.84263   -58915.036    10156.481 
  130600     289.4854   -58626.227    276.12831   -58902.355    1720.6386 
  130800    313.13052   -58587.806    298.68244   -58886.488   -22292.313 
  131000    282.31499   -58643.055    269.28876   -58912.343   -9937.8464 
  131200    291.41919    -58612.76    277.97288   -58890.733    24413.552 
  131400    310.29639   -58608.828    295.97907   -58904.807    15157.572 
  131600    286.08032   -58647.004    272.88035   -58919.884    7770.1008 
  131800    308.51357   -58618.191    294.27851   -58912.469   -366.81956 
  132000     311.1991    -58614.33    296.84013    -58911.17   -11343.369 
  132200    291.55126   -58647.649    278.09886   -58925.748    48518.772 
  132400    308.97609   -58607.329    294.71969   -58902.049    14680.248 
  132600    282.29415   -58610.854    269.26888   -58880.123    8198.4427 
  132800    280.55257   -58659.057    267.60766   -58926.665   -21576.955 
  133000    297.30382   -58625.519    283.58599   -58909.105     598.0313 
  133200    299.89173   -58611.987    286.05449   -58898.042   -15277.008 
  133400    314.26325   -58571.958     299.7629   -58871.721    11948.716 
  133600    325.44146   -58620.165    310.42534    -58930.59     22492.35 
  133800    280.39587   -58624.406    267.45818   -58891.865     -12219.8 
  134000    322.29981   -58589.843    307.42865   -58897.272    69110.758 
  134200    308.81878   -58636.935    294.56964   -58931.505    10359.357 
  134400    303.79123   -58621.025    289.77406   -58910.799     1406.943 
  134600    294.77017   -58600.514    281.16924   -58881.684     12305.92 
  134800    302.65322   -58618.717    288.68856   -58907.406     1070.233 
  135000    303.53655    -58616.55    289.53114   -58906.081   -13401.214 
  135200    296.04635   -58585.007    282.38654   -58867.394    2559.0946 
  135400    302.56911   -58618.647    288.60833   -58907.255   -20339.375 
  135600     313.9187   -58608.939    299.43425   -58908.373   -4030.4276 
  135800    310.05756    -58577.11    295.75126   -58872.861    39459.596 
  136000    281.86913   -58622.449    268.86347   -58891.312   -5681.8618 
  136200    303.97872   -58623.432     289.9529   -58913.385    7733.5715 
  136400    323.03597   -58576.243    308.13084   -58884.374    9543.6173 
  136600    314.37852   -58609.519    299.87285   -58909.392   -29905.041 
  136800    295.84931   -58625.417    282.19859   -58907.615    8111.8803 
  137000    286.75825   -58630.194      273.527   -58903.721    4482.0625 
  137200    306.54424   -58587.862    292.40005   -58880.262   -27787.266 
  137400    306.04684   -58623.989     291.9256   -58915.915   -19342.531 
  137600    292.88919    -58624.99    279.37506   -58904.365   -16644.543 
  137800    291.26128   -58592.693    277.82226   -58870.515    29984.352 
  138000    310.61204   -58615.101    296.28016   -58911.381   -24069.912 
  138200     313.8155   -58613.443    299.33581   -58912.779    21768.032 
  138400    290.91909   -58625.527    277.49586   -58903.023   -3433.5576 
  138600    300.57657   -58633.893    286.70773   -58920.601    26906.675 
  138800    333.20188   -58591.639    317.82768   -58909.467   -5587.8442 
  139000    284.73684   -58623.215    271.59886   -58894.814   -29244.614 
  139200    291.92064   -58637.937     278.4512   -58916.388    21556.101 
  139400    300.53234   -58617.421    286.66554   -58904.086   -8485.4544 
  139600    307.81675   -58601.514    293.61384   -58895.128    4566.3297 
  139800    289.31342   -58642.731    275.96427   -58918.695    34642.708 
  140000    319.66332   -58612.668     304.9138   -58917.582   -8961.6988 
  140200    295.72519   -58604.295     282.0802   -58886.375    16098.457 
  140400    283.11654   -58634.217    270.05332    -58904.27   -441.44499 
  140600    279.51099    -58671.31    266.61413   -58937.925    28710.572 
  140800    305.36893   -58619.189    291.27897   -58910.468    24867.037 
  141000    315.44548   -58594.989    300.89058   -58895.879   -9561.8791 
  141200    298.09016   -58636.432    284.33604   -58920.768     28743.09 
  141400    298.80808    -58626.54    285.02084   -58911.561   -11452.746 
  141600    284.52891   -58606.318    271.40052   -58877.718    10268.591 
  141800    304.45274   -58615.158    290.40506   -58905.564    21712.306 
  142000    292.71619   -58652.571    279.21004   -58931.781    8586.1615 
  142200    305.02979   -58634.621    290.95547   -58925.576   -35671.459 
  142400    302.59827   -58610.844    288.63615    -58899.48    17852.463 
  142600    318.37381   -58602.073    303.68379   -58905.757    27649.253 
  142800    314.62736   -58644.117    300.11021   -58944.228    18378.767 
  143000    314.40812   -58606.424    299.90109   -58906.325     2506.632 
  143200      291.655   -58610.611    278.19781   -58888.809   -16041.912 
  143400    287.52981   -58629.593    274.26296   -58903.856   -16554.976 
  143600    275.28942   -58663.266    262.58735   -58925.854    3390.1263 
  143800    304.59045   -58616.724     290.5364    -58907.26    2088.3853 
  144000    288.94667   -58605.326    275.61444   -58880.941    28315.462 
  144200    290.66231   -58641.262    277.25092   -58918.513   -4598.6449 
  144400    293.27976   -58627.014     279.7476   -58906.762   -3945.2606 
  144600    285.72669   -58605.449    272.54304   -58877.992    15551.567 
  144800    305.09893   -58636.091    291.02143   -58927.112    3537.8574 
  145000    289.77712   -58645.711    276.40658   -58922.117   -3959.3826 
  145200    314.54475    -58598.35    300.03141   -58898.382   -22078.907 
  145400    291.98029   -58631.368    278.50809   -58909.876    23932.159 
  145600    286.08058   -58632.017     272.8806   -58904.898    3260.9754 
  145800     303.8798    -58621.95    289.85855   -58911.808    11518.601 
  146000    301.84795   -58617.053    287.92045   -58904.973    32164.447 
  146200    295.62988   -58603.403    281.98929   -58885.393    58439.219 
  146400    295.88424    -58627.11    282.23191   -58909.342    535.90168 
  146600    298.73533   -58639.962    284.95144   -58924.914    19335.603 
  146800    320.78227   -58592.609    305.98112    -58898.59    6350.3725 
  147000    292.53066   -58625.392    279.03306   -58904.425    30990.556 
  147200    292.88305   -58637.834     279.3692   -58917.203   -4846.1767 
  147400    301.86639   -58616.688    287.93804   -58904.626   -10955.928 
  147600    318.70462   -58598.932    303.99934   -58902.931    27065.576 
  147800    284.52449   -58641.823    271.39631   -58913.219    18737.248 
  148000    297.01655   -58616.067    283.31197   -58899.379    7621.1114 
  148200     308.8393   -58605.051    294.58921    -58899.64   -2111.1493 
  148400    298.82636   -58620.349    285.03827   -58905.387    1447.7679 
  148600    288.99086   -58619.027     275.6566   -58894.683   -31051.113 
  148800    311.88093   -58588.801     297.4905   -58886.291   -399.17441 
  149000    293.38568   -58596.188    279.84863   -58876.037    40870.584 
  149200    300.31065   -58622.549    286.45408   -58909.003   -34210.348 
  149400    296.22059   -58622.357    282.55274    -58904.91   -5480.7329 
  149600    311.61961   -58588.059    297.24124     -58885.3    3544.6576 
  149800    289.43676   -58627.731    276.08192   -58903.813   -7381.8801 
  150000    299.57982   -58628.006    285.75697   -58913.763    13076.578 
  150200    309.42036   -58589.554    295.14346   -58884.697   -13857.878 
  150400    312.59452   -58579.248    298.17116   -58877.419   -28053.547 
  150600    300.96903   -58621.186    287.08208   -58908.268   -20319.674 
  150800    287.18418   -58640.204    273.93328   -58914.137    -46295.69 
  151000    302.39711   -58595.204    288.44427   -58883.649    30409.997 
  151200    278.63934   -58622.164    265.78271   -58887.946   -37404.114 
  151400    287.33832   -58625.257     274.0803   -58899.337    9896.3259 
  151600    296.39991   -58616.957    282.72378   -58899.681   -6650.2235 
  151800    321.80171   -58599.808    306.95352   -58906.762   -5570.9619 
  152000    287.89215   -58623.333    274.60858   -58897.942   -15703.968 
  152200    276.11239   -58634.019    263.37235   -58897.391    9348.6826 
  152400    301.14303   -58591.436    287.24805   -58878.684   -49723.108 
  152600    294.37829   -58620.841    280.79545   -58901.637   -16624.499 
  152800    309.00994   -58617.661    294.75197   -58912.413    651.97027 
  153000    299.99499    -58618.47    286.15299   -58904.623    2417.7472 
  153200    297.08981   -58616.221    283.38185   -58899.603   -7275.6298 
  153400    287.11518   -58638.137    273.86746   -58912.004    34164.418 
  153600    293.22495   -58638.317    279.69532   -58918.013    30440.171 
  153800    304.89356    -58606.13    290.82553   -58896.955     16935.53 
  154000    310.91096   -58628.658    296.56529   -58925.223   -16836.976 
  154200    284.83477   -58649.688    271.69227    -58921.38    7886.6056 
  154400    296.97987   -58619.565    283.27698   -58902.842    22057.568 
  154600    311.44271   -58617.096     297.0725   -58914.169   -3294.2148 
  154800    276.77582   -58645.324    264.00516   -58909.329   -14788.068 
  155000    310.78606   -58602.738    296.44615   -58899.184     7024.818 
  155200    305.78685   -58609.713     291.6776   -58901.391    2862.7507 
  155400    291.12223    -58641.36    277.68962    -58919.05    23390.879 
  155600    274.01797    -58666.93    261.37457   -58928.304   -6989.0408 
  155800    291.66459   -58618.743    278.20696    -58896.95    739.86947 
  156000    300.46469   -58593.331    286.60101   -58879.932   -7488.1727 
  156200    288.54827   -58637.903    275.23442   -58913.138    27232.158 
  156400    312.34083   -58622.514    297.92918   -58920.444   -26368.312 
  156600    292.35571    -58603.66    278.86619   -58882.526   -18421.499 
  156800    290.94433   -58619.463    277.51993   -58896.983   -32622.257 
  157000    278.05877   -58622.882    265.22892   -58888.111   -20298.488 
  157200    290.54265   -58638.808    277.13678   -58915.944   -3976.2915 
  157400    305.79361   -58604.049    291.68405   -58895.733   -30993.956 
  157600    289.13425   -58635.514    275.79337   -58911.307    11847.553 
  157800    290.63345   -58635.752     277.2234   -58912.975   -21827.306 
  158000    290.60458    -58615.68    277.19586   -58892.876   -27809.692 
  158200    290.79165   -58619.452     277.3743   -58896.827   -3019.0972 
  158400    278.65954   -58652.088    265.80197    -58917.89    19033.121 
  158600    320.18005   -58608.246    305.40669   -58913.653    2278.7415 
  158800    306.19302   -58612.208    292.06503   -58904.273   -236.29069 
  159000    284.02999   -58660.291    270.92462   -58931.216   -23502.286 
  159200     285.8803   -58635.427    272.68956   -58908.116    29473.105 
  159400    299.46401   -58608.568     285.6465   -58894.214    2248.4845 
  159600    294.35022    -58598.83    280.76867   -58879.599    1626.1685 
  159800    287.19506   -58644.199    273.94365   -58918.143   -11172.694 
  160000     303.9598    -58604.51    289.93486   -58894.445   -26641.383 
  160200    304.70633   -58610.612    290.64694   -58901.259    12873.772 
  160400    286.52547   -58632.715    273.30496    -58906.02    4791.4691 
  160600    293.38976   -58639.095    279.85253   -58918.948   -3031.4466 
  160800     316.8736   -58596.436    302.25281   -58898.689   -5191.2271 
  161000    285.11353   -58625.888    271.95817   -58897.846   -6515.0838 
  161200    282.00303   -58643.786    268.99119   -58912.777    10473.717 
  161400    330.16163   -58599.549    314.92771   -58914.477   -18442.961 
  161600    287.67343   -58628.087    274.39995   -58902.487   -30210.345 
  161800     304.1488   -58623.514    290.11513   -58913.629   -22274.055 
  162000     315.7581   -58584.697    301.18878   -58885.885   -6379.5637 
  162200    298.68308   -58630.729    284.90161   -58915.631   -6066.6918 
  162400    301.56247    -58620.57    287.64814   -58908.218   -23617.553 
  162600     325.0742   -58585.902    310.07502   -58895.977   -34563.807 
  162800    314.17829   -58577.269    299.68186   -58876.951    7017.2365 
  163000     293.4809   -58623.645    279.93946   -58903.585    13952.763 
  163200    301.94063   -58610.358    288.00885   -58898.367   -24022.589 
  163400    309.69589   -58579.973    295.40628   -58875.379    15022.487 
  163600    293.94488    -58613.82    280.38203   -58894.202   -11359.502 
  163800    296.02184   -58621.766    282.36316   -58904.129    36575.619 
  164000    321.14467   -58584.664     306.3268   -58890.991    18885.977 
  164200    282.54384   -58628.423    269.50704    -58897.93   -12732.149 
  164400    301.56295   -58621.596     287.6486   -58909.245    39618.258 
  164600    315.86031   -58581.042    301.28627   -58882.328   -9555.3757 
  164800    318.39052   -58602.804    303.69973   -58906.503    155.39702 
  165000    289.99201   -58629.554    276.61155   -58906.166    2352.4863 
  165200    302.10747    -58599.65      288.168   -58887.818   -4949.9766 
  165400    323.69802   -58583.323    308.76234   -58892.085    6312.0961 
  165600     283.3975   -58635.125    270.32132   -58905.446   -3083.8942 
  165800    316.62527   -58614.008    302.01594   -58916.024   -28511.136 
  166000    303.36921   -58593.782    289.37152   -58883.153   -18065.744 
  166200    315.93777   -58620.966    301.36015   -58922.326   -25113.631 
  166400    299.70937   -58619.311    285.88054   -58905.192    14712.169 
  166600    336.57211    -58570.36    321.04241   -58891.402   -9933.9079 
  166800    317.62204    -58619.83    302.96671   -58922.796   -4786.6209 
  167000    300.18938    -58626.74    286.33841   -58913.078   -14749.579 
  167200    306.11967   -58579.854    291.99507   -58871.849    615.75652 
  167400    302.35855   -58609.523    288.40749    -58897.93   -37242.956 
  167600    310.54278   -58623.763    296.21409   -58919.977    40810.239 
  167800    319.33105   -58582.423    304.59687    -58887.02   -34000.867 
  168000     299.3284   -58613.317    285.51715   -58898.834   -3493.4329 
  168200    299.11202   -58618.435    285.31076   -58903.746   -2113.5745 
  168400    322.04715   -58579.007    307.18764   -58886.195   -18773.662 
  168600    293.13462   -58600.298    279.60916   -58879.907    32327.546 
  168800    288.73426   -58624.133    275.41183   -58899.545    30946.347 
  169000    311.91645   -58588.629    297.52439   -58886.153    4611.2002 
  169200    307.59882    -58602.44    293.40597   -58895.846     20802.33 
  169400    290.97144   -58610.927    277.54579   -58888.473    51301.284 
  169600    281.40713   -58620.504    268.42279   -58888.927    11700.814 
  169800      282.754     -58640.1    269.70751   -58909.807    17905.722 
  170000    318.84362   -58601.087    304.13192   -58905.219   -16438.255 
  170200    295.39946    -58626.62    281.76949   -58908.389    26881.885 
  170400    269.59201   -58659.748    257.15282     -58916.9    22791.374 
  170600    311.73825    -58607.07     297.3544   -58904.425    41335.059 
  170800    278.20616   -58615.884    265.36951   -58881.254   -23815.227 
  171000    285.99573   -58633.626    272.79966   -58906.426    39047.401 
  171200    318.80392   -58591.613    304.09406   -58895.707   -35156.258 
  171400    297.37649   -58620.201    283.65531   -58903.857    25392.076 
  171600    294.20106   -58635.164    280.62639    -58915.79    31025.486 
  171800    312.00394   -58603.711    297.60783   -58901.319    7209.1752 
  172000    273.13923   -58647.058    260.53638   -58907.594   -6557.6941 
  172200    275.35673   -58631.762    262.65156   -58894.414    29750.067 
  172400    283.64626   -58611.918     270.5586   -58882.477    2872.5393 
  172600    330.15087   -58568.079    314.91745   -58882.997   -12569.232 
  172800    302.73895     -58603.3    288.77034    -58892.07    37692.508 
  173000    296.96597   -58628.619    283.26373   -58911.883   -18024.549 
  173200    285.58746   -58636.231    272.41023   -58908.641    17132.046 
  173400    306.76278   -58593.896    292.60851   -58886.504    14832.391 
  173600    280.66951   -58631.492     267.7192   -58899.211   -11352.436 
  173800    300.15455   -58616.968    286.30519   -58903.273     2487.692 
  174000     294.0066   -58612.274    280.44091   -58892.715   -14943.893 
  174200    276.46624   -58654.305    263.70987   -58918.015    17146.548 
  174400    291.95006   -58620.902    278.47926   -58899.382    13187.815 
  174600    318.02966   -58603.004    303.35552    -58906.36    -29201.46 
  174800    271.10176    -58639.59    258.59292   -58898.183   -2129.1852 
  175000    307.93361   -58608.905    293.72531    -58902.63   -22346.019 
  175200    308.48003   -58611.966    294.24652   -58906.213    8310.0611 
  175400    280.97996   -58631.778    268.01532   -58899.794   -5120.5542 
  175600     283.0509   -58648.229    269.99071    -58918.22   -2976.1945 
  175800    307.80921   -58603.747    293.60665   -58897.354    17741.461 
  176000    294.28412   -58618.363    280.70562   -58899.069   -15851.045 
  176200    292.12357   -58655.705    278.64476    -58934.35    11881.566 
  176400    303.97209   -58605.445    289.94658   -58895.391   -8915.3106 
  176600    302.55702   -58604.576     288.5968   -58893.173   -751.73425 
  176800    288.16562   -58648.186    274.86943   -58923.055    16107.993 
  177000    290.66787   -58625.047    277.25622   -58902.303   -5099.2073 
  177200    305.92499   -58605.476    291.80938   -58897.286   -26998.401 
  177400    308.00471   -58596.252    293.79313   -58890.045   -13122.774 
  177600    295.61507    -58638.19    281.97516   -58920.165    63297.221 
  177800    306.48436   -58600.123    292.34293   -58892.466   -4428.4664 
[...]
  950000    292.69345   -58634.131    279.18834    -58913.32      25335.1 
  950200    312.74672   -58598.801    298.31634   -58897.117   -13084.672 
  950400    288.74437   -58652.411    275.42148   -58927.832     -2662.74 
  950600    300.92941   -58616.248    287.04429   -58903.292   -10162.465 
  950800    302.80204    -58613.14    288.83051   -58901.971    -15657.99 
  951000    290.00569   -58644.722     276.6246   -58921.347    28769.084 
  951200    301.14586   -58620.331    287.25075   -58907.581    37099.833 
  951400    309.59277   -58608.213    295.30792   -58903.521    4023.5017 
  951600    295.89912   -58622.712     282.2461   -58904.958   -16598.577 
  951800    294.65419   -58633.163    281.05862   -58914.222   -4053.0127 
  952000    329.45282   -58592.799    314.25161   -58907.051    58277.649 
  952200    291.88173   -58625.657    278.41408   -58904.071     3274.337 
  952400    305.70756   -58633.776    291.60197   -58925.378    17694.952 
  952600    324.59565   -58595.303    309.61855   -58904.921    9878.4923 
  952800    320.81881   -58585.732    306.01598   -58891.748    8977.4491 
  953000    287.63936   -58622.276    274.36746   -58896.644    4313.5529 
  953200     294.9328   -58622.316    281.32437   -58903.641   -16841.616 
  953400    320.99694   -58579.007    306.18589   -58885.193   -19609.272 
  953600    295.91231   -58617.497    282.25869   -58899.755    19957.555 
  953800    302.35854   -58618.932    288.40748   -58907.339   -18879.445 
  954000    319.22539   -58572.329    304.49608   -58876.825    5342.9469 
  954200    321.25483    -58599.35    306.43188   -58905.782    3258.7959 
  954400     299.5568   -58619.881    285.73502   -58905.616    1044.4334 
  954600    288.97933   -58620.427     275.6456   -58896.073   -12810.316 
  954800    324.70754   -58588.668    309.72528   -58898.393   -31.351665 
  955000    282.01793   -58637.199     269.0054   -58906.204   -17195.228 
  955200     294.4175   -58625.825    280.83285   -58906.658   -12476.975 
  955400     294.2636   -58604.289    280.68605   -58884.975    26749.505 
  955600    292.13956    -58609.29    278.66002    -58887.95    26386.852 
  955800    285.44088   -58630.837    272.27042   -58903.108    -18976.63 
  956000    279.86521   -58641.129    266.95201   -58908.081   -1098.0949 
  956200    314.88345   -58596.312    300.35448   -58896.666   -6229.9817 
  956400    300.63294   -58628.842     286.7615   -58915.603    42086.716 
  956600    298.00118   -58630.704    284.25117   -58914.955    18028.901 
  956800    299.38922   -58611.494    285.57516   -58897.069   -31924.005 
  957000    316.23333   -58599.941    301.64207   -58901.583    31746.882 
  957200    300.82624   -58601.585    286.94588   -58888.531    23287.119 
  957400    283.35113   -58634.557    270.27709   -58904.834   -2390.3549 
  957600    321.89851   -58586.299    307.04586   -58893.345   -13760.453 
  957800    292.12718   -58612.495     278.6482   -58891.144    40054.612 
  958000    291.83229   -58627.797    278.36692   -58906.164   -29787.015 
  958200    319.59957   -58582.576    304.85299   -58887.429    31018.024 
  958400    288.25139   -58616.215    274.95125   -58891.166    30017.566 
  958600    312.95292   -58616.606    298.51303   -58915.119    12730.047 
  958800    308.10407    -58580.26     293.8879   -58874.148   -89.115401 
  959000     326.5473   -58596.313    311.48015   -58907.793   -33998.635 
  959200    293.82989   -58613.049    280.27235   -58893.321     -33918.2 
  959400    321.62628   -58593.291    306.78619   -58900.077    4221.2301 
  959600    276.66387   -58634.249    263.89838   -58898.148    17090.081 
  959800    298.07322   -58617.393    284.31989   -58901.713    4360.2449 
  960000    288.75691   -58606.236    275.43344    -58881.67   -7218.7303 
  960200    296.42761    -58608.47    282.75021    -58891.22    32952.569 
  960400    286.51567   -58625.966    273.29561   -58899.262   -24433.825 
  960600    302.76097   -58637.466    288.79134   -58926.258   -22037.127 
  960800    307.56318    -58591.63    293.37197   -58885.002    16412.004 
  961000    305.15773   -58617.387    291.07751   -58908.464    25520.839 
  961200    292.50027   -58636.298    279.00408   -58915.302    9249.9966 
  961400    315.20295   -58601.896    300.65924   -58902.556   -817.17055 
  961600    300.62595   -58617.168    286.75484   -58903.923    7810.2284 
  961800    283.98391   -58664.135    270.88067   -58935.016    32951.066 
  962000    296.96682   -58620.451    283.26454   -58903.715    7068.0131 
  962200    316.86064   -58605.061    302.24044   -58907.301   -9263.7703 
  962400    281.19804   -58650.296    268.22334   -58918.519   -14886.785 
  962600    293.22275   -58623.542    279.69322   -58903.235   -17103.169 
  962800    308.70483   -58612.887    294.46095   -58907.348   -13056.247 
  963000      298.347   -58594.745    284.58103   -58879.326     19112.19 
  963200    291.67993   -58624.622    278.22159   -58902.843    32267.093 
  963400    285.03924   -58635.758    271.88731   -58907.645    6871.8891 
  963600    291.81576   -58586.735    278.35115   -58865.086    8907.0089 
  963800    311.86354   -58622.733    297.47392   -58920.206     9247.313 
  964000    282.29774   -58624.971     269.2723   -58894.243    17429.853 
  964200    320.72433   -58600.553    305.92586   -58906.479   -8544.7244 
  964400    298.47905   -58591.741    284.70699   -58876.448   -6741.0357 
  964600    282.73022   -58636.963    269.68483   -58906.647    55672.042 
  964800    300.33613   -58613.316    286.47838   -58899.794   -13925.568 
  965000    305.48334   -58601.256     291.3881   -58892.645    15268.645 
  965200    301.74205   -58629.879    287.81943   -58917.698   -12564.714 
  965400    311.93843   -58612.663    297.54534   -58910.208    7284.5258 
  965600    314.42902   -58597.027    299.92102   -58896.948    34554.824 
  965800    287.39486   -58632.976    274.13423    -58907.11    -8549.232 
  966000     311.8273   -58614.911    297.43934   -58912.351    27887.171 
  966200    313.60239   -58588.352    299.13253   -58887.484    21614.146 
  966400    296.41185   -58617.279    282.73517   -58900.014   -1523.0102 
  966600    309.14969   -58637.825    294.88528    -58932.71    20585.801 
  966800    304.11481     -58588.7    290.08272   -58878.783    7349.7995 
  967000    309.82159   -58612.799    295.52618   -58908.325   -14084.094 
  967200    306.82857   -58627.634    292.67126   -58920.306   -8308.3993 
  967400    301.50418   -58622.929    287.59254   -58910.522     27545.35 
  967600    306.17356   -58601.315    292.04647   -58893.362   -3612.5593 
  967800    279.54392   -58655.895    266.64554   -58922.541    41167.819 
  968000     307.8876   -58620.534    293.68143   -58914.215     35478.51 
  968200     289.5585   -58599.621    276.19805   -58875.819   -2579.0033 
  968400    292.90069   -58643.434    279.38602    -58922.82   -27570.277 
  968600    282.85121   -58633.826    269.80024   -58903.626   -41239.847 
  968800    311.55911   -58613.827    297.18352   -58911.011   -27771.603 
  969000    295.73142   -58631.155    282.08614   -58913.241     19466.48 
  969200    293.46862   -58648.311    279.92774   -58928.238    5015.4802 
  969400    309.03047   -58612.072    294.77156   -58906.844   -10508.779 
  969600    280.21921    -58620.89    267.28968    -58888.18   -14551.945 
  969800    295.75707   -58652.004     282.1106   -58934.114    30489.611 
  970000    317.98345   -58606.114    303.31144   -58909.426   -1839.4042 
  970200    298.76684   -58611.856     284.9815   -58896.838    36684.514 
  970400    282.21131   -58640.052    269.18986   -58909.242    -36243.68 
  970600    290.89277   -58617.611    277.47075   -58895.082   -12505.467 
  970800    307.50827   -58599.437     293.3196   -58892.756    36914.519 
  971000    277.16318   -58640.932    264.37466   -58905.307    6421.6231 
  971200    294.13382    -58636.37    280.56226   -58916.932    12022.791 
  971400    305.00823   -58597.245    290.93491    -58888.18   -6137.4889 
  971600    283.90724   -58622.507    270.80753   -58893.314    5351.8055 
  971800    270.09602   -58634.692    257.63358   -58892.325   -38071.966 
  972000    311.59885   -58592.845    297.22144   -58890.066   -40782.965 
  972200    293.66449   -58618.454    280.11458   -58898.568   -25092.414 
  972400     270.5213   -58649.847    258.03924   -58907.887    41451.598 
  972600    307.79363   -58600.414    293.59179   -58894.006   -16526.418 
  972800    286.14093   -58600.729    272.93817   -58873.668   -6360.7913 
  973000    294.79729    -58636.14    281.19511   -58917.335    18342.756 
  973200    297.48844   -58616.514    283.76209   -58900.276    29583.627 
  973400     316.8346   -58612.565     302.2156   -58914.781    16106.461 
  973600    301.15349   -58627.307    287.25803   -58914.565   -7696.4162 
  973800    274.01602   -58648.888    261.37271    -58910.26   -1322.3122 
  974000    303.99498   -58604.366    289.96841   -58894.335    18526.997 
  974200    317.95735   -58623.078    303.28655   -58926.364   -19691.872 
  974400    265.23529   -58653.645    252.99712   -58906.642   -25431.457 
  974600    314.89185   -58602.945     300.3625   -58903.307   -23361.149 
  974800     299.5314   -58614.337    285.71079   -58900.048   -18966.541 
  975000    277.69637   -58651.135    264.88324   -58916.019    38497.788 
  975200    311.65476   -58606.761    297.27477   -58904.036   -39554.744 
  975400    311.12197   -58604.297    296.76656   -58901.064    3634.9973 
  975600    286.01549   -58645.509    272.81851   -58918.327    11020.668 
  975800    299.18548   -58596.755    285.38083   -58882.136    17659.193 
  976000    295.56948   -58605.458    281.93167    -58887.39    37892.257 
  976200    301.48854   -58638.931    287.57762   -58926.508    9098.9178 
  976400    309.88848    -58608.52    295.58998    -58904.11    7483.0936 
  976600     295.3114   -58594.032     281.6855   -58875.717    26806.953 
  976800    291.81674    -58634.38    278.35209   -58912.732    42846.542 
  977000    286.25336   -58617.634     273.0454   -58890.679   -20736.269 
  977200    306.46969   -58607.236    292.32894   -58899.565   -13040.734 
  977400     299.1153   -58620.951    285.31389   -58906.265   -15990.163 
  977600    251.90297   -58657.131    240.27997   -58897.411    17985.536 
  977800    304.11466   -58620.875    290.08257   -58910.958   -15249.827 
  978000    307.85661   -58607.091    293.65187   -58900.743   -1282.7422 
  978200     279.3135   -58616.305    266.42576   -58882.731    6883.8427 
  978400    289.79385   -58639.068    276.42254   -58915.491     30561.22 
  978600     297.7157   -58625.022    283.97887   -58909.001   -22704.604 
  978800    305.56913   -58598.496    291.46993   -58889.966   -3703.0866 
  979000    273.62677   -58638.259    261.00141    -58899.26   -22188.686 
  979200    292.34487    -58618.91    278.85585   -58897.766   -6013.7868 
  979400    322.05066   -58609.045    307.19099   -58916.236    32049.441 
  979600    305.72786   -58616.016    291.62134   -58907.637    41830.225 
  979800    281.68282    -58631.37    268.68575   -58900.056   -8418.9283 
  980000    298.81447   -58618.708    285.02693   -58903.735   -14938.379 
  980200    315.47298   -58592.985    300.91681   -58893.902    15993.387 
  980400    276.17882   -58644.116    263.43571   -58907.552   -17456.571 
  980600      318.821   -58618.223    304.11035   -58922.333   -11919.047 
  980800     310.3336   -58594.936    296.01456   -58890.951   -607.87753 
  981000    322.04029   -58578.699     307.1811    -58885.88    11773.754 
  981200     291.3708   -58625.882    277.92672   -58903.809   -5986.9253 
  981400    290.46519   -58629.873     277.0629   -58906.936   -11152.481 
  981600    325.28214   -58584.529    310.27337   -58894.803    15424.661 
  981800    298.63597   -58621.492    284.85668   -58906.349    2839.1565 
  982000    295.17741   -58622.254    281.55769   -58903.811   -12736.276 
  982200    313.26125   -58588.729    298.80713   -58887.536    12677.531 
  982400    308.52285   -58609.871    294.28737   -58904.159   -10918.262 
  982600    302.33547   -58627.784    288.38547   -58916.169   -4837.5915 
  982800    305.06076   -58591.253    290.98502   -58882.238    -15486.08 
  983000    282.98938   -58621.254    269.93203   -58891.186    1620.9418 
  983200    298.64872    -58629.94    284.86884   -58914.809    43756.533 
  983400    305.67845   -58594.448     291.5742   -58886.022   -7147.1537 
  983600    292.77455   -58636.889    279.26571   -58916.154    29049.962 
  983800    324.91545   -58627.856     309.9236    -58937.78   -13843.456 
  984000    298.17794   -58598.624    284.41977   -58883.043    44209.091 
  984200    301.76321   -58615.488    287.83962   -58903.328    12378.465 
  984400    293.91702   -58620.271    280.35546   -58900.626    1453.3943 
  984600    296.01079   -58623.533    282.35262   -58905.886   -30263.608 
  984800     301.6271   -58615.326    287.70979   -58903.036   -10807.891 
  985000     311.8281    -58594.48     297.4401    -58891.92   -11062.037 
  985200    277.67731   -58638.487    264.86506   -58903.352   -11354.908 
  985400    303.96512   -58609.194    289.93993   -58899.134    27051.458 
  985600     298.6199   -58603.438    284.84135   -58888.279   -14916.245 
  985800      306.282   -58622.567     292.1499   -58914.716   -8305.4361 
  986000    306.66505    -58617.74    292.51528   -58910.255    23582.186 
  986200     312.0401   -58589.758    297.64232     -58887.4    27186.564 
  986400    294.11084   -58635.492    280.54033   -58916.032    543.59322 
  986600    299.52769   -58623.428    285.70725   -58909.136     24906.83 
  986800    323.78652   -58601.531    308.84676   -58910.378   -17308.245 
  987000    302.46856   -58587.614    288.51242   -58876.126    60460.522 
  987200    293.91799    -58632.85    280.35639   -58913.206    49137.933 
  987400    299.23668   -58619.614    285.42967   -58905.043    1374.8717 
  987600    300.38327   -58590.066    286.52335    -58876.59    37346.141 
  987800     283.3806    -58624.62     270.3052   -58894.926    21360.408 
  988000    301.33444   -58612.915    287.43063   -58900.346    19324.509 
  988200    318.49485   -58571.568    303.79924   -58875.367    -19006.44 
  988400    312.61667   -58611.365    298.19229   -58909.557    17599.648 
  988600    314.07151   -58629.681       299.58   -58929.261   -22759.251 
  988800    293.15572   -58593.003    279.62928   -58872.632     27063.74 
  989000    309.67559   -58613.073    295.38691    -58908.46    17979.534 
  989200    289.61867   -58624.945    276.25543   -58901.201    -6416.472 
  989400    301.18447   -58611.699    287.28758   -58898.986   -26123.961 
  989600    309.15974   -58577.831    294.89486   -58872.726   -7267.8628 
  989800    285.53185   -58624.325    272.35719   -58896.682    8496.0541 
  990000    305.09708   -58616.187    291.01967   -58907.206    3740.4892 
  990200    325.19315   -58604.921    310.18848    -58915.11   -31075.151 
  990400    308.58721    -58622.62    294.34875   -58916.969   -16261.542 
  990600    286.21703   -58644.178    273.01075   -58917.189   -16656.862 
  990800    312.35534   -58599.164    297.94302   -58897.107    1370.4475 
  991000    297.65311   -58626.695    283.91916   -58910.614    3416.3517 
  991200    306.39341   -58631.372    292.25617   -58923.629    7995.6537 
  991400    312.32269   -58587.393    297.91187   -58885.305   -652.05925 
  991600    309.81874   -58627.488    295.52346   -58923.012    1608.5163 
  991800    296.56599   -58625.569    282.88221   -58908.451   -3672.9951 
  992000    304.19149   -58599.136    290.15586   -58889.291    -5732.956 
  992200    297.21587   -58617.773     283.5021   -58901.276   -7931.0304 
  992400    307.30745   -58633.243    293.12805   -58926.371   -25380.578 
  992600    307.77601   -58590.643    293.57498   -58884.218   -16154.449 
  992800     297.1866   -58638.924    283.47417   -58922.398   -36875.836 
  993000    309.44327   -58622.713    295.16531   -58917.878    20771.973 
  993200     309.9766   -58601.672    295.67404   -58897.346   -19357.805 
  993400     280.0423    -58645.66    267.12093   -58912.781    309.06883 
  993600    285.95937   -58617.534    272.76498   -58890.299    12266.897 
  993800    301.68864    -58612.56    287.76849   -58900.328    6740.9171 
  994000    322.39707   -58586.316    307.52142   -58893.837   -19779.182 
  994200    300.39925   -58606.937    286.53859   -58893.476    -15722.87 
  994400    284.05049   -58628.056    270.94417   -58899.001   -4914.7337 
  994600    322.54934   -58583.721    307.66666   -58891.387    1290.7151 
  994800    317.99538   -58601.221    303.32282   -58904.544    18242.711 
  995000     304.9218   -58627.158    290.85247   -58918.011    -13208.43 
  995200    307.43085   -58585.425    293.24575   -58878.671   -9894.2925 
  995400    321.03203   -58601.821    306.21936   -58908.041   -4291.9679 
  995600    298.84236   -58621.294    285.05353   -58906.347    11695.816 
  995800    303.70317   -58616.632    289.69007   -58906.322    37995.515 
  996000    302.47386   -58596.964    288.51748   -58885.481   -2218.7256 
  996200    283.49414   -58639.008     270.4135   -58909.421    17803.697 
  996400    296.64588   -58624.423    282.95841   -58907.381   -2381.8408 
  996600    293.27724   -58619.967     279.7452   -58899.713     24381.65 
  996800    308.45171   -58573.852    294.21951   -58868.071   -48107.101 
  997000    313.91774   -58605.438    299.43333   -58904.872   -26142.914 
  997200    282.32209   -58623.736    269.29552   -58893.031   -11201.904 
  997400    320.85226   -58583.714    306.04788   -58889.761    8276.8262 
  997600    325.75681   -58598.943    310.72614   -58909.669    12394.212 
  997800    291.83451   -58619.385    278.36903   -58897.754    6783.1648 
  998000    286.78861    -58630.22    273.55596   -58903.776   -18847.047 
  998200    303.47687   -58596.191    289.47421   -58885.666    15751.282 
  998400    283.26272   -58631.638    270.19275   -58901.831   -29096.136 
  998600     290.2233   -58629.944    276.83217   -58906.776   -21082.058 
  998800     317.4098   -58604.561    302.76427   -58907.325    33539.908 
  999000    315.38691   -58589.336    300.83471   -58890.171    -13099.48 
  999200    305.03492   -58626.495    290.96037   -58917.456    -10263.95 
  999400     307.0369   -58623.907    292.86998   -58916.777    9450.1523 
  999600    313.60091   -58588.326    299.13112   -58887.457    4735.6143 
  999800    298.34061   -58615.841    284.57494   -58900.416    15647.938 
 1000000     306.5463   -58625.043    292.40202   -58917.446   -18706.851 
Loop time of 7884.98 on 8 procs for 1000000 steps with 321 atoms

Performance: 2.739 ns/day, 8.761 hours/ns, 126.823 timesteps/s
99.2% CPU use with 8 MPI tasks x no OpenMP threads

MPI task timing breakdown:
Section |  min time  |  avg time  |  max time  |%varavg| %total
---------------------------------------------------------------
Pair    | 6822.3     | 6952.8     | 7074.8     |  91.7 | 88.18
Neigh   | 0.40358    | 0.40759    | 0.42374    |   1.0 |  0.01
Comm    | 56.817     | 178.35     | 308.26     | 571.8 |  2.26
Output  | 0.1428     | 0.15686    | 0.24108    |   8.1 |  0.00
Modify  | 746.91     | 747.61     | 748.2      |   1.6 |  9.48
Other   |            | 5.656      |            |       |  0.07

Nlocal:    40.125 ave 49 max 32 min
Histogram: 1 2 0 0 0 2 0 2 0 1
Nghost:    906 ave 912 max 895 min
Histogram: 1 1 0 0 0 2 0 0 1 3
Neighs:    4834.38 ave 5729 max 3967 min
Histogram: 1 2 0 0 0 2 0 2 0 1

Total # of neighbors = 38675
Ave neighs/atom = 120.483
Neighbor list builds = 338
Dangerous builds = 0

unfix 1
unfix output
undump 1

Please see the log.cite file for references relevant to this simulation

Total wall time: 2:11:45
