 # File generated with Atomsk by ana on 2024-01-23 16:05:51
  
          56  atoms
           1  atom types
 
      0.000000000000      33.545581145400  xlo xhi
      0.000000000000      17.016206241700  ylo yhi
      0.000000000000       2.455498083450  zlo zhi
 
Masses
 
            1   12.01100000             # C
 
Atoms # charge
 
         1    1   0.000000        5.724128103291       0.000000000000       0.000000000000
         2    1   0.000000       27.821453545292       0.000000000000       0.000000000000
         3    1   0.000000       22.496918172808       8.508103120850       0.000000000000
         4    1   0.000000       11.048662972592       8.508103120850       0.000000000000
         5    1   0.000000        4.912891363872       0.000000000000       1.227749041725
         6    1   0.000000       28.632689311890       0.000000000000       1.227749041725
         7    1   0.000000       21.685682406210       8.508103120850       1.227749041725
         8    1   0.000000       11.859898739190       8.508103120850       1.227749041725
         9    1   0.000000        3.547332207164       0.000000000000       1.227749041725
        10    1   0.000000       29.998249944603       0.000000000000       1.227749041725
        11    1   0.000000       20.320121773497       8.508103120850       1.227749041725
        12    1   0.000000       13.225458365536       8.508103120850       1.227749041725
        13    1   0.000000        6.695132119049       1.161690714226       0.000000000000
        14    1   0.000000       26.850448556713      15.854515016988       0.000000000000
        15    1   0.000000       26.850448556713       1.161690714226       0.000000000000
        16    1   0.000000        6.695132119049      15.854515016988       0.000000000000
        17    1   0.000000       23.467923161387       9.669794345562       0.000000000000
        18    1   0.000000       10.077657984013       7.346412406624       0.000000000000
        19    1   0.000000       10.077657984013       9.669794345562       0.000000000000
        20    1   0.000000       23.467923161387       7.346412406624       0.000000000000
        21    1   0.000000        8.099855243017       3.606502326738       0.000000000000
        22    1   0.000000       25.445726405567      13.409703404476       0.000000000000
        23    1   0.000000       25.445726405567       3.606502326738       0.000000000000
        24    1   0.000000        8.099855243017      13.409703404476       0.000000000000
        25    1   0.000000       24.872645312533      12.114605958074       0.000000000000
        26    1   0.000000        8.672935832867       4.901600794112       0.000000000000
        27    1   0.000000        8.672935832867      12.114605958074       0.000000000000
        28    1   0.000000       24.872645312533       4.901600794112       0.000000000000
        29    1   0.000000        7.098533053687       1.727537770530       1.227749041725
        30    1   0.000000       26.447048091713      15.288668471170       1.227749041725
        31    1   0.000000       26.447048091713       1.727537770530       1.227749041725
        32    1   0.000000        7.098533053687      15.288668471170       1.227749041725
        33    1   0.000000       23.871323626387      10.235640891380       1.227749041725
        34    1   0.000000        9.674257519013       6.780565350320       1.227749041725
        35    1   0.000000        9.674257519013      10.235640891380       1.227749041725
        36    1   0.000000       23.871323626387       6.780565350320       1.227749041725
        37    1   0.000000        7.801423674945       2.964038745040       1.227749041725
        38    1   0.000000       25.744157973638      14.052167751903       1.227749041725
        39    1   0.000000       25.744157973638       2.964038745040       1.227749041725
        40    1   0.000000        7.801423674945      14.052167751903       1.227749041725
        41    1   0.000000       24.574213744462      11.472141610647       1.227749041725
        42    1   0.000000        8.971367400938       5.544064631053       1.227749041725
        43    1   0.000000        8.971367400938      11.472141610647       1.227749041725
        44    1   0.000000       24.574213744462       5.544064631053       1.227749041725
        45    1   0.000000        2.810993762522       0.000000000000       0.000000000000
        46    1   0.000000       30.734587617697       0.000000000000       0.000000000000
        47    1   0.000000       19.583784100403       8.508103120850       0.000000000000
        48    1   0.000000       13.961797044997       8.508103120850       0.000000000000
        49    1   0.000000        1.423173992022       0.000000000000       0.000000000000
        50    1   0.000000       32.122406281193       0.000000000000       0.000000000000
        51    1   0.000000       18.195965436907       8.508103120850       0.000000000000
        52    1   0.000000       15.349616714860       8.508103120850       0.000000000000
        53    1   0.000000        0.694546148044       0.000000000000       1.227749041725
        54    1   0.000000       32.851035366357       0.000000000000       1.227749041725
        55    1   0.000000       17.467336351743       8.508103120850       1.227749041725
        56    1   0.000000       16.078244793657       8.508103120850       1.227749041725
