ITEM: TIMESTEP
0
ITEM: NUMBER OF ATOMS
56
ITEM: BOX BOUNDS pp pp pp
0.0000000000000000e+00 3.3545581145400000e+01
0.0000000000000000e+00 1.7016206241700001e+01
0.0000000000000000e+00 2.4554980834500002e+00
ITEM: ATOMS id type x y z 
1 1 5.72413 0 0 
5 1 4.91289 0 1.22775 
9 1 3.54733 0 1.22775 
13 1 6.69513 1.16169 0 
21 1 8.09986 3.6065 0 
29 1 7.09853 1.72754 1.22775 
37 1 7.80142 2.96404 1.22775 
45 1 2.81099 0 0 
49 1 1.42317 0 0 
53 1 0.694546 0 1.22775 
16 1 6.69513 15.8545 0 
24 1 8.09986 13.4097 0 
32 1 7.09853 15.2887 1.22775 
40 1 7.80142 14.0522 1.22775 
18 1 10.0777 7.34641 0 
26 1 8.67294 4.9016 0 
34 1 9.67426 6.78057 1.22775 
42 1 8.97137 5.54406 1.22775 
4 1 11.0487 8.5081 0 
8 1 11.8599 8.5081 1.22775 
12 1 13.2255 8.5081 1.22775 
19 1 10.0777 9.66979 0 
27 1 8.67294 12.1146 0 
35 1 9.67426 10.2356 1.22775 
43 1 8.97137 11.4721 1.22775 
48 1 13.9618 8.5081 0 
52 1 15.3496 8.5081 0 
56 1 16.0782 8.5081 1.22775 
20 1 23.4679 7.34641 0 
28 1 24.8726 4.9016 0 
36 1 23.8713 6.78057 1.22775 
44 1 24.5742 5.54406 1.22775 
3 1 22.4969 8.5081 0 
7 1 21.6857 8.5081 1.22775 
11 1 20.3201 8.5081 1.22775 
17 1 23.4679 9.66979 0 
25 1 24.8726 12.1146 0 
33 1 23.8713 10.2356 1.22775 
41 1 24.5742 11.4721 1.22775 
47 1 19.5838 8.5081 0 
51 1 18.196 8.5081 0 
55 1 17.4673 8.5081 1.22775 
2 1 27.8215 0 0 
6 1 28.6327 0 1.22775 
10 1 29.9982 0 1.22775 
15 1 26.8504 1.16169 0 
23 1 25.4457 3.6065 0 
31 1 26.447 1.72754 1.22775 
39 1 25.7442 2.96404 1.22775 
46 1 30.7346 0 0 
50 1 32.1224 0 0 
54 1 32.851 0 1.22775 
14 1 26.8504 15.8545 0 
22 1 25.4457 13.4097 0 
30 1 26.447 15.2887 1.22775 
38 1 25.7442 14.0522 1.22775 
ITEM: TIMESTEP
10
ITEM: NUMBER OF ATOMS
56
ITEM: BOX BOUNDS pp pp pp
0.0000000000000000e+00 3.3545581145400000e+01
0.0000000000000000e+00 1.7016206241700001e+01
0.0000000000000000e+00 2.4554980834500002e+00
ITEM: ATOMS id type x y z 
1 1 5.73005 1.24157e-08 8.16843e-18 
5 1 4.93398 5.41794e-08 1.22775 
9 1 3.52171 -5.83891e-09 1.22775 
13 1 6.68447 1.18525 -4.68609e-17 
21 1 8.09449 3.57845 -1.56647e-17 
29 1 7.12 1.73004 1.22775 
37 1 7.8012 2.92826 1.22775 
45 1 2.82244 -2.03004e-09 -2.46745e-17 
49 1 1.45354 -2.42945e-10 3.85363e-17 
53 1 0.729512 3.99164e-11 1.22775 
16 1 6.68447 15.831 3.27295e-17 
24 1 8.09449 13.4378 -1.1186e-16 
32 1 7.12 15.2862 1.22775 
40 1 7.8012 14.0879 1.22775 
18 1 10.0883 7.32285 -2.0085e-17 
26 1 8.6783 4.92965 8.32519e-18 
34 1 9.65278 6.77807 1.22775 
42 1 8.9716 5.57984 1.22775 
4 1 11.0427 8.5081 1.69863e-17 
8 1 11.8388 8.5081 1.22775 
12 1 13.2511 8.5081 1.22775 
19 1 10.0883 9.69335 6.71438e-17 
27 1 8.6783 12.0866 -1.73715e-17 
35 1 9.65278 10.2381 1.22775 
43 1 8.9716 11.4364 1.22775 
48 1 13.9503 8.5081 3.177e-17 
52 1 15.3192 8.5081 2.36493e-17 
56 1 16.0433 8.5081 1.22775 
20 1 23.4573 7.32285 2.23406e-17 
28 1 24.8673 4.92965 -5.60704e-18 
36 1 23.8928 6.77806 1.22775 
44 1 24.574 5.57984 1.22775 
3 1 22.5028 8.5081 1.99357e-17 
7 1 21.7068 8.5081 1.22775 
11 1 20.2945 8.5081 1.22775 
17 1 23.4573 9.69335 1.80777e-17 
25 1 24.8673 12.0866 -2.24967e-17 
33 1 23.8928 10.2381 1.22775 
41 1 24.574 11.4364 1.22775 
47 1 19.5952 8.5081 -2.6828e-17 
51 1 18.2263 8.5081 1.25042e-17 
55 1 17.5023 8.5081 1.22775 
2 1 27.8156 1.24934e-08 -7.12268e-19 
6 1 28.6116 5.41932e-08 1.22775 
10 1 30.0239 -5.83988e-09 1.22775 
15 1 26.8611 1.18525 1.74105e-17 
23 1 25.4511 3.57845 5.76865e-17 
31 1 26.4256 1.73005 1.22775 
39 1 25.7444 2.92826 1.22775 
46 1 30.7231 -2.03064e-09 -2.43409e-17 
50 1 32.092 -2.43044e-10 5.19449e-17 
54 1 32.8161 3.99216e-11 1.22775 
14 1 26.8611 15.831 3.60183e-17 
22 1 25.4511 13.4378 -2.24227e-17 
30 1 26.4256 15.2862 1.22775 
38 1 25.7444 14.0879 1.22775 
ITEM: TIMESTEP
20
ITEM: NUMBER OF ATOMS
56
ITEM: BOX BOUNDS pp pp pp
0.0000000000000000e+00 3.3545581145400000e+01
0.0000000000000000e+00 1.7016206241700001e+01
0.0000000000000000e+00 2.4554980834500002e+00
ITEM: ATOMS id type x y z 
1 1 5.73841 8.349e-09 1.1955e-16 
5 1 4.9353 1.25581e-07 1.22775 
9 1 3.52398 -8.13526e-09 1.22775 
13 1 6.66377 1.20122 2.7384e-16 
21 1 8.10946 3.5725 1.67144e-16 
29 1 7.1416 1.71202 1.22775 
37 1 7.83548 2.91349 1.22775 
45 1 2.82122 -1.34658e-08 -9.87886e-17 
49 1 1.44848 -2.93411e-09 -7.38674e-17 
53 1 0.733682 8.12402e-10 1.22775 
16 1 6.66377 15.815 1.0043e-16 
24 1 8.10946 13.4437 1.53914e-16 
32 1 7.1416 15.3042 1.22775 
40 1 7.83548 14.1027 1.22775 
18 1 10.109 7.30689 8.86694e-17 
26 1 8.66333 4.93561 1.72525e-17 
34 1 9.63119 6.79608 1.22775 
42 1 8.93731 5.59462 1.22775 
4 1 11.0344 8.5081 -1.18446e-16 
8 1 11.8375 8.5081 1.22775 
12 1 13.2488 8.5081 1.22775 
19 1 10.109 9.70932 4.08706e-16 
27 1 8.66333 12.0806 1.03309e-16 
35 1 9.63119 10.2201 1.22775 
43 1 8.93731 11.4216 1.22775 
48 1 13.9516 8.5081 4.62358e-19 
52 1 15.3243 8.5081 -5.40762e-18 
56 1 16.0391 8.5081 1.22775 
20 1 23.4365 7.30689 2.62559e-17 
28 1 24.8823 4.9356 7.81304e-17 
36 1 23.9144 6.79606 1.22775 
44 1 24.6083 5.59461 1.22775 
3 1 22.5111 8.5081 8.10281e-18 
7 1 21.7081 8.5081 1.22775 
11 1 20.2968 8.5081 1.22775 
17 1 23.4365 9.70932 -1.29334e-17 
25 1 24.8823 12.0806 -3.73624e-17 
33 1 23.9144 10.2201 1.22775 
41 1 24.6083 11.4216 1.22775 
47 1 19.594 8.5081 2.83127e-17 
51 1 18.2213 8.5081 2.01058e-17 
55 1 17.5065 8.5081 1.22775 
2 1 27.8073 2.83526e-09 -3.4025e-17 
6 1 28.6103 1.24961e-07 1.22775 
10 1 30.0215 -8.11598e-09 1.22775 
15 1 26.8818 1.20121 -1.59309e-17 
23 1 25.4361 3.5725 -7.31068e-17 
31 1 26.404 1.71204 1.22775 
39 1 25.7101 2.9135 1.22775 
46 1 30.7243 -1.34688e-08 8.99541e-17 
50 1 32.0971 -2.93632e-09 6.24989e-17 
54 1 32.8119 8.12335e-10 1.22775 
14 1 26.8818 15.815 2.1403e-17 
22 1 25.4361 13.4437 8.37116e-17 
30 1 26.404 15.3042 1.22775 
38 1 25.7101 14.1027 1.22775 
ITEM: TIMESTEP
30
ITEM: NUMBER OF ATOMS
56
ITEM: BOX BOUNDS pp pp pp
0.0000000000000000e+00 3.3545581145400000e+01
0.0000000000000000e+00 1.7016206241700001e+01
0.0000000000000000e+00 2.4554980834500002e+00
ITEM: ATOMS id type x y z 
1 1 5.76871 2.72564e-07 -5.3857e-16 
5 1 4.93874 1.51942e-07 1.22775 
9 1 3.57106 -7.28006e-09 1.22775 
13 1 6.67025 1.20478 -2.57223e-15 
21 1 8.19833 3.54985 -6.4477e-16 
29 1 7.19715 1.66377 1.22775 
37 1 7.99132 2.85556 1.22775 
45 1 2.81023 -7.27942e-08 3.95769e-16 
49 1 1.42483 -2.94132e-08 2.47729e-16 
53 1 0.732645 1.20333e-08 1.22775 
16 1 6.67025 15.8114 -5.59663e-16 
24 1 8.19833 13.4664 -4.07511e-15 
32 1 7.19715 15.3524 1.22775 
40 1 7.99132 14.1607 1.22775 
18 1 10.1025 7.30333 -1.83108e-15 
26 1 8.57446 4.95825 1.29419e-16 
34 1 9.57565 6.84434 1.22775 
42 1 8.78147 5.65255 1.22775 
4 1 11.0041 8.5081 -1.04352e-16 
8 1 11.834 8.5081 1.22775 
12 1 13.2017 8.5081 1.22775 
19 1 10.1025 9.71288 -3.28856e-16 
27 1 8.57446 12.058 -1.59531e-17 
35 1 9.57565 10.1719 1.22775 
43 1 8.78147 11.3637 1.22775 
48 1 13.9626 8.5081 1.08423e-16 
52 1 15.3479 8.5081 -3.52861e-16 
56 1 16.0401 8.5081 1.22775 
20 1 23.443 7.30337 -2.90669e-16 
28 1 24.9711 4.95825 5.01749e-16 
36 1 23.9699 6.8444 1.22775 
44 1 24.7641 5.65256 1.22775 
3 1 22.5415 8.5081 5.4442e-16 
7 1 21.7116 8.5081 1.22775 
11 1 20.344 8.5081 1.22775 
17 1 23.443 9.71284 1.51622e-15 
25 1 24.9711 12.058 3.85674e-16 
33 1 23.9699 10.1718 1.22775 
41 1 24.7641 11.3636 1.22775 
47 1 19.583 8.5081 2.65813e-16 
51 1 18.1977 8.5081 4.09797e-16 
55 1 17.5055 8.5081 1.22775 
2 1 27.7769 2.20364e-07 3.50254e-16 
6 1 28.6068 1.46037e-07 1.22775 
10 1 29.9743 -7.16485e-09 1.22775 
15 1 26.8754 1.20473 1.78118e-15 
23 1 25.3473 3.54985 1.12299e-15 
31 1 26.3485 1.6637 1.22775 
39 1 25.5543 2.85554 1.22775 
46 1 30.7354 -7.27262e-08 2.66512e-16 
50 1 32.1207 -2.93985e-08 -9.69597e-16 
54 1 32.8129 1.20317e-08 1.22775 
14 1 26.8754 15.8115 -2.03878e-15 
22 1 25.3473 13.4664 -5.15727e-16 
30 1 26.3485 15.3525 1.22775 
38 1 25.5543 14.1607 1.22775 
ITEM: TIMESTEP
40
ITEM: NUMBER OF ATOMS
56
ITEM: BOX BOUNDS pp pp pp
0.0000000000000000e+00 3.3545581145400000e+01
0.0000000000000000e+00 1.7016206241700001e+01
0.0000000000000000e+00 2.4554980834500002e+00
ITEM: ATOMS id type x y z 
1 1 5.79449 5.34223e-06 1.38214e-16 
5 1 5.00603 1.09013e-06 1.22775 
9 1 3.58321 -9.98586e-09 1.22775 
13 1 6.70083 1.21138 1.17387e-15 
21 1 8.24539 3.55157 1.85717e-16 
29 1 7.22291 1.66613 1.22775 
37 1 8.04661 2.84039 1.22775 
45 1 2.83271 -1.10918e-07 -9.89979e-17 
49 1 1.45332 -4.74757e-08 -2.97708e-17 
53 1 0.729012 2.85124e-08 1.22775 
16 1 6.70083 15.8048 2.61547e-16 
24 1 8.24539 13.4646 2.72238e-16 
32 1 7.22292 15.3501 1.22775 
40 1 8.04661 14.1758 1.22775 
18 1 10.072 7.2967 4.15286e-16 
26 1 8.52743 4.95665 1.97923e-18 
34 1 9.5497 6.84179 1.22775 
42 1 8.72619 5.66766 1.22775 
4 1 10.9789 8.5081 4.14679e-16 
8 1 11.7668 8.5081 1.22775 
12 1 13.1895 8.5081 1.22775 
19 1 10.072 9.7195 7.82091e-16 
27 1 8.52743 12.0596 -5.83247e-18 
35 1 9.5497 10.1744 1.22775 
43 1 8.72619 11.3485 1.22775 
48 1 13.9401 8.5081 8.02896e-18 
52 1 15.3196 8.5081 -1.26148e-16 
56 1 16.0439 8.5081 1.22775 
20 1 23.4734 7.29656 1.91664e-16 
28 1 25.0181 4.95665 9.80133e-17 
36 1 23.9966 6.84092 1.22775 
44 1 24.8193 5.66718 1.22775 
3 1 22.5646 8.5081 5.63803e-17 
7 1 21.7788 8.5081 1.22775 
11 1 20.3575 8.5081 1.22775 
17 1 23.4734 9.71964 3.90374e-16 
25 1 25.0181 12.0596 -1.07434e-16 
33 1 23.9966 10.1753 1.22775 
41 1 24.8193 11.349 1.22775 
47 1 19.6058 8.5081 -2.25498e-16 
51 1 18.2261 8.5081 -2.15057e-16 
55 1 17.5016 8.5081 1.22775 
2 1 27.7538 3.2195e-06 2.74361e-16 
6 1 28.5395 6.92126e-07 1.22775 
10 1 29.9608 -1.33324e-08 1.22775 
15 1 26.845 1.21157 5.45046e-16 
23 1 25.3003 3.55144 9.95053e-17 
31 1 26.3217 1.66725 1.22775 
39 1 25.4991 2.84094 1.22775 
46 1 30.7125 -1.09937e-07 -8.27448e-17 
50 1 32.0921 -4.71781e-08 -1.54162e-16 
54 1 32.8166 2.85154e-08 1.22775 
14 1 26.845 15.8046 1.40953e-16 
22 1 25.3003 13.4648 8.20252e-17 
30 1 26.3217 15.349 1.22775 
38 1 25.4991 14.1753 1.22775 
ITEM: TIMESTEP
50
ITEM: NUMBER OF ATOMS
56
ITEM: BOX BOUNDS pp pp pp
0.0000000000000000e+00 3.3545581145400000e+01
0.0000000000000000e+00 1.7016206241700001e+01
0.0000000000000000e+00 2.4554980834500002e+00
ITEM: ATOMS id type x y z 
1 1 5.80873 2.31057e-06 6.73456e-16 
5 1 5.01936 6.3214e-08 1.22775 
9 1 3.60298 -9.32323e-08 1.22775 
13 1 6.72937 1.20142 1.84606e-15 
21 1 8.28898 3.54125 7.7562e-17 
29 1 7.24244 1.66954 1.22775 
37 1 8.10019 2.8339 1.22775 
45 1 2.86035 -1.90232e-07 -1.15731e-16 
49 1 1.44988 -8.1579e-08 -3.57851e-17 
53 1 0.722905 4.66619e-08 1.22775 
16 1 6.72938 15.8148 9.5492e-16 
24 1 8.28898 13.475 2.10232e-15 
32 1 7.24244 15.3467 1.22775 
40 1 8.10019 14.1823 1.22775 
18 1 10.0435 7.30672 1.62303e-15 
26 1 8.48385 4.96697 3.71093e-16 
34 1 9.53048 6.83867 1.22775 
42 1 8.67265 5.67424 1.22775 
4 1 10.9641 8.5081 6.42794e-16 
8 1 11.7528 8.5081 1.22775 
12 1 13.1696 8.5081 1.22775 
19 1 10.0435 9.70949 1.41547e-15 
27 1 8.48385 12.0492 -5.22925e-17 
35 1 9.53048 10.1775 1.22775 
43 1 8.67265 11.342 1.22775 
48 1 13.913 8.5081 5.42863e-16 
52 1 15.3232 8.5081 -2.53002e-16 
56 1 16.0499 8.5081 1.22775 
20 1 23.5018 7.30672 1.20774e-15 
28 1 25.0617 4.96715 -3.80678e-16 
36 1 24.0151 6.83902 1.22775 
44 1 24.8735 5.67411 1.22775 
3 1 22.5817 8.50811 2.47044e-16 
7 1 21.7924 8.5081 1.22775 
11 1 20.3755 8.5081 1.22775 
17 1 23.5018 9.70948 -4.12123e-16 
25 1 25.0617 12.0491 -1.08664e-15 
33 1 24.0151 10.1772 1.22775 
41 1 24.8735 11.3421 1.22775 
47 1 19.6322 8.5081 -1.04081e-15 
51 1 18.2223 8.5081 -8.11566e-16 
55 1 17.4957 8.5081 1.22775 
2 1 27.7367 -6.93998e-07 5.21373e-16 
6 1 28.526 2.14725e-07 1.22775 
10 1 29.9427 -3.31532e-08 1.22775 
15 1 26.8165 1.20138 -7.69363e-16 
23 1 25.2566 3.54107 -1.82911e-16 
31 1 26.3032 1.66905 1.22775 
39 1 25.4448 2.83402 1.22775 
46 1 30.6861 -1.65113e-07 -1.1561e-16 
50 1 32.096 -7.09367e-08 7.46117e-16 
54 1 32.8225 4.70763e-08 1.22775 
14 1 26.8165 15.8148 9.98058e-16 
22 1 25.2566 13.4751 8.97288e-17 
30 1 26.3032 15.3472 1.22775 
38 1 25.4448 14.1822 1.22775 
ITEM: TIMESTEP
60
ITEM: NUMBER OF ATOMS
56
ITEM: BOX BOUNDS pp pp pp
0.0000000000000000e+00 3.3545581145400000e+01
0.0000000000000000e+00 1.7016206241700001e+01
0.0000000000000000e+00 2.4554980834500002e+00
ITEM: ATOMS id type x y z 
1 1 5.82353 -1.37691e-06 2.0951e-16 
5 1 5.01122 -2.96475e-07 1.22775 
9 1 3.61898 -1.50463e-07 1.22775 
13 1 6.73904 1.20597 5.49503e-16 
21 1 8.29858 3.5433 3.35766e-16 
29 1 7.25048 1.67223 1.22775 
37 1 8.10829 2.83077 1.22775 
45 1 2.87716 -2.00814e-07 -3.50435e-17 
49 1 1.44431 -8.10366e-08 -2.93862e-17 
53 1 0.720668 5.45895e-08 1.22775 
16 1 6.73904 15.8102 -3.38414e-17 
24 1 8.29858 13.4729 5.391e-17 
32 1 7.25048 15.344 1.22775 
40 1 8.10829 14.1854 1.22775 
18 1 10.0338 7.30219 3.23267e-16 
26 1 8.47427 4.96496 1.95949e-16 
34 1 9.52244 6.83598 1.22775 
42 1 8.66453 5.67732 1.22775 
4 1 10.9494 8.50811 2.12243e-16 
8 1 11.7616 8.5081 1.22775 
12 1 13.1538 8.5081 1.22775 
19 1 10.0338 9.71402 4.88369e-16 
27 1 8.47427 12.0512 1.52927e-16 
35 1 9.52244 10.1802 1.22775 
43 1 8.66453 11.3389 1.22775 
48 1 13.8955 8.5081 1.95412e-17 
52 1 15.3279 8.5081 -6.04884e-17 
56 1 16.0518 8.5081 1.22775 
20 1 23.5117 7.30216 2.23802e-16 
28 1 25.0713 4.96439 2.32015e-16 
36 1 24.0233 6.83599 1.22775 
44 1 24.8812 5.67701 1.22775 
3 1 22.5956 8.50811 1.31408e-16 
7 1 21.7838 8.5081 1.22775 
11 1 20.3921 8.5081 1.22775 
17 1 23.5117 9.71405 3.01473e-16 
25 1 25.0713 12.0518 -3.18312e-17 
33 1 24.0233 10.1802 1.22775 
41 1 24.8812 11.3392 1.22775 
47 1 19.6504 8.5081 -2.16787e-16 
51 1 18.2176 8.5081 -3.24334e-16 
55 1 17.4938 8.5081 1.22775 
2 1 27.7228 -8.40322e-07 2.74673e-16 
6 1 28.5346 2.18204e-07 1.22775 
10 1 29.9265 -3.80574e-08 1.22775 
15 1 26.8066 1.20597 4.42572e-16 
23 1 25.247 3.54381 1.3748e-16 
31 1 26.295 1.67215 1.22775 
39 1 25.4372 2.83113 1.22775 
46 1 30.6679 -1.77703e-07 -1.11205e-17 
50 1 32.101 -7.56907e-08 5.00553e-17 
54 1 32.8249 5.47634e-08 1.22775 
14 1 26.8066 15.8102 1.67647e-16 
22 1 25.247 13.4724 -3.79401e-17 
30 1 26.295 15.3441 1.22775 
38 1 25.4372 14.1851 1.22775 
ITEM: TIMESTEP
70
ITEM: NUMBER OF ATOMS
56
ITEM: BOX BOUNDS pp pp pp
0.0000000000000000e+00 3.3545581145400000e+01
0.0000000000000000e+00 1.7016206241700001e+01
0.0000000000000000e+00 2.4554980834500002e+00
ITEM: ATOMS id type x y z 
1 1 5.82975 -1.48992e-05 2.3134e-16 
5 1 5.02383 -1.0283e-06 1.22775 
9 1 3.62694 -2.11449e-07 1.22775 
13 1 6.76287 1.19603 1.40643e-15 
21 1 8.32187 3.53622 6.43233e-16 
29 1 7.26407 1.6732 1.22775 
37 1 8.13059 2.83418 1.22775 
45 1 2.88289 -2.36878e-07 -6.03615e-17 
49 1 1.45138 -7.09377e-08 -1.86235e-17 
53 1 0.719019 5.76392e-08 1.22775 
16 1 6.76287 15.8202 1.72063e-16 
24 1 8.32186 13.48 8.83725e-16 
32 1 7.26407 15.343 1.22775 
40 1 8.13058 14.182 1.22775 
18 1 10.0099 7.31222 1.8028e-16 
26 1 8.45095 4.97198 1.74656e-16 
34 1 9.50923 6.83544 1.22775 
42 1 8.64202 5.67366 1.22775 
4 1 10.9428 8.50812 8.22482e-17 
8 1 11.7488 8.5081 1.22775 
12 1 13.1456 8.5081 1.22775 
19 1 10.0099 9.70399 9.07976e-16 
27 1 8.45096 12.0442 1.0975e-16 
35 1 9.50922 10.1808 1.22775 
43 1 8.64204 11.3425 1.22775 
48 1 13.8893 8.5081 -2.59023e-16 
52 1 15.3215 8.5081 6.15528e-17 
56 1 16.0539 8.5081 1.22775 
20 1 23.5354 7.31231 -2.02022e-17 
28 1 25.0949 4.97108 4.8054e-16 
36 1 24.0359 6.83619 1.22775 
44 1 24.9039 5.6743 1.22775 
3 1 22.6014 8.50811 6.60912e-17 
7 1 21.7963 8.5081 1.22775 
11 1 20.3991 8.5081 1.22775 
17 1 23.5354 9.7039 2.65802e-16 
25 1 25.0949 12.0451 -1.41497e-16 
33 1 24.0359 10.18 1.22775 
41 1 24.9039 11.3419 1.22775 
47 1 19.6563 8.5081 -3.68016e-16 
51 1 18.225 8.5081 5.05382e-17 
55 1 17.493 8.5081 1.22775 
2 1 27.7174 -8.0206e-06 2.14728e-16 
6 1 28.5224 -3.84969e-07 1.22775 
10 1 29.9197 -6.17036e-08 1.22775 
15 1 26.783 1.19593 2.46602e-16 
23 1 25.2233 3.53738 -6.43765e-16 
31 1 26.2822 1.67199 1.22775 
39 1 25.4142 2.83395 1.22775 
46 1 30.6623 -2.02033e-07 -2.70512e-17 
50 1 32.0936 -8.28861e-08 8.73246e-17 
54 1 32.8248 5.38266e-08 1.22775 
14 1 26.783 15.8203 8.33155e-16 
22 1 25.2233 13.4788 1.88954e-17 
30 1 26.2822 15.3442 1.22775 
38 1 25.4142 14.1823 1.22775 
ITEM: TIMESTEP
80
ITEM: NUMBER OF ATOMS
56
ITEM: BOX BOUNDS pp pp pp
0.0000000000000000e+00 3.3545581145400000e+01
0.0000000000000000e+00 1.7016206241700001e+01
0.0000000000000000e+00 2.4554980834500002e+00
ITEM: ATOMS id type x y z 
1 1 5.83193 1.72586e-06 -6.19941e-17 
5 1 5.02527 3.09408e-07 1.22775 
9 1 3.62889 -1.5229e-07 1.22775 
13 1 6.7738 1.18894 -4.07437e-17 
21 1 8.33088 3.53629 1.46324e-16 
29 1 7.2702 1.67138 1.22775 
37 1 8.1341 2.83177 1.22775 
45 1 2.88369 -2.35719e-07 1.4879e-16 
49 1 1.45159 -6.56973e-08 3.98618e-17 
53 1 0.7176 4.99224e-08 1.22775 
16 1 6.7738 15.8273 7.96888e-17 
24 1 8.33088 13.4799 1.54648e-16 
32 1 7.2702 15.3448 1.22775 
40 1 8.1341 14.1844 1.22775 
18 1 9.999 7.31914 2.2566e-16 
26 1 8.44188 4.97174 2.23321e-16 
34 1 9.50257 6.83669 1.22775 
42 1 8.63867 5.67637 1.22775 
4 1 10.9409 8.5081 4.88001e-16 
8 1 11.7475 8.5081 1.22775 
12 1 13.1439 8.5081 1.22775 
19 1 9.999 9.69706 2.14376e-16 
27 1 8.44188 12.0445 1.65417e-16 
35 1 9.50257 10.1795 1.22775 
43 1 8.63867 11.3398 1.22775 
48 1 13.8892 8.5081 2.56033e-16 
52 1 15.3213 8.5081 1.06362e-17 
56 1 16.0552 8.5081 1.22775 
20 1 23.5466 7.31914 4.08559e-16 
28 1 25.1036 4.9717 1.08599e-16 
36 1 24.043 6.83669 1.22775 
44 1 24.9069 5.67632 1.22775 
3 1 22.6048 8.5081 1.86416e-16 
7 1 21.7981 8.5081 1.22775 
11 1 20.4016 8.5081 1.22775 
17 1 23.5466 9.69707 2.44839e-16 
25 1 25.1036 12.0445 1.18744e-16 
33 1 24.043 10.1795 1.22775 
41 1 24.9069 11.3399 1.22775 
47 1 19.6564 8.5081 5.06902e-17 
51 1 18.2242 8.5081 -2.59305e-16 
55 1 17.4903 8.5081 1.22775 
2 1 27.7135 5.99322e-07 5.05661e-17 
6 1 28.5203 2.08537e-07 1.22775 
10 1 29.9167 -4.09282e-08 1.22775 
15 1 26.7718 1.18894 1.12792e-16 
23 1 25.2148 3.53635 2.00205e-16 
31 1 26.2753 1.67137 1.22775 
39 1 25.4115 2.8318 1.22775 
46 1 30.6619 -1.82794e-07 1.72808e-16 
50 1 32.0941 -8.01009e-08 9.82027e-17 
54 1 32.8281 4.13811e-08 1.22775 
14 1 26.7718 15.8273 4.6718e-17 
22 1 25.2148 13.4799 1.85533e-17 
30 1 26.2753 15.3448 1.22775 
38 1 25.4115 14.1844 1.22775 
ITEM: TIMESTEP
90
ITEM: NUMBER OF ATOMS
56
ITEM: BOX BOUNDS pp pp pp
0.0000000000000000e+00 3.3545581145400000e+01
0.0000000000000000e+00 1.7016206241700001e+01
0.0000000000000000e+00 2.4554980834500002e+00
ITEM: ATOMS id type x y z 
1 1 5.83165 2.60398e-06 1.23595e-16 
5 1 5.02524 2.85298e-07 1.22775 
9 1 3.62889 -1.44007e-07 1.22775 
13 1 6.77906 1.18497 -2.94766e-17 
21 1 8.33108 3.53642 1.30329e-16 
29 1 7.2779 1.6654 1.22775 
37 1 8.13387 2.83218 1.22775 
45 1 2.88386 -2.15931e-07 1.44393e-17 
49 1 1.45153 -6.84167e-08 5.71697e-18 
53 1 0.717278 2.86888e-08 1.22775 
16 1 6.77906 15.8312 1.66796e-16 
24 1 8.33108 13.4798 -1.63464e-16 
32 1 7.2779 15.3508 1.22775 
40 1 8.13387 14.184 1.22775 
18 1 9.99375 7.32311 3.31783e-16 
26 1 8.4417 4.97166 3.24733e-16 
34 1 9.49486 6.84267 1.22775 
42 1 8.6389 5.67592 1.22775 
4 1 10.9412 8.5081 2.38844e-16 
8 1 11.7476 8.5081 1.22775 
12 1 13.1439 8.5081 1.22775 
19 1 9.99375 9.69309 3.09212e-16 
27 1 8.44169 12.0445 3.44398e-16 
35 1 9.49486 10.1735 1.22775 
43 1 8.6389 11.3403 1.22775 
48 1 13.889 8.5081 2.99813e-16 
52 1 15.3213 8.5081 -8.25352e-17 
56 1 16.0554 8.5081 1.22775 
20 1 23.5518 7.32313 2.86254e-16 
28 1 25.1039 4.97162 2.66032e-16 
36 1 24.0507 6.84273 1.22775 
44 1 24.9067 5.67595 1.22775 
3 1 22.6045 8.5081 9.11757e-17 
7 1 21.798 8.5081 1.22775 
11 1 20.4015 8.5081 1.22775 
17 1 23.5518 9.69308 2.2655e-16 
25 1 25.1039 12.0446 2.17229e-16 
33 1 24.0507 10.1735 1.22775 
41 1 24.9067 11.3402 1.22775 
47 1 19.6565 8.5081 4.64077e-17 
51 1 18.2243 8.5081 1.72667e-16 
55 1 17.4901 8.5081 1.22775 
2 1 27.7138 1.87243e-06 2.05244e-16 
6 1 28.5204 2.35092e-07 1.22775 
10 1 29.9169 -6.7665e-08 1.22775 
15 1 26.7665 1.18497 2.54713e-16 
23 1 25.2145 3.53649 3.56037e-16 
31 1 26.2677 1.66535 1.22775 
39 1 25.4117 2.83215 1.22775 
46 1 30.6617 -1.35541e-07 -8.35528e-17 
50 1 32.0941 -6.796e-08 6.17502e-17 
54 1 32.8283 1.55367e-08 1.22775 
14 1 26.7665 15.8312 -1.07544e-16 
22 1 25.2145 13.4797 4.8515e-17 
30 1 26.2677 15.3509 1.22775 
38 1 25.4117 14.1841 1.22775 
ITEM: TIMESTEP
100
ITEM: NUMBER OF ATOMS
56
ITEM: BOX BOUNDS pp pp pp
0.0000000000000000e+00 3.3545581145400000e+01
0.0000000000000000e+00 1.7016206241700001e+01
0.0000000000000000e+00 2.4554980834500002e+00
ITEM: ATOMS id type x y z 
1 1 5.83161 -3.13944e-06 1.44432e-16 
5 1 5.02581 1.52468e-09 1.22775 
9 1 3.62954 -1.62546e-07 1.22775 
13 1 6.78121 1.18372 2.12649e-16 
21 1 8.33004 3.53618 3.79925e-16 
29 1 7.28111 1.66325 1.22775 
37 1 8.13478 2.83186 1.22775 
45 1 2.8834 -2.10222e-07 -6.35832e-17 
49 1 1.45151 -7.15794e-08 5.06786e-17 
53 1 0.71815 1.40819e-08 1.22775 
16 1 6.78121 15.8325 1.24361e-16 
24 1 8.33004 13.48 -6.33382e-17 
32 1 7.28111 15.353 1.22775 
40 1 8.13478 14.1843 1.22775 
18 1 9.99157 7.32441 1.12084e-16 
26 1 8.44276 4.97198 5.07879e-16 
34 1 9.49178 6.84495 1.22775 
42 1 8.63799 5.6762 1.22775 
4 1 10.9411 8.50811 7.12732e-16 
8 1 11.747 8.5081 1.22775 
12 1 13.1433 8.5081 1.22775 
19 1 9.99157 9.69179 2.22301e-16 
27 1 8.44276 12.0442 9.31678e-16 
35 1 9.49178 10.1713 1.22775 
43 1 8.63799 11.34 1.22775 
48 1 13.8893 8.5081 -1.42614e-16 
52 1 15.3212 8.5081 2.07665e-16 
56 1 16.0547 8.5081 1.22775 
20 1 23.554 7.32441 2.16998e-16 
28 1 25.1028 4.97201 -1.0977e-16 
36 1 24.0538 6.84495 1.22775 
44 1 24.9075 5.67631 1.22775 
3 1 22.6045 8.50811 3.38172e-16 
7 1 21.7986 8.5081 1.22775 
11 1 20.4022 8.5081 1.22775 
17 1 23.554 9.6918 1.63527e-16 
25 1 25.1028 12.0442 -1.07993e-16 
33 1 24.0538 10.1713 1.22775 
41 1 24.9075 11.3399 1.22775 
47 1 19.6563 8.5081 5.17686e-17 
51 1 18.2244 8.5081 -1.01362e-16 
55 1 17.4908 8.5081 1.22775 
2 1 27.7139 -2.871e-06 9.74826e-17 
6 1 28.5198 -4.36699e-08 1.22775 
10 1 29.9162 -8.22903e-08 1.22775 
15 1 26.7644 1.1837 2.64745e-16 
23 1 25.2155 3.53612 2.12181e-16 
31 1 26.2645 1.66317 1.22775 
39 1 25.4108 2.83179 1.22775 
46 1 30.6622 -1.31263e-07 4.96575e-17 
50 1 32.094 -6.1746e-08 4.32877e-18 
54 1 32.8274 7.01288e-09 1.22775 
14 1 26.7644 15.8325 1.32264e-16 
22 1 25.2155 13.4801 -3.83142e-16 
30 1 26.2645 15.353 1.22775 
38 1 25.4108 14.1844 1.22775 
ITEM: TIMESTEP
103
ITEM: NUMBER OF ATOMS
56
ITEM: BOX BOUNDS pp pp pp
0.0000000000000000e+00 3.3545581145400000e+01
0.0000000000000000e+00 1.7016206241700001e+01
0.0000000000000000e+00 2.4554980834500002e+00
ITEM: ATOMS id type x y z 
1 1 5.8314 1.77276e-07 1.26627e-16 
5 1 5.02578 1.60309e-07 1.22775 
9 1 3.62922 -1.45566e-07 1.22775 
13 1 6.78135 1.18363 2.01012e-16 
21 1 8.32999 3.53631 3.22388e-16 
29 1 7.28128 1.66301 1.22775 
37 1 8.1349 2.83197 1.22775 
45 1 2.88383 -2.06967e-07 -4.9351e-17 
49 1 1.45142 -7.16982e-08 2.90824e-17 
53 1 0.717508 1.29552e-08 1.22775 
16 1 6.78135 15.8326 1.03977e-16 
24 1 8.32999 13.4799 7.45635e-17 
32 1 7.28128 15.3532 1.22775 
40 1 8.1349 14.1842 1.22775 
18 1 9.99144 7.32446 1.51458e-16 
26 1 8.44278 4.97177 3.53359e-16 
34 1 9.49151 6.8451 1.22775 
42 1 8.63788 5.67615 1.22775 
4 1 10.9413 8.5081 5.14539e-16 
8 1 11.747 8.5081 1.22775 
12 1 13.1437 8.5081 1.22775 
19 1 9.99144 9.69174 2.79346e-16 
27 1 8.44278 12.0444 4.92805e-16 
35 1 9.49151 10.1711 1.22775 
43 1 8.63788 11.3401 1.22775 
48 1 13.889 8.5081 1.66051e-17 
52 1 15.3213 8.5081 8.3791e-17 
56 1 16.0553 8.5081 1.22775 
20 1 23.5541 7.32447 1.6033e-16 
28 1 25.1028 4.97174 2.38887e-17 
36 1 24.0541 6.84512 1.22775 
44 1 24.9077 5.67613 1.22775 
3 1 22.6043 8.5081 2.82267e-16 
7 1 21.7985 8.5081 1.22775 
11 1 20.4018 8.5081 1.22775 
17 1 23.5541 9.69173 1.20101e-16 
25 1 25.1028 12.0445 3.17871e-17 
33 1 24.0541 10.1711 1.22775 
41 1 24.9077 11.3401 1.22775 
47 1 19.6566 8.5081 4.15662e-17 
51 1 18.2243 8.5081 -9.5499e-17 
55 1 17.4903 8.5081 1.22775 
2 1 27.7141 6.03008e-07 9.65897e-17 
6 1 28.5198 1.81386e-07 1.22775 
10 1 29.9165 -6.9266e-08 1.22775 
15 1 26.7642 1.18363 1.30934e-16 
23 1 25.2156 3.53634 1.98328e-16 
31 1 26.2643 1.66298 1.22775 
39 1 25.4107 2.83198 1.22775 
46 1 30.6617 -1.28417e-07 3.45063e-17 
50 1 32.0941 -6.11948e-08 -2.39137e-18 
54 1 32.8281 6.42962e-09 1.22775 
14 1 26.7642 15.8326 9.46227e-17 
22 1 25.2156 13.4799 -8.85964e-17 
30 1 26.2643 15.3532 1.22775 
38 1 25.4107 14.1842 1.22775 
ITEM: TIMESTEP
107
ITEM: NUMBER OF ATOMS
56
ITEM: BOX BOUNDS pp pp pp
0.0000000000000000e+00 3.3545581145400000e+01
0.0000000000000000e+00 1.7016206241700001e+01
0.0000000000000000e+00 2.4554980834500002e+00
ITEM: ATOMS id type x y z 
1 1 5.83146 2.16611e-07 1.24254e-16 
5 1 5.02578 1.6583e-07 1.22775 
53 1 0.717521 1.29083e-08 1.22775 
13 1 6.78136 1.18362 2.01315e-16 
21 1 8.32999 3.5363 3.21974e-16 
29 1 7.28127 1.66298 1.22775 
37 1 8.1349 2.83196 1.22775 
16 1 6.78136 15.8326 1.04008e-16 
24 1 8.32999 13.4799 8.35564e-17 
32 1 7.28127 15.3532 1.22775 
40 1 8.1349 14.1843 1.22775 
9 1 3.62916 17.0162 1.22775 
45 1 2.88382 17.0162 -8.86415e-19 
49 1 1.45144 17.0162 2.90122e-17 
18 1 9.99143 7.32447 1.52392e-16 
26 1 8.44278 4.97178 3.47589e-16 
34 1 9.49151 6.84511 1.22775 
42 1 8.63788 5.67616 1.22775 
4 1 10.9413 8.5081 5.0944e-16 
8 1 11.747 8.5081 1.22775 
56 1 16.0553 8.5081 1.22775 
52 1 15.3213 8.5081 7.90877e-17 
12 1 13.1437 8.5081 1.22775 
19 1 9.99143 9.69173 2.85022e-16 
27 1 8.44278 12.0444 4.81155e-16 
35 1 9.49151 10.1711 1.22775 
43 1 8.63788 11.34 1.22775 
48 1 13.889 8.5081 2.47375e-17 
20 1 23.5542 7.32448 1.58296e-16 
28 1 25.1028 4.97175 3.35895e-17 
36 1 24.0541 6.84513 1.22775 
44 1 24.9077 5.67614 1.22775 
3 1 22.6043 8.5081 2.7932e-16 
7 1 21.7985 8.5081 1.22775 
55 1 17.4903 8.5081 1.22775 
51 1 18.2243 8.5081 -6.58078e-19 
11 1 20.4018 8.5081 1.22775 
17 1 23.5542 9.69173 1.16104e-16 
25 1 25.1028 12.0445 3.81255e-17 
33 1 24.0541 10.1711 1.22775 
41 1 24.9077 11.3401 1.22775 
47 1 19.6566 8.5081 4.12506e-17 
2 1 27.7141 5.05779e-07 9.65772e-17 
6 1 28.5198 1.72994e-07 1.22775 
54 1 32.8281 6.4053e-09 1.22775 
15 1 26.7642 1.18362 1.27953e-16 
23 1 25.2156 3.53633 1.98404e-16 
31 1 26.2643 1.66297 1.22775 
39 1 25.4107 2.83197 1.22775 
14 1 26.7642 15.8326 9.53082e-17 
22 1 25.2156 13.4799 9.36739e-18 
30 1 26.2643 15.3532 1.22775 
38 1 25.4107 14.1842 1.22775 
10 1 29.9165 17.0162 1.22775 
46 1 30.6618 17.0162 3.49362e-17 
50 1 32.0941 17.0162 7.50111e-20 
ITEM: TIMESTEP
110
ITEM: NUMBER OF ATOMS
56
ITEM: BOX BOUNDS pp pp pp
-2.2809316384350378e-03 3.3547862077038431e+01
-1.1577888997062044e-03 1.7017364030599708e+01
-3.6832471251750003e-04 2.4558664081625179e+00
ITEM: ATOMS id type x y z 
1 1 5.82997 -0.00115757 -0.000368325 
5 1 5.02418 -0.00115762 1.22775 
53 1 0.715338 -0.00115778 1.22775 
13 1 6.78 1.18263 -0.000368325 
21 1 8.32885 3.53562 -0.000368325 
29 1 7.27998 1.66205 1.22775 
37 1 8.13373 2.83119 1.22775 
16 1 6.78 15.8336 -0.000368325 
24 1 8.32885 13.4806 -0.000368325 
32 1 7.27998 15.3542 1.22775 
40 1 8.13373 14.185 1.22775 
9 1 3.62738 17.0174 1.22775 
45 1 2.88194 17.0174 -0.000368325 
49 1 1.44936 17.0174 -0.000368325 
18 1 9.99051 7.32431 -0.000368325 
26 1 8.44165 4.9713 -0.000368325 
34 1 9.49052 6.84489 1.22775 
42 1 8.63677 5.67577 1.22775 
4 1 10.9405 8.5081 -0.000368325 
8 1 11.7464 8.5081 1.22775 
56 1 16.0552 8.5081 1.22775 
52 1 15.3211 8.5081 -0.000368325 
12 1 13.1432 8.5081 1.22775 
19 1 9.99051 9.6919 -0.000368325 
27 1 8.44165 12.0449 -0.000368325 
35 1 9.49052 10.1713 1.22775 
43 1 8.63678 11.3404 1.22775 
48 1 13.8886 8.5081 -0.000368325 
20 1 23.5551 7.32432 -0.000368325 
28 1 25.1039 4.97127 -0.000368325 
36 1 24.055 6.84491 1.22775 
44 1 24.9088 5.67576 1.22775 
3 1 22.6051 8.5081 -0.000368325 
7 1 21.7992 8.5081 1.22775 
55 1 17.4904 8.5081 1.22775 
51 1 18.2245 8.5081 -0.000368325 
11 1 20.4023 8.5081 1.22775 
17 1 23.5551 9.69189 -0.000368325 
25 1 25.1039 12.0449 -0.000368325 
33 1 24.055 10.1713 1.22775 
41 1 24.9088 11.3404 1.22775 
47 1 19.657 8.5081 -0.000368325 
2 1 27.7155 -0.00115728 -0.000368325 
6 1 28.5214 -0.00115762 1.22775 
54 1 32.8303 -0.00115778 1.22775 
15 1 26.7656 1.18262 -0.000368325 
23 1 25.2167 3.53565 -0.000368325 
31 1 26.2656 1.66204 1.22775 
39 1 25.4119 2.8312 1.22775 
14 1 26.7656 15.8336 -0.000368325 
22 1 25.2167 13.4806 -0.000368325 
30 1 26.2656 15.3542 1.22775 
38 1 25.4119 14.185 1.22775 
10 1 29.9183 17.0174 1.22775 
46 1 30.6636 17.0174 -0.000368325 
50 1 32.0962 17.0174 -0.000368325 
ITEM: TIMESTEP
120
ITEM: NUMBER OF ATOMS
56
ITEM: BOX BOUNDS pp pp pp
1.3354215383241251e-03 3.3544245723861678e+01
-3.6348281533123317e-03 1.7019841069853317e+01
-1.4643005317171490e-03 2.4569623839817178e+00
ITEM: ATOMS id type x y z 
1 1 5.83234 -0.00363461 -0.0014643 
5 1 5.02673 -0.00363466 1.22775 
53 1 0.718799 -0.00363482 1.22775 
13 1 6.78217 1.18048 -0.0014643 
21 1 8.33064 3.53416 -0.0014643 
29 1 7.28202 1.66006 1.22775 
37 1 8.13556 2.82957 1.22775 
16 1 6.78217 15.8357 -0.0014643 
24 1 8.33064 13.482 -0.0014643 
32 1 7.28202 15.3561 1.22775 
40 1 8.13556 14.1866 1.22775 
9 1 3.6302 17.0198 1.22775 
45 1 2.88492 17.0198 -0.0014643 
49 1 1.45267 17.0198 -0.0014643 
18 1 9.99196 7.32398 -0.0014643 
26 1 8.44347 4.97029 -0.0014643 
34 1 9.49211 6.8444 1.22775 
42 1 8.63855 5.67491 1.22775 
4 1 10.9418 8.5081 -0.0014643 
8 1 11.7474 8.5081 1.22775 
56 1 16.0553 8.5081 1.22775 
52 1 15.3214 8.5081 -0.0014643 
12 1 13.144 8.5081 1.22775 
19 1 9.99196 9.69222 -0.0014643 
27 1 8.44347 12.0459 -0.0014643 
35 1 9.49211 10.1718 1.22775 
43 1 8.63855 11.3413 1.22775 
48 1 13.8892 8.5081 -0.0014643 
20 1 23.5536 7.32399 -0.0014643 
28 1 25.1021 4.97026 -0.0014643 
36 1 24.0535 6.84442 1.22775 
44 1 24.907 5.67489 1.22775 
3 1 22.6038 8.5081 -0.0014643 
7 1 21.7981 8.5081 1.22775 
55 1 17.4903 8.5081 1.22775 
51 1 18.2242 8.5081 -0.0014643 
11 1 20.4015 8.5081 1.22775 
17 1 23.5536 9.69221 -0.0014643 
25 1 25.1021 12.0459 -0.0014643 
33 1 24.0535 10.1718 1.22775 
41 1 24.907 11.3413 1.22775 
47 1 19.6563 8.5081 -0.0014643 
2 1 27.7132 -0.00363433 -0.0014643 
6 1 28.5189 -0.00363466 1.22775 
54 1 32.8268 -0.00363482 1.22775 
15 1 26.7634 1.18047 -0.0014643 