ITEM: TIMESTEP
0
ITEM: NUMBER OF ATOMS
161
ITEM: BOX BOUNDS xy xz yz pp pp pp
-6.7755000000000001e+00 1.3552000000000000e+01 -6.7755000000000001e+00
0.0000000000000000e+00 1.1735510246683001e+01 0.0000000000000000e+00
0.0000000000000000e+00 2.2149999999999999e+01 0.0000000000000000e+00
ITEM: ATOMS id type x y z 
8 1 -2.486 5.297 9.849 
87 1 3.001 4.231 10.696 
90 1 2.733 5.481 9.824 
109 1 -2.486 5.297 0.765 
158 1 2.733 5.481 0.79 
11 1 4.24 4.139 20.131 
14 1 3.031 4.094 19.728 
18 1 1.299 5.827 18.554 
33 1 2.266 4.151 20.924 
43 1 4.343 3.96 21.647 
47 1 3.32 5.732 17.88 
52 1 4.24 4.139 12.633 
76 1 2.552 4.924 14.209 
85 1 4.343 3.96 11.117 
89 1 3.32 5.732 14.883 
91 1 1.036 5.037 11.84 
102 1 3.031 4.094 13.035 
105 1 1.299 5.827 14.209 
114 1 2.266 4.151 11.84 
150 1 2.552 4.924 18.554 
156 1 3.001 4.231 22.068 
159 1 1.036 5.037 20.924 
5 1 -5.049 10.63 8.653 
9 1 -3.317 8.897 7.479 
19 1 -1.707 7.414 10.572 
21 1 -2.66 8.795 10.993 
23 1 -3.31 7.532 6.805 
25 1 -4.284 10.573 9.849 
32 1 1.503 6.367 0.79 
36 1 -1.869 7.426 9.056 
38 1 -2.209 6.086 8.653 
54 1 0.3 8.576 10.696 
57 1 1.291 8.001 9.824 
60 1 -1.707 7.414 0.042 
65 1 -3.31 7.532 3.808 
78 1 -1.869 7.426 1.558 
80 1 -2.566 8.842 1.961 
84 1 -4.57 9.799 3.135 
99 1 -3.054 9.687 0.765 
100 1 -2.96 6.142 3.135 
107 1 -5.049 10.63 1.961 
110 1 -3.317 8.897 3.135 
111 1 0.642 5.929 10.696 
113 1 1.503 6.367 9.824 
119 1 -4.284 10.573 0.765 
127 1 -2.209 6.086 1.961 
131 1 -2.318 6.148 10.993 
138 1 1.291 8.001 0.79 
142 1 -2.566 8.842 8.653 
145 1 -4.57 9.799 7.479 
151 1 -5.019 10.493 10.993 
154 1 -3.054 9.687 9.849 
155 1 -2.96 6.142 7.479 
12 1 2.53 7.1 17.202 
17 1 0.468 9.427 20.924 
24 1 -3.52 8.357 11.865 
27 1 -0.31 7.31 21.647 
29 1 0.642 5.929 22.068 
31 1 1.292 7.192 17.88 
44 1 -0.148 7.298 20.131 
46 1 0.191 8.638 19.728 
51 1 -0.31 7.31 11.117 
53 1 2.53 7.1 15.561 
56 1 1.292 7.192 14.883 
63 1 -2.318 6.148 21.771 
66 1 -3.309 6.723 20.899 
70 1 -0.148 7.298 12.633 
72 1 0.548 5.882 13.035 
92 1 0.942 8.582 14.209 
95 1 -5.019 10.493 21.771 
98 1 -4.751 9.243 20.899 
104 1 0.468 9.427 11.84 
116 1 -2.66 8.795 21.771 
118 1 -3.52 8.357 20.899 
122 1 0.191 8.638 13.035 
133 1 -3.309 6.723 11.865 
136 1 0.3 8.576 22.068 
147 1 0.548 5.882 19.728 
153 1 -4.751 9.243 11.865 
160 1 0.942 8.582 18.554 
161 2 -3.52 8.357 13.215 
1 1 7.976 4.694 10.572 
4 1 9.274 4.77 10.993 
20 1 8.034 4.861 9.056 
42 1 9.55 5.41 7.479 
67 1 10.043 4.578 0.765 
77 1 7.976 4.694 0.042 
94 1 8.035 4.861 1.558 
96 1 9.278 4.635 1.961 
121 1 4.688 5.417 10.696 
130 1 9.55 5.41 3.135 
134 1 10.043 4.578 9.849 
152 1 9.278 4.635 8.653 
45 1 4.688 5.417 22.068 
55 1 4.788 5.329 13.035 
106 1 9.274 4.77 21.771 
137 1 4.788 5.329 19.728 
2 1 7.294 10.585 9.056 
3 1 9.004 7.624 6.127 
6 1 8.556 6.347 6.805 
16 1 2.314 8.72 0.79 
22 1 7.166 6.156 8.653 
26 1 7.226 8.565 7.479 
35 1 7.191 10.764 10.572 
37 1 6.846 9.307 10.993 
39 1 8.214 8.992 6.805 
41 1 6.677 7.002 9.849 
48 1 3.775 6.213 0.79 
61 1 7.294 10.585 1.558 
62 1 9.004 7.624 4.487 
64 1 6.747 9.395 1.961 
68 1 7.437 6.931 3.135 
71 1 4.29 8.493 10.696 
74 1 3.567 7.818 9.824 
81 1 8.556 6.347 3.808 
83 1 6.47 8.606 0.765 
93 1 7.191 10.764 0.042 
97 1 8.214 8.992 3.808 
101 1 2.261 9.954 10.696 
103 1 2.314 8.72 9.824 
117 1 7.166 6.156 1.961 
120 1 7.226 8.565 3.135 
123 1 3.775 6.213 9.824 
129 1 6.677 7.002 0.765 
132 1 6.747 9.395 8.653 
135 1 7.437 6.931 7.479 
141 1 7.244 6.231 10.993 
144 1 6.47 8.606 9.849 
148 1 3.567 7.818 0.79 
7 1 9.22 6.004 11.865 
10 1 3.558 10.029 21.647 
13 1 2.261 9.954 22.068 
15 1 2.978 8.376 17.88 
28 1 3.5 9.862 20.131 
30 1 4.369 8.568 19.728 
34 1 4.308 6.159 18.554 
40 1 7.76 8.511 11.865 
49 1 4.857 7.722 20.924 
50 1 1.984 9.314 18.554 
58 1 1.491 10.146 11.84 
59 1 4.097 7.793 14.209 
69 1 3.558 10.029 11.117 
73 1 2.978 8.376 14.883 
75 1 5.064 6.118 11.84 
79 1 7.244 6.231 21.771 
82 1 7.967 6.906 20.899 
86 1 3.5 9.862 12.633 
88 1 2.256 10.089 13.035 
108 1 9.22 6.004 20.899 
112 1 4.369 8.568 13.035 
115 1 4.308 6.159 14.209 
124 1 4.857 7.722 11.84 
125 1 1.984 9.314 14.209 
126 1 6.846 9.307 21.771 
128 1 7.76 8.511 20.899 
139 1 1.491 10.146 20.924 
140 1 4.097 7.793 18.554 
143 1 7.967 6.906 11.865 
146 1 4.29 8.493 22.068 
149 1 5.064 6.118 20.924 
157 1 2.256 10.089 19.728 
ITEM: TIMESTEP
10
ITEM: NUMBER OF ATOMS
161
ITEM: BOX BOUNDS xy xz yz pp pp pp
-6.7755000000000001e+00 1.3552000000000000e+01 -6.7755000000000001e+00
0.0000000000000000e+00 1.1735510246683001e+01 0.0000000000000000e+00
0.0000000000000000e+00 2.2149999999999999e+01 0.0000000000000000e+00
ITEM: ATOMS id type x y z 
8 1 -2.4104 5.37834 9.84413 
87 1 2.98218 4.28813 10.6513 
90 1 2.66258 5.44829 9.77291 
109 1 -2.40898 5.39957 0.766704 
158 1 2.66754 5.44184 0.837377 
11 1 4.3022 4.2259 20.118 
14 1 2.9093 4.12977 19.6889 
18 1 1.31664 5.8436 18.6044 
33 1 2.11577 4.25058 20.9233 
43 1 4.29867 4.1717 21.5825 
47 1 3.24528 5.79115 17.8385 
52 1 4.29752 4.22722 12.6404 
76 1 2.41116 4.91981 14.1878 
85 1 4.29914 4.16575 11.1845 
89 1 3.23745 5.80248 14.9311 
91 1 0.973554 5.06418 11.8441 
102 1 2.91271 4.12293 13.0715 
105 1 1.33866 5.85488 14.1822 
114 1 2.1285 4.23964 11.8399 
150 1 2.42286 4.91067 18.5818 
156 1 2.98245 4.29039 22.1108 
159 1 0.954439 5.1152 20.9177 
5 1 -4.91338 10.5887 8.64347 
9 1 -3.35999 8.86605 7.50534 
19 1 -1.77559 7.55218 10.5648 
21 1 -2.55089 8.79465 10.8795 
23 1 -3.30578 7.53596 6.82505 
25 1 -4.13271 10.4623 9.82128 
32 1 1.57437 6.33976 0.75845 
36 1 -1.88751 7.54942 9.03073 
38 1 -2.15056 6.20119 8.6432 
54 1 0.312335 8.49744 10.6987 
57 1 1.34182 7.98597 9.78868 
60 1 -1.77098 7.51716 0.0444445 
65 1 -3.30917 7.52469 3.78153 
78 1 -1.89914 7.5434 1.55777 
80 1 -2.57022 8.7936 1.89448 
84 1 -4.45856 9.82251 3.10832 
99 1 -2.97764 9.60756 0.778779 
100 1 -2.92596 6.25781 3.17212 
107 1 -4.92342 10.5955 1.98608 
110 1 -3.36396 8.86391 3.10352 
111 1 0.594013 5.97073 10.8113 
113 1 1.59436 6.34785 9.84178 
119 1 -4.12782 10.4645 0.775409 
127 1 -2.15935 6.21581 1.96121 
131 1 -2.32422 6.20325 10.9965 
138 1 1.33799 7.99141 0.822026 
142 1 -2.55912 8.78275 8.69951 
145 1 -4.45724 9.82236 7.50748 
151 1 -5.02769 10.478 11.0093 
154 1 -2.9706 9.59131 9.83566 
155 1 -2.92918 6.2576 7.43118 
12 1 2.58301 7.0706 17.0974 
17 1 0.394451 9.32978 20.9285 
24 1 -3.49918 8.39544 11.9823 
27 1 -0.244738 7.21134 21.6433 
29 1 0.61603 5.98001 21.9954 
31 1 1.29114 7.18812 17.8983 
44 1 -0.114105 7.17914 20.1407 
46 1 0.136416 8.50431 19.7316 
51 1 -0.260591 7.24384 11.1301 
53 1 2.5748 7.07641 15.6397 
56 1 1.31286 7.17658 14.863 
63 1 -2.32869 6.22333 21.776 
66 1 -3.35318 6.74005 20.8622 
70 1 -0.138051 7.20679 12.6065 
72 1 0.545477 5.92569 12.9282 
92 1 0.908203 8.46947 14.2617 
95 1 -4.99713 10.4327 21.7278 
98 1 -4.68228 9.27882 20.852 
104 1 0.394307 9.33558 11.8288 
116 1 -2.61979 8.7478 21.8355 
118 1 -3.58692 8.38759 20.9153 
122 1 0.128353 8.51273 13.0349 
133 1 -3.31302 6.61228 11.8785 
136 1 0.31479 8.50028 22.0653 
147 1 0.551795 5.93235 19.8004 
153 1 -4.85683 9.3219 11.8536 
160 1 0.901745 8.47616 18.5147 
161 2 -3.42516 8.34966 13.3309 
1 1 7.84748 4.95841 10.5103 
4 1 9.1895 4.74169 11.0388 
20 1 7.87478 4.94615 9.0605 
42 1 9.45146 5.4237 7.43922 
67 1 10 4.55941 0.80144 
77 1 7.82753 4.96293 0.122309 
94 1 7.87306 4.95307 1.55076 
96 1 9.1704 4.66281 1.99223 
121 1 4.66464 5.44714 10.722 
130 1 9.44662 5.42725 3.17324 
134 1 9.97692 4.56616 9.84107 
152 1 9.17601 4.65925 8.61858 
45 1 4.66167 5.44344 22.0388 
55 1 4.81791 5.48403 13.0582 
106 1 9.1999 4.72234 21.7012 
137 1 4.81187 5.48715 19.7059 
2 1 7.23474 10.516 9.06889 
3 1 8.96567 7.65146 6.04356 
6 1 8.53768 6.40401 6.83731 
16 1 2.34934 8.69234 0.85484 
22 1 7.14329 6.16257 8.69925 
26 1 7.19278 8.42537 7.53875 
35 1 7.24419 10.5559 10.4894 
37 1 6.88057 9.30332 11.0074 
39 1 8.30137 8.9328 6.79632 
41 1 6.71144 7.01863 9.8261 
48 1 3.71004 6.36337 0.839251 
61 1 7.24499 10.5065 1.57017 
62 1 8.96102 7.64314 4.56962 
64 1 6.71756 9.23743 2.00843 
68 1 7.40323 6.9683 3.06075 
71 1 4.30201 8.55116 10.7741 
74 1 3.62415 7.77546 9.82292 
81 1 8.55077 6.41276 3.77048 
83 1 6.5429 8.44683 0.789238 
93 1 7.23763 10.5617 0.104511 
97 1 8.29562 8.93205 3.81492 
101 1 2.34705 9.96356 10.6607 
103 1 2.35194 8.69024 9.75754 
117 1 7.14654 6.1652 1.905 
120 1 7.19596 8.42636 3.06808 
123 1 3.71193 6.36911 9.77468 
129 1 6.71788 7.00692 0.789267 
132 1 6.71642 9.22923 8.63017 
135 1 7.39929 6.96643 7.55674 
141 1 7.23404 6.16571 10.9267 
144 1 6.54453 8.44022 9.81101 
148 1 3.62582 7.77605 0.792212 
7 1 9.18883 6.02019 11.934 
10 1 3.67591 9.773 21.5858 
13 1 2.34543 9.96141 22.1023 
15 1 3.00014 8.31673 17.9204 
28 1 3.66577 9.7586 20.1374 
30 1 4.39119 8.53597 19.7858 
34 1 4.36108 6.31819 18.6403 
40 1 7.69157 8.39896 11.8783 
49 1 4.7943 7.71659 20.8966 
50 1 2.08909 9.29588 18.5173 
58 1 1.55808 10.1588 11.8401 
59 1 4.11941 7.76401 14.1242 
69 1 3.67504 9.77124 11.1805 
73 1 2.98875 8.29956 14.8463 
75 1 4.98008 6.27474 11.8545 
79 1 7.22921 6.16435 21.8441 
82 1 7.90811 6.94659 20.8876 
86 1 3.65977 9.76331 12.6234 
88 1 2.36685 10.0633 13.0696 
108 1 9.1854 6.05706 20.8153 
112 1 4.38811 8.54389 12.9864 
115 1 4.35939 6.32134 14.1294 
124 1 4.80406 7.70793 11.8607 
125 1 2.09383 9.29452 14.2475 
126 1 6.85914 9.29518 21.7772 
128 1 7.81104 8.35837 20.8403 
139 1 1.55628 10.1572 20.9262 
140 1 4.12567 7.76081 18.6444 
143 1 7.8926 6.95783 11.8811 
146 1 4.3093 8.54557 21.9833 
149 1 4.97874 6.28168 20.909 
157 1 2.36147 10.0652 19.6943 
ITEM: TIMESTEP
20
ITEM: NUMBER OF ATOMS
161
ITEM: BOX BOUNDS xy xz yz pp pp pp
-6.7755000000000001e+00 1.3552000000000000e+01 -6.7755000000000001e+00
0.0000000000000000e+00 1.1735510246683001e+01 0.0000000000000000e+00
0.0000000000000000e+00 2.2149999999999999e+01 0.0000000000000000e+00
ITEM: ATOMS id type x y z 
8 1 -2.41743 5.38401 9.82544 
87 1 2.9676 4.27435 10.6451 
90 1 2.64681 5.45879 9.76387 
109 1 -2.42262 5.39734 0.775873 
158 1 2.6616 5.44399 0.848532 
11 1 4.28222 4.21983 20.1149 
14 1 2.89151 4.14648 19.7013 
18 1 1.30162 5.85723 18.5838 
33 1 2.10604 4.26357 20.9044 
43 1 4.29492 4.19307 21.563 
47 1 3.25396 5.79285 17.8428 
52 1 4.28202 4.22121 12.6489 
76 1 2.42423 4.92644 14.1825 
85 1 4.29459 4.19396 11.1926 
89 1 3.25451 5.79573 14.9274 
91 1 0.969004 5.04911 11.847 
102 1 2.89715 4.14286 13.0712 
105 1 1.31453 5.8672 14.1729 
114 1 2.12593 4.22888 11.8575 
150 1 2.43795 4.92051 18.5821 
156 1 2.95938 4.2737 22.1099 
159 1 0.960982 5.10435 20.9169 
5 1 -4.89976 10.582 8.63819 
9 1 -3.32826 8.86787 7.49927 
19 1 -1.78026 7.57232 10.5494 
21 1 -2.55795 8.77761 10.9065 
23 1 -3.30122 7.53402 6.81672 
25 1 -4.11555 10.4503 9.8143 
32 1 1.59725 6.3578 0.773048 
36 1 -1.88215 7.55129 9.04149 
38 1 -2.15249 6.21988 8.63789 
54 1 0.315339 8.50536 10.6797 
57 1 1.36718 7.9726 9.78534 
60 1 -1.76416 7.52874 0.0551987 
65 1 -3.30275 7.53332 3.78997 
78 1 -1.88946 7.5562 1.55289 
80 1 -2.55302 8.79165 1.89675 
84 1 -4.45882 9.81477 3.1067 
99 1 -2.97737 9.60956 0.773559 
100 1 -2.93269 6.26702 3.17479 
107 1 -4.9069 10.5823 1.98296 
110 1 -3.32921 8.86435 3.10778 
111 1 0.601696 5.96696 10.8089 
113 1 1.59538 6.36163 9.85374 
119 1 -4.11937 10.4538 0.782272 
127 1 -2.15532 6.23031 1.97346 
131 1 -2.31312 6.20735 10.9957 
138 1 1.3628 7.99267 0.828072 
142 1 -2.54022 8.77833 8.69735 
145 1 -4.45498 9.81408 7.50503 
151 1 -5.01332 10.4737 11.024 
154 1 -2.9746 9.60011 9.84773 
155 1 -2.93452 6.26887 7.43645 
12 1 2.56191 7.06643 17.1283 
17 1 0.406278 9.32998 20.913 
24 1 -3.49701 8.40293 12.0005 
27 1 -0.249725 7.19663 21.6358 
29 1 0.609934 5.97308 22.0166 
31 1 1.29254 7.18816 17.9008 
44 1 -0.130198 7.16877 20.1373 
46 1 0.141168 8.49442 19.7175 
51 1 -0.273865 7.23284 11.1385 
53 1 2.56361 7.06162 15.6239 
56 1 1.28195 7.17104 14.8543 
63 1 -2.33168 6.22537 21.758 
66 1 -3.38012 6.72858 20.8574 
70 1 -0.153331 7.19545 12.6192 
72 1 0.53755 5.93214 12.9094 
92 1 0.919488 8.45104 14.2504 
95 1 -4.97818 10.4482 21.7305 
98 1 -4.68448 9.27766 20.8364 
104 1 0.406087 9.33656 11.8449 
116 1 -2.62339 8.75638 21.8175 
118 1 -3.60976 8.3759 20.9073 
122 1 0.136891 8.50802 13.0518 
133 1 -3.34085 6.62264 11.893 
136 1 0.3124 8.49947 22.0839 
147 1 0.534383 5.93091 19.7993 
153 1 -4.8398 9.2872 11.8817 
160 1 0.913857 8.45225 18.513 
161 2 -3.40369 8.34706 13.3267 
1 1 7.85727 4.93429 10.532 
4 1 9.1573 4.77742 11.0107 
20 1 7.8506 4.94917 9.05828 
42 1 9.45627 5.4408 7.43984 
67 1 9.97013 4.56967 0.762385 
77 1 7.86301 4.92895 0.0854954 
94 1 7.85095 4.94607 1.54998 
96 1 9.17393 4.66687 1.99856 
121 1 4.66593 5.47546 10.7009 
130 1 9.45793 5.44073 3.17192 
134 1 9.96642 4.57281 9.85125 
152 1 9.17215 4.66424 8.61314 
45 1 4.65986 5.47415 22.0612 
55 1 4.82254 5.51008 13.0669 
106 1 9.16331 4.79023 21.754 
137 1 4.81894 5.50606 19.6998 
2 1 7.24663 10.5115 9.03955 
3 1 8.97515 7.64727 6.06131 
6 1 8.52226 6.3944 6.82353 
16 1 2.35801 8.69655 0.854431 
22 1 7.11566 6.17913 8.70571 
26 1 7.19522 8.41464 7.53669 
35 1 7.21774 10.5883 10.4566 
37 1 6.86341 9.27559 11.0228 
39 1 8.28203 8.93559 6.77601 
41 1 6.71527 7.01361 9.82714 
48 1 3.69784 6.36389 0.837244 
61 1 7.25275 10.5021 1.5702 
62 1 8.97711 7.65013 4.55088 
64 1 6.71209 9.21755 1.99251 
68 1 7.39396 6.96445 3.0602 
71 1 4.31923 8.52482 10.7529 
74 1 3.6079 7.78986 9.81339 
81 1 8.52024 6.39459 3.78662 
83 1 6.54895 8.43311 0.784887 
93 1 7.2371 10.5335 0.12423 
97 1 8.28041 8.93746 3.83791 
101 1 2.37481 9.93371 10.6716 
103 1 2.35662 8.69316 9.75706 
117 1 7.11453 6.18624 1.90576 
120 1 7.19291 8.41983 3.07404 
123 1 3.7079 6.36163 9.77578 
129 1 6.71926 7.00051 0.782683 
132 1 6.70633 9.20286 8.63488 
135 1 7.39324 6.96414 7.55513 
141 1 7.22524 6.21091 10.9421 
144 1 6.55263 8.41413 9.79789 
148 1 3.60642 7.78613 0.79966 
7 1 9.1646 6.0247 11.9331 
10 1 3.67183 9.78895 21.5988 
13 1 2.37367 9.92983 22.091 
15 1 3.01324 8.32818 17.901 
28 1 3.68276 9.77991 20.1396 
30 1 4.42332 8.53604 19.7833 
34 1 4.33992 6.30333 18.6177 
40 1 7.71674 8.35393 11.8985 
49 1 4.81128 7.72481 20.9058 
50 1 2.0761 9.27781 18.5176 
58 1 1.566 10.1523 11.8397 
59 1 4.13528 7.76414 14.1357 
69 1 3.67155 9.78948 11.1642 
73 1 3.01074 8.32514 14.8652 
75 1 4.98727 6.29497 11.8597 
79 1 7.21694 6.20371 21.8313 
82 1 7.92713 6.93313 20.8861 
86 1 3.68153 9.77776 12.6232 
88 1 2.36423 10.0583 13.0738 
108 1 9.17527 6.03109 20.83 
112 1 4.42435 8.53793 12.98 
115 1 4.34027 6.30343 14.1487 
124 1 4.81167 7.72552 11.8576 
125 1 2.0751 9.28075 14.2463 
126 1 6.87139 9.25197 21.7765 
128 1 7.83172 8.36033 20.8502 
139 1 1.56415 10.1498 20.9243 
140 1 4.13635 7.75995 18.6287 
143 1 7.90802 6.94935 11.871 
146 1 4.31744 8.52593 22.0126 
149 1 4.98713 6.29652 20.9062 
157 1 2.36001 10.0587 19.6907 
ITEM: TIMESTEP
30
ITEM: NUMBER OF ATOMS
161
ITEM: BOX BOUNDS xy xz yz pp pp pp
-6.7755000000000001e+00 1.3552000000000000e+01 -6.7755000000000001e+00
0.0000000000000000e+00 1.1735510246683001e+01 0.0000000000000000e+00
0.0000000000000000e+00 2.2149999999999999e+01 0.0000000000000000e+00
ITEM: ATOMS id type x y z 
8 1 -2.4256 5.396 9.82038 
87 1 2.96092 4.2818 10.6406 
90 1 2.6399 5.4588 9.76929 
109 1 -2.43214 5.40841 0.780748 
158 1 2.65319 5.44576 0.847269 
11 1 4.27539 4.22731 20.1134 
14 1 2.88422 4.15444 19.7021 
18 1 1.295 5.85435 18.5769 
33 1 2.09481 4.26923 20.9051 
43 1 4.28546 4.20984 21.5557 
47 1 3.24914 5.79593 17.8351 
52 1 4.27657 4.23079 12.6497 
76 1 2.42418 4.93557 14.1812 
85 1 4.28777 4.21478 11.2031 
89 1 3.25055 5.79363 14.9324 
91 1 0.964021 5.04753 11.8416 
102 1 2.89331 4.15148 13.0717 
105 1 1.30655 5.86367 14.1683 
114 1 2.11718 4.22655 11.8557 
150 1 2.43701 4.92646 18.5812 
156 1 2.95212 4.28212 22.1132 
159 1 0.955005 5.11536 20.9202 
5 1 -4.89202 10.5713 8.62836 
9 1 -3.31238 8.87112 7.49171 
19 1 -1.77986 7.57593 10.5498 
21 1 -2.56062 8.77623 10.9121 
23 1 -3.29666 7.53622 6.81557 
25 1 -4.11603 10.4426 9.82686 
32 1 1.60034 6.3669 0.777126 
36 1 -1.87293 7.55921 9.04388 
38 1 -2.15425 6.22625 8.63332 
54 1 0.322295 8.49983 10.6717 
57 1 1.37819 7.96222 9.79102 
60 1 -1.76695 7.53392 0.0549537 
65 1 -3.29802 7.53833 3.79162 
78 1 -1.87978 7.56395 1.54973 
80 1 -2.54239 8.79521 1.89803 
84 1 -4.45749 9.80199 3.10781 
99 1 -2.97235 9.60165 0.767274 
100 1 -2.93586 6.27542 3.17288 
107 1 -4.9003 10.5715 1.98402 
110 1 -3.31569 8.86915 3.11268 
111 1 0.603102 5.96754 10.806 
113 1 1.60565 6.375 9.85909 
119 1 -4.11048 10.4492 0.781955 
127 1 -2.15712 6.23702 1.97422 
131 1 -2.32037 6.21449 10.9978 
138 1 1.36795 7.98566 0.825024 
142 1 -2.5308 8.78355 8.6995 
145 1 -4.45518 9.79959 7.50405 
151 1 -4.99916 10.4654 11.0183 
154 1 -2.96912 9.59474 9.85476 
155 1 -2.93781 6.27696 7.43841 
12 1 2.56328 7.07127 17.1431 
17 1 0.413717 9.31644 20.9089 
24 1 -3.50198 8.40545 12.0124 
27 1 -0.250877 7.19343 21.6345 
29 1 0.609542 5.96448 22.0306 
31 1 1.28377 7.18292 17.8978 
44 1 -0.138566 7.15942 20.1392 
46 1 0.141549 8.48657 19.7162 
51 1 -0.273088 7.22677 11.1411 
53 1 2.56169 7.0645 15.6139 
56 1 1.27843 7.17037 14.8543 
63 1 -2.33875 6.23468 21.753 
66 1 -3.38512 6.73658 20.862 
70 1 -0.16506 7.18951 12.6178 
72 1 0.528035 5.93246 12.9055 
92 1 0.920734 8.44299 14.2476 
95 1 -4.97036 10.4416 21.7277 
98 1 -4.6734 9.27911 20.8372 
104 1 0.415074 9.32726 11.8514 
116 1 -2.62465 8.75811 21.8047 
118 1 -3.61956 8.36398 20.9065 
122 1 0.137149 8.503 13.0537 
133 1 -3.34572 6.62268 11.891 
136 1 0.319632 8.4929 22.0872 
147 1 0.523744 5.92762 19.7973 
153 1 -4.83192 9.28 11.8855 
160 1 0.917705 8.44513 18.5154 
161 2 -3.38847 8.34502 13.3372 
1 1 7.83794 4.9368 10.5317 
4 1 9.14468 4.79492 11.0058 
20 1 7.83595 4.94926 9.06504 
42 1 9.45361 5.45096 7.44107 
67 1 9.96589 4.58024 0.771356 
77 1 7.84585 4.93383 0.0865303 
94 1 7.8359 4.94665 1.54657 
96 1 9.16674 4.67712 1.99645 
121 1 4.65553 5.49878 10.6919 
130 1 9.45366 5.45185 3.17072 
134 1 9.96296 4.58051 9.84086 
152 1 9.16506 4.67569 8.6151 
45 1 4.65191 5.49639 22.0721 
55 1 4.82069 5.52134 13.0668 
106 1 9.15106 4.80659 21.7562 
137 1 4.81958 5.51946 19.6987 
2 1 7.25521 10.5008 9.03596 
3 1 8.97425 7.64836 6.07029 
6 1 8.51254 6.39215 6.81612 
16 1 2.3636 8.69636 0.859898 
22 1 7.10148 6.17786 8.7013 
26 1 7.19626 8.41258 7.53354 
35 1 7.22221 10.5698 10.4528 
37 1 6.84955 9.25549 11.0209 
39 1 8.27998 8.93414 6.76602 
41 1 6.71254 6.99775 9.83469 
48 1 3.70164 6.35267 0.836026 
61 1 7.25994 10.4952 1.57467 
62 1 8.97427 7.65017 4.53947 
64 1 6.71304 9.20708 1.99149 
68 1 7.38981 6.96058 3.06304 
71 1 4.32348 8.52217 10.7444 
74 1 3.59918 7.7983 9.80776 
81 1 8.51283 6.39336 3.7947 
83 1 6.54796 8.42206 0.787716 
93 1 7.24633 10.5149 0.130267 
97 1 8.28099 8.93255 3.8485 
101 1 2.38574 9.91607 10.6762 
103 1 2.36028 8.6922 9.75499 
117 1 7.10171 6.18272 1.9102 
120 1 7.19491 8.41766 3.07805 
123 1 3.69546 6.35318 9.77871 
129 1 6.71363 6.99115 0.777966 
132 1 6.70884 9.19699 8.62671 
135 1 7.39072 6.95798 7.54955 
141 1 7.22485 6.2152 10.9428 
144 1 6.55496 8.41448 9.80812 
148 1 3.59856 7.79766 0.803878 
7 1 9.16047 6.02733 11.9364 
10 1 3.68653 9.78497 21.5991 
13 1 2.38431 9.91806 22.0858 
15 1 3.02082 8.32956 17.8925 
28 1 3.69976 9.77819 20.1408 
30 1 4.43416 8.54217 19.7783 
34 1 4.33754 6.30687 18.6139 
40 1 7.72249 8.35666 11.8932 
49 1 4.81803 7.73464 20.9115 
50 1 2.08117 9.2687 18.5185 
58 1 1.57599 10.1448 11.8449 
59 1 4.14145 7.76315 14.1382 
69 1 3.68413 9.78611 11.1634 
73 1 3.01645 8.32745 14.8703 
75 1 4.98819 6.30505 11.8619 
79 1 7.21667 6.20557 21.8235 
82 1 7.93371 6.92472 20.8828 
86 1 3.69995 9.77794 12.6219 
88 1 2.36888 10.0475 13.0714 
108 1 9.17109 6.02836 20.8271 
112 1 4.43579 8.54218 12.9858 
115 1 4.33802 6.30979 14.151 
124 1 4.81888 7.73236 11.8541 
125 1 2.08084 9.2703 14.2466 
126 1 6.88128 9.22902 21.7669 
128 1 7.83573 8.36854 20.8526 
139 1 1.57153 10.1412 20.9175 
140 1 4.14251 7.76232 18.6265 
143 1 7.91267 6.94948 11.8758 
146 1 4.32022 8.52105 22.0194 
149 1 4.98767 6.30586 20.9012 
157 1 2.36732 10.0469 19.6921 
ITEM: TIMESTEP
40
ITEM: NUMBER OF ATOMS
161
ITEM: BOX BOUNDS xy xz yz pp pp pp
-6.7755000000000001e+00 1.3552000000000000e+01 -6.7755000000000001e+00
0.0000000000000000e+00 1.1735510246683001e+01 0.0000000000000000e+00
0.0000000000000000e+00 2.2149999999999999e+01 0.0000000000000000e+00
ITEM: ATOMS id type x y z 
8 1 -2.44298 5.4285 9.81094 
87 1 2.95356 4.29249 10.6371 
90 1 2.62242 5.45249 9.76595 
109 1 -2.45029 5.44269 0.78575 
158 1 2.63675 5.44034 0.865197 
11 1 4.26042 4.26062 20.1038 
14 1 2.86211 4.1726 19.7112 
18 1 1.27778 5.84643 18.5639 
33 1 2.07335 4.28526 20.9057 
43 1 4.26718 4.25603 21.5401 
47 1 3.23601 5.80233 17.8256 
52 1 4.26853 4.26104 12.66 
76 1 2.40823 4.94251 14.1806 
85 1 4.27108 4.26564 11.2199 
89 1 3.23392 5.80331 14.9399 
91 1 0.94358 5.04102 11.8354 
102 1 2.87847 4.16422 13.0594 
105 1 1.29532 5.86389 14.159 
114 1 2.09604 4.21887 11.8552 
150 1 2.42199 4.93601 18.5744 
156 1 2.94159 4.29722 22.1117 
159 1 0.934587 5.13272 20.929 
5 1 -4.87327 10.5476 8.63392 
9 1 -3.29185 8.87604 7.47571 
19 1 -1.77651 7.58774 10.553 
21 1 -2.56382 8.76971 10.9342 
23 1 -3.29665 7.54041 6.80656 
25 1 -4.10092 10.4277 9.82474 
32 1 1.59831 6.38735 0.79728 
36 1 -1.84997 7.58259 9.0425 
38 1 -2.14688 6.2523 8.6313 
54 1 0.335713 8.48486 10.6722 
57 1 1.38934 7.94538 9.79803 
60 1 -1.77009 7.55532 0.0473881 
65 1 -3.29665 7.54209 3.7967 
78 1 -1.85473 7.58778 1.54983 
80 1 -2.51431 8.80553 1.90515 
84 1 -4.44001 9.78651 3.11449 
99 1 -2.95327 9.58659 0.758784 
100 1 -2.93641 6.29141 3.16901 
107 1 -4.87925 10.5499 1.97713 
110 1 -3.29624 8.87717 3.12755 
111 1 0.58576 5.96076 10.8069 
113 1 1.59698 6.4035 9.85711 
119 1 -4.09073 10.4364 0.783492 
127 1 -2.15311 6.26223 1.97327 
131 1 -2.33391 6.2305 10.9959 
138 1 1.37982 7.97827 0.826267 
142 1 -2.50854 8.79618 8.69707 
145 1 -4.43552 9.7842 7.495 
151 1 -4.99714 10.4385 11.0181 
154 1 -2.95234 9.58261 9.86394 
155 1 -2.93857 6.28732 7.43911 
12 1 2.56721 7.07344 17.1496 
17 1 0.433566 9.28248 20.9026 
24 1 -3.49529 8.4041 12.0461 
27 1 -0.247941 7.16988 21.6419 
29 1 0.589971 5.96397 22.0504 
31 1 1.27845 7.18204 17.8903 
44 1 -0.163008 7.13541 20.1397 
46 1 0.13612 8.4605 19.716 
51 1 -0.273654 7.21642 11.1424 
53 1 2.56487 7.06289 15.6099 
56 1 1.27838 7.1683 14.8548 
63 1 -2.35065 6.25358 21.7519 
66 1 -3.39867 6.74868 20.8619 
70 1 -0.197176 7.17588 12.6216 
72 1 0.503498 5.92592 12.9033 
92 1 0.919583 8.43643 14.2422 
95 1 -4.95811 10.4255 21.724 
98 1 -4.65491 9.2837 20.8234 
104 1 0.436043 9.29803 11.8526 
116 1 -2.60663 8.75969 21.785 
118 1 -3.61584 8.33618 20.8883 
122 1 0.127264 8.4834 13.0532 
133 1 -3.35441 6.63135 11.8956 
136 1 0.331984 8.47214 22.0871 
147 1 0.497636 5.91772 19.7841 
153 1 -4.81775 9.27119 11.9022 
160 1 0.919262 8.43131 18.5206 
161 2 -3.33984 8.3381 13.3734 
1 1 7.78535 4.92323 10.5374 
4 1 9.11782 4.82801 10.9851 
20 1 7.79597 4.95501 9.05994 
42 1 9.43764 5.46907 7.44382 
67 1 9.94547 4.60986 0.780524 
77 1 7.79864 4.93275 0.0853158 
94 1 7.79514 4.94864 1.55144 
96 1 9.13196 4.70498 1.99755 
121 1 4.63303 5.53915 10.6774 
130 1 9.43834 5.47189 3.16717 
134 1 9.94526 4.60647 9.83225 
152 1 9.12768 4.70557 8.6138 
45 1 4.628 5.53135 22.0813 
55 1 4.81724 5.55129 13.0692 
106 1 9.12245 4.83439 21.7672 
137 1 4.81641 5.54652 19.696 
2 1 7.27416 10.4716 9.02246 
3 1 8.96412 7.65247 6.07528 
6 1 8.50508 6.39492 6.79877 
16 1 2.37528 8.70136 0.876123 
22 1 7.06572 6.16648 8.68845 
26 1 7.19676 8.3928 7.5209 
35 1 7.23463 10.5216 10.4444 
37 1 6.84157 9.23364 11.0264 
39 1 8.29767 8.91741 6.74843 
41 1 6.69138 6.98274 9.83641 
48 1 3.69101 6.35766 0.852676 
61 1 7.27463 10.4656 1.58275 
62 1 8.96477 7.65322 4.53883 
64 1 6.71831 9.1785 1.99351 
68 1 7.37241 6.9536 3.07004 
71 1 4.34333 8.52349 10.7254 
74 1 3.59589 7.8118 9.78122 
81 1 8.50443 6.39611 3.80765 
83 1 6.54447 8.3916 0.794971 
93 1 7.26791 10.4676 0.148003 
97 1 8.29668 8.92013 3.86412 
101 1 2.415 9.88673 10.6811 
103 1 2.37549 8.69545 9.74373 
117 1 7.06411 6.17038 1.92348 
120 1 7.19736 8.40046 3.08821 
123 1 3.68849 6.35704 9.76423 
129 1 6.68946 6.97058 0.776904 
132 1 6.71712 9.17068 8.61783 
135 1 7.37207 6.94834 7.54118 
141 1 7.2147 6.22377 10.957 
144 1 6.55209 8.3922 9.80188 
148 1 3.59635 7.80795 0.827814 
7 1 9.15132 6.03073 11.9495 
10 1 3.73025 9.78538 21.6006 
13 1 2.41323 9.89341 22.0724 
15 1 3.03009 8.32758 17.8794 
28 1 3.74093 9.7775 20.1373 
30 1 4.47169 8.55383 19.765 
34 1 4.33244 6.32371 18.6001 
40 1 7.72793 8.35685 11.8893 
49 1 4.84518 7.75392 20.9107 
50 1 2.09539 9.25108 18.5212 
58 1 1.5969 10.1194 11.8536 
59 1 4.16056 7.77126 14.1453 
69 1 3.72752 9.78174 11.1658 
73 1 3.02427 8.32046 14.8834 
75 1 4.99494 6.3345 11.8686 
79 1 7.20284 6.20571 21.8052 
82 1 7.93702 6.91589 20.862 
86 1 3.74194 9.7794 12.6259 
88 1 2.40465 10.0195 13.0734 
108 1 9.15961 6.02253 20.8138 
112 1 4.47276 8.55368 13.0009 
115 1 4.3325 6.32453 14.1647 
124 1 4.84516 7.75385 11.8563 
125 1 2.09246 9.25199 14.2423 
126 1 6.90553 9.19183 21.7561 
128 1 7.84052 8.3678 20.8369 
139 1 1.58993 10.1132 20.9083 
140 1 4.16199 7.77115 18.6196 
143 1 7.91149 6.95007 11.8966 
146 1 4.33494 8.52044 22.0352 
149 1 4.99026 6.3331 20.8952 
157 1 2.4031 10.0179 19.6906 
ITEM: TIMESTEP
50
ITEM: NUMBER OF ATOMS
161
ITEM: BOX BOUNDS xy xz yz pp pp pp
-6.7755000000000001e+00 1.3552000000000000e+01 -6.7755000000000001e+00
0.0000000000000000e+00 1.1735510246683001e+01 0.0000000000000000e+00
0.0000000000000000e+00 2.2149999999999999e+01 0.0000000000000000e+00
ITEM: ATOMS id type x y z 
8 1 -2.46461 5.45995 9.80478 
87 1 2.94275 4.32171 10.6398 
90 1 2.60949 5.48026 9.74802 
109 1 -2.47178 5.47607 0.788745 
158 1 2.62613 5.45996 0.892996 
11 1 4.24117 4.29788 20.0945 
14 1 2.83766 4.19199 19.7137 
18 1 1.25901 5.85329 18.5536 
33 1 2.05771 4.30368 20.9152 
43 1 4.24566 4.29723 21.5282 
47 1 3.227 5.79348 17.8372 
52 1 4.25167 4.30051 12.6733 
76 1 2.38324 4.94007 14.1767 
85 1 4.25767 4.30018 11.2301 
89 1 3.22664 5.79217 14.9284 
91 1 0.914582 5.02789 11.8351 
102 1 2.86136 4.17298 13.0531 
105 1 1.28659 5.8753 14.1555 
114 1 2.08321 4.22044 11.8407 
150 1 2.39443 4.92908 18.5672 
156 1 2.92453 4.32756 22.1165 
159 1 0.906089 5.14157 20.9329 
5 1 -4.85726 10.5211 8.63995 
9 1 -3.28045 8.86202 7.46853 
19 1 -1.77433 7.6015 10.5514 
21 1 -2.56817 8.76911 10.9503 
23 1 -3.30123 7.53009 6.80753 
25 1 -4.09455 10.4145 9.82887 
32 1 1.58284 6.37445 0.825327 
36 1 -1.82612 7.61019 9.03907 
38 1 -2.13435 6.28169 8.63083 
54 1 0.351327 8.46521 10.6724 
57 1 1.40431 7.95093 9.79404 
60 1 -1.76095 7.57321 0.0494641 
65 1 -3.30275 7.53323 3.79776 
78 1 -1.82726 7.61551 1.55397 
80 1 -2.49086 8.8224 1.92083 
84 1 -4.4124 9.79951 3.12115 
99 1 -2.92332 9.58129 0.756399 
100 1 -2.93073 6.28694 3.16182 
107 1 -4.8583 10.534 1.97366 
110 1 -3.27994 8.86917 3.13587 
111 1 0.562682 5.95033 10.8083 
113 1 1.57494 6.38435 9.85061 
119 1 -4.07491 10.4189 0.769672 
127 1 -2.14141 6.29163 1.96997 
131 1 -2.34844 6.24864 10.995 
138 1 1.39345 7.98194 0.839514 
142 1 -2.49078 8.8117 8.68146 
145 1 -4.40753 9.80549 7.49741 
151 1 -4.99244 10.4138 11.0281 
154 1 -2.92799 9.56758 9.87248 
155 1 -2.93025 6.28109 7.44296 
12 1 2.57572 7.05539 17.1379 
17 1 0.453925 9.24722 20.8993 
24 1 -3.47938 8.40464 12.0906 
27 1 -0.255088 7.14979 21.6403 
29 1 0.572477 5.95921 22.0635 
31 1 1.28887 7.1901 17.8919 
44 1 -0.18958 7.10677 20.1347 
46 1 0.125234 8.4335 19.7192 
51 1 -0.282989 7.20347 11.1507 
53 1 2.56919 7.0466 15.6131 
56 1 1.28587 7.17188 14.8471 
63 1 -2.36758 6.27555 21.7514 
66 1 -3.4112 6.74144 20.8488 
70 1 -0.228532 7.15573 12.6269 
72 1 0.472139 5.90996 12.9019 
92 1 0.910809 8.44545 14.2354 
95 1 -4.94192 10.3959 21.7219 
98 1 -4.64556 9.26146 20.7935 
104 1 0.45644 9.2691 11.8579 
116 1 -2.59181 8.76511 21.7716 
118 1 -3.59207 8.35077 20.8617 
122 1 0.111585 8.46686 13.0494 
133 1 -3.36416 6.64144 11.9089 
136 1 0.35084 8.44924 22.0873 
147 1 0.471645 5.90091 19.7704 
153 1 -4.81318 9.25377 11.9239 
160 1 0.91304 8.43635 18.5272 
161 2 -3.2764 8.33334 13.409 
1 1 7.72617 4.89126 10.5408 
4 1 9.06685 4.86017 10.9676 
20 1 7.75225 4.96248 9.08005 
42 1 9.4279 5.47596 7.44626 
67 1 9.91767 4.65141 0.786084 
77 1 7.74608 4.90664 0.0826839 
94 1 7.74723 4.95214 1.55496 
96 1 9.0883 4.72774 1.99595 
121 1 4.61601 5.57219 10.6896 
130 1 9.43296 5.47986 3.16096 
134 1 9.92078 4.64832 9.81584 
152 1 9.08731 4.72477 8.61167 
45 1 4.61049 5.5587 22.0693 
55 1 4.81665 5.58615 13.0772 
106 1 9.08543 4.85396 21.7798 
137 1 4.8115 5.57957 19.6867 
2 1 7.29419 10.4469 8.99665 
3 1 8.95697 7.66439 6.06495 
6 1 8.49906 6.39615 6.80502 
16 1 2.39033 8.70702 0.888593 
22 1 7.0179 6.1557 8.67236 
26 1 7.20735 8.37644 7.49954 
35 1 7.26036 10.4781 10.4167 
37 1 6.85483 9.21014 11.0281 
39 1 8.30702 8.92973 6.76458 
41 1 6.66825 6.9639 9.83458 
48 1 3.66044 6.3741 0.88872 
61 1 7.29364 10.4255 1.59801 
62 1 8.95828 7.66366 4.54162 
64 1 6.72187 9.14606 2.00211 
68 1 7.35257 6.93215 3.08264 
71 1 4.36928 8.52133 10.7154 
74 1 3.61951 7.82426 9.75993 
81 1 8.49652 6.39968 3.80113 
83 1 6.54585 8.37438 0.788723 
93 1 7.28874 10.4312 0.15816 
97 1 8.30626 8.93404 3.84839 
101 1 2.45561 9.87312 10.6915 
103 1 2.3891 8.69393 9.73235 
117 1 7.01542 6.1549 1.93967 
120 1 7.20362 8.38377 3.10579 
123 1 3.66106 6.37512 9.73009 
129 1 6.65984 6.9416 0.77568 
132 1 6.72229 9.13159 8.61023 
135 1 7.35161 6.92783 7.52415 
141 1 7.19078 6.22674 10.9636 
144 1 6.54805 8.37903 9.79751 
148 1 3.61757 7.82114 0.846437 
7 1 9.1419 6.03722 11.961 
10 1 3.78041 9.79962 21.6012 
13 1 2.44861 9.87335 22.0621 
15 1 3.03482 8.321 17.8864 
28 1 3.79094 9.77438 20.1338 
30 1 4.52063 8.56802 19.748 
34 1 4.33186 6.34151 18.5846 
40 1 7.73666 8.34279 11.9071 
49 1 4.87507 7.78305 20.9129 
50 1 2.10086 9.24309 18.5279 
58 1 1.62847 10.0813 11.8577 
59 1 4.17981 7.78905 14.1596 
69 1 3.77412 9.78291 11.1665 
73 1 3.02763 8.31475 14.8779 
75 1 4.99784 6.35428 11.8615 
79 1 7.17604 6.21377 21.7933 
82 1 7.9161 6.90626 20.841 