LAMMPS (3 Mar 2020)
# Alpha
clear
units		real
dimension 3
boundary        p p p
atom_style	charge
newton on
read_data       H_13.lmp
  orthogonal box = (0 0 0) to (11 11.002 11)
  2 by 2 by 2 MPI processor grid
  reading atoms ...
  49 atoms
  read_data CPU = 0.0570345 secs

timestep 0.25

# ---------- Define Interatomic Potential ---------------------
pair_style      reax/c NULL checkqeq no
pair_coeff      * * ffield.reax C H
fix             2 all qeq/reax 1 0.0 10.0 1.0e-6 reax/c

#------------ Equilibration of the system -------------------------
reset_timestep 0

dump 1 all custom 10 min.lammpstrj id type x y z

minimize 1.0e-8 1.0e-8 100000 100000
WARNING: Using 'neigh_modify every 1 delay 0 check yes' setting during minimization (../min.cpp:190)
WARNING: Total cutoff < 2*bond cutoff. May need to use an increased neighbor list skin. (../pair_reaxc.cpp:413)
Neighbor list info ...
  update every 1 steps, delay 0 steps, check yes
  max neighbors/atom: 2000, page size: 100000
  master list distance cutoff = 9.5
  ghost atom cutoff = 9.5
  binsize = 4.75, bins = 3 3 3
  2 neighbor lists, perpetual/occasional/extra = 2 0 0
  (1) pair reax/c, perpetual
      attributes: half, newton off, ghost
      pair build: half/bin/newtoff/ghost
      stencil: half/ghost/bin/3d/newtoff
      bin: standard
  (2) fix qeq/reax, perpetual, copy from (1)
      attributes: half, newton off, ghost
      pair build: copy
      stencil: none
      bin: none
Per MPI rank memory allocation (min/avg/max) = 18.75 | 18.81 | 18.91 Mbytes
Step Temp E_pair E_mol TotEng Press 
       0            0   -8602.3465            0   -8602.3465     36760.44 
     166            0   -8735.9039            0   -8735.9039     22083.23 
Loop time of 12.9322 on 8 procs for 166 steps with 49 atoms

99.7% CPU use with 8 MPI tasks x no OpenMP threads

Minimization stats:
  Stopping criterion = energy tolerance
  Energy initial, next-to-last, final = 
         -8602.3465316     -8735.90385177     -8735.90390725
  Force two-norm initial, final = 683.187 36.5877
  Force max component initial, final = 394.724 11.7269
  Final line search alpha, max atom move = 0.000133229 0.00156237
  Iterations, force evaluations = 166 1156

MPI task timing breakdown:
Section |  min time  |  avg time  |  max time  |%varavg| %total
---------------------------------------------------------------
Pair    | 8.9987     | 9.0997     | 9.2836     |   2.8 | 70.36
Neigh   | 0          | 0          | 0          |   0.0 |  0.00
Comm    | 0.20148    | 0.38145    | 0.48647    |  13.5 |  2.95
Output  | 0.0020112  | 0.0027126  | 0.0036871  |   1.1 |  0.02
Modify  | 3.395      | 3.3959     | 3.3997     |   0.1 | 26.26
Other   |            | 0.05251    |            |       |  0.41

Nlocal:    6.125 ave 7 max 6 min
Histogram: 7 0 0 0 0 0 0 0 0 1
Nghost:    598.125 ave 604 max 595 min
Histogram: 3 0 0 1 2 1 0 0 0 1
Neighs:    771.75 ave 875 max 755 min
Histogram: 7 0 0 0 0 0 0 0 0 1

Total # of neighbors = 6174
Ave neighs/atom = 126
Neighbor list builds = 0
Dangerous builds = 0

###
min_style cg
minimize 1.0e-8 1.0e-8 100000 100000
WARNING: Using 'neigh_modify every 1 delay 0 check yes' setting during minimization (../min.cpp:190)
WARNING: Total cutoff < 2*bond cutoff. May need to use an increased neighbor list skin. (../pair_reaxc.cpp:413)
Per MPI rank memory allocation (min/avg/max) = 18.75 | 18.81 | 18.91 Mbytes
Step Temp E_pair E_mol TotEng Press 
     166            0   -8735.9039            0   -8735.9039     22083.23 
     167            0   -8735.9039            0   -8735.9039    22082.898 
Loop time of 0.111154 on 8 procs for 1 steps with 49 atoms

99.7% CPU use with 8 MPI tasks x no OpenMP threads

Minimization stats:
  Stopping criterion = energy tolerance
  Energy initial, next-to-last, final = 
        -8735.90390725     -8735.90390725      -8735.9039258
  Force two-norm initial, final = 36.5877 36.5821
  Force max component initial, final = 11.7269 11.7266
  Final line search alpha, max atom move = 0.00013324 0.00156246
  Iterations, force evaluations = 1 9

MPI task timing breakdown:
Section |  min time  |  avg time  |  max time  |%varavg| %total
---------------------------------------------------------------
Pair    | 0.077404   | 0.07904    | 0.08018    |   0.3 | 71.11
Neigh   | 0          | 0          | 0          |   0.0 |  0.00
Comm    | 0.0033884  | 0.0045164  | 0.0061798  |   1.2 |  4.06
Output  | 0          | 0          | 0          |   0.0 |  0.00
Modify  | 0.026723   | 0.026737   | 0.026759   |   0.0 | 24.05
Other   |            | 0.0008616  |            |       |  0.78

Nlocal:    6.125 ave 7 max 6 min
Histogram: 7 0 0 0 0 0 0 0 0 1
Nghost:    598.75 ave 609 max 584 min
Histogram: 1 0 0 2 0 0 2 1 0 2
Neighs:    789.5 ave 895 max 771 min
Histogram: 7 0 0 0 0 0 0 0 0 1

Total # of neighbors = 6316
Ave neighs/atom = 128.898
Neighbor list builds = 0
Dangerous builds = 0

###
fix 1 all box/relax aniso 0.0
min_style cg
minimize 1.0e-8 1.0e-8 100000 100000
WARNING: Using 'neigh_modify every 1 delay 0 check yes' setting during minimization (../min.cpp:190)
WARNING: Total cutoff < 2*bond cutoff. May need to use an increased neighbor list skin. (../pair_reaxc.cpp:413)
Per MPI rank memory allocation (min/avg/max) = 18.75 | 18.81 | 18.91 Mbytes
Step Temp E_pair E_mol TotEng Press Volume 
     167            0   -8735.9039            0   -8735.9039    22082.898     1331.242 
    2098            0   -8775.1337            0   -8775.1337    170.96097    1349.4732 
Loop time of 29.4729 on 8 procs for 1931 steps with 49 atoms

99.4% CPU use with 8 MPI tasks x no OpenMP threads

Minimization stats:
  Stopping criterion = energy tolerance
  Energy initial, next-to-last, final = 
         -8735.9039258     -8775.13365663     -8775.13368453
  Force two-norm initial, final = 744.688 20.5741
  Force max component initial, final = 447.324 7.15847
  Final line search alpha, max atom move = 1.90502e-05 0.00013637
  Iterations, force evaluations = 1931 2951

MPI task timing breakdown:
Section |  min time  |  avg time  |  max time  |%varavg| %total
---------------------------------------------------------------
Pair    | 22.837     | 23.367     | 23.727     |   5.7 | 79.28
Neigh   | 0          | 0          | 0          |   0.0 |  0.00
Comm    | 0.51799    | 0.87485    | 1.4045     |  29.3 |  2.97
Output  | 0.021424   | 0.026549   | 0.035985   |   2.8 |  0.09
Modify  | 4.8744     | 4.8766     | 4.885      |   0.1 | 16.55
Other   |            | 0.3277     |            |       |  1.11

Nlocal:    6.125 ave 7 max 6 min
Histogram: 7 0 0 0 0 0 0 0 0 1
Nghost:    598.75 ave 609 max 584 min
Histogram: 1 0 0 2 0 0 2 1 0 2
Neighs:    789.5 ave 895 max 771 min
Histogram: 7 0 0 0 0 0 0 0 0 1

Total # of neighbors = 6316
Ave neighs/atom = 128.898
Neighbor list builds = 0
Dangerous builds = 0

unfix 1
###
min_style cg
minimize 1.0e-8 1.0e-8 100000 100000
WARNING: Using 'neigh_modify every 1 delay 0 check yes' setting during minimization (../min.cpp:190)
WARNING: Total cutoff < 2*bond cutoff. May need to use an increased neighbor list skin. (../pair_reaxc.cpp:413)
Per MPI rank memory allocation (min/avg/max) = 18.75 | 18.81 | 18.91 Mbytes
Step Temp E_pair E_mol TotEng Press 
    2098            0   -8775.1337            0   -8775.1337    170.96097 
    2251            0   -8783.3817            0   -8783.3817    8782.4858 
Loop time of 13.2657 on 8 procs for 153 steps with 49 atoms

99.6% CPU use with 8 MPI tasks x no OpenMP threads

Minimization stats:
  Stopping criterion = energy tolerance
  Energy initial, next-to-last, final = 
        -8775.13368453     -8783.38160891     -8783.38168472
  Force two-norm initial, final = 19.4394 11.6716
  Force max component initial, final = 7.15847 5.20662
  Final line search alpha, max atom move = 3.04554e-06 1.5857e-05
  Iterations, force evaluations = 153 1253

MPI task timing breakdown:
Section |  min time  |  avg time  |  max time  |%varavg| %total
---------------------------------------------------------------
Pair    | 9.2919     | 9.5033     | 9.7953     |   5.1 | 71.64
Neigh   | 0          | 0          | 0          |   0.0 |  0.00
Comm    | 0.1703     | 0.45931    | 0.6683     |  23.2 |  3.46
Output  | 0.0018298  | 0.0021137  | 0.002701   |   0.6 |  0.02
Modify  | 3.2485     | 3.2491     | 3.2521     |   0.1 | 24.49
Other   |            | 0.05189    |            |       |  0.39

Nlocal:    6.125 ave 7 max 6 min
Histogram: 7 0 0 0 0 0 0 0 0 1
Nghost:    569 ave 581 max 558 min
Histogram: 2 0 0 2 0 0 2 1 0 1
Neighs:    778.75 ave 875 max 760 min
Histogram: 7 0 0 0 0 0 0 0 0 1

Total # of neighbors = 6230
Ave neighs/atom = 127.143
Neighbor list builds = 0
Dangerous builds = 0

###
fix 1 all box/relax aniso 0.0
min_style cg
minimize 1.0e-8 1.0e-8 100000 100000
WARNING: Using 'neigh_modify every 1 delay 0 check yes' setting during minimization (../min.cpp:190)
WARNING: Total cutoff < 2*bond cutoff. May need to use an increased neighbor list skin. (../pair_reaxc.cpp:413)
Per MPI rank memory allocation (min/avg/max) = 18.75 | 18.81 | 18.91 Mbytes
Step Temp E_pair E_mol TotEng Press Volume 
    2251            0   -8783.3817            0   -8783.3817    8782.4858    1349.4732 
    3017            0   -8789.4327            0   -8789.4327   -66.003035    1358.0326 
Loop time of 11.6928 on 8 procs for 766 steps with 49 atoms

99.5% CPU use with 8 MPI tasks x no OpenMP threads

Minimization stats:
  Stopping criterion = energy tolerance
  Energy initial, next-to-last, final = 
        -8783.38168472     -8789.43263533     -8789.43266011
  Force two-norm initial, final = 300.219 18.3992
  Force max component initial, final = 182.253 6.31562
  Final line search alpha, max atom move = 1.70968e-05 0.000107977
  Iterations, force evaluations = 766 1213

MPI task timing breakdown:
Section |  min time  |  avg time  |  max time  |%varavg| %total
---------------------------------------------------------------
Pair    | 9.0338     | 9.2176     | 9.4645     |   4.1 | 78.83
Neigh   | 0          | 0          | 0          |   0.0 |  0.00
Comm    | 0.15539    | 0.40112    | 0.58467    |  19.7 |  3.43
Output  | 0.0079642  | 0.0093544  | 0.012272   |   1.3 |  0.08
Modify  | 1.9405     | 1.9413     | 1.9447     |   0.1 | 16.60
Other   |            | 0.1235     |            |       |  1.06

Nlocal:    6.125 ave 7 max 6 min
Histogram: 7 0 0 0 0 0 0 0 0 1
Nghost:    568.375 ave 576 max 560 min
Histogram: 2 0 0 2 0 0 0 2 0 2
Neighs:    779.5 ave 872 max 757 min
Histogram: 4 3 0 0 0 0 0 0 0 1

Total # of neighbors = 6236
Ave neighs/atom = 127.265
Neighbor list builds = 0
Dangerous builds = 0

unfix 1
###
min_style cg
minimize 1.0e-8 1.0e-8 100000 100000
WARNING: Using 'neigh_modify every 1 delay 0 check yes' setting during minimization (../min.cpp:190)
WARNING: Total cutoff < 2*bond cutoff. May need to use an increased neighbor list skin. (../pair_reaxc.cpp:413)
Per MPI rank memory allocation (min/avg/max) = 18.75 | 18.81 | 18.91 Mbytes
Step Temp E_pair E_mol TotEng Press 
    3017            0   -8789.4327            0   -8789.4327   -66.003035 
    3061            0   -8789.9619            0   -8789.9619    933.32116 
Loop time of 4.3626 on 8 procs for 44 steps with 49 atoms

99.6% CPU use with 8 MPI tasks x no OpenMP threads

Minimization stats:
  Stopping criterion = energy tolerance
  Energy initial, next-to-last, final = 
        -8789.43266011     -8789.96180067      -8789.9618758
  Force two-norm initial, final = 17.5509 13.7455
  Force max component initial, final = 6.31562 4.30294
  Final line search alpha, max atom move = 4.33663e-05 0.000186603
  Iterations, force evaluations = 44 418

MPI task timing breakdown:
Section |  min time  |  avg time  |  max time  |%varavg| %total
---------------------------------------------------------------
Pair    | 3.0922     | 3.1562     | 3.2539     |   2.9 | 72.35
Neigh   | 0          | 0          | 0          |   0.0 |  0.00
Comm    | 0.052927   | 0.14959    | 0.21289    |  13.1 |  3.43
Output  | 0.00049523 | 0.0005809  | 0.00078806 |   0.0 |  0.01
Modify  | 1.0393     | 1.0395     | 1.0406     |   0.0 | 23.83
Other   |            | 0.01675    |            |       |  0.38

Nlocal:    6.125 ave 7 max 6 min
Histogram: 7 0 0 0 0 0 0 0 0 1
Nghost:    568.375 ave 576 max 560 min
Histogram: 2 0 0 2 0 0 0 2 0 2
Neighs:    774.5 ave 858 max 754 min
Histogram: 5 2 0 0 0 0 0 0 0 1

Total # of neighbors = 6196
Ave neighs/atom = 126.449
Neighbor list builds = 0
Dangerous builds = 0

undump 1
#############
#----------- Thermo ------------
reset_timestep 0
thermo  200

thermo_style    custom step temp etotal ke pe press
velocity all create 300 12345 mom yes rot yes
fix 1 all npt temp 300 300 25.0 iso 0.0 0.0 250.0

variable vpe equal pe
variable vtemp equal temp
variable vstep equal step

fix output all print 2500 "${vstep} ${vtemp} ${vpe}" file temp-tpdh-Pt.dat screen no

dump 1 all custom 2500 thermo-tpdh-Pt.lammpstrj id type x y z

run 1000000
WARNING: Total cutoff < 2*bond cutoff. May need to use an increased neighbor list skin. (../pair_reaxc.cpp:413)
Per MPI rank memory allocation (min/avg/max) = 17.63 | 17.68 | 17.78 Mbytes
Step Temp TotEng KinEng PotEng Press 
       0          300   -8747.0382    42.923665   -8789.9619    2378.1602 
     200    203.13657   -8729.1321    29.064554   -8758.1966    20741.255 
     400    321.00794   -8701.8332    45.929457   -8747.7626   -31772.173 
     600    260.10718   -8695.7103    37.215844   -8732.9261    23796.381 
     800    297.94822   -8706.2287    42.630099   -8748.8588    5955.9131 
    1000     284.6232   -8716.5983    40.723569   -8757.3218   -6236.9686 
    1200    344.33467   -8701.9165     49.26702   -8751.1835    9808.1959 
    1400    329.64971   -8706.1539    47.165912   -8753.3198    18643.458 
    1600    238.88182   -8714.0997    34.178944   -8748.2786    12547.191 
    1800    299.57364   -8715.0837    42.862661   -8757.9464   -12831.926 
    2000    289.97113   -8702.7021    41.488745   -8744.1909   -14648.081 
    2200    319.96694    -8708.032    45.780512   -8753.8125    11585.935 
    2400    331.91432   -8712.0857     47.48993   -8759.5756   -42250.886 
    2600    312.69853   -8704.1809    44.740556   -8748.9214   -54315.193 
    2800    378.95349   -8703.4137    54.220242   -8757.6339    9956.0821 
    3000    264.28443   -8718.3134     37.81352   -8756.1269    836.07327 
    3200    326.10696   -8702.9468    46.659019   -8749.6058   -5920.3104 
    3400    285.39643   -8706.4351    40.834203   -8747.2693    24375.964 
    3600    288.05093   -8714.3961    41.214005   -8755.6101   -2274.7201 
    3800    259.78492   -8725.3193    37.169737   -8762.4891    19528.329 
    4000    285.67224   -8712.4445    40.873665   -8753.3181   -3574.0717 
    4200    308.08493   -8707.2254    44.080448   -8751.3058   -18758.778 
    4400    286.60727   -8714.5408    41.007448   -8755.5482    -20558.07 
    4600    282.56875   -8716.1247    40.429622   -8756.5543   -27197.989 
    4800    335.20695   -8701.7879    47.961036    -8749.749   -5234.8764 
    5000    285.88463   -8714.4893    40.904053   -8755.3934   -17626.342 
    5200    297.23215   -8719.0637    42.527644   -8761.5913    31657.883 
    5400    282.38615   -8703.4018    40.403494   -8743.8053    8742.7378 
    5600     268.5386   -8713.1596    38.422203   -8751.5818     5996.872 
    5800    276.39673   -8723.8127    39.546535   -8763.3592    6064.9332 
    6000    310.99125   -8700.8818     44.49628   -8745.3781   -4200.9847 
    6200    297.96718   -8708.4887    42.632811   -8751.1215     8105.786 
    6400    254.67423   -8716.7476    36.438505   -8753.1861   -34970.971 
    6600     274.6373   -8710.7648    39.294797   -8750.0596   -12373.743 
    6800    270.40935   -8709.1615    38.689868   -8747.8514   -42379.251 
    7000    284.08326   -8711.2283    40.646315   -8751.8746   -1704.0535 
    7200    264.24037   -8722.3199    37.807217   -8760.1271   -14915.281 
    7400    286.19582   -8707.8486    40.948578   -8748.7972   -23652.697 
    7600    267.15212   -8710.8753    38.223827   -8749.0991    3077.0108 
    7800    259.80995   -8720.3574    37.173317   -8757.5307   -555.07252 
    8000    273.21023   -8709.3268    39.090614   -8748.4174    28624.913 
    8200    280.96557    -8703.242     40.20024   -8743.4422    11789.317 
    8400     296.4607   -8712.8094    42.417266   -8755.2267   -6884.3973 
    8600    257.45816   -8709.9994    36.836826   -8746.8362   -2493.9463 
    8800    373.62424   -8700.3318    53.457739   -8753.7895   -33030.436 
    9000    343.30886   -8704.0775    49.120248   -8753.1978   -16944.257 
    9200    269.96441   -8718.7758    38.626207    -8757.402   -15564.383 
    9400    315.68922   -8701.8496    45.168461    -8747.018    9183.1188 
    9600    267.24208   -8707.1569    38.236698   -8745.3935    15005.275 
    9800     237.8449   -8716.8502    34.030582   -8750.8808    33332.578 
   10000     324.7676   -8701.6028    46.467385   -8748.0701   -24876.944 
   10200    282.66009   -8707.1702     40.44269   -8747.6129   -19376.158 
   10400    266.89199   -8714.9122    38.186608   -8753.0988    48213.584 
   10600    265.98104   -8711.6177     38.05627    -8749.674    36083.627 
   10800    282.65031   -8707.5563    40.441291   -8747.9976    12061.128 
   11000    375.60756   -8688.3104    53.741509    -8742.052   -3027.9836 
   11200    304.39953   -8710.7078    43.553145    -8754.261   -1941.0814 
   11400    335.79562   -8709.2482    48.045262   -8757.2934   -4378.5611 
   11600    315.24204   -8696.9496    45.104479    -8742.054    8910.1234 
   11800    274.83357     -8716.88     39.32288   -8756.2028   -2581.9042 
   12000    327.13631     -8707.88    46.806298   -8754.6863    25629.695 
   12200     330.6193   -8694.6496     47.30464   -8741.9542    53016.946 
   12400    327.51199   -8703.9217    46.860049   -8750.7817   -37653.057 
   12600    286.97398   -8714.0685    41.059917   -8755.1285   -6139.0907 
   12800    276.16368   -8714.3206    39.513191   -8753.8338   -21843.044 
   13000     384.5022   -8699.3833    55.014145   -8754.3974    13509.778 
   13200    229.33852    -8715.257    32.813499   -8748.0705    669.96826 
   13400    318.31824   -8710.1359    45.544618   -8755.6805    287.48525 
   13600    315.07872   -8700.8953    45.081111   -8745.9764    12202.625 
   13800    325.35588   -8697.9141    46.551556   -8744.4656    3369.5647 
   14000    310.90265   -8711.6049    44.483604   -8756.0885    3420.6098 
   14200    271.83937    -8721.992    38.894473   -8760.8864    16109.066 
   14400     291.8611    -8703.471    41.759159   -8745.2301   -10215.085 
   14600    268.84847   -8711.6882    38.466539   -8750.1548    19670.342 
   14800    294.10504    -8710.631    42.080221   -8752.7112   -15757.305 
   15000    346.26153   -8698.9876    49.542712   -8748.5303   -1376.9967 
   15200    294.38048   -8708.4575     42.11963   -8750.5771   -13795.076 
   15400    288.87925   -8714.9752     41.33252   -8756.3078    19900.968 
   15600    323.55134   -8709.6631    46.293364   -8755.9564   -5920.1211 
   15800    264.01223    -8711.708    37.774575   -8749.4826    19939.547 
   16000    391.47141   -8695.9889    56.011292   -8752.0002    -26231.16 
   16200    258.29313   -8712.7258    36.956293   -8749.6821    4314.9772 
   16400    299.99906   -8712.5965     42.92353   -8755.5201    13932.867 
   16600    307.97051   -8701.0616    44.064077   -8745.1256    34334.349 
   16800    277.09571   -8719.7489    39.646545   -8759.3954    6009.0855 
   17000    306.55518   -8706.9191    43.861572   -8750.7807   -11130.226 
   17200    376.92909   -8694.4848    53.930594   -8748.4154   -22291.133 
   17400     271.6773   -8711.1714    38.871284   -8750.0427    37656.296 
   17600    323.35899   -8710.3824    46.265844   -8756.6482   -14628.746 
   17800    295.99019   -8706.1996    42.349945   -8748.5496    20997.166 
   18000     286.0575   -8700.7284    40.928787   -8741.6572    24322.867 
   18200    271.28722   -8718.2363    38.815472   -8757.0517    2761.1631 
   18400    281.21105   -8707.5662    40.235362   -8747.8016   -2154.9442 
   18600    266.04254   -8704.5128    38.065069   -8742.5779   -23124.291 
   18800    286.20063   -8718.3556    40.949267   -8759.3049    6422.8898 
   19000     327.5001   -8710.1704    46.858349   -8757.0287    13882.555 
   19200    335.49725    -8699.942    48.002572   -8747.9445   -12707.394 
   19400    287.87126   -8710.4773    41.188298   -8751.6656    8155.2877 
   19600    275.70415   -8712.1436    39.447442   -8751.5911    6663.3249 
   19800    317.39549   -8715.5961    45.412592   -8761.0087   -3768.5704 
   20000    288.21713   -8704.7665    41.237785   -8746.0042   -20336.096 
   20200    319.76671    -8705.332    45.751863   -8751.0839   -15073.681 
   20400    274.16009   -8717.1534    39.226519   -8756.3799    2134.9189 
   20600     326.4261   -8702.9104    46.704682    -8749.615    16712.947 
   20800    291.01252   -8714.5422    41.637746   -8756.1799    23005.072 
   21000    282.53219   -8715.3076    40.424389    -8755.732   -20890.028 
   21200    361.57016   -8703.0225    51.733055   -8754.7555   -2550.6523 
   21400    276.37847   -8709.1823    39.543922   -8748.7262    41833.226 
   21600    365.01149   -8709.0938    52.225436   -8761.3193    -15166.48 
   21800    286.02097   -8721.9792     40.92356   -8762.9028     7565.255 
   22000    312.44036   -8707.7573    44.703618   -8752.4609    10317.547 
   22200    308.31439   -8705.5596    44.113278   -8749.6729   -14741.216 
   22400    388.17447   -8701.2748    55.539569   -8756.8144    3594.2634 
   22600    298.33987   -8712.1095    42.686135   -8754.7957   -30575.578 
   22800    312.26862   -8705.8996    44.679046   -8750.5787    20405.084 
   23000    263.40837   -8708.3189    37.688176   -8746.0071    31568.553 
   23200    274.35923   -8718.9382    39.255012   -8758.1932   -20240.752 
   23400    307.82002   -8707.7662    44.042544   -8751.8088   -23874.369 
   23600     320.1818   -8702.4536    45.811255   -8748.2649    7049.7599 
   23800    265.86676   -8713.9166    38.039919   -8751.9565    28728.675 
   24000    315.27083   -8711.7198    45.108598   -8756.8284   -10824.087 
   24200     343.3633    -8698.523    49.128037    -8747.651   -17804.811 
   24400    277.88117   -8706.5917    39.758928   -8746.3507   -26997.062 
   24600    262.97087    -8714.159    37.625578   -8751.7846     14414.49 
   24800    226.15307   -8722.8738    32.357728   -8755.2316   -12560.916 
   25000    307.42756   -8707.7271    43.986391   -8751.7135    5965.9803 
   25200     269.2267   -8711.5548    38.520656   -8750.0754    -8261.808 
   25400    235.80651   -8726.1676    33.738933   -8759.9065    21484.786 
   25600    314.42766   -8719.1821    44.987959     -8764.17   -28774.407 
   25800    299.54612   -8704.8941    42.858724   -8747.7528    15339.288 
   26000    323.28186   -8710.0844    46.254807   -8756.3392    32564.762 
   26200    316.70941   -8715.6817    45.314428   -8760.9961   -485.41468 
   26400    262.38595   -8712.9021    37.541889    -8750.444     803.0731 
   26600     361.5423   -8694.3426    51.729068   -8746.0717    6790.7651 
   26800    282.91045   -8709.0997    40.478511   -8749.5782   -15198.996 
   27000    274.05831   -8717.0275    39.211956   -8756.2395    6736.0429 
   27200    321.61345   -8697.9385    46.016093   -8743.9546    389.78983 
   27400    270.31361   -8710.9301    38.676169   -8749.6062    -11516.41 
   27600    251.19565   -8710.9353    35.940793   -8746.8761    11140.247 
   27800    369.95078   -8695.8422    52.932145   -8748.7743   -26947.454 
   28000    318.52306    -8708.591    45.573923    -8754.165     5805.598 
   28200     266.5585   -8714.9218    38.138893   -8753.0607   -25168.838 
   28400    349.32681   -8701.0067    49.981289    -8750.988    2223.8641 
   28600    372.22453   -8702.5093    53.257469   -8755.7668    17860.058 
   28800    296.39026   -8711.3425    42.407188   -8753.7496   -10798.381 
   29000    359.32049   -8706.7251    51.411173   -8758.1363    4498.0191 
   29200    263.95089   -8704.5918    37.765799   -8742.3576   -1805.9955 
   29400    257.56028   -8717.9355    36.851437    -8754.787   -16721.737 
   29600    340.01556   -8707.3449    48.649046    -8755.994    23570.633 
   29800    324.68586    -8698.248     46.45569   -8744.7037    25168.476 
   30000    294.42159   -8717.8188    42.125511   -8759.9443   -16753.453 
   30200    323.87682   -8706.7319    46.339933   -8753.0718   -27665.542 
   30400    332.15894   -8706.4833     47.52493   -8754.0082    2870.3126 
   30600    271.65634   -8721.5593    38.868286   -8760.4275    6020.1044 
   30800    296.95188   -8714.2721    42.487544   -8756.7596   -15311.673 
   31000    330.59048   -8707.9101    47.300516   -8755.2106    7009.3238 
   31200    313.44517   -8711.5845    44.847385   -8756.4319   -11406.597 
   31400     266.2741   -8721.6424    38.098201   -8759.7406     18050.07 
   31600    301.43422   -8703.8564    43.128872   -8746.9853   -10613.301 
   31800    260.10559   -8710.4674    37.215617   -8747.6831    38284.456 
   32000     266.1865   -8719.8342    38.085668   -8757.9199   -11939.482 
   32200    280.11759   -8720.5212    40.078912   -8760.6001    5200.8068 
   32400    368.17543   -8704.5949     52.67813    -8757.273   -2912.9623 
   32600    273.32668   -8716.0149    39.107276   -8755.1222   -20511.276 
   32800    289.80777    -8714.129    41.465371   -8755.5944   -6332.9532 
   33000    293.22509   -8703.7318    41.954318   -8745.6861   -39645.522 
   33200     259.4716    -8716.875    37.124906   -8753.9999    21580.146 
   33400    264.71053   -8712.4444    37.874487   -8750.3189   -19583.916 
   33600    290.11142   -8705.1815    41.508818   -8746.6903    -36.55875 
   33800    279.17556   -8716.5356    39.944127   -8756.4798   -2526.3215 
   34000     248.2551   -8722.4925    35.520062   -8758.0126   -11466.193 
   34200    356.21241   -8705.7085    50.966474    -8756.675    16593.683 
   34400    273.25899   -8712.5769    39.097591   -8751.6744     8967.361 
   34600    249.59709   -8726.2837    35.712072   -8761.9957    24176.851 
   34800    318.48377   -8714.9602    45.568301   -8760.5285   -24603.054 
   35000    321.20713   -8703.0163    45.957957   -8748.9743    -31387.83 
   35200    296.07883   -8712.0959    42.362628   -8754.4586    9966.6691 
   35400     298.3673   -8718.3176     42.69006   -8761.0077    1396.1357 
   35600    271.48781   -8708.4251    38.844172   -8747.2693    9161.8748 
   35800    332.58219   -8708.3249    47.585488   -8755.9104    68.331782 
   36000    297.01669   -8714.5111    42.496816   -8757.0079    5009.9757 
   36200    236.75142   -8725.4583    33.874128   -8759.3324    -5617.806 
   36400    289.69312   -8709.7779    41.448968   -8751.2269   -23195.925 
   36600    275.73524   -8712.7771    39.451891    -8752.229   -16280.112 
   36800    368.58412   -8696.5098    52.736605   -8749.2464   -31208.235 
   37000    293.47257   -8712.7085    41.989727   -8754.6982   -25661.506 
   37200     273.1458   -8709.4927    39.081395   -8748.5741    41766.744 
   37400    340.02611   -8694.3736    48.650555   -8743.0241    4940.6039 
   37600    312.68357   -8707.9663    44.738416   -8752.7047    19326.549 
   37800    278.65232   -8714.0741    39.869262   -8753.9434    3707.2682 
   38000    265.11693   -8708.5885    37.932633   -8746.5211   -14647.894 
   38200    319.71923   -8707.1102     45.74507   -8752.8553   -12156.986 
   38400    268.83408   -8716.3131    38.464479   -8754.7775    31039.662 
   38600    282.48435   -8712.3966    40.417545   -8752.8141    8585.6445 
   38800    265.64475   -8714.3619    38.008154     -8752.37    9482.0212 
   39000    404.46303   -8699.6499    57.870118     -8757.52    8116.1851 
   39200    270.50231   -8715.1365    38.703168   -8753.8396    48838.673 
   39400    279.10642   -8714.5661    39.934234   -8754.5003    5633.5982 
   39600    327.62217   -8706.2507    46.875813   -8753.1266   -35392.032 
   39800    372.58134   -8706.9347    53.308522   -8760.2432   -15195.739 
   40000    247.06646   -8714.9659    35.349993   -8750.3159   -36291.338 
   40200    255.35319   -8704.7762    36.535649   -8741.3118   -4458.0429 
   40400    294.34886   -8705.1653    42.115106   -8747.2805   -23008.275 
   40600    299.02254   -8710.7115    42.783812   -8753.4953   -2340.4645 
   40800    286.48073   -8712.9829    40.989342   -8753.9722   -7273.3297 
   41000    314.56054   -8720.6186     45.00697   -8765.6255   -17317.742 
   41200    310.24691   -8702.5162    44.389782    -8746.906   -7987.4108 
   41400    327.03947   -8710.1043    46.792441   -8756.8967   -9488.5111 
   41600    265.65759   -8727.3804    38.009991   -8765.3904    8508.3661 
   41800    262.68072    -8717.064    37.584064   -8754.6481   -22822.922 
   42000    330.83568    -8705.064    47.335599   -8752.3996   -33528.422 
   42200    309.39782   -8701.6993    44.268295   -8745.9676   -4871.7413 
   42400    233.11004   -8715.3002    33.353124   -8748.6533    12069.592 
   42600    359.83608   -8703.1784    51.484944   -8754.6633   -28024.895 
   42800    346.59948   -8693.3372    49.591066   -8742.9283    24700.397 
   43000    283.56361   -8715.6621    40.571964   -8756.2341    16541.622 
   43200    294.20235   -8709.3848    42.094144   -8751.4789   -2521.8344 
   43400     387.9926   -8692.2745    55.513548    -8747.788    10712.333 
   43600    304.83555   -8712.5651     43.61553   -8756.1807   -1438.5068 
   43800    314.98398   -8716.5219    45.067556   -8761.5895   -11069.364 
   44000      315.253   -8701.1482    45.106047   -8746.2543    5458.4827 
   44200    301.41451    -8705.411    43.126052   -8748.5371   -33366.694 
   44400    292.43414   -8717.0106     41.84115   -8758.8517   -16091.675 
   44600    298.54517   -8705.9017    42.715509   -8748.6172   -3286.4938 
   44800    344.51264   -8706.3176    49.292484   -8755.6101    7865.3562 
   45000    307.40209   -8710.8322    43.982747   -8754.8149    19964.302 
   45200    267.90346   -8709.2496    38.331327   -8747.5809    25487.847 
   45400    349.53222   -8701.9111    50.010679   -8751.9218    10755.252 
   45600    272.33069   -8717.8646    38.964771   -8756.8294    448.10838 
   45800     290.1525   -8708.2297    41.514695   -8749.7444   -33181.796 
   46000     321.3749   -8705.8249    45.981961   -8751.8069    5289.5605 
   46200    267.01919   -8713.4102    38.204808    -8751.615    11262.292 
   46400    298.44809   -8717.7373     42.70162   -8760.4389    10963.658 
   46600    306.96473   -8704.3811    43.920171   -8748.3013   -7476.0331 
   46800    366.20015   -8698.0806    52.395508   -8750.4761   -31362.505 
   47000      338.222   -8719.0041    48.392426   -8767.3965    7437.7833 
   47200    254.74127   -8707.4827    36.448096   -8743.9308    7657.1858 
   47400    355.44935   -8704.8979    50.857295   -8755.7552   -27916.395 
   47600    290.48439   -8714.5124    41.562181   -8756.0746    25074.732 
   47800    279.71602   -8722.1015    40.021455    -8762.123     -786.127 
   48000    314.65498   -8704.9506    45.020483    -8749.971   -20801.196 
   48200    307.29954   -8705.4579    43.968074    -8749.426     39726.71 
   48400    287.70693   -8720.1266    41.164785   -8761.2914   -6583.2744 
   48600    326.12467   -8706.9707    46.661553   -8753.6322    -5655.554 
   48800    326.09856     -8707.94    46.657817   -8754.5978    17058.222 
   49000    245.47032   -8726.0576     35.12162   -8761.1793   -20270.321 
   49200    304.29995   -8711.1897    43.538897   -8754.7286   -9367.3829 
   49400    366.11269    -8705.878    52.382995    -8758.261    52783.831 
   49600    222.63708    -8722.932    31.854665   -8754.7866    1843.0266 
   49800    202.05521   -8718.9855    28.909833   -8747.8954   -8828.5689 
   50000    323.69737   -8707.6871    46.314258   -8754.0014    38718.763 
   50200    220.32718   -8714.7342    31.524166   -8746.2583   -50707.519 
   50400    269.14225   -8722.6952    38.508572   -8761.2037    10624.711 
   50600    295.19847   -8705.2521    42.236668   -8747.4888    6992.8116 
   50800    334.23615   -8705.7744    47.822134   -8753.5966   -363.86145 
   51000    262.57963   -8721.6704      37.5696     -8759.24    15711.967 
   51200    329.38717   -8708.1663    47.128348   -8755.2946   -7420.4771 
   51400    328.94356   -8704.7899    47.064877   -8751.8548    15425.424 
   51600    246.61571     -8721.17    35.285501   -8756.4555    42487.949 
   51800    301.85691   -8707.2406    43.189349     -8750.43    13100.987 
   52000    398.78628   -8687.6513    57.057895   -8744.7092    12339.791 
   52200     253.2034   -8709.6025     36.22806   -8745.8305   -18748.054 
   52400    294.07876   -8718.0569    42.076461   -8760.1334    50177.883 
   52600    324.02406   -8704.8988    46.361001   -8751.2598   -11810.317 
   52800    237.18833   -8710.5489    33.936641   -8744.4855    44097.112 
   53000    265.27701    -8718.619    37.955539   -8756.5745    722.73077 
   53200    283.91181   -8714.2755    40.621785   -8754.8973   -30032.585 
   53400    327.62538   -8704.5046    46.876273   -8751.3809    11535.335 
   53600    285.45569   -8719.8302    40.842681   -8760.6729   -202.48047 
   53800    286.55929   -8715.2704    41.000584    -8756.271    17477.107 
   54000     333.7458   -8704.8914    47.751976   -8752.6433   -2311.4305 
   54200    243.63132   -8714.4529    34.858497   -8749.3114   -14607.716 
   54400    311.83732   -8714.3871    44.617335   -8759.0044   -9161.3713 
   54600    340.52854     -8699.17    48.722443   -8747.8924    5296.3838 
   54800    252.73307   -8712.1722    36.160765    -8748.333    2724.8464 
   55000    334.19899    -8713.158    47.816818   -8760.9748   -7224.2445 
   55200    352.86103    -8700.168    50.486961    -8750.655   -4741.2909 
   55400    362.08486   -8702.9819    51.806697   -8754.7886    2769.6295 
   55600     302.3404   -8709.6624    43.258526   -8752.9209    1988.9396 
   55800    212.67256   -8715.6921    30.428953   -8746.1211   -25203.002 
   56000    277.13176   -8699.3216    39.651702   -8738.9733   -15508.185 
   56200    281.19947   -8715.8099    40.233706   -8756.0436    1442.8432 
   56400    277.76257   -8714.8653    39.741959   -8754.6073    4114.8103 
   56600    359.14202   -8704.3538    51.385639   -8755.7395    4656.2311 
   56800    287.30422   -8717.3876    41.107166   -8758.4948    -17970.32 
   57000    284.16936   -8719.9134    40.658635    -8760.572    21395.435 
   57200    292.89745   -8704.3101     41.90744   -8746.2175    26134.276 
   57400    322.67545   -8714.2856    46.168043   -8760.4536   -10758.092 
   57600    310.49424   -8710.6811    44.425169   -8755.1062    10326.078 
   57800    340.90726   -8697.8403     48.77663    -8746.617    32314.978 
   58000    308.35797   -8715.3695    44.119513    -8759.489    1085.2168 
   58200    315.45623   -8707.0713    45.135125   -8752.2065    -89.05016 
   58400    349.32775   -8686.0362    49.981425   -8736.0177    5315.7413 
   58600    303.48461   -8705.6131    43.422239   -8749.0353    57801.797 
   58800    269.79453   -8715.5318      38.6019   -8754.1337    5359.0314 
   59000    281.22841   -8702.0849    40.237846   -8742.3227   -20838.606 
   59200     289.9938   -8699.9227    41.491989   -8741.4147   -18761.939 
   59400    247.52561   -8717.8937    35.415688   -8753.3094   -30807.171 
   59600    352.40149   -8704.6046    50.421211   -8755.0258     19558.23 
   59800    300.50133   -8702.2083    42.995395   -8745.2037   -18748.252 
   60000    260.57802   -8713.1476    37.283212   -8750.4308   -12077.376 
   60200    262.81734   -8718.9367    37.603611   -8756.5403    4930.1697 
   60400    347.22424    -8700.184    49.680457   -8749.8645   -46376.235 
   60600    302.94455   -8712.1288    43.344967   -8755.4738    7021.4736 
   60800    270.56269   -8716.3895    38.711807   -8755.1013   -14451.964 
   61000    320.55181   -8698.2839    45.864194   -8744.1481   -20669.216 
   61200     266.0408   -8714.2842     38.06482   -8752.3491    10612.502 
   61400    280.19367   -8713.7673    40.089797   -8753.8571   -7805.0264 
   61600    338.30547   -8697.9171    48.404369   -8746.3215    20204.982 
   61800    329.87316    -8713.529    47.197882   -8760.7269    16058.272 
   62000    268.05654    -8714.374     38.35323   -8752.7272    28658.732 
   62200    282.60909    -8707.357    40.435392   -8747.7923   -2382.6085 
   62400    298.79222   -8706.8497    42.750857   -8749.6005   -56813.282 
   62600    261.91254   -8721.8579    37.474153    -8759.332    -20526.14 
   62800    289.08095   -8705.4403    41.361379   -8746.8017    37282.223 
   63000    319.60467   -8702.4855    45.728679   -8748.2141    9097.7525 
   63200    275.09728   -8717.5333    39.360612   -8756.8939    -5389.893 
   63400    303.62979   -8712.4062    43.443011   -8755.8492   -21307.645 
   63600    322.37484   -8707.5536    46.125032   -8753.6786   -6544.2696 
   63800    259.35916   -8714.2202    37.108819    -8751.329    15342.443 
   64000    319.60541   -8707.4476    45.728786   -8753.1764   -27769.067 
   64200    285.22977   -8701.5593    40.810357   -8742.3696     13745.09 
   64400    264.71955   -8719.9241    37.875778   -8757.7999   -46410.582 
   64600    334.69936   -8711.6553     47.88841   -8759.5437   -26146.365 
   64800    331.51704   -8706.9269    47.433088     -8754.36   -3717.1674 
   65000    307.37627   -8711.7033    43.979053   -8755.6823    -13701.95 
   65200    221.10503   -8722.7787    31.635461   -8754.4141      26127.7 
   65400    320.23335    -8707.982     45.81863   -8753.8007    37942.806 
   65600    326.32008   -8709.2413    46.689512   -8755.9308     2967.834 
   65800    284.27376   -8718.8145    40.673573    -8759.488    8057.4501 
   66000    295.20668   -8708.0647    42.237842   -8750.3026    11482.548 
   66200    324.93184   -8699.6425    46.490884   -8746.1334     11339.36 
   66400     303.3307   -8709.6939    43.400218   -8753.0941    30463.285 
   66600    296.72209   -8707.3822    42.454665   -8749.8368   -8540.6171 
   66800    279.82485    -8714.127    40.037026    -8754.164    23498.462 
   67000    284.62305   -8719.9308    40.723547   -8760.6544   -15548.456 
   67200    315.85159   -8701.3331    45.191692   -8746.5248   -57192.922 
   67400    276.75687   -8711.3505    39.598064   -8750.9486    8119.9744 
   67600    242.46622   -8731.7725    34.691796   -8766.4642   -39793.184 
   67800    223.48626   -8723.0025    31.976165   -8754.9786   -13410.272 
   68000    347.24702   -8707.0806    49.683715   -8756.7644     4521.823 
   68200    326.94034   -8704.1719    46.778259   -8750.9502   -4434.5185 
   68400    294.73998    -8720.468    42.171066   -8762.6391   -5240.5358 
   68600    317.74126   -8708.2108    45.462065   -8753.6729    1397.6154 
   68800    337.15837   -8707.2792    48.240243   -8755.5194    14345.098 
   69000    229.54519   -8724.4916     32.84307   -8757.3346    59159.421 
   69200    296.61968   -8714.9443    42.440012   -8757.3843   -23516.277 
   69400    321.16777    -8706.978    45.952325   -8752.9303   -9963.0588 
   69600    296.98023   -8708.3668    42.491599   -8750.8584   -13605.229 
   69800    256.34287   -8717.6425    36.677251   -8754.3198   -1962.8406 
   70000    234.88155    -8701.082    33.606589   -8734.6886   -10989.013 
   70200    339.44084   -8708.9587    48.566815   -8757.5256    23191.748 
   70400    269.68633   -8719.0008    38.586419   -8757.5872    5654.9131 
   70600     325.3003   -8704.1208    46.543604   -8750.6644    14389.269 
   70800    290.75424   -8715.5203    41.600791   -8757.1211    36287.753 
   71000    197.50468   -8732.1563    28.258749   -8760.4151    4775.3033 
   71200    278.39562    -8719.141    39.832534   -8758.9735    9653.9433 
   71400    289.02758   -8704.7639    41.353743   -8746.1176    2224.1426 
   71600    312.03664   -8705.7162    44.645853   -8750.3621    3504.1114 
   71800    265.47153   -8719.4545     37.98337   -8757.4379    23098.931 
   72000    313.84529   -8706.2301    44.904633   -8751.1348    20051.141 
   72200    317.84738   -8708.5776    45.477249   -8754.0549   -10756.275 
   72400    317.92982   -8709.5862    45.489044   -8755.0752   -57503.082 
   72600    229.88844   -8708.6206    32.892182   -8741.5128    256.27303 
   72800    298.54173   -8708.4692    42.715017   -8751.1842   -15997.339 
   73000     246.4102   -8724.7898    35.256096   -8760.0459   -12210.526 
   73200    296.26805   -8708.9506    42.389701   -8751.3403   -31945.019 
   73400    317.72981   -8703.6071    45.460426   -8749.0675   -23601.253 
   73600    269.09654   -8720.8585    38.502032   -8759.3605   -2272.3213 
   73800    290.33267   -8708.1086    41.540474   -8749.6491   -16008.356 
   74000    273.65891   -8708.5694    39.154812   -8747.7242    9715.7351 
   74200    264.53378   -8723.7385    37.849197   -8761.5877   -1973.4973 
   74400    354.62476   -8707.7195    50.739314   -8758.4589    4262.7864 
   74600    294.64299   -8711.7685    42.157189   -8753.9257    18243.951 
   74800    253.69646    -8720.644    36.298605   -8756.9426    2242.8083 
   75000    349.59236   -8707.3869    50.019284   -8757.4062    -31365.13 
   75200    313.03662   -8704.4212    44.788929   -8749.2101    9592.9594 
   75400    219.18069   -8723.1136    31.360128   -8754.4737    47102.711 
   75600    296.35388   -8712.1145    42.401982   -8754.5165     14356.43 
   75800    297.91915   -8702.9016    42.625938   -8745.5276    7573.8853 
   76000    281.33892   -8692.6268    40.253658   -8732.8804    -34063.59 
   76200    336.01376   -8712.3797    48.076473   -8760.4562    5886.1268 
   76400    249.51959   -8716.4581    35.700985   -8752.1591    8192.5089 
   76600    355.64876   -8701.2981    50.885827   -8752.1839    14004.701 
   76800    263.50052   -8713.8548    37.701359   -8751.5562    26479.633 
   77000    306.66241   -8711.5552    43.876915   -8755.4321   -9808.5936 
   77200    305.32864   -8706.4009     43.68608    -8750.087    8711.7549 
   77400    344.47839   -8689.9001    49.287583   -8739.1876   -10027.808 
   77600    303.94214   -8709.2504    43.487702   -8752.7381   -16593.967 
   77800    288.05138    -8717.998     41.21407    -8759.212    3771.4532 
   78000    274.70429   -8720.7935    39.304383   -8760.0979    6677.1658 
   78200    311.69792    -8703.228     44.59739   -8747.8254    18213.044 
   78400      351.344   -8705.9664    50.269907   -8756.2363   -8411.8242 
   78600    301.58305   -8719.5587    43.150165   -8762.7089   -18654.727 
   78800    278.32594   -8705.3982    39.822565   -8745.2208    10907.634 
   79000    331.50943   -8708.5172    47.431998   -8755.9492    -24196.77 
   79200    249.18364   -8712.5195    35.652917   -8748.1724    14797.883 
   79400    295.51557   -8705.5606    42.282037   -8747.8426    -46849.76 
   79600    273.00713   -8718.5529    39.061556   -8757.6145   -54.913833 
   79800    276.12756   -8715.3883    39.508023   -8754.8963    21172.912 
   80000    324.20798    -8705.518    46.387316   -8751.9053   -3859.5695 
   80200    287.61459    -8713.385    41.151574   -8754.5366    33271.631 
   80400    264.24138   -8723.3901    37.807361   -8761.1975    17352.328 
   80600    284.06956   -8706.3935    40.644356   -8747.0379    12669.459 
   80800    283.19238   -8710.4387    40.518849   -8750.9576     30097.36 
   81000    266.05925   -8718.9102    38.067459   -8756.9776    29181.497 
   81200    325.43413   -8700.0917    46.562751   -8746.6545    15625.071 
   81400    288.88681   -8712.0302    41.333602   -8753.3638   -7196.9679 
   81600    287.01943   -8712.3399    41.066419   -8753.4063    11893.225 
   81800    297.76909   -8698.1845    42.604469   -8740.7889    18470.592 
   82000    287.61004   -8715.0292    41.150923   -8756.1802    5954.3273 
   82200    280.29315   -8715.7529     40.10403   -8755.8569   -15135.935 
   82400    290.45051   -8698.5542    41.557334   -8740.1115   -46871.022 
   82600    279.33952   -8713.4689    39.967586   -8753.4364   -24907.604 
   82800    331.21724    -8710.393    47.390192   -8757.7831    18044.537 
   83000    366.97739   -8702.5385    52.506714   -8755.0452    -5610.419 
   83200    294.19754   -8712.9452    42.093456   -8755.0387     1011.301 
   83400    350.67236   -8699.6213     50.17381   -8749.7951   -26285.428 
   83600    331.73012   -8700.1018    47.463574   -8747.5654   -6170.4165 
   83800    255.49312   -8717.7186    36.555669   -8754.2743     28339.37 
   84000    319.67615   -8703.4636    45.738907   -8749.2025    41154.273 
   84200    305.88235   -8705.7381    43.765304   -8749.5034    15748.415 
   84400    318.16372    -8713.052     45.52251   -8758.5746   -24343.934 
   84600    305.62438   -8704.2398    43.728395   -8747.9682   -36091.652 
   84800    311.27498   -8705.0577    44.536877   -8749.5946    3160.9361 
   85000    271.53216   -8713.4572    38.850518   -8752.3077   -14554.348 
   85200    349.26675    -8701.711    49.972697   -8751.6837    12361.657 
   85400    354.73001   -8696.8313    50.754373   -8747.5856    8159.9136 
   85600    276.85926   -8715.6838    39.612714   -8755.2965   -27350.165 
   85800    277.86643   -8708.5921    39.756818   -8748.3489   -14905.974 
   86000    316.85958   -8698.2518    45.335914   -8743.5877   -27799.536 
   86200    277.06074   -8712.7209    39.641541   -8752.3625     -9742.13 
   86400    339.74779   -8708.1083    48.610735    -8756.719   -25720.099 
   86600    336.45471   -8691.9832    48.139564   -8740.1228   -25437.893 
   86800     327.0016   -8710.2619    46.787023   -8757.0489    1217.2457 
   87000    314.18291     -8713.23     44.95294   -8758.1829   -29233.036 
   87200    324.22152   -8695.6882    46.389253   -8742.0774    -15824.86 
   87400    278.95593   -8705.8711    39.912703   -8745.7838     31626.98 
   87600    303.44134   -8711.8123    43.416048   -8755.2283    25748.658 
   87800    319.94768   -8705.4721    45.777756   -8751.2498    6218.5326 
   88000    344.62388   -8705.0663    49.308399   -8754.3747    39701.323 
   88200    287.12771   -8718.9248    41.081912   -8760.0067   -77132.658 
   88400    334.57463   -8701.7426    47.870564   -8749.6132   -1158.8184 
   88600    274.23005   -8705.8257    39.236528   -8745.0622   -29456.247 
   88800    277.52927    -8720.931    39.708578   -8760.6396    4969.7098 
   89000    265.08394   -8715.6879    37.927914   -8753.6158   -22486.359 
   89200    296.40206    -8706.386    42.408875   -8748.7948    36220.514 
   89400    276.34029   -8707.5835     39.53846    -8747.122     3199.189 
   89600    244.90237   -8717.3051    35.040357   -8752.3454   -7048.6605 
   89800    323.27517   -8708.7307     46.25385   -8754.9846    7986.8761 
   90000    302.91142   -8700.2002    43.340228   -8743.5404    25854.224 
   90200    284.55628   -8715.4868    40.713994   -8756.2008   -16181.393 
   90400    342.62442   -8706.6043     49.02232   -8755.6267    22683.568 
   90600    273.28578   -8714.4543    39.101423   -8753.5557    1197.1536 
   90800    280.49258   -8717.8524    40.132565    -8757.985    6090.4969 
   91000    304.93524   -8710.0505    43.629793   -8753.6803    14517.551 
   91200    330.51225   -8708.8519    47.289324   -8756.1413   -12876.612 
   91400    287.76089   -8719.3551    41.172507   -8760.5276    4431.6826 
   91600    340.54753   -8709.7627     48.72516   -8758.4879    9062.0133 
   91800    343.02937   -8702.6955     49.08026   -8751.7758   -15872.164 
   92000    283.97566   -8716.7157     40.63092   -8757.3466    6544.5242 
   92200    299.30336   -8712.4361     42.82399   -8755.2601    12205.345 
   92400    299.27355   -8706.9324    42.819726   -8749.7521    12071.658 
   92600    416.44941   -8693.9803    59.585116   -8753.5654   -1353.1249 
   92800     250.2451   -8710.5436     35.80479   -8746.3483    -10095.66 
   93000     266.1743   -8712.7739    38.083921   -8750.8578    11458.821 
   93200    350.71186   -8700.0269    50.179461   -8750.2064   -23237.481 
   93400    322.83667   -8713.4364    46.191109   -8759.6275    -4418.262 
   93600    233.26425   -8717.6056    33.375189   -8750.9808    -20146.67 
   93800    352.28109   -8706.7491    50.403984    -8757.153   -3498.8567 
   94000    329.06185    -8708.601    47.081801   -8755.6828   -19417.103 
   94200    256.71084   -8724.6079      36.7299   -8761.3378   -41596.146 
   94400    293.17451   -8710.5504    41.947081   -8752.4975   -20512.225 
   94600    297.08564   -8708.2327    42.506682   -8750.7394    36391.596 
   94800    359.28305   -8703.7851    51.405818    -8755.191    26139.906 
   95000    268.50078   -8718.2705    38.416791   -8756.6873   -7843.7134 
   95200    357.51611   -8704.1816    51.153005   -8755.3346   -2287.8341 
   95400    272.31827   -8702.3102    38.962994   -8741.2732   -8599.9381 
   95600    268.72731    -8712.967    38.449203   -8751.4162    6351.3882 
   95800    269.91436   -8717.6694    38.619044   -8756.2884    -4432.961 
   96000    317.56814   -8702.2563    45.437295   -8747.6936    3650.6811 
   96200    312.68888    -8710.612    44.739175   -8755.3512   -37444.852 
   96400    280.92619   -8717.3687    40.194605   -8757.5633    14032.512 
   96600    258.12849   -8712.0477    36.932736   -8748.9805   -12591.701 
   96800    362.99209   -8698.2813    51.936502   -8750.2178    1560.7755 
   97000    285.87364   -8713.4379    40.902481   -8754.3404   -19604.289 
   97200     313.0629   -8712.1741     44.79269   -8756.9668   -21705.982 
   97400    349.91849   -8698.8189    50.065947   -8748.8848    35270.667 
   97600     269.6858   -8710.3048    38.586343   -8748.8911   -16199.405 
   97800    275.23911   -8711.2381    39.380904    -8750.619   -2019.8375 
   98000    330.28622   -8700.4892    47.256983   -8747.7462    40573.507 
   98200    341.87449   -8699.3496     48.91502   -8748.2646   -9246.0093 
   98400    284.81559   -8711.1341    40.751097   -8751.8852    1601.8068 
   98600    263.96126    -8715.604    37.767282   -8753.3712   -2902.6887 
   98800    395.85923   -8698.5513    56.639097   -8755.1904    33618.467 
   99000     273.0613   -8712.4662    39.069306   -8751.5355   -36894.345 
   99200    243.43023   -8715.8943    34.829725   -8750.7241   -2007.4948 
   99400    254.07746   -8717.3757    36.353119   -8753.7288    35170.634 
   99600    306.02674   -8706.6228    43.785965   -8750.4087   -3613.1061 
   99800    270.03237   -8715.8976     38.63593   -8754.5335   -1367.5256 
  100000    269.11458   -8717.4608    38.504614   -8755.9655     6680.367 
  100200    273.57736   -8707.4706    39.143143   -8746.6137   -10530.726 
  100400    318.56666   -8706.8406    45.580161   -8752.4207   -33747.821 
  100600    273.45505   -8719.6834    39.125643   -8758.8091   -15173.687 
  100800    319.27791   -8711.3637    45.681926   -8757.0456    41041.328 
  101000    314.98608    -8707.755    45.067856   -8752.8229   -18471.636 
  101200    346.83306   -8695.3334    49.624486   -8744.9578   -11297.121 
  101400    293.64491   -8714.6306    42.014385   -8756.6449   -16414.057 
  101600    240.12572   -8710.8204     34.35692   -8745.1773    5221.3769 
  101800    306.89741   -8705.5275    43.910539    -8749.438    14463.094 
  102000    271.84721   -8710.3525    38.895595   -8749.2481    7073.3921 
  102200    352.24163   -8702.6186    50.398339    -8753.017    2482.0299 
  102400    306.40604   -8704.7053    43.840233   -8748.5456   -16144.662 
  102600    327.06053   -8713.4868    46.795454   -8760.2823    -12163.17 
  102800    379.49834   -8701.3863    54.298198   -8755.6845   -13136.108 
  103000    339.34328   -8701.6886    48.552857   -8750.2415   -13874.276 
  103200    275.94729   -8716.4652     39.48223   -8755.9475    5829.6605 
  103400    303.71194   -8708.8541    43.454765   -8752.3089    6093.1445 
  103600    418.65692   -8684.3611    59.900964    -8744.262    8842.5981 
  103800    306.37927   -8703.6608    43.836404   -8747.4972    59182.609 
  104000    259.85713   -8715.9405    37.180068   -8753.1206   -9858.6449 
  104200    264.16666   -8715.9129    37.796671   -8753.7095    12822.789 
  104400    324.91655    -8704.334    46.488697   -8750.8227    30309.803 
  104600    306.64825   -8717.2391    43.874888    -8761.114    41622.074 
  104800    321.81176    -8698.975    46.044467   -8745.0195   -24304.204 
  105000    304.18812   -8707.3098    43.522897   -8750.8327   -35432.251 
  105200    285.59736   -8718.2265    40.862951   -8759.0895     25444.22 
  105400    324.84446    -8698.296    46.478383   -8744.7744    18485.078 
  105600    306.88161   -8706.2784    43.908278   -8750.1866    19120.626 
  105800    241.41571   -8716.0846     34.54149   -8750.6261   -17455.119 
  106000    233.19309   -8717.8775    33.365007   -8751.2425   -17625.571 
  106200    333.92664   -8703.3953    47.777851   -8751.1732    6306.1796 
  106400    297.70647   -8716.1607    42.595509   -8758.7562   -18523.522 
  106600    281.11597    -8716.288    40.221758   -8756.5098    13156.272 
  106800    314.82614   -8711.4518    45.044972   -8756.4968   -20217.895 
  107000    347.06022   -8702.9673    49.656989   -8752.6243   -24154.877 
  107200    318.53967   -8704.6973      45.5763   -8750.2736    22761.981 
  107400    300.81724   -8715.8545    43.040595   -8758.8951   -16183.666 
  107600    331.36248    -8701.559    47.410974     -8748.97    24961.147 
  107800    293.45102   -8711.7883    41.986645    -8753.775    10708.922 
  108000    278.21639   -8718.4179     39.80689   -8758.2248    18533.037 
  108200    302.56849   -8702.8134    43.291162   -8746.1045    1593.4439 
  108400    322.94017   -8709.5832    46.205918   -8755.7891    17891.636 
  108600    241.85892   -8722.6824    34.604904   -8757.2873   -22670.448 
  108800    241.69253   -8724.7773    34.581097   -8759.3584    13922.523 
  109000    345.70552   -8709.8595    49.463159   -8759.3227    18252.515 
  109200    345.90128   -8699.7398    49.491168   -8749.2309    11075.276 
  109400    314.46999   -8716.8211    44.994015   -8761.8151    416.09181 
  109600     318.5065   -8711.2183    45.571554   -8756.7898    18211.285 
  109800    327.45854   -8697.2571    46.852402   -8744.1096     55423.96 
  110000    264.89287   -8704.6414    37.900575    -8742.542    4946.9609 
  110200    275.95712   -8714.1202    39.483637   -8753.6038    20956.559 
  110400    253.78118    -8717.293    36.310728   -8753.6038    27926.385 
  110600    362.52418   -8700.4749    51.869555   -8752.3444   -13019.218 
  110800    290.91786   -8715.2416    41.624203   -8756.8658   -7882.2936 
  111000    386.43854   -8706.4353    55.291195   -8761.7265    7649.2996 
  111200    317.39629   -8706.1326    45.412706   -8751.5453    -30680.31 
  111400    330.88427   -8710.0462    47.342552   -8757.3887    2074.4126 
  111600    263.31351   -8720.2926    37.674603   -8757.9672   -33112.617 
  111800    388.71695   -8702.9952    55.617186   -8758.6124     6999.175 
  112000    294.88934   -8710.8036    42.192437   -8752.9961    32570.723 
  112200     244.8882   -8723.6573     35.03833   -8758.6956   -10674.005 
  112400     327.4475    -8709.272    46.850823   -8756.1228   -4007.1359 
  112600    269.14734   -8707.0514    38.509301   -8745.5607   -8766.1744 
  112800    337.98793   -8712.6964    48.358935   -8761.0553   -35954.618 
  113000    269.18022   -8721.8674    38.514005   -8760.3814    39725.815 
  113200    291.76065   -8706.9407    41.744788   -8748.6855   -1229.4124 
  113400    315.20772   -8711.9523    45.099568   -8757.0519    599.28406 
  113600    268.36993   -8724.2266     38.39807   -8762.6247   -4510.9819 
  113800    280.88905   -8705.8348    40.189292   -8746.0241    21297.709 
  114000    291.58988   -8710.7397    41.720354     -8752.46    18442.247 
  114200     287.9985   -8722.5983    41.206503   -8763.8048    38585.566 
  114400    255.29026   -8713.4043    36.526645   -8749.9309   -28862.806 
  114600    276.47845   -8706.7928    39.558228    -8746.351    14662.624 
  114800    262.26261   -8715.5577    37.524241   -8753.0819    4558.9994 
  115000    286.25293   -8718.9315    40.956749   -8759.8883    404.21274 
  115200    318.91837   -8703.5336    45.630484   -8749.1641    14250.933 
  115400    269.67349   -8716.0158    38.584581   -8754.6004    5283.1877 
  115600    282.34817   -8715.5914     40.39806   -8755.9894    15403.156 
  115800    346.93396   -8688.2187    49.638923   -8737.8577    37145.709 
  116000    301.04229   -8712.0925    43.072795   -8755.1653    544.37477 
  116200    275.93948   -8713.4798    39.481112   -8752.9609   -14329.032 
  116400    278.68661   -8699.0408    39.874169    -8738.915   -120.20579 
  116600    311.11117    -8707.676    44.513439   -8752.1895    9628.2914 
  116800    291.96269   -8720.0384    41.773696   -8761.8121    4744.7962 
  117000    280.59306   -8705.3193    40.146942   -8745.4662     -26737.2 
  117200     280.2156     -8701.34    40.092935   -8741.4329   -18771.363 
  117400    292.73977   -8711.6305     41.88488   -8753.5154   -13411.216 
  117600    290.30934   -8711.1512    41.537136   -8752.6883   -18590.044 
  117800    350.79714    -8694.568    50.191663   -8744.7596   -11524.568 
  118000    354.07754   -8709.1664    50.661019   -8759.8274   -55449.327 
  118200    252.58427   -8718.0243    36.139475   -8754.1638   -6406.0961 
  118400    324.73573   -8703.7252    46.462825    -8750.188    25482.961 
  118600    280.70704   -8712.0281     40.16325   -8752.1914   -2244.2625 
  118800    347.73702   -8708.1609    49.753824   -8757.9147    36550.644 
  119000    289.85352    -8710.537    41.471918   -8752.0089    45587.958 
  119200    319.77758   -8715.2537    45.753419   -8761.0071   -15435.253 
  119400    219.22696    -8727.871    31.366749   -8759.2377   -14656.574 
  119600    305.75692   -8709.7147    43.747359   -8753.4621    2153.2039 
  119800    350.01486   -8703.2504    50.079736   -8753.3302    30295.651 
  120000    296.70369   -8715.0974    42.452033   -8757.5494    36964.512 
  120200    302.19355   -8713.7625    43.237515        -8757    14381.315 
  120400    304.93859   -8694.7261    43.630273   -8738.3564    2130.0308 
  120600     298.5919   -8717.3273    42.722195   -8760.0495    146.29121 
  120800    295.76601   -8717.7089     42.31787   -8760.0268    14439.587 
  121000    256.68685   -8703.6539    36.726467   -8740.3804   -13077.761 
  121200    288.91672   -8716.1893    41.337882   -8757.5272   -10453.469 
  121400    265.11786   -8719.1946    37.932767   -8757.1274    26343.927 
  121600    307.35193    -8708.754    43.975571   -8752.7295   -13546.901 
  121800    339.69709   -8711.8413     48.60348   -8760.4448     27198.97 
  122000    275.47801   -8713.7969    39.415086    -8753.212    15070.611 
  122200    260.41153   -8712.3563    37.259391   -8749.6157   -923.69218 
  122400    316.81122   -8704.9391    45.328995   -8750.2681   -1674.8667 
  122600    297.93632   -8721.2355    42.628396   -8763.8639    530.65388 
  122800    270.93096   -8709.6122    38.764499   -8748.3767   -20218.634 
  123000    287.98175   -8711.1917    41.204108   -8752.3958   -39311.273 
  123200    257.95269   -8728.1211    36.907583   -8765.0287   -11380.967 
  123400    258.76996   -8713.8966    37.024516   -8750.9211   -6920.9284 
  123600    288.22322   -8705.8048    41.238656   -8747.0435   -678.35906 
  123800    310.03018    -8713.811    44.358772   -8758.1698   -11801.353 
  124000    274.04721   -8720.6799    39.210368   -8759.8903   -7868.5795 
  124200    290.03228   -8705.1194    41.497495   -8746.6169    21811.421 
  124400    301.13232   -8704.8583    43.085676    -8747.944   -11918.723 
  124600    282.03987   -8722.1439    40.353949   -8762.4978   -6967.0796 
  124800    291.04405   -8708.6111    41.642257   -8750.2534    17477.096 
  125000    295.50295   -8704.8406    42.280232   -8747.1208   -11169.634 
  125200    283.35901   -8712.6874    40.542691   -8753.2301    132.38517 
  125400    282.51369   -8711.7539    40.421744   -8752.1756   -45650.531 
  125600    271.19415   -8700.8521    38.802155   -8739.6543   -2481.8403 
  125800    256.57868   -8720.1697     36.71099   -8756.8807    43274.142 
  126000    283.67172   -8711.1642    40.587433   -8751.7517   -17190.848 
  126200    298.52898   -8704.4778    42.713193    -8747.191   -2006.2266 
  126400    290.44943   -8709.8567     41.55718   -8751.4139    6039.9554 
  126600    293.43582   -8718.0745    41.984469   -8760.0589    7076.4435 
  126800    290.95166   -8719.2934    41.629038   -8760.9224   -11924.928 
  127000    299.63685   -8706.1626    42.871706   -8749.0343    12991.742 
  127200    255.82144   -8714.8772    36.602646   -8751.4799    5323.0501 
  127400    286.76029   -8723.7276    41.029342    -8764.757    -19315.55 
  127600    285.21235    -8705.534    40.807864   -8746.3418    14061.507 
  127800    311.80337   -8709.4872    44.612478   -8754.0997   -15709.369 
  128000    295.48926   -8723.7735    42.278273   -8766.0517    -18892.98 
  128200    279.33921   -8722.0028    39.967542   -8761.9703   -8982.8686 
  128400    303.28117   -8707.8145    43.393131   -8751.2076   -22216.747 
  128600    316.37004   -8711.3655    45.265871   -8756.6314   -9015.6431 
  128800    288.71044   -8718.8129    41.308367   -8760.1212   -26851.187 
  129000    305.34673   -8709.1325    43.688669   -8752.8211    2209.9441 
  129200    343.11984   -8710.6626    49.093203   -8759.7558   -8874.5048 
  129400    268.13878    -8723.753    38.364997    -8762.118    7515.1775 
  129600    289.20353   -8704.1666    41.378918   -8745.5455   -50653.298 
  129800    269.47835   -8715.7341    38.556662   -8754.2907   -23763.238 
  130000    310.16153   -8709.4622    44.377564   -8753.8397   -1764.7825 
  130200    352.41666   -8698.7259    50.423382   -8749.1493   -6368.7735 
  130400    321.18446   -8710.3685    45.954714   -8756.3232    5565.4877 
  130600    302.48979   -8713.3164    43.279901   -8756.5963     -25493.7 
  130800    321.87693   -8711.0405    46.053791   -8757.0943    9216.7158 
  131000    296.66312   -8714.9038    42.446227     -8757.35   -26955.257 
  131200    353.02102    -8710.926    50.509853   -8761.4359   -17348.214 
  131400    230.48191   -8727.9498    32.977094   -8760.9269     3997.778 
  131600    271.24203   -8715.9102    38.809007   -8754.7192     26711.95 
  131800    300.00499   -8708.4202    42.924379   -8751.3446    43598.504 
  132000    274.60074   -8710.8976    39.289567   -8750.1871     29378.48 
  132200     281.0392   -8722.8089    40.210775   -8763.0197    4471.6982 
  132400    294.09261   -8707.4838    42.078442   -8749.5623    23263.779 
  132600    350.19498   -8705.2057    50.105506   -8755.3112    7838.8285 
  132800    280.25965   -8717.1425    40.099238   -8757.2417    41333.691 
  133000      262.633   -8709.0065    37.577236   -8746.5837   -47520.812 
  133200    291.36919   -8710.9626    41.688778   -8752.6514   -24570.468 
  133400    280.04368   -8719.2644    40.068336   -8759.3327   -10679.582 
  133600    321.23869   -8709.6837    45.962473   -8755.6461   -19206.803 
  133800    331.07973   -8695.3035    47.370518   -8742.6741    1819.0727 
  134000     333.4144   -8711.6149     47.70456   -8759.3195   -50063.885 
  134200    287.22055   -8713.5663    41.095195   -8754.6615    -67.66151 
  134400    328.13879   -8697.8646    46.949731   -8744.8143    26618.228 
  134600    267.22558   -8709.6274    38.234338   -8747.8617   -23533.129 
  134800    304.65477   -8716.2262    43.589664   -8759.8159   -21854.454 
  135000    301.69367   -8712.0957    43.165993   -8755.2617    38496.043 
  135200     333.7776   -8708.8902    47.756526   -8756.6467   -11277.986 
  135400    252.93111   -8718.1797      36.1891   -8754.3688    8010.6429 
  135600    343.57676   -8702.5313    49.158579   -8751.6899   -10480.819 
  135800     319.3977   -8714.3568    45.699067   -8760.0559    14207.371 
  136000    258.43392   -8718.1646    36.976436    -8755.141    477.05436 
  136200    289.14241   -8713.2176    41.370172   -8754.5878    30022.874 
  136400    325.55046   -8705.1215    46.579396   -8751.7009    25431.889 
  136600    277.80984   -8717.3495    39.748722   -8757.0982    3340.3785 
  136800    319.73732   -8713.2785    45.747659   -8759.0261    2178.0838 
  137000    342.25191   -8700.7946    48.969021   -8749.7636    22413.434 
  137200     255.8115   -8718.1383    36.601224   -8754.7395   -6237.1286 
  137400     281.0541   -8714.2986    40.212906   -8754.5116    10628.486 
  137600    293.73971   -8709.0908     42.02795   -8751.1188   -22831.681 
  137800     320.4967   -8706.8023    45.856309   -8752.6586   -45892.662 
  138000    250.80567   -8723.0531    35.884995   -8758.9381   -7752.0653 
  138200    291.60425   -8708.9005     41.72241   -8750.6229   -11487.606 
  138400    332.69015    -8703.279    47.600935     -8750.88   -42993.836 
  138600    249.99831   -8720.7758    35.769479   -8756.5453    18522.485 
  138800    257.51659   -8714.2703    36.845186   -8751.1155    10297.533 
  139000     326.2938   -8709.5465    46.685753   -8756.2322   -25235.814 
  139200    310.60719   -8712.6784    44.441329   -8757.1198   -1060.7694 
  139400    229.06982   -8719.3448    32.775054   -8752.1198   -11063.307 
  139600    301.63994   -8704.6247    43.158305    -8747.783    14880.075 
  139800    250.59194   -8714.1959    35.854414   -8750.0503   -29895.487 
  140000    317.28466   -8715.7206    45.396735   -8761.1173    17373.293 
  140200    303.41666   -8710.1133    43.412517   -8753.5258    2746.2136 
  140400    247.61322   -8710.3518    35.428223     -8745.78    50228.313 
  140600    274.06796   -8709.2416    39.213337   -8748.4549    16902.913 
  140800    256.64857   -8720.5984     36.72099   -8757.3194   -28505.488 
  141000     281.9567    -8718.694     40.34205    -8759.036   -27484.717 
  141200      345.884   -8708.0883    49.488696    -8757.577    1869.2552 
  141400    274.13585   -8719.9947    39.223051   -8759.2178   -14625.482 
  141600    242.69699   -8718.6124    34.724814   -8753.3372     7190.028 
  141800    290.67923   -8711.1871    41.590059   -8752.7772    36632.588 
  142000    277.54598   -8705.4722    39.710969   -8745.1831   -10348.959 
  142200      304.082   -8709.4717    43.507713   -8752.9794    36773.969 
  142400     253.3086   -8722.1189    36.243111    -8758.362   -12041.715 
  142600    334.91548   -8706.5537    47.919332   -8754.4731   -6276.2393 
  142800    312.22198   -8713.4802    44.672372   -8758.1526    15456.491 
  143000    263.51369    -8716.614    37.703245   -8754.3173   -24454.101 
  143200    298.70711   -8701.1386     42.73868   -8743.8773    32755.379 
  143400    229.73676   -8712.3684    32.870479   -8745.2388    14721.762 
  143600    233.45663   -8723.6361    33.402713   -8757.0388     20557.32 
  143800    302.65755   -8712.2862    43.303904   -8755.5901    -1704.041 
  144000    282.54107   -8709.5095     40.42566   -8749.9351   -39449.336 
  144200    273.47526   -8725.9308    39.128534   -8765.0593     13358.59 
  144400    289.02327   -8712.8449    41.353127    -8754.198   -25166.144 
  144600    283.75028   -8703.9246    40.598673   -8744.5233    9111.3324 
  144800    270.66287   -8717.2109    38.726141    -8755.937   -36192.228 
  145000    311.41716   -8715.5384     44.55722   -8760.0956   -15874.931 
  145200    367.54103   -8702.1345     52.58736   -8754.7219    25128.488 
  145400    326.36517   -8702.0881    46.695963   -8748.7841   -281.53111 
  145600    282.14621   -8711.3333    40.369164   -8751.7025   -27651.971 
  145800    271.72475   -8705.7354    38.878074   -8744.6134   -20185.768 
  146000    307.98877   -8706.8593    44.066689    -8750.926    1297.8783 
  146200      252.656   -8722.2839    36.149739   -8758.4336   -324.41072 
  146400    338.80841   -8707.3935    48.476328   -8755.8699   -16079.737 
  146600    308.53265   -8709.6768    44.144507   -8753.8213    16630.922 
  146800    276.34624   -8720.5476    39.539311   -8760.0869    21447.811 
  147000    317.40878   -8720.7958    45.414494   -8766.2103    3444.0024 
  147200     288.8336   -8707.7088    41.325989   -8749.0348   -9594.5179 
  147400    275.48817   -8708.6113    39.416539   -8748.0279   -8810.4301 
  147600    265.43727   -8723.1973    37.978468   -8761.1758    26927.974 
  147800    303.15361   -8711.9345     43.37488   -8755.3094    7206.5211 
  148000    318.76264   -8710.9897    45.608202   -8756.5979   -19611.641 
  148200    268.29255   -8715.0894    38.386999   -8753.4764   -27926.943 
  148400    301.73045   -8711.4677    43.171256    -8754.639   -21407.738 
  148600    306.93388   -8704.4551    43.915757   -8748.3709   -32453.604 
  148800    264.08331   -8721.1326    37.784745   -8758.9173    1679.8852 
  149000    299.86573   -8711.0926    42.904454    -8753.997    20115.436 
  149200    291.74447    -8707.445    41.742473   -8749.1875      15581.7 
  149400    306.80087   -8719.8012    43.896726   -8763.6979   -5112.7881 
  149600    249.48064   -8719.1764    35.695411   -8754.8718   -6799.5586 
  149800    276.50683   -8708.3497    39.562288    -8747.912   -8292.8706 
  150000    279.69917   -8712.8149    40.019045    -8752.834   -31637.118 
  150200    251.36389    -8719.094    35.964864   -8755.0588   -17289.221 
  150400    297.56568   -8707.9094    42.575365   -8750.4847   -18360.504 
  150600    288.90548   -8707.9552    41.336273   -8749.2915   -26722.819 
  150800    293.19805   -8714.5166    41.950449   -8756.4671   -10139.417 
  151000     271.7985   -8711.0212    38.888626   -8749.9099   -5462.5477 
  151200    364.45747   -8695.6178    52.146167   -8747.7639     7564.474 
  151400    269.83216   -8716.6926    38.607285   -8755.2998   -9227.0754 
  151600    300.79129   -8714.0928    43.036882   -8757.1297    27005.838 
  151800    318.15437   -8702.0623    45.521171   -8747.5835   -36221.555 
  152000    326.17352   -8719.3752    46.668542   -8766.0438    14795.888 
  152200    346.85833   -8708.5907    49.628102   -8758.2188    14237.496 
  152400    309.65531   -8701.9875    44.305136   -8746.2926       -18362 
  152600    264.60955   -8722.0955    37.860039   -8759.9555    2451.8256 
  152800     319.0337   -8710.2323    45.646986   -8755.8793    26299.104 
  153000    250.77534   -8709.2527    35.880656   -8745.1334    621.64665 
  153200    249.49311    -8728.293    35.697195   -8763.9902    2304.3138 
  153400    262.13241   -8721.0781    37.505612   -8758.5837   -19231.638 
  153600    297.57069   -8707.2817    42.576082   -8749.8578   -8364.3183 
  153800    306.22214   -8707.8474    43.813922   -8751.6613   -2386.4761 
  154000    300.94972   -8720.0779     43.05955   -8763.1375   -22909.885 
  154200    322.62478   -8709.7569    46.160794   -8755.9177   -1663.9582 
  154400    279.65397   -8709.2147    40.012578   -8749.2273    23807.544 
  154600    298.73219   -8712.6099    42.742268   -8755.3522   -12131.703 
  154800     296.3288   -8722.8624    42.398394   -8765.2608   -31331.167 
  155000    310.78486   -8707.6629     44.46675   -8752.1297   -32961.086 
  155200    318.56104   -8705.2856    45.579357    -8750.865     30988.71 
  155400    239.08051   -8724.7295    34.207373   -8758.9369    4351.0405 
  155600    336.31459   -8710.6529    48.119515   -8758.7724   -2926.7058 
  155800    333.02433   -8705.0835    47.648749   -8752.7323   -20092.135 
  156000    200.84797   -8727.9576    28.737103   -8756.6947    21167.281 
  156200    278.96975   -8713.0844    39.914681    -8752.999   -19375.735 
  156400    321.90412   -8705.2415    46.057681   -8751.2991   -7077.4498 
  156600    280.76866   -8723.1506    40.172066   -8763.3226   -3547.2054 
  156800     296.3923   -8714.1861    42.407478   -8756.5936    23167.557 
  157000     327.8182    -8708.626    46.903861   -8755.5299   -15839.121 
  157200    286.61634   -8720.7883    41.008745    -8761.797    11420.245 
  157400    236.52855   -8727.3413    33.842241   -8761.1836   -17182.174 
  157600     383.2271    -8706.639    54.831705   -8761.4708    -1987.442 
  157800     312.6871   -8711.0242    44.738921   -8755.7631    28548.908 
  158000    283.48535   -8720.3819    40.560767   -8760.9427   -7733.9985 
  158200     299.9053   -8702.1354    42.910115   -8745.0455   -7198.1397 
  158400    263.31402   -8713.6545    37.674676   -8751.3292   -12600.845 
  158600      323.235   -8715.7905    46.248102   -8762.0386    30832.331 
  158800    325.06511   -8696.4935    46.509953   -8743.0035    42942.517 
  159000    277.48997   -8714.1912    39.702955   -8753.8942   -11418.097 
  159200    293.19114   -8713.1916    41.949461   -8755.1411   -16449.992 
  159400    357.99277   -8694.4497    51.221206   -8745.6709   -16086.898 
  159600    328.44629    -8703.889    46.993728   -8750.8827     13339.01 
  159800    328.96294    -8712.495     47.06765   -8759.5626    10214.475 
  160000     309.9218   -8707.3437    44.343265    -8751.687   -22620.613 
  160200    338.44207   -8696.8065    48.423913   -8745.2304   -30956.761 
  160400     239.2043   -8712.0098    34.225084   -8746.2349    2574.7438 
  160600    312.87509   -8711.9297    44.765818   -8756.6955    18640.326 
  160800    334.79944   -8711.1689     47.90273   -8759.0716    19874.265 
  161000    337.93601   -8708.1369    48.351506   -8756.4884    -4046.171 
  161200    306.08857   -8706.7925    43.794811   -8750.5873    -19239.54 
  161400     271.2775   -8713.9053    38.814082   -8752.7194    16091.434 
  161600     254.0188   -8719.1086    36.344725   -8755.4533   -7945.0916 
  161800    311.85926   -8704.6352    44.620474   -8749.2556    18044.201 
  162000    325.12744    -8713.386     46.51887   -8759.9049   -6325.5201 
  162200    236.85428   -8721.5311    33.888846     -8755.42   -7153.2582 
  162400     242.9511    -8715.263    34.761172   -8750.0242    -11738.45 
  162600    314.41109   -8704.8534    44.985588    -8749.839   -23648.848 
  162800    283.22333   -8721.0295    40.523277   -8761.5528   -141.86715 
  163000    266.89859   -8718.4578    38.187552   -8756.6454   -29730.656 
  163200     328.7105    -8709.478    47.031532   -8756.5095   -8405.4231 
  163400    299.86827   -8709.6488    42.904818   -8752.5536    -1598.253 
  163600    304.07246   -8711.4667    43.506348    -8754.973    22663.606 
  163800    310.89331   -8710.6986    44.482268   -8755.1809    639.46713 
  164000    281.16432   -8710.6143    40.228676    -8750.843    4025.9807 
  164200    308.42202    -8707.073    44.128678   -8751.2017   -1409.0086 
  164400     249.2319   -8718.2603    35.659822   -8753.9201    39587.854 
  164600    300.35282   -8717.9487    42.974145   -8760.9228     18817.61 
  164800    346.01828   -8704.4388    49.507909   -8753.9467    20476.292 
  165000    248.99773   -8718.0313    35.626317   -8753.6576   -17062.668 
  165200     257.1524   -8722.6546    36.793078   -8759.4477   -18528.551 
  165400    327.75456   -8704.8927    46.894756   -8751.7874    10113.947 
  165600    293.29785   -8711.6151    41.964729   -8753.5798   -16132.047 
  165800    255.36472   -8723.0853    36.537298   -8759.6226   -19702.289 
  166000    291.48002   -8702.7592    41.704636   -8744.4639   -3112.8153 
  166200    292.31428   -8713.9902    41.824001   -8755.8142    9408.4125 
  166400    231.63915    -8721.972    33.142671   -8755.1146    1812.2198 
  166600    274.21692   -8702.6869     39.23465   -8741.9215   -23050.695 
  166800    329.63772   -8710.3077    47.164196   -8757.4719   -14675.757 
  167000     225.8089   -8716.7167    32.308484   -8749.0252    5960.9588 
  167200     273.2041   -8713.5857    39.089738   -8752.6755   -28548.152 
  167400    335.27899   -8706.9692    47.971343   -8754.9406    6827.6473 
  167600    306.48711   -8701.2848    43.851833   -8745.1366   -6463.6765 
  167800    268.83132   -8714.6352    38.464085   -8753.0993   -11793.719 
  168000    334.23412   -8706.5724    47.821845   -8754.3942    7761.3117 
  168200    357.03344   -8701.2445    51.083945   -8752.3285   -34281.637 
  168400    317.70788   -8709.7922    45.457288   -8755.2495   -1887.0661 
  168600    270.72453   -8720.2182    38.734963   -8758.9532   -21711.483 
  168800    350.75893   -8701.4362    50.186196   -8751.6223    2850.9332 
  169000    316.74452   -8708.6337    45.319452   -8753.9531   -19002.983 
  169200    237.56264   -8720.4375    33.990196   -8754.4277   -28732.542 
  169400    285.53339   -8710.8342    40.853799    -8751.688   -12189.784 
  169600    310.02137   -8708.5257    44.357512   -8752.8832   -11389.337 
  169800    272.03125    -8725.838    38.921927     -8764.76   -3995.8749 
  170000    311.37464   -8711.6585    44.551136   -8756.2096   -19632.617 
  170200    281.78287   -8706.1482    40.317178   -8746.4654   -11364.681 
  170400    241.48706   -8724.2161    34.551699   -8758.7678    20897.686 
  170600    263.12053   -8717.3363    37.646991   -8754.9833    7425.7084 
  170800    330.04286   -8709.3587    47.222163   -8756.5809   -2334.4717 
  171000    282.96048   -8717.3665     40.48567   -8757.8521    22929.503 
  171200    259.11968   -8724.1189    37.074554   -8761.1935   -10342.672 
  171400    301.48047   -8705.7438    43.135488   -8748.8793    2160.4244 
  171600    301.83567   -8707.8831     43.18631   -8751.0694    31936.333 
  171800    279.39863   -8722.5095    39.976044   -8762.4856    37474.126 
  172000    335.21144    -8711.071    47.961678   -8759.0327    18848.432 
  172200    330.38617   -8708.4855    47.271284   -8755.7568    14797.641 
  172400    256.49841   -8724.5111    36.699505   -8761.2106    -18109.78 
  172600    266.08375   -8714.1056    38.070966   -8752.1766   -51503.332 
  172800    332.74334   -8706.1626    47.608545   -8753.7712   -2649.4756 
  173000    233.00249   -8717.4674    33.337736   -8750.8052    62090.193 
  173200    291.17589     -8699.42    41.661121   -8741.0811   -8055.7458 
  173400     326.9225   -8708.4449    46.775707   -8755.2206    36674.742 
  173600    310.46291   -8714.2442    44.420686   -8758.6649    3832.1069 
  173800    315.27362   -8708.7781    45.108997   -8753.8871    8996.2865 
  174000    252.79043   -8720.1346    36.168972   -8756.3036    24487.382 
  174200    311.29165   -8711.2258    44.539262   -8755.7651     28466.89 
  174400    264.11916   -8703.9995    37.789874   -8741.7894    14145.174 
  174600    296.29121   -8715.4399    42.393016   -8757.8329   -24787.936 
  174800    325.88299   -8713.7135    46.626974   -8760.3404   -16979.941 
  175000    281.39087    -8713.831    40.261092    -8754.092    1402.7817 
  175200    356.70276    -8700.122    51.036632   -8751.1587   -9412.5792 
  175400    284.10001   -8712.6994    40.648712   -8753.3481    22100.414 
  175600    250.48382   -8729.5484    35.838946   -8765.3874    2794.4721 
  175800    260.75456   -8720.3382    37.308472   -8757.6467    -4566.258 
  176000      275.044   -8708.0136    39.352989   -8747.3666   -15527.444 
  176200    316.07096   -8711.9216    45.223079   -8757.1447   -24981.546 
  176400    286.79637   -8717.2841    41.034504   -8758.3186   -10311.717 
  176600    337.60505   -8702.6493    48.304153   -8750.9534     20121.83 
  176800    288.80239   -8708.7024    41.321523   -8750.0239    -26444.45 
  177000    282.98039   -8720.2049    40.488517   -8760.6934   -7695.7799 
  177200    350.08073   -8705.2286     50.08916   -8755.3178    28856.765 
  177400    341.65496   -8710.9032    48.883609   -8759.7868    7671.5693 
  177600    274.06286   -8715.8752    39.212607   -8755.0878   -40051.895 
  177800    325.85206   -8704.0928    46.622549   -8750.7154   -2287.4958 
  178000    266.40059   -8709.6877    38.116299    -8747.804   -23807.414 
[...]
  950000    281.94872   -8772.2011    40.340908    -8812.542    29065.812 
  950200    301.84964   -8763.7042    43.188309   -8806.8925   -18614.141 
  950400    367.74437   -8747.1773    52.616454   -8799.7937    2470.8227 
  950600    337.81248   -8764.3162    48.333833   -8812.6501    -26207.12 
  950800    234.85697   -8771.5726    33.603072   -8805.1756   -9383.7679 
  951000    295.55134   -8753.3413    42.287156   -8795.6284    10972.468 
  951200    290.10957   -8764.1017    41.508553   -8805.6103    -5157.075 
  951400    323.55635   -8771.7724    46.294081   -8818.0665    24846.791 
  951600    322.15803   -8766.8126    46.094011   -8812.9066   -11590.053 
  951800    394.40568   -8752.8901    56.431124   -8809.3212    10689.915 
  952000    318.69178   -8766.9696    45.598063   -8812.5677   -29216.371 
  952200    336.99915   -8760.8571    48.217462   -8809.0746   -30001.381 
  952400    310.65006   -8755.5908    44.447464   -8800.0382    23208.841 
  952600     264.0435   -8769.9807     37.77905   -8807.7598    7595.1562 
  952800    327.60153   -8765.1443    46.872861   -8812.0171   -25197.932 
  953000    318.72427   -8754.9676    45.602712   -8800.5703   -7160.4907 
  953200    288.92123   -8773.1643    41.338527   -8814.5028     24664.28 
  953400    333.55479   -8770.5256    47.724647   -8818.2503   -1269.1302 
  953600    289.73454   -8768.3466    41.454894   -8809.8015   -17525.878 
  953800    352.23518   -8758.3648    50.397416   -8808.7622    -18690.92 
  954000    294.02859   -8765.5573    42.069282   -8807.6266   -22114.995 
  954200    291.81577   -8770.0891    41.752674   -8811.8418    5000.2148 
  954400    349.81592    -8755.327    50.051272   -8805.3783    26061.367 
  954600     333.7303   -8765.5056    47.749758   -8813.2554   -21112.717 
  954800    275.93269    -8773.412    39.480141   -8812.8921   -26696.388 
  955000    318.57142   -8754.6918    45.580843   -8800.2727    27212.677 
  955200    224.84257   -8767.2944    32.170223   -8799.4646    6572.7127 
  955400    286.07514   -8766.2409    40.931311   -8807.1722   -4617.8089 
  955600    333.86228   -8762.7822    47.768641   -8810.5508    1472.4121 
  955800    366.45326   -8758.2902    52.431722   -8810.7219   -14401.055 
  956000    283.88511   -8774.8477    40.617964   -8815.4656   -13929.648 
  956200    242.35933   -8772.9589    34.676502   -8807.6354    31152.438 
  956400    343.08035   -8754.2463    49.087553   -8803.3339    3138.3086 
  956600    291.02924   -8768.6596    41.640138   -8810.2997   -13199.124 
  956800    271.50191   -8771.1269     38.84619    -8809.973   -14414.914 
  957000    284.90646   -8763.8618    40.764098   -8804.6259    7669.3435 
  957200    284.73567   -8769.0644    40.739662   -8809.8041    11203.521 
  957400    342.90098   -8762.1469    49.061889   -8811.2088     2437.508 
  957600    324.34717   -8749.3149     46.40723   -8795.7222   -3294.9677 
  957800    319.34002    -8769.752    45.690814   -8815.4428   -4176.1171 
  958000     317.2091   -8765.9961    45.385924    -8811.382    22656.964 
  958200    335.88016   -8762.6432    48.057358   -8810.7005    12707.888 
  958400    313.49025   -8777.3386    44.853835   -8822.1925   -7355.3964 
  958600    300.25731   -8763.3267     42.96048   -8806.2872    3966.5106 
  958800    364.55264   -8761.5969    52.159785   -8813.7566    16661.184 
  959000    318.81512   -8773.3701    45.615711   -8818.9859   -11685.057 
  959200    263.92354   -8772.4796    37.761885   -8810.2415    9914.0488 
  959400    322.20297   -8762.4375    46.100441    -8808.538   -4193.6647 
  959600    320.75326   -8767.4322    45.893018   -8813.3253   -825.96687 
  959800    350.03269   -8756.3727    50.082286    -8806.455    24626.202 
  960000     291.2285   -8754.7174    41.668648   -8796.3861   -20443.009 
  960200    294.78118   -8769.0062    42.176962   -8811.1832    19104.118 
  960400    373.03415   -8763.2586    53.373309   -8816.6319    5287.9287 
  960600    279.60188   -8772.7887    40.005124   -8812.7938     12861.17 
  960800    271.40234    -8768.926    38.831944   -8807.7579   -6023.2703 
  961000    322.29022   -8762.0121    46.112924    -8808.125   -2566.7082 
  961200    291.26686   -8770.2968    41.674137   -8811.9709    11950.107 
  961400    298.67049   -8777.8223     42.73344   -8820.5557   -1779.3599 
  961600    331.99161   -8763.0949    47.500989   -8810.5959   -26006.101 
  961800    267.06865   -8765.9088    38.211884   -8804.1207   -2622.2591 
  962000    352.30198   -8748.0208    50.406974   -8798.4278   -30789.366 
  962200    329.83297    -8764.479    47.192132   -8811.6711   -20237.528 
  962400    294.42972   -8766.3432    42.126675   -8808.4698    5406.5695 
  962600    339.83797   -8755.4704    48.623637   -8804.0941   -11487.878 
  962800    297.29269   -8771.2445    42.536306   -8813.7808    662.26906 
  963000    332.49026   -8761.9749    47.572334   -8809.5472   -20024.634 
  963200    300.55707   -8753.7947     43.00337    -8796.798   -25224.849 
  963400    265.40527   -8772.4268    37.973889   -8810.4007    24583.385 
  963600    354.43952    -8758.903     50.71281   -8809.6158    16378.926 
  963800    281.15789   -8778.1268    40.227757   -8818.3546    18669.263 
  964000    339.46762   -8767.0327    48.570647   -8815.6033    13519.321 
  964200    279.47514   -8763.7796    39.986991   -8803.7666   -848.43148 
  964400    251.66193   -8782.0403    36.007507   -8818.0478    30833.828 
  964600    272.82919   -8768.4893    39.036096   -8807.5253   -14712.743 
  964800    337.04063   -8763.4133    48.223396   -8811.6367    1113.3146 
  965000    272.89707   -8776.8941    39.045808   -8815.9399    11096.599 
  965200    248.15959   -8781.7174    35.506397   -8817.2238    12403.141 
  965400    321.77628   -8763.3688     46.03939   -8809.4082   -4535.6532 
  965600    317.37765    -8759.777    45.410039    -8805.187   -17838.919 
  965800    295.94371    -8766.069    42.343296   -8808.4123    25731.503 
  966000    241.04477   -8772.1967    34.488416   -8806.6851   -6839.1983 
  966200    371.46624   -8757.5747    53.148974   -8810.7237   -3222.2607 
  966400    273.10978   -8769.5973    39.076242   -8808.6735   -33631.487 
  966600    293.99085   -8768.8078    42.063882   -8810.8717   -21140.382 
  966800    333.79879   -8749.8533    47.759558   -8797.6129   -27661.151 
  967000    276.36667   -8766.6663    39.542234   -8806.2085    10565.149 
  967200    277.39322   -8761.3919    39.689112    -8801.081    9356.3253 
  967400     310.0442   -8762.3591    44.360778   -8806.7199   -4836.1672 
  967600    283.88244   -8778.0468    40.617582   -8818.6643   -13933.274 
  967800    308.95891   -8765.3947    44.205496   -8809.6002   -23359.005 
  968000    306.11469   -8763.1473    43.798547   -8806.9459    20863.847 
  968200    364.78913   -8756.6735     52.19362   -8808.8671    6937.2989 
  968400     343.9817   -8761.3319    49.216517   -8810.5484   -10116.121 
  968600    342.42138    -8773.918    48.993269   -8822.9113   -992.71357 
  968800    346.92029   -8759.2513    49.636968   -8808.8882    25475.051 
  969000    302.49129   -8761.7681    43.280116   -8805.0482   -28409.289 
  969200    323.77442   -8765.8707    46.325282    -8812.196   -6281.4068 
  969400    275.48809   -8757.0656    39.416528   -8796.4821   -7084.9802 
  969600    297.90084   -8755.7971    42.623319   -8798.4204   -9378.8853 
  969800    257.03643   -8770.2207    36.776484   -8806.9972     30884.51 
  970000    306.47783    -8771.033    43.850506   -8814.8835    20603.684 
  970200    337.20174   -8763.6058    48.246449   -8811.8522   -7320.0223 
  970400    326.03482   -8754.7885    46.648697   -8801.4372    932.65019 
  970600    283.66161   -8772.6752    40.585986   -8813.2612   -4399.3382 
  970800    298.31113   -8764.9729    42.682023   -8807.6549    29267.812 
  971000    334.08572   -8767.0555    47.800612   -8814.8561    25480.964 
  971200    250.00984   -8777.0353    35.771129   -8812.8065   -46414.506 
  971400    339.95913   -8762.9968    48.640973   -8811.6377   -37542.079 
  971600    334.47722    -8763.289    47.856627   -8811.1457    -1207.023 
  971800     286.3556   -8772.1041    40.971439   -8813.0755   -8929.4467 
  972000    331.95246   -8761.4221    47.495386   -8808.9175   -17307.125 
  972200    292.50641   -8764.2878     41.85149   -8806.1393    28579.853 
  972400    289.00835   -8769.2753    41.350992   -8810.6263    5231.1272 
  972600    290.20505   -8763.6101    41.522215   -8805.1323   -14153.393 
  972800    304.46502   -8764.4833    43.562515   -8808.0458   -33004.339 
  973000    255.87037   -8768.4399    36.609647   -8805.0496   -10278.606 
  973200    310.60599    -8769.667    44.441158   -8814.1081   -317.25144 
  973400    297.27001   -8770.9503    42.533061   -8813.4833     25317.71 
  973600    334.52846   -8755.6674    47.863958   -8803.5314   -26088.704 
  973800    321.79152   -8764.3583    46.041571   -8810.3999    32725.986 
  974000    292.18045   -8769.7769    41.804852   -8811.5818    38524.969 
  974200    349.01521   -8757.9224    49.936706   -8807.8591   -10415.439 
  974400    274.55226   -8777.9069     39.28263   -8817.1896   -15975.894 
  974600    249.97272   -8769.1815    35.765817   -8804.9473   -6821.9621 
  974800     301.6805   -8760.8697    43.164109   -8804.0338    11517.193 
  975000    281.47156   -8764.4998    40.272637   -8804.7724   -12926.285 
  975200    292.19442   -8765.8592    41.806851    -8807.666   -25492.596 
  975400    390.60446   -8749.7706    55.887249   -8805.6579    8851.5302 
  975600     278.1363    -8767.153    39.795431   -8806.9485   -55752.408 
  975800    292.73876   -8769.5429    41.884735   -8811.4277    34662.817 
  976000    353.05195    -8753.468    50.514279   -8803.9823    31267.578 
  976200    280.60357   -8763.6341    40.148445   -8803.7826    26200.148 
  976400     364.6917   -8762.8334     52.17968   -8815.0131    18013.416 
  976600    377.98927   -8760.6516    54.082283   -8814.7339    4253.8395 
  976800    310.91744   -8771.7684     44.48572   -8816.2541   -33605.608 
  977000    303.63133   -8765.6576    43.443231   -8809.1008   -2591.1369 
  977200    356.51598   -8756.4808    51.009909   -8807.4907    17200.343 
  977400    287.08793   -8775.8464     41.07622   -8816.9226    1193.4794 
  977600    297.09327    -8765.546    42.507773   -8808.0538   -21484.752 
  977800    311.53577   -8763.0147    44.574189   -8807.5889    17072.185 
  978000    268.81185   -8778.2748    38.461299   -8816.7361    22766.863 
  978200    309.42291   -8764.9977    44.271884   -8809.2696    23281.316 
  978400    280.47878   -8767.3578    40.130591   -8807.4884    19662.592 
  978600     377.5547   -8750.5013    54.020105   -8804.5214      6307.33 
  978800    305.52471   -8765.0967    43.714134   -8808.8108   -8593.9222 
  979000    271.53612     -8770.95    38.851085   -8809.8011    5570.6124 
  979200    348.90057   -8755.4784    49.920304   -8805.3987    21546.556 
  979400    294.93297     -8766.92    42.198679   -8809.1187    10426.397 
  979600    289.22574   -8770.5403    41.382096   -8811.9224    11360.104 
  979800    278.25121   -8763.1143    39.811871   -8802.9262    19900.163 
  980000    305.42605   -8766.9364    43.700018   -8810.6364   -21558.009 
  980200    303.85895    -8765.401    43.475799   -8808.8768   -9284.1627 
  980400    307.67203   -8766.2277    44.021371    -8810.249    40836.676 
  980600    358.60261   -8762.9758     51.30846   -8814.2842   -6389.6071 
  980800    320.65254   -8754.5785    45.878608   -8800.4571   -17683.163 
  981000    257.80562   -8772.7124     36.88654    -8809.599    7728.3031 
  981200    253.27005   -8774.9903    36.237596   -8811.2278   -7931.8694 
  981400    369.75782   -8756.7139    52.904535   -8809.6184    9775.3842 
  981600    272.45084   -8773.0417    38.981962   -8812.0236   -19662.584 
  981800    283.35119   -8768.1406    40.541571   -8808.6822    9371.6347 
  982000    357.61074   -8759.8977    51.166546   -8811.0642    26004.941 
  982200    308.86413   -8769.0016    44.191935   -8813.1935   -11898.252 
  982400    254.50916   -8776.4769    36.414886   -8812.8918    30958.214 
  982600    286.61276   -8766.8403    41.008234   -8807.8485   -50903.117 
  982800    302.48769   -8764.4707    43.279601   -8807.7503   -16286.956 
  983000     282.4625   -8766.5479    40.414419   -8806.9623   -19364.126 
  983200    328.33989   -8762.1307    46.978504   -8809.1092    22064.733 
  983400    257.20906   -8767.6838    36.801185   -8804.4849   -14296.705 
  983600    263.81727   -8774.3052     37.74668   -8812.0519    24858.104 
  983800    294.02287   -8766.3351    42.068464   -8808.4035   -29760.413 
  984000    315.47414   -8763.8996    45.137687   -8809.0372    20246.667 
  984200    311.87575   -8768.3559    44.622834   -8812.9787    -11725.91 
  984400    309.24447   -8765.1125    44.246353   -8809.3589   -2671.5225 
  984600    407.31843   -8751.1535    58.278666   -8809.4321    6377.2447 
  984800    252.38365    -8770.371     36.11077   -8806.4817    3225.9897 
  985000    352.04851    -8761.982    50.370707   -8812.3527   -4008.2874 
  985200    280.05216   -8776.1885    40.069551    -8816.258    2507.1349 
  985400    295.23076   -8769.7087    42.241287   -8811.9499   -15784.619 
  985600    326.20983   -8756.6712    46.673737    -8803.345    59912.895 
  985800    250.99579   -8772.2761    35.912198   -8808.1883   -15464.829 
  986000    364.46217   -8766.4466    52.146839   -8818.5935   -14035.835 
  986200     228.0852   -8779.4174    32.634176   -8812.0515   -21128.528 
  986400    302.81377   -8766.9788    43.326256    -8810.305    38206.241 
  986600    318.58624   -8760.7228    45.582964   -8806.3058   -37551.383 
  986800    313.58619   -8751.3455    44.867562   -8796.2131   -44680.768 
  987000    297.99344   -8765.7103    42.636568   -8808.3468   -21877.688 
  987200    242.08508   -8774.9139    34.637263   -8809.5511    3597.0522 
  987400    296.22547    -8758.045    42.383609   -8800.4286    20434.099 
  987600    285.42305   -8767.3563    40.838012   -8808.1943   -8658.6785 
  987800    218.49711   -8779.0923    31.262322   -8810.3546    19774.382 
  988000    260.23692   -8777.5152    37.234407   -8814.7496   -8093.9197 
  988200    306.02437   -8768.5462    43.785625   -8812.3318    5299.1098 
  988400    341.12651   -8755.5858       48.808   -8804.3938   -15546.436 
  988600    356.20796   -8757.9285    50.965837   -8808.8943    8256.5971 
  988800    254.03053   -8772.5761    36.346404   -8808.9226   -188.49447 
  989000    341.04443    -8757.694    48.796256   -8806.4903    14766.816 
  989200    318.79639   -8765.2851    45.613031   -8810.8982   -15109.517 
  989400    305.51079   -8769.3223    43.712142   -8813.0344   -27678.706 
  989600    259.70684    -8770.279    37.158565   -8807.4376    11578.198 
  989800    310.90172   -8754.3719     44.48347   -8798.8554    5460.8879 
  990000     267.0125   -8765.6835     38.20385   -8803.8874   -19551.203 
  990200    305.48188   -8771.1584    43.708006   -8814.8664   -5258.1722 
  990400    256.95858   -8775.6474    36.765346   -8812.4127    10574.613 
  990600    279.22566   -8764.8442    39.951295   -8804.7955    19328.185 
  990800    274.60183   -8775.9125    39.289723   -8815.2022    16202.027 
  991000    237.37347   -8778.2928    33.963131    -8812.256    24792.842 
  991200    335.56034   -8759.2161    48.011599   -8807.2277    6125.4641 
  991400    268.25265   -8768.8339    38.381289   -8807.2152     17029.09 
  991600    315.85398   -8770.6112    45.192034   -8815.8032   -22295.054 
  991800    307.84103   -8766.3159     44.04555   -8810.3615    20127.322 
  992000    232.60079   -8765.7341    33.280261   -8799.0144    12768.593 
  992200    352.50819   -8756.2986    50.436478   -8806.7351     25877.55 
  992400    293.98687   -8771.2916    42.063313   -8813.3549    28692.972 
  992600    314.53762   -8763.3257    45.003691   -8808.3294   -4761.4296 
  992800    245.69917   -8779.1417    35.154362   -8814.2961    14849.166 
  993000    289.80138   -8777.2819    41.464458   -8818.7464   -25949.138 
  993200    284.32437    -8762.455    40.680813   -8803.1358   -40903.314 
  993400    319.58232   -8761.7373    45.725482   -8807.4628    16865.437 
  993600    272.82902   -8773.4986    39.036071   -8812.5347    17511.871 
  993800    301.69842   -8763.4405    43.166673   -8806.6072   -10720.373 
  994000    256.02555   -8774.7591    36.631849    -8811.391    15599.162 
  994200    221.07182    -8783.493    31.630708   -8815.1237   -7080.4571 
  994400     279.9016   -8764.7031    40.048007   -8804.7511    10695.866 
  994600    276.63185   -8759.3625    39.580176   -8798.9426    17538.116 
  994800     249.0246   -8777.0013    35.630161   -8812.6314    -23177.03 
  995000    279.65431   -8765.6907    40.012626   -8805.7033   -17595.496 
  995200    283.11858   -8766.5978     40.50829   -8807.1061   -13108.361 
  995400    270.19376   -8774.7087    38.659022   -8813.3677    -3439.512 
  995600    246.29741   -8774.5839    35.239959   -8809.8238    14537.034 
  995800    326.52379   -8761.1859    46.718658   -8807.9045   -9458.6024 
  996000    256.65899   -8764.0856    36.722481   -8800.8081   -8061.9912 
  996200    260.73463   -8778.7275     37.30562   -8816.0331    2200.9853 
  996400    289.61499    -8763.046    41.437789   -8804.4837   -31484.247 
  996600    296.54535   -8763.3754    42.429378   -8805.8048    1698.8348 
  996800     264.1411   -8776.1236    37.793014   -8813.9166   -23111.797 
  997000    277.59053   -8775.4729    39.717343   -8815.1902   -14178.915 
  997200     280.9342   -8758.3624    40.195752   -8798.5581    15361.065 
  997400    287.53041   -8772.6672    41.139529   -8813.8067   -2643.4946 
  997600    277.70311   -8766.8534     39.73345   -8806.5869     1172.452 
  997800    300.35117   -8754.7247     42.97391   -8797.6986   -6915.1331 
  998000    255.31499   -8772.3342    36.530183   -8808.8644    723.62291 
  998200    323.63888   -8765.3922    46.305889   -8811.6981    9823.8631 
  998400    350.37816   -8762.3334    50.131716   -8812.4652    37419.723 
  998600    286.41324   -8768.7937    40.979686   -8809.7734   -14485.509 
  998800    243.24252   -8771.8936    34.802867   -8806.6965    29304.352 
  999000    333.48318   -8760.3141    47.714401   -8808.0285   -18007.761 
  999200    291.23494    -8756.123     41.66957   -8797.7925    1502.9763 
  999400     274.0579   -8774.6627    39.211899   -8813.8746   -16426.689 
  999600     318.2811   -8759.9143    45.539304   -8805.4536    17142.761 
  999800    313.08702   -8761.0889    44.796141    -8805.885    11846.993 
 1000000    323.97298   -8769.1178    46.353692   -8815.4715     2510.224 
Loop time of 9476.5 on 8 procs for 1000000 steps with 49 atoms

Performance: 2.279 ns/day, 10.529 hours/ns, 105.524 timesteps/s
99.5% CPU use with 8 MPI tasks x no OpenMP threads

MPI task timing breakdown:
Section |  min time  |  avg time  |  max time  |%varavg| %total
---------------------------------------------------------------
Pair    | 7378.8     | 7562.3     | 7722.8     | 140.3 | 79.80
Neigh   | 0.010013   | 0.010177   | 0.010304   |   0.1 |  0.00
Comm    | 152.38     | 311.46     | 494.3      | 689.0 |  3.29
Output  | 0.46089    | 0.48657    | 0.6301     |   7.8 |  0.01
Modify  | 1582.2     | 1584.2     | 1585.7     |   3.6 | 16.72
Other   |            | 18.04      |            |       |  0.19

Nlocal:    6.125 ave 7 max 6 min
Histogram: 7 0 0 0 0 0 0 0 0 1
Nghost:    567.875 ave 580 max 554 min
Histogram: 1 0 2 0 1 0 1 0 2 1
Neighs:    779 ave 895 max 752 min
Histogram: 5 2 0 0 0 0 0 0 0 1

Total # of neighbors = 6232
Ave neighs/atom = 127.184
Neighbor list builds = 4
Dangerous builds = 0

unfix 1
unfix output
undump 1

Please see the log.cite file for references relevant to this simulation

Total wall time: 2:39:08
