LAMMPS (3 Mar 2020)
# Alpha
clear
units		real
dimension 3
boundary        p p p
atom_style	charge
newton on
read_data       H_15.lmp
  triclinic box = (0 0 0) to (13.552 11.7355 22.15) with tilt (-6.7755 0 0)
  2 by 2 by 2 MPI processor grid
  reading atoms ...
  161 atoms
  read_data CPU = 0.0062079 secs

timestep 0.25

# ---------- Define Interatomic Potential ---------------------
pair_style      reax/c NULL checkqeq no
pair_coeff      * * ffield.reax C H
fix             2 all qeq/reax 1 0.0 10.0 1.0e-6 reax/c

#------------ Equilibration of the system -------------------------
reset_timestep 0

dump 1 all custom 10 min.lammpstrj id type x y z

minimize 1.0e-8 1.0e-8 100000 100000
WARNING: Using 'neigh_modify every 1 delay 0 check yes' setting during minimization (../min.cpp:190)
WARNING: Total cutoff < 2*bond cutoff. May need to use an increased neighbor list skin. (../pair_reaxc.cpp:413)
Neighbor list info ...
  update every 1 steps, delay 0 steps, check yes
  max neighbors/atom: 2000, page size: 100000
  master list distance cutoff = 9.5
  ghost atom cutoff = 9.5
  binsize = 4.75, bins = 5 3 5
  2 neighbor lists, perpetual/occasional/extra = 2 0 0
  (1) pair reax/c, perpetual
      attributes: half, newton off, ghost
      pair build: half/bin/newtoff/ghost
      stencil: half/ghost/bin/3d/newtoff
      bin: standard
  (2) fix qeq/reax, perpetual, copy from (1)
      attributes: half, newton off, ghost
      pair build: copy
      stencil: none
      bin: none
Per MPI rank memory allocation (min/avg/max) = 22.39 | 23.37 | 24.36 Mbytes
Step Temp E_pair E_mol TotEng Press 
       0            0   -25459.595            0   -25459.595    99982.203 
     132            0   -29091.575            0   -29091.575    36536.016 
Loop time of 6.59959 on 8 procs for 132 steps with 161 atoms

99.3% CPU use with 8 MPI tasks x no OpenMP threads

Minimization stats:
  Stopping criterion = energy tolerance
  Energy initial, next-to-last, final = 
        -25459.5954651     -29091.5745728     -29091.5746459
  Force two-norm initial, final = 4726.63 232.363
  Force max component initial, final = 663.38 77.5733
  Final line search alpha, max atom move = 0.000202573 0.0157142
  Iterations, force evaluations = 132 803

MPI task timing breakdown:
Section |  min time  |  avg time  |  max time  |%varavg| %total
---------------------------------------------------------------
Pair    | 4.612      | 4.9582     | 5.2536     |   9.5 | 75.13
Neigh   | 0          | 0          | 0          |   0.0 |  0.00
Comm    | 0.060462   | 0.35414    | 0.69856    |  35.2 |  5.37
Output  | 0.00049682 | 0.00063512 | 0.00098326 |   0.0 |  0.01
Modify  | 1.2765     | 1.2777     | 1.2794     |   0.1 | 19.36
Other   |            | 0.008933   |            |       |  0.14

Nlocal:    20.125 ave 32 max 4 min
Histogram: 2 0 1 0 1 0 0 0 1 3
Nghost:    840.375 ave 887 max 787 min
Histogram: 2 1 1 0 0 0 0 0 0 4
Neighs:    2754.75 ave 4301 max 592 min
Histogram: 2 0 0 1 1 0 0 0 1 3

Total # of neighbors = 22038
Ave neighs/atom = 136.882
Neighbor list builds = 0
Dangerous builds = 0

###
min_style cg
minimize 1.0e-8 1.0e-8 100000 100000
WARNING: Using 'neigh_modify every 1 delay 0 check yes' setting during minimization (../min.cpp:190)
WARNING: Total cutoff < 2*bond cutoff. May need to use an increased neighbor list skin. (../pair_reaxc.cpp:413)
Per MPI rank memory allocation (min/avg/max) = 22.39 | 23.37 | 24.36 Mbytes
Step Temp E_pair E_mol TotEng Press 
     132            0   -29091.575            0   -29091.575    36536.016 
     298            0   -29124.407            0   -29124.407    38564.289 
Loop time of 10.051 on 8 procs for 166 steps with 161 atoms

99.3% CPU use with 8 MPI tasks x no OpenMP threads

Minimization stats:
  Stopping criterion = energy tolerance
  Energy initial, next-to-last, final = 
        -29091.5746459     -29124.4068543     -29124.4069427
  Force two-norm initial, final = 232.363 110.162
  Force max component initial, final = 77.5733 34.3997
  Final line search alpha, max atom move = 4.53875e-05 0.00156132
  Iterations, force evaluations = 166 1223

MPI task timing breakdown:
Section |  min time  |  avg time  |  max time  |%varavg| %total
---------------------------------------------------------------
Pair    | 7.2134     | 7.7009     | 8.1693     |  11.0 | 76.62
Neigh   | 0          | 0          | 0          |   0.0 |  0.00
Comm    | 0.058187   | 0.52416    | 1.0097     |  42.1 |  5.22
Output  | 0.00061245 | 0.00081735 | 0.0012854  |   0.0 |  0.01
Modify  | 1.8102     | 1.8117     | 1.8137     |   0.1 | 18.03
Other   |            | 0.01339    |            |       |  0.13

Nlocal:    20.125 ave 32 max 4 min
Histogram: 2 0 1 1 0 0 0 0 0 4
Nghost:    869.875 ave 920 max 816 min
Histogram: 1 3 0 0 0 0 0 0 2 2
Neighs:    2735.5 ave 4249 max 583 min
Histogram: 2 0 0 2 0 0 0 0 0 4

Total # of neighbors = 21884
Ave neighs/atom = 135.925
Neighbor list builds = 0
Dangerous builds = 0

###
fix 1 all box/relax aniso 0.0
min_style cg
minimize 1.0e-8 1.0e-8 100000 100000
WARNING: Using 'neigh_modify every 1 delay 0 check yes' setting during minimization (../min.cpp:190)
WARNING: Total cutoff < 2*bond cutoff. May need to use an increased neighbor list skin. (../pair_reaxc.cpp:413)
Per MPI rank memory allocation (min/avg/max) = 22.39 | 23.37 | 24.36 Mbytes
Step Temp E_pair E_mol TotEng Press Volume 
     298            0   -29124.407            0   -29124.407    38564.289    3522.7279 
     399            0    -29143.31            0    -29143.31    2194.3491    3531.9023 
Loop time of 1.09245 on 8 procs for 101 steps with 161 atoms

99.2% CPU use with 8 MPI tasks x no OpenMP threads

Minimization stats:
  Stopping criterion = energy tolerance
  Energy initial, next-to-last, final = 
        -29124.4069427     -29143.3099375     -29143.3102107
  Force two-norm initial, final = 4201.64 655.26
  Force max component initial, final = 3578.36 493.043
  Final line search alpha, max atom move = 1.57489e-09 7.76489e-07
  Iterations, force evaluations = 101 146

MPI task timing breakdown:
Section |  min time  |  avg time  |  max time  |%varavg| %total
---------------------------------------------------------------
Pair    | 0.84763    | 0.91196    | 0.96633    |   4.0 | 83.48
Neigh   | 0          | 0          | 0          |   0.0 |  0.00
Comm    | 0.0062624  | 0.060423   | 0.1246     |  15.6 |  5.53
Output  | 0.00035282 | 0.00044447 | 0.000668   |   0.0 |  0.04
Modify  | 0.11479    | 0.11489    | 0.11501    |   0.0 | 10.52
Other   |            | 0.004732   |            |       |  0.43

Nlocal:    20.125 ave 32 max 4 min
Histogram: 2 0 1 1 0 0 0 0 0 4
Nghost:    863.875 ave 919 max 806 min
Histogram: 1 2 1 0 0 0 0 1 1 2
Neighs:    2740.38 ave 4244 max 584 min
Histogram: 2 0 0 2 0 0 0 0 0 4

Total # of neighbors = 21923
Ave neighs/atom = 136.168
Neighbor list builds = 0
Dangerous builds = 0

unfix 1
###
min_style cg
minimize 1.0e-8 1.0e-8 100000 100000
WARNING: Using 'neigh_modify every 1 delay 0 check yes' setting during minimization (../min.cpp:190)
WARNING: Total cutoff < 2*bond cutoff. May need to use an increased neighbor list skin. (../pair_reaxc.cpp:413)
Per MPI rank memory allocation (min/avg/max) = 22.39 | 23.37 | 24.36 Mbytes
Step Temp E_pair E_mol TotEng Press 
     399            0    -29143.31            0    -29143.31    2194.3491 
     529            0   -29192.425            0   -29192.425    29309.446 
Loop time of 8.06438 on 8 procs for 130 steps with 161 atoms

99.3% CPU use with 8 MPI tasks x no OpenMP threads

Minimization stats:
  Stopping criterion = energy tolerance
  Energy initial, next-to-last, final = 
        -29143.3102107     -29192.4242118     -29192.4245005
  Force two-norm initial, final = 297.269 91.3698
  Force max component initial, final = 37.5005 18.6696
  Final line search alpha, max atom move = 8.34375e-05 0.00155774
  Iterations, force evaluations = 130 997

MPI task timing breakdown:
Section |  min time  |  avg time  |  max time  |%varavg| %total
---------------------------------------------------------------
Pair    | 5.7706     | 6.2086     | 6.5662     |  10.4 | 76.99
Neigh   | 0          | 0          | 0          |   0.0 |  0.00
Comm    | 0.048118   | 0.40349    | 0.84007    |  40.5 |  5.00
Output  | 0.00049125 | 0.00060498 | 0.00090716 |   0.0 |  0.01
Modify  | 1.4395     | 1.4408     | 1.4423     |   0.1 | 17.87
Other   |            | 0.01089    |            |       |  0.14

Nlocal:    20.125 ave 32 max 4 min
Histogram: 2 0 1 1 0 0 0 0 0 4
Nghost:    862.625 ave 916 max 806 min
Histogram: 1 2 1 0 0 0 0 0 2 2
Neighs:    2730 ave 4222 max 580 min
Histogram: 2 0 0 2 0 0 0 0 0 4

Total # of neighbors = 21840
Ave neighs/atom = 135.652
Neighbor list builds = 0
Dangerous builds = 0

###
fix 1 all box/relax aniso 0.0
min_style cg
minimize 1.0e-8 1.0e-8 100000 100000
WARNING: Using 'neigh_modify every 1 delay 0 check yes' setting during minimization (../min.cpp:190)
WARNING: Total cutoff < 2*bond cutoff. May need to use an increased neighbor list skin. (../pair_reaxc.cpp:413)
Per MPI rank memory allocation (min/avg/max) = 22.39 | 23.37 | 24.36 Mbytes
Step Temp E_pair E_mol TotEng Press Volume 
     529            0   -29192.425            0   -29192.425    29309.446    3531.9023 
     582            0   -29201.244            0   -29201.244    2232.2639     3536.317 
Loop time of 0.729485 on 8 procs for 53 steps with 161 atoms

99.4% CPU use with 8 MPI tasks x no OpenMP threads

Minimization stats:
  Stopping criterion = linesearch alpha is zero
  Energy initial, next-to-last, final = 
        -29192.4245005     -29201.2435328     -29201.2435328
  Force two-norm initial, final = 3378.2 531.101
  Force max component initial, final = 2930.83 351.494
  Final line search alpha, max atom move = 3.39151e-14 1.19209e-11
  Iterations, force evaluations = 53 98

MPI task timing breakdown:
Section |  min time  |  avg time  |  max time  |%varavg| %total
---------------------------------------------------------------
Pair    | 0.56769    | 0.61144    | 0.64581    |   3.2 | 83.82
Neigh   | 0          | 0          | 0          |   0.0 |  0.00
Comm    | 0.0049194  | 0.03911    | 0.082737   |  12.7 |  5.36
Output  | 0.00020989 | 0.00025897 | 0.00038046 |   0.0 |  0.04
Modify  | 0.075491   | 0.075588   | 0.075698   |   0.0 | 10.36
Other   |            | 0.003083   |            |       |  0.42

Nlocal:    20.125 ave 32 max 4 min
Histogram: 2 0 1 1 0 0 0 0 0 4
Nghost:    863.875 ave 919 max 806 min
Histogram: 1 2 1 0 0 0 0 1 1 2
Neighs:    2731.62 ave 4224 max 578 min
Histogram: 2 0 0 2 0 0 0 0 0 4

Total # of neighbors = 21853
Ave neighs/atom = 135.733
Neighbor list builds = 0
Dangerous builds = 0

unfix 1
###
min_style cg
minimize 1.0e-8 1.0e-8 100000 100000
WARNING: Using 'neigh_modify every 1 delay 0 check yes' setting during minimization (../min.cpp:190)
WARNING: Total cutoff < 2*bond cutoff. May need to use an increased neighbor list skin. (../pair_reaxc.cpp:413)
Per MPI rank memory allocation (min/avg/max) = 22.39 | 23.37 | 24.36 Mbytes
Step Temp E_pair E_mol TotEng Press 
     582            0   -29201.244            0   -29201.244    2232.2639 
     659            0   -29204.997            0   -29204.997    29005.089 
Loop time of 5.01881 on 8 procs for 77 steps with 161 atoms

99.3% CPU use with 8 MPI tasks x no OpenMP threads

Minimization stats:
  Stopping criterion = energy tolerance
  Energy initial, next-to-last, final = 
        -29201.2435328      -29204.996971     -29204.9970494
  Force two-norm initial, final = 364.602 47.5479
  Force max component initial, final = 41.8752 8.04091
  Final line search alpha, max atom move = 0.00188 0.0151169
  Iterations, force evaluations = 77 621

MPI task timing breakdown:
Section |  min time  |  avg time  |  max time  |%varavg| %total
---------------------------------------------------------------
Pair    | 3.5847     | 3.8659     | 4.1059     |   8.6 | 77.03
Neigh   | 0          | 0          | 0          |   0.0 |  0.00
Comm    | 0.028828   | 0.26772    | 0.54797    |  32.6 |  5.33
Output  | 0.0002649  | 0.00033026 | 0.00049874 |   0.0 |  0.01
Modify  | 0.87727    | 0.87812    | 0.87899    |   0.1 | 17.50
Other   |            | 0.006719   |            |       |  0.13

Nlocal:    20.125 ave 32 max 4 min
Histogram: 2 0 1 1 0 0 0 0 0 4
Nghost:    862.75 ave 920 max 802 min
Histogram: 1 1 2 0 0 0 0 1 1 2
Neighs:    2728.88 ave 4223 max 579 min
Histogram: 2 0 0 2 0 0 0 0 0 4

Total # of neighbors = 21831
Ave neighs/atom = 135.596
Neighbor list builds = 0
Dangerous builds = 0

undump 1
#############
#----------- Thermo ------------
reset_timestep 0
thermo  200

thermo_style    custom step temp etotal ke pe press
velocity all create 300 12345 mom yes rot yes
fix 1 all npt temp 300 300 25.0 iso 0.0 0.0 250.0

variable vpe equal pe
variable vtemp equal temp
variable vstep equal step

fix output all print 2500 "${vstep} ${vtemp} ${vpe}" file temp-tpdh-Pt.dat screen no

dump 1 all custom 2500 thermo-tpdh-Pt.lammpstrj id type x y z

run 1000000
WARNING: Total cutoff < 2*bond cutoff. May need to use an increased neighbor list skin. (../pair_reaxc.cpp:413)
Per MPI rank memory allocation (min/avg/max) = 21.28 | 22.26 | 23.25 Mbytes
Step Temp TotEng KinEng PotEng Press 
       0          300   -29061.918    143.07888   -29204.997    30854.602 
     200    324.08734   -29088.119    154.56685   -29242.686     24801.11 
     400    345.68029   -29118.372    164.86516   -29283.237   -12234.907 
     600    286.34121   -29148.244     136.5646   -29284.809   -7825.6826 
     800    309.98431   -29141.451    147.84069   -29289.291    19767.331 
    1000    291.64353   -29119.323    139.09344   -29258.417    5326.5732 
    1200    269.21776   -29121.196    128.39792   -29249.594   -36490.847 
    1400    321.53295   -29102.379    153.34858   -29255.728     -16800.5 
    1600    291.34793   -29102.521    138.95246   -29241.473    13457.706 
    1800    280.42703   -29102.045    133.74396   -29235.789    13777.877 
    2000    316.98537    -29075.18    151.17971   -29226.359    598.83091 
    2200    295.01485   -29107.669    140.70132    -29248.37   -29862.268 
    2400    282.30774    -29084.25    134.64092   -29218.891    2778.0753 
    2600    279.99731   -29073.497    133.53901   -29207.036   -2077.5287 
    2800    331.51387   -29063.896    158.10878   -29222.005    10594.723 
    3000    299.31653    -29070.29    142.75292   -29213.043   -16518.835 
    3200    273.41655   -29084.616    130.40045   -29215.017    6097.7608 
    3400    306.49999   -29055.404    146.17892   -29201.583    26294.037 
    3600    306.54621   -29066.203    146.20097   -29212.404    815.73596 
    3800    251.82137   -29092.083    120.10107   -29212.184   -10103.424 
    4000    292.68712   -29075.607    139.59115   -29215.199   -12327.052 
    4200    328.57449   -29060.195     156.7069   -29216.902   -10238.841 
    4400    313.44635   -29060.839    149.49185   -29210.331   -5187.3151 
    4600    291.81316   -29094.592    139.17433   -29233.766   -20998.111 
    4800     321.4075   -29079.002    153.28875    -29232.29    16341.936 
    5000     338.0298   -29070.179    161.21642   -29231.395    4697.6778 
    5200    284.64052   -29092.234    135.75349   -29227.988    10350.224 
    5400    296.71869   -29111.277    141.51393   -29252.791    19811.072 
    5600    324.01955   -29084.598    154.53452   -29239.133   -9295.8051 
    5800    306.83709   -29101.703    146.33969   -29248.043    6876.4129 
    6000    274.43087   -29115.191    130.88421   -29246.075    28562.151 
    6200    299.04762   -29112.938    142.62466   -29255.562    10536.409 
    6400    284.02713   -29118.808    135.46095   -29254.269   -2809.8617 
    6600    271.76636   -29145.539    129.61342   -29275.152   -24665.104 
    6800    312.63289   -29109.875    149.10388   -29258.979    35311.859 
    7000    276.03467   -29103.982    131.64911   -29235.631     -14344.8 
    7200    314.45789   -29085.012    149.97428   -29234.986   -14746.492 
    7400     287.7198    -29097.04    137.22209   -29234.262    40880.115 
    7600    304.85786   -29117.024    145.39574   -29262.419    8531.5171 
    7800    294.66225   -29126.168    140.53315   -29266.701   -7547.0718 
    8000    269.34913   -29143.258    128.46058   -29271.718   -11783.996 
    8200     290.8637   -29109.809    138.72151    -29248.53    9027.4811 
    8400    315.30156   -29118.738    150.37665   -29269.114   -35484.126 
    8600    278.42319   -29145.573    132.78826   -29278.362   -17403.567 
    8800    294.04478   -29112.117    140.23866   -29252.356    35850.421 
    9000    309.96385   -29095.942    147.83094   -29243.773    401.08567 
    9200     330.7132   -29096.223    157.72692    -29253.95   -15431.245 
    9400    300.10242   -29129.647    143.12773   -29272.774    -15530.01 
    9600    291.95703   -29110.524    139.24295   -29249.767   -23868.226 
    9800    318.35402   -29100.758    151.83246    -29252.59   -8337.7511 
   10000    305.43082   -29136.377      145.669   -29282.046   -12186.562 
   10200    306.48114   -29112.085    146.16993   -29258.255    15871.754 
   10400    304.79637   -29128.242    145.36641   -29273.609   -3791.4072 
   10600    277.46474   -29136.925    132.33115   -29269.256    9714.1313 
   10800    304.08742   -29115.517    145.02829   -29260.545    17650.331 
   11000    292.38099   -29123.686    139.44515   -29263.131    10746.652 
   11200    283.40831   -29142.006    135.16581   -29277.172    42558.015 
   11400     293.5353   -29115.887    139.99568   -29255.883   -2033.4941 
   11600    293.55132   -29119.167    140.00332    -29259.17    35972.258 
   11800    271.16861   -29141.636    129.32834   -29270.965   -36723.907 
   12000    302.10866   -29109.306    144.08456   -29253.391    13109.468 
   12200     294.8142   -29097.988    140.60562   -29238.594    13157.008 
   12400     272.1446   -29093.977    129.79382   -29223.771   -5771.3728 
   12600     285.0757   -29117.297    135.96104   -29253.258    23891.944 
   12800    313.44303   -29098.303    149.49026   -29247.794     4656.154 
   13000    327.05999   -29086.808    155.98459   -29242.792    35244.436 
   13200    268.07238   -29117.555    127.85166   -29245.407    5261.7312 
   13400    324.68281   -29114.266    154.85085   -29269.117    24069.059 
   13600     315.6239   -29105.306    150.53038   -29255.837   -23429.829 
   13800    272.23388   -29133.178     129.8364   -29263.014    32461.643 
   14000    288.57462   -29102.105    137.62978   -29239.734    9331.8807 
   14200    282.35598   -29100.575    134.66393   -29235.239   -24793.442 
   14400    272.50977   -29129.033    129.96798   -29259.001    34931.102 
   14600     287.1345   -29108.024    136.94295   -29244.967   -21277.312 
   14800    296.21514   -29096.269    141.27377   -29237.542    2747.3424 
   15000    304.00938    -29096.25    144.99108   -29241.241   -12542.054 
   15200    312.83133   -29100.083    149.19852   -29249.282    23661.249 
   15400    270.69931   -29120.658    129.10452   -29249.762   -11898.862 
   15600    324.08451   -29088.739     154.5655   -29243.304   -7743.7375 
   15800    310.65712   -29093.582    148.16158   -29241.744    1606.2823 
   16000    285.65941   -29110.501    136.23943    -29246.74   -35103.807 
   16200    263.41865   -29115.361    125.63215   -29240.993   -47.503593 
   16400    300.11606   -29090.634    143.13424   -29233.768    1600.0355 
   16600    280.95737   -29101.773    133.99689    -29235.77   -18602.951 
   16800    314.40159    -29072.73    149.94743   -29222.678   -260.44609 
   17000    320.02391   -29101.021    152.62888   -29253.649    14081.813 
   17200    295.54799   -29096.646    140.95559   -29237.602    30358.899 
   17400    345.41673   -29073.984    164.73947   -29238.724   -18724.886 
   17600    297.51942   -29088.066    141.89582   -29229.962   -968.39449 
   17800    329.02051   -29087.188    156.91962   -29244.107   -15337.492 
   18000    277.56204    -29114.06    132.37756   -29246.437    1509.2567 
   18200    323.24035   -29090.077    154.16289    -29244.24   -34026.406 
   18400    307.05903   -29085.989    146.44554   -29232.435   -3951.8817 
   18600    292.73173   -29109.561    139.61243   -29249.173     5964.016 
   18800    263.93855   -29129.857    125.88011   -29255.737    8649.2754 
   19000    297.27777     -29095.1    141.78057    -29236.88   -9087.7821 
   19200    297.34006   -29093.391    141.81028   -29235.201    8876.4442 
   19400    292.65778   -29122.867    139.57716   -29262.444   -28562.169 
   19600    273.13337   -29104.112    130.26539   -29234.378    4420.5545 
   19800    321.86942   -29104.909    153.50906   -29258.418    -24395.68 
   20000    302.46047   -29111.864    144.25235   -29256.117   -6620.9404 
   20200    301.58595   -29103.625    143.83527    -29247.46    2658.5782 
   20400     325.3689   -29101.333    155.17806   -29256.511    12928.934 
   20600    315.68197   -29130.072    150.55808    -29280.63   -9186.1198 
   20800    303.69653   -29104.903    144.84186   -29249.745    10157.161 
   21000    289.95971   -29109.278    138.29037   -29247.569    -16922.82 
   21200    291.67436   -29126.764    139.10814   -29265.872   -6124.7882 
   21400    292.33609    -29119.16    139.42374   -29258.584    1530.6137 
   21600    307.26461   -29100.717    146.54359   -29247.261   -10911.286 
   21800    263.22176   -29124.981    125.53825   -29250.519   -10973.674 
   22000     304.2876   -29098.193    145.12377   -29243.317    -4260.192 
   22200     330.3003    -29111.21    157.52999    -29268.74    25372.199 
   22400    282.64896   -29129.366    134.80366    -29264.17    -20588.87 
   22600     314.7287   -29125.025    150.10343   -29275.129   -8964.9442 
   22800    312.68143   -29097.367    149.12703   -29246.494   -16356.901 
   23000    309.15771   -29126.587    147.44647   -29274.034   -20938.028 
   23200    281.61466   -29123.798    134.31037   -29258.108    2437.1533 
   23400    306.67769   -29113.036    146.26367     -29259.3    22614.334 
   23600    327.69824    -29096.39    156.28899   -29252.679    20838.601 
   23800    295.20187    -29127.11    140.79051     -29267.9    12766.171 
   24000    304.91996   -29105.137    145.42536   -29250.562    12681.206 
   24200    288.63048   -29102.421    137.65642   -29240.078   -16476.895 
   24400    287.41312   -29125.984    137.07583    -29263.06    23396.339 
   24600    291.23182   -29117.894    138.89708   -29256.791   -3281.3181 
   24800    305.22066   -29107.832    145.56877   -29253.401    -8780.373 
   25000    330.89736   -29084.021    157.81475   -29241.835    31425.628 
   25200    298.91615   -29102.445    142.56196   -29245.007   -3300.9975 
   25400    315.48048    -29115.97    150.46198   -29266.432    -21656.45 
   25600    302.02545   -29092.263    144.04488   -29236.308   -12992.781 
   25800    281.17707   -29115.634    134.10167   -29249.735    12347.786 
   26000    310.02629   -29119.117    147.86072   -29266.978   -1783.9477 
   26200    322.06551   -29095.494    153.60258   -29249.097   -26074.994 
   26400      279.341   -29130.525      133.226   -29263.751    28231.086 
   26600     296.3016   -29116.824    141.31501   -29258.139   -66945.886 
   26800    303.79166   -29095.948    144.88724   -29240.835   -302.67038 
   27000      317.373    -29068.41    151.36458   -29219.775   -27006.333 
   27200    304.11194   -29102.011    145.03999   -29247.051   -2082.1402 
   27400    311.95814   -29109.272    148.78207   -29258.054    7106.7414 
   27600    279.45953   -29140.271    133.28252   -29273.554   -3828.1422 
   27800    310.49234   -29118.091    148.08299   -29266.174    59888.422 
   28000    311.14434   -29114.972    148.39395   -29263.366     24770.21 
   28200    307.59333   -29092.443    146.70037   -29239.144    -485.8435 
   28400     304.9638   -29087.709    145.44626   -29233.156   -9617.8793 
   28600    280.03644   -29100.127    133.55767   -29233.685   -29940.246 
   28800    309.21191   -29074.536    147.47232   -29222.008   -5162.7031 
   29000     311.6957   -29068.071    148.65691   -29216.728     38371.94 
   29200    289.36596   -29091.033    138.00719    -29229.04   -11977.949 
   29400    283.47405   -29098.743    135.19717    -29233.94   -8346.9569 
   29600    347.62629   -29069.736    165.79327   -29235.529   -9321.8167 
   29800    282.07452   -29093.988    134.52969   -29228.518   -24708.277 
   30000     295.4483   -29095.129    140.90804   -29236.037   -11414.125 
   30200     310.0836   -29103.558    147.88805   -29251.446    22170.103 
   30400    279.17258   -29112.446    133.14567   -29245.592    8316.3458 
   30600     327.2276   -29084.869    156.06453   -29240.933   -37023.485 
   30800    293.74719   -29104.144    140.09673   -29244.241     28681.79 
   31000    295.66073   -29108.243    141.00936   -29249.253   -5537.7012 
   31200     300.4014   -29104.822    143.27032   -29248.092    7706.0888 
   31400     315.2199   -29109.498     150.3377   -29259.836    11153.478 
   31600    302.92314   -29110.878    144.47301   -29255.351    31177.142 
   31800    288.60441   -29111.232    137.64399   -29248.876   -2436.1336 
   32000     315.7602   -29111.638    150.59539   -29262.233     10529.75 
   32200    314.87367   -29090.651    150.17257   -29240.823   -493.75457 
   32400    302.24554   -29103.221    144.14985   -29247.371    1374.0512 
   32600    297.41119   -29119.237     141.8442   -29261.081    56484.262 
   32800    311.18853   -29101.158    148.41503   -29249.573    3414.4437 
   33000    300.96749   -29135.361    143.54031   -29278.901    4413.1348 
   33200    305.41361   -29127.797    145.66079   -29273.457     24222.41 
   33400     327.0065   -29108.306    155.95908   -29264.265    3052.9474 
   33600    282.54288   -29144.223    134.75307   -29278.976     23151.56 
   33800    323.28911   -29119.404    154.18615    -29273.59   -12796.025 
   34000    300.54049   -29130.574    143.33666    -29273.91    19810.465 
   34200    286.84689   -29139.248    136.80578   -29276.054   -8355.5855 
   34400    302.49103   -29117.802    144.26693   -29262.069   -6977.8271 
   34600    315.70583   -29101.548    150.56946   -29252.117    22651.536 
   34800     328.2394       -29092    156.54709   -29248.547   -31919.494 
   35000    290.04415   -29123.178    138.33064   -29261.509    15955.902 
   35200    320.99727   -29104.372     153.0931   -29257.465   -52400.949 
   35400    323.31205   -29089.214    154.19709   -29243.411   -25845.486 
   35600    273.71149   -29122.178    130.54111   -29252.719    1993.4037 
   35800    315.68566   -29102.094    150.55984   -29252.654    7935.9307 
   36000    289.61761   -29114.124    138.12721   -29252.251    40086.974 
   36200    303.70018   -29124.617    144.84361   -29269.461    15290.974 
   36400    307.62393       -29098    146.71496   -29244.715   -25347.723 
   36600    304.15625   -29109.977    145.06112   -29255.039   -25297.593 
   36800    294.78742   -29123.859    140.59285   -29264.452    50127.778 
   37000    305.57287   -29124.821    145.73675   -29270.557    -14240.42 
   37200    280.30849   -29094.364    133.68742   -29228.051   -22747.871 
   37400    314.22141   -29112.002    149.86149   -29261.864    26460.915 
   37600    312.06382   -29122.005    148.83247   -29270.838    23680.985 
   37800    301.60972   -29098.448    143.84661   -29242.294    25321.642 
   38000    301.63353   -29111.434    143.85796   -29255.292   -26126.498 
   38200    272.88484   -29121.944    130.14686   -29252.091    18348.466 
   38400    316.40877   -29092.017    150.90471   -29242.922   -19631.269 
   38600    289.39341   -29098.204    138.02028   -29236.224   -46385.266 
   38800    289.63845   -29120.825    138.13715   -29258.962    1025.7842 
   39000    305.05679   -29097.281    145.49062   -29242.772    18597.465 
   39200    306.31159   -29088.967    146.08907   -29235.056     -3883.94 
   39400    288.18767   -29111.743    137.44523   -29249.189    7234.8691 
   39600    268.73427   -29105.942    128.16733   -29234.109    5737.4119 
   39800    303.44862   -29089.694    144.72363   -29234.417   -19415.824 
   40000    280.43954   -29106.598    133.74992   -29240.348    30065.724 
   40200    293.02232   -29119.255    139.75102   -29259.006    24884.549 
   40400    329.45331   -29087.363    157.12604   -29244.489   -4057.9694 
   40600    282.60683   -29104.685    134.78356   -29239.469    12115.741 
   40800    284.92755   -29118.194    135.89038   -29254.085    32913.962 
   41000    328.75699   -29083.753    156.79394   -29240.547   -7239.9095 
   41200    303.75687   -29108.936    144.87065   -29253.806   -41437.425 
   41400    298.24024    -29099.89     142.2396    -29242.13     6076.059 
   41600    339.21062    -29082.52    161.77959     -29244.3   -2954.0997 
   41800    284.26228   -29104.513     135.5731   -29240.086   -28244.788 
   42000    295.20479   -29099.869     140.7919   -29240.661    4212.3938 
   42200    286.93622   -29116.804    136.84838   -29253.652    7704.7674 
   42400    265.07811   -29112.151     126.4236   -29238.574     3797.503 
   42600    315.19685   -29093.877    150.32671   -29244.204    4705.6856 
   42800    280.08478   -29115.245    133.58072   -29248.826   -19744.257 
   43000    263.35536   -29138.422    125.60197   -29264.024    10154.797 
   43200    289.97159   -29100.255    138.29604   -29238.551    6249.1208 
   43400    299.11839   -29096.443    142.65842   -29239.101   -22103.449 
   43600    296.79687   -29107.839    141.55121    -29249.39   -29132.963 
   43800    317.58795   -29091.783     151.4671    -29243.25   -17307.892 
   44000    324.61632   -29092.063    154.81913   -29246.882   -20742.899 
   44200    288.53541   -29111.964    137.61108   -29249.575    6736.1867 
   44400    304.76129   -29093.607    145.34968   -29238.957   -15146.551 
   44600     313.0586   -29071.161    149.30692   -29220.468   -5546.0001 
   44800     311.5096   -29093.452    148.56815    -29242.02    -3970.963 
   45000     303.2976   -29107.855    144.65161   -29252.506     44542.58 
   45200    297.19164   -29096.845    141.73949   -29238.584    18689.135 
   45400    318.77683   -29079.336    152.03411    -29231.37   -7841.2068 
   45600    290.18374   -29106.817    138.39722   -29245.214   -4774.9495 
   45800    313.89964   -29103.376    149.70803   -29253.084    4055.1378 
   46000    300.20268   -29086.033    143.17555   -29229.208    9647.9624 
   46200    288.63899   -29116.096    137.66048   -29253.757   -6935.0427 
   46400    282.94643   -29117.894    134.94553   -29252.839    14852.262 
   46600    319.98711   -29086.553    152.61133   -29239.165    -14029.49 
   46800    311.50483   -29109.116    148.56588   -29257.682   -44549.426 
   47000    286.99368   -29129.257    136.87578   -29266.133   -19707.586 
   47200    310.59981   -29113.622    148.13425   -29261.756    13105.196 
   47400    321.90984    -29105.85    153.52833   -29259.378   -22039.161 
   47600    296.19772   -29126.881    141.26546   -29268.146    -13049.44 
   47800    304.96251   -29114.358    145.44565   -29259.804   -20457.386 
   48000    273.61915   -29112.914    130.49708   -29243.411    17968.828 
   48200    270.95163   -29138.329    129.22485   -29267.554   -1610.4578 
   48400    305.55664    -29109.09    145.72901   -29254.819   -18414.395 
   48600     295.2508   -29121.352    140.81385   -29262.166     20889.28 
   48800    290.46394   -29127.325    138.53085   -29265.856   -28165.045 
   49000    320.02821   -29095.778    152.63093   -29248.409    2423.8524 
   49200    288.67047   -29121.495    137.67549   -29259.171    29260.283 
   49400    300.62975   -29117.894    143.37923   -29261.273    13232.524 
   49600     316.0371   -29103.661    150.72745   -29254.389    4679.4495 
   49800    286.78345   -29091.544    136.77552    -29228.32    17769.988 
   50000    329.34927   -29082.712    157.07642   -29239.789   -7038.3802 
   50200    303.51291   -29108.485     144.7543   -29253.239   -11139.861 
   50400    307.94908   -29089.087    146.87003   -29235.957     11342.37 
   50600    346.48602   -29065.407    165.24944   -29230.656   -2126.4106 
   50800    320.37945   -29101.046    152.79845   -29253.845   -15351.173 
   51000    289.49486   -29116.461    138.06867    -29254.53    38026.549 
   51200    321.21684   -29100.685    153.19782   -29253.883   -6443.5175 
   51400    318.82959   -29095.163    152.05927   -29247.222   -33360.354 
   51600    294.29401   -29113.975    140.35753   -29254.333   -16419.479 
   51800     292.8706   -29113.158    139.67866   -29252.836    28987.783 
   52000    346.31353   -29112.056    165.16718   -29277.224   -30428.089 
   52200    299.84244   -29117.606    143.00374    -29260.61    6571.5789 
   52400    310.95039   -29101.615    148.30145   -29249.916   -17471.087 
   52600    290.05041   -29106.278    138.33363   -29244.611   -6844.7476 
   52800    270.83201   -29120.998     129.1678   -29250.166    -7258.764 
   53000    288.08384   -29099.659    137.39571   -29237.055    32256.799 
   53200    313.60174   -29091.033    149.56595   -29240.599    5832.0055 
   53400    306.57714   -29094.899    146.21572   -29241.114   -28467.386 
   53600    281.45941   -29126.217    134.23632   -29260.453    11923.252 
   53800    337.16873   -29103.863    160.80575   -29264.669   -44593.185 
   54000    310.20054    -29124.34    147.94382   -29272.284    24881.175 
   54200    298.81138   -29129.297    142.51199   -29271.809   -735.21931 
   54400    306.15723   -29112.943    146.01545   -29258.959   -910.66448 
   54600    299.62103    -29126.57    142.89814   -29269.468   -16842.404 
   54800    288.73902   -29131.956    137.70819   -29269.664   -3281.0673 
   55000     311.0157    -29109.77    148.33259   -29258.103    7234.5985 
   55200    313.77085   -29117.006    149.64661   -29266.653    -22132.27 
   55400     277.8251   -29125.049    132.50301   -29257.552    40634.515 
   55600      327.907   -29097.781    156.38856   -29254.169     47982.14 
   55800    299.15732   -29110.805    142.67698   -29253.482   -13555.435 
   56000    309.90257   -29125.191    147.80171   -29272.992    26427.303 
   56200    306.30086   -29100.143    146.08395   -29246.226    50378.798 
   56400    314.68336   -29104.935    150.08181   -29255.016    17396.505 
   56600    267.35874    -29137.09     127.5113   -29264.601    19936.807 
   56800    307.37495   -29110.772    146.59621   -29257.368    12280.382 
   57000     329.2091   -29111.176    157.00957   -29268.186   -12879.382 
   57200    278.85266   -29145.259    132.99309   -29278.253    12445.549 
   57400    290.90061   -29121.434    138.73911   -29260.173   -20081.806 
   57600    296.96171   -29113.486    141.62983   -29255.116   -5915.8995 
   57800    280.91654   -29145.168    133.97742   -29279.146   -7369.1974 
   58000    303.94738   -29122.695     144.9615   -29267.657   -5399.2935 
   58200    295.73037   -29111.855    141.04257   -29252.897   -11148.958 
   58400     323.1722   -29115.072    154.13039   -29269.202    4914.0714 
   58600    265.72697   -29133.594    126.73306   -29260.327    24365.719 
   58800    306.58501   -29101.689    146.21947   -29247.908    2129.6722 
   59000    259.58712   -29104.922    123.80478   -29228.727    12046.887 
   59200    307.65483   -29120.031     146.7297   -29266.761    18413.448 
   59400    276.76237   -29095.642    131.99617   -29227.639   -25922.804 
   59600    331.79595   -29091.042    158.24331   -29249.285   -11170.416 
   59800    270.40175   -29124.122     128.9626   -29253.085    -2747.809 
   60000    276.31891   -29097.582    131.78467   -29229.366    9614.6261 
   60200    295.95876   -29095.265    141.15149   -29236.417   -13335.041 
   60400    292.93804   -29116.412    139.71083   -29256.123    2608.5324 
   60600    322.46908   -29089.366    153.79505   -29243.161     -5396.19 
   60800    316.27306   -29094.937    150.83999   -29245.777   -17514.178 
   61000     282.4119   -29111.294     134.6906   -29245.985   -15639.012 
   61200    305.49191   -29094.755    145.69813   -29240.454   -13649.615 
   61400    306.91773   -29085.149    146.37815   -29231.527    5558.9789 
   61600    292.98752   -29114.825    139.73442    -29254.56   -3279.9442 
   61800    305.72934   -29106.919    145.81137    -29252.73    41345.376 
   62000    325.95844   -29087.173    155.45923   -29242.633   -23884.736 
   62200    302.60658    -29107.65    144.32204   -29251.972    15477.282 
   62400    285.29384   -29119.085    136.06508    -29255.15   -16754.617 
   62600    312.85308   -29093.562     149.2089   -29242.771    -23695.56 
   62800    311.93889   -29112.856    148.77289   -29261.629   -22625.627 
   63000    293.57713   -29114.806    140.01563   -29254.821   -13253.967 
   63200      334.292   -29084.089    159.43375   -29243.523    22187.986 
   63400    298.66649   -29110.145    142.44289   -29252.588    3841.3558 
   63600    277.40177   -29105.137    132.30112   -29237.438    16995.886 
   63800    330.80873   -29077.753    157.77248   -29235.526    5971.4572 
   64000     292.2146   -29102.924     139.3658    -29242.29   -11888.327 
   64200    300.84658    -29101.92    143.48264   -29245.403    -6694.866 
   64400    297.43373   -29118.998    141.85495   -29260.853    5060.2059 
   64600     290.1995   -29116.494    138.40474   -29254.899    14564.758 
   64800    303.74533   -29099.786    144.86514   -29244.651    -19059.11 
   65000    294.37105   -29114.276    140.39427    -29254.67   -3475.6314 
   65200    276.70331   -29128.368      131.968   -29260.336    3539.2028 
   65400    303.25065   -29103.657    144.62921   -29248.286    15357.109 
   65600    307.00004   -29102.793    146.41741   -29249.211    16823.144 
   65800    261.01528    -29125.36    124.48592   -29249.846   -5151.8648 
   66000    291.20151   -29106.858    138.88262    -29245.74    19116.728 
   66200    317.12465    -29097.03    151.24614   -29248.276   -4958.2266 
   66400    260.14469   -29128.557    124.07071   -29252.628    28650.331 
   66600    310.35192   -29102.369    148.01602   -29250.385    -27047.67 
   66800    310.50791   -29100.041    148.09042   -29248.131   -5841.1873 
   67000    314.60279   -29107.699    150.04339   -29257.742   -36143.889 
   67200    282.71668   -29112.523    134.83595   -29247.359   -1944.6021 
   67400    285.00651   -29118.925    135.92804   -29254.853    13482.936 
   67600    323.82891    -29089.56     154.4436   -29244.004   -24623.585 
   67800    277.72178   -29116.967    132.45374   -29249.421   -28067.624 
   68000    295.50048   -29113.862    140.93293   -29254.795    -42382.22 
   68200    308.50978   -29092.265    147.13745   -29239.403    9943.5266 
   68400      272.026   -29123.668    129.73725   -29253.405   -26272.921 
   68600    300.27017   -29109.225    143.20774   -29252.432   -13994.989 
   68800    281.18221   -29101.271    134.10412   -29235.375   -29058.573 
   69000    286.61205   -29093.502    136.69377   -29230.196    22170.328 
   69200    314.91261   -29076.783    150.19115   -29226.974    36389.512 
   69400    318.51089   -29109.929    151.90727   -29261.836   -376.37285 
   69600    311.37622   -29120.493    148.50454   -29268.998    14684.086 
   69800    287.83274   -29138.018    137.27595   -29275.294   -11777.936 
   70000    315.97651   -29106.529    150.69855   -29257.228     -9457.66 
   70200    319.26053   -29115.407     152.2648   -29267.671    47918.454 
   70400     254.7119    -29145.28    121.47965   -29266.759   -25867.085 
   70600    303.41153   -29113.426    144.70594   -29258.132    1644.8354 
   70800    295.80415   -29101.288    141.07775   -29242.366   -18806.714 
   71000    299.59707   -29128.441    142.88671   -29271.328    -5422.096 
   71200    313.07613   -29113.778    149.31528   -29263.093    23217.972 
   71400     295.8463   -29101.418    141.09786   -29242.516    16055.922 
   71600    283.78527     -29107.6     135.3456   -29242.945    5101.7388 
   71800    308.10376   -29101.736    146.94381    -29248.68     24727.51 
   72000    314.12346   -29111.417    149.81478   -29261.231   -24622.169 
   72200    286.48899   -29121.497    136.63508   -29258.132   -16015.981 
   72400    319.38648   -29088.475    152.32487     -29240.8   -1312.0279 
   72600    283.98589   -29111.911    135.44128   -29247.353    17343.914 
   72800    282.57155   -29116.902    134.76674   -29251.669     11950.08 
   73000    315.08277     -29085.7     150.2723   -29235.972   -32143.987 
   73200    298.29302   -29110.905    142.26477   -29253.169    27401.632 
   73400    314.25606    -29102.02    149.87802   -29251.898   -2560.0408 
   73600    308.28224   -29082.919    147.02893   -29229.947    -15764.64 
   73800    283.61883    -29109.03    135.26622   -29244.296     5516.229 
   74000     294.8616    -29101.46    140.62823   -29242.089   -33973.791 
   74200    307.59092   -29081.409    146.69922   -29228.109    31940.642 
   74400    289.12755   -29107.457    137.89349   -29245.351    -38321.96 
   74600    308.19041   -29101.651    146.98513   -29248.636    3436.9287 
   74800    323.27439   -29077.447    154.17913   -29231.626   -12828.763 
   75000    304.43087   -29113.415    145.19209   -29258.607    6939.3832 
   75200     288.1044   -29109.293    137.40552   -29246.699    6746.2505 
   75400     324.9801    -29082.09    154.99263   -29237.083    890.80219 
   75600    281.22951   -29117.513    134.12668    -29251.64   -27446.975 
   75800    317.29139   -29107.226    151.32566   -29258.551   -15648.921 
   76000    318.92087   -29086.981    152.10281   -29239.083   -36686.154 
   76200    314.87217   -29114.356    150.17186   -29264.528   -56059.803 
   76400    286.67168   -29111.061    136.72221   -29247.783    23570.866 
   76600    330.71257    -29087.46    157.72662   -29245.187    47529.948 
   76800    290.64113   -29107.946    138.61536   -29246.562    4570.5321 
   77000    289.05913   -29118.345    137.86086   -29256.206    7434.1272 
   77200    313.15979   -29089.823    149.35517   -29239.178   -13549.037 
   77400    299.39874   -29110.283    142.79212   -29253.075   -3723.5432 
   77600    308.74765   -29115.691    147.25089   -29262.942   -44544.168 
   77800    289.94149   -29107.523    138.28168   -29245.805    30522.175 
   78000    295.84555   -29115.442     141.0975    -29256.54     7336.991 
   78200    314.36295   -29105.339      149.929   -29255.268     14824.16 
   78400    300.52239   -29093.568    143.32803   -29236.896    14626.529 
   78600    290.71909   -29124.294    138.65254   -29262.947    -28579.32 
   78800    307.78942    -29104.68    146.79389   -29251.474     -39038.5 
   79000    274.14595   -29110.677    130.74832   -29241.425    41746.547 
   79200    295.66916   -29129.678    141.01338   -29270.691   -11028.954 
   79400    297.18422   -29106.574    141.73596    -29248.31   -5126.6394 
   79600    269.23368   -29121.821    128.40551   -29250.226    4277.9196 
   79800    264.34582   -29145.862    126.07435   -29271.936   -9234.5606 
   80000    333.83896   -29107.606    159.21768   -29266.824    6768.9668 
   80200    289.00878   -29128.424    137.83684    -29266.26   -24964.465 
   80400    310.21697    -29127.07    147.95166   -29275.021    5383.8014 
   80600    327.58891   -29100.591    156.23685   -29256.828    -14040.12 
   80800    282.31018   -29125.199    134.64209   -29259.841   -31652.422 
   81000    318.27223   -29116.067    151.79345   -29267.861    9145.7277 
   81200    315.40103   -29095.083    150.42409   -29245.507    1404.0684 
   81400    296.73011   -29112.085    141.51937   -29253.604    6368.0707 
   81600    295.86962     -29124.1    141.10898   -29265.209   -11926.509 
   81800    277.61313   -29148.838    132.40192    -29281.24   -1119.4612 
   82000    333.13712   -29116.916    158.88296   -29275.799   -21933.971 
   82200    302.78361   -29125.208    144.40647   -29269.614    14209.868 
   82400    267.48884   -29134.306    127.57335    -29261.88   -2554.9121 
   82600    306.50098   -29103.343    146.17939   -29249.523   -6689.7709 
   82800    293.77518   -29125.766    140.11008   -29265.876    27807.919 
   83000     306.7027   -29109.074     146.2756    -29255.35    6415.2338 
   83200    316.60844   -29102.047    150.99994   -29253.047    18027.369 
   83400    291.11005    -29122.28      138.839   -29261.119   -13537.873 
   83600    312.38216   -29087.968     148.9843   -29236.952   -11669.638 
   83800    304.75777   -29110.768      145.348   -29256.116   -3741.0063 
   84000    276.73783   -29117.376    131.98447    -29249.36   -5382.1032 
   84200    287.80394   -29114.752    137.26222   -29252.014   -9699.5647 
   84400    292.23348   -29119.411     139.3748   -29258.785    30232.479 
   84600    297.02795   -29134.967    141.66142   -29276.629   -2249.4077 
   84800    292.66733   -29098.862    139.58171   -29238.444   -6832.4835 
   85000     283.1252   -29117.131    135.03079   -29252.162   -27267.069 
   85200    324.22964   -29112.217    154.63472   -29266.852    3179.9968 
   85400    289.15615   -29085.698    137.90713   -29223.605    35541.221 
   85600    303.40215   -29116.899    144.70147     -29261.6   -3978.9048 
   85800    275.75105   -29115.295    131.51384   -29246.809    40189.439 
   86000    326.44532   -29086.453    155.69144   -29242.145   -2528.6515 
   86200     290.8328   -29109.323    138.70677   -29248.029    9007.4876 
   86400    289.41289   -29117.876    138.02958   -29255.906    2290.3924 
   86600    335.55928   -29088.694    160.03815   -29248.732    43699.783 
   86800    282.68243   -29118.105    134.81962   -29252.925    -21935.48 
   87000    306.42175    -29110.95     146.1416   -29257.092    7971.9769 
   87200    306.14969   -29097.423    146.01185   -29243.435    14985.404 
   87400    283.13073   -29130.295    135.03343   -29265.329    1974.2229 
   87600      306.659   -29104.728    146.25475   -29250.982   -19154.746 
   87800    309.11197   -29103.169    147.42465   -29250.593   -518.39994 
   88000    312.99714   -29110.793     149.2776   -29260.071    8644.7146 
   88200    259.91159   -29119.509    123.95953   -29243.468    25268.051 
   88400    316.95472   -29090.842    151.16509   -29242.007   -22840.559 
   88600    267.80498   -29118.386    127.72412    -29246.11    11720.949 
   88800     260.9824   -29118.372    124.47023   -29242.843    55261.713 
   89000    326.13568   -29098.426    155.54376    -29253.97    29485.966 
   89200    304.40062   -29101.445    145.17767   -29246.623   -27609.543 
   89400    291.79958   -29118.561    139.16786   -29257.728   -13194.125 
   89600    319.39568   -29104.241    152.32926   -29256.571    -15255.81 
   89800    301.07742   -29094.873    143.59273   -29238.466    24089.701 
   90000    309.29708   -29109.502    147.51294   -29257.015   -25512.687 
   90200    263.70139   -29119.847      125.767   -29245.614   -36631.758 
   90400    281.65618   -29135.319    134.33017    -29269.65    23201.673 
   90600    336.33821   -29102.127    160.40965   -29262.536    -7236.249 
   90800    285.55462   -29121.233    136.18945   -29257.422   -26484.836 
   91000    288.66988   -29126.239    137.67521   -29263.914    733.29515 
   91200    303.68453   -29094.982    144.83614   -29239.818    13844.862 
   91400    255.00836   -29118.654    121.62104   -29240.275    45385.154 
   91600    304.50327   -29109.926    145.22663   -29255.153    4727.8262 
   91800    332.36092   -29092.597    158.51276    -29251.11    25776.183 
   92000    263.73252   -29120.331    125.78185   -29246.113    28216.786 
   92200     305.6908   -29095.434    145.79299   -29241.227   -19221.419 
   92400    333.78973   -29095.652    159.19421   -29254.847    3022.6056 
   92600    292.72642   -29115.952    139.60989   -29255.562    20542.435 
   92800    309.63814   -29096.068     147.6756   -29243.744   -10226.183 
   93000    345.08294   -29072.559    164.58027   -29237.139     26491.38 
   93200    318.21049   -29102.124      151.764   -29253.888     15550.63 
   93400    280.34543   -29122.668    133.70504   -29256.373    9596.8526 
   93600    326.17737   -29088.548    155.56365   -29244.111   -14350.943 
   93800    309.42822   -29104.705    147.57548    -29252.28   -6720.0403 
   94000    291.50503   -29119.015    139.02738   -29258.042    16494.396 
   94200    308.20085   -29099.146    146.99011   -29246.137   -5211.3333 
   94400    305.23984   -29091.828    145.57792   -29237.406    815.78005 
   94600    298.74695   -29115.397    142.48126   -29257.878    3419.3339 
   94800    288.45894   -29123.003    137.57461   -29260.577    24125.784 
   95000    315.91961   -29094.541    150.67142   -29245.213   -29214.175 
   95200    298.80131   -29102.859    142.50719   -29245.366    20460.842 
   95400    262.98462   -29118.109    125.42515   -29243.535    27213.851 
   95600    301.74351   -29096.429    143.91041   -29240.339    6652.6057 
   95800    322.36337   -29088.866    153.74464    -29242.61    7690.3728 
   96000    288.66982   -29124.322    137.67518   -29261.997    36948.281 
   96200    314.49827   -29103.835    149.99353   -29253.828   -27882.993 
   96400    325.17011   -29089.647    155.08325   -29244.731   -39304.047 
   96600    280.12284   -29122.523    133.59888   -29256.121   -12968.507 
   96800    279.83854    -29120.97    133.46329   -29254.434    3360.1784 
   97000    328.95532   -29095.876    156.88853   -29252.764    13788.668 
   97200    287.58926   -29111.801    137.15983   -29248.961    20695.594 
   97400    322.38695   -29113.054    153.75588    -29266.81    3424.6741 
   97600    307.44777   -29112.701    146.63095   -29259.332    53469.563 
   97800    317.28099   -29084.562     151.3207   -29235.882   -10665.353 
   98000    274.16135   -29112.072    130.75567   -29242.828     3661.637 
   98200    318.47876   -29106.556    151.89195   -29258.448    6828.2732 
   98400    300.98417   -29087.366    143.54826   -29230.914    21314.432 
   98600    294.03002   -29117.283    140.23162   -29257.515     3728.235 
   98800    289.16306   -29106.255    137.91043   -29244.165   -26468.734 
   99000    329.16373   -29092.072    156.98793    -29249.06   -20424.942 
   99200    297.73784   -29105.324    141.99999   -29247.324   -12610.331 
   99400    308.08725   -29109.044    146.93593    -29255.98    22930.565 
   99600     302.1096   -29110.084    144.08501   -29254.169    11460.348 
   99800    312.93244   -29106.318    149.24674   -29255.565   -57359.054 
  100000    299.59426   -29131.017    142.88537   -29273.902     55016.99 
  100200    306.08803   -29114.805    145.98245   -29260.787     6218.167 
  100400    321.31576   -29100.001      153.245   -29253.246   -6089.3714 
  100600    279.95548   -29130.319    133.51906   -29263.838   -8359.5289 
  100800    286.62003   -29111.003    136.69758     -29247.7   -3002.5289 
  101000    328.15886   -29104.155    156.50868   -29260.664    3668.9031 
  101200    294.09326   -29115.722    140.26178   -29255.984   -6680.0684 
  101400    312.45425   -29110.212    149.01868   -29259.231   -22081.965 
  101600      330.578   -29089.792    157.66243   -29247.455    3611.9221 
  101800    293.10219   -29125.833    139.78911   -29265.622    30212.985 
  102000    303.56598    -29116.05    144.77961   -29260.829     6290.559 
  102200    332.37156   -29092.375    158.51784   -29250.893    26904.217 
  102400     308.1668   -29124.501    146.97387   -29271.475    -23095.95 
  102600    285.03238   -29128.031    135.94038   -29263.972   -11495.753 
  102800    301.81824   -29098.336    143.94606   -29242.282    -20656.35 
  103000    282.53839   -29126.495    134.75092   -29261.246    11451.805 
  103200     272.1542   -29121.269     129.7984   -29251.068   -45542.582 
  103400    326.33936   -29103.906     155.6409   -29259.547    4627.8526 
  103600    286.58307   -29134.476    136.67995   -29271.156    15209.039 
  103800     307.2781   -29122.465    146.55002   -29269.015   -14687.425 
  104000    288.51785   -29108.911     137.6027   -29246.513   -2426.8741 
  104200    292.26625   -29122.646    139.39043   -29262.036    -14063.94 
  104400    257.47951   -29150.428     122.7996   -29273.227    2270.7849 
  104600    319.35408   -29111.297    152.30942   -29263.607   -16710.787 
  104800    328.66879   -29107.876    156.75188   -29264.628   -59598.997 
  105000    301.95079   -29114.373    144.00927   -29258.382   -31184.974 
  105200    281.68162   -29118.693    134.34231   -29253.035     28783.43 
  105400    328.07093   -29088.607    156.46674   -29245.073    4203.2329 
  105600    290.15846   -29111.343    138.38516   -29249.728    8486.4283 
  105800    316.34604   -29112.319    150.87479   -29263.194   -16212.022 
  106000    296.88063    -29106.99    141.59116   -29248.581    22153.173 
  106200    308.33147   -29100.683    147.05241   -29247.735   -37452.019 
  106400    280.05302   -29128.971    133.56558   -29262.537    14883.567 
  106600     308.5033    -29105.06    147.13436   -29252.194   -5120.2932 
  106800    324.28425   -29102.071    154.66076   -29256.732    9418.8274 
  107000    291.00995   -29124.216    138.79126   -29263.007   -6146.5495 
  107200    292.15031   -29113.418    139.33514   -29252.753    54850.022 
  107400    337.08067   -29096.576    160.76375    -29257.34    -12869.88 
  107600    298.31106   -29127.581    142.27338   -29269.854    7237.6436 
  107800    294.38165   -29121.795    140.39932   -29262.194    -26645.76 
  108000    297.52596   -29107.067    141.89894   -29248.966    6625.1454 
  108200    303.47238   -29084.107    144.73497   -29228.842   -16998.574 
  108400    301.52991   -29110.549    143.80854   -29254.358   -1090.2565 
  108600    302.37488     -29115.8    144.21154   -29260.011   -9902.1903 
  108800    320.48076   -29087.446    152.84676   -29240.292   -3743.5689 
  109000    289.40636   -29123.415    138.02646   -29261.442    15613.954 
  109200    287.01596   -29105.064    136.88641    -29241.95   -13613.378 
  109400    321.68704   -29099.877    153.42207     -29253.3    25745.985 
  109600    283.53384   -29132.528    135.22569   -29267.753    2099.1015 
  109800    310.57126   -29109.331    148.12063   -29257.452    14700.255 
  110000     287.5708    -29102.83    137.15103   -29239.981    7743.9653 
  110200    274.98625   -29135.719    131.14909   -29266.868   -13466.033 
  110400    300.28159   -29115.066    143.21318   -29258.279   -21063.507 
  110600     296.6848   -29106.773    141.49777   -29248.271   -36825.817 
  110800    288.05717     -29110.6    137.38299   -29247.983   -6953.8289 
  111000    297.03265   -29129.935    141.66366   -29271.599   -1208.6581 
  111200     317.4186   -29097.754    151.38633    -29249.14   -19274.809 
  111400    315.59538   -29108.989    150.51678   -29259.506    8186.1229 
  111600    273.63032   -29119.493     130.5024   -29249.995   -19370.683 
  111800    298.69767   -29112.341    142.45776   -29254.799   -38494.803 
  112000    327.80344   -29097.905    156.33917   -29254.244   -15688.167 
  112200    306.27658   -29104.745    146.07237   -29250.817    11327.206 
  112400    268.03925    -29124.58    127.83585   -29252.415   -24473.804 
  112600    313.78123   -29094.623    149.65156   -29244.275   -2512.7889 
  112800    284.57015   -29104.414    135.71993   -29240.134   -9915.4084 
  113000    279.78168   -29125.139    133.43617   -29258.575    14615.669 
  113200    293.88157   -29099.508    140.16082   -29239.668    37033.955 
  113400    295.09769   -29107.445    140.74083   -29248.186    12241.568 
  113600    293.26129   -29120.133    139.86499   -29259.998    66694.885 
  113800    316.68782   -29111.729     151.0378   -29262.767   -27160.505 
  114000    298.05689   -29110.559    142.15216   -29252.711   -135.10958 
  114200    280.97165   -29130.901     134.0037   -29264.904    40066.993 
  114400    284.80842   -29121.845    135.83357   -29257.679    26682.885 
  114600    282.30583   -29107.057    134.64001   -29241.697   -28147.005 
  114800    282.02434    -29107.91    134.50576   -29242.416    29826.069 
  115000    321.01018   -29105.661    153.09926    -29258.76    22776.671 
  115200    319.84924    -29104.44    152.54557   -29256.985    40750.838 
  115400    271.42917    -29098.72    129.45261   -29228.173    20290.002 
  115600     280.1457   -29117.935    133.60978   -29251.545    34227.623 
  115800    282.35315   -29114.439    134.66258   -29249.102    17409.728 
  116000    327.27498   -29095.574    156.08713   -29251.661   -667.45649 
  116200    314.92897   -29116.209    150.19895   -29266.408    69624.608 
  116400    300.01244   -29114.258    143.08482   -29257.343    6198.8453 
  116600    289.92739   -29108.481    138.27496   -29246.756   -27787.177 
  116800    304.52351   -29092.716    145.23628   -29237.952    18285.892 
  117000    300.89275   -29109.697    143.50466   -29253.202    8351.6245 
  117200    308.78379   -29112.502    147.26813    -29259.77   -15815.975 
  117400    328.32876   -29083.384     156.5897   -29239.974    10269.002 
  117600    286.61085   -29103.798     136.6932   -29240.491    2706.6223 
  117800    290.33363   -29119.803    138.46871   -29258.272    9896.3661 
  118000    318.26793   -29091.325     151.7914   -29243.117   -4556.8345 
  118200    309.16543    -29097.83    147.45015    -29245.28    19153.766 
  118400    273.60206   -29116.443    130.48893   -29246.932   -9548.6173 
  118600    296.71641   -29108.476    141.51284   -29249.989    24082.808 
  118800    286.66799   -29100.516    136.72045   -29237.237    16978.768 
  119000    347.50879   -29086.877    165.73723   -29252.614    12054.231 
  119200    273.50638   -29120.549    130.44329   -29250.992    32675.719 
  119400    298.17769   -29105.519    142.20977   -29247.729   -22960.961 
  119600     311.6837   -29094.606    148.65119   -29243.257   -8413.4796 
  119800    284.57097   -29125.848    135.72032   -29261.569   -43252.723 
  120000    318.25108   -29107.968    151.78336   -29259.751   -6486.1677 
  120200    329.07328   -29088.385    156.94479    -29245.33    24308.411 
  120400    284.41128    -29124.38    135.64416   -29260.024    -8038.653 
  120600    314.17396   -29102.277    149.83887   -29252.116    14196.165 
  120800    304.78623   -29098.942    145.36158   -29244.303   -22018.921 
  121000      259.553   -29125.703    123.78851   -29249.491   -36152.474 
  121200    310.44293    -29097.89    148.05943    -29245.95    24188.205 
  121400    289.28774   -29099.848    137.96989   -29237.818    5230.2592 
  121600    291.34013    -29113.05    138.94873   -29251.999    20583.224 
  121800    247.32952   -29138.103    117.95877   -29256.061   -5915.2214 
  122000    289.35493   -29103.754    138.00193   -29241.756   -36449.178 
  122200    305.76189   -29111.029     145.8269   -29256.856   -11205.464 
  122400    297.29296   -29118.472    141.78781    -29260.26   -5394.5998 
  122600     326.6196   -29090.849    155.77456   -29246.623    4749.8783 
  122800    281.41895   -29117.287    134.21703   -29251.504    24792.157 
  123000    294.86641   -29115.344    140.63052   -29255.974    11019.112 
  123200    306.46634   -29100.048    146.16287   -29246.211   -17635.243 
  123400    324.28064   -29080.715    154.65904   -29235.374   -12472.016 
  123600    292.61933    -29113.91    139.55882   -29253.469   -21548.824 
  123800    310.50358   -29106.977    148.08835   -29255.065    16309.983 
  124000     339.3226   -29079.649    161.83299   -29241.481   -17593.236 
  124200    287.55506   -29117.402    137.14352   -29254.545    14212.702 
  124400    319.08069   -29103.637    152.17903   -29255.816    12756.508 
  124600    305.33615   -29090.125    145.62385   -29235.749   -34713.569 
  124800    308.71861   -29122.383    147.23705    -29269.62    39085.155 
  125000    311.93364   -29096.818    148.77039   -29245.589   -65552.347 
  125200    291.15236   -29108.401    138.85918    -29247.26   -2572.8288 
  125400    285.14248   -29124.161    135.99289   -29260.153   -8308.1302 
  125600     297.1353   -29097.735    141.71262   -29239.448   -12177.242 
  125800     284.7437    -29120.22     135.8027   -29256.023    15481.126 
  126000    265.17582   -29126.655     126.4702   -29253.125     5748.266 
  126200    301.32106   -29099.764    143.70894   -29243.473    25434.179 
  126400    312.42303   -29096.852    149.00379   -29245.856    987.91814 
  126600    268.98233   -29122.334    128.28564    -29250.62   -177.40067 
  126800    286.25524   -29094.586     136.5236    -29231.11    11372.833 
  127000    325.01466   -29099.937    155.00911   -29254.946    10521.035 
  127200    280.69175   -29128.847    133.87021   -29262.717   -48024.014 
  127400    310.07931   -29092.562      147.886   -29240.448    24743.576 
  127600    312.68348    -29101.64    149.12801   -29250.768    2339.8331 
  127800    273.10421   -29119.812    130.25148   -29250.063     -403.512 
  128000      346.858   -29083.024    165.42685   -29248.451   -834.98946 
  128200    281.85083   -29102.417      134.423    -29236.84    -5575.075 
  128400    290.50973   -29119.977    138.55269   -29258.529    919.60335 
  128600     312.5761   -29082.363     149.0768    -29231.44    50649.124 
  128800    281.01508   -29102.036    134.02441    -29236.06   -3865.3349 
  129000    304.15172   -29118.114    145.05896   -29263.173   -1626.5471 
  129200    326.43875   -29086.446    155.68831   -29242.134   -4288.5705 
  129400    297.22711   -29097.067    141.75641   -29238.823   -24273.483 
  129600    255.27841   -29116.895    121.74983   -29238.645   -5496.3751 
  129800    321.21538    -29096.05    153.19712   -29249.248   -6321.8511 
  130000    293.34447   -29095.476    139.90466   -29235.381    12467.206 
  130200    292.73792   -29114.594    139.61538    -29254.21   -14100.308 
  130400    284.42349   -29102.764    135.64998   -29238.414   -2506.2497 
  130600     345.2442   -29070.803    164.65718   -29235.461    -12305.52 
  130800    315.39512   -29108.851    150.42127   -29259.273   -31527.052 
  131000    278.64984   -29114.141    132.89636   -29247.037   -4850.3181 
  131200    319.59997   -29085.843    152.42669   -29238.269    42517.636 
  131400    268.34312    -29115.48    127.98078   -29243.461   -34144.617 
  131600    290.12082   -29111.528    138.36721   -29249.895    41581.106 
  131800    318.82597   -29089.462    152.05754    -29241.52   -10411.177 
  132000    311.87379    -29127.36    148.74185   -29276.102    20135.258 
  132200    312.76922   -29101.297     149.1689   -29250.466    6233.6312 
  132400    302.32231   -29105.678    144.18646   -29249.864   -8529.4086 
  132600    253.72394   -29129.747    121.00846   -29250.756    23608.808 
  132800    318.47873    -29109.57    151.89194   -29261.462   -5577.1754 
  133000    282.27777   -29101.294    134.62663    -29235.92    976.20583 
  133200    348.77682   -29074.872    166.34199   -29241.214   -18370.795 
  133400    297.09227   -29107.914     141.6921   -29249.606   -9991.5321 
  133600    274.54266   -29107.354    130.93753   -29238.291   -24753.146 
  133800    367.77257    -29075.96    175.40163   -29251.361   -9125.6703 
  134000     275.7798   -29114.379    131.52755   -29245.906    10478.976 
  134200    287.69216   -29109.398    137.20891   -29246.607    14122.222 
  134400    343.01075   -29089.588    163.59198    -29253.18    39372.388 
  134600    265.94916   -29126.171    126.83903    -29253.01    4184.0387 
  134800    294.68684   -29102.505    140.54488    -29243.05   -40834.247 
  135000    295.44484    -29099.47    140.90639   -29240.377   -24379.729 
  135200     285.2409   -29106.864    136.03983   -29242.904     3816.917 
  135400    298.59455   -29096.154    142.40858   -29238.563    43579.244 
  135600    329.45502   -29079.145    157.12685   -29236.272    11808.906 
  135800    272.53457    -29113.02    129.97981   -29242.999   -37573.293 
  136000    307.72004   -29095.701     146.7608   -29242.462     20202.95 
  136200    313.60236   -29081.209    149.56625   -29230.775    13334.112 
  136400     302.3807   -29116.276    144.21431    -29260.49   -12262.892 
  136600    306.77489   -29099.466    146.31003   -29245.776     26966.94 
  136800    299.17621   -29097.364    142.68599    -29240.05   -30680.425 
  137000    281.65375   -29122.437    134.32901   -29256.766   -2353.7308 
  137200    324.97075   -29095.737    154.98817   -29250.725   -17147.723 
  137400    340.72186   -29103.495    162.50034   -29265.995   -35463.117 
  137600    313.17739   -29106.368    149.36357   -29255.732   -10480.008 
  137800    298.07174   -29103.494    142.15924   -29245.653   -21946.823 
  138000    288.64386   -29118.054     137.6628   -29255.717   -9554.2432 
  138200    319.20396   -29091.553    152.23782   -29243.791    9941.1315 
  138400    317.96182    -29095.25    151.64541   -29246.896    57194.182 
  138600    316.58486   -29117.428    150.98869   -29268.417   -2855.8701 
  138800    272.83027   -29130.516    130.12084   -29260.637    38494.474 
  139000    301.59943   -29099.905     143.8417   -29243.747     17749.08 
  139200    307.56982   -29114.978    146.68915   -29261.667   -15189.308 
  139400    287.75835   -29124.502    137.24048   -29261.742    -2924.919 
  139600    310.02686   -29112.896    147.86099   -29260.757    31087.819 
  139800    313.46239    -29108.66     149.4995   -29258.159   -11912.521 
  140000    321.06128   -29091.542    153.12363   -29244.666   -28223.165 
  140200    297.00858   -29121.431    141.65219   -29263.083    13738.923 
  140400    303.47247   -29103.962    144.73501   -29248.697    19667.645 
  140600    292.80478   -29101.309    139.64727   -29240.956    13570.977 
  140800     328.3165   -29110.171    156.58386   -29266.755   -199.09438 
  141000    265.67231    -29131.38    126.70699   -29258.087    10465.885 
  141200    338.47427   -29098.889     161.4284   -29260.318   -25641.342 
  141400     295.8893   -29106.148    141.11837   -29247.267    12787.316 
  141600    278.01931   -29133.883    132.59564   -29266.478     -37660.1 
  141800    302.27985   -29102.895    144.16621   -29247.062     2342.901 
  142000     292.7444   -29107.275    139.61847   -29246.894   -17574.837 
  142200    281.56355   -29130.013    134.28599   -29264.299    28182.384 
  142400    311.59169   -29119.218     148.6073   -29267.825   -10840.315 
  142600    288.82692   -29099.503    137.75011   -29237.253   -18822.226 
  142800    272.24789   -29119.298    129.84308   -29249.141    1640.5782 
  143000    308.34076   -29123.113    147.05684    -29270.17    11829.943 
  143200    322.47857   -29100.952    153.79958   -29254.752   -23392.761 
  143400    290.10764   -29121.362    138.36092   -29259.723   -39848.619 
  143600    284.47229   -29116.272    135.67326   -29251.946   -32799.445 
  143800    305.79922   -29100.138     145.8447   -29245.983    100904.42 
  144000    294.76224   -29126.773    140.58084   -29267.353    5893.8562 
  144200    288.09891   -29117.741     137.4029   -29255.144    30546.616 
  144400    313.35146    -29082.83    149.44659   -29232.277    5381.9875 
  144600    299.99003   -29103.566    143.07413    -29246.64   -23112.431 
  144800    298.98788    -29108.19    142.59617   -29250.786   -31959.092 
  145000    290.75502   -29104.956    138.66968   -29243.625   -5828.5397 
  145200    279.52583   -29133.095    133.31414   -29266.409   -24360.847 
  145400    315.71556   -29107.019     150.5741   -29257.593     18472.85 
  145600    313.19186   -29103.562    149.37047   -29252.932    20629.937 
  145800     288.8287   -29119.537    137.75096   -29257.288    3033.0629 
  146000    306.44364   -29094.856    146.15205   -29241.008   -4544.3442 
  146200     307.9888   -29106.904    146.88898   -29253.793    15143.517 
  146400    306.41271   -29115.633    146.13729    -29261.77    15655.708 
  146600    325.24453   -29098.287    155.11874   -29253.405   -3914.9471 
  146800    305.59418   -29080.166    145.74691   -29225.913     11666.63 
  147000    283.41321   -29105.833    135.16815   -29241.001    36187.834 
  147200    294.03413   -29102.432    140.23358   -29242.665   -23711.191 
  147400    296.45031   -29126.546    141.38593   -29267.932    38494.307 
  147600    290.39832   -29111.812    138.49956   -29250.312   -16787.945 
  147800    321.04121   -29103.228    153.11406   -29256.342    13518.042 
  148000    287.36296   -29123.446     137.0519   -29260.498   -8960.5156 
  148200    330.52086   -29101.826    157.63518   -29259.461    6411.3669 
  148400     307.8754   -29105.524    146.83489   -29252.359   -9799.7493 
  148600    301.59332   -29118.701    143.83879    -29262.54   -22223.575 
  148800    311.31065    -29099.36    148.47327   -29247.834    47721.995 
  149000    344.68597   -29068.211    164.39094   -29232.602    6104.2297 
  149200    295.89496   -29105.683    141.12107   -29246.805    7562.2672 
  149400    297.46745   -29125.694    141.87103   -29267.565    2293.1002 
  149600    267.43218   -29138.155    127.54633   -29265.701   -4322.3066 
  149800    323.90168   -29103.654     154.4783   -29258.133    43083.037 
  150000    299.44421   -29118.754    142.81381   -29261.568      15949.9 
  150200    265.83104   -29128.718    126.78269   -29255.501    49942.994 
  150400    283.23383   -29109.809     135.0826   -29244.891    29906.405 
  150600    323.92573   -29101.066    154.48977   -29255.556     19761.11 
  150800    281.12261   -29113.044    134.07569   -29247.119   -8237.4963 
  151000    303.85667   -29099.587    144.91824   -29244.505   -8822.9565 
  151200    320.87836   -29090.939    153.03639   -29243.976    32121.076 
  151400    278.56677   -29114.583    132.85674    -29247.44   -11803.414 
  151600    294.62824   -29099.015    140.51693   -29239.532    27583.523 
  151800    300.13022   -29093.942    143.14099   -29237.083    28621.746 
  152000     289.3383   -29123.422      137.994   -29261.416   -12467.596 
  152200    308.35556   -29095.344     147.0639   -29242.408    20114.791 
  152400    318.05779   -29107.948    151.69118   -29259.639   -675.27015 
  152600    280.33858   -29122.508    133.70177    -29256.21     13423.83 
  152800    326.87659   -29084.222    155.89712   -29240.119    17512.989 
  153000    285.33044   -29113.386    136.08253   -29249.469   -10750.305 
  153200    297.86876   -29106.212    142.06243   -29248.275   -43486.239 
  153400    313.47089   -29087.023    149.50355   -29236.527    23162.329 
  153600    291.34288   -29102.952    138.95005   -29241.902    12384.915 
  153800     325.0317   -29118.276    155.01724   -29273.293   -2896.4392 
  154000     310.9263   -29100.503    148.28996   -29248.793   -19793.564 
  154200    310.22159   -29105.252    147.95386   -29253.206    29842.529 
  154400    280.73693    -29123.32    133.89175   -29257.211   -31764.272 
  154600    305.72254   -29110.232    145.80813    -29256.04    8849.2549 
  154800    293.64589   -29109.635    140.04842   -29249.684    30981.517 
  155000    322.11729   -29079.826    153.62727   -29233.453   -20174.071 
  155200    311.23197   -29092.591    148.43574   -29241.026    23635.486 
  155400    293.23479   -29115.471    139.85235   -29255.323    13027.893 
  155600     297.4361   -29109.518    141.85608   -29251.375    38865.513 
  155800    302.72573   -29089.749    144.37886   -29234.128   -6024.9705 
  156000    272.61959   -29119.152    130.02036   -29249.172    12751.054 
  156200    327.41424   -29108.693    156.15355   -29264.847   -33058.174 
  156400    316.82413   -29087.551    151.10281   -29238.654   -7309.1771 
  156600    293.40528   -29112.182    139.93367   -29252.115    23778.447 
  156800    297.97145   -29122.963    142.11141   -29265.074   -14581.556 
  157000    300.30237   -29117.414    143.22309   -29260.637   -37499.832 
  157200     346.1949   -29092.679     165.1106    -29257.79    14292.016 
  157400    300.72474   -29122.929    143.42453   -29266.354    1676.5093 
  157600    312.86607   -29123.644    149.21509   -29272.859    13428.535 
  157800     329.9565   -29096.069    157.36603   -29253.435    2153.0281 
  158000    277.14116   -29135.588    132.17682   -29267.765    53279.502 
  158200    304.62705   -29118.759    145.28566   -29264.044   -28097.508 
  158400    320.18025   -29106.813    152.70344   -29259.517   -23607.419 
  158600    280.13359   -29142.208      133.604   -29275.812    4448.3631 
  158800    301.56585   -29117.154    143.82568    -29260.98    10914.518 
  159000     320.8957    -29109.64    153.04466   -29262.684    23377.427 
  159200    275.33839   -29123.924    131.31703   -29255.241   -38233.943 
  159400    296.60822   -29119.634    141.46124   -29261.095   -14614.398 
  159600    319.85158   -29100.432    152.54669   -29252.979    3027.0547 
  159800    286.61644   -29129.942    136.69587   -29266.638   -27789.681 
  160000    316.56976    -29121.23    150.98149   -29272.211    16405.649 
  160200    325.58463   -29101.179    155.28095    -29256.46   -59100.241 
  160400     329.6436   -29094.811    157.21679   -29252.027   -15383.202 
  160600    280.88191   -29129.846     133.9609   -29263.807    28177.854 
  160800     303.4934   -29113.415    144.74499    -29258.16   -9695.0993 
  161000    303.89722   -29094.422    144.93758    -29239.36    29672.173 
  161200    283.75763   -29109.477    135.33241   -29244.809    43534.678 
  161400    269.61843    -29136.11    128.58901   -29264.699   -11126.263 
  161600    267.36366    -29131.19    127.51365   -29258.704     -36944.6 
  161800    328.31616   -29100.701     156.5837   -29257.285    -21073.64 
  162000    299.25961   -29113.167    142.72577   -29255.893     11839.05 
  162200    278.35506   -29119.888    132.75577   -29252.644   -41984.181 
  162400    315.40694   -29092.601    150.42691   -29243.028   -17087.691 
  162600    284.12988   -29118.958    135.50995   -29254.468    -40197.82 
  162800    280.64248   -29100.487    133.84671   -29234.334    51830.049 
  163000    296.73936   -29091.322    141.52378   -29232.846   -5574.0646 
  163200    287.54175   -29114.425    137.13717   -29251.562   -28978.744 
  163400    301.45851   -29093.329    143.77449   -29237.103    34509.485 
  163600     303.8564   -29095.194    144.91811   -29240.112     -2860.94 
  163800    301.03894   -29112.752    143.57438   -29256.327   -19586.523 
  164000     294.5905   -29123.114    140.49893   -29263.613    452.55247 
  164200     299.8486   -29091.054    143.00668   -29234.061   -11094.519 
  164400    281.99343    -29111.96    134.49102   -29246.451   -24270.819 
  164600    294.07446   -29119.671    140.25282   -29259.924    64007.308 
  164800    330.77833   -29090.086    157.75798   -29247.844    14521.439 
  165000    284.36218   -29120.088    135.62074   -29255.708    32398.092 
  165200     315.1792   -29102.528    150.31829   -29252.846   -8940.1147 
  165400     285.1691   -29110.347    136.00559   -29246.353    1533.8771 
  165600    265.47682   -29118.042    126.61376   -29244.656    12029.957 
  165800     333.6634   -29095.054    159.13396   -29254.188   -5903.9727 
  166000    287.11359   -29124.307    136.93297    -29261.24    25706.416 
  166200    300.94377   -29114.541    143.52899    -29258.07   -12167.523 
  166400    299.06797   -29094.532    142.63437   -29237.166    5651.5976 
  166600    268.80875    -29129.47    128.20285   -29257.673    6580.1382 
  166800    322.07201   -29107.967    153.60568   -29261.573   -53375.522 
  167000    277.81204   -29101.884    132.49678   -29234.381    43138.449 
  167200    258.40194   -29137.476    123.23954   -29260.715    -30575.75 
  167400    309.01685   -29123.197    147.37928   -29270.576    2179.7756 
  167600    288.49508   -29101.202    137.59184   -29238.793    12063.396 
  167800    269.75158   -29103.388    128.65251   -29232.041   -48158.805 
  168000    275.64374   -29128.783    131.46266   -29260.245    13530.845 
  168200    314.09869   -29098.735    149.80296   -29248.538     11073.16 
  168400    285.28095   -29106.191    136.05893    -29242.25   -1227.0129 
  168600    321.86062   -29116.865    153.50486    -29270.37    5070.6248 
  168800    297.63945   -29119.642    141.95306   -29261.595   -11354.953 
  169000    301.25449   -29098.409    143.67719   -29242.087   -96.116721 
  169200    279.90132    -29125.25    133.49323   -29258.744   -14145.856 
  169400    306.17167   -29114.357    146.02234   -29260.379   -10132.559 
  169600    287.60716   -29106.521    137.16837    -29243.69   -18370.356 
  169800    304.72868   -29109.241    145.33413   -29254.575    17897.747 
  170000     345.4426   -29081.615     164.7518   -29246.367    27079.896 
  170200    300.80814   -29112.205    143.46431   -29255.669   -9375.5569 
  170400    264.09746   -29106.261     125.9559   -29232.217   -5921.6418 
  170600    298.82194   -29087.538    142.51703   -29230.055    45792.442 
  170800    335.44514   -29096.557    159.98372   -29256.541   -17804.855 
  171000    278.62104   -29118.776    132.88262   -29251.659     43516.79 
  171200    324.98433   -29082.539    154.99465   -29237.533   -1991.3671 
  171400    301.73573   -29092.939     143.9067   -29236.846   -4021.4542 
  171600    291.90156   -29107.539     139.2165   -29246.756   -23591.948 
  171800     306.5968   -29101.461    146.22509   -29247.686   -3787.5756 
  172000    325.60963   -29081.081    155.29287   -29236.374   -741.97431 
  172200    293.50641   -29112.708     139.9819    -29252.69    233.27412 
  172400    285.50499    -29108.94    136.16578   -29245.105    24111.191 
  172600    285.35437   -29092.868    136.09395   -29228.962    -23117.67 
  172800    343.41609   -29068.588     163.7853   -29232.374    5998.2208 
  173000    280.77903    -29108.46    133.91183   -29242.372    28846.169 
  173200    268.95773   -29118.379     128.2739   -29246.653    11259.691 
  173400    325.45577   -29086.099    155.21949   -29241.319   -15591.472 
  173600    277.49241   -29107.491    132.34435   -29239.835   -2808.5969 
  173800    289.29019   -29109.356    137.97106   -29247.327   -485.71142 
  174000    318.63381   -29077.515     151.9659   -29229.481    16954.618 
  174200    326.65522    -29104.16    155.79155   -29259.952    50747.577 
  174400    314.43464   -29115.862    149.96319   -29265.826   -11934.082 
  174600    278.60455    -29120.95    132.87476   -29253.824   -23788.841 
  174800    294.19441   -29122.322    140.31002   -29262.632   -38989.257 
  175000    328.84292   -29097.119    156.83492   -29253.954   -22049.184 
  175200     276.1632   -29131.029    131.71041   -29262.739    17855.351 
  175400    315.14684   -29115.103    150.30286   -29265.406   -6158.6733 
  175600    287.84691   -29101.351    137.28271   -29238.634   -7505.9761 
  175800    293.09568    -29133.17    139.78601   -29272.956   -41017.252 
  176000    291.62491   -29110.436    139.08455    -29249.52    46012.353 
  176200    284.80096   -29103.543    135.83001   -29239.373   -15092.782 
  176400    296.13651    -29118.73    141.23627   -29259.966   -19199.387 
  176600     253.8618   -29150.555    121.07421   -29271.629    22062.033 
  176800    311.23162   -29118.441    148.43558   -29266.877   -12336.394 
  177000    313.06227   -29106.443    149.30866   -29255.752    -11019.16 
  177200    272.87388   -29135.818    130.14163   -29265.959    57057.291 
  177400    290.02673   -29121.553    138.32234   -29259.876    8413.8679 
  177600    304.80556   -29111.454    145.37079   -29256.825   -20596.276 
  177800    277.35436   -29126.743    132.27851   -29259.022    16528.285 
[...]
  950000    291.82616   -29089.768    139.18054   -29228.949    37975.304 
  950200    309.59723   -29110.794    147.65608    -29258.45   -45428.824 
  950400    296.73006   -29114.305    141.51935   -29255.824    21640.163 
  950600    308.07329   -29107.378    146.92927   -29254.308    43856.708 
  950800    331.59815   -29084.339    158.14897   -29242.488   -14573.128 
  951000     289.9638   -29113.689    138.29232   -29251.981    7280.5691 
  951200    309.82254   -29114.568    147.76354   -29262.332     3352.149 
  951400     310.6218   -29102.465    148.14473    -29250.61    -14294.31 
  951600    322.28616    -29091.09    153.70781   -29244.798     45959.69 
  951800    281.15827   -29120.359     134.0927   -29254.452    32680.066 
  952000    321.18661   -29102.914     153.1834   -29256.098   -34153.801 
  952200    295.72706   -29103.489    141.04099    -29244.53   -24612.375 
  952400    287.96441   -29127.862    137.33876   -29265.201   -8262.7906 
  952600    320.36281   -29103.543    152.79051   -29256.333    33697.283 
  952800    304.76058   -29122.883    145.34934   -29268.232    15642.201 
  953000    280.04358   -29127.499    133.56108    -29261.06    -19078.14 
  953200    298.22409   -29104.061     142.2319   -29246.292    4998.2878 
  953400    292.99039   -29107.845    139.73579   -29247.581   -41883.671 
  953600    263.51935   -29125.217    125.68018   -29250.897    23666.856 
  953800    268.16185   -29139.579    127.89433   -29267.474   -34926.265 
  954000    291.09146    -29117.24    138.83013    -29256.07   -15526.581 
  954200     317.6801   -29097.728    151.51104   -29249.239     83841.28 
  954400    308.20804    -29119.59    146.99354   -29266.584   -29707.774 
  954600    286.70951   -29120.755    136.74025   -29257.495    -27262.22 
  954800    325.62242   -29104.841    155.29897    -29260.14   -38212.727 
  955000    296.66761   -29119.013    141.48957   -29260.502   -677.58517 
  955200    279.02085   -29121.851     133.0733   -29254.924   -27505.265 
  955400    290.16323   -29133.356    138.38744   -29271.744   -13534.391 
  955600    301.38288   -29103.462    143.73842   -29247.201    20418.725 
  955800    315.34206   -29112.145    150.39597   -29262.541   -13895.166 
  956000    260.25515   -29149.027    124.12339    -29273.15   -11806.891 
  956200    283.38144   -29164.084      135.153   -29299.237    -21542.05 
  956400    278.91783   -29126.349    133.02417   -29259.373   -49219.788 
  956600    316.69539   -29103.952    151.04141   -29254.993     63599.48 
  956800     278.2983   -29119.873     132.7287   -29252.602    14977.351 
  957000    274.52957   -29131.758    130.93128   -29262.689    32906.599 
  957200    304.24134   -29106.901     145.1017   -29252.003    576.82692 
  957400    318.41861   -29113.334    151.86326   -29265.197    7248.5582 
  957600    299.94446   -29130.727     143.0524    -29273.78    13002.946 
  957800    278.95858   -29128.549    133.04361   -29261.592     5065.067 
  958000    312.03379   -29105.381    148.81815   -29254.199    20097.696 
  958200    293.30001   -29132.138    139.88346   -29272.022   -14802.728 
  958400    272.51812   -29125.808    129.97196    -29255.78     37632.83 
  958600    300.66137   -29112.244    143.39431   -29255.638   -34670.957 
  958800    308.74227   -29101.417    147.24833   -29248.666    15317.596 
  959000    299.37728   -29132.947    142.78189   -29275.729    14326.592 
  959200    262.22152   -29118.663    125.06121   -29243.724   -30940.595 
  959400    307.63872    -29107.47    146.72201   -29254.192    29563.381 
  959600    279.84574   -29123.989    133.46672   -29257.455    11783.989 
  959800    270.21972   -29136.702    128.87578   -29265.578    9346.9409 
  960000    314.53566   -29106.209    150.01137    -29256.22   -5512.6193 
  960200    315.87337   -29119.197    150.64936   -29269.847   -22458.374 
  960400    284.86211   -29128.119    135.85917   -29263.978    9534.5603 
  960600    306.42335   -29111.968    146.14237    -29258.11   -10380.703 
  960800    299.43595   -29104.031    142.80987   -29246.841    20735.322 
  961000    282.53175   -29130.812    134.74776   -29265.559    28188.914 
  961200     291.7314   -29116.026    139.13534   -29255.162   -68323.366 
  961400    308.83455   -29105.551    147.29234   -29252.843    17405.241 
  961600    286.13835   -29118.542    136.46785    -29255.01   -51085.092 
  961800    315.69342   -29109.623    150.56354   -29260.186   -12781.203 
  962000    292.90411   -29120.518    139.69464   -29260.213    4919.8758 
  962200    262.33102   -29126.891    125.11343   -29252.005    7657.3981 
  962400      336.869   -29100.626     160.6628   -29261.289   -26080.472 
  962600    293.55503   -29113.847    140.00509   -29253.852    -37950.68 
  962800    311.42354   -29110.655    148.52711   -29259.182    18173.248 
  963000    328.95908   -29081.261    156.89033   -29238.151   -3860.6092 
  963200    292.39979   -29111.903    139.45412   -29251.357    -32000.73 
  963400    285.86385    -29112.81    136.33693   -29249.147   -32511.553 
  963600     310.8389    -29107.81    148.24828   -29256.059    25047.634 
  963800    302.10769   -29125.285     144.0841   -29269.369    2760.0466 
  964000    311.41875   -29102.617    148.52482   -29251.141    36120.806 
  964200    311.83436   -29100.222    148.72304   -29248.945   -15246.552 
  964400    292.46785   -29114.765    139.48657   -29254.252    17025.996 
  964600    309.74148   -29115.046    147.72488   -29262.771   -1187.6425 
  964800    278.22758   -29119.864    132.69497   -29252.559    15786.465 
  965000    298.41546   -29118.851    142.32317   -29261.174   -42147.611 
  965200    327.18191   -29092.622    156.04274   -29248.665   -34185.775 
  965400    302.57182   -29126.807    144.30546   -29271.112    30966.045 
  965600    311.44939   -29119.325    148.53944   -29267.865   -31430.177 
  965800     298.2629   -29099.598    142.25041   -29241.849   -966.26018 
  966000    286.11108   -29123.991    136.45484   -29260.446   -16860.158 
  966200    272.66789   -29127.116    130.04339   -29257.159    12860.439 
  966400    313.33818   -29094.284    149.44026   -29243.724   -31662.813 
  966600    289.50205   -29113.236     138.0721   -29251.308   -10385.122 
  966800    312.24396   -29121.737    148.91839   -29270.656   -8375.9336 
  967000    305.45569   -29119.787    145.68086   -29265.468   -25931.815 
  967200    323.09006   -29086.788    154.09121   -29240.879   -15413.905 
  967400    294.23921   -29117.416    140.33139   -29257.747    5860.4706 
  967600    282.22808   -29113.345    134.60293   -29247.947    15791.561 
  967800    357.64789   -29086.286    170.57287   -29256.859   -16271.606 
  968000    300.15987   -29119.885    143.15513    -29263.04   -29278.441 
  968200    302.54732   -29115.605    144.29377   -29259.898    10127.941 
  968400     318.4956   -29096.211    151.89998   -29248.111   -39015.001 
  968600    280.51082   -29117.418    133.78391   -29251.202    53544.229 
  968800    297.96701    -29122.22    142.10929   -29264.329     52598.46 
  969000    339.27882   -29088.829    161.81211   -29250.641   -70499.056 
  969200    307.95058    -29107.45    146.87075   -29254.321    36414.973 
  969400    299.72947   -29128.194    142.94986   -29271.144    17731.889 
  969600    310.74336   -29099.069    148.20271   -29247.272   -31453.242 
  969800    320.68703   -29103.834    152.94514   -29256.779   -55689.157 
  970000    287.93278   -29123.859    137.32367   -29261.183   -8924.0173 
  970200    297.48106   -29116.514    141.87752   -29258.392     -16687.3 
  970400    310.59303   -29110.838    148.13101   -29258.969    19973.264 
  970600    252.67268   -29140.836    120.50708   -29261.343    14368.181 
  970800    304.78854   -29113.964    145.36268   -29259.326   -8856.0687 
  971000    323.06833   -29109.741    154.08085   -29263.822   -8887.2648 
  971200    281.21906   -29132.832    134.12169   -29266.954    -6670.009 
  971400    326.18437   -29098.103    155.56698    -29253.67   -33455.673 
  971600    315.51738    -29118.97    150.47958    -29269.45       -14186 
  971800    288.25629   -29122.645    137.47796   -29260.123    21076.194 
  972000    335.55213   -29089.058    160.03475   -29249.093   -10343.905 
  972200    310.94503   -29098.774    148.29889   -29247.073   -2686.2074 
  972400    299.31095   -29120.284    142.75026   -29263.034    -6503.956 
  972600    295.27697   -29126.131    140.82633   -29266.958   -15030.339 
  972800    332.97018   -29093.829    158.80334   -29252.632   -6811.8539 
  973000    323.13699   -29114.496     154.1136    -29268.61    30950.167 
  973200    285.75184    -29126.31    136.28351   -29262.593   -27624.099 
  973400    279.41047   -29108.097    133.25913   -29241.357   -24702.216 
  973600    323.66495   -29104.177     154.3654   -29258.543   -1819.0147 
  973800     273.6221   -29121.727    130.49848   -29252.226   -28869.539 
  974000    284.75659   -29113.981    135.80885    -29249.79    19435.106 
  974200    353.27701    -29083.41    168.48827   -29251.898   -28579.457 
  974400    306.02439   -29118.105    145.95209   -29264.057    40307.425 
  974600    264.45368   -29121.466    126.12579   -29247.592    5867.3183 
  974800    327.03721    -29089.41    155.97373   -29245.383    11707.834 
  975000    281.99795   -29112.636    134.49317   -29247.129   -19408.245 
  975200    327.80437   -29120.872    156.33961   -29277.211   -162.54399 
  975400    263.26575   -29142.818    125.55923   -29268.378   -18534.317 
  975600    308.86435   -29110.066    147.30655   -29257.372    18618.409 
  975800    286.77978   -29107.474    136.77377   -29244.248    23557.407 
  976000    260.91955   -29134.902    124.44026   -29259.343   -5469.2556 
  976200    316.12792   -29108.234    150.77076   -29259.005    28307.133 
  976400    306.04562   -29107.088    145.96222    -29253.05    7557.5174 
  976600    275.17133   -29131.898    131.23736   -29263.135    15878.429 
  976800    307.31473    -29098.79     146.5675   -29245.358    14623.295 
  977000    291.21707   -29104.573    138.89004   -29243.463    2357.0747 
  977200    279.95499   -29123.137    133.51883   -29256.656   -23309.135 
  977400    310.34545    -29104.87    148.01293   -29252.883       -35436 
  977600    304.88004   -29113.734    145.40632    -29259.14    30969.529 
  977800    285.15914   -29116.586    136.00084   -29252.586    849.36888 
  978000    302.51536    -29092.26    144.27853   -29236.539   -9052.9519 
  978200    282.67655   -29122.506    134.81681   -29257.323   -28969.989 
  978400    293.16191   -29122.019     139.8176   -29261.836   -27186.742 
  978600    305.80279   -29102.179     145.8464   -29248.026   -6236.8039 
  978800    349.37957   -29086.616    166.62946   -29253.246    -16396.84 
  979000    301.84125   -29112.257    143.95703   -29256.214    10499.786 
  979200    291.03407   -29123.265    138.80277   -29262.068    23405.245 
  979400    292.77516   -29100.572    139.63314   -29240.206    39264.454 
  979600    293.16214   -29110.018     139.8177   -29249.835    9038.5797 
  979800    276.25877   -29122.093    131.75599   -29253.849    97492.678 
  980000    328.33678   -29098.482    156.59353   -29255.076    11847.051 
  980200    290.83145   -29127.169    138.70613   -29265.876   -9009.3579 
  980400     299.1966   -29119.186    142.69572   -29261.882   -21769.935 
  980600    317.30299   -29104.138    151.33119   -29255.469   -15381.072 
  980800    262.38422   -29138.605    125.13881   -29263.744   -1004.0002 
  981000    322.27061   -29110.181     153.7004   -29263.881   -5388.6923 
  981200    302.12513   -29108.009    144.09242   -29252.102    7067.8869 
  981400    276.57921    -29132.23    131.90881   -29264.138    28129.043 
  981600    304.16061   -29124.248     145.0632   -29269.311    -20751.83 
  981800     292.5664    -29112.49    139.53358   -29252.023    6608.1951 
  982000    286.08907   -29138.377    136.44435   -29274.822   -42448.238 
  982200    303.88893   -29115.282    144.93363   -29260.215     16503.11 
  982400    292.27829   -29112.341    139.39617   -29251.738   -39054.452 
  982600    285.15978   -29137.257    136.00114   -29273.258    8806.5703 
  982800    273.72837   -29144.554    130.54917   -29275.103    33021.325 
  983000    325.87641   -29110.637    155.42011   -29266.057    13697.538 
  983200    302.70899   -29123.219    144.37088   -29267.589   -43976.472 
  983400    292.51946   -29134.338    139.51119   -29273.849   -10648.117 
  983600    305.08629   -29101.508    145.50468   -29247.012   -7857.4271 
  983800    287.40977   -29124.601    137.07423   -29261.675    5042.5194 
  984000    286.22932   -29134.775    136.51124   -29271.286   -33037.599 
  984200    303.71671   -29119.218    144.85149   -29264.069   -12740.328 
  984400    293.84628   -29109.857    140.14399   -29250.001   -28120.611 
  984600    290.47651   -29094.647    138.53685   -29233.184    9181.4933 
  984800    293.29322   -29123.899    139.88022   -29263.779    6465.7793 
  985000    305.26025     -29119.1    145.58765   -29264.687   -27779.767 
  985200    326.00274   -29098.658    155.48036   -29254.138   -25642.934 
  985400    284.63001   -29112.685    135.74848   -29248.434    22942.292 
  985600    281.84117   -29119.066     134.4184   -29253.485    8037.3196 
  985800    325.37856   -29097.237    155.18267    -29252.42   -24413.233 
  986000    298.40657   -29114.962    142.31893    -29257.28    37256.164 
  986200    301.20267   -29128.025    143.65247   -29271.678   -35275.251 
  986400    315.59311   -29099.796     150.5157   -29250.312    22609.542 
  986600    287.20685   -29111.583    136.97745    -29248.56   -1481.6303 
  986800    284.31005   -29119.652    135.59588   -29255.248   -43988.324 
  987000    261.34423    -29137.19     124.6428   -29261.833     12502.74 
  987200    306.43441   -29120.671    146.14764   -29266.819     13515.93 
  987400    300.86194   -29109.438    143.48997   -29252.928    52683.073 
  987600    277.38229   -29135.035    132.29183   -29267.327   -15860.799 
  987800    274.65838   -29143.358    130.99271    -29274.35   -887.57323 
  988000    304.92915   -29108.583    145.42974   -29254.013    6624.2918 
  988200    302.83599   -29117.267    144.43145   -29261.699     28827.17 
  988400    262.28425   -29135.872    125.09112   -29260.963    1816.8748 
  988600    303.89829   -29116.492    144.93809    -29261.43   -9414.7807 
  988800    324.53271   -29108.855    154.77926   -29263.634     48212.54 
  989000    344.03349   -29086.481    164.07976    -29250.56   -6662.8739 
  989200    301.69096   -29122.048    143.88535   -29265.933    11549.458 
  989400    306.84746   -29107.128    146.34464   -29253.473   -18014.614 
  989600    276.14826   -29114.861    131.70328   -29246.564    30009.325 
  989800    287.15093   -29121.886    136.95078   -29258.837     23096.48 
  990000    313.77232   -29102.134    149.64731   -29251.781     1081.973 
  990200    278.72773   -29138.584    132.93351   -29271.518    5111.6457 
  990400    291.10868   -29122.638    138.83835   -29261.476   -8758.4733 
  990600    294.93937   -29104.095    140.66532    -29244.76     37825.37 
  990800    301.75179   -29135.562    143.91436   -29279.476    15755.511 
  991000    300.68003   -29119.738    143.40321   -29263.141   -8508.1491 
  991200    308.23991   -29107.719    147.00874   -29254.728   -25380.193 
  991400    271.30976   -29137.292    129.39566   -29266.688   -39171.126 
  991600    328.26416   -29110.993     156.5589   -29267.552    10538.832 
  991800    296.14026    -29107.87    141.23806   -29249.108    25779.586 
  992000    309.06007   -29132.152     147.3999   -29279.551   -44385.349 
  992200    299.93849   -29118.121    143.04955    -29261.17    -34365.98 
  992400    320.25264   -29102.323    152.73796   -29255.061   -4449.7898 
  992600    290.02993   -29126.163    138.32386   -29264.487   -36057.514 
  992800    309.99616   -29095.228    147.84635   -29243.074    3112.9409 
  993000    288.09363   -29107.003    137.40038   -29244.404    8090.8647 
  993200    279.28485   -29121.366    133.19922   -29254.565    36266.831 
  993400    345.31084   -29084.052    164.68897   -29248.741   -4828.7392 
  993600    291.95101   -29111.939    139.24008   -29251.179    -47226.96 
  993800    308.72892   -29122.012    147.24196   -29269.253   -22829.889 
  994000    347.72563   -29106.745    165.84065   -29272.586   -19502.889 
  994200    305.04684    -29102.61    145.48587   -29248.096    11159.274 
  994400    275.20471   -29124.046    131.25327   -29255.299    -34280.23 
  994600    301.28973   -29108.519    143.69399   -29252.213    20832.402 
  994800    359.31225   -29080.851    171.36665   -29252.218    26228.202 
  995000    290.00244   -29114.756    138.31075   -29253.067    15838.382 
  995200    293.69579   -29119.093    140.07222   -29259.165    34915.786 
  995400     289.2757    -29117.46    137.96415   -29255.424    10484.461 
  995600    320.09165   -29116.199    152.66118    -29268.86    2436.5522 
  995800     308.7311   -29126.227      147.243    -29273.47     13231.42 
  996000    274.69128    -29137.64     131.0084   -29268.649   -8665.6617 
  996200    307.69541   -29101.511    146.74905    -29248.26   -12818.133 
  996400    301.70101   -29112.504    143.89014   -29256.394    -15057.07 
  996600     281.8055   -29131.322    134.40139   -29265.723   -16890.762 
  996800      311.391   -29116.375    148.51159   -29264.887   -8267.9412 
  997000    324.91668   -29106.654    154.96238   -29261.617   -19339.363 
  997200    264.58196   -29136.208    126.18697   -29262.395    -6217.537 
  997400    290.86549   -29113.518    138.72236    -29252.24    17530.907 
  997600    324.82633   -29108.277     154.9193   -29263.196   -12996.171 
  997800    315.53991   -29121.915    150.49033   -29272.406   -28694.092 
  998000    289.92698   -29117.659    138.27476   -29255.934    7952.4615 
  998200    323.56545   -29086.289    154.31794   -29240.607    29404.876 
  998400    280.14199   -29116.648    133.60801   -29250.256    37388.045 
  998600    272.53817   -29113.671    129.98152   -29243.653   -2261.3562 
  998800     324.1668   -29090.473    154.60474   -29245.078    -40745.41 
  999000    321.18491   -29107.461    153.18259   -29260.644    15059.287 
  999200    302.06933   -29122.152    144.06581   -29266.218   -15905.358 
  999400     302.2725   -29112.295    144.16271   -29256.457    2053.7846 
  999600    306.04471    -29092.28    145.96178   -29238.242   -18232.554 
  999800    273.70768     -29129.5     130.5393   -29260.039   -31933.735 
 1000000    302.07863   -29118.203    144.07024   -29262.273    19491.004 
Loop time of 6073.32 on 8 procs for 1000000 steps with 161 atoms

Performance: 3.557 ns/day, 6.748 hours/ns, 164.655 timesteps/s
99.3% CPU use with 8 MPI tasks x no OpenMP threads

MPI task timing breakdown:
Section |  min time  |  avg time  |  max time  |%varavg| %total
---------------------------------------------------------------
Pair    | 4698.5     | 4982.8     | 5140.4     | 243.2 | 82.04
Neigh   | 0.86952    | 0.89309    | 0.90513    |   1.3 |  0.01
Comm    | 100.84     | 258.67     | 541.42     |1065.9 |  4.26
Output  | 0.10257    | 0.11175    | 0.16827    |   6.4 |  0.00
Modify  | 826.01     | 827.15     | 828.49     |   2.9 | 13.62
Other   |            | 3.689      |            |       |  0.06

Nlocal:    20.125 ave 40 max 3 min
Histogram: 1 1 1 0 1 1 1 1 0 1
Nghost:    764.875 ave 780 max 748 min
Histogram: 1 0 1 1 2 0 0 0 1 2
Neighs:    2169.12 ave 4097 max 364 min
Histogram: 1 1 1 0 1 1 1 1 0 1

Total # of neighbors = 17353
Ave neighs/atom = 107.783
Neighbor list builds = 912
Dangerous builds = 0

unfix 1
unfix output
undump 1

Please see the log.cite file for references relevant to this simulation

Total wall time: 1:41:44
