ITEM: TIMESTEP
0
ITEM: NUMBER OF ATOMS
130
ITEM: BOX BOUNDS xy xz yz pp pp pp
0.0000000000000000e+00 2.3654499999999999e+01 7.8845000000000001e+00
0.0000000000000000e+00 1.3658086643083999e+01 0.0000000000000000e+00
0.0000000000000000e+00 2.5747000000000000e+01 0.0000000000000000e+00
ITEM: ATOMS id type x y z 
18 1 10.522 6.683 2.644 
28 1 5.247 4.273 12.803 
31 1 9.65 6.514 0.446 
62 1 9.171 5.15 12.405 
91 1 9.65 6.514 11.889 
92 1 10.81 6.18 11.007 
106 1 10.522 6.683 9.691 
127 1 10.81 6.18 1.328 
4 1 4.402 5.735 13.319 
5 1 3.307 5.568 14.201 
43 1 4.549 6.796 15.517 
52 1 9.172 5.15 25.677 
66 1 4.402 5.735 24.762 
67 1 5.003 6.76 23.881 
88 1 5.247 4.273 25.278 
107 1 3.307 5.568 23.881 
116 1 4.549 6.796 22.565 
117 1 5.003 6.76 14.201 
11 1 11.272 7.494 3.321 
12 1 10.477 8.871 4.018 
14 1 9.018 11.397 0.446 
15 1 10.114 11.565 1.328 
16 1 8.412 9.024 0.654 
19 1 10.477 8.871 5.569 
29 1 10.927 10.156 3.321 
32 1 8.77 7.648 1.328 
35 1 12.036 9.594 2.644 
45 1 9.231 8.963 3.321 
47 1 12.762 8.702 0.446 
49 1 11.224 11 0.654 
51 1 8.872 10.337 2.644 
53 1 11.272 7.494 9.014 
54 1 10.477 8.871 8.317 
56 1 9.018 11.397 11.889 
57 1 8.418 10.372 11.007 
58 1 11.224 11 11.681 
60 1 12.255 7.901 9.691 
61 1 10.477 8.871 6.766 
73 1 9.231 8.963 9.014 
75 1 12.762 8.702 11.889 
76 1 12.202 10.061 11.007 
79 1 9.224 7.617 9.691 
80 1 8.174 12.859 12.405 
89 1 10.927 10.156 9.014 
93 1 8.412 9.024 11.681 
95 1 9.951 11.095 9.691 
105 1 10.114 11.565 11.007 
109 1 8.77 7.648 11.007 
110 1 12.036 9.594 9.691 
114 1 8.872 10.337 9.691 
119 1 8.418 10.372 1.328 
120 1 12.255 7.901 2.644 
123 1 12.202 10.061 1.328 
124 1 9.224 7.617 2.644 
128 1 9.951 11.095 2.644 
6 1 5.009 8.108 13.527 
13 1 9.663 10.28 25.128 
17 1 9.204 8.965 25.162 
30 1 10.016 7.556 25.128 
34 1 11.289 7.464 25.162 
36 1 8.174 12.859 25.677 
46 1 11.752 8.777 25.128 
50 1 10.937 10.184 25.162 
55 1 9.663 10.28 12.954 
59 1 10.937 10.184 12.919 
74 1 11.752 8.777 12.954 
78 1 11.289 7.464 12.919 
90 1 10.016 7.556 12.954 
94 1 9.204 8.965 12.919 
101 1 5.009 8.108 24.555 
33 1 11.795 6.589 0.654 
77 1 11.795 6.589 11.681 
41 1 17.967 6.132 13.527 
68 1 17.967 6.132 24.554 
103 1 19.24 6.037 22.565 
126 1 19.24 6.037 15.517 
3 1 19.528 6.852 12.254 
7 1 19.987 8.167 12.289 
10 1 15.106 8.528 12.804 
22 1 19.175 9.576 12.254 
26 1 17.902 9.668 12.289 
38 1 17.439 8.356 12.254 
42 1 18.254 6.949 12.289 
44 1 20.019 11.982 12.804 
48 1 12.546 7.4 1.328 
65 1 19.528 6.852 0.081 
69 1 18.254 6.949 0.046 
82 1 17.439 8.356 0.081 
86 1 17.902 9.668 0.046 
96 1 14.084 8.604 12.405 
98 1 19.175 9.576 0.081 
102 1 19.987 8.167 0.046 
113 1 12.546 7.4 11.007 
1 1 17.919 9.638 16.194 
2 1 18.714 8.261 16.892 
8 1 18.669 10.449 15.517 
9 1 18.714 8.261 18.442 
20 1 14.084 8.604 25.677 
21 1 18.264 6.977 16.194 
23 1 19.541 10.618 13.32 
24 1 20.421 9.484 14.201 
25 1 17.396 10.544 13.527 
27 1 17.155 7.538 15.517 
37 1 19.96 8.169 16.194 
39 1 16.429 8.43 13.319 
40 1 16.644 9.732 14.201 
63 1 17.919 9.638 21.888 
64 1 18.714 8.261 21.19 
70 1 16.936 9.231 22.565 
71 1 18.714 8.261 19.64 
72 1 20.019 11.982 25.278 
81 1 19.96 8.169 21.888 
83 1 16.429 8.43 24.762 
84 1 16.989 7.071 23.881 
85 1 17.396 10.544 24.555 
87 1 19.967 9.515 22.565 
97 1 18.263 6.977 21.888 
99 1 19.541 10.618 24.762 
100 1 18.38 10.953 23.881 
104 1 15.106 8.528 25.278 
108 1 18.669 10.449 22.565 
111 1 20.421 9.484 23.881 
112 1 17.155 7.538 22.565 
115 1 16.644 9.732 23.881 
118 1 16.936 9.231 15.517 
121 1 16.989 7.071 14.201 
122 1 19.967 9.515 15.517 
125 1 18.38 10.953 14.201 
129 2 18.669 11.799 15.517 
130 3 18.669 12.775 15.517 
ITEM: TIMESTEP
10
ITEM: NUMBER OF ATOMS
130
ITEM: BOX BOUNDS xy xz yz pp pp pp
0.0000000000000000e+00 2.3654499999999999e+01 7.8845000000000001e+00
0.0000000000000000e+00 1.3658086643083999e+01 0.0000000000000000e+00
0.0000000000000000e+00 2.5747000000000000e+01 0.0000000000000000e+00
ITEM: ATOMS id type x y z 
18 1 10.4162 6.71127 2.66512 
28 1 5.13409 4.50517 12.8682 
31 1 9.42313 6.47719 0.402544 
62 1 9.13731 5.24754 12.3802 
91 1 9.42032 6.46937 11.9272 
92 1 10.8471 6.17306 11.0073 
106 1 10.4057 6.71951 9.67528 
127 1 10.8431 6.16778 1.32391 
4 1 4.43688 5.79694 13.2478 
5 1 3.22757 5.56861 14.214 
43 1 4.59965 6.93674 15.4667 
52 1 9.13919 5.25364 25.7044 
66 1 4.45345 5.77566 24.8134 
67 1 5.0797 6.91012 23.8846 
88 1 5.13902 4.49701 25.2113 
107 1 3.21892 5.58817 23.8558 
116 1 4.60006 6.9303 22.5869 
117 1 5.09034 6.92017 14.2006 
11 1 11.2955 7.55813 3.40442 
12 1 10.4988 8.83143 4.1125 
14 1 8.99264 11.338 0.376001 
15 1 10.2006 11.5481 1.33854 
16 1 8.41924 8.97341 0.703116 
19 1 10.4722 8.8671 5.55596 
29 1 10.9646 10.1464 3.33335 
32 1 8.71044 7.67235 1.27432 
35 1 12.0119 9.592 2.59505 
45 1 9.23244 8.95799 3.28658 
47 1 12.7541 8.72454 0.532236 
49 1 11.2756 11.0222 0.685017 
51 1 8.83232 10.2095 2.59924 
53 1 11.3529 7.57545 8.97625 
54 1 10.5109 8.83335 8.20999 
56 1 8.99192 11.4006 11.9287 
57 1 8.28244 10.243 11.0275 
58 1 11.3214 10.955 11.6682 
60 1 12.2646 8.00034 9.6267 
61 1 10.4741 8.87043 6.7634 
73 1 9.20733 8.9453 9.05047 
75 1 12.7333 8.76562 11.7685 
76 1 12.2617 10.0693 11.0302 
79 1 9.19037 7.65186 9.76823 
80 1 8.29489 12.6173 12.3316 
89 1 10.9476 10.1664 8.98678 
93 1 8.41214 8.92326 11.6602 
95 1 10.0434 11.0594 9.70317 
105 1 10.2279 11.5379 11.0097 
109 1 8.71283 7.65935 11.0479 
110 1 12.0519 9.61109 9.72393 
114 1 8.83547 10.222 9.7039 
119 1 8.32388 10.2137 1.32737 
120 1 12.3135 8.06949 2.66973 
123 1 12.2189 10.0607 1.24 
124 1 9.17363 7.67159 2.57727 
128 1 10.0349 11.0479 2.6255 
6 1 4.99662 8.15727 13.5869 
13 1 9.60395 10.3118 25.1461 
17 1 9.17819 8.9603 25.1536 
30 1 9.94339 7.70589 25.0698 
34 1 11.2941 7.49357 25.1205 
36 1 8.28815 12.6268 25.7425 
46 1 11.6941 8.79372 25.0727 
50 1 11.0404 10.1134 25.2466 
55 1 9.58685 10.2882 13.0342 
59 1 11.0011 10.1234 12.8932 
74 1 11.691 8.84054 13.0153 
78 1 11.2906 7.49591 12.9521 
90 1 9.91673 7.71145 13.0151 
94 1 9.18178 8.93062 12.9081 
101 1 5.01244 8.16725 24.5034 
33 1 11.734 6.57654 0.705871 
77 1 11.7321 6.58558 11.635 
41 1 17.9218 6.07831 13.5365 
68 1 17.879 6.14729 24.5134 
103 1 19.1433 6.09197 22.578 
126 1 19.1662 6.06672 15.5121 
3 1 19.5879 6.8078 12.272 
7 1 20.0235 8.17917 12.2813 
10 1 15.1282 8.47107 12.8324 
22 1 19.2471 9.41651 12.2032 
26 1 17.8989 9.63868 12.2245 
38 1 17.4999 8.3293 12.1813 
42 1 18.1403 7.02136 12.3847 
44 1 20.0638 11.9106 12.8183 
48 1 12.5885 7.53746 1.38262 
65 1 19.6228 6.7579 0.109415 
69 1 18.2088 7.06811 -0.0201136 
82 1 17.5116 8.34766 0.139605 
86 1 17.8837 9.67494 0.097441 
96 1 14.0366 8.66414 12.3618 
98 1 19.228 9.43649 0.106534 
102 1 19.9524 8.1547 0.0712754 
113 1 12.5802 7.54026 10.9563 
1 1 17.8764 9.54175 16.2379 
2 1 18.6828 8.32812 16.9829 
8 1 18.8128 10.5164 15.5904 
9 1 18.7136 8.26858 18.4454 
20 1 14.0392 8.65785 25.7187 
21 1 18.2396 6.99775 16.2189 
23 1 19.7616 10.6637 13.2976 
24 1 20.4517 9.443 14.1814 
25 1 17.411 10.5756 13.5255 
27 1 17.1784 7.53134 15.4785 
37 1 19.9621 8.19248 16.1201 
39 1 16.4281 8.40652 13.3896 
40 1 16.5882 9.61445 14.2555 
63 1 17.9198 9.58074 21.7763 
64 1 18.7033 8.29003 21.1103 
70 1 16.8482 9.05771 22.5451 
71 1 18.7199 8.26331 19.6409 
72 1 20.0504 11.8736 25.2483 
81 1 19.9407 8.18594 21.9352 
83 1 16.4466 8.36001 24.6604 
84 1 16.9895 7.09732 23.9397 
85 1 17.4426 10.5672 24.5133 
87 1 20.0043 9.44142 22.6308 
97 1 18.2462 6.9909 21.8723 
99 1 19.77 10.6416 24.8148 
100 1 18.3634 10.9827 23.8896 
104 1 15.1406 8.47103 25.2403 
108 1 18.7972 10.4213 22.5342 
111 1 20.4608 9.45168 23.9315 
112 1 17.1685 7.51347 22.6543 
115 1 16.5921 9.59958 23.8215 
118 1 16.9164 9.09371 15.616 
121 1 16.9685 7.05752 14.101 
122 1 19.9808 9.42776 15.4411 
125 1 18.3768 10.9254 14.1459 
129 2 18.7017 11.7338 15.5835 
130 3 18.6661 12.7881 15.5226 
ITEM: TIMESTEP
20
ITEM: NUMBER OF ATOMS
130
ITEM: BOX BOUNDS xy xz yz pp pp pp
0.0000000000000000e+00 2.3654499999999999e+01 7.8845000000000001e+00
0.0000000000000000e+00 1.3658086643083999e+01 0.0000000000000000e+00
0.0000000000000000e+00 2.5747000000000000e+01 0.0000000000000000e+00
ITEM: ATOMS id type x y z 
18 1 10.3807 6.78743 2.65373 
28 1 5.08635 4.63064 12.8857 
31 1 9.41126 6.53994 0.41615 
62 1 9.08326 5.27986 12.3749 
91 1 9.41591 6.53384 11.9262 
92 1 10.6905 6.16706 10.9498 
106 1 10.372 6.79464 9.69161 
127 1 10.7779 6.2044 1.36353 
4 1 4.44376 5.85301 13.2533 
5 1 3.18564 5.57556 14.2309 
43 1 4.58975 6.96021 15.4897 
52 1 9.07794 5.28017 25.7037 
66 1 4.43784 5.81488 24.7964 
67 1 5.08787 6.96984 23.898 
88 1 5.09754 4.60664 25.1855 
107 1 3.16176 5.64179 23.8753 
116 1 4.59213 6.95051 22.5879 
117 1 5.10438 6.96434 14.1839 
11 1 11.2414 7.56939 3.4263 
12 1 10.5262 8.80794 4.07534 
14 1 8.97987 11.2999 0.417074 
15 1 10.239 11.5172 1.33835 
16 1 8.34519 8.89905 0.682606 
19 1 10.4733 8.86243 5.55646 
29 1 10.9505 10.1243 3.32929 
32 1 8.66786 7.65533 1.28102 
35 1 12.0575 9.6041 2.57409 
45 1 9.2115 8.93466 3.26044 
47 1 12.7213 8.80602 0.514959 
49 1 11.3668 11.0034 0.665582 
51 1 8.8326 10.1705 2.60551 
53 1 11.3389 7.59067 8.954 
54 1 10.4944 8.83757 8.24365 
56 1 9.00066 11.3047 11.9305 
57 1 8.34339 10.1583 11.0356 
58 1 11.3657 10.9278 11.675 
60 1 12.2725 8.04922 9.59398 
61 1 10.4688 8.86705 6.76653 
73 1 9.23748 8.93083 9.07574 
75 1 12.6933 8.82406 11.7954 
76 1 12.2928 10.0957 10.9882 
79 1 9.18549 7.66341 9.78229 
80 1 8.34462 12.5039 12.3017 
89 1 10.9506 10.1295 8.99111 
93 1 8.33897 8.90033 11.6574 
95 1 10.0324 11.0215 9.71823 
105 1 10.2703 11.486 11.017 
109 1 8.66504 7.63973 11.0603 
110 1 12.0617 9.63543 9.72414 
114 1 8.8466 10.1801 9.74374 
119 1 8.32972 10.166 1.31543 
120 1 12.3169 8.11978 2.68077 
123 1 12.2569 10.093 1.29897 
124 1 9.17882 7.6645 2.54904 
128 1 10.0261 11.0253 2.63762 
6 1 5.06817 8.22726 13.554 
13 1 9.66441 10.2473 25.0855 
17 1 9.14104 8.94018 25.1618 
30 1 9.90286 7.72619 25.0357 
34 1 11.2416 7.51851 25.1538 
36 1 8.34355 12.4942 25.7667 
46 1 11.6813 8.83764 25.0806 
50 1 11.026 10.1285 25.2235 
55 1 9.61729 10.245 13.0187 
59 1 10.9824 10.1387 12.8923 
74 1 11.6616 8.84985 12.9901 
78 1 11.2471 7.53231 12.8919 
90 1 9.9148 7.72563 13.0246 
94 1 9.144 8.93285 12.9179 
101 1 5.0443 8.21839 24.5352 
33 1 11.7042 6.63114 0.700776 
77 1 11.7738 6.70953 11.7072 
41 1 17.8384 6.07454 13.5443 
68 1 17.8463 6.18269 24.5273 
103 1 19.159 6.11333 22.5681 
126 1 19.1706 6.10548 15.5351 
3 1 19.5339 6.8926 12.2591 
7 1 20.0583 8.17529 12.2751 
10 1 15.1274 8.45632 12.8372 
22 1 19.2805 9.39176 12.1772 
26 1 17.9445 9.61461 12.2305 
38 1 17.4753 8.31994 12.2224 
42 1 18.1275 6.96918 12.3806 
44 1 20.1276 11.8771 12.8176 
48 1 12.5809 7.55207 1.42151 
65 1 19.585 6.81928 0.12963 
69 1 18.2438 7.02822 0.0367838 
82 1 17.4971 8.33569 0.112419 
86 1 17.923 9.65717 0.0164763 
96 1 14.0389 8.68769 12.3592 
98 1 19.2507 9.43543 0.11865 
102 1 19.9937 8.16969 0.0784689 
113 1 12.5506 7.55561 10.9453 
1 1 17.9151 9.53559 16.3096 
2 1 18.6716 8.32216 16.9498 
8 1 18.8015 10.5218 15.5886 
9 1 18.7183 8.27576 18.4355 
20 1 14.0671 8.68005 25.7083 
21 1 18.2377 7.01506 16.2008 
23 1 19.7676 10.6117 13.2912 
24 1 20.4985 9.46389 14.1724 
25 1 17.4468 10.506 13.5477 
27 1 17.1647 7.51062 15.4326 
37 1 19.9588 8.21303 16.129 
39 1 16.4724 8.37407 13.3749 
40 1 16.6264 9.5623 14.2799 
63 1 17.9405 9.55526 21.7787 
64 1 18.6589 8.32442 21.1234 
70 1 16.8768 9.02348 22.5261 
71 1 18.7193 8.2679 19.6461 
72 1 20.1055 11.8361 25.2487 
81 1 19.9834 8.2045 21.9328 
83 1 16.4975 8.31334 24.714 
84 1 16.9273 7.03736 23.9089 
85 1 17.4267 10.4644 24.555 
87 1 20.0218 9.47059 22.6596 
97 1 18.2397 7.00695 21.8723 
99 1 19.7333 10.5775 24.7878 
100 1 18.5171 10.9178 23.8199 
104 1 15.1451 8.44911 25.2338 
108 1 18.8103 10.3769 22.5722 
111 1 20.5155 9.47273 23.9407 
112 1 17.1143 7.52246 22.6104 
115 1 16.6131 9.57266 23.8054 
118 1 16.8847 9.04042 15.5636 
121 1 16.966 7.03516 14.1292 
122 1 20.0166 9.45132 15.4129 
125 1 18.4223 10.8942 14.1209 
129 2 18.7321 11.7262 15.6324 
130 3 18.6645 12.7629 15.5347 
ITEM: TIMESTEP
30
ITEM: NUMBER OF ATOMS
130
ITEM: BOX BOUNDS xy xz yz pp pp pp
0.0000000000000000e+00 2.3654499999999999e+01 7.8845000000000001e+00
0.0000000000000000e+00 1.3658086643083999e+01 0.0000000000000000e+00
0.0000000000000000e+00 2.5747000000000000e+01 0.0000000000000000e+00
ITEM: ATOMS id type x y z 
18 1 10.3522 6.79577 2.66559 
28 1 5.09439 4.63918 12.8783 
31 1 9.38033 6.55945 0.416079 
62 1 9.12606 5.30774 12.3174 
91 1 9.39477 6.60077 11.9316 
92 1 10.5934 6.17265 10.9925 
106 1 10.3639 6.79757 9.71228 
127 1 10.7691 6.2369 1.37213 
4 1 4.39825 5.89362 13.2846 
5 1 3.18078 5.62607 14.2207 
43 1 4.58812 6.97643 15.4736 
52 1 9.03647 5.29117 25.7033 
66 1 4.41639 5.85965 24.7875 
67 1 5.08097 6.9939 23.8924 
88 1 5.10348 4.61493 25.1838 
107 1 3.15567 5.67958 23.8757 
116 1 4.5856 6.97252 22.604 
117 1 5.0999 7.00115 14.1873 
11 1 11.2472 7.57854 3.4121 
12 1 10.5115 8.80869 4.07088 
14 1 9.02337 11.2379 0.4197 
15 1 10.2507 11.4634 1.33184 
16 1 8.31507 8.87946 0.667989 
19 1 10.4736 8.85871 5.56297 
29 1 10.935 10.1143 3.31618 
32 1 8.64393 7.64039 1.27085 
35 1 12.0859 9.62129 2.60558 
45 1 9.20637 8.9318 3.25413 
47 1 12.7047 8.84305 0.53834 
49 1 11.3905 10.9801 0.644954 
51 1 8.8397 10.1568 2.60233 
53 1 11.3264 7.59211 8.9612 
54 1 10.4895 8.84694 8.251 
56 1 9.02278 11.2379 11.931 
57 1 8.34803 10.1367 11.0357 
58 1 11.3922 10.9383 11.6964 
60 1 12.2574 8.05818 9.60069 
61 1 10.465 8.86636 6.77616 
73 1 9.21841 8.93277 9.07123 
75 1 12.6779 8.84735 11.7956 
76 1 12.3166 10.0812 10.9916 
79 1 9.18078 7.64506 9.77322 
80 1 8.33464 12.5032 12.3065 
89 1 10.9533 10.1233 8.99462 
93 1 8.30802 8.87575 11.6806 
95 1 10.0394 11.03 9.69728 
105 1 10.268 11.4434 11.0136 
109 1 8.6382 7.62864 11.0706 
110 1 12.091 9.63109 9.70869 
114 1 8.85635 10.1579 9.74159 
119 1 8.33312 10.1365 1.31104 
120 1 12.3137 8.10568 2.68547 
123 1 12.2955 10.1079 1.31309 
124 1 9.17026 7.6584 2.55226 
128 1 10.0375 11.0315 2.65118 
6 1 5.08719 8.24507 13.5451 
13 1 9.64777 10.2296 25.0961 
17 1 9.12067 8.92999 25.1482 
30 1 9.89971 7.7265 25.0357 
34 1 11.2366 7.53014 25.1484 
36 1 8.33106 12.4955 25.761 
46 1 11.6632 8.85158 25.0894 
50 1 11.0234 10.144 25.2066 
55 1 9.61961 10.2281 13.0146 
59 1 10.995 10.1463 12.8899 
74 1 11.6563 8.86114 12.9809 
78 1 11.2638 7.51109 12.8747 
90 1 9.90599 7.72313 13.0131 
94 1 9.12268 8.92326 12.9234 
101 1 5.06387 8.23652 24.5475 
33 1 11.6996 6.66438 0.704334 
77 1 11.7296 6.74711 11.7019 
41 1 17.8327 6.09103 13.5499 
68 1 17.8341 6.21299 24.5552 
103 1 19.1545 6.11076 22.5553 
126 1 19.163 6.09913 15.5386 
3 1 19.5339 6.90032 12.2639 
7 1 20.0823 8.19246 12.278 
10 1 15.1282 8.45647 12.8309 
22 1 19.2798 9.39351 12.1669 
26 1 17.9463 9.61374 12.2157 
38 1 17.4826 8.3168 12.2376 
42 1 18.113 6.94222 12.3694 
44 1 20.1735 11.8699 12.8109 
48 1 12.5651 7.59828 1.40975 
65 1 19.6105 6.82856 0.146251 
69 1 18.2398 7.02733 0.0409436 
82 1 17.5068 8.32595 0.114455 
86 1 17.9239 9.65092 -0.0054908 
96 1 14.036 8.68938 12.3616 
98 1 19.2548 9.43699 0.124094 
102 1 19.9891 8.17283 0.0820531 
113 1 12.5661 7.60663 10.9521 
1 1 17.9602 9.52123 16.2973 
2 1 18.6335 8.37384 16.9279 
8 1 18.808 10.5247 15.6317 
9 1 18.7189 8.27708 18.4406 
20 1 14.0668 8.67848 25.7011 
21 1 18.2603 7.0183 16.1776 
23 1 19.7782 10.6001 13.2949 
24 1 20.5262 9.46374 14.164 
25 1 17.4672 10.4828 13.5427 
27 1 17.1385 7.51157 15.4664 
37 1 19.9877 8.21518 16.103 
39 1 16.485 8.32598 13.3883 
40 1 16.6106 9.52045 14.2662 
63 1 17.9472 9.55438 21.7965 
64 1 18.6621 8.34475 21.1444 
70 1 16.8786 9.0158 22.5276 
71 1 18.7204 8.27249 19.6427 
72 1 20.1437 11.8518 25.2661 
81 1 19.979 8.19702 21.9515 
83 1 16.5177 8.27824 24.6964 
84 1 16.8898 7.03539 23.8932 
85 1 17.4289 10.4358 24.551 
87 1 20.0323 9.4659 22.6548 
97 1 18.2528 7.03125 21.8885 
99 1 19.7416 10.5548 24.7726 
100 1 18.5565 10.867 23.835 
104 1 15.1553 8.44395 25.2349 
108 1 18.8443 10.3595 22.5353 
111 1 20.5422 9.4695 23.931 
112 1 17.0965 7.51207 22.5951 
115 1 16.6122 9.52765 23.8203 
118 1 16.896 9.0089 15.5554 
121 1 16.9305 7.02316 14.1067 
122 1 20.0209 9.44708 15.4125 
125 1 18.4484 10.8739 14.1098 
129 2 18.7436 11.7202 15.6555 
130 3 18.667 12.7527 15.547 
ITEM: TIMESTEP
40
ITEM: NUMBER OF ATOMS
130
ITEM: BOX BOUNDS xy xz yz pp pp pp
0.0000000000000000e+00 2.3654499999999999e+01 7.8845000000000001e+00
0.0000000000000000e+00 1.3658086643083999e+01 0.0000000000000000e+00
0.0000000000000000e+00 2.5747000000000000e+01 0.0000000000000000e+00
ITEM: ATOMS id type x y z 
18 1 10.3572 6.79833 2.672 
28 1 5.08779 4.6628 12.8806 
31 1 9.37268 6.56195 0.413412 
62 1 9.15381 5.2912 12.2874 
91 1 9.38027 6.62712 11.9424 
92 1 10.5845 6.18713 11.0028 
106 1 10.3571 6.79416 9.72052 
127 1 10.7625 6.2499 1.36888 
4 1 4.4023 5.9056 13.283 
5 1 3.18634 5.62425 14.2307 
43 1 4.58777 6.97282 15.4726 
52 1 9.0157 5.29563 25.7031 
66 1 4.41908 5.8685 24.79 
67 1 5.08206 7.00277 23.9067 
88 1 5.09849 4.63328 25.1781 
107 1 3.15233 5.69198 23.8794 
116 1 4.58021 6.97381 22.6029 
117 1 5.10105 6.99875 14.1776 
11 1 11.2289 7.57983 3.41742 
12 1 10.5077 8.80024 4.07203 
14 1 9.0185 11.2308 0.418553 
15 1 10.2597 11.4519 1.32482 
16 1 8.30515 8.8696 0.663039 
19 1 10.4724 8.85692 5.56086 
29 1 10.9423 10.1072 3.31628 
32 1 8.62886 7.63677 1.27342 
35 1 12.0911 9.63317 2.61085 
45 1 9.20734 8.92866 3.2563 
47 1 12.71 8.85352 0.531069 
49 1 11.399 10.9699 0.650446 
51 1 8.84405 10.1562 2.59892 
53 1 11.3176 7.58859 8.97468 
54 1 10.4896 8.83457 8.24834 
56 1 9.01892 11.231 11.9335 
57 1 8.34505 10.1343 11.0414 
58 1 11.4007 10.9335 11.6878 
60 1 12.2593 8.06493 9.59503 
61 1 10.4643 8.86561 6.7716 
73 1 9.22881 8.92616 9.07039 
75 1 12.6788 8.85042 11.7993 
76 1 12.3284 10.0925 10.9857 
79 1 9.16882 7.64943 9.78113 
80 1 8.34422 12.475 12.3014 
89 1 10.9541 10.1178 8.99687 
93 1 8.29106 8.86957 11.6792 
95 1 10.0379 11.0219 9.69887 
105 1 10.271 11.4374 11.0205 
109 1 8.60456 7.64392 11.0416 
110 1 12.0903 9.63972 9.70761 
114 1 8.85606 10.1605 9.74461 
119 1 8.33615 10.1313 1.30418 
120 1 12.3195 8.12055 2.68942 
123 1 12.3095 10.1153 1.32637 
124 1 9.15306 7.66145 2.5479 
128 1 10.0346 11.0227 2.64784 
6 1 5.10219 8.25207 13.5395 
13 1 9.64324 10.2248 25.0942 
17 1 9.10898 8.92896 25.1467 
30 1 9.89367 7.72201 25.0329 
34 1 11.2364 7.53689 25.1476 
36 1 8.33938 12.4701 25.7662 
46 1 11.6661 8.85383 25.0956 
50 1 11.0187 10.1485 25.199 
55 1 9.61686 10.2294 13.0127 
59 1 10.994 10.1542 12.8949 
74 1 11.664 8.85411 12.9803 
78 1 11.2535 7.52012 12.8883 
90 1 9.9126 7.72937 13.0345 
94 1 9.11616 8.9246 12.9328 
101 1 5.06961 8.24153 24.5475 
33 1 11.693 6.6784 0.707471 
77 1 11.7216 6.73937 11.6755 
41 1 17.8278 6.07456 13.547 
68 1 17.8272 6.22424 24.5506 
103 1 19.1493 6.11863 22.556 
126 1 19.1703 6.10227 15.5333 
3 1 19.5336 6.90661 12.2741 
7 1 20.0751 8.1947 12.271 
10 1 15.1263 8.45084 12.828 
22 1 19.2828 9.39002 12.1645 
26 1 17.9499 9.61597 12.2144 
38 1 17.4873 8.31618 12.2307 
42 1 18.1017 6.94803 12.3782 
44 1 20.1949 11.863 12.8091 
48 1 12.5597 7.60796 1.40174 
65 1 19.6115 6.82442 0.149762 
69 1 18.2492 7.02848 0.0513306 
82 1 17.5092 8.31948 0.112333 
86 1 17.9226 9.65 0.000623436 
96 1 14.0323 8.69712 12.3618 
98 1 19.2595 9.43942 0.120899 
102 1 19.9959 8.17932 0.0824693 
113 1 12.5453 7.60562 10.9562 
1 1 17.9324 9.53375 16.2831 
2 1 18.6574 8.3624 16.9385 
8 1 18.8239 10.5232 15.6236 
9 1 18.7175 8.28074 18.4384 
20 1 14.062 8.68198 25.7023 
21 1 18.2554 7.03226 16.1777 
23 1 19.7917 10.5959 13.2891 
24 1 20.5307 9.47883 14.1698 
25 1 17.4717 10.461 13.5494 
27 1 17.1318 7.50786 15.4576 
37 1 19.9728 8.22503 16.1104 
39 1 16.4823 8.32475 13.384 
40 1 16.6228 9.51586 14.2705 
63 1 17.951 9.55196 21.7977 
64 1 18.6711 8.34747 21.1475 
70 1 16.8807 9.01229 22.5254 
71 1 18.7209 8.27492 19.6426 
72 1 20.1583 11.8417 25.2686 
81 1 19.9864 8.20921 21.9469 
83 1 16.5173 8.26498 24.7036 
84 1 16.8792 7.02485 23.8908 
85 1 17.4288 10.4247 24.5364 
87 1 20.0477 9.46176 22.6488 
97 1 18.2407 7.02915 21.8897 
99 1 19.761 10.5513 24.7801 
100 1 18.5673 10.8531 23.8285 
104 1 15.1532 8.43684 25.2371 
108 1 18.8439 10.3586 22.536 
111 1 20.5542 9.47498 23.94 
112 1 17.0916 7.50459 22.5885 
115 1 16.6147 9.52234 23.817 
118 1 16.9153 8.99721 15.5495 
121 1 16.922 7.01992 14.1109 
122 1 20.0277 9.45401 15.4053 
125 1 18.4498 10.8627 14.1164 
129 2 18.7489 11.7182 15.6661 
130 3 18.6684 12.7478 15.5538 
ITEM: TIMESTEP
50
ITEM: NUMBER OF ATOMS
130
ITEM: BOX BOUNDS xy xz yz pp pp pp
0.0000000000000000e+00 2.3654499999999999e+01 7.8845000000000001e+00
0.0000000000000000e+00 1.3658086643083999e+01 0.0000000000000000e+00
0.0000000000000000e+00 2.5747000000000000e+01 0.0000000000000000e+00
ITEM: ATOMS id type x y z 
18 1 10.3237 6.81355 2.67335 
28 1 5.08797 4.70325 12.8756 
31 1 9.34686 6.57467 0.408666 
62 1 9.20581 5.23981 12.2203 
91 1 9.31722 6.6985 11.9523 
92 1 10.5401 6.23898 11.0066 
106 1 10.3163 6.78437 9.7266 
127 1 10.7351 6.28705 1.36088 
4 1 4.39429 5.93137 13.2908 
5 1 3.17073 5.64404 14.2289 
43 1 4.58503 6.99946 15.4629 
52 1 8.94576 5.31307 25.7021 
66 1 4.4166 5.8984 24.7964 
67 1 5.08529 7.02469 23.9038 
88 1 5.10059 4.66223 25.169 
107 1 3.13998 5.72663 23.8861 
116 1 4.58007 6.98455 22.6217 
117 1 5.10747 7.03877 14.1787 
11 1 11.2408 7.58526 3.40687 
12 1 10.5034 8.78995 4.07595 
14 1 9.02982 11.1978 0.414357 
15 1 10.2793 11.4138 1.3195 
16 1 8.27031 8.84471 0.651935 
19 1 10.4672 8.85188 5.57026 
29 1 10.9375 10.0959 3.31464 
32 1 8.5852 7.61958 1.27204 
35 1 12.1207 9.65859 2.63711 
45 1 9.1887 8.92391 3.24361 
47 1 12.7123 8.9012 0.5342 
49 1 11.424 10.9438 0.650921 
51 1 8.83772 10.1389 2.58394 
53 1 11.3079 7.59023 8.99879 
54 1 10.4977 8.82373 8.25578 
56 1 9.02493 11.2012 11.9326 
57 1 8.32798 10.112 11.0332 
58 1 11.416 10.9233 11.6968 
60 1 12.2545 8.07985 9.58846 
61 1 10.4631 8.86007 6.78279 
73 1 9.21497 8.92596 9.06921 
75 1 12.6792 8.8792 11.7919 
76 1 12.365 10.1027 10.9767 
79 1 9.13509 7.6456 9.77295 
80 1 8.34366 12.4406 12.3025 
89 1 10.9579 10.1051 8.99269 
93 1 8.24936 8.87342 11.6955 
95 1 10.0469 11.0081 9.70335 
105 1 10.2829 11.4104 11.0176 
109 1 8.54561 7.6376 11.0571 
110 1 12.1115 9.65658 9.69896 
114 1 8.85606 10.1376 9.75224 
119 1 8.32666 10.0951 1.30015 
120 1 12.3064 8.13332 2.70521 
123 1 12.3628 10.1245 1.33939 
124 1 9.12887 7.65607 2.54667 
128 1 10.0534 11.0121 2.64017 
6 1 5.12983 8.278 13.5247 
13 1 9.63373 10.1994 25.0837 
17 1 9.08241 8.91002 25.1319 
30 1 9.89054 7.73082 25.0306 
34 1 11.2261 7.54123 25.1403 
36 1 8.34061 12.4327 25.7683 
46 1 11.652 8.86557 25.105 
50 1 11.0114 10.1567 25.179 
55 1 9.63391 10.2013 13.0098 
59 1 11.0131 10.1526 12.9016 
74 1 11.664 8.86936 12.9852 
78 1 11.2396 7.52821 12.8728 
90 1 9.8925 7.74349 13.0609 
94 1 9.08387 8.91388 12.9518 
101 1 5.09567 8.26254 24.566 
33 1 11.6748 6.71763 0.713053 
77 1 11.6851 6.75455 11.7096 
41 1 17.8102 6.06655 13.5587 
68 1 17.8184 6.24668 24.5633 
103 1 19.1442 6.1287 22.5609 
126 1 19.1727 6.12203 15.5409 
3 1 19.514 6.92441 12.279 
7 1 20.093 8.20234 12.2772 
10 1 15.1231 8.43638 12.8187 
22 1 19.2841 9.39609 12.1479 
26 1 17.951 9.60789 12.1953 
38 1 17.4892 8.31609 12.2291 
42 1 18.0963 6.94079 12.3854 
44 1 20.2707 11.8468 12.8004 
48 1 12.5459 7.66079 1.39865 
65 1 19.6267 6.84395 0.172557 
69 1 18.2572 7.03118 0.0626937 
82 1 17.5189 8.31526 0.117389 
86 1 17.929 9.63691 -0.00566698 
96 1 14.0343 8.71054 12.3618 
98 1 19.2589 9.44429 0.122641 
102 1 20.0068 8.18402 0.0889641 
113 1 12.5145 7.63293 10.9413 
1 1 17.97 9.52387 16.298 
2 1 18.6456 8.39141 16.9232 
8 1 18.8356 10.523 15.627 
9 1 18.717 8.29064 18.4356 
20 1 14.0615 8.69055 25.7003 
21 1 18.2561 7.04185 16.1757 
23 1 19.8137 10.5925 13.2783 
24 1 20.576 9.48525 14.1577 
25 1 17.5027 10.4369 13.5496 
27 1 17.1085 7.47816 15.459 
37 1 19.9959 8.23378 16.1 
39 1 16.4772 8.29399 13.3723 
40 1 16.6203 9.48177 14.2699 
63 1 17.9565 9.54964 21.8025 
64 1 18.6714 8.36535 21.1376 
70 1 16.8798 8.99747 22.5137 
71 1 18.721 8.28463 19.6376 
72 1 20.2146 11.8312 25.2846 
81 1 20.0001 8.20861 21.9536 
83 1 16.504 8.23294 24.7007 
84 1 16.8395 7.01562 23.8799 
85 1 17.4529 10.3923 24.5243 
87 1 20.0863 9.46692 22.6517 
97 1 18.2441 7.04934 21.8877 
99 1 19.7944 10.544 24.7865 
100 1 18.5987 10.8091 23.8392 
104 1 15.1494 8.41828 25.2417 
108 1 18.8762 10.3379 22.5246 
111 1 20.5948 9.48842 23.9239 
112 1 17.0647 7.48576 22.5801 
115 1 16.6187 9.47646 23.8181 
118 1 16.9232 8.95483 15.5315 
121 1 16.8965 6.98912 14.1037 
122 1 20.052 9.46913 15.4047 
125 1 18.4884 10.8371 14.1138 
129 2 18.7687 11.7134 15.7021 
130 3 18.6734 12.739 15.5797 
ITEM: TIMESTEP
60
ITEM: NUMBER OF ATOMS
130
ITEM: BOX BOUNDS xy xz yz pp pp pp
0.0000000000000000e+00 2.3654499999999999e+01 7.8845000000000001e+00
0.0000000000000000e+00 1.3658086643083999e+01 0.0000000000000000e+00
0.0000000000000000e+00 2.5747000000000000e+01 0.0000000000000000e+00
ITEM: ATOMS id type x y z 
18 1 10.318 6.82152 2.67332 
28 1 5.09008 4.72402 12.8713 
31 1 9.33083 6.57915 0.405709 
62 1 9.22519 5.24806 12.1841 
91 1 9.2891 6.71193 11.967 
92 1 10.5164 6.25874 11.0211 
106 1 10.2922 6.80238 9.7126 
127 1 10.718 6.30651 1.35843 
4 1 4.39204 5.94767 13.2955 
5 1 3.16843 5.65022 14.2384 
43 1 4.59132 7.00599 15.4572 
52 1 8.90442 5.32155 25.7004 
66 1 4.41708 5.9145 24.8025 
67 1 5.09287 7.04105 23.9133 
88 1 5.10273 4.67785 25.1641 
107 1 3.13194 5.74281 23.8895 
116 1 4.57871 6.98841 22.6242 
117 1 5.11453 7.05328 14.1745 
11 1 11.2302 7.5887 3.40912 
12 1 10.4959 8.782 4.07911 
14 1 9.03011 11.1783 0.411102 
15 1 10.2942 11.3984 1.31575 
16 1 8.25229 8.83238 0.6424 
19 1 10.4642 8.84797 5.56994 
29 1 10.9392 10.0842 3.31756 
32 1 8.55992 7.61103 1.27142 
35 1 12.1344 9.66231 2.64807 
45 1 9.19332 8.92284 3.24698 
47 1 12.7154 8.92054 0.532032 
49 1 11.4344 10.9271 0.648236 
51 1 8.83945 10.1374 2.5768 
53 1 11.2944 7.58694 9.00794 
54 1 10.4999 8.81156 8.25631 
56 1 9.02715 11.1856 11.9326 
57 1 8.31604 10.0995 11.0364 
58 1 11.4282 10.9206 11.6911 
60 1 12.2497 8.09061 9.58334 
61 1 10.4629 8.85581 6.78112 
73 1 9.21912 8.91788 9.06812 
75 1 12.6817 8.89025 11.7913 
76 1 12.3794 10.1167 10.9685 
79 1 9.11366 7.64523 9.77634 
80 1 8.34357 12.42 12.3035 
89 1 10.959 10.096 8.99425 
93 1 8.23068 8.87258 11.706 
95 1 10.0457 10.9978 9.70563 
105 1 10.2924 11.3975 11.0207 
109 1 8.52212 7.62818 11.0636 
110 1 12.1203 9.66185 9.69488 
114 1 8.85456 10.1359 9.75583 
119 1 8.32106 10.0788 1.2938 
120 1 12.3053 8.15516 2.70719 
123 1 12.3894 10.1368 1.35237 
124 1 9.1089 7.65339 2.54518 
128 1 10.0496 10.9983 2.63423 
6 1 5.14997 8.28923 13.5163 
13 1 9.62544 10.1873 25.0779 
17 1 9.06625 8.90288 25.1273 
30 1 9.88543 7.73172 25.0268 
34 1 11.2235 7.54644 25.137 
36 1 8.34142 12.4103 25.7694 
46 1 11.6511 8.86752 25.1093 
50 1 11.0092 10.1637 25.1721 
55 1 9.63192 10.1919 13.0103 
59 1 11.0189 10.1587 12.9087 
74 1 11.6518 8.86226 12.9907 
78 1 11.2351 7.5295 12.8859 
90 1 9.88398 7.74538 13.0606 
94 1 9.06266 8.91715 12.9568 
101 1 5.10849 8.27316 24.5686 
33 1 11.6641 6.73942 0.71481 
77 1 11.6828 6.76571 11.6979 
41 1 17.8008 6.05719 13.5584 
68 1 17.8105 6.25999 24.5644 
103 1 19.1396 6.13958 22.5627 
126 1 19.1749 6.12742 15.5374 
3 1 19.51 6.93794 12.2823 
7 1 20.0906 8.20954 12.2732 
10 1 15.1203 8.42957 12.814 
22 1 19.2865 9.39459 12.1419 
26 1 17.9543 9.60885 12.1923 
38 1 17.4913 8.31345 12.2265 
42 1 18.0884 6.93996 12.3906 
44 1 20.3131 11.8338 12.7966 
48 1 12.5386 7.6865 1.39964 
65 1 19.6349 6.84623 0.182723 
69 1 18.2666 7.03619 0.0724589 
82 1 17.5192 8.30951 0.116914 
86 1 17.9278 9.63605 -0.00232313 
96 1 14.0341 8.7162 12.3593 
98 1 19.2662 9.4457 0.123229 
102 1 20.0114 8.19066 0.094727 
113 1 12.4964 7.63802 10.9511 
1 1 17.9581 9.52848 16.2828 
2 1 18.6536 8.39282 16.9287 
8 1 18.8511 10.518 15.6322 
9 1 18.7164 8.29743 18.432 
20 1 14.0575 8.69768 25.7011 
21 1 18.2613 7.05592 16.1729 
23 1 19.8323 10.5861 13.2686 
24 1 20.5926 9.50214 14.1609 
25 1 17.5146 10.4117 13.554 
27 1 17.1007 7.4658 15.4557 
37 1 19.9889 8.24569 16.0982 
39 1 16.4758 8.28262 13.3706 
40 1 16.6341 9.46776 14.2623 
63 1 17.9594 9.54795 21.8036 
64 1 18.6783 8.36982 21.1388 
70 1 16.8813 8.98274 22.5079 
71 1 18.7214 8.2905 19.6343 
72 1 20.2474 11.8234 25.2933 
81 1 19.9989 8.20863 21.9507 
83 1 16.5023 8.21518 24.7053 
84 1 16.8246 7.00271 23.8749 
85 1 17.4597 10.373 24.5117 
87 1 20.1086 9.46819 22.6444 
97 1 18.2437 7.06093 21.8909 
99 1 19.816 10.5382 24.7928 
100 1 18.616 10.789 23.8378 
104 1 15.1425 8.40737 25.2459 
108 1 18.8889 10.3292 22.5245 
111 1 20.6223 9.49289 23.9294 
112 1 17.0572 7.48124 22.5717 
115 1 16.6238 9.46255 23.8154 
118 1 16.9425 8.94041 15.5298 
121 1 16.8802 6.97837 14.1048 
122 1 20.0655 9.47369 15.398 
125 1 18.4991 10.823 14.1083 
129 2 18.7798 11.7095 15.7211 
130 3 18.6768 12.7342 15.5961 
ITEM: TIMESTEP
70
ITEM: NUMBER OF ATOMS
130
ITEM: BOX BOUNDS xy xz yz pp pp pp
0.0000000000000000e+00 2.3654499999999999e+01 7.8845000000000001e+00
0.0000000000000000e+00 1.3658086643083999e+01 0.0000000000000000e+00
0.0000000000000000e+00 2.5747000000000000e+01 0.0000000000000000e+00
ITEM: ATOMS id type x y z 
18 1 10.3168 6.826 2.6705 
28 1 5.09559 4.73109 12.8659 
31 1 9.32152 6.5787 0.403921 
62 1 9.21023 5.26766 12.1807 
91 1 9.27788 6.69039 11.9841 
92 1 10.525 6.26151 11.0077 
106 1 10.2876 6.81371 9.7173 
127 1 10.7081 6.31157 1.35272 
4 1 4.39289 5.95334 13.2984 
5 1 3.16936 5.65046 14.2381 
43 1 4.59886 7.00805 15.4551 
52 1 8.87945 5.3282 25.6982 
66 1 4.41937 5.91937 24.8024 
67 1 5.09594 7.04452 23.9166 
88 1 5.108 4.68153 25.1629 
107 1 3.13404 5.74748 23.8948 
116 1 4.58335 6.99098 22.626 
117 1 5.12044 7.05724 14.1705 
11 1 11.2261 7.58953 3.40804 
12 1 10.4937 8.78263 4.08011 
14 1 9.02896 11.1707 0.412043 
15 1 10.2947 11.3937 1.31196 
16 1 8.24425 8.82923 0.63783 
19 1 10.4621 8.84477 5.57007 
29 1 10.938 10.0807 3.31654 
32 1 8.55161 7.60936 1.27207 
35 1 12.1381 9.66784 2.65056 