 # File generated with Atomsk by ana on 2024-09-05 17:51:55
  
          65  atoms
           2  atom types
 
      0.000000000000      14.190000000000  xlo xhi
      0.000000000000      14.190000000000  ylo yhi
      0.000000000000      14.190000000000  zlo zhi
 
Masses
 
            1   12.01100000             # C
            2   1.00800000              # H
 
Atoms # charge
 
         1    1   0.000000        0.759000000000       9.193000000000       9.193000000000
         2    1   0.000000        0.056000000000       9.896000000000       9.896000000000
         3    1   0.000000        2.098000000000       7.854000000000       9.193000000000
         4    1   0.000000        2.801000000000       7.151000000000       9.896000000000
         5    1   0.000000        0.759000000000       7.854000000000       7.854000000000
         6    1   0.000000        0.056000000000       7.151000000000       7.151000000000
         7    1   0.000000        2.098000000000       9.193000000000       7.854000000000
         8    1   0.000000        2.801000000000       9.896000000000       7.151000000000
         9    1   0.000000        9.193000000000       0.759000000000       9.193000000000
        10    1   0.000000        9.896000000000       0.056000000000       9.896000000000
        11    1   0.000000        9.193000000000       2.098000000000       7.854000000000
        12    1   0.000000        9.896000000000       2.801000000000       7.151000000000
        13    1   0.000000        7.854000000000       0.759000000000       7.854000000000
        14    1   0.000000        7.151000000000       0.056000000000       7.151000000000
        15    1   0.000000        7.854000000000       2.098000000000       9.193000000000
        16    1   0.000000        7.151000000000       2.801000000000       9.896000000000
        17    1   0.000000        9.193000000000       9.193000000000       0.759000000000
        18    1   0.000000        9.896000000000       9.896000000000       0.056000000000
        19    1   0.000000        7.854000000000       9.193000000000       2.098000000000
        20    1   0.000000        7.151000000000       9.896000000000       2.801000000000
        21    1   0.000000        7.854000000000       7.854000000000       0.759000000000
        22    1   0.000000        7.151000000000       7.151000000000       0.056000000000
        23    1   0.000000        9.193000000000       7.854000000000       2.098000000000
        24    1   0.000000        9.896000000000       7.151000000000       2.801000000000
        25    1   0.000000        4.307000000000      12.741000000000       4.307000000000
        26    1   0.000000        3.604000000000      13.443000000000       3.604000000000
        27    1   0.000000        5.646000000000      11.401000000000       4.307000000000
        28    1   0.000000        6.348000000000      10.699000000000       3.604000000000
        29    1   0.000000        5.646000000000      12.741000000000       5.646000000000
        30    1   0.000000        6.348000000000      13.443000000000       6.348000000000
        31    1   0.000000        4.307000000000      11.401000000000       5.646000000000
        32    1   0.000000        3.604000000000      10.699000000000       6.348000000000
        33    1   0.000000       12.741000000000       4.307000000000       4.307000000000
        34    1   0.000000       13.443000000000       3.604000000000       3.604000000000
        35    1   0.000000       11.401000000000       4.307000000000       5.646000000000
        36    1   0.000000       10.699000000000       3.604000000000       6.348000000000
        37    1   0.000000       12.741000000000       5.646000000000       5.646000000000
        38    1   0.000000       13.443000000000       6.348000000000       6.348000000000
        39    1   0.000000       11.401000000000       5.646000000000       4.307000000000
        40    1   0.000000       10.699000000000       6.348000000000       3.604000000000
        41    1   0.000000        4.307000000000       4.307000000000      12.741000000000
        42    1   0.000000        3.604000000000       3.604000000000      13.443000000000
        43    1   0.000000        4.307000000000       5.646000000000      11.401000000000
        44    1   0.000000        3.604000000000       6.348000000000      10.699000000000
        45    1   0.000000        5.646000000000       5.646000000000      12.741000000000
        46    1   0.000000        6.348000000000       6.348000000000      13.443000000000
        47    1   0.000000        5.646000000000       4.307000000000      11.401000000000
        48    1   0.000000        6.348000000000       3.604000000000      10.699000000000
        49    1   0.000000       12.741000000000      12.741000000000      12.741000000000
        50    1   0.000000       13.443000000000      13.443000000000      13.443000000000
        51    1   0.000000       12.740000000000      11.401000000000      11.401000000000
        52    1   0.000000       13.443000000000      10.699000000000      10.699000000000
        53    1   0.000000       11.401000000000      11.401000000000      12.741000000000
        54    1   0.000000       10.699000000000      10.699000000000      13.443000000000
        55    1   0.000000       11.401000000000      12.740000000000      11.401000000000
        56    1   0.000000       10.699000000000      13.443000000000      10.699000000000
        57    1   0.000000        2.098000000000       0.759000000000       2.098000000000
        58    1   0.000000        2.801000000000       0.056000000000       2.801000000000
        59    1   0.000000        0.759000000000       0.759000000000       0.759000000000
        60    1   0.000000        0.056000000000       0.056000000000       0.056000000000
        61    1   0.000000        0.759000000000       2.098000000000       2.098000000000
        62    1   0.000000        0.056000000000       2.801000000000       2.801000000000
        63    1   0.000000        2.098000000000       2.098000000000       0.759000000000
        64    1   0.000000        2.801000000000       2.801000000000       0.056000000000
        65    2   0.000000        0.565000000000      10.804000000000      10.243000000000
