ITEM: TIMESTEP
0
ITEM: NUMBER OF ATOMS
130
ITEM: BOX BOUNDS xy xz yz pp pp pp
0.0000000000000000e+00 2.3654499999999999e+01 7.8845000000000001e+00
0.0000000000000000e+00 1.3658086643083999e+01 0.0000000000000000e+00
0.0000000000000000e+00 2.5747000000000000e+01 0.0000000000000000e+00
ITEM: ATOMS id type x y z 
18 1 10.522 6.683 2.644 
28 1 5.247 4.273 12.803 
31 1 9.65 6.514 0.446 
62 1 9.171 5.15 12.405 
91 1 9.65 6.514 11.889 
92 1 10.81 6.18 11.007 
106 1 10.522 6.683 9.691 
127 1 10.81 6.18 1.328 
4 1 4.402 5.735 13.319 
5 1 3.307 5.568 14.201 
43 1 4.549 6.796 15.517 
52 1 9.172 5.15 25.677 
66 1 4.402 5.735 24.762 
67 1 5.003 6.76 23.881 
88 1 5.247 4.273 25.278 
107 1 3.307 5.568 23.881 
116 1 4.549 6.796 22.565 
117 1 5.003 6.76 14.201 
129 2 4.5 6.796 16.867 
130 3 4.5 5.82 16.867 
11 1 11.272 7.494 3.321 
12 1 10.477 8.871 4.018 
14 1 9.018 11.397 0.446 
15 1 10.114 11.565 1.328 
16 1 8.412 9.024 0.654 
19 1 10.477 8.871 5.569 
29 1 10.927 10.156 3.321 
32 1 8.77 7.648 1.328 
35 1 12.036 9.594 2.644 
45 1 9.231 8.963 3.321 
47 1 12.762 8.702 0.446 
49 1 11.224 11 0.654 
51 1 8.872 10.337 2.644 
53 1 11.272 7.494 9.014 
54 1 10.477 8.871 8.317 
56 1 9.018 11.397 11.889 
57 1 8.418 10.372 11.007 
58 1 11.224 11 11.681 
60 1 12.255 7.901 9.691 
61 1 10.477 8.871 6.766 
73 1 9.231 8.963 9.014 
75 1 12.762 8.702 11.889 
76 1 12.202 10.061 11.007 
79 1 9.224 7.617 9.691 
80 1 8.174 12.859 12.405 
89 1 10.927 10.156 9.014 
93 1 8.412 9.024 11.681 
95 1 9.951 11.095 9.691 
105 1 10.114 11.565 11.007 
109 1 8.77 7.648 11.007 
110 1 12.036 9.594 9.691 
114 1 8.872 10.337 9.691 
119 1 8.418 10.372 1.328 
120 1 12.255 7.901 2.644 
123 1 12.202 10.061 1.328 
124 1 9.224 7.617 2.644 
128 1 9.951 11.095 2.644 
6 1 5.009 8.108 13.527 
13 1 9.663 10.28 25.128 
17 1 9.204 8.965 25.162 
30 1 10.016 7.556 25.128 
34 1 11.289 7.464 25.162 
36 1 8.174 12.859 25.677 
46 1 11.752 8.777 25.128 
50 1 10.937 10.184 25.162 
55 1 9.663 10.28 12.954 
59 1 10.937 10.184 12.919 
74 1 11.752 8.777 12.954 
78 1 11.289 7.464 12.919 
90 1 10.016 7.556 12.954 
94 1 9.204 8.965 12.919 
101 1 5.009 8.108 24.555 
33 1 11.795 6.589 0.654 
77 1 11.795 6.589 11.681 
41 1 17.967 6.132 13.527 
68 1 17.967 6.132 24.554 
103 1 19.24 6.037 22.565 
126 1 19.24 6.037 15.517 
3 1 19.528 6.852 12.254 
7 1 19.987 8.167 12.289 
10 1 15.106 8.528 12.804 
22 1 19.175 9.576 12.254 
26 1 17.902 9.668 12.289 
38 1 17.439 8.356 12.254 
42 1 18.254 6.949 12.289 
44 1 20.019 11.982 12.804 
48 1 12.546 7.4 1.328 
65 1 19.528 6.852 0.081 
69 1 18.254 6.949 0.046 
82 1 17.439 8.356 0.081 
86 1 17.902 9.668 0.046 
96 1 14.084 8.604 12.405 
98 1 19.175 9.576 0.081 
102 1 19.987 8.167 0.046 
113 1 12.546 7.4 11.007 
1 1 17.919 9.638 16.194 
2 1 18.714 8.261 16.892 
8 1 18.669 10.449 15.517 
9 1 18.714 8.261 18.442 
20 1 14.084 8.604 25.677 
21 1 18.264 6.977 16.194 
23 1 19.541 10.618 13.32 
24 1 20.421 9.484 14.201 
25 1 17.396 10.544 13.527 
27 1 17.155 7.538 15.517 
37 1 19.96 8.169 16.194 
39 1 16.429 8.43 13.319 
40 1 16.644 9.732 14.201 
63 1 17.919 9.638 21.888 
64 1 18.714 8.261 21.19 
70 1 16.936 9.231 22.565 
71 1 18.714 8.261 19.64 
72 1 20.019 11.982 25.278 
81 1 19.96 8.169 21.888 
83 1 16.429 8.43 24.762 
84 1 16.989 7.071 23.881 
85 1 17.396 10.544 24.555 
87 1 19.967 9.515 22.565 
97 1 18.263 6.977 21.888 
99 1 19.541 10.618 24.762 
100 1 18.38 10.953 23.881 
104 1 15.106 8.528 25.278 
108 1 18.669 10.449 22.565 
111 1 20.421 9.484 23.881 
112 1 17.155 7.538 22.565 
115 1 16.644 9.732 23.881 
118 1 16.936 9.231 15.517 
121 1 16.989 7.071 14.201 
122 1 19.967 9.515 15.517 
125 1 18.38 10.953 14.201 
ITEM: TIMESTEP
10
ITEM: NUMBER OF ATOMS
130
ITEM: BOX BOUNDS xy xz yz pp pp pp
0.0000000000000000e+00 2.3654499999999999e+01 7.8845000000000001e+00
0.0000000000000000e+00 1.3658086643083999e+01 0.0000000000000000e+00
0.0000000000000000e+00 2.5747000000000000e+01 0.0000000000000000e+00
ITEM: ATOMS id type x y z 
18 1 10.3926 6.75644 2.644 
28 1 5.1538 4.4663 12.8625 
31 1 9.41718 6.46579 0.416579 
62 1 9.14972 5.26335 12.3729 
91 1 9.42004 6.47 11.9186 
92 1 10.7936 6.1667 10.9493 
106 1 10.3959 6.74293 9.69245 
127 1 10.8071 6.17076 1.3808 
4 1 4.44983 5.7523 13.2719 
5 1 3.21013 5.59404 14.2356 
43 1 4.65961 6.96038 15.6278 
52 1 9.14922 5.26061 25.7079 
66 1 4.45383 5.78425 24.8306 
67 1 5.06946 6.90384 23.9003 
88 1 5.15614 4.46195 25.22 
107 1 3.21466 5.58428 23.8522 
116 1 4.58796 6.92355 22.5847 
117 1 5.05197 6.86678 14.0566 
129 2 4.61561 6.71737 16.9592 
130 3 4.46818 5.76461 16.8044 
11 1 11.3338 7.55698 3.3326 
12 1 10.4939 8.82112 4.12234 
14 1 8.98417 11.3425 0.364096 
15 1 10.1988 11.5622 1.35804 
16 1 8.43559 8.93997 0.707732 
19 1 10.4724 8.86666 5.57031 
29 1 10.9529 10.1545 3.33098 
32 1 8.73728 7.68443 1.28979 
35 1 12.0172 9.59473 2.56852 
45 1 9.24428 8.96319 3.26349 
47 1 12.7578 8.74088 0.541699 
49 1 11.3004 11.027 0.724534 
51 1 8.82508 10.2054 2.62845 
53 1 11.3104 7.54254 8.97491 
54 1 10.4963 8.84837 8.22224 
56 1 8.98783 11.3492 11.9277 
57 1 8.33697 10.2439 11.0279 
58 1 11.3128 10.9318 11.6857 
60 1 12.2794 8.03262 9.63127 
61 1 10.474 8.87054 6.77492 
73 1 9.23782 8.97146 9.07076 
75 1 12.7441 8.77132 11.7793 
76 1 12.2375 10.055 11.0174 
79 1 9.21885 7.65235 9.77088 
80 1 8.27751 12.6491 12.3411 
89 1 10.9458 10.132 8.99964 
93 1 8.4279 8.93391 11.6184 
95 1 10.0381 11.0683 9.68738 
105 1 10.2167 11.5393 11.0173 
109 1 8.73887 7.68863 11.0555 
110 1 12.0282 9.60155 9.74066 
114 1 8.82425 10.1851 9.72244 
119 1 8.32145 10.2398 1.31227 
120 1 12.244 8.02832 2.72165 
123 1 12.1726 10.0521 1.20101 
124 1 9.23324 7.65469 2.56127 
128 1 10.0332 11.0496 2.63068 
6 1 4.96788 8.20514 13.5649 
13 1 9.53654 10.3137 25.1532 
17 1 9.15415 8.97356 25.1501 
30 1 9.95768 7.68228 25.0763 
34 1 11.3069 7.48083 25.1294 
36 1 8.26863 12.6643 25.7345 
46 1 11.713 8.74796 25.0567 
50 1 11.1165 10.1272 25.2573 
55 1 9.60917 10.3051 12.9864 
59 1 10.9994 10.115 12.8739 
74 1 11.6764 8.83486 13.0097 
78 1 11.3008 7.50657 12.9415 
90 1 9.94038 7.68286 12.9959 
94 1 9.1652 8.95304 12.9183 
101 1 4.99022 8.1824 24.4963 
33 1 11.7596 6.58155 0.659671 
77 1 11.7666 6.58398 11.6991 
41 1 17.9232 6.12162 13.5121 
68 1 17.8999 6.13708 24.5178 
103 1 19.162 6.08188 22.578 
126 1 19.0499 5.98385 15.5733 
3 1 19.6588 6.82551 12.2891 
7 1 20.0082 8.1851 12.2926 
10 1 15.1334 8.47554 12.834 
22 1 19.2388 9.43514 12.2127 
26 1 17.8904 9.65997 12.2456 
38 1 17.5115 8.32603 12.1782 
42 1 18.1336 7.0287 12.398 
44 1 20.0439 11.8824 12.8312 
48 1 12.603 7.5262 1.38183 
65 1 19.6436 6.79015 0.075635 
69 1 18.2195 7.06087 -0.0175792 
82 1 17.514 8.37273 0.160726 
86 1 17.8875 9.67455 0.0888663 
96 1 14.0343 8.66255 12.3646 
98 1 19.2166 9.44124 0.0939886 
102 1 19.9453 8.12333 0.0628362 
113 1 12.6042 7.54078 10.963 
1 1 17.8464 9.58758 16.226 
2 1 18.7218 8.25006 16.9569 
8 1 18.7847 10.434 15.5264 
9 1 18.7213 8.25282 18.4519 
20 1 14.0446 8.65487 25.7133 
21 1 18.1764 6.95202 16.1406 
23 1 19.7853 10.659 13.2865 
24 1 20.461 9.46614 14.1206 
25 1 17.4533 10.5674 13.541 
27 1 17.1632 7.54939 15.4865 
37 1 19.986 8.31054 16.1297 
39 1 16.4239 8.39866 13.4053 
40 1 16.577 9.61228 14.2508 
63 1 17.8613 9.57936 21.8758 
64 1 18.6954 8.31145 21.1064 
70 1 16.9473 9.1023 22.4757 
71 1 18.7153 8.26822 19.6301 
72 1 20.0429 11.8749 25.2487 
81 1 19.9478 8.16126 21.9534 
83 1 16.4252 8.37844 24.666 
84 1 16.9792 7.07027 23.9386 
85 1 17.4304 10.5525 24.5465 
87 1 19.953 9.48299 22.6388 
97 1 18.2455 6.97986 21.881 
99 1 19.7739 10.6506 24.8043 
100 1 18.3831 10.9738 23.829 
104 1 15.1381 8.47536 25.2442 
108 1 18.7974 10.3654 22.5594 
111 1 20.4441 9.43545 23.9434 
112 1 17.1794 7.53854 22.6317 
115 1 16.5793 9.62085 23.8321 
118 1 16.9254 9.08642 15.5976 
121 1 16.9536 7.0529 14.1088 
122 1 20.0109 9.54802 15.4252 
125 1 18.3418 10.9714 14.2166 
ITEM: TIMESTEP
20
ITEM: NUMBER OF ATOMS
130
ITEM: BOX BOUNDS xy xz yz pp pp pp
0.0000000000000000e+00 2.3654499999999999e+01 7.8845000000000001e+00
0.0000000000000000e+00 1.3658086643083999e+01 0.0000000000000000e+00
0.0000000000000000e+00 2.5747000000000000e+01 0.0000000000000000e+00
ITEM: ATOMS id type x y z 
18 1 10.3875 6.79724 2.64114 
28 1 5.12701 4.54574 12.8865 
31 1 9.41148 6.53854 0.410814 
62 1 9.07573 5.27147 12.3804 
91 1 9.40824 6.54111 11.9162 
92 1 10.7684 6.21766 10.9957 
106 1 10.376 6.78048 9.67775 
127 1 10.7685 6.20122 1.36191 
4 1 4.42455 5.73473 13.3204 
5 1 3.17943 5.60857 14.2681 
43 1 4.69546 7.05131 15.5516 
52 1 9.07556 5.28383 25.7029 
66 1 4.43641 5.81757 24.7914 
67 1 5.0758 6.97713 23.8925 
88 1 5.09872 4.60802 25.1861 
107 1 3.16783 5.64485 23.8679 
116 1 4.57438 6.95936 22.602 
117 1 4.9603 6.96359 14.0886 
129 2 4.70692 6.64779 17.0153 
130 3 4.41848 5.71424 16.7033 
11 1 11.3392 7.59216 3.37263 
12 1 10.5069 8.83938 4.09295 
14 1 8.97946 11.2931 0.390559 
15 1 10.2303 11.5492 1.37046 
16 1 8.34292 8.89184 0.681686 
19 1 10.471 8.8628 5.55852 
29 1 10.9627 10.1219 3.31859 
32 1 8.65712 7.65945 1.27963 
35 1 12.0239 9.61944 2.53858 
45 1 9.22676 8.93129 3.27528 
47 1 12.7244 8.76127 0.502276 
49 1 11.3697 11.0988 0.700713 
51 1 8.83526 10.1719 2.62061 
53 1 11.3374 7.58758 8.9584 
54 1 10.4989 8.83965 8.25071 
56 1 8.99765 11.2913 11.9367 
57 1 8.33676 10.1701 11.0261 
58 1 11.3739 10.9325 11.681 
60 1 12.2798 8.04469 9.59729 
61 1 10.4675 8.86516 6.77962 
73 1 9.22241 8.93058 9.07959 
75 1 12.7115 8.82376 11.7848 
76 1 12.286 10.0907 10.9913 
79 1 9.17503 7.66201 9.78748 
80 1 8.33926 12.498 12.305 
89 1 10.9464 10.1323 8.99851 
93 1 8.33786 8.89777 11.6477 
95 1 10.0391 11.0358 9.69596 
105 1 10.2597 11.4766 11.0105 
109 1 8.6661 7.66058 11.0552 
110 1 12.0661 9.63795 9.72045 
114 1 8.84705 10.1714 9.73486 
119 1 8.31258 10.1679 1.32101 
120 1 12.2559 8.07036 2.74483 
123 1 12.1777 10.0694 1.22268 
124 1 9.19638 7.6472 2.54756 
128 1 10.0135 11.043 2.64941 
6 1 5.0297 8.27733 13.5448 
13 1 9.66355 10.2248 25.1344 
17 1 9.11975 8.94427 25.1394 
30 1 9.90846 7.73063 25.0381 
34 1 11.2504 7.49463 25.1392 
36 1 8.32971 12.5067 25.7558 
46 1 11.7233 8.77861 25.089 
50 1 11.108 10.1608 25.2737 
55 1 9.62719 10.2478 13.0089 
59 1 10.9963 10.1317 12.9079 
74 1 11.6636 8.85496 12.9945 
78 1 11.2447 7.54035 12.9395 
90 1 9.90923 7.71903 13.0366 
94 1 9.14093 8.93879 12.9129 
101 1 5.04724 8.21947 24.5275 
33 1 11.7048 6.61111 0.700132 
77 1 11.7134 6.64444 11.6432 
41 1 17.8494 6.10597 13.5589 
68 1 17.8505 6.19955 24.5473 
103 1 19.1642 6.10647 22.574 
126 1 19.0783 6.00343 15.6465 
3 1 19.607 6.90731 12.3358 
7 1 20.0809 8.25142 12.2621 
10 1 15.1157 8.45481 12.8267 
22 1 19.2706 9.43362 12.1486 
26 1 17.9291 9.64417 12.2828 
38 1 17.5091 8.31326 12.2067 
42 1 18.1633 6.98883 12.4067 
44 1 20.1209 11.8776 12.8251 
48 1 12.5665 7.54474 1.41638 
65 1 19.5918 6.82909 0.137577 
69 1 18.2442 7.02336 0.0329741 
82 1 17.5063 8.32641 0.107871 
86 1 17.9259 9.65332 0.0207637 
96 1 14.0301 8.69118 12.3579 
98 1 19.2523 9.44721 0.116373 
102 1 19.9867 8.17138 0.0708864 
113 1 12.5601 7.57096 10.9261 
1 1 17.8632 9.55521 16.2598 
2 1 18.7293 8.23513 16.9142 
8 1 18.7991 10.3806 15.511 
9 1 18.7292 8.2528 18.4189 
20 1 14.0573 8.68448 25.7107 
21 1 18.1679 6.98957 16.1715 
23 1 19.8035 10.5874 13.2651 
24 1 20.5502 9.52394 14.1355 
25 1 17.5366 10.5906 13.4769 
27 1 17.1177 7.51477 15.4469 
37 1 19.9651 8.34154 16.1147 
39 1 16.4441 8.28605 13.3179 
40 1 16.5369 9.61846 14.2788 
63 1 17.8596 9.54017 21.8293 
64 1 18.6972 8.2816 21.1093 
70 1 16.922 9.08822 22.4685 
71 1 18.7211 8.26317 19.6259 
72 1 20.1169 11.8486 25.2626 
81 1 19.9636 8.20696 21.9305 
83 1 16.4863 8.301 24.7068 
84 1 16.9275 7.03882 23.8797 
85 1 17.4203 10.4597 24.5741 
87 1 20.012 9.4747 22.6642 
97 1 18.2364 6.99274 21.8643 
99 1 19.7314 10.5684 24.7787 
100 1 18.5476 10.9082 23.8201 
104 1 15.1528 8.44538 25.2416 
108 1 18.7993 10.364 22.5781 
111 1 20.5144 9.47152 23.945 
112 1 17.1365 7.50907 22.6157 
115 1 16.6174 9.59286 23.8086 
118 1 16.9264 9.01659 15.7398 
121 1 16.9286 7.01968 14.1026 
122 1 20.0309 9.55727 15.4311 
125 1 18.3915 10.9561 14.2303 
ITEM: TIMESTEP
30
ITEM: NUMBER OF ATOMS
130
ITEM: BOX BOUNDS xy xz yz pp pp pp
0.0000000000000000e+00 2.3654499999999999e+01 7.8845000000000001e+00
0.0000000000000000e+00 1.3658086643083999e+01 0.0000000000000000e+00
0.0000000000000000e+00 2.5747000000000000e+01 0.0000000000000000e+00
ITEM: ATOMS id type x y z 
18 1 10.3797 6.80378 2.64321 
28 1 5.12413 4.55605 12.8898 
31 1 9.39651 6.55107 0.413272 
62 1 9.06275 5.27672 12.3803 
91 1 9.39538 6.54854 11.918 
92 1 10.7653 6.23176 10.9794 
106 1 10.3745 6.7996 9.69137 
127 1 10.7663 6.21004 1.36486 
4 1 4.40067 5.74379 13.3234 
5 1 3.17707 5.62197 14.2745 
43 1 4.68838 7.07565 15.5305 
52 1 9.06292 5.29034 25.703 
66 1 4.42853 5.83543 24.7927 
67 1 5.07475 6.98264 23.8953 
88 1 5.0989 4.614 25.1846 
107 1 3.1623 5.65632 23.8777 
116 1 4.57617 6.97253 22.5996 
117 1 4.97386 6.98078 14.0943 
129 2 4.71654 6.62462 17.0575 
130 3 4.4115 5.70809 16.6908 
11 1 11.3336 7.59378 3.37435 
12 1 10.4961 8.84203 4.09105 
14 1 8.99377 11.265 0.405144 
15 1 10.2317 11.5299 1.35556 
16 1 8.33966 8.89336 0.685642 
19 1 10.4705 8.8629 5.56137 
29 1 10.9549 10.1222 3.31755 
32 1 8.65736 7.66074 1.2751 
35 1 12.0263 9.61907 2.55579 
45 1 9.23188 8.92727 3.26639 
47 1 12.7128 8.7536 0.505723 
49 1 11.3512 11.0816 0.682005 
51 1 8.83671 10.159 2.60897 
53 1 11.331 7.58562 8.96471 
54 1 10.4912 8.84064 8.24873 
56 1 9.00717 11.2688 11.932 
57 1 8.34271 10.1638 11.0251 
58 1 11.3763 10.935 11.6845 
60 1 12.2768 8.05032 9.5926 
61 1 10.467 8.86381 6.77826 
73 1 9.22821 8.93073 9.07912 
75 1 12.7057 8.82769 11.7801 
76 1 12.2954 10.0877 10.9898 
79 1 9.18274 7.65228 9.78661 
80 1 8.33697 12.4964 12.3063 
89 1 10.9491 10.1256 8.99619 
93 1 8.32468 8.89079 11.6505 
95 1 10.0365 11.0359 9.69847 
105 1 10.261 11.4622 11.0125 
109 1 8.66088 7.65216 11.0568 
110 1 12.0717 9.63888 9.71781 
114 1 8.84887 10.1661 9.73752 
119 1 8.33337 10.155 1.31259 
120 1 12.2633 8.07043 2.73497 
123 1 12.2116 10.0867 1.24482 
124 1 9.19044 7.65717 2.54299 
128 1 10.0146 11.0367 2.64943 
6 1 5.03324 8.28921 13.5395 
13 1 9.67777 10.2231 25.1509 
17 1 9.12637 8.94511 25.147 
30 1 9.90608 7.73562 25.0391 
34 1 11.2449 7.4996 25.1335 
36 1 8.33528 12.488 25.7581 
46 1 11.7071 8.80039 25.1032 
50 1 11.0787 10.1587 25.2579 
55 1 9.6278 10.24 13.0064 
59 1 10.9995 10.1373 12.9054 
74 1 11.6659 8.85705 12.9878 
78 1 11.2453 7.54105 12.9406 
90 1 9.90261 7.72163 13.0377 
94 1 9.13472 8.93749 12.9201 
101 1 5.05422 8.227 24.5319 
33 1 11.709 6.62507 0.709312 
77 1 11.7081 6.65432 11.6381 
41 1 17.8593 6.10318 13.5683 
68 1 17.8457 6.20375 24.544 
103 1 19.1599 6.10478 22.5655 
126 1 19.0788 6.00666 15.6404 
3 1 19.6066 6.90868 12.3423 
7 1 20.0907 8.24701 12.2508 
10 1 15.1216 8.45423 12.8267 
22 1 19.2746 9.43654 12.1463 
26 1 17.9252 9.64623 12.27 
38 1 17.5094 8.30991 12.2245 
42 1 18.156 6.98467 12.4068 
44 1 20.1327 11.8676 12.8269 
48 1 12.5516 7.56029 1.40627 
65 1 19.6022 6.8277 0.136388 
69 1 18.2392 7.02674 0.0384508 
82 1 17.5096 8.32513 0.103834 
86 1 17.9199 9.64888 0.0152923 
96 1 14.0257 8.69503 12.358 
98 1 19.255 9.44285 0.119823 
102 1 19.9895 8.17347 0.0737225 
113 1 12.5498 7.58417 10.9308 
1 1 17.8665 9.55938 16.2543 
2 1 18.7312 8.22839 16.9181 
8 1 18.8004 10.3635 15.5077 
9 1 18.731 8.24932 18.4114 
20 1 14.0598 8.68247 25.7096 
21 1 18.1676 6.99559 16.1698 
23 1 19.8188 10.5872 13.2594 
24 1 20.5583 9.53141 14.1349 
25 1 17.5314 10.5801 13.4904 
27 1 17.1137 7.51266 15.4509 
37 1 19.9738 8.33297 16.1093 
39 1 16.4569 8.27361 13.3177 
40 1 16.5411 9.60919 14.2811 
63 1 17.8557 9.53384 21.8334 
64 1 18.697 8.2825 21.1092 
70 1 16.9212 9.08913 22.4779 
71 1 18.7217 8.26386 19.6243 
72 1 20.1283 11.8492 25.2669 
81 1 19.9585 8.20745 21.9365 
83 1 16.4986 8.30638 24.6892 
84 1 16.92 7.0424 23.8827 
85 1 17.42 10.4499 24.5591 
87 1 20.0127 9.47035 22.6593 
97 1 18.2381 7.00766 21.8656 
99 1 19.7413 10.5644 24.7806 
100 1 18.5456 10.8925 23.8295 
104 1 15.1559 8.44633 25.2396 
108 1 18.8137 10.3571 22.5674 
111 1 20.5243 9.47036 23.9417 
112 1 17.1333 7.5047 22.6095 
115 1 16.6309 9.56248 23.8186 
118 1 16.9279 9.01631 15.7239 
121 1 16.9204 7.0237 14.1004 
122 1 20.0223 9.5702 15.4271 
125 1 18.3965 10.9488 14.2426 
ITEM: TIMESTEP
40
ITEM: NUMBER OF ATOMS
130
ITEM: BOX BOUNDS xy xz yz pp pp pp
0.0000000000000000e+00 2.3654499999999999e+01 7.8845000000000001e+00
0.0000000000000000e+00 1.3658086643083999e+01 0.0000000000000000e+00
0.0000000000000000e+00 2.5747000000000000e+01 0.0000000000000000e+00
ITEM: ATOMS id type x y z 
18 1 10.3723 6.80711 2.64842 
28 1 5.11927 4.57169 12.8947 
31 1 9.37985 6.55941 0.411464 
62 1 9.04157 5.28344 12.3804 
91 1 9.37754 6.55798 11.9243 
92 1 10.7632 6.24231 10.9784 
106 1 10.3675 6.80375 9.68982 
127 1 10.7606 6.22163 1.36707 
4 1 4.3806 5.75281 13.3242 
5 1 3.17677 5.6248 14.2779 
43 1 4.66881 7.10792 15.4949 
52 1 9.04097 5.29534 25.7019 
66 1 4.42399 5.85565 24.793 
67 1 5.07508 6.99333 23.8961 
88 1 5.10057 4.62094 25.183 
107 1 3.15622 5.6736 23.8776 
116 1 4.57008 6.97803 22.6019 
117 1 4.99 7.003 14.0983 
129 2 4.72726 6.58173 17.1342 
130 3 4.40725 5.70453 16.6708 
11 1 11.3312 7.60276 3.37577 
12 1 10.4946 8.84283 4.09596 
14 1 9.00802 11.2428 0.412149 
15 1 10.2386 11.5148 1.35177 
16 1 8.32846 8.88493 0.674141 
19 1 10.4691 8.86267 5.56031 
29 1 10.9511 10.1207 3.32104 
32 1 8.64219 7.65113 1.2709 
35 1 12.0352 9.62302 2.56527 
45 1 9.22595 8.92331 3.26698 
47 1 12.7016 8.77206 0.514217 
49 1 11.3568 11.0521 0.672728 
51 1 8.84347 10.1533 2.60658 
53 1 11.3326 7.59387 8.96171 
54 1 10.4865 8.84222 8.24325 
56 1 9.01442 11.2457 11.9305 
57 1 8.34311 10.1493 11.028 
58 1 11.3873 10.9348 11.689 
60 1 12.275 8.06143 9.58443 
61 1 10.466 8.86236 6.7779 
73 1 9.22636 8.92818 9.07656 
75 1 12.7016 8.83956 11.781 
76 1 12.3087 10.0924 10.9863 
79 1 9.1771 7.65003 9.78701 
80 1 8.33557 12.4897 12.3072 
89 1 10.951 10.1228 8.99423 
93 1 8.31047 8.8801 11.659 
95 1 10.0368 11.0314 9.69454 
105 1 10.2639 11.4477 11.015 
109 1 8.64611 7.64255 11.0621 
110 1 12.0816 9.6413 9.71096 
114 1 8.8541 10.1619 9.73728 
119 1 8.33035 10.1396 1.31269 
120 1 12.2631 8.07707 2.73733 
123 1 12.2401 10.1043 1.25743 
124 1 9.18356 7.6557 2.54343 
128 1 10.0158 11.0348 2.65253 
6 1 5.04068 8.30962 13.5208 
13 1 9.66488 10.2229 25.1474 
17 1 9.12111 8.94039 25.1492 
30 1 9.90623 7.73116 25.0347 
34 1 11.2385 7.50121 25.1295 
36 1 8.333 12.4799 25.7557 
46 1 11.7009 8.80521 25.1129 
50 1 11.0855 10.1708 25.2494 
55 1 9.628 10.2314 13.0073 
59 1 11.004 10.1447 12.9035 
74 1 11.6657 8.85753 12.9824 
78 1 11.2418 7.5395 12.9416 
90 1 9.89942 7.72595 13.0398 
94 1 9.1209 8.93148 12.9248 
101 1 5.06354 8.23696 24.5389 
33 1 11.6995 6.63652 0.706674 
77 1 11.6988 6.66738 11.6397 
41 1 17.8608 6.10619 13.5687 
68 1 17.8395 6.21268 24.5494 
103 1 19.1587 6.10789 22.5607 
126 1 19.0897 6.01617 15.6491 
3 1 19.6076 6.91223 12.3489 
7 1 20.0975 8.25016 12.2422 
10 1 15.1283 8.45488 12.8261 
22 1 19.2729 9.43321 12.1435 
26 1 17.9316 9.65466 12.2627 
38 1 17.5097 8.31597 12.2376 
42 1 18.1508 6.96991 12.4157 
44 1 20.1532 11.859 12.8274 
48 1 12.5503 7.57654 1.39954 
65 1 19.6087 6.82749 0.143635 
69 1 18.2432 7.02743 0.0421523 
82 1 17.508 8.32189 0.101919 
86 1 17.9206 9.6499 0.00898808 
96 1 14.0278 8.69902 12.3619 
98 1 19.2569 9.44145 0.121681 
102 1 19.9916 8.17649 0.0766447 
113 1 12.5434 7.5971 10.9307 
1 1 17.866 9.55327 16.2537 
2 1 18.7322 8.22414 16.9238 
8 1 18.7998 10.3605 15.5121 
9 1 18.7338 8.24509 18.4074 
20 1 14.0618 8.67966 25.7078 
21 1 18.1624 7.00525 16.174 
23 1 19.8341 10.5848 13.2503 
24 1 20.5733 9.54583 14.1336 
25 1 17.5345 10.5698 13.4947 
27 1 17.1058 7.50995 15.4568 
37 1 19.9931 8.31955 16.0973 
39 1 16.4683 8.25828 13.3153 
40 1 16.5368 9.59264 14.2756 
63 1 17.8596 9.52903 21.8325 
64 1 18.6961 8.28838 21.1004 
70 1 16.922 9.07698 22.4717 
71 1 18.7227 8.26381 19.6223 
72 1 20.1448 11.8465 25.2718 
81 1 19.9617 8.20958 21.935 
83 1 16.5108 8.29889 24.6821 
84 1 16.9044 7.04117 23.8808 
85 1 17.4285 10.4431 24.5567 
87 1 20.0177 9.47415 22.6557 
97 1 18.238 7.0144 21.8646 
99 1 19.7578 10.5584 24.7845 
100 1 18.5562 10.8721 23.8341 
104 1 15.1559 8.44514 25.2398 
108 1 18.8271 10.3498 22.5586 
111 1 20.5391 9.47314 23.9413 
112 1 17.1232 7.49989 22.5998 
115 1 16.6273 9.53905 23.8253 
118 1 16.9286 9.01152 15.7165 
121 1 16.9036 7.023 14.0992 
122 1 20.0263 9.57538 15.4224 
125 1 18.4008 10.939 14.2456 
ITEM: TIMESTEP
50
ITEM: NUMBER OF ATOMS
130
ITEM: BOX BOUNDS xy xz yz pp pp pp
0.0000000000000000e+00 2.3654499999999999e+01 7.8845000000000001e+00
0.0000000000000000e+00 1.3658086643083999e+01 0.0000000000000000e+00
0.0000000000000000e+00 2.5747000000000000e+01 0.0000000000000000e+00
ITEM: ATOMS id type x y z 
18 1 10.3593 6.82416 2.65706 
28 1 5.10975 4.60822 12.9042 
31 1 9.34379 6.5765 0.402177 
62 1 8.97819 5.30052 12.3814 
91 1 9.34423 6.57473 11.9381 
92 1 10.7371 6.27167 10.9765 
106 1 10.36 6.82233 9.68436 
127 1 10.7374 6.25639 1.36939 
4 1 4.37129 5.78736 13.3469 
5 1 3.17396 5.62575 14.2866 
43 1 4.59294 7.1076 15.4975 
52 1 8.97524 5.30906 25.6993 
66 1 4.42112 5.89269 24.794 
67 1 5.07855 7.02343 23.9017 
88 1 5.09918 4.6541 25.1735 
107 1 3.14334 5.71501 23.8778 
116 1 4.56097 6.99206 22.6083 
117 1 4.97593 7.07492 14.1164 
129 2 4.7348 6.49449 17.1822 
130 3 4.45161 5.70247 16.6418 
11 1 11.3235 7.62009 3.37212 
12 1 10.4923 8.8273 4.10062 
14 1 9.02357 11.1956 0.413249 
15 1 10.2425 11.4997 1.36425 
16 1 8.29655 8.85898 0.654086 
19 1 10.465 8.86066 5.55752 
29 1 10.9543 10.1112 3.31923 
32 1 8.59879 7.62789 1.27066 
35 1 12.0478 9.63708 2.57831 
45 1 9.22496 8.91872 3.26665 
47 1 12.7026 8.80873 0.526759 
49 1 11.372 11.0599 0.670074 
51 1 8.84352 10.1396 2.59786 
53 1 11.3226 7.60167 8.95636 
54 1 10.4882 8.82996 8.23285 
56 1 9.02093 11.2034 11.9341 
57 1 8.33644 10.1078 11.0339 
58 1 11.4134 10.9308 11.688 
60 1 12.2776 8.08622 9.56808 
61 1 10.4621 8.85942 6.77628 
73 1 9.22308 8.92367 9.07992 
75 1 12.6917 8.867 11.7773 
76 1 12.3427 10.1171 10.9688 
79 1 9.15517 7.65068 9.79507 
80 1 8.34069 12.4509 12.3049 
89 1 10.9502 10.1153 8.99487 
93 1 8.27709 8.85364 11.6792 
95 1 10.0409 11.0194 9.69612 
105 1 10.2798 11.4183 11.0184 
109 1 8.59972 7.62358 11.062 
110 1 12.1012 9.66188 9.69547 
114 1 8.85444 10.1505 9.74491 
119 1 8.3199 10.0985 1.3105 
120 1 12.2591 8.10649 2.73831 
123 1 12.2818 10.1046 1.24303 
124 1 9.15969 7.65204 2.53891 
128 1 10.0174 11.0302 2.65246 
6 1 5.08322 8.34563 13.492 
13 1 9.67307 10.2088 25.1513 
17 1 9.11049 8.92971 25.1431 
30 1 9.89453 7.73235 25.026 
34 1 11.2292 7.49773 25.1198 
36 1 8.33051 12.4464 25.751 
46 1 11.6947 8.79788 25.1234 
50 1 11.1017 10.1747 25.265 
55 1 9.62844 10.2112 13.0072 
59 1 11.0116 10.1561 12.9065 
74 1 11.6566 8.85866 12.9771 
78 1 11.2295 7.54233 12.9544 
90 1 9.89085 7.72994 13.0491 
94 1 9.08477 8.92063 12.9382 
101 1 5.08686 8.25695 24.5553 
33 1 11.6778 6.67212 0.708972 
77 1 11.6793 6.69511 11.6395 
41 1 17.8493 6.09855 13.5873 
68 1 17.8243 6.24238 24.5574 
103 1 19.1496 6.12236 22.5564 
126 1 19.1114 6.05239 15.6541 
3 1 19.6103 6.92804 12.3701 
7 1 20.1054 8.25906 12.2286 
10 1 15.1319 8.45718 12.8204 
22 1 19.2889 9.43546 12.1293 
26 1 17.9426 9.66523 12.2627 
38 1 17.5231 8.3187 12.2389 
42 1 18.1425 6.96897 12.4383 
44 1 20.2174 11.8564 12.8211 
48 1 12.5346 7.61337 1.39289 
65 1 19.6223 6.83347 0.165417 
69 1 18.2555 7.02811 0.0526904 
82 1 17.5107 8.31907 0.0989224 
86 1 17.9262 9.65114 0.00626336 
96 1 14.033 8.71167 12.3713 
98 1 19.2607 9.4396 0.126867 
102 1 20.0004 8.18026 0.0845313 
113 1 12.5288 7.63603 10.9258 
1 1 17.8722 9.52717 16.2539 
2 1 18.7435 8.22237 16.9239 
8 1 18.81 10.3455 15.5206 
9 1 18.7422 8.2393 18.3999 
20 1 14.0601 8.67647 25.7059 
21 1 18.1439 7.03913 16.2024 
23 1 19.8683 10.5748 13.2306 
24 1 20.611 9.58271 14.1326 
25 1 17.5487 10.5403 13.4927 
27 1 17.0799 7.50016 15.4637 
37 1 20.0382 8.30717 16.0631 
39 1 16.4915 8.2255 13.3111 
40 1 16.5302 9.57067 14.2589 
63 1 17.8669 9.51513 21.8296 
64 1 18.7013 8.30258 21.0849 
70 1 16.9295 9.05009 22.4623 
71 1 18.7268 8.2624 19.6154 
72 1 20.1944 11.836 25.2853 
81 1 19.9631 8.21815 21.923 
83 1 16.5182 8.26924 24.6843 
84 1 16.8674 7.02997 23.8658 
85 1 17.438 10.4069 24.5387 
87 1 20.0499 9.47583 22.6511 
97 1 18.2332 7.02786 21.8583 
99 1 19.8006 10.5427 24.7952 
100 1 18.5956 10.825 23.8322 
104 1 15.1537 8.43221 25.2427 
108 1 18.8433 10.3344 22.5506 
111 1 20.5801 9.48748 23.935 
112 1 17.0984 7.4821 22.5788 
115 1 16.6356 9.51084 23.8162 
118 1 16.9278 8.9948 15.7152 
121 1 16.8748 6.99039 14.1068 
122 1 20.0447 9.58723 15.4096 
125 1 18.4068 10.9099 14.2541 
ITEM: TIMESTEP
60
ITEM: NUMBER OF ATOMS
130
ITEM: BOX BOUNDS xy xz yz pp pp pp
0.0000000000000000e+00 2.3654499999999999e+01 7.8845000000000001e+00
0.0000000000000000e+00 1.3658086643083999e+01 0.0000000000000000e+00
0.0000000000000000e+00 2.5747000000000000e+01 0.0000000000000000e+00
ITEM: ATOMS id type x y z 
18 1 10.3513 6.82966 2.65562 
28 1 5.1083 4.62391 12.9077 
31 1 9.33257 6.57785 0.401524 
62 1 8.94889 5.30444 12.3843 
91 1 9.33385 6.57765 11.9368 
92 1 10.7305 6.28583 10.9826 
106 1 10.3526 6.82983 9.68748 
127 1 10.7217 6.26465 1.36258 
4 1 4.3746 5.80304 13.3526 
5 1 3.17039 5.63117 14.2929 
43 1 4.60428 7.11836 15.4746 
52 1 8.94568 5.31458 25.6974 
66 1 4.42254 5.90201 24.796 
67 1 5.08048 7.03222 23.9027 
88 1 5.10154 4.66461 25.17 
107 1 3.14051 5.72341 23.8796 
116 1 4.56413 6.99553 22.6108 
117 1 4.98902 7.07305 14.104 
129 2 4.74093 6.45601 17.2279 
130 3 4.46488 5.69507 16.6304 
11 1 11.3232 7.62351 3.37423 
12 1 10.4932 8.82655 4.09793 
14 1 9.01855 11.1908 0.417255 
15 1 10.2475 11.4952 1.36104 
16 1 8.28301 8.84806 0.65492 
19 1 10.4632 8.8581 5.55784 
29 1 10.9462 10.1068 3.3187 
32 1 8.58561 7.62457 1.27068 
35 1 12.0562 9.64985 2.57585 
45 1 9.22501 8.91687 3.26476 
47 1 12.7052 8.8046 0.515703 
49 1 11.3798 11.0661 0.67952 
51 1 8.83962 10.1375 2.59389 
53 1 11.3285 7.60619 8.96032 
54 1 10.4864 8.82733 8.23868 
56 1 9.02287 11.1926 11.9305 
57 1 8.33236 10.099 11.037 
58 1 11.4179 10.9294 11.687 
60 1 12.2701 8.09134 9.56668 
61 1 10.4603 8.85792 6.77365 
73 1 9.22172 8.92298 9.08166 
75 1 12.7009 8.87651 11.7793 
76 1 12.3526 10.1197 10.9646 
79 1 9.14558 7.65038 9.79768 
80 1 8.34072 12.4359 12.3055 
89 1 10.9519 10.1122 8.99499 
93 1 8.26593 8.84456 11.6796 
95 1 10.0389 11.0135 9.70118 
105 1 10.2818 11.4116 11.0207 
109 1 8.58536 7.62128 11.0625 
110 1 12.1077 9.66854 9.6917 
114 1 8.85088 10.1429 9.75072 
119 1 8.31804 10.0901 1.30605 
120 1 12.2547 8.1112 2.74153 
123 1 12.2855 10.1253 1.25247 
124 1 9.14665 7.65062 2.53596 
128 1 10.0134 11.0257 2.65345 
6 1 5.09376 8.36187 13.488 
13 1 9.67653 10.2007 25.1502 
17 1 9.10574 8.92872 25.1395 
30 1 9.89454 7.72855 25.0229 
34 1 11.2262 7.49388 25.1145 
36 1 8.32995 12.4287 25.7488 
46 1 11.6956 8.79761 25.1227 
50 1 11.101 10.1728 25.2643 
55 1 9.62929 10.2029 13.0049 
59 1 11.0121 10.1518 12.9101 
74 1 11.6526 8.86163 12.9741 
78 1 11.2288 7.54518 12.9543 
90 1 9.88491 7.73054 13.0546 
94 1 9.07913 8.91546 12.9469 
101 1 5.09428 8.26396 24.5567 
33 1 11.6697 6.6808 0.712961 
77 1 11.6723 6.71073 11.6323 
41 1 17.8463 6.08886 13.5932 
68 1 17.8214 6.24937 24.5571 
103 1 19.1502 6.13057 22.5589 
126 1 19.0948 6.05537 15.6646 
3 1 19.6023 6.93655 12.3653 
7 1 20.1107 8.26056 12.2278 
10 1 15.1339 8.45706 12.819 
22 1 19.2922 9.43901 12.1254 
26 1 17.9477 9.66144 12.2552 
38 1 17.5241 8.32136 12.245 
42 1 18.1463 6.96556 12.4434 
44 1 20.2429 11.8513 12.8187 
48 1 12.5351 7.61785 1.3953 
65 1 19.6246 6.83814 0.168792 
69 1 18.2573 7.03463 0.0564646 
82 1 17.5149 8.31808 0.101425 
86 1 17.9274 9.64653 0.00824288 
96 1 14.0289 8.71605 12.3689 
98 1 19.2662 9.44201 0.127426 
102 1 20.0051 8.18438 0.0889401 
113 1 12.5161 7.64774 10.9273 
1 1 17.8722 9.5236 16.2479 
2 1 18.7527 8.23195 16.9176 
8 1 18.8133 10.3386 15.5193 
9 1 18.7476 8.23988 18.3965 
20 1 14.0638 8.6803 25.7037 
21 1 18.1396 7.02786 16.1931 
23 1 19.8762 10.5795 13.2239 
24 1 20.6277 9.59098 14.1244 
25 1 17.5518 10.5362 13.4969 
27 1 17.0731 7.4916 15.4672 
37 1 20.0274 8.32686 16.0872 
39 1 16.4822 8.22011 13.3069 
40 1 16.5343 9.5606 14.2593 
63 1 17.8688 9.51232 21.8275 
64 1 18.6993 8.3064 21.0857 
70 1 16.9307 9.04216 22.4577 
71 1 18.7292 8.26434 19.6134 
72 1 20.2171 11.8291 25.2904 
81 1 19.9651 8.21908 21.9235 
83 1 16.513 8.26603 24.6786 
84 1 16.8601 7.02503 23.8617 
85 1 17.449 10.3999 24.533 
87 1 20.063 9.47606 22.648 
97 1 18.2327 7.03258 21.8552 
99 1 19.8117 10.5391 24.7969 
100 1 18.6037 10.814 23.836 
104 1 15.1538 8.42483 25.2419 
108 1 18.8554 10.3229 22.5504 
111 1 20.5949 9.49058 23.9342 
112 1 17.0909 7.4774 22.5738 
115 1 16.6403 9.4966 23.8133 
118 1 16.9261 8.99182 15.7113 
121 1 16.8735 6.98982 14.1089 
122 1 20.06 9.59235 15.4046 
125 1 18.4132 10.9012 14.2547 
ITEM: TIMESTEP
70
ITEM: NUMBER OF ATOMS
130
ITEM: BOX BOUNDS xy xz yz pp pp pp
0.0000000000000000e+00 2.3654499999999999e+01 7.8845000000000001e+00
0.0000000000000000e+00 1.3658086643083999e+01 0.0000000000000000e+00
0.0000000000000000e+00 2.5747000000000000e+01 0.0000000000000000e+00
ITEM: ATOMS id type x y z 
18 1 10.3378 6.84322 2.64978 
28 1 5.10942 4.65169 12.9128 
31 1 9.31091 6.57797 0.396915 
62 1 8.88737 5.32036 12.3881 
91 1 9.31384 6.57992 11.9384 
92 1 10.7027 6.30854 10.9919 
106 1 10.3382 6.84324 9.69187 
127 1 10.6914 6.28651 1.35387 
4 1 4.37325 5.82962 13.3637 
5 1 3.16595 5.64555 14.3107 
43 1 4.60212 7.14944 15.4547 
52 1 8.88141 5.32681 25.6927 
66 1 4.42374 5.92068 24.799 
67 1 5.08737 7.04937 23.9053 
88 1 5.10824 4.68502 25.1631 
107 1 3.13608 5.74281 23.8841 
116 1 4.57128 7.00342 22.6142 
117 1 5.01033 7.09453 14.0877 
129 2 4.74849 6.36735 17.3186 
130 3 4.48611 5.69437 16.595 
11 1 11.3199 7.62793 3.37158 
12 1 10.4932 8.82311 4.09285 
14 1 9.01728 11.1757 0.421367 
15 1 10.2488 11.4878 1.36135 
16 1 8.258 8.83279 0.642194 
19 1 10.4594 8.85297 5.55955 