ITEM: TIMESTEP
0
ITEM: NUMBER OF ATOMS
34
ITEM: BOX BOUNDS pp pp pp
0.0000000000000000e+00 7.0970000000000004e+00
0.0000000000000000e+00 7.0970000000000004e+00
0.0000000000000000e+00 2.4588000000000001e+01
ITEM: ATOMS id type x y z 
2 1 3.339 1.632 13.319 
5 1 4.651 1.581 18.133 
7 1 3.391 1.602 15.981 
8 1 2.166 1.581 18.134 
18 1 3.408 1.581 17.416 
21 1 3.338 2.875 12.602 
23 1 3.367 1.619 14.753 
24 1 3.338 0.39 12.601 
17 1 7.023 2.875 24.28 
19 1 6.997 1.619 22.129 
20 1 7.023 0.39 24.281 
22 1 6.957 1.581 19.466 
25 1 5.714 1.581 18.748 
27 1 6.974 1.602 20.9 
28 1 1.102 1.581 18.748 
30 1 7.024 1.631 23.563 
10 1 6.954 5.232 5.122 
13 1 7.023 3.938 0.307 
15 1 6.994 5.194 2.459 
16 1 7.023 6.423 0.307 
26 1 7.022 5.181 1.025 
29 1 5.711 5.232 5.839 
31 1 6.97 5.211 3.688 
32 1 1.098 5.232 5.84 
1 1 4.647 5.232 6.454 
3 1 3.388 5.211 8.606 
4 1 2.163 5.232 6.454 
6 1 3.338 5.182 11.269 
9 1 3.338 3.939 11.986 
11 1 3.365 5.194 9.834 
12 1 3.338 6.423 11.987 
14 1 3.404 5.232 7.171 
33 2 3.177 4.191 13.313 
34 3 3.177 4.191 14.289 
ITEM: TIMESTEP
10
ITEM: NUMBER OF ATOMS
34
ITEM: BOX BOUNDS pp pp pp
0.0000000000000000e+00 7.0970000000000004e+00
0.0000000000000000e+00 7.0970000000000004e+00
0.0000000000000000e+00 2.4588000000000001e+01
ITEM: ATOMS id type x y z 
2 1 3.36429 1.64734 13.2927 
5 1 4.66315 1.58365 18.1384 
7 1 3.38387 1.6002 15.984 
8 1 2.14996 1.55105 18.1353 
18 1 3.41221 1.59377 17.4786 
21 1 3.32986 2.87524 12.5243 
23 1 3.37044 1.60387 14.7787 
24 1 3.30852 0.388968 12.5878 
17 1 6.99466 2.8899 24.2753 
19 1 7.00175 1.61953 22.1305 
20 1 7.00167 0.386063 24.2941 
22 1 6.95598 1.58267 19.4667 
25 1 5.71716 1.57888 18.7529 
27 1 6.96908 1.60375 20.9012 
28 1 1.10261 1.59327 18.7515 
30 1 7.03437 1.63137 23.564 
10 1 6.95249 5.23158 5.11887 
13 1 7.05582 3.92182 0.313152 
15 1 6.98616 5.19269 2.46295 
16 1 7.04852 6.4274 0.292967 
26 1 7.00581 5.18163 1.0248 
29 1 5.71307 5.23307 5.83468 
31 1 6.97265 5.21049 3.68143 
32 1 1.09592 5.23262 5.84181 
1 1 4.65867 5.23237 6.4495 
3 1 3.39365 5.21102 8.56265 
4 1 2.1521 5.23213 6.44384 
6 1 3.33135 5.04367 11.2955 
9 1 3.32638 3.78363 11.8469 
11 1 3.36536 5.19488 9.78119 
12 1 3.3502 6.38731 11.9755 
14 1 3.40582 5.23239 7.12795 
33 2 3.24169 4.39901 13.4953 
34 3 3.12677 4.31376 14.3988 
ITEM: TIMESTEP
20
ITEM: NUMBER OF ATOMS
34
ITEM: BOX BOUNDS pp pp pp
0.0000000000000000e+00 7.0970000000000004e+00
0.0000000000000000e+00 7.0970000000000004e+00
0.0000000000000000e+00 2.4588000000000001e+01
ITEM: ATOMS id type x y z 
2 1 3.34921 1.60082 13.3119 
5 1 4.65672 1.58206 18.1367 
7 1 3.3883 1.59724 15.9764 
8 1 2.15733 1.57229 18.1296 
18 1 3.40799 1.58519 17.4172 
21 1 3.33875 2.79982 12.5086 
23 1 3.36989 1.60918 14.7614 
24 1 3.33302 0.352586 12.5721 
17 1 7.02462 2.88492 24.2703 
19 1 6.99156 1.62047 22.1288 
20 1 7.02413 0.39388 24.2944 
22 1 6.95565 1.58268 19.4707 
25 1 5.71118 1.58761 18.7524 
27 1 6.97401 1.60324 20.9083 
28 1 1.10875 1.57362 18.756 
30 1 7.02335 1.63215 23.5643 
10 1 6.95386 5.23125 5.11334 
13 1 7.02524 3.927 0.318437 
15 1 6.99349 5.19258 2.45735 
16 1 7.02556 6.41924 0.292806 
26 1 7.02055 5.18046 1.0213 
29 1 5.71115 5.23353 5.83564 
31 1 6.96745 5.21069 3.6775 
32 1 1.09578 5.23235 5.8417 
1 1 4.65502 5.23304 6.44718 
3 1 3.3914 5.20937 8.59224 
4 1 2.15773 5.23406 6.44289 
6 1 3.33365 5.13782 11.2431 
9 1 3.33266 3.78724 11.7927 
11 1 3.36572 5.18617 9.81435 
12 1 3.33041 6.38184 11.9876 
14 1 3.40562 5.2332 7.15831 
33 2 3.24076 4.44733 13.5571 
34 3 3.1215 4.3361 14.4513 
ITEM: TIMESTEP
30
ITEM: NUMBER OF ATOMS
34
ITEM: BOX BOUNDS pp pp pp
0.0000000000000000e+00 7.0970000000000004e+00
0.0000000000000000e+00 7.0970000000000004e+00
0.0000000000000000e+00 2.4588000000000001e+01
ITEM: ATOMS id type x y z 
2 1 3.34367 1.59362 13.2994 
5 1 4.65654 1.58101 18.1286 
7 1 3.39194 1.59715 15.9637 
8 1 2.16104 1.57885 18.1288 
18 1 3.40629 1.58128 17.4084 
21 1 3.34027 2.77212 12.4679 
23 1 3.36967 1.60843 14.7462 
24 1 3.33786 0.339814 12.5835 
17 1 7.02354 2.88031 24.2758 
19 1 6.99432 1.62493 22.1246 
20 1 7.02407 0.391644 24.2903 
22 1 6.9573 1.57784 19.4656 
25 1 5.70403 1.58457 18.755 
27 1 6.96968 1.60277 20.9045 
28 1 1.11114 1.57846 18.7529 
30 1 7.02499 1.63183 23.5632 
10 1 6.95361 5.23224 5.11467 
13 1 7.02384 3.9297 0.311354 
15 1 6.99443 5.19113 2.45747 
16 1 7.0241 6.42198 0.296135 
26 1 7.02293 5.18023 1.02015 
29 1 5.7105 5.23156 5.83723 
31 1 6.9666 5.21083 3.67752 
32 1 1.09736 5.23352 5.84064 
1 1 4.65394 5.23566 6.44821 
3 1 3.39195 5.21107 8.59706 
4 1 2.15947 5.23352 6.44202 
6 1 3.3303 5.1327 11.2478 
9 1 3.33895 3.79733 11.8017 
11 1 3.36398 5.1897 9.81851 
12 1 3.33329 6.3739 11.987 
14 1 3.40461 5.23326 7.16101 
33 2 3.23638 4.46851 13.5929 
34 3 3.11941 4.35954 14.4943 
ITEM: TIMESTEP
40
ITEM: NUMBER OF ATOMS
34
ITEM: BOX BOUNDS pp pp pp
0.0000000000000000e+00 7.0970000000000004e+00
0.0000000000000000e+00 7.0970000000000004e+00
0.0000000000000000e+00 2.4588000000000001e+01
ITEM: ATOMS id type x y z 
2 1 3.34508 1.57488 13.2754 
5 1 4.64749 1.58434 18.1207 
7 1 3.39139 1.59523 15.942 
8 1 2.17181 1.5827 18.131 
18 1 3.40812 1.58302 17.3863 
21 1 3.34719 2.72045 12.4038 
23 1 3.37035 1.61354 14.7204 
24 1 3.33915 0.303274 12.6109 
17 1 7.02121 2.87363 24.2801 
19 1 6.99515 1.61865 22.1091 
20 1 7.02386 0.388156 24.2751 
22 1 6.95504 1.58181 19.4486 
25 1 5.70007 1.56979 18.7371 
27 1 6.96997 1.60351 20.8893 
28 1 1.11103 1.58519 18.7315 
30 1 7.0251 1.63369 23.5501 
10 1 6.95958 5.23497 5.11137 
13 1 7.02587 3.9322 0.299466 
15 1 6.98593 5.18564 2.45522 
16 1 7.02614 6.43132 0.302055 
26 1 7.02668 5.18139 1.0168 
29 1 5.70286 5.21576 5.82664 
31 1 6.97052 5.2169 3.67521 
32 1 1.09834 5.23269 5.8364 
1 1 4.66507 5.25194 6.46417 
3 1 3.3865 5.20938 8.59521 
4 1 2.1611 5.23874 6.43755 
6 1 3.33578 5.12006 11.2456 
9 1 3.3443 3.79491 11.824 
11 1 3.36312 5.20264 9.81541 
12 1 3.33609 6.34203 12.0008 
14 1 3.39743 5.23535 7.16416 
33 2 3.221 4.50297 13.7001 
34 3 3.11368 4.45027 14.6225 
ITEM: TIMESTEP
50
ITEM: NUMBER OF ATOMS
34
ITEM: BOX BOUNDS pp pp pp
0.0000000000000000e+00 7.0970000000000004e+00
0.0000000000000000e+00 7.0970000000000004e+00
0.0000000000000000e+00 2.4588000000000001e+01
ITEM: ATOMS id type x y z 
2 1 3.34651 1.56218 13.2693 
5 1 4.64655 1.58065 18.1137 
7 1 3.38934 1.60008 15.9333 
8 1 2.17272 1.58461 18.122 
18 1 3.40794 1.5826 17.3777 
21 1 3.34942 2.71022 12.4028 
23 1 3.3722 1.61483 14.7134 
24 1 3.34074 0.281055 12.6238 
17 1 7.02442 2.87179 24.2772 
19 1 6.99527 1.62 22.1 
20 1 7.02477 0.388071 24.2669 
22 1 6.95486 1.57944 19.4383 
25 1 5.70021 1.57983 18.7291 
27 1 6.96992 1.60052 20.8803 
28 1 1.11071 1.58296 18.7217 
30 1 7.02347 1.63162 23.5419 
10 1 6.9482 5.23183 5.10827 
13 1 7.02411 3.93247 0.292159 
15 1 6.99324 5.18903 2.44973 
16 1 7.0254 6.43489 0.300595 
26 1 7.02477 5.18193 1.01084 
29 1 5.70653 5.23606 5.82538 
31 1 6.96603 5.20687 3.66978 
32 1 1.099 5.23535 5.83381 
1 1 4.66428 5.23478 6.46189 
3 1 3.38142 5.22017 8.59319 
4 1 2.16097 5.23861 6.43336 
6 1 3.33827 5.10601 11.2463 
9 1 3.34636 3.78788 11.8292 
11 1 3.36381 5.20067 9.81366 
12 1 3.33822 6.32015 12.0147 
14 1 3.40976 5.2421 7.15725 
33 2 3.21108 4.51142 13.7667 
34 3 3.11149 4.51031 14.6859 
ITEM: TIMESTEP
60
ITEM: NUMBER OF ATOMS
34
ITEM: BOX BOUNDS pp pp pp
0.0000000000000000e+00 7.0970000000000004e+00
0.0000000000000000e+00 7.0970000000000004e+00
0.0000000000000000e+00 2.4588000000000001e+01
ITEM: ATOMS id type x y z 
2 1 3.34835 1.5585 13.2737 
5 1 4.64929 1.58233 18.1112 
7 1 3.38884 1.60099 15.9357 
8 1 2.1691 1.5821 18.1171 
18 1 3.40743 1.58486 17.3794 
21 1 3.34856 2.71854 12.423 
23 1 3.37116 1.61438 14.7172 
24 1 3.34157 0.278453 12.6241 
17 1 7.02474 2.87287 24.2723 
19 1 6.99471 1.61996 22.0993 
20 1 7.02437 0.388739 24.2668 
22 1 6.95626 1.58007 19.4389 
25 1 5.70159 1.58057 18.7272 
27 1 6.97018 1.60198 20.8798 
28 1 1.10988 1.58123 18.7215 
30 1 7.02376 1.63238 23.5405 
10 1 6.95506 5.23069 5.10596 
13 1 7.02463 3.93118 0.29215 
15 1 6.99295 5.18848 2.44717 
16 1 7.02474 6.43342 0.297035 
26 1 7.025 5.18111 1.00845 
29 1 5.70891 5.23406 5.82887 
31 1 6.96638 5.20821 3.66699 
32 1 1.09852 5.2356 5.8312 
1 1 4.66165 5.23863 6.4548 
3 1 3.38511 5.21963 8.59122 
4 1 2.16043 5.23918 6.43275 
6 1 3.33897 5.10374 11.2429 
9 1 3.34545 3.78699 11.8308 
11 1 3.36132 5.19923 9.81188 
12 1 3.33869 6.31428 12.0178 
14 1 3.40286 5.24301 7.15576 
33 2 3.21036 4.50443 13.7682 
34 3 3.11116 4.52116 14.6925 
ITEM: TIMESTEP
70
ITEM: NUMBER OF ATOMS
34
ITEM: BOX BOUNDS pp pp pp
0.0000000000000000e+00 7.0970000000000004e+00
0.0000000000000000e+00 7.0970000000000004e+00
0.0000000000000000e+00 2.4588000000000001e+01
ITEM: ATOMS id type x y z 
2 1 3.34905 1.55588 13.2758 
5 1 4.64981 1.58332 18.109 
7 1 3.38783 1.60108 15.9386 
8 1 2.16802 1.58284 18.1138 
18 1 3.40788 1.58522 17.3804 
21 1 3.34816 2.72349 12.4359 
23 1 3.37146 1.61298 14.7178 
24 1 3.34256 0.274658 12.6243 
17 1 7.02458 2.87431 24.2686 
19 1 6.99512 1.62039 22.0992 
20 1 7.02415 0.38954 24.267 
22 1 6.95603 1.57944 19.4388 
25 1 5.70397 1.58123 18.726 
27 1 6.97003 1.60195 20.8788 
28 1 1.10814 1.58115 18.7208 
30 1 7.02369 1.63206 23.5395 
10 1 6.95262 5.22981 5.10437 
13 1 7.02442 3.92943 0.293265 
15 1 6.99304 5.18869 2.44514 
16 1 7.0252 6.43235 0.293527 
26 1 7.02484 5.18111 1.00657 
29 1 5.71082 5.2342 5.82901 
31 1 6.96665 5.20849 3.66521 
32 1 1.09903 5.2356 5.82906 
1 1 4.66025 5.23976 6.45024 
3 1 3.3837 5.21909 8.58981 
4 1 2.15997 5.23968 6.43218 
6 1 3.33867 5.10124 11.2423 
9 1 3.34474 3.78754 11.8372 
11 1 3.36281 5.19772 9.81029 
12 1 3.33899 6.31191 12.0199 
14 1 3.40528 5.24509 7.15339 
33 2 3.20919 4.4979 13.7732 
34 3 3.1113 4.53187 14.695 
ITEM: TIMESTEP
77
ITEM: NUMBER OF ATOMS
34
ITEM: BOX BOUNDS pp pp pp
0.0000000000000000e+00 7.0970000000000004e+00
0.0000000000000000e+00 7.0970000000000004e+00
0.0000000000000000e+00 2.4588000000000001e+01
ITEM: ATOMS id type x y z 
2 1 3.34956 1.55412 13.2772 
5 1 4.65135 1.58378 18.109 
7 1 3.39019 1.60095 15.9379 
8 1 2.16639 1.58319 18.113 
18 1 3.40646 1.58564 17.3809 
21 1 3.3479 2.72445 12.4406 
23 1 3.37004 1.61194 14.7196 
24 1 3.34287 0.273549 12.625 
17 1 7.02454 2.87444 24.2674 
19 1 6.99417 1.62079 22.0984 
20 1 7.02456 0.389812 24.267 
22 1 6.95595 1.5794 19.4383 
25 1 5.70373 1.58129 18.7244 
27 1 6.97059 1.60138 20.8791 
28 1 1.10875 1.58143 18.7198 
30 1 7.02412 1.63219 23.5389 
10 1 6.95359 5.22997 5.10322 
13 1 7.02453 3.92982 0.292522 
15 1 6.99351 5.19022 2.44461 
16 1 7.02435 6.43148 0.292119 
26 1 7.02494 5.18061 1.00565 
29 1 5.71107 5.23589 5.82897 
31 1 6.96643 5.20618 3.6645 
32 1 1.0991 5.23511 5.82798 
1 1 4.65949 5.23924 6.44831 
3 1 3.38241 5.21959 8.58913 
4 1 2.15963 5.24046 6.43144 
6 1 3.33857 5.09993 11.2419 
9 1 3.3446 3.78877 11.8414 
11 1 3.36365 5.19623 9.80954 
12 1 3.33938 6.30964 12.02 
14 1 3.40577 5.24592 7.15292 
33 2 3.20853 4.4954 13.7757 
34 3 3.11127 4.53818 14.6977 
ITEM: TIMESTEP
80
ITEM: NUMBER OF ATOMS
34
ITEM: BOX BOUNDS pp pp pp
0.0000000000000000e+00 7.0970000000000004e+00
0.0000000000000000e+00 7.0970000000000004e+00
0.0000000000000000e+00 2.4588000000000001e+01
ITEM: ATOMS id type x y z 
2 1 3.34947 1.55399 13.2771 
5 1 4.65083 1.58363 18.109 
7 1 3.39001 1.60063 15.9384 
8 1 2.16657 1.58324 18.1127 
18 1 3.40678 1.58593 17.3808 
21 1 3.34791 2.72456 12.441 
23 1 3.37028 1.612 14.7192 
24 1 3.34293 0.273202 12.625 
17 1 7.02445 2.87449 24.2673 
19 1 6.99454 1.62073 22.0986 
20 1 7.02438 0.389781 24.267 
22 1 6.95604 1.57935 19.4384 
25 1 5.70413 1.58138 18.7244 
27 1 6.97038 1.60155 20.8788 
28 1 1.10832 1.58138 18.7199 
30 1 7.02402 1.63217 23.5389 
10 1 6.95352 5.22984 5.10325 
13 1 7.02465 3.92974 0.292393 
15 1 6.99336 5.1899 2.44446 
16 1 7.02456 6.43149 0.291962 
26 1 7.02491 5.18064 1.00562 
29 1 5.71113 5.23523 5.82883 
31 1 6.96646 5.20676 3.66442 
32 1 1.09916 5.23537 5.82791 
1 1 4.65954 5.23977 6.44817 
3 1 3.38245 5.21953 8.5891 
4 1 2.15975 5.24031 6.43144 
6 1 3.33865 5.09986 11.2419 
9 1 3.34456 3.78876 11.8418 
11 1 3.36354 5.19614 9.80953 
12 1 3.33938 6.30972 12.0201 
14 1 3.40561 5.246 7.15282 
33 2 3.20846 4.49516 13.7759 
34 3 3.11128 4.53877 14.6979 
ITEM: TIMESTEP
90
ITEM: NUMBER OF ATOMS
34
ITEM: BOX BOUNDS pp pp pp
0.0000000000000000e+00 7.0970000000000004e+00
0.0000000000000000e+00 7.0970000000000004e+00
0.0000000000000000e+00 2.4588000000000001e+01
ITEM: ATOMS id type x y z 
2 1 3.34965 1.5495 13.2789 
5 1 4.65091 1.58479 18.109 
7 1 3.38949 1.59908 15.9397 
8 1 2.16537 1.58431 18.1103 
18 1 3.40706 1.5881 17.3815 
21 1 3.3474 2.72682 12.4527 
23 1 3.37201 1.6088 14.7202 
24 1 3.34367 0.268728 12.626 
17 1 7.02445 2.87497 24.2644 
19 1 6.99442 1.6215 22.0978 
20 1 7.02454 0.389764 24.2658 
22 1 6.95598 1.5785 19.4378 
25 1 5.7062 1.58147 18.7214 
27 1 6.97019 1.60185 20.878 
28 1 1.1067 1.58165 18.7171 
30 1 7.02385 1.63161 23.5379 
10 1 6.9544 5.22889 5.10164 
13 1 7.02483 3.92995 0.289851 
15 1 6.99254 5.1902 2.44236 
16 1 7.02495 6.4302 0.28873 
26 1 7.02541 5.18049 1.00337 
29 1 5.71126 5.23513 5.82706 
31 1 6.96525 5.20674 3.66228 
32 1 1.09973 5.23559 5.8254 
1 1 4.65838 5.24156 6.44405 
3 1 3.38417 5.21866 8.58788 
4 1 2.16003 5.24146 6.42964 
6 1 3.3386 5.09665 11.2413 
9 1 3.34414 3.79156 11.8543 
11 1 3.36292 5.1925 9.8081 
12 1 3.34034 6.30575 12.0204 
14 1 3.40537 5.24927 7.15097 
33 2 3.20638 4.48744 13.7835 
34 3 3.11138 4.55754 14.7047 
ITEM: TIMESTEP
100
ITEM: NUMBER OF ATOMS
34
ITEM: BOX BOUNDS pp pp pp
0.0000000000000000e+00 7.0970000000000004e+00
0.0000000000000000e+00 7.0970000000000004e+00
0.0000000000000000e+00 2.4588000000000001e+01
ITEM: ATOMS id type x y z 
2 1 3.35313 1.53722 13.2829 
5 1 4.65547 1.58807 18.0997 
7 1 3.3881 1.59497 15.9433 
8 1 2.16077 1.58872 18.1024 
18 1 3.40788 1.5935 17.3841 
21 1 3.34691 2.73077 12.4809 
23 1 3.37278 1.59721 14.7228 
24 1 3.34571 0.25725 12.6268 
17 1 7.02507 2.8762 24.2582 
19 1 6.99589 1.62021 22.0948 
20 1 7.02511 0.388389 24.2603 
22 1 6.95512 1.57752 19.4349 
25 1 5.70672 1.5808 18.7209 
27 1 6.96946 1.60166 20.8746 
28 1 1.10548 1.58346 18.7155 
30 1 7.0229 1.63267 23.5342 
10 1 6.95325 5.2256 5.09638 
13 1 7.02453 3.93167 0.282818 
15 1 6.99221 5.19097 2.43793 
16 1 7.02445 6.42829 0.28161 
26 1 7.02528 5.17915 0.999524 
29 1 5.70893 5.2365 5.81686 
31 1 6.96685 5.20608 3.65843 
32 1 1.10216 5.23643 5.81964 
1 1 4.65757 5.2456 6.43701 
3 1 3.37758 5.21623 8.58499 
4 1 2.16228 5.24595 6.42359 
6 1 3.34148 5.08768 11.2403 
9 1 3.343 3.79974 11.8898 
11 1 3.36418 5.1786 9.8055 
12 1 3.34151 6.29754 12.0181 
14 1 3.40821 5.25843 7.14797 
33 2 3.19957 4.46186 13.8059 
34 3 3.11248 4.61607 14.7213 
ITEM: TIMESTEP
105
ITEM: NUMBER OF ATOMS
34
ITEM: BOX BOUNDS pp pp pp
0.0000000000000000e+00 7.0970000000000004e+00
0.0000000000000000e+00 7.0970000000000004e+00
0.0000000000000000e+00 2.4588000000000001e+01
ITEM: ATOMS id type x y z 
2 1 3.35304 1.53721 13.2829 
5 1 4.65564 1.58713 18.0999 
7 1 3.38841 1.59543 15.943 
8 1 2.16067 1.58825 18.1024 
18 1 3.40764 1.59392 17.3837 
21 1 3.34691 2.73058 12.4813 
23 1 3.37263 1.59669 14.7231 
24 1 3.34569 0.257666 12.6269 
17 1 7.0244 2.876 24.2583 
19 1 6.99476 1.62064 22.0947 
20 1 7.02469 0.388395 24.2601 
22 1 6.95536 1.57749 19.4351 
25 1 5.70648 1.58194 18.7206 
27 1 6.97005 1.60111 20.8748 
28 1 1.10549 1.58351 18.7155 
30 1 7.024 1.63237 23.5342 
10 1 6.95364 5.2254 5.09655 
13 1 7.02476 3.93172 0.282715 
15 1 6.99326 5.19058 2.43801 
16 1 7.02462 6.42841 0.281819 
26 1 7.02493 5.17951 0.999277 
29 1 5.70891 5.23631 5.81693 
31 1 6.96626 5.20639 3.65806 
32 1 1.10221 5.23645 5.81962 
1 1 4.65757 5.24601 6.43689 
3 1 3.37854 5.2159 8.58535 
4 1 2.16238 5.24631 6.42353 
6 1 3.34154 5.08762 11.2402 
9 1 3.34323 3.79988 11.8901 
11 1 3.3632 5.17843 9.80522 
12 1 3.34173 6.29699 12.0177 
14 1 3.40739 5.25833 7.14792 
33 2 3.19945 4.46152 13.8064 
34 3 3.11253 4.61691 14.7212 
ITEM: TIMESTEP
110
ITEM: NUMBER OF ATOMS
34
ITEM: BOX BOUNDS pp pp pp
-9.2405364497508461e-04 7.0979240536449764e+00
-9.4805490665112900e-04 7.0979480549066514e+00
-6.1470000000000006e-03 2.4594147000000000e+01
ITEM: ATOMS id type x y z 
2 1 3.35299 1.53667 13.2834 
5 1 4.65593 1.58661 18.1028 
7 1 3.38837 1.59491 15.9448 
8 1 2.16031 1.58773 18.1053 
18 1 3.4076 1.59339 17.3862 
21 1 3.34685 2.73037 12.4813 
23 1 3.37258 1.59617 14.7243 
24 1 3.34564 0.256784 12.6271 
17 1 7.02531 2.87582 24.2643 
19 1 6.99566 1.62012 22.0996 
20 1 7.02559 0.387548 24.2661 
22 1 6.95625 1.57696 19.4387 
25 1 5.70704 1.58142 18.7238 
27 1 6.97094 1.60059 20.8791 
28 1 1.10485 1.58298 18.7187 
30 1 7.0249 1.63185 23.5398 
10 1 6.95453 5.22585 5.09295 
13 1 7.02567 3.93182 0.276707 
15 1 6.99415 5.19102 2.43308 
16 1 7.02553 6.42918 0.275811 
26 1 7.02584 5.17995 0.99363 
29 1 5.70947 5.23677 5.81369 
31 1 6.96715 5.20683 3.65374 
32 1 1.10158 5.2369 5.81639 
1 1 4.65786 5.24647 6.43396 
3 1 3.3785 5.21634 8.5835 
4 1 2.16202 5.24676 6.42059 
6 1 3.34148 5.08803 11.2397 
9 1 3.34318 3.79994 11.8899 
11 1 3.36315 5.17887 9.80397 
12 1 3.34167 6.29773 12.0176 
14 1 3.40735 5.25878 7.14534 
33 2 3.19936 4.46176 13.8071 
34 3 3.11242 4.6172 14.7224 
ITEM: TIMESTEP
120
ITEM: NUMBER OF ATOMS
34
ITEM: BOX BOUNDS pp pp pp
-3.2217400022775985e-03 7.1002217400022776e+00
-3.2959369477997737e-03 7.1002959369478011e+00
-1.8441000000000006e-02 2.4606440999999997e+01
ITEM: ATOMS id type x y z 
2 1 3.35286 1.53534 13.2844 
5 1 4.65669 1.58531 18.1086 
7 1 3.38828 1.59362 15.9484 
8 1 2.15937 1.58644 18.1112 
18 1 3.40751 1.5921 17.3913 
21 1 3.34673 2.72988 12.4815 
23 1 3.37246 1.59487 14.7268 
24 1 3.34551 0.254555 12.6274 
17 1 7.02756 2.87542 24.2763 
19 1 6.99789 1.61885 22.1093 
20 1 7.02782 0.385411 24.2781 
22 1 6.95846 1.57566 19.4459 
25 1 5.70839 1.58012 18.7302 
27 1 6.97316 1.5993 20.8878 
28 1 1.10332 1.58167 18.7251 
30 1 7.02715 1.63058 23.551 
10 1 6.95674 5.22695 5.08575 
13 1 7.02791 3.93202 0.264666 
15 1 6.99638 5.19211 2.42331 
16 1 7.0278 6.43113 0.263771 
26 1 7.02808 5.18103 0.982339 
29 1 5.71082 5.23788 5.80725 
31 1 6.96936 5.20793 3.64501 
32 1 1.10004 5.23802 5.80994 
1 1 4.65862 5.2476 6.42807 
3 1 3.37841 5.21744 8.57989 
4 1 2.16107 5.24789 6.41469 
6 1 3.34135 5.08904 11.2387 
9 1 3.34305 3.80006 11.8895 
11 1 3.36302 5.17994 9.80139 
12 1 3.34154 6.2996 12.0173 
14 1 3.40724 5.25992 7.1402 
33 2 3.19913 4.46236 13.8086 
34 3 3.11214 4.61792 14.7248 
ITEM: TIMESTEP
130
ITEM: NUMBER OF ATOMS
34
ITEM: BOX BOUNDS pp pp pp
-6.6378125242398398e-03 7.1036378125242408e+00
-6.7764410050071772e-03 7.1037764410050084e+00
-2.7437303951845248e-02 2.4615437303951840e+01
ITEM: ATOMS id type x y z 
2 1 3.35265 1.53335 13.2851 
5 1 4.6581 1.58339 18.1131 
7 1 3.38817 1.5917 15.9505 
8 1 2.15769 1.58454 18.1156 
18 1 3.40734 1.59019 17.395 
21 1 3.34654 2.72951 12.4815 
23 1 3.37227 1.59292 14.7291 
24 1 3.34532 0.250956 12.6274 
17 1 7.03093 2.87512 24.2852 
19 1 7.00119 1.61695 22.116 
20 1 7.03112 0.381968 24.287 
22 1 6.96175 1.57374 19.4511 
25 1 5.71012 1.57822 18.7347 
27 1 6.97646 1.59738 20.8946 
28 1 1.1013 1.57971 18.7296 
30 1 7.0305 1.62868 23.5592 
10 1 6.96005 5.22857 5.08047 
13 1 7.03124 3.93203 0.255664 
15 1 6.99967 5.19372 2.41662 
16 1 7.0312 6.4343 0.254778 
26 1 7.03141 5.18266 0.974092 
29 1 5.71253 5.23955 5.80274 
31 1 6.97268 5.20955 3.63815 
32 1 1.09804 5.2397 5.80539 
1 1 4.66005 5.24927 6.42356 
3 1 3.37831 5.21903 8.57773 
4 1 2.15939 5.24957 6.4102 
6 1 3.34115 5.09054 11.2379 
9 1 3.34287 3.79992 11.8895 
11 1 3.36279 5.18152 9.79903 
12 1 3.34136 6.30266 12.0173 
14 1 3.40705 5.26158 7.13645 
33 2 3.19878 4.46322 13.8098 
34 3 3.11173 4.61905 14.7266 
ITEM: TIMESTEP
140
ITEM: NUMBER OF ATOMS
34
ITEM: BOX BOUNDS pp pp pp
-9.9154216474864661e-03 7.1069154216474866e+00
-1.0324941005007179e-02 7.1073249410050074e+00
-3.6065029770284369e-02 2.4624065029770282e+01
ITEM: ATOMS id type x y z 
2 1 3.35241 1.53122 13.2858 
5 1 4.66009 1.58144 18.1178 
7 1 3.38809 1.58981 15.952 
8 1 2.15539 1.58258 18.1204 
18 1 3.40714 1.58823 17.3984 
21 1 3.34638 2.72996 12.4812 
23 1 3.37212 1.59074 14.7319 
24 1 3.34514 0.246581 12.6269 
17 1 7.03415 2.87553 24.2942 
19 1 7.00434 1.61501 22.1218 
20 1 7.03428 0.377747 24.296 
22 1 6.96498 1.57183 19.4563 
25 1 5.71111 1.57637 18.7385 
27 1 6.97967 1.5954 20.9017 
28 1 1.10002 1.57768 18.7335 
30 1 7.0337 1.62668 23.5672 
10 1 6.96332 5.23015 5.07545 
13 1 7.03443 3.93133 0.246589 
15 1 7.00278 5.19538 2.4108 
16 1 7.03446 6.43823 0.245705 
26 1 7.03461 5.1844 0.966147 
29 1 5.71349 5.24129 5.79886 
31 1 6.97592 5.21118 3.6309 
32 1 1.09683 5.24147 5.80137 
1 1 4.66206 5.25104 6.41876 
3 1 3.37849 5.22052 8.57631 
4 1 2.15709 5.25134 6.4055 
6 1 3.34095 5.09202 11.2371 
9 1 3.34275 3.79919 11.8901 
11 1 3.36237 5.18302 9.79616 
12 1 3.34125 6.30649 12.0176 
14 1 3.40665 5.26323 7.13283 
33 2 3.19839 4.46397 13.8112 
34 3 3.11137 4.62049 14.728 
ITEM: TIMESTEP
150
ITEM: NUMBER OF ATOMS
34
ITEM: BOX BOUNDS pp pp pp
-1.1474575449791108e-02 7.1084745754497920e+00
-1.2493172164006600e-02 7.1094931721640071e+00
-3.5256061380215885e-02 2.4623256061380218e+01
ITEM: ATOMS id type x y z 
2 1 3.35195 1.52936 13.2854 
5 1 4.66054 1.58056 18.118 
7 1 3.38927 1.58718 15.9515 
8 1 2.15452 1.58146 18.1204 
18 1 3.40635 1.58761 17.3976 
21 1 3.34652 2.73063 12.4827 
23 1 3.37159 1.58902 14.7315 
24 1 3.3452 0.244296 12.6257 
17 1 7.03558 2.87563 24.2934 
19 1 7.00586 1.61374 22.1214 
20 1 7.03574 0.37537 24.2952 
22 1 6.96676 1.57076 19.456 
25 1 5.71195 1.57559 18.7372 
27 1 6.9813 1.59413 20.9014 
28 1 1.09903 1.57638 18.7327 
30 1 7.03515 1.62513 23.5669 
10 1 6.96535 5.23091 5.07624 
13 1 7.03589 3.93116 0.246958 
15 1 7.00429 5.19643 2.41122 
16 1 7.0359 6.44029 0.246063 
26 1 7.036 5.18583 0.966395 
29 1 5.71412 5.24249 5.79985 
31 1 6.97765 5.21207 3.6312 
32 1 1.0961 5.24277 5.80157 
1 1 4.66246 5.2524 6.41848 
3 1 3.37998 5.22046 8.57672 
4 1 2.15613 5.25271 6.40571 
6 1 3.34063 5.09266 11.2376 
9 1 3.34297 3.7997 11.892 
11 1 3.36145 5.18304 9.79643 
12 1 3.34151 6.30868 12.0168 
14 1 3.40552 5.26416 7.13294 
33 2 3.19788 4.46352 13.8125 
34 3 3.11141 4.62339 14.7269 
ITEM: TIMESTEP
160
ITEM: NUMBER OF ATOMS
34
ITEM: BOX BOUNDS pp pp pp
-1.1448709942268053e-02 7.1084487099422686e+00
-1.3235805879107405e-02 7.1102358058791086e+00
-3.4206041166112616e-02 2.4622206041166116e+01
ITEM: ATOMS id type x y z 
2 1 3.35148 1.52847 13.2848 
5 1 4.66022 1.58042 18.1179 
7 1 3.38922 1.58692 15.9509 
8 1 2.1545 1.581 18.1201 
18 1 3.40648 1.58714 17.3971 
21 1 3.34676 2.73121 12.4843 
23 1 3.37208 1.58715 14.731 
24 1 3.34537 0.243672 12.6246 
17 1 7.03546 2.87568 24.2922 
19 1 7.00587 1.6132 22.1208 
20 1 7.03562 0.374551 24.2941 
22 1 6.96677 1.57047 19.4554 
25 1 5.71206 1.57554 18.736 
27 1 6.98139 1.59367 20.9009 
28 1 1.09887 1.57607 18.7321 
30 1 7.03507 1.62456 23.5664 
10 1 6.96548 5.23122 5.07701 
13 1 7.03576 3.93125 0.247715 
15 1 7.00432 5.19679 2.41182 
16 1 7.03577 6.44085 0.246808 
26 1 7.03586 5.18634 0.966796 
29 1 5.71409 5.24296 5.80077 
31 1 6.97783 5.21235 3.63175 
32 1 1.09615 5.24324 5.80176 
1 1 4.66206 5.25293 6.41848 
3 1 3.381 5.22003 8.57712 
4 1 2.156 5.25322 6.40615 
6 1 3.34023 5.09267 11.238 
9 1 3.34317 3.80038 11.8939 
11 1 3.36142 5.18224 9.79675 
12 1 3.34174 6.30947 12.016 
14 1 3.40506 5.26453 7.13319 
33 2 3.19758 4.46257 13.8132 
34 3 3.11157 4.62607 14.7264 
ITEM: TIMESTEP
170
ITEM: NUMBER OF ATOMS
34
ITEM: BOX BOUNDS pp pp pp
-1.1674335055692838e-02 7.1086743350556931e+00
-1.4324546387864042e-02 7.1113245463878654e+00
-3.1841592100492727e-02 2.4619841592100499e+01
ITEM: ATOMS id type x y z 
2 1 3.35127 1.52733 13.2841 
5 1 4.66002 1.58022 18.1171 
7 1 3.38923 1.58587 15.95 
8 1 2.15438 1.58066 18.1191 
18 1 3.40638 1.5865 17.3961 
21 1 3.34699 2.73174 12.4862 
23 1 3.3723 1.5851 14.7302 
24 1 3.34553 0.242803 12.6232 
17 1 7.0356 2.87556 24.29 
19 1 7.00613 1.61243 22.1193 
20 1 7.03573 0.373425 24.2917 
22 1 6.96689 1.56993 19.454 
25 1 5.71251 1.57523 18.7342 
27 1 6.98172 1.59303 20.8995 
28 1 1.09872 1.57568 18.7307 
30 1 7.0352 1.62394 23.5648 
10 1 6.96566 5.23177 5.07845 
13 1 7.03583 3.9315 0.249585 
15 1 7.0046 5.19729 2.4134 
16 1 7.03586 6.44165 0.248753 
26 1 7.03593 5.18692 0.968369 
29 1 5.71424 5.24359 5.80234 
31 1 6.97828 5.21286 3.63318 
32 1 1.09602 5.24384 5.80264 
1 1 4.66169 5.25358 6.41905 
3 1 3.38184 5.21978 8.57792 
4 1 2.15573 5.25384 6.40719 
6 1 3.33979 5.09274 11.2387 
9 1 3.34328 3.80126 11.8963 
11 1 3.36174 5.18124 9.79738 
12 1 3.34188 6.31055 12.015 
14 1 3.4048 5.26508 7.13402 
33 2 3.19722 4.46141 13.8135 
34 3 3.11171 4.6295 14.7259 
ITEM: TIMESTEP
180
ITEM: NUMBER OF ATOMS
34
ITEM: BOX BOUNDS pp pp pp
-1.2025240561870440e-02 7.1090252405618699e+00
-1.5040953701910401e-02 7.1120409537019116e+00
-3.0764915628385167e-02 2.4618764915628397e+01
ITEM: ATOMS id type x y z 
2 1 3.35128 1.52653 13.2837 
5 1 4.65999 1.58003 18.1168 
7 1 3.38906 1.58495 15.9496 
8 1 2.15425 1.58048 18.1187 
18 1 3.40643 1.58624 17.3957 
21 1 3.34713 2.73211 12.4876 
23 1 3.37243 1.58365 14.7298 
24 1 3.34562 0.242306 12.6222 
17 1 7.03582 2.87537 24.2892 
19 1 7.00649 1.61191 22.1186 
20 1 7.03597 0.372725 24.2906 
22 1 6.96722 1.5697 19.4533 
25 1 5.71287 1.57506 18.7333 
27 1 6.98213 1.59262 20.8989 
28 1 1.0984 1.57531 18.7301 
30 1 7.0355 1.62356 23.5642 
10 1 6.96591 5.23219 5.07906 
13 1 7.0361 3.93174 0.250223 
15 1 7.00498 5.19759 2.41397 
16 1 7.0361 6.44215 0.249491 
26 1 7.03615 5.18726 0.968903 
29 1 5.71446 5.244 5.80307 
31 1 6.97878 5.21322 3.63376 
32 1 1.09575 5.24424 5.80296 
1 1 4.66149 5.25398 6.41918 
3 1 3.38245 5.2194 8.57828 
4 1 2.1555 5.25422 6.40763 
6 1 3.33954 5.09274 11.2391 
9 1 3.3433 3.80197 11.8982 
11 1 3.36202 5.18044 9.79772 
12 1 3.3419 6.31128 12.0141 
14 1 3.40466 5.26555 7.13435 
33 2 3.19692 4.46045 13.8138 
34 3 3.1118 4.63221 14.7257 
ITEM: TIMESTEP
190
ITEM: NUMBER OF ATOMS
34
ITEM: BOX BOUNDS pp pp pp
-1.2166250297713701e-02 7.1091662502977115e+00
-1.5837871216875181e-02 7.1128378712168754e+00
-2.9456601046713087e-02 2.4617456601046722e+01
ITEM: ATOMS id type x y z 
2 1 3.35144 1.52551 13.2831 
5 1 4.66 1.57989 18.1164 
7 1 3.38893 1.584 15.9492 
8 1 2.15433 1.58012 18.118 
18 1 3.40641 1.58592 17.3952 
21 1 3.34729 2.73261 12.4896 
23 1 3.37247 1.58154 14.7292 
24 1 3.34575 0.241865 12.6206 
17 1 7.0358 2.87534 24.2878 
19 1 7.00664 1.61131 22.118 
20 1 7.03597 0.371955 24.2893 
22 1 6.96733 1.56941 19.4525 
25 1 5.71307 1.5749 18.7321 
27 1 6.98235 1.59218 20.8981 
28 1 1.09811 1.57526 18.7295 
30 1 7.03557 1.62307 23.5636 
10 1 6.96591 5.2327 5.07979 
13 1 7.03611 3.93194 0.25112 
15 1 7.00515 5.19792 2.41453 
16 1 7.0361 6.44263 0.250331 
26 1 7.03612 5.18765 0.969431 
29 1 5.71458 5.24446 5.80385 
31 1 6.97911 5.21363 3.63446 
32 1 1.09562 5.24468 5.80335 
1 1 4.66121 5.25446 6.4193 
3 1 3.38261 5.21917 8.57865 
4 1 2.1554 5.2547 6.40818 
6 1 3.33946 5.09265 11.2397 
9 1 3.34334 3.80298 11.9009 
11 1 3.36255 5.1789 9.79821 
12 1 3.34192 6.31214 12.013 
14 1 3.40472 5.26583 7.13472 
33 2 3.19652 4.45902 13.8143 
34 3 3.11197 4.63612 14.7254 
ITEM: TIMESTEP
200
ITEM: NUMBER OF ATOMS
34
ITEM: BOX BOUNDS pp pp pp
-1.2490454970353620e-02 7.1094904549703513e+00
-1.6742667269226214e-02 7.1137426672692268e+00
-2.6607009635155325e-02 2.4614607009635165e+01
ITEM: ATOMS id type x y z 
2 1 3.3516 1.52439 13.2824 
5 1 4.66 1.57968 18.1153 
7 1 3.38917 1.58273 15.9482 
8 1 2.15421 1.57989 18.1168 
18 1 3.40622 1.5856 17.3942 
21 1 3.34743 2.73314 12.4916 
23 1 3.37233 1.5793 14.7284 
24 1 3.34586 0.24133 12.6188 
17 1 7.03602 2.87526 24.2851 
19 1 7.00696 1.61063 22.1161 
20 1 7.03617 0.371043 24.2866 
22 1 6.96766 1.56916 19.4508 
25 1 5.71346 1.57471 18.7302 
27 1 6.98275 1.59169 20.8963 
28 1 1.09779 1.57501 18.7278 
30 1 7.03576 1.62257 23.5616 
10 1 6.96616 5.23326 5.08138 
13 1 7.03623 3.93216 0.253379 
15 1 7.00549 5.1983 2.41636 
16 1 7.03623 6.44323 0.252592 
26 1 7.03626 5.18807 0.971319 
29 1 5.71475 5.24501 5.80539 
31 1 6.97962 5.2141 3.63612 
32 1 1.0954 5.24522 5.80461 
1 1 4.66101 5.25497 6.42014 
3 1 3.38322 5.21864 8.57959 
4 1 2.15516 5.2552 6.40939 
6 1 3.33941 5.09256 11.2404 
9 1 3.34342 3.80405 11.904 
11 1 3.36278 5.17734 9.79893 
12 1 3.34196 6.31317 12.0118 
14 1 3.40457 5.26627 7.13571 
33 2 3.19606 4.45747 13.8146 
34 3 3.11215 4.6405 14.7248 
ITEM: TIMESTEP
210
ITEM: NUMBER OF ATOMS
34
ITEM: BOX BOUNDS pp pp pp
-1.3087577568924704e-02 7.1100875775689225e+00
-1.7611120423990538e-02 7.1146111204239908e+00
-2.6067899775740408e-02 2.4614067899775751e+01
ITEM: ATOMS id type x y z 
2 1 3.35162 1.52338 13.2819 
5 1 4.66002 1.57942 18.115 
7 1 3.38933 1.58139 15.948 
8 1 2.15381 1.57963 18.1167 
18 1 3.40614 1.58538 17.3941 
21 1 3.34753 2.73352 12.4933 
23 1 3.37236 1.57741 14.7281 
24 1 3.34593 0.240818 12.6172 
17 1 7.03648 2.87515 24.2845 
19 1 7.00753 1.61001 22.1159 
20 1 7.03662 0.370203 24.2861 
22 1 6.96823 1.56893 19.4504 
25 1 5.71402 1.57448 18.7298 
27 1 6.98338 1.59124 20.8961 
28 1 1.0974 1.57474 18.7275 
30 1 7.03626 1.62207 23.5616 
10 1 6.9667 5.23381 5.08161 
13 1 7.03667 3.93235 0.253457 
15 1 7.00608 5.19866 2.41637 
16 1 7.0367 6.44382 0.252674 
26 1 7.03668 5.18845 0.971181 
29 1 5.7151 5.24552 5.80562 
31 1 6.98035 5.21455 3.63621 
32 1 1.09499 5.24573 5.80473 
1 1 4.66096 5.25543 6.42001 
3 1 3.38354 5.21801 8.5798 
4 1 2.15482 5.25567 6.4095 
6 1 3.33932 5.09253 11.2409 
9 1 3.34347 3.80497 11.9066 
11 1 3.36311 5.17611 9.79918 
12 1 3.34199 6.31413 12.0107 
14 1 3.40453 5.26677 7.13579 
33 2 3.19564 4.45619 13.8151 
34 3 3.11226 4.64436 14.7246 
ITEM: TIMESTEP
220
ITEM: NUMBER OF ATOMS
34
ITEM: BOX BOUNDS pp pp pp
-1.2887470490944086e-02 7.1098874704909427e+00
-1.8490941496395148e-02 7.1154909414963958e+00
-2.4860842873238434e-02 2.4612860842873246e+01
ITEM: ATOMS id type x y z 
2 1 3.35172 1.52225 13.2814 
5 1 4.65992 1.57921 18.1146 
7 1 3.3893 1.57994 15.9476 
8 1 2.15376 1.57941 18.1162 
18 1 3.40616 1.58512 17.3938 
21 1 3.34768 2.73398 12.4954 