LAMMPS (3 Mar 2020)
# Alpha
clear
units		real
dimension 3
boundary        p p p
atom_style	charge
newton on
read_data       H_22.lmp
  orthogonal box = (0 0 0) to (11 11.002 11)
  2 by 2 by 2 MPI processor grid
  reading atoms ...
  49 atoms
  read_data CPU = 0.00951151 secs

timestep 0.25

# ---------- Define Interatomic Potential ---------------------
pair_style      reax/c NULL checkqeq no
pair_coeff      * * ffield.reax C H
fix             2 all qeq/reax 1 0.0 10.0 1.0e-6 reax/c

#------------ Equilibration of the system -------------------------
reset_timestep 0

dump 1 all custom 10 min.lammpstrj id type x y z

minimize 1.0e-8 1.0e-8 100000 100000
WARNING: Using 'neigh_modify every 1 delay 0 check yes' setting during minimization (../min.cpp:190)
WARNING: Total cutoff < 2*bond cutoff. May need to use an increased neighbor list skin. (../pair_reaxc.cpp:413)
Neighbor list info ...
  update every 1 steps, delay 0 steps, check yes
  max neighbors/atom: 2000, page size: 100000
  master list distance cutoff = 9.5
  ghost atom cutoff = 9.5
  binsize = 4.75, bins = 3 3 3
  2 neighbor lists, perpetual/occasional/extra = 2 0 0
  (1) pair reax/c, perpetual
      attributes: half, newton off, ghost
      pair build: half/bin/newtoff/ghost
      stencil: half/ghost/bin/3d/newtoff
      bin: standard
  (2) fix qeq/reax, perpetual, copy from (1)
      attributes: half, newton off, ghost
      pair build: copy
      stencil: none
      bin: none
Per MPI rank memory allocation (min/avg/max) = 18.75 | 18.81 | 18.91 Mbytes
Step Temp E_pair E_mol TotEng Press 
       0            0   -8591.9816            0   -8591.9816    15869.474 
     188            0   -8727.7638            0   -8727.7638    34733.332 
Loop time of 3.62361 on 8 procs for 188 steps with 49 atoms

99.5% CPU use with 8 MPI tasks x no OpenMP threads

Minimization stats:
  Stopping criterion = energy tolerance
  Energy initial, next-to-last, final = 
        -8591.98163622     -8727.76369518     -8727.76377885
  Force two-norm initial, final = 356.518 119.822
  Force max component initial, final = 136.743 36.6525
  Final line search alpha, max atom move = 8.5233e-05 0.003124
  Iterations, force evaluations = 188 1438

MPI task timing breakdown:
Section |  min time  |  avg time  |  max time  |%varavg| %total
---------------------------------------------------------------
Pair    | 2.8516     | 2.8689     | 2.8976     |   0.8 | 79.17
Neigh   | 0          | 0          | 0          |   0.0 |  0.00
Comm    | 0.025994   | 0.054511   | 0.072659   |   6.1 |  1.50
Output  | 0.00035468 | 0.00047142 | 0.000719   |   0.0 |  0.01
Modify  | 0.69121    | 0.69152    | 0.69181    |   0.0 | 19.08
Other   |            | 0.008208   |            |       |  0.23

Nlocal:    6.125 ave 7 max 6 min
Histogram: 7 0 0 0 0 0 0 0 0 1
Nghost:    598.125 ave 603 max 595 min
Histogram: 3 0 0 0 0 3 1 0 0 1
Neighs:    771.5 ave 873 max 755 min
Histogram: 7 0 0 0 0 0 0 0 0 1

Total # of neighbors = 6172
Ave neighs/atom = 125.959
Neighbor list builds = 0
Dangerous builds = 0

###
min_style cg
minimize 1.0e-8 1.0e-8 100000 100000
WARNING: Using 'neigh_modify every 1 delay 0 check yes' setting during minimization (../min.cpp:190)
WARNING: Total cutoff < 2*bond cutoff. May need to use an increased neighbor list skin. (../pair_reaxc.cpp:413)
Per MPI rank memory allocation (min/avg/max) = 18.75 | 18.81 | 18.91 Mbytes
Step Temp E_pair E_mol TotEng Press 
     188            0   -8727.7638            0   -8727.7638    34733.332 
     189            0   -8727.7638            0   -8727.7638    34734.234 
Loop time of 0.022654 on 8 procs for 1 steps with 49 atoms

99.4% CPU use with 8 MPI tasks x no OpenMP threads

Minimization stats:
  Stopping criterion = energy tolerance
  Energy initial, next-to-last, final = 
        -8727.76377885     -8727.76377885     -8727.76383444
  Force two-norm initial, final = 119.822 119.801
  Force max component initial, final = 36.6525 36.6446
  Final line search alpha, max atom move = 8.52603e-05 0.00312433
  Iterations, force evaluations = 1 8

MPI task timing breakdown:
Section |  min time  |  avg time  |  max time  |%varavg| %total
---------------------------------------------------------------
Pair    | 0.017791   | 0.017895   | 0.018104   |   0.1 | 78.99
Neigh   | 0          | 0          | 0          |   0.0 |  0.00
Comm    | 0.00016179 | 0.00036749 | 0.00047611 |   0.0 |  1.62
Output  | 0          | 0          | 0          |   0.0 |  0.00
Modify  | 0.0042943  | 0.0042954  | 0.0042967  |   0.0 | 18.96
Other   |            | 9.625e-05  |            |       |  0.42

Nlocal:    6.125 ave 7 max 6 min
Histogram: 7 0 0 0 0 0 0 0 0 1
Nghost:    598.125 ave 603 max 595 min
Histogram: 3 0 0 0 0 3 1 0 0 1
Neighs:    790.5 ave 890 max 771 min
Histogram: 7 0 0 0 0 0 0 0 0 1

Total # of neighbors = 6324
Ave neighs/atom = 129.061
Neighbor list builds = 0
Dangerous builds = 0

###
fix 1 all box/relax aniso 0.0
min_style cg
minimize 1.0e-8 1.0e-8 100000 100000
WARNING: Using 'neigh_modify every 1 delay 0 check yes' setting during minimization (../min.cpp:190)
WARNING: Total cutoff < 2*bond cutoff. May need to use an increased neighbor list skin. (../pair_reaxc.cpp:413)
Per MPI rank memory allocation (min/avg/max) = 18.75 | 18.81 | 18.91 Mbytes
Step Temp E_pair E_mol TotEng Press Volume 
     189            0   -8727.7638            0   -8727.7638    34734.234     1331.242 
     582            0   -8736.3082            0   -8736.3082      1033.38    1348.3123 
Loop time of 1.35105 on 8 procs for 393 steps with 49 atoms

99.5% CPU use with 8 MPI tasks x no OpenMP threads

Minimization stats:
  Stopping criterion = energy tolerance
  Energy initial, next-to-last, final = 
        -8727.76383444      -8736.3081406     -8736.30821243
  Force two-norm initial, final = 1174.18 48.4851
  Force max component initial, final = 680.234 21.2436
  Final line search alpha, max atom move = 5.18208e-06 0.000110086
  Iterations, force evaluations = 393 590

MPI task timing breakdown:
Section |  min time  |  avg time  |  max time  |%varavg| %total
---------------------------------------------------------------
Pair    | 1.1492     | 1.1555     | 1.1644     |   0.4 | 85.53
Neigh   | 0          | 0          | 0          |   0.0 |  0.00
Comm    | 0.0098584  | 0.018645   | 0.025239   |   3.5 |  1.38
Output  | 0.00064381 | 0.00077488 | 0.0010957  |   0.0 |  0.06
Modify  | 0.16567    | 0.16577    | 0.16583    |   0.0 | 12.27
Other   |            | 0.01035    |            |       |  0.77

Nlocal:    6.125 ave 7 max 6 min
Histogram: 7 0 0 0 0 0 0 0 0 1
Nghost:    598.125 ave 603 max 595 min
Histogram: 3 0 0 0 0 3 1 0 0 1
Neighs:    790.5 ave 890 max 771 min
Histogram: 7 0 0 0 0 0 0 0 0 1

Total # of neighbors = 6324
Ave neighs/atom = 129.061
Neighbor list builds = 0
Dangerous builds = 0

unfix 1
###
min_style cg
minimize 1.0e-8 1.0e-8 100000 100000
WARNING: Using 'neigh_modify every 1 delay 0 check yes' setting during minimization (../min.cpp:190)
WARNING: Total cutoff < 2*bond cutoff. May need to use an increased neighbor list skin. (../pair_reaxc.cpp:413)
Per MPI rank memory allocation (min/avg/max) = 18.75 | 18.81 | 18.91 Mbytes
Step Temp E_pair E_mol TotEng Press 
     582            0   -8736.3082            0   -8736.3082      1033.38 
    1025            0   -8786.9229            0   -8786.9229    23658.333 
Loop time of 8.38997 on 8 procs for 443 steps with 49 atoms

99.5% CPU use with 8 MPI tasks x no OpenMP threads

Minimization stats:
  Stopping criterion = energy tolerance
  Energy initial, next-to-last, final = 
        -8736.30821243     -8786.92282051     -8786.92290082
  Force two-norm initial, final = 33.4941 17.1078
  Force max component initial, final = 7.73352 8.49472
  Final line search alpha, max atom move = 1.0024e-06 8.51511e-06
  Iterations, force evaluations = 443 3383

MPI task timing breakdown:
Section |  min time  |  avg time  |  max time  |%varavg| %total
---------------------------------------------------------------
Pair    | 6.5857     | 6.6642     | 6.7165     |   1.7 | 79.43
Neigh   | 0          | 0          | 0          |   0.0 |  0.00
Comm    | 0.067513   | 0.11947    | 0.19879    |  12.9 |  1.42
Output  | 0.00084084 | 0.0010136  | 0.0014374  |   0.6 |  0.01
Modify  | 1.5855     | 1.5863     | 1.587      |   0.0 | 18.91
Other   |            | 0.01901    |            |       |  0.23

Nlocal:    6.125 ave 7 max 6 min
Histogram: 7 0 0 0 0 0 0 0 0 1
Nghost:    583.75 ave 590 max 576 min
Histogram: 1 1 0 0 0 2 2 0 0 2
Neighs:    773.5 ave 876 max 754 min
Histogram: 7 0 0 0 0 0 0 0 0 1

Total # of neighbors = 6188
Ave neighs/atom = 126.286
Neighbor list builds = 0
Dangerous builds = 0

###
fix 1 all box/relax aniso 0.0
min_style cg
minimize 1.0e-8 1.0e-8 100000 100000
WARNING: Using 'neigh_modify every 1 delay 0 check yes' setting during minimization (../min.cpp:190)
WARNING: Total cutoff < 2*bond cutoff. May need to use an increased neighbor list skin. (../pair_reaxc.cpp:413)
Per MPI rank memory allocation (min/avg/max) = 18.75 | 18.81 | 18.91 Mbytes
Step Temp E_pair E_mol TotEng Press Volume 
    1025            0   -8786.9229            0   -8786.9229    23658.333    1348.3123 
    1412            0   -8789.6186            0   -8789.6186   -248.58083    1359.1237 
Loop time of 1.5423 on 8 procs for 387 steps with 49 atoms

99.5% CPU use with 8 MPI tasks x no OpenMP threads

Minimization stats:
  Stopping criterion = energy tolerance
  Energy initial, next-to-last, final = 
        -8786.92290082     -8789.61858291     -8789.61860849
  Force two-norm initial, final = 807.639 22.852
  Force max component initial, final = 499.924 14.2627
  Final line search alpha, max atom move = 1.3608e-06 1.94087e-05
  Iterations, force evaluations = 387 669

MPI task timing breakdown:
Section |  min time  |  avg time  |  max time  |%varavg| %total
---------------------------------------------------------------
Pair    | 1.288      | 1.3113     | 1.3329     |   1.2 | 85.02
Neigh   | 0          | 0          | 0          |   0.0 |  0.00
Comm    | 0.010732   | 0.032144   | 0.055489   |   7.8 |  2.08
Output  | 0.0006468  | 0.00077328 | 0.0010907  |   0.0 |  0.05
Modify  | 0.18666    | 0.18675    | 0.18678    |   0.0 | 12.11
Other   |            | 0.0113     |            |       |  0.73

Nlocal:    6.125 ave 7 max 6 min
Histogram: 7 0 0 0 0 0 0 0 0 1
Nghost:    581.25 ave 590 max 570 min
Histogram: 1 0 1 1 0 0 2 1 0 2
Neighs:    781 ave 883 max 750 min
Histogram: 1 5 1 0 0 0 0 0 0 1

Total # of neighbors = 6248
Ave neighs/atom = 127.51
Neighbor list builds = 0
Dangerous builds = 0

unfix 1
###
min_style cg
minimize 1.0e-8 1.0e-8 100000 100000
WARNING: Using 'neigh_modify every 1 delay 0 check yes' setting during minimization (../min.cpp:190)
WARNING: Total cutoff < 2*bond cutoff. May need to use an increased neighbor list skin. (../pair_reaxc.cpp:413)
Per MPI rank memory allocation (min/avg/max) = 18.75 | 18.81 | 18.91 Mbytes
Step Temp E_pair E_mol TotEng Press 
    1412            0   -8789.6186            0   -8789.6186   -248.58083 
    1426            0   -8789.6287            0   -8789.6287    99.938564 
Loop time of 0.442067 on 8 procs for 14 steps with 49 atoms

99.5% CPU use with 8 MPI tasks x no OpenMP threads

Minimization stats:
  Stopping criterion = energy tolerance
  Energy initial, next-to-last, final = 
        -8789.61860849     -8789.62860245     -8789.62867528
  Force two-norm initial, final = 17.8461 15.8789
  Force max component initial, final = 6.4262 5.80689
  Final line search alpha, max atom move = 1.55111e-06 9.0071e-06
  Iterations, force evaluations = 14 187

MPI task timing breakdown:
Section |  min time  |  avg time  |  max time  |%varavg| %total
---------------------------------------------------------------
Pair    | 0.35372    | 0.35793    | 0.36207    |   0.4 | 80.97
Neigh   | 0          | 0          | 0          |   0.0 |  0.00
Comm    | 0.003152   | 0.007247   | 0.011396   |   3.1 |  1.64
Output  | 2.2161e-05 | 2.6501e-05 | 3.9975e-05 |   0.0 |  0.01
Modify  | 0.075802   | 0.075847   | 0.075887   |   0.0 | 17.16
Other   |            | 0.001018   |            |       |  0.23

Nlocal:    6.125 ave 7 max 6 min
Histogram: 7 0 0 0 0 0 0 0 0 1
Nghost:    560 ave 565 max 554 min
Histogram: 2 0 0 0 0 3 0 0 1 2
Neighs:    774.5 ave 872 max 749 min
Histogram: 3 4 0 0 0 0 0 0 0 1

Total # of neighbors = 6196
Ave neighs/atom = 126.449
Neighbor list builds = 0
Dangerous builds = 0

undump 1
#############
#----------- Thermo ------------
reset_timestep 0
thermo  200

thermo_style    custom step temp etotal ke pe press
velocity all create 300 12345 mom yes rot yes
fix 1 all npt temp 300 300 25.0 iso 0.0 0.0 250.0

variable vpe equal pe
variable vtemp equal temp
variable vstep equal step

fix output all print 2500 "${vstep} ${vtemp} ${vpe}" file temp-tpdh-Pt.dat screen no

dump 1 all custom 2500 thermo-tpdh-Pt.lammpstrj id type x y z

run 1000000
WARNING: Total cutoff < 2*bond cutoff. May need to use an increased neighbor list skin. (../pair_reaxc.cpp:413)
Per MPI rank memory allocation (min/avg/max) = 17.63 | 17.68 | 17.78 Mbytes
Step Temp TotEng KinEng PotEng Press 
       0          300    -8746.705    42.923665   -8789.6287    1543.6176 
     200    198.58659   -8728.4371    28.413547   -8756.8506    -28374.44 
     400    328.13811    -8700.943    46.949634   -8747.8926   -4789.4759 
     600    308.46935   -8694.2437     44.13545   -8738.3791   -3418.5652 
     800     282.2658   -8707.1097    40.386276    -8747.496   -12054.736 
    1000    234.98716    -8702.705      33.6217   -8736.3267    104.63224 
    1200     330.0886   -8694.0152    47.228707   -8741.2439   -14368.003 
    1400    271.71926   -8707.6295    38.877289   -8746.5068    3310.2647 
    1600    242.29419   -8705.1977    34.667181   -8739.8648    10629.273 
    1800    323.20865   -8699.6261    46.244333   -8745.8705    32758.022 
    2000    308.00198   -8698.4687     44.06858   -8742.5373   -985.15072 
    2200    331.28074   -8699.7153    47.399279   -8747.1145   -27307.306 
    2400    261.87334    -8708.081    37.468544   -8745.5495   -2863.6247 
    2600    277.74814    -8705.599    39.739894   -8745.3389   -3146.8461 
    2800    319.06024   -8690.4598    45.650782   -8736.1105   -16439.591 
    3000    226.76462   -8706.0637    32.445229   -8738.5089     -12503.1 
    3200    308.30539   -8698.2673    44.111991   -8742.3793    10625.948 
    3400    307.55496   -8692.3171    44.004621   -8736.3218   -19586.923 
    3600     265.4346   -8705.6437    37.978087   -8743.6218    6409.1493 
    3800    300.51598   -8708.0224    42.997491   -8751.0199    30758.883 
    4000    329.43984   -8691.8497    47.135884   -8738.9855   -4789.2763 
    4200    321.10377   -8702.9355    45.943169   -8748.8786     6597.717 
    4400    312.27735   -8701.3616    44.680294   -8746.0419   -13785.763 
    4600    352.81805   -8690.2523    50.480813   -8740.7331    11298.709 
    4800    285.00621    -8703.612     40.77837   -8744.3903    -12082.76 
    5000     299.8054   -8702.1388    42.895822   -8745.0347   -26290.391 
    5200    414.96714    -8683.796    59.373035    -8743.169   -18028.897 
    5400    323.49616   -8700.9326    46.285469   -8747.2181    21382.512 
    5600    319.37675   -8700.0239    45.696068     -8745.72    1073.9264 
    5800    284.46474   -8695.1326    40.700897   -8735.8335    26793.367 
    6000    338.13073   -8702.9074    48.379367   -8751.2868   -14640.389 
    6200    260.19519   -8715.0541    37.228437   -8752.2825    14288.598 
    6400    334.31494   -8695.2221    47.833409   -8743.0555   -20365.678 
    6600    321.34412   -8704.6165    45.977557    -8750.594    15850.124 
    6800    306.49472   -8703.8518    43.852923   -8747.7048    16479.354 
    7000    322.25041   -8691.5664    46.107228   -8737.6736    8568.0833 
    7200    294.21212   -8701.5287    42.095541   -8743.6242    2911.0456 
    7400    333.53315    -8705.232    47.721551   -8752.9535   -47498.729 
    7600    272.70655   -8696.7159    39.018549   -8735.7344   -13562.599 
    7800    383.76822   -8696.8106    54.909127   -8751.7197   -9776.6987 
    8000    301.70983    -8706.055    43.168305   -8749.2233   -14055.811 
    8200    339.14544   -8693.7468    48.524551   -8742.2714    12644.298 
    8400     303.5424   -8697.7011    43.430507   -8741.1316   -10373.797 
    8600    286.78008   -8711.0299    41.032173   -8752.0621    31892.905 
    8800    340.13336    -8694.753    48.665901   -8743.4189   -3307.0281 
    9000    342.74101   -8698.6833    49.039001   -8747.7223    2684.2807 
    9200    261.76705   -8714.7267    37.453338     -8752.18   -6244.9681 
    9400    270.03259   -8709.7624    38.635961   -8748.3984     19751.84 
    9600    295.57893   -8700.1161    42.291102   -8742.4072    230.22122 
    9800    353.13364    -8694.787    50.525966    -8745.313     28755.33 
   10000      271.026   -8708.4511    38.778098   -8747.2292        14569 
   10200    309.51658   -8698.6147    44.285287      -8742.9    13592.725 
   10400    252.36208   -8703.4626    36.107684   -8739.5703    16153.509 
   10600    234.12986    -8714.282    33.499038    -8747.781    -7800.417 
   10800    337.52233    -8695.289    48.292318   -8743.5813    35355.605 
   11000    305.94325   -8701.0144    43.774019   -8744.7885    6569.6757 
   11200    198.23764   -8715.6289     28.36362   -8743.9925   -53235.922 
   11400    315.97141   -8695.9249    45.208837   -8741.1337     14535.34 
   11600    254.83421   -8704.8455    36.461394   -8741.3069    1631.4045 
   11800    239.99584   -8707.2257    34.338336    -8741.564   -13852.163 
   12000    304.24679   -8695.0108    43.531291   -8738.5421   -12016.042 
   12200    289.10012   -8704.7565    41.364122   -8746.1206   -1096.2535 
   12400    383.23317   -8688.0014    54.832573   -8742.8339   -1733.3125 
   12600    348.48732    -8697.224    49.861177   -8747.0852    48691.909 
   12800    329.31829   -8709.0862    47.118493   -8756.2047   -4911.3288 
   13000    324.29078    -8702.546    46.399163   -8748.9451    3399.8769 
   13200    280.99732   -8698.3717    40.204782   -8738.5765    1209.0497 
   13400    320.60741   -8700.0659     45.87215   -8745.9381   -24888.345 
   13600    318.64018   -8701.5458    45.590681   -8747.1365   -2520.4469 
   13800    295.40467   -8705.5905    42.266169   -8747.8567   -16536.734 
   14000    352.13376   -8699.5397    50.382905   -8749.9226    14518.466 
   14200    316.44568   -8695.6742    45.276694   -8740.9509    23055.866 
   14400    294.86545   -8711.8427     42.18902   -8754.0317   -17382.394 
   14600    304.86725   -8706.8761    43.620065   -8750.4961    30820.184 
   14800    393.11254   -8694.3621    56.246104   -8750.6082   -607.91365 
   15000    314.26339   -8709.3652    44.964455   -8754.3297    43589.951 
   15200    293.07661   -8717.4525    41.933074   -8759.3856   -2433.0295 
   15400    280.56842   -8724.1458    40.143417   -8764.2892    11345.895 
   15600    252.67037   -8710.6878    36.151794   -8746.8396    29392.741 
   15800    347.91223   -8703.3363    49.778893   -8753.1152   -6780.0126 
   16000    259.31411   -8720.0175    37.102373   -8757.1199    24780.454 
   16200    276.86718   -8712.6358    39.613847   -8752.2496    6534.9648 
   16400    329.70225   -8708.7072     47.17343   -8755.8806   -2365.4408 
   16600    273.66616   -8717.5814    39.155849   -8756.7373   -23956.296 
   16800    280.10907   -8712.0155    40.077693   -8752.0932    31956.075 
   17000    349.40423   -8701.5857    49.992367    -8751.578   -42426.669 
   17200    258.94552   -8721.5272    37.049635   -8758.5768   -17350.646 
   17400    266.17831   -8714.8895    38.084495    -8752.974   -14314.572 
   17600    287.99511   -8701.3492    41.206019   -8742.5552    12583.781 
   17800     307.8699   -8711.2914    44.049682   -8755.3411   -9490.1679 
   18000    281.38299   -8716.8305    40.259964   -8757.0905     17489.47 
   18200    316.56898   -8705.6912    45.294336   -8750.9855    26083.379 
   18400    292.34535   -8716.9007    41.828445   -8758.7291    38754.158 
   18600    278.91382   -8720.6503    39.906677    -8760.557   -4847.8629 
   18800    334.26819   -8702.8888    47.826719   -8750.7155   -15256.562 
   19000    309.18762   -8708.6195     44.23822   -8752.8577    11541.307 
   19200    260.35301   -8722.8961    37.251018   -8760.1471    -7873.718 
   19400    303.49602   -8710.6401    43.423872    -8754.064    869.14839 
   19600    324.42014   -8706.0993    46.417671    -8752.517   -22533.721 
   19800    301.52147   -8713.8711    43.141354   -8757.0125    10882.695 
   20000    245.74798   -8720.2811    35.161346   -8755.4424   -29980.593 
   20200    293.78966   -8705.8572    42.035097   -8747.8923    33685.648 
   20400    277.43571   -8713.5467    39.695191   -8753.2419    31625.718 
   20600     299.0591   -8720.7331    42.789042   -8763.5222    18999.354 
   20800    336.43673   -8709.6467    48.136991   -8757.7836    6318.9245 
   21000    318.84597   -8708.4984    45.620125   -8754.1186   -17679.936 
   21200    223.60974   -8723.5772    31.993832   -8755.5711    39643.971 
   21400    316.88773   -8706.0238    45.339942   -8751.3637   -23688.343 
   21600    257.51354   -8713.9835    36.844749   -8750.8283    5810.9534 
   21800    240.03141   -8715.3108    34.343426   -8749.6543    4085.9121 
   22000    320.93329   -8697.7718    45.918777   -8743.6906     1957.397 
   22200    219.68588   -8715.0707     31.43241   -8746.5031   -8959.8307 
   22400    293.26196   -8713.1912    41.959594   -8755.1508   -37239.461 
   22600    345.22206   -8705.6454    49.393987   -8755.0394   -14001.259 
   22800    240.86444   -8722.9221    34.462615   -8757.3847   -21578.488 
   23000    314.83071   -8711.2386    45.045627   -8756.2842    30861.648 
   23200    261.65376   -8706.1737    37.437128   -8743.6109     2247.229 
   23400    332.66281   -8706.0517    47.597024   -8753.6487    31063.219 
   23600      299.896    -8710.942    42.908784   -8753.8508   -30371.164 
   23800    247.15279   -8726.6252    35.362345   -8761.9876   -15467.934 
   24000    281.95047   -8716.3589    40.341158      -8756.7   -481.86521 
   24200    307.82341   -8707.3161    44.043029   -8751.3592   -46231.574 
   24400    294.00665   -8703.6018    42.066143   -8745.6679        41124 
   24600    282.38695   -8715.6239    40.403609   -8756.0275    38233.132 
   24800    263.81052     -8714.15    37.745714   -8751.8958   -13383.961 
   25000    326.54256   -8704.0649    46.721344   -8750.7863    42907.841 
   25200    273.72219   -8712.0258    39.163865   -8751.1897    20056.483 
   25400     299.3421   -8711.2543    42.829533   -8754.0839    14222.027 
   25600     262.3587    -8706.002     37.53799     -8743.54   -8215.1609 
   25800    383.30475   -8698.1923    54.842815   -8753.0351    -11680.29 
   26000    296.22304   -8716.2173    42.383262   -8758.6006    -25629.94 
   26200    312.52831   -8716.2696    44.716202   -8760.9858   -28107.245 
   26400    340.37837   -8697.5379    48.700956   -8746.2388   -7103.8901 
   26600    333.39355   -8714.9403    47.701577   -8762.6419    2442.6336 
   26800    268.69748   -8715.6032    38.444934   -8754.0481    4031.2921 
   27000    333.07072   -8708.5246    47.655386     -8756.18   -4046.9183 
   27200    259.04587   -8718.8863    37.063993   -8755.9503    12974.311 
   27400    215.19995   -8731.4659    30.790568   -8762.2565   -19189.823 
   27600    276.73052   -8713.8332    39.594293   -8753.4275    6853.5859 
   27800    274.63255   -8700.5305    39.294118   -8739.8247   -9499.7383 
   28000    324.93593   -8715.6032    46.491469   -8762.0947    15290.766 
   28200    262.34516   -8718.1114    37.536053   -8755.6474   -5208.9805 
   28400    287.50999   -8708.2155    41.136608   -8749.3521    15423.453 
   28600    375.13109   -8687.2331    53.673338   -8740.9064    51561.047 
   28800     339.7745   -8704.8046    48.614555   -8753.4191   -13618.457 
   29000    327.98283   -8716.9866    46.927417    -8763.914   -24711.527 
   29200    335.99197   -8707.3997    48.073356    -8755.473    13255.445 
   29400    314.76741   -8708.4288     45.03657   -8753.4654    16042.915 
   29600    301.03702    -8715.753    43.072041    -8758.825     7320.166 
   29800    307.44273   -8696.6944    43.988562    -8740.683    6855.7145 
   30000    337.15385   -8704.4021    48.239597   -8752.6417   -19378.255 
   30200    317.50241   -8715.8218     45.42789   -8761.2497     20355.26 
   30400    326.72707   -8707.4108    46.747744   -8754.1585    18192.514 
   30600    273.94414   -8706.2047    39.195621   -8745.4003    40403.357 
   30800    281.96498   -8716.0513    40.343235   -8756.3945    7079.7598 
   31000    294.89923   -8713.9946    42.193852   -8756.1884    10562.629 
   31200    348.48202   -8700.6787    49.860418   -8750.5391   -8210.3134 
   31400    286.78157   -8716.2495    41.032387   -8757.2819   -28301.089 
   31600    311.49924   -8715.7277    44.568963   -8760.2967   -12784.957 
   31800    314.81753   -8702.0242     45.04374   -8747.0679    26887.336 
   32000    275.81499   -8718.7368      39.4633   -8758.2001     9230.355 
   32200    295.32133   -8718.2965    42.254245   -8760.5508   -14890.426 
   32400    297.67275    -8698.523    42.590684   -8741.1136    39960.655 
   32600    317.79679   -8710.8058    45.470009   -8756.2758    4167.0357 
   32800    304.27205   -8717.3533    43.534905   -8760.8882    7301.2636 
   33000    292.27914   -8710.1832    41.818973   -8752.0022   -3739.4188 
   33200    277.87504   -8706.5619     39.75805     -8746.32   -13029.933 
   33400    262.61125   -8717.7161    37.574124   -8755.2902    42558.893 
   33600    294.78547   -8711.7948    42.177576   -8753.9724   -30332.547 
   33800    253.38278   -8711.6194    36.253724   -8747.8731   -17126.071 
   34000    277.76761    -8720.589     39.74268   -8760.3317   -26058.331 
   34200    347.52371   -8706.3199    49.723304   -8756.0432   -10378.273 
   34400    372.10788    -8703.365    53.240779   -8756.6058    12061.565 
   34600      261.612   -8724.5088    37.431153     -8761.94   -10185.684 
   34800    259.68818   -8737.8935    37.155894   -8775.0494   -37132.498 
   35000    294.40434   -8747.2615    42.123043   -8789.3846    12431.896 
   35200    283.04126   -8740.9292    40.497228   -8781.4264    5000.8471 
   35400    301.61238   -8733.7694    43.154362   -8776.9237   -1844.7351 
   35600    290.98692   -8744.4784    41.634083   -8786.1125    1986.1945 
   35800    250.81631   -8758.4244    35.886517   -8794.3109   -8949.7517 
   36000    281.22177   -8739.1379    40.236896   -8779.3748    29076.966 
   36200    355.54438   -8737.7676    50.870892   -8788.6385   -4122.4144 
   36400    248.21253   -8747.6459    35.513972   -8783.1599    48469.627 
   36600    336.95299   -8728.3339    48.210857   -8776.5447    15910.895 
   36800    303.21456   -8740.2015    43.383601   -8783.5851   -25210.519 
   37000    263.68468   -8746.8017    37.727709   -8784.5294    24095.831 
   37200    299.11385   -8728.1477    42.796876   -8770.9446    26565.331 
   37400      307.009   -8740.2857    43.926505   -8784.2122    47651.583 
   37600     295.9999   -8740.9505    42.351335   -8783.3018    35471.584 
   37800    272.66654   -8725.5059    39.012824   -8764.5187    12121.553 
   38000    292.41529   -8735.9511    41.838453   -8777.7896    29876.711 
   38200    254.41708   -8744.2861    36.401711   -8780.6878    30785.931 
   38400    254.58387   -8740.9041    36.425576   -8777.3297   -14680.624 
   38600    327.19132   -8730.7945    46.814168   -8777.6086   -1512.1757 
   38800    256.63592   -8748.4214    36.719181   -8785.1406   -5230.3297 
   39000    304.14224    -8737.447    43.516331   -8780.9633   -17479.969 
   39200    331.36649   -8733.6451    47.411547   -8781.0567    24395.915 
   39400    302.84319   -8740.3387    43.330465   -8783.6692    3290.9992 
   39600    252.96878   -8750.6833     36.19449   -8786.8778   -7363.4326 
   39800    288.82502   -8739.4956    41.324761   -8780.8204    13655.128 
   40000    326.22453   -8731.4274    46.675841   -8778.1032   -18860.289 
   40200    361.01049   -8723.9528    51.652978   -8775.6058    21999.579 
   40400    299.45071   -8742.3681    42.845072   -8785.2132    28299.092 
   40600    297.46077   -8738.2591    42.560355   -8780.8194   -1536.2545 
   40800    324.69848   -8729.9862    46.457496   -8776.4437   -428.62186 
   41000    251.46866   -8746.6665    35.979855   -8782.6464    -1688.247 
   41200    329.00119   -8737.9758    47.073123   -8785.0489    12459.776 
   41400    299.60874   -8727.4178    42.867683   -8770.2855   -7962.6368 
   41600    300.99993   -8735.7393    43.066734   -8778.8061    4283.8197 
   41800    287.97405   -8749.8881    41.203006   -8791.0911   -9031.5387 
   42000    335.62231   -8732.3268    48.020466   -8780.3472    18832.524 
   42200    301.79327   -8733.7393    43.180243   -8776.9195    4260.9503 
   42400    261.56022   -8746.0508    37.423743   -8783.4745   -2048.6228 
   42600    353.25413   -8735.9001    50.543205   -8786.4433   -16261.249 
   42800    321.06389   -8736.2656    45.937462   -8782.2031   -16598.803 
   43000    275.35078    -8745.717    39.396881   -8785.1138   -14787.284 
   43200    262.77063    -8750.242    37.596928   -8787.8389   -10756.036 
   43400     382.6891   -8732.1928    54.754729   -8786.9475   -15996.365 
   43600     302.8457    -8744.083    43.330824   -8787.4138   -22338.414 
   43800    334.06402   -8737.0705    47.797506    -8784.868   -12325.744 
   44000    352.89384   -8735.3474    50.491656    -8785.839    25140.912 
   44200    274.52343    -8745.573    39.278506   -8784.8515     9618.652 
   44400    300.10377   -8735.5467    42.938512   -8778.4852    4283.0976 
   44600    260.32137    -8739.011    37.246491   -8776.2574   -22265.043 
   44800    270.71017   -8736.2471    38.732909     -8774.98   -22705.168 
   45000    344.15617   -8722.6577     49.24148   -8771.8992    31484.812 
   45200    280.19506   -8741.8155    40.089995   -8781.9055    31005.406 
   45400    323.27213   -8737.4152    46.253415   -8783.6686    2854.4277 
   45600    331.29566   -8732.3928    47.401412   -8779.7942   -13906.912 
   45800    278.98957   -8744.0961    39.917516   -8784.0136   -10979.184 
   46000    243.96566   -8749.1604    34.906334   -8784.0667   -25538.564 
   46200    289.06132   -8731.0995    41.358571    -8772.458    9919.2516 
   46400    282.47636   -8741.6196    40.416401    -8782.036    11533.092 
   46600    265.45617   -8746.2871    37.981172   -8784.2682    9527.2331 
   46800    277.85079   -8734.1289    39.754581   -8773.8835    6188.7489 
   47000     335.7143   -8737.3832    48.033627   -8785.4168   -6257.2272 
   47200    263.04302    -8755.761    37.635901   -8793.3969   -12652.108 
   47400    304.66359   -8740.0065    43.590926   -8783.5974   -43218.675 
   47600     320.3561   -8734.5793    45.836193   -8780.4155   -6354.5973 
   47800    321.29256   -8743.1155     45.97018   -8789.0857   -21143.806 
   48000    251.74039   -8750.4521    36.018734   -8786.4709   -1697.9864 
   48200     285.3962   -8732.2205    40.834169   -8773.0547     20386.45 
   48400    309.48481   -8736.6872    44.280741    -8780.968     22790.08 
   48600    294.71274   -8747.9056     42.16717   -8790.0728    3902.3857 
   48800    283.39255   -8737.7782    40.547489   -8778.3257    2549.6365 
   49000    306.00099    -8732.612    43.782279   -8776.3942   -7724.2441 
   49200    227.43655   -8754.4815    32.541367   -8787.0229    736.88375 
   49400    296.57851   -8736.3965    42.434122   -8778.8306   -42547.759 
   49600      322.176   -8734.9467    46.096582   -8781.0432   -1912.6543 
   49800    318.43473   -8746.3515    45.561285   -8791.9128    2287.2848 
   50000     293.4057   -8737.9649    41.980159    -8779.945   -2216.2252 
   50200     306.4898   -8738.9202    43.852219   -8782.7724    31214.357 
   50400    259.71513   -8738.2391     37.15975   -8775.3989   -21150.602 
   50600    325.30439   -8739.3504    46.544189   -8785.8945   -26805.781 
   50800    313.86005   -8736.4343    44.906745    -8781.341    -24376.71 
   51000    330.41386   -8733.2168    47.275246    -8780.492    4139.5921 
   51200     260.4858    -8745.731    37.270017   -8783.0011    11161.597 
   51400    297.13899   -8735.9593    42.514315   -8778.4737   -18718.838 
   51600    354.45499    -8729.391    50.715024    -8780.106   -624.30669 
   51800     339.0231   -8743.9082    48.507047   -8792.4153    990.51953 
   52000    328.57305   -8736.5457    47.011865   -8783.5575   -19486.062 
   52200    350.56213    -8729.986    50.158037   -8780.1441   -8355.2988 
   52400     277.9877   -8740.6177     39.77417   -8780.3918   -19341.871 
   52600    278.21333   -8747.9148    39.806452   -8787.7213    5607.1196 
   52800    323.75888   -8730.3235    46.323058   -8776.6466   -13960.102 
   53000    286.15107   -8742.4248    40.942176    -8783.367   -4895.0261 
   53200    303.62953   -8736.1879    43.442974   -8779.6309    2760.0935 
   53400    309.22258   -8729.5343    44.243221   -8773.7775   -4327.6653 
   53600    308.13475   -8733.5168    44.087576   -8777.6044   -14384.117 
   53800    356.11096   -8744.1966    50.951959   -8795.1486    30635.519 
   54000    253.40479   -8740.9574    36.256874   -8777.2143   -3534.8896 
   54200     320.1035   -8734.0774    45.800051   -8779.8775   -38708.063 
   54400    295.51425   -8745.0454    42.281848   -8787.3272   -6929.2353 
   54600    284.88805   -8736.6811    40.761463   -8777.4426    23036.324 
   54800    301.02036   -8732.3529    43.069657   -8775.4225    22149.728 
   55000    280.21034   -8745.1579    40.092182   -8785.2501    9619.9961 
   55200    294.49881   -8737.9887    42.136561   -8780.1252    14511.967 
   55400    301.00006   -8736.1743    43.066753    -8779.241    695.21602 
   55600    230.14979   -8752.0425    32.929575   -8784.9721    321.60302 
   55800    294.54498    -8738.073    42.143166   -8780.2162    14598.524 
   56000    314.57011   -8731.7446    45.008339   -8776.7529   -26133.561 
   56200    303.02641   -8737.1188     43.35668   -8780.4755   -27375.545 
   56400    274.84346   -8745.6853    39.324295   -8785.0096   -16656.518 
   56600    303.35049   -8734.6669    43.403049   -8778.0699   -27000.909 
   56800    347.71205   -8731.4387    49.750251    -8781.189   -1743.1161 
   57000    287.90298   -8746.9154    41.192837   -8788.1082   -11665.353 
   57200    264.70855   -8738.6223    37.874204   -8776.4965    26582.792 
   57400    296.10257   -8732.5263    42.366025   -8774.8923    14487.128 
   57600    259.76176   -8737.8738    37.166423   -8775.0402   -5902.7239 
   57800    279.67728   -8748.9165    40.015913   -8788.9324    9324.3064 
   58000    279.78873   -8745.6884    40.031858   -8785.7203   -6490.9065 
   58200    294.92414   -8731.2548    42.197416   -8773.4522    16190.761 
   58400    275.12595   -8742.8063    39.364714    -8782.171    11761.656 
   58600    277.28406   -8744.2602    39.673493   -8783.9337   -2947.8804 
   58800    372.71843   -8721.7156    53.328137   -8775.0438    23521.992 
   59000     302.8699   -8732.2094    43.334287   -8775.5436   -10081.843 
   59200    308.60036   -8740.7567    44.154195   -8784.9109   -19505.404 
   59400     348.3423   -8731.6749    49.840427   -8781.5153   -9520.4271 
   59600     229.8931   -8747.6433    32.892847   -8780.5362    32012.707 
   59800    343.41169   -8737.3949    49.134961   -8786.5299   -16420.236 
   60000     253.8348    -8752.119    36.318399   -8788.4374   -5974.3105 
   60200     265.2516   -8748.5174    37.951903   -8786.4693    31194.388 
   60400    296.62389   -8736.9128    42.440615   -8779.3534   -1348.1235 
   60600    364.25133   -8726.9335    52.116673   -8779.0502    14657.211 
   60800    223.95643    -8745.022    32.043435   -8777.0654   -9165.7202 
   61000    277.38035    -8744.454    39.687271   -8784.1413   -6048.3265 
   61200    345.36699   -8726.5928    49.414723   -8776.0075    17815.202 
   61400    285.31631   -8739.5952    40.822739   -8780.4179   -36846.139 
   61600    284.93276   -8740.9197    40.767862   -8781.6876   -38406.379 
   61800    248.16773   -8749.4868    35.507562   -8784.9943    -4912.312 
   62000    252.26895   -8740.7542    36.094359   -8776.8486    27654.152 
   62200    326.62048   -8738.0138    46.732493   -8784.7463   -17423.098 
   62400    292.69948   -8742.3013    41.879115   -8784.1804    5533.1532 
   62600    279.70179   -8730.9427    40.019419   -8770.9621    17166.272 
   62800     294.8163   -8741.7207    42.181986   -8783.9026    3847.7555 
   63000    352.20145   -8733.1167    50.392589   -8783.5093   -5440.8407 
   63200    324.65988   -8735.4014    46.451972   -8781.8534    18098.358 
   63400    309.49796    -8743.833    44.282623   -8788.1156     28367.25 
   63600    268.98105   -8742.9176    38.485508   -8781.4031   -16899.206 
   63800    321.23748   -8735.9325      45.9623   -8781.8948   -8266.2331 
   64000    297.53781   -8739.9813    42.571377   -8782.5526       954.96 
   64200    276.99345   -8746.9397    39.631913   -8786.5716   -16020.827 
   64400    355.98965   -8729.8283    50.934602   -8780.7629    -19344.28 
   64600    231.32579   -8744.1831    33.097835   -8777.2809   -9469.4457 
   64800    304.39145    -8740.322    43.551988    -8783.874   -31182.092 
   65000    242.34543   -8744.9527    34.674513   -8779.6272   -1895.7383 
   65200    363.80916   -8733.7198    52.053408   -8785.7732    927.96444 
   65400    278.04013   -8743.4204    39.781671   -8783.2021    9105.2988 
   65600    266.63625   -8744.9121    38.150016   -8783.0621      1339.76 
   65800    355.45078   -8731.9706    50.857501   -8782.8281    4023.0107 
   66000    264.85845   -8744.0026     37.89565   -8781.8982    13310.744 
   66200    290.60587   -8748.0802    41.579564   -8789.6598   -4469.5382 
   66400    320.71354   -8729.2899    45.887335   -8775.1772    27153.362 
   66600    304.47912   -8732.7882    43.564533   -8776.3527    54158.838 
   66800    272.63618   -8749.0532     39.00848   -8788.0617    10978.319 
   67000    344.24168   -8734.0884    49.253714   -8783.3421    37.729012 
   67200    336.57376   -8735.0473    48.156597   -8783.2039   -7892.3441 
   67400      242.066   -8743.1219    34.634533   -8777.7564     11519.45 
   67600     299.1678   -8736.0462    42.804595   -8778.8508    22811.219 
   67800    296.98355   -8742.3466    42.492074   -8784.8387    1737.4739 
   68000    302.56375   -8745.7924    43.290483   -8789.0828   -4926.0664 
   68200    288.94078   -8733.2559    41.341324   -8774.5972    8197.0328 
   68400    311.30218   -8742.9376    44.540769   -8787.4784   -1996.3713 
   68600    295.22268   -8749.3066    42.240132   -8791.5467   -984.71009 
   68800    307.78557   -8734.4034    44.037615    -8778.441   -24982.522 
   69000    313.59222   -8734.1353    44.868425   -8779.0037   -11680.212 
   69200    238.41473   -8751.7938    34.112114   -8785.9059    20269.099 
   69400     271.8661   -8738.1097    38.898298    -8777.008    1976.7388 
   69600    272.57925   -8736.4244    39.000335   -8775.4247    16923.792 
   69800    264.54202   -8752.3664    37.850377   -8790.2168    7910.0932 
   70000    248.62261   -8739.9126    35.572646   -8775.4852   -12916.094 
   70200    292.70646   -8736.4772    41.880113   -8778.3573    11669.726 
   70400    318.84235   -8736.6168    45.619607   -8782.2364   -42966.901 
   70600    207.12766   -8752.7716    29.635594   -8782.4072   -28183.215 
   70800    295.61821   -8736.9995    42.296724   -8779.2963    30936.256 
   71000    272.15307   -8744.0848    38.939358   -8783.0242     40369.15 
   71200    277.98562   -8743.1866    39.773872   -8782.9605    36916.046 
   71400    303.19182   -8733.7286    43.380346   -8777.1089   -2434.1904 
   71600    252.95818   -8744.4238    36.192973   -8780.6168   -18357.198 
   71800    378.69391   -8721.2492    54.183102   -8775.4323   -15339.108 
   72000    327.74625   -8731.2542    46.893567   -8778.1478    11073.444 
   72200    258.78934   -8741.7061     37.02729   -8778.7333   -6171.2807 
   72400    327.07168   -8743.8855     46.79705   -8790.6826   -12913.949 
   72600    379.74584   -8727.7982    54.333611   -8782.1318     5608.578 
   72800     302.1471   -8739.2228    43.230869   -8782.4537   -12188.336 
   73000    326.00981   -8744.2974    46.645119   -8790.9425    -13965.09 
   73200    293.03007   -8739.4457    41.926415   -8781.3721    15331.873 
   73400    303.18046   -8736.6562    43.378721    -8780.035    4739.2872 
   73600    300.32379   -8732.9423    42.969992   -8775.9123   -6053.2741 
   73800    249.39055    -8746.688    35.682521   -8782.3705   -26256.469 
   74000    340.92294   -8733.2189    48.778873   -8781.9978    34384.936 
   74200    290.82025   -8742.2094    41.610236   -8783.8197     4206.844 
   74400    303.09238   -8744.3244     43.36612   -8787.6906    7914.3486 
   74600    292.88679   -8734.6844    41.905915   -8776.5903   -21370.831 
   74800    327.33606   -8736.9453    46.834877   -8783.7801    16239.372 
   75000    311.44177   -8749.2459     44.56074   -8793.8066    9126.8553 
   75200    293.28939   -8733.2761    41.963519   -8775.2397    21130.549 
   75400    284.26771   -8732.6974    40.672707   -8773.3701    7303.8553 
   75600    294.95114    -8744.288     42.20128   -8786.4892    38753.902 
   75800    304.95537   -8740.9751    43.632673   -8784.6078   -37513.474 
   76000    348.45563   -8738.0161    49.856643   -8787.8727    11968.801 
   76200    291.25329   -8747.0918    41.672195    -8788.764    22358.146 
   76400    331.94744   -8739.7851    47.494669   -8787.2798   -29419.198 
   76600    339.02665   -8725.0632    48.507554   -8773.5707    18688.179 
   76800    280.70858   -8740.4419    40.163469   -8780.6053    5714.1925 
   77000    294.06158   -8747.1306    42.074003   -8789.2046   -9044.3178 
   77200     356.8731    -8730.722    51.061005    -8781.783    7102.8687 
   77400    279.23516   -8737.0885    39.952655   -8777.0411   -7662.3173 
   77600    309.54646   -8743.1485    44.289561    -8787.438    21582.046 
   77800    303.78835   -8737.3937    43.465698   -8780.8594    4715.4666 
   78000    353.48718   -8728.7164     50.57655   -8779.2929     34369.77 
   78200    303.89643   -8745.7419    43.481161   -8789.2231   -11882.158 
   78400    300.64013   -8734.7548    43.015254   -8777.7701    7630.1844 
   78600    324.65503   -8736.0551    46.451279   -8782.5064    36233.752 
   78800    234.20043   -8748.5595    33.509136   -8782.0686   -1576.6382 
   79000    318.66379   -8736.2264    45.594059   -8781.8205    30023.179 
   79200    308.21736   -8740.1792    44.099396   -8784.2786    -8160.306 
   79400    269.24887   -8750.6037    38.523827   -8789.1275   -30930.171 
   79600     331.8814   -8736.8034     47.48522   -8784.2886    49578.041 
   79800    278.23772   -8738.4175    39.809943   -8778.2275    1275.1677 
   80000    282.31458   -8753.0764    40.393255   -8793.4697   -19598.492 
   80200    284.94827   -8751.0983     40.77008   -8791.8684   -35103.042 
   80400    287.04399   -8733.2077    41.069933   -8774.2776   -1831.1831 
   80600    349.91027   -8736.7845    50.064771   -8786.8493    29051.888 
   80800    228.39015   -8746.7372    32.677807    -8779.415    8002.5627 
   81000    313.46363    -8734.697    44.850026    -8779.547   -21899.517 
   81200    380.82663   -8730.7572    54.488248   -8785.2454   -3470.1479 
   81400    279.61638    -8743.837    40.007199   -8783.8442    2803.5936 
   81600    299.27107   -8736.8977     42.81937   -8779.7171    18659.424 
   81800     309.9524   -8737.7689    44.347643   -8782.1165    -23868.71 
   82000    260.25837   -8750.6331    37.237477   -8787.8706    -41532.33 
   82200    318.26892   -8741.4837    45.537562   -8787.0213   -4681.2252 
   82400    327.43367   -8727.5176    46.848844   -8774.3664   -27445.933 
   82600    254.50923   -8744.2312    36.414896   -8780.6461    1934.4664 
   82800    286.58118   -8739.8212    41.003715   -8780.8249   -1387.5206 
   83000    308.49178    -8728.722    44.138659   -8772.8606    22076.486 
   83200    261.58837   -8744.3589    37.427772   -8781.7867    13489.191 
   83400    331.03048   -8743.4802     47.36347   -8790.8437   -14623.459 
   83600    406.66537    -8725.934    58.185226   -8784.1193   -18177.726 
   83800    276.79955   -8737.6098    39.604171    -8777.214   -16056.735 
   84000    326.71364   -8737.9006    46.745822   -8784.6464   -20914.599 
   84200    287.76816   -8750.5597    41.173547   -8791.7332    20754.863 
   84400    310.25693   -8740.7246    44.391215   -8785.1158    8282.2356 
   84600    271.52131   -8740.3198    38.848966   -8779.1687    20232.207 
   84800    218.10612   -8751.5772     31.20638   -8782.7836   -10374.475 
   85000    288.09215   -8738.4635    41.219903   -8779.6834    22592.464 
   85200    292.87765   -8735.8608    41.904607   -8777.7654   -10203.674 
   85400    241.26133   -8748.3063    34.519402   -8782.8257    15627.525 
   85600    278.18066   -8746.6557    39.801777   -8786.4575   -23134.237 
   85800    359.96554   -8737.1285    51.503467   -8788.6319    28021.672 
   86000    311.32336   -8737.1384    44.543798   -8781.6822   -13055.646 
   86200    243.07964    -8747.701    34.779563   -8782.4806     2284.686 
   86400    300.04227   -8736.7448    42.929713   -8779.6746   -20392.761 
   86600    329.69285   -8724.2863    47.172084   -8771.4584    20218.679 
   86800    294.11999   -8745.0287     42.08236   -8787.1111   -18063.447 
   87000    261.61908   -8746.5974    37.432165   -8784.0296    16922.363 
   87200    304.15557   -8731.5596    43.518239   -8775.0778   -8263.6913 
   87400    316.54122   -8741.0334    45.290363   -8786.3238    6870.7572 
   87600    278.75157   -8745.4301    39.883463   -8785.3136   -1111.8062 
   87800    308.49853   -8735.3615    44.139624   -8779.5011   -1889.0449 
   88000    311.61066   -8735.9292    44.584905   -8780.5141   -31975.463 
   88200    271.07683   -8745.8905     38.78537   -8784.6759    3836.5631 
   88400    311.35706   -8742.9767     44.54862   -8787.5253    37372.657 
   88600    359.54177   -8729.2208    51.442835   -8780.6636    53213.117 
   88800    259.93889   -8750.1525    37.191765   -8787.3443    7507.0958 
   89000    302.15273    -8734.952    43.231675   -8778.1837    11556.947 
   89200    356.18101   -8738.3252    50.961981   -8789.2872   -45269.314 
   89400    284.19026   -8741.2465    40.661624   -8781.9082    1700.0545 
   89600    360.03037   -8719.2221    51.512743   -8770.7349    1876.4967 
   89800     318.5823   -8734.4717    45.582399   -8780.0541   -1945.9979 
   90000    268.41357   -8744.9563    38.404314   -8783.3606    27622.561 
   90200    323.66956   -8726.2428    46.310278   -8772.5531   -22282.106 
   90400      284.289   -8729.6502    40.675752    -8770.326   -16371.113 
   90600    267.81857   -8741.8953    38.319181   -8780.2145   -23703.337 
   90800    371.58935   -8736.9003    53.166588   -8790.0669    18582.843 
   91000    346.40429   -8724.7861    49.563138   -8774.3492   -14892.727 
   91200    262.79919   -8744.2637    37.601014   -8781.8647    -522.5184 
   91400    314.61263   -8736.1936    45.014424    -8781.208    20818.924 
   91600    347.09451   -8723.9232    49.661895   -8773.5851    32840.936 
   91800     310.1471   -8741.4743      44.3755   -8785.8498   -30479.155 
   92000    276.84994   -8744.2454    39.611381   -8783.8568   -6178.6874 
   92200    300.34407   -8726.1873    42.972895   -8769.1602   -4886.6025 
   92400    246.16501   -8739.7015    35.221014   -8774.9225    10673.401 
   92600    251.48295   -8740.0059    35.981899   -8775.9878    26383.403 
   92800    324.82241   -8727.9765    46.475228   -8774.4517    -2676.085 
   93000    248.82982   -8740.0598    35.602292   -8775.6621     -13189.2 
   93200    239.59816   -8747.3566    34.281437    -8781.638    30728.507 
   93400    307.75804   -8728.4787    44.033676   -8772.5123    -3524.631 
   93600    305.96932   -8737.4898    43.777748   -8781.2676   -36664.261 
   93800    270.50191   -8747.4653    38.703112   -8786.1684    48314.405 
   94000    332.22595   -8730.7784    47.534517   -8778.3129    6048.8809 
   94200    327.26193   -8733.7853    46.824271   -8780.6096    13166.658 
   94400    328.15183   -8742.7826    46.951597   -8789.7342    28782.799 
   94600    275.85632    -8739.564    39.469214   -8779.0332   -13412.997 
   94800    362.00963   -8725.5657    51.795934   -8777.3617   -28675.926 
   95000    271.31739   -8745.2947    38.819789   -8784.1145   -27522.409 
   95200    265.50017   -8736.3337    37.987468   -8774.3212    3850.0777 
   95400    319.81407   -8729.3699     45.75864   -8775.1285     20065.23 
   95600    279.45293   -8747.0576    39.983813   -8787.0414    -16651.32 
   95800    317.67484   -8735.5707    45.452562   -8781.0233   -3110.1935 
   96000    363.95836   -8725.9181    52.074756   -8777.9929   -52237.659 
   96200    282.65543   -8745.0786    40.442023   -8785.5207   -12953.248 
   96400    276.72606   -8736.5943    39.593656   -8776.1879   -10118.492 
   96600    336.05417   -8724.8877    48.082255     -8772.97    15576.118 
   96800    248.66726   -8748.3045    35.579034   -8783.8835   -6115.9595 
   97000    324.62357   -8737.1813    46.446777   -8783.6281    7447.9587 
   97200    295.39844   -8739.4074    42.265279   -8781.6726   -14741.235 
   97400    270.66541   -8753.2363    38.726504   -8791.9628    3852.9216 
   97600    238.64951   -8749.1493    34.145705    -8783.295   -7360.8285 
   97800    352.34501   -8733.4165     50.41313   -8783.8296    7622.9382 
   98000    310.69167   -8738.4597    44.453418   -8782.9131   -16725.173 
   98200    290.88807   -8744.9346     41.61994   -8786.5545    10729.842 
   98400    341.40227   -8733.7153    48.847455   -8782.5628   -17333.888 
   98600    268.67526   -8746.0115    38.441756   -8784.4533    15297.691 
   98800     319.6187   -8744.7723    45.730686    -8790.503    16479.606 
   99000    280.41015   -8732.8324    40.120771   -8772.9532    7855.5431 
   99200    314.66853   -8735.7989    45.022421   -8780.8213   -21481.746 
   99400    321.68656   -8739.9021    46.026553   -8785.9287   -11904.572 
   99600    318.10311   -8738.6789    45.513838   -8784.1927   -1621.3369 
   99800    300.35276   -8742.4115    42.974138   -8785.3856    23601.229 
  100000    277.39605   -8739.8171    39.689517   -8779.5066   -3996.5895 
  100200    287.25757   -8729.6915    41.100492    -8770.792   -14661.227 
  100400    289.35591   -8734.2274     41.40072   -8775.6281    60637.698 
  100600    282.77687   -8744.0078    40.459398   -8784.4672   -5122.3031 
  100800    320.45736    -8728.192    45.850681   -8774.0427   -30411.998 
  101000    347.27089   -8733.0698    49.687131    -8782.757   -2361.5338 
  101200    326.96909   -8741.0188    46.782373   -8787.8012   -45582.724 
  101400    236.03191   -8751.3791    33.771182   -8785.1503   -16679.685 
  101600    283.79189   -8735.0067    40.604627   -8775.6114    29470.341 
  101800    347.37689   -8735.1143    49.702297   -8784.8165    3793.1643 
  102000    255.73628   -8747.8088    36.590461   -8784.3993    614.67961 
  102200    297.34419   -8741.2533    42.543674    -8783.797   -30697.952 
  102400    307.41221     -8733.18    43.984195   -8777.1642    15552.771 
  102600    326.94319   -8726.4393    46.778667    -8773.218   -9235.3908 
  102800    281.08051   -8741.8039    40.216685   -8782.0206   -6700.6019 
  103000    304.94151   -8741.9793    43.630691     -8785.61   -7561.8394 
  103200    318.15529   -8725.3853    45.521303   -8770.9066    5869.8923 
  103400    276.47578   -8741.2572    39.557845   -8780.8151    8940.0927 
  103600    309.35933   -8742.8032    44.262787    -8787.066    25545.081 
  103800    365.91902   -8727.3058    52.355285   -8779.6611   -2524.4754 
  104000    370.81588   -8734.6999    53.055922   -8787.7558   -11220.273 
  104200    323.18536   -8742.4487    46.240999   -8788.6897    1381.8523 
  104400    328.21458   -8730.1659    46.960576   -8777.1265   -21475.186 
  104600    295.32853   -8744.6346    42.255276   -8786.8899   -29164.805 
  104800    272.56891   -8742.9821    38.998855    -8781.981    1385.2515 
  105000    291.20711   -8729.5062    41.665587   -8771.1718    10315.496 
  105200    383.34681   -8718.1228    54.848833   -8772.9717    31732.955 
  105400    276.08223   -8741.5634    39.501537    -8781.065   -18557.129 
  105600    315.47158   -8734.9489    45.137321   -8780.0862    1728.3122 
  105800    289.42712   -8736.5939    41.410908   -8778.0048    6904.9661 
  106000    257.34438   -8749.0927    36.820546   -8785.9132   -22297.133 
  106200    294.42077   -8731.0959    42.125395   -8773.2213    5623.7896 
  106400    342.98348   -8730.2601    49.073693   -8779.3338   -13606.821 
  106600    324.21589   -8747.2621    46.388448   -8793.6505    16487.049 
  106800    307.95824    -8736.234     44.06232   -8780.2963    9298.3051 
  107000    328.82826   -8736.3468     47.04838   -8783.3952   -24841.902 
  107200    248.64214   -8754.0875    35.575439   -8789.6629   -2181.3078 
  107400    273.65165   -8744.4859    39.153772   -8783.6396   -7972.6382 
  107600    357.60284   -8732.9339    51.165414   -8784.0993    -16661.17 
  107800    295.89786   -8742.1196    42.336735   -8784.4564    25485.176 
  108000    290.25168   -8744.2141    41.528886    -8785.743    11926.619 
  108200     391.3123   -8731.7778    55.988526   -8787.7664    7063.2281 
  108400    276.80069   -8750.1383    39.604334   -8789.7426    9403.3966 
  108600    331.90885   -8740.5288    47.489148    -8788.018   -12498.502 
  108800    288.54887   -8734.4289    41.285249   -8775.7141    30691.039 
  109000    274.73421   -8753.8854    39.308664    -8793.194    29461.192 
  109200    327.62782   -8743.0085    46.876623   -8789.8852   -4131.8826 
  109400    302.11885   -8736.6399    43.226827   -8779.8668   -44154.849 
  109600    324.73161   -8724.3528    46.462235    -8770.815    9801.8493 
  109800    308.73316   -8741.2902    44.173196   -8785.4634   -33315.634 
  110000    309.64563   -8740.5125     44.30375   -8784.8162    7451.7381 
  110200    334.33764    -8727.291    47.836656   -8775.1277    26737.446 
  110400    301.96814   -8737.4294    43.205264   -8780.6346        18933 
  110600     302.2661   -8744.3476    43.247896   -8787.5955    7998.3425 
  110800    358.03228   -8728.7592    51.226858    -8779.986   -34258.291 
  111000    289.73996   -8738.6334     41.45567   -8780.0891   -20631.275 
  111200    253.77016     -8744.85     36.30915   -8781.1592   -31569.213 
  111400    348.57913   -8739.9991    49.874312   -8789.8734   -11568.741 
  111600     343.3128   -8728.9596    49.120812   -8778.0804   -10578.128 
  111800    290.42751   -8731.6943    41.554044   -8773.2483   -7346.3875 
  112000     368.7058   -8739.3011    52.754013   -8792.0551    13833.921 
  112200     275.3809   -8742.1767    39.401191   -8781.5779   -18905.556 
  112400    316.12669   -8719.5174    45.231053   -8764.7484    11801.777 
  112600    309.05836   -8736.4051    44.219725   -8780.6248    2899.3137 
  112800    298.57334   -8744.7567     42.71954   -8787.4763   -25647.568 
  113000    273.73839   -8730.8012    39.166183   -8769.9674   -3580.9875 
  113200    341.41374   -8733.6833    48.849096   -8782.5324    26935.882 
  113400    289.52952   -8741.3325     41.42556   -8782.7581    24229.077 
  113600    313.35105   -8742.4802    44.833918   -8787.3141    11699.802 
  113800    327.74755   -8740.6621    46.893753   -8787.5559   -12346.269 
  114000    274.21494   -8742.5389    39.234368   -8781.7733   -13776.001 
  114200    334.16819   -8728.8757    47.812412   -8776.6881    20578.263 
  114400     303.9265   -8740.7009    43.485464   -8784.1864   -17325.688 
  114600    290.79682   -8739.8034    41.606884   -8781.4103   -17000.529 
  114800    334.40949   -8738.9523    47.846937   -8786.7993    -5188.362 
  115000    314.34978    -8744.403    44.976815   -8789.3798   -6322.8241 
  115200    306.61028   -8743.7988    43.869456   -8787.6683    16587.418 
  115400    369.01399   -8729.8247    52.798109   -8782.6229   -10022.702 
  115600    295.11682    -8735.391    42.224985    -8777.616    11109.988 
  115800      307.333   -8737.5299    43.972862   -8781.5028    37174.562 
  116000    289.90476   -8745.9015    41.479249   -8787.3807   -5685.6665 
  116200    335.75201   -8729.0924    48.039023   -8777.1314    5652.0144 
  116400    275.12815   -8744.2667    39.365028   -8783.6318   -23122.878 
  116600    339.88974   -8737.4639    48.631045    -8786.095   -18185.622 
  116800    377.03961   -8719.6226    53.946406    -8773.569   -14844.876 
  117000    355.76597   -8735.9063    50.902597   -8786.8089   -7287.4219 
  117200    257.94738   -8746.3673    36.906822   -8783.2741    9804.6242 
  117400    291.88803   -8735.4482    41.763013   -8777.2112    53579.105 
  117600     324.9299   -8727.4583    46.490607    -8773.949   -19076.978 
  117800    287.53271   -8745.0203    41.139859   -8786.1601    6560.3207 
  118000    287.08364    -8732.663    41.075606   -8773.7386    20083.615 
  118200    275.75757   -8740.5139    39.455086    -8779.969     8197.526 
  118400    291.65151   -8743.3459    41.729172   -8785.0751    -17245.09 
  118600    215.86393   -8747.3063    30.885571   -8778.1919   -10675.124 
  118800     344.8637   -8731.7643    49.342712    -8781.107   -14441.163 
  119000     250.4105    -8740.782    35.828455   -8776.6105    2510.9392 
  119200    289.00534    -8740.474    41.350561   -8781.8245     3056.763 
  119400    315.54585   -8738.4453    45.147948   -8783.5932    7792.4733 
  119600    259.13265   -8747.4601    37.076411   -8784.5365    13936.552 
  119800    303.45456   -8745.4518    43.417939   -8788.8697    6929.9956 
  120000    332.52422   -8741.4458    47.577194    -8789.023   -7846.5634 
  120200    283.97122   -8739.0516    40.630285   -8779.6819   -7665.6464 
  120400    354.77935   -8730.4694    50.761433   -8781.2308   -6949.1102 
  120600    262.34009    -8740.121    37.535327   -8777.6563    7547.3865 
  120800    333.46342   -8735.2547    47.711573   -8782.9663    702.32407 
  121000    250.42569   -8751.9945    35.830627   -8787.8251    524.85442 
  121200    350.94576   -8741.1233    50.212927   -8791.3362   -14855.286 
  121400     300.3179   -8735.9718     42.96915   -8778.9409    38094.074 
  121600    368.40253   -8724.4576    52.710622   -8777.1682   -12940.737 
  121800    309.73861   -8739.6602    44.317054   -8783.9772    4624.0694 
  122000    319.44685   -8732.4533    45.706098   -8778.1594   -31396.806 
  122200    301.26383   -8734.6789    43.104493   -8777.7834   -4534.0522 
  122400    288.19106     -8747.32    41.234055   -8788.5541    29789.837 
  122600    341.57077   -8733.8795    48.871564   -8782.7511     15269.22 
  122800    296.05667   -8733.8375    42.359457    -8776.197    31596.158 
  123000    286.45263   -8751.0456    40.985322   -8792.0309   -1622.0573 
  123200    206.66958    -8757.478    29.570053   -8787.0481   -13508.191 
  123400    321.00827   -8739.0581    45.929505   -8784.9876    7412.4502 
  123600    324.61134   -8738.8122    46.445028   -8785.2572    22821.946 
  123800     227.2722   -8750.6616    32.517852   -8783.1794    19681.684 
  124000    262.53052   -8741.8315    37.562574   -8779.3941   -31893.675 
  124200    360.25357   -8732.5758    51.544678   -8784.1205    5244.1141 
  124400    260.00009   -8743.1899    37.200522   -8780.3905   -23758.376 
  124600    246.49189   -8751.0788    35.267784   -8786.3465    25315.684 
  124800    319.54084   -8733.8877    45.719547   -8779.6072    18963.053 
  125000    293.31715   -8746.4318     41.96749   -8788.3993    6705.7621 
  125200    296.97819   -8740.4024    42.491308   -8782.8937   -32857.664 
  125400    323.27866   -8728.9565     46.25435   -8775.2108   -22079.156 
  125600    314.53092   -8739.8579    45.002732   -8784.8606   -12226.908 
  125800    265.46337   -8750.8334    37.982203   -8788.8156    14483.408 
  126000    292.28859   -8735.9484    41.820325   -8777.7687    26894.647 
  126200    252.52507   -8741.4032    36.131004   -8777.5342   -36529.868 
  126400    308.83305   -8745.3285    44.187488   -8789.5159   -21433.737 
  126600    345.46283   -8735.4098    49.428436   -8784.8382    14484.574 
  126800    327.57631   -8730.4111    46.869252   -8777.2803   -14775.727 
  127000    300.56816   -8741.1925    43.004957   -8784.1974   -20982.659 
  127200      316.085   -8735.4465    45.225089   -8780.6716    332.59105 
  127400    283.85395   -8734.3464    40.613506   -8774.9599    6466.4085 
  127600    304.05689   -8748.1777    43.504119   -8791.6819   -12158.268 
  127800    297.91461   -8742.0597     42.62529    -8784.685    15262.155 
  128000    272.22155   -8727.9233    38.949154   -8766.8724    25674.823 
  128200    300.48522   -8743.7437     42.99309   -8786.7368   -31031.832 
  128400    271.45664   -8740.1819    38.839712   -8779.0216    -5347.999 
  128600    350.36576   -8733.8076    50.129942   -8783.9376    -14534.65 
  128800    294.21398   -8745.9979    42.095807   -8788.0937   -1627.6985 
  129000    301.35119   -8742.1684    43.116992   -8785.2854   -1942.4029 
  129200    307.80638   -8729.7539    44.040593   -8773.7945   -10699.121 
  129400    318.39765   -8745.7213     45.55598   -8791.2773   -5711.7106 
  129600     295.4834   -8741.4334    42.277435   -8783.7108    29576.611 
  129800    340.25525   -8731.3442    48.683342   -8780.0276    30738.348 
  130000    293.65822   -8747.7281     42.01629   -8789.7444   -31162.611 
  130200    332.81436   -8740.1829    47.618707   -8787.8017    42969.083 
  130400    317.77773   -8726.9016    45.467283   -8772.3688    39707.156 
  130600    212.03072    -8744.615    30.337118   -8774.9521   -38893.231 
  130800    286.75473   -8739.0004    41.028546   -8780.0289    6485.6126 
  131000    343.89163   -8730.4046     49.20363   -8779.6082    75.770892 
  131200    285.36074   -8748.2985    40.829095   -8789.1276   -2999.9329 
  131400    335.07964   -8739.0565    47.942821   -8786.9993   -1557.5167 
  131600     222.4463   -8750.8924    31.827368   -8782.7198    2635.8174 
  131800    328.32326    -8736.945    46.976125   -8783.9211   -7233.8478 
  132000    285.93746   -8741.7448    40.911612   -8782.6564    8590.1789 
  132200     345.5121   -8725.7117    49.435485   -8775.1472   -17951.589 
  132400    245.39932   -8744.8359     35.11146   -8779.9474   -29953.755 
  132600    308.20332   -8742.5837    44.097387   -8786.6811    22981.466 
  132800    350.02753   -8724.7467    50.081548   -8774.8283    35583.787 
  133000     346.7335   -8734.3062    49.610242   -8783.9165    21671.352 
  133200    261.73438   -8742.3181    37.448662   -8779.7667   -37132.119 
  133400    344.70456   -8726.3386    49.319944   -8775.6586   -24593.058 
  133600    284.43343    -8735.721    40.696417   -8776.4175   -31763.524 
  133800    329.34852   -8742.6869    47.122819   -8789.8097   -1647.2529 
  134000    255.52915   -8751.9899    36.560825   -8788.5507    4278.5746 
  134200    287.42281   -8741.6386    41.124134   -8782.7628    26816.669 
  134400    335.57329   -8738.9975    48.013451    -8787.011    14796.573 
  134600    221.09857   -8750.9579    31.634536   -8782.5924   -13165.703 
  134800    342.40069   -8734.2238    48.990309   -8783.2141   -10694.941 
  135000    326.05762   -8741.1118     46.65196   -8787.7637   -18865.662 
  135200    246.51669   -8755.1826    35.271333   -8790.4539   -52722.225 
  135400      303.858    -8741.382    43.475662   -8784.8577    7537.5917 
  135600    319.24323   -8738.8049    45.676965   -8784.4818    26169.459 
  135800    285.10523   -8741.3361    40.792537   -8782.1286   -27477.155 
  136000    332.40437   -8731.9229    47.560046   -8779.4829    11363.944 
  136200    258.87876   -8741.3758    37.040084   -8778.4159    36476.425 
  136400     331.7924   -8740.0413    47.472486   -8787.5138    37618.826 
  136600    259.01342   -8749.3294     37.05935   -8786.3888   -55705.397 
  136800    336.09128   -8739.8111    48.087565   -8787.8986   -40688.813 
  137000    247.70295   -8741.3255    35.441061   -8776.7666    16909.083 
  137200    311.11308   -8730.0153    44.513712    -8774.529    20297.988 
  137400    378.99346   -8715.2512     54.22596   -8769.4771    -39064.12 
  137600    286.59159   -8742.5801    41.005204   -8783.5853    3702.1349 
  137800    223.09198   -8745.0487    31.919751   -8776.9685   -9890.5871 
  138000    353.28571   -8734.0644    50.547725   -8784.6121   -14415.408 
  138200    263.32035   -8744.3359    37.675581   -8782.0115    33511.409 
  138400    281.45706   -8739.6495    40.270562   -8779.9201   -8666.5707 
  138600    280.22562    -8741.334    40.094368   -8781.4283   -8436.1754 
  138800    284.21416   -8746.2886    40.665045   -8786.9536     24938.61 
  139000    311.71274   -8733.9454     44.59951   -8778.5449   -578.17278 
  139200    248.57688   -8749.2648    35.566102   -8784.8309   -20260.297 
  139400    282.30841    -8743.179    40.392372   -8783.5714    206.23522 
  139600     281.0279   -8734.0082    40.209157   -8774.2174    35211.586 
  139800    400.55248   -8718.2254    57.310601    -8775.536    8203.7813 
  140000    307.15622   -8737.7953    43.947568   -8781.7429    9482.5863 
  140200    277.18096   -8745.5527    39.658742   -8785.2115    2326.0663 
  140400    339.55327   -8730.4221    48.582903    -8779.005    19238.259 
  140600    321.83489   -8740.2576    46.047776   -8786.3054   -3013.4063 
  140800     297.6864   -8741.2724    42.592637   -8783.8651    33712.642 
  141000    361.67087   -8729.4016    51.747463   -8781.1491   -46223.642 
  141200    269.09715   -8744.0819     38.50212    -8782.584    14340.232 
  141400    311.63708   -8742.8492    44.588686   -8787.4379    25707.327 
  141600    282.44791   -8739.6312    40.412331   -8780.0435    2765.2274 
  141800    307.79056   -8739.7617     44.03833   -8783.8001   -24798.876 
  142000    317.96076   -8731.8138    45.493471   -8777.3073     16706.84 
  142200    289.42039   -8744.1587    41.409946   -8785.5686   -29545.665 
  142400    347.88553   -8739.3351    49.775073   -8789.1102    32192.877 
  142600    360.26333   -8733.6973    51.546075   -8785.2434    44614.507 
  142800    281.67141   -8741.4052     40.30123   -8781.7064    8095.8533 
  143000     339.6337   -8723.5629     48.59441   -8772.1573   -24324.635 
  143200    225.81777   -8744.5485    32.309754   -8776.8583   -2148.2712 
  143400    312.50656   -8733.5094    44.713089   -8778.2224   -714.36141 
  143600    257.63496   -8745.6637    36.862122   -8782.5258   -1943.1245 
  143800    274.11719    -8744.635    39.220382   -8783.8554    19494.751 
  144000    309.23258   -8734.6152    44.244651   -8778.8598    7338.7976 
  144200    272.01838   -8744.7372    38.920086   -8783.6573    -8965.702 
  144400    298.45559   -8739.0256    42.702692   -8781.7283   -4516.3892 
  144600    298.70777    -8733.834    42.738774   -8776.5728   -6960.4292 
  144800    255.15667   -8740.9908    36.507531   -8777.4984   -12993.321 
  145000    279.65188   -8736.7518    40.012278   -8776.7641    43159.192 
  145200    310.52012   -8748.6071    44.428872    -8793.036   -3466.2753 
  145400    313.01563   -8733.5981    44.785927    -8778.384    8004.3687 
  145600    314.43552   -8741.3969    44.989083   -8786.3859   -28802.076 
  145800    316.07302   -8737.5442    45.223375   -8782.7676    22336.155 
  146000    360.07856    -8737.675    51.519638   -8789.1947   -1755.8531 
  146200     313.9656   -8734.2439    44.921848   -8779.1657   -37398.805 
  146400    323.46189   -8742.4424    46.280566    -8788.723    -30830.72 
  146600    281.12615   -8749.6927    40.223215   -8789.9159    20509.167 
  146800    280.41121   -8739.7779    40.120922   -8779.8988   -6863.1403 
  147000    341.02666   -8737.3848    48.793713   -8786.1785   -7556.0068 
  147200    255.96089   -8750.0779    36.622598   -8786.7005    15346.195 
  147400     329.7554   -8731.6139    47.181034   -8778.7949   -21614.164 
  147600    301.88152   -8744.2708     43.19287   -8787.4636   -28165.888 
  147800    297.32831   -8742.9543    42.541402   -8785.4957    11450.657 
  148000    362.47687   -8729.4422    51.862786   -8781.3049    30439.219 
  148200    293.26175   -8742.5529    41.959564   -8784.5124    9802.7668 
  148400    286.21039    -8738.885    40.950662   -8779.8357    17764.972 
  148600    344.47849    -8727.924    49.287598   -8777.2116    -19644.26 
  148800    279.31925   -8744.2957    39.964687   -8784.2604    17188.642 
  149000     292.5848   -8735.8673    41.862706     -8777.73    3489.9102 
  149200     345.4344   -8731.2745    49.424368   -8780.6988    13608.295 
  149400    331.63936   -8744.1156    47.450589   -8791.5662   -13394.254 
  149600    331.07111   -8733.3585    47.369285   -8780.7277   -2147.9945 
  149800    317.05685   -8722.2734     45.36414   -8767.6375    14805.656 
  150000     377.6816   -8734.7391    54.038262   -8788.7774   -18611.188 
  150200    221.13761   -8746.2294    31.640122   -8777.8695    22023.172 
  150400    323.19301     -8730.27    46.242095   -8776.5121    36478.629 
  150600    296.22272   -8741.7864    42.383216   -8784.1696     2244.169 
  150800    254.20857   -8740.1663    36.371878   -8776.5382   -24521.697 
  151000    303.63699   -8731.2862    43.444041   -8774.7303   -1593.2105 
  151200    264.20928   -8749.8795    37.802769   -8787.6823     -25282.5 
  151400     240.1987   -8745.9392    34.367361   -8780.3065   -52117.152 
  151600    339.46553   -8736.4194    48.570349   -8784.9898    1630.6379 
  151800    239.97896   -8750.6008    34.335921   -8784.9367    11924.065 
  152000    334.33017   -8741.9992    47.835587   -8789.8348    30752.684 
  152200    318.76644   -8737.6391    45.608746   -8783.2478   -6690.3118 
  152400    356.59226   -8725.7215    51.020823   -8776.7423    6964.4894 
  152600    308.52863   -8742.2598    44.143931   -8786.4037   -3064.4614 
  152800     278.6218   -8745.6161    39.864896    -8785.481   -23090.548 
  153000    355.08829   -8731.1512    50.805635   -8781.9568    2299.6754 
  153200    258.05195   -8743.1842    36.921785    -8780.106   -32133.128 
  153400    280.92821   -8733.8206    40.194894   -8774.0155    17294.361 
  153600    363.72296   -8723.9804    52.041075   -8776.0215   -6422.9819 
  153800    275.59143   -8742.3187    39.431314     -8781.75    11548.699 
  154000     316.3551    -8735.565    45.263734   -8780.8288    7442.4812 
  154200    309.26963   -8727.6069    44.249953   -8771.8569   -13271.217 
  154400    267.97368   -8745.2295    38.341375   -8783.5708    18367.561 
  154600    339.75569   -8735.5368    48.611864   -8784.1487    742.20661 
  154800    317.45845   -8727.8467      45.4216   -8773.2683    25283.588 
  155000     316.3076   -8738.2772    45.256937   -8783.5342   -33636.448 
  155200    295.64073   -8743.8165    42.299946   -8786.1164    3830.5433 
  155400    279.12139   -8733.7574    39.936376   -8773.6938   -24260.057 
  155600    352.26803   -8731.1511    50.402116   -8781.5532    24558.822 
  155800    299.48873   -8746.6256    42.850513   -8789.4761   -32714.563 
  156000    320.08682   -8732.1144    45.797664   -8777.9121    5494.0747 
  156200    317.59784   -8740.1652    45.441544   -8785.6067    34465.291 
  156400    309.41847    -8743.427    44.271248   -8787.6983    5582.3743 
  156600     301.2661   -8735.7708    43.104816   -8778.8756     19426.46 
  156800    219.21851   -8747.4457    31.365539   -8778.8112    13643.869 
  157000    330.62199    -8736.665    47.305024   -8783.9701   -548.91411 
  157200    304.29803   -8735.0547    43.538622   -8778.5934    -11951.81 
  157400     251.4785   -8749.3953    35.981263   -8785.3766   -17419.842 
  157600      241.018   -8752.0637    34.484587   -8786.5483    7787.9242 
  157800    326.34001     -8741.23    46.692364   -8787.9224    -1977.156 
  158000    311.00669   -8730.3838    44.498489   -8774.8823     24239.99 
  158200    327.72848   -8741.2758    46.891025   -8788.1668    6985.1266 
  158400    300.46498   -8736.0533    42.990194   -8779.0435   -15948.932 
  158600     277.5723    -8737.315    39.714734   -8777.0297   -17220.506 
  158800    301.83395   -8748.0659    43.186064    -8791.252   -16668.783 
  159000    324.80485   -8730.2128    46.472714   -8776.6856   -34541.544 
  159200    329.07781   -8738.8206    47.084085   -8785.9047   -1690.2185 
  159400    270.03464   -8744.2567    38.636255    -8782.893   -37535.719 
  159600    324.91169   -8730.6602    46.488002   -8777.1482    31468.862 
  159800    330.07765   -8738.4056    47.227142   -8785.6328   -20162.387 
  160000    282.04056   -8741.3233    40.354049   -8781.6774   -11413.217 
  160200    389.64641   -8721.4488    55.750173    -8777.199   -17457.099 
  160400     304.5385   -8737.0178    43.573028   -8780.5908   -683.90919 
  160600    316.84455   -8741.3433    45.333764   -8786.6771   -17291.618 
  160800    252.11006    -8753.491    36.071626   -8789.5626   -504.47643 
  161000    280.39386   -8736.0355     40.11844    -8776.154   -12080.037 
  161200     295.1623   -8738.9328    42.231493   -8781.1643    6730.1408 
  161400    274.27103   -8750.2255    39.242392   -8789.4678   -3061.9694 
  161600    308.01206   -8738.7488    44.070022   -8782.8188    -34462.69 
  161800     324.0684   -8739.8029    46.367345   -8786.1702   -6637.6771 
  162000    241.47818   -8746.2697    34.550428   -8780.8201   -13366.442 
  162200    311.74478   -8727.9482    44.604094   -8772.5522   -9071.3753 
  162400    297.93083   -8742.8266     42.62761   -8785.4542    9233.6468 
  162600    321.60833    -8741.508     46.01536   -8787.5234   -4163.0937 
  162800    306.54505   -8742.1554    43.860124   -8786.0156    2083.2179 
  163000     269.7107   -8746.6869    38.589906   -8785.2768   -13844.466 
  163200    326.32832   -8734.0935    46.690692   -8780.7842    -19735.17 
  163400    300.46668   -8741.4876    42.990437   -8784.4781    16240.234 
  163600     285.1495   -8748.6487    40.798871   -8789.4475   -28916.833 
  163800    310.61409   -8728.9434    44.442317   -8773.3857      1016.33 
  164000    284.99466   -8742.3544    40.776718   -8783.1311    26261.802 
  164200    298.71115   -8742.6629    42.739257   -8785.4021    8290.2985 
  164400    285.03434    -8742.459    40.782395   -8783.2414    4803.6881 
  164600    390.56996   -8720.4618    55.882314   -8776.3441   -15060.162 
  164800    328.34805   -8736.5338    46.979672   -8783.5135    14470.722 
  165000     312.4796   -8745.0247    44.709232   -8789.7339     8648.505 
  165200    356.48093   -8728.2683    51.004893   -8779.2732    18391.338 
  165400    293.53404   -8741.9199    41.998522   -8783.9184   -8051.9494 
  165600    288.94139   -8741.1618    41.341412   -8782.5032   -36189.798 
  165800    317.76949   -8734.4154    45.466104   -8779.8815   -37239.184 
  166000    319.73976   -8748.8047    45.748008   -8794.5527    14435.185 
  166200    257.51817   -8736.9154    36.845412   -8773.7608    11846.623 
  166400    344.26978   -8737.9468    49.257735   -8787.2045    15132.248 
  166600    279.64189   -8746.2977    40.010849   -8786.3085   -29019.091 
  166800    247.02587   -8745.8999    35.344185    -8781.244   -3945.8038 
  167000    325.69243   -8732.3996    46.599709   -8778.9993   -11119.765 
  167200    313.14078   -8738.9606    44.803833   -8783.7644    20564.627 
  167400    294.07718   -8749.2515    42.076235   -8791.3277   -856.90331 
  167600    330.57331   -8728.1246     47.29806   -8775.4226    586.27024 
  167800    315.68798   -8734.1171    45.168284   -8779.2854   -17230.156 
  168000    252.39304   -8747.1889    36.112114    -8783.301    6493.1003 
  168200    333.93844   -8734.8266    47.779538   -8782.6061    7910.3734 
  168400     319.6525   -8736.7946    45.735522   -8782.5301   -10294.232 
  168600    236.14817   -8742.7326    33.787816   -8776.5205   -16809.799 
  168800    241.07862   -8753.2348     34.49326    -8787.728     -36638.3 
  169000    266.62625   -8739.5945    38.148586   -8777.7431    20908.915 
  169200    320.01096   -8733.4449     45.78681   -8779.2317     8660.389 
  169400    345.83769   -8741.0048     49.48207   -8790.4869   -1611.6126 
  169600     301.2336   -8746.0341    43.100167   -8789.1342    4197.2426 
  169800    368.05782   -8734.4596    52.661302   -8787.1209   -8740.1754 
  170000    278.98775   -8742.0238    39.917256    -8781.941   -39444.418 
  170200    239.25852   -8752.3621    34.232841   -8786.5949    14081.647 
  170400    296.92053   -8739.4594    42.483058   -8781.9425    50781.921 
  170600    286.40564   -8735.5635    40.978599   -8776.5421   -3569.8949 
  170800    291.20222   -8751.5458    41.664887   -8793.2106    25508.701 
  171000     288.2738   -8737.2449    41.245893   -8778.4908     10003.47 
  171200    281.37411   -8738.5473    40.258693    -8778.806   -5389.2191 
  171400    344.24798   -8736.3379    49.254616   -8785.5926    4257.2403 
  171600    253.65913    -8744.651    36.293265   -8780.9443    19166.774 
  171800    329.88856   -8737.0886    47.200087   -8784.2887   -308.27656 
  172000    299.65447   -8737.8188    42.874227    -8780.693    2392.5088 
  172200    238.24958   -8758.4129    34.088483   -8792.5014    5924.7666 
  172400    283.59527   -8743.9206    40.576494   -8784.4971    19460.181 
  172600    356.54454   -8731.7729    51.013994   -8782.7869   -3889.0156 
  172800     274.9435   -8745.6215    39.338609   -8784.9601   -19365.333 
  173000    425.37222   -8725.0788    60.861782   -8785.9405    11491.357 
  173200    339.43315   -8732.8509    48.565716   -8781.4166   -16053.451 
  173400    299.04249   -8743.0211    42.786665   -8785.8078    3201.0556 
  173600    276.81268   -8743.7601    39.606049   -8783.3662    5342.0634 
  173800    317.60455   -8730.4064    45.442504   -8775.8489   -113.64033 
  174000    282.44353   -8744.2107    40.411705   -8784.6225   -19439.839 
  174200     268.5637   -8746.7612    38.425795    -8785.187   -21484.911 
  174400    330.25407   -8733.7039    47.252383   -8780.9563   -42297.206 
  174600    284.87902   -8749.5836    40.760172   -8790.3438   -18351.956 
  174800    253.36882   -8745.7174    36.251727   -8781.9691   -2601.6886 
  175000    315.48629   -8736.1988    45.139426   -8781.3382    42646.362 
  175200    313.44503   -8742.3361    44.847365   -8787.1835    14540.745 
  175400    296.73286   -8748.3442    42.456206   -8790.8004   -1182.5487 
  175600    337.85154   -8736.5664     48.33942   -8784.9058    1808.1001 
  175800    341.82425   -8736.8031    48.907832    -8785.711    39611.512 
  176000    294.61654   -8743.1028    42.153406   -8785.2562    17310.523 
  176200    255.95383   -8749.3121    36.621587   -8785.9336   -9272.6955 
  176400    301.99788   -8732.8023     43.20952   -8776.0118   -43470.635 
  176600    291.97504   -8740.4983    41.775463   -8782.2738    3949.4265 
  176800    258.88647   -8749.8917    37.041187   -8786.9329    10501.687 
  177000    258.82384   -8740.0233    37.032226   -8777.0555    10126.508 
  177200    268.36799   -8738.3936    38.397793   -8776.7914    7596.1016 
  177400    210.68462    -8752.937     30.14452   -8783.0815     6975.743 
  177600    278.87626   -8744.6386    39.901303   -8784.5399    6817.8469 
  177800    276.58456   -8731.0382    39.573409   -8770.6116    5155.7415 
  178000    276.45132   -8745.4601    39.554346   -8785.0144   -10135.425 
[...]
  950000    316.13588   -8765.9931    45.232368   -8811.2255    19383.862 
  950200    275.69896   -8767.6392      39.4467   -8807.0859    26677.051 
  950400    399.26991   -8750.4588    57.127092   -8807.5859   -678.13285 
  950600    300.52739   -8765.1517    42.999123   -8808.1508    21467.274 
  950800    324.35419    -8767.191    46.408234   -8813.5993    39272.638 
  951000    225.94777   -8776.5509    32.328355   -8808.8793   -7515.2064 
  951200    337.34225   -8759.7673    48.266553   -8808.0338    35142.149 
  951400    301.57171   -8767.0203    43.148543   -8810.1689     1671.586 
  951600    266.02334   -8781.4099    38.062323   -8819.4722   -6521.1207 
  951800    317.13327   -8768.9719    45.375074    -8814.347   -12932.478 
  952000    335.19341   -8759.4559    47.959098    -8807.415    2644.7314 
  952200    269.60737   -8771.3093    38.575121   -8809.8844    9017.0146 
  952400    317.47304   -8765.6609    45.423688   -8811.0846     8525.143 
  952600    227.00994   -8774.8452    32.480328   -8807.3256   -20725.008 
  952800    350.36136   -8770.0808    50.129312   -8820.2101    7901.2669 
  953000    269.15426   -8760.5692     38.51029   -8799.0795    944.62825 
  953200    314.34568   -8758.7857    44.976228   -8803.7619   -41163.825 
  953400    288.65156   -8771.2942    41.299943   -8812.5942   -17273.484 
  953600    316.33406   -8762.0104    45.260724   -8807.2711    13851.602 
  953800    363.37832   -8752.4137    51.991764   -8804.4055    15546.611 
  954000    297.33765   -8768.9538    42.542738   -8811.4966    19453.571 
  954200    324.78037   -8762.4487    46.469212   -8808.9179    15519.583 
  954400    249.54097   -8771.8333    35.704044   -8807.5374    12090.413 
  954600    334.21212   -8766.2848    47.818697   -8814.1035   -27279.048 
  954800    296.98316   -8756.8806    42.492018   -8799.3726   -10367.106 
  955000    328.70876   -8764.2912    47.031283   -8811.3225    361.78727 
  955200    305.84825   -8769.5229    43.760426   -8813.2833    -5496.236 
  955400    316.59728   -8765.1913    45.298385   -8810.4897   -15748.874 
  955600    300.91967   -8759.4795     43.05525   -8802.5347    -24438.71 
  955800    272.29906   -8776.3077    38.960246    -8815.268    12320.602 
  956000    236.93337   -8788.6623    33.900161   -8822.5625   -3176.3138 
  956200    276.13802    -8771.159    39.509519   -8810.6685   -14204.542 
  956400    281.08689   -8759.9397    40.217598   -8800.1573   -36920.866 
  956600    299.49252   -8768.8868    42.851055   -8811.7379     -27289.9 
  956800     310.8166   -8774.8416    44.471291   -8819.3129   -12045.291 
  957000     290.6752   -8757.3884    41.589483   -8798.9779    26738.596 
  957200    289.95499   -8764.8006    41.486436   -8806.2871   -20048.861 
  957400    265.79284   -8779.8371    38.029343   -8817.8664   -17885.518 
  957600    247.37607   -8770.7895    35.394291   -8806.1838    10662.046 
  957800    346.99302   -8763.9335    49.647374   -8813.5809   -11802.031 
  958000    276.74045   -8774.7675    39.595715   -8814.3633    2445.0259 
  958200    255.39326   -8777.0383    36.541382   -8813.5797   -11271.325 
  958400    329.98326   -8758.8483    47.213636   -8806.0619    2406.4691 
  958600    259.33203   -8767.2217    37.104937   -8804.3266    1600.0589 
  958800    238.29978   -8778.0686    34.095666   -8812.1643    932.41198 
  959000    330.16164   -8764.1013    47.239159   -8811.3405     21748.23 
  959200    319.02487   -8760.0652    45.645723   -8805.7109   -18025.472 
  959400    253.26652   -8776.5569    36.237091    -8812.794   -13043.274 
  959600    304.43315    -8770.775    43.557955   -8814.3329   -9077.4352 
  959800    307.78078   -8753.4522     44.03693   -8797.4891   -17817.997 
  960000    294.03204   -8771.2149    42.069775   -8813.2846    26028.243 
  960200    239.59994    -8767.551    34.281691   -8801.8327    23505.492 
  960400    364.64067   -8753.8024    52.172379   -8805.9748   -12589.644 
  960600    292.80733   -8766.7644    41.894546    -8808.659    -36333.87 
  960800    243.52249   -8773.0508    34.842926   -8807.8937   -12441.924 
  961000    308.71104   -8756.4089    44.170031    -8800.579    27170.314 
  961200    343.49465   -8761.8569     49.14683   -8811.0037   -10185.201 
  961400    271.34794   -8772.3203    38.824159   -8811.1444    34521.205 
  961600    339.80994   -8761.0836    48.619627   -8809.7032   -23885.597 
  961800    271.42751   -8777.3723    38.835544   -8816.2079    25493.631 
  962000    304.50938   -8765.9629    43.568862   -8809.5318    18546.211 
  962200    344.68685   -8749.0038     49.31741   -8798.3212    18001.159 
  962400    287.23601   -8768.8525    41.097408   -8809.9499       8431.9 
  962600    322.69245   -8765.9658    46.170475   -8812.1363   -3004.2321 
  962800    302.10825   -8761.4598     43.22531   -8804.6851    116.18785 
  963000    294.07276   -8760.4924    42.075603    -8802.568    16917.392 
  963200    310.46073    -8770.448    44.420374   -8814.8684     28053.62 
  963400    322.35461   -8756.1105    46.122137   -8802.2326   -14434.067 
  963600    281.91264   -8759.7638    40.335746   -8800.0996    1238.0255 
  963800     251.2826   -8770.2533    35.953234   -8806.2065    -25330.39 
  964000    282.76033   -8759.0064    40.457031   -8799.4635    17052.539 
  964200    344.13737   -8751.2768     49.23879   -8800.5156    -33370.09 
  964400    251.35289   -8769.5662     35.96329   -8805.5294    730.32685 
  964600    293.24361   -8771.3676    41.956968   -8813.3246   -12255.873 
  964800    271.76105   -8777.7705    38.883267   -8816.6538    -14107.41 
  965000    348.05834   -8761.4884    49.799799   -8811.2882   -12278.676 
  965200    248.37434   -8766.9306    35.537122   -8802.4677   -1677.2619 
  965400    248.47905   -8778.6439    35.552105    -8814.196   -7292.5163 
  965600    293.01292   -8762.2455    41.923961   -8804.1695   -11862.853 
  965800    340.81313   -8760.7519    48.763162   -8809.5151    3059.1177 
  966000    292.74001    -8771.518    41.884913   -8813.4029   -248.61085 
  966200    303.54559   -8770.8299    43.430964   -8814.2608    35783.437 
  966400    382.71636   -8751.7166    54.758629   -8806.4752   -36615.592 
  966600    329.89998   -8764.6908    47.201721   -8811.8925   -1700.5682 
  966800    267.71305   -8775.0652    38.304083   -8813.3693    3477.6192 
  967000    302.18187    -8761.517    43.235844   -8804.7528   -5310.7926 
  967200    329.16675   -8764.0421     47.09681   -8811.1389    15028.971 
  967400     288.6053    -8768.345    41.293324   -8809.6383   -18568.836 
  967600    303.48105   -8760.0156    43.421729   -8803.4373   -24951.167 
  967800    244.84057   -8776.6661    35.031515   -8811.6977   -7441.3066 
  968000    289.39837   -8765.9971    41.406795   -8807.4039   -5357.7986 
  968200    284.44852   -8767.5836    40.698576   -8808.2821    2690.7018 
  968400    317.33696   -8766.7445    45.404218   -8812.1487   -27381.778 
  968600    336.00706   -8759.2911    48.075514   -8807.3666   -876.51507 
  968800    280.42581   -8768.5498    40.123012   -8808.6728   -7109.0004 
  969000     331.9469   -8767.7844    47.494592    -8815.279   -24364.759 
  969200    270.92034   -8765.4104    38.762979   -8804.1733   -16565.963 
  969400    345.71255   -8764.4341    49.464165   -8813.8983    13048.071 
  969600    338.68189   -8765.1402    48.458226   -8813.5984   -14541.703 
  969800    264.47235    -8770.744    37.840409   -8808.5845    15022.922 
  970000    330.69623   -8761.7965    47.315647   -8809.1121     -24565.9 
  970200    289.28029   -8762.2729      41.3899   -8803.6628     17147.21 
  970400    271.21767   -8768.7884    38.805521   -8807.5939     1188.433 
  970600    394.65045   -8749.0953    56.466145   -8805.5614    17696.329 
  970800    265.99696   -8764.7545    38.058547   -8802.8131   -15354.056 
  971000    327.58155   -8768.3383    46.870002   -8815.2083   -9718.1989 
  971200    313.29834   -8774.5631    44.826376   -8819.3895   -1383.4991 
  971400    332.91504   -8758.9597    47.633112   -8806.5928    32210.586 
  971600    314.04468   -8767.8911    44.933162   -8812.8243    8430.8773 
  971800    244.74854   -8777.8791    35.018347   -8812.8975    15794.235 
  972000    294.48301   -8764.5176      42.1343   -8806.6519    7397.2982 
  972200    294.94267   -8761.4508    42.200068   -8803.6509   -25854.947 
  972400    292.62918    -8766.135    41.869056   -8808.0041   -21577.853 
  972600    370.08056   -8767.8386    52.950713   -8820.7894   -7245.8568 
  972800    256.55263    -8776.491    36.707263   -8813.1983   -10946.117 
  973000    320.08743   -8759.3007    45.797752   -8805.0984    29339.939 
  973200    289.67367   -8771.0269    41.446184   -8812.4731   -6866.2606 
  973400    246.50737   -8782.6841    35.269999   -8817.9541     10986.48 
  973600     288.6417    -8766.866    41.298532   -8808.1645   -10572.774 
  973800     284.5611     -8764.55    40.714684   -8805.2647   -22585.404 
  974000    225.24498   -8768.3132    32.227801    -8800.541    26350.484 
  974200    250.86288   -8773.9535    35.893181   -8809.8467    2467.2691 
  974400    282.29782     -8756.49    40.390856   -8796.8808   -42387.188 
  974600      300.598   -8759.3008    43.009226     -8802.31   -28538.764 
  974800    273.29337   -8770.0532    39.102511   -8809.1557   -33256.493 
  975000    309.63374   -8765.6242     44.30205   -8809.9262   -8072.1808 
  975200     270.7687   -8768.2887    38.741283     -8807.03   -10635.883 
  975400    337.63679   -8760.8356    48.308694   -8809.1443    22646.026 
  975600    305.79514   -8774.3625    43.752827   -8818.1154   -18862.182 
  975800    252.42133   -8772.9141    36.116162   -8809.0302    9247.8057 
  976000    307.77169   -8760.7248    44.035629   -8804.7604   -37027.768 
  976200    311.32915   -8771.8467    44.544627   -8816.3913    1534.9858 
  976400    288.60013   -8779.6868    41.292584   -8820.9794    -6951.998 
  976600    302.86778   -8762.0656    43.333984   -8805.3995    53092.492 
  976800    356.59076   -8757.8307    51.020607   -8808.8513    37449.392 
  977000    298.95687   -8767.5158    42.774414   -8810.2902    6455.9269 
  977200    226.65293   -8775.8942    32.429247   -8808.3234   -36974.949 
  977400    356.32967   -8756.7988    50.983251    -8807.782   -14649.236 
  977600    331.68542   -8767.2081     47.45718   -8814.6652    17055.029 
  977800    254.93959   -8776.2353    36.476471   -8812.7118    -13013.67 
  978000    306.34162   -8766.7014    43.831016   -8810.5324   -11247.442 
  978200    289.03261   -8756.8242    41.354463   -8798.1787    1610.7073 
  978400    266.67113    -8773.455    38.155007     -8811.61   -22494.118 
  978600    326.66189   -8764.6398    46.738418   -8811.3782    7725.4137 
  978800    362.52057   -8749.7568    51.869037   -8801.6258    3738.0832 
  979000    305.87913   -8756.7002    43.764844    -8800.465   -21678.346 
  979200    251.83291   -8771.6158    36.031971   -8807.6477    10531.747 
  979400    382.04957   -8759.2788    54.663225    -8813.942    2819.9119 
  979600    275.86287   -8776.2256    39.470151   -8815.6958    21005.823 
  979800    282.85811   -8771.9266    40.471022   -8812.3976    6203.5413 
  980000    291.89806   -8765.0149    41.764448   -8806.7793   -16115.656 
  980200    319.15324   -8762.7766    45.664089   -8808.4407   -30656.798 
  980400    248.66487   -8764.3914    35.578692   -8799.9701   -3846.1925 
  980600    304.19877   -8775.1029     43.52442   -8818.6273    -29245.85 
  980800    284.55001   -8757.6362    40.713097   -8798.3493     15016.96 
  981000       273.09   -8769.3131    39.073412   -8808.3865   -1046.6434 
  981200    301.43377   -8767.2323    43.128807   -8810.3611   -36989.741 
  981400    347.08331    -8753.068    49.660292   -8802.7283    6431.1598 
  981600    296.05863   -8769.2222    42.359738   -8811.5819   -13275.667 
  981800    261.07555   -8767.6568    37.354398   -8805.0112    25738.972 
  982000     274.1144   -8761.9504    39.219982   -8801.1703   -27796.711 
  982200    346.06295   -8764.0239    49.514301   -8813.5382   -11321.687 
  982400     237.1159   -8773.2778    33.926277   -8807.2041    10858.726 
  982600    352.33396   -8755.5186     50.41155   -8805.9302   -10570.088 
  982800    306.66904   -8763.8886    43.877863   -8807.7664   -7401.1457 
  983000    278.67151   -8770.3473    39.872009   -8810.2193    30963.027 
  983200    257.21179   -8767.5658    36.801575   -8804.3674    13262.408 
  983400    248.51292   -8767.2944    35.556951   -8802.8513    20750.072 
  983600    270.73935   -8778.4186    38.737084   -8817.1557    4109.0783 
  983800     279.4034   -8760.2102    39.976726   -8800.1869    4265.5414 
  984000    253.47765   -8763.7192    36.267299   -8799.9865   -25324.511 
  984200      324.365   -8768.0783    46.409782   -8814.4881   -11612.698 
  984400    262.39443   -8766.2624    37.543102   -8803.8055   -21565.733 
  984600    339.82522   -8758.4012    48.621813    -8807.023    42290.192 
  984800    287.81365    -8769.535    41.180056   -8810.7151    2198.0083 
  985000    279.96474   -8770.8385    40.057042   -8810.8956   -39087.434 
  985200    306.16285   -8754.8191    43.805438   -8798.6246   -24910.867 
  985400    345.88457   -8769.2582    49.488778   -8818.7469    22375.969 
  985600    268.20637    -8772.314    38.374668   -8810.6886    1872.4655 
  985800    328.70005   -8762.9613    47.030036   -8809.9913   -7218.1887 
  986000    386.10803   -8745.4878    55.243905   -8800.7317    26424.077 
  986200    292.38966   -8768.5229    41.834786   -8810.3577    2664.1228 
  986400    348.22887   -8765.6162    49.824197   -8815.4404   -3239.0413 
  986600    311.37973   -8764.4477    44.551864   -8808.9995   -234.07541 
  986800    306.09637   -8765.8922    43.795926   -8809.6881     377.9043 
  987000    309.08556   -8771.3589    44.223616   -8815.5825    15304.459 
  987200    311.08691   -8766.0608    44.509968   -8810.5708      361.859 
  987400    325.62973   -8756.8285    46.590737   -8803.4193    30295.882 
  987600    286.19978   -8771.7911    40.949144   -8812.7403   -14876.732 
  987800    304.84012   -8771.7052    43.616183   -8815.3214    20506.921 
  988000     335.4393   -8754.4386     47.99428   -8802.4329    7064.6846 
  988200    268.24184   -8768.0721    38.379743   -8806.4519    15249.147 
  988400    285.98249   -8772.1145    40.918055   -8813.0326   -344.54981 
  988600     253.3506   -8769.3146     36.24912   -8805.5637   -8411.0572 
  988800    319.20198   -8763.3136    45.671063   -8808.9847    3263.2275 
  989000    225.60781    -8773.628    32.279713   -8805.9077    9927.8584 
  989200    286.82487   -8764.1878    41.038583   -8805.2263   -1768.5327 
  989400    338.25353   -8762.7827    48.396937   -8811.1797   -9574.5006 
  989600    262.94085   -8768.4318    37.621283   -8806.0531    24702.798 
  989800    337.01933   -8759.5322    48.220348   -8807.7525    -49683.58 
  990000    271.91407   -8770.4143    38.905161   -8809.3194   -34500.346 
  990200    307.50801   -8771.7359    43.997902   -8815.7338    -24401.31 
  990400    324.89012   -8756.8972    46.484915   -8803.3821    23823.739 
  990600    308.22374   -8771.2311    44.100308   -8815.3314   -15016.436 
  990800    308.68059   -8770.1369    44.165674   -8814.3026   -9086.8873 
  991000    257.72396   -8770.0205    36.874856   -8806.8954    26150.141 
  991200    351.32267   -8756.8178    50.266855   -8807.0847   -16699.951 
  991400    227.91469   -8772.6437    32.609779   -8805.2535    -20327.59 
  991600     303.5055   -8770.8537    43.425228   -8814.2789   -3253.2347 
  991800    356.31273   -8753.7117    50.980828   -8804.6925   -322.48457 
  992000    313.04193   -8764.7311     44.78969   -8809.5208    -9783.923 
  992200    317.05099   -8766.2901    45.363301   -8811.6534    7768.0692 
  992400    358.91397   -8750.2647     51.35301   -8801.6177   -5261.2748 
  992600    274.98274   -8770.0031    39.344223   -8809.3474   -18497.862 
  992800    312.77242   -8769.9662    44.751128   -8814.7174   -20931.233 
  993000    331.04006   -8755.5995    47.364842   -8802.9643    25285.133 
  993200    253.06132   -8771.5787     36.20773   -8807.7864   -27232.132 
  993400     290.3662    -8774.475    41.545271   -8816.0202   -1765.5971 
  993600     313.4392   -8757.9386    44.846531   -8802.7851    8875.8296 
  993800    304.94106    -8766.928    43.630627   -8810.5587   -3690.0583 
  994000    248.94116   -8784.6699    35.618223   -8820.2881     6517.226 
  994200    323.47424   -8766.2246    46.282333   -8812.5069    -20639.28 
  994400    368.77433   -8756.8069    52.763818   -8809.5707    2418.8056 
  994600    305.32261   -8770.3147    43.685218   -8813.9999    9063.9238 
  994800    361.63066   -8762.0656     51.74171   -8813.8073    32531.829 
  995000    293.74788    -8775.469    42.029119   -8817.4981    13090.398 
  995200    325.97657   -8765.1648    46.640363   -8811.8052    -9712.386 
  995400    355.67939   -8762.3935    50.890209   -8813.2837    6530.3368 
  995600    322.82668   -8767.3954    46.189681    -8813.585   -19430.264 
  995800    276.61137   -8766.1188    39.577245    -8805.696    5517.5658 
  996000    275.29769   -8768.9929    39.389285   -8808.3822   -1120.4434 
  996200    296.65869   -8756.1086    42.445594   -8798.5542    17067.504 
  996400    333.39721    -8768.058      47.7021   -8815.7601    11916.689 
  996600    303.34657   -8769.8315    43.402489    -8813.234   -5714.7533 
  996800    353.27629   -8754.7689    50.546377   -8805.3152   -29688.682 
  997000    284.53611   -8756.1316    40.711108   -8796.8427    40796.675 
  997200    252.51603   -8768.3913    36.129711    -8804.521   -18919.753 
  997400    326.58179   -8769.8143    46.726957   -8816.5413   -4629.4123 
  997600    322.80176   -8763.1358    46.186115   -8809.3219   -18291.691 
  997800    310.76225   -8757.0477    44.463516   -8801.5112   -8260.2595 
  998000     304.1221   -8768.6796     43.51345    -8812.193    23874.063 
  998200    341.08653    -8762.102     48.80228   -8810.9043    29033.171 
  998400    311.95215   -8763.1201    44.633765   -8807.7539   -5705.8787 
  998600    271.69643    -8773.231    38.874022    -8812.105   -7090.5073 
  998800    335.86806   -8755.0661    48.055626   -8803.1218    21974.968 
  999000    295.59146   -8763.2076    42.292896   -8805.5005    31551.369 
  999200    304.18355   -8768.3744    43.522242   -8811.8967    32039.188 
  999400    247.70342   -8783.0587    35.441128   -8818.4998    16012.515 
  999600    339.53094   -8766.9795    48.579708   -8815.5592   -3057.4189 
  999800    339.61963   -8760.7582    48.592397   -8809.3506   -13643.395 
 1000000     288.1626   -8771.9814    41.229983   -8813.2114    11765.638 
Loop time of 2222.99 on 8 procs for 1000000 steps with 49 atoms

Performance: 9.717 ns/day, 2.470 hours/ns, 449.844 timesteps/s
99.4% CPU use with 8 MPI tasks x no OpenMP threads

MPI task timing breakdown:
Section |  min time  |  avg time  |  max time  |%varavg| %total
---------------------------------------------------------------
Pair    | 1899.9     | 1913.2     | 1928.9     |  22.1 | 86.07
Neigh   | 0.0031558  | 0.0032203  | 0.0032655  |   0.1 |  0.00
Comm    | 22.749     | 38.648     | 52.155     | 156.3 |  1.74
Output  | 0.07162    | 0.079323   | 0.12476    |   6.1 |  0.00
Modify  | 269.14     | 269.4      | 269.64     |   1.1 | 12.12
Other   |            | 1.629      |            |       |  0.07

Nlocal:    6.125 ave 7 max 6 min
Histogram: 7 0 0 0 0 0 0 0 0 1
Nghost:    567 ave 577 max 558 min
Histogram: 1 1 2 0 0 0 1 1 1 1
Neighs:    771.25 ave 861 max 752 min
Histogram: 6 0 1 0 0 0 0 0 0 1

Total # of neighbors = 6170
Ave neighs/atom = 125.918
Neighbor list builds = 5
Dangerous builds = 0

unfix 1
unfix output
undump 1

Please see the log.cite file for references relevant to this simulation

Total wall time: 0:37:18
