ITEM: TIMESTEP
0
ITEM: NUMBER OF ATOMS
129
ITEM: BOX BOUNDS xy xz yz pp pp pp
0.0000000000000000e+00 2.3654499999999999e+01 7.8845000000000001e+00
0.0000000000000000e+00 1.3658086643083999e+01 0.0000000000000000e+00
0.0000000000000000e+00 2.5747000000000000e+01 0.0000000000000000e+00
ITEM: ATOMS id type x y z 
18 1 10.522 6.683 2.644 
28 1 5.247 4.273 12.803 
31 1 9.65 6.514 0.446 
62 1 9.171 5.15 12.405 
91 1 9.65 6.514 11.889 
92 1 10.81 6.18 11.007 
106 1 10.522 6.683 9.691 
127 1 10.81 6.18 1.328 
4 1 4.402 5.735 13.319 
5 1 3.307 5.568 14.201 
43 1 4.549 6.796 15.517 
52 1 9.172 5.15 25.677 
66 1 4.402 5.735 24.762 
67 1 5.003 6.76 23.881 
88 1 5.247 4.273 25.278 
107 1 3.307 5.568 23.881 
116 1 4.549 6.796 22.565 
117 1 5.003 6.76 14.201 
11 1 11.272 7.494 3.321 
12 1 10.477 8.871 4.018 
14 1 9.018 11.397 0.446 
15 1 10.114 11.565 1.328 
16 1 8.412 9.024 0.654 
19 1 10.477 8.871 5.569 
29 1 10.927 10.156 3.321 
32 1 8.77 7.648 1.328 
35 1 12.036 9.594 2.644 
45 1 9.231 8.963 3.321 
47 1 12.762 8.702 0.446 
49 1 11.224 11 0.654 
51 1 8.872 10.337 2.644 
53 1 11.272 7.494 9.014 
54 1 10.477 8.871 8.317 
56 1 9.018 11.397 11.889 
57 1 8.418 10.372 11.007 
58 1 11.224 11 11.681 
60 1 12.255 7.901 9.691 
61 1 10.477 8.871 6.766 
73 1 9.231 8.963 9.014 
75 1 12.762 8.702 11.889 
76 1 12.202 10.061 11.007 
79 1 9.224 7.617 9.691 
80 1 8.174 12.859 12.405 
89 1 10.927 10.156 9.014 
93 1 8.412 9.024 11.681 
95 1 9.951 11.095 9.691 
105 1 10.114 11.565 11.007 
109 1 8.77 7.648 11.007 
110 1 12.036 9.594 9.691 
114 1 8.872 10.337 9.691 
119 1 8.418 10.372 1.328 
120 1 12.255 7.901 2.644 
123 1 12.202 10.061 1.328 
124 1 9.224 7.617 2.644 
128 1 9.951 11.095 2.644 
6 1 5.009 8.108 13.527 
13 1 9.663 10.28 25.128 
17 1 9.204 8.965 25.162 
30 1 10.016 7.556 25.128 
34 1 11.289 7.464 25.162 
36 1 8.174 12.859 25.677 
46 1 11.752 8.777 25.128 
50 1 10.937 10.184 25.162 
55 1 9.663 10.28 12.954 
59 1 10.937 10.184 12.919 
74 1 11.752 8.777 12.954 
78 1 11.289 7.464 12.919 
90 1 10.016 7.556 12.954 
94 1 9.204 8.965 12.919 
101 1 5.009 8.108 24.555 
33 1 11.795 6.589 0.654 
77 1 11.795 6.589 11.681 
41 1 17.967 6.132 13.527 
68 1 17.967 6.132 24.554 
103 1 19.24 6.037 22.565 
126 1 19.24 6.037 15.517 
3 1 19.528 6.852 12.254 
7 1 19.987 8.167 12.289 
10 1 15.106 8.528 12.804 
22 1 19.175 9.576 12.254 
26 1 17.902 9.668 12.289 
38 1 17.439 8.356 12.254 
42 1 18.254 6.949 12.289 
44 1 20.019 11.982 12.804 
48 1 12.546 7.4 1.328 
65 1 19.528 6.852 0.081 
69 1 18.254 6.949 0.046 
82 1 17.439 8.356 0.081 
86 1 17.902 9.668 0.046 
96 1 14.084 8.604 12.405 
98 1 19.175 9.576 0.081 
102 1 19.987 8.167 0.046 
113 1 12.546 7.4 11.007 
129 2 17.439 8.356 11.154 
1 1 17.919 9.638 16.194 
2 1 18.714 8.261 16.892 
8 1 18.669 10.449 15.517 
9 1 18.714 8.261 18.442 
20 1 14.084 8.604 25.677 
21 1 18.264 6.977 16.194 
23 1 19.541 10.618 13.32 
24 1 20.421 9.484 14.201 
25 1 17.396 10.544 13.527 
27 1 17.155 7.538 15.517 
37 1 19.96 8.169 16.194 
39 1 16.429 8.43 13.319 
40 1 16.644 9.732 14.201 
63 1 17.919 9.638 21.888 
64 1 18.714 8.261 21.19 
70 1 16.936 9.231 22.565 
71 1 18.714 8.261 19.64 
72 1 20.019 11.982 25.278 
81 1 19.96 8.169 21.888 
83 1 16.429 8.43 24.762 
84 1 16.989 7.071 23.881 
85 1 17.396 10.544 24.555 
87 1 19.967 9.515 22.565 
97 1 18.263 6.977 21.888 
99 1 19.541 10.618 24.762 
100 1 18.38 10.953 23.881 
104 1 15.106 8.528 25.278 
108 1 18.669 10.449 22.565 
111 1 20.421 9.484 23.881 
112 1 17.155 7.538 22.565 
115 1 16.644 9.732 23.881 
118 1 16.936 9.231 15.517 
121 1 16.989 7.071 14.201 
122 1 19.967 9.515 15.517 
125 1 18.38 10.953 14.201 
ITEM: TIMESTEP
10
ITEM: NUMBER OF ATOMS
129
ITEM: BOX BOUNDS xy xz yz pp pp pp
0.0000000000000000e+00 2.3654499999999999e+01 7.8845000000000001e+00
0.0000000000000000e+00 1.3658086643083999e+01 0.0000000000000000e+00
0.0000000000000000e+00 2.5747000000000000e+01 0.0000000000000000e+00
ITEM: ATOMS id type x y z 
18 1 10.4055 6.73465 2.63901 
28 1 5.10279 4.56993 12.8893 
31 1 9.46527 6.49161 0.445851 
62 1 9.13285 5.2541 12.3862 
91 1 9.46076 6.47236 11.8787 
92 1 10.6948 6.22141 10.949 
106 1 10.4117 6.73107 9.69392 
127 1 10.6816 6.21858 1.39275 
4 1 4.44207 5.78186 13.2874 
5 1 3.19793 5.62199 14.197 
43 1 4.57395 6.94869 15.4705 
52 1 9.13468 5.25736 25.6966 
66 1 4.4385 5.76483 24.8132 
67 1 5.08436 6.92228 23.9093 
88 1 5.10247 4.56869 25.1909 
107 1 3.18912 5.62648 23.8693 
116 1 4.56958 6.94276 22.5937 
117 1 5.07054 6.92915 14.1587 
11 1 11.2363 7.56607 3.4022 
12 1 10.5193 8.78436 4.07969 
14 1 8.98781 11.3489 0.413848 
15 1 10.2085 11.5119 1.32809 
16 1 8.39141 8.9479 0.68476 
19 1 10.4728 8.86738 5.56191 
29 1 10.9444 10.1408 3.32352 
32 1 8.72072 7.66509 1.28552 
35 1 12.0521 9.58477 2.59853 
45 1 9.22586 8.94691 3.2609 
47 1 12.7303 8.82303 0.53834 
49 1 11.3612 10.9404 0.664312 
51 1 8.84587 10.1942 2.59146 
53 1 11.2211 7.5687 8.93108 
54 1 10.5222 8.78917 8.26593 
56 1 8.95722 11.3615 11.9482 
57 1 8.3451 10.2078 11.0315 
58 1 11.3373 10.9223 11.6588 
60 1 12.3046 8.06409 9.6658 
61 1 10.4742 8.86792 6.7706 
73 1 9.22109 8.95032 9.08013 
75 1 12.7158 8.82995 11.7945 
76 1 12.25 10.0669 11.0129 
79 1 9.20842 7.69486 9.7484 
80 1 8.31722 12.5539 12.3181 
89 1 10.9371 10.1399 9.01643 
93 1 8.3827 8.95144 11.6448 
95 1 10.0426 11.0403 9.72448 
105 1 10.281 11.4909 10.9688 
109 1 8.70886 7.66473 11.04 
110 1 12.0455 9.5964 9.74453 
114 1 8.85882 10.1882 9.73208 
119 1 8.34979 10.2095 1.29971 
120 1 12.2963 8.06826 2.6607 
123 1 12.2714 10.0417 1.31177 
124 1 9.20621 7.69007 2.57491 
128 1 10.0423 11.0428 2.64222 
6 1 5.01495 8.20075 13.5625 
13 1 9.59286 10.2769 25.0793 
17 1 9.16482 8.91295 25.169 
30 1 9.91755 7.70807 25.1026 
34 1 11.2772 7.50562 25.1862 
36 1 8.3189 12.5653 25.7621 
46 1 11.6852 8.8361 25.0799 
50 1 10.9983 10.1191 25.1886 
55 1 9.63524 10.2566 12.9968 
59 1 10.9791 10.1239 12.9008 
74 1 11.6736 8.86102 13.0028 
78 1 11.3009 7.50006 12.8854 
90 1 9.92393 7.69579 13.0102 
94 1 9.14541 8.95367 12.914 
101 1 5.04049 8.18671 24.5322 
33 1 11.7878 6.67344 0.619214 
77 1 11.7868 6.68605 11.7033 
41 1 17.8467 6.1833 13.5505 
68 1 17.8544 6.19427 24.544 
103 1 19.1386 6.07997 22.5823 
126 1 19.1551 6.06911 15.514 
3 1 19.5809 6.88628 12.2189 
7 1 20.0318 8.23523 12.2981 
10 1 15.1308 8.4454 12.8538 
22 1 19.3139 9.47472 12.2198 
26 1 18.0042 9.66107 12.3475 
38 1 17.4398 8.24391 12.0896 
42 1 18.2102 6.91981 12.3509 
44 1 20.0668 11.8942 12.8278 
48 1 12.6084 7.54789 1.37925 
65 1 19.5815 6.88546 0.131098 
69 1 18.2102 7.00065 0.0227453 
82 1 17.5158 8.30274 0.131144 
86 1 17.9328 9.63691 0.0303693 
96 1 14.0343 8.68263 12.3538 
98 1 19.2676 9.40508 0.104211 
102 1 20.0116 8.19162 0.0326308 
113 1 12.5981 7.52269 10.964 
129 2 17.3416 8.28673 11.0087 
1 1 17.8553 9.58631 16.2527 
2 1 18.7256 8.24604 16.9794 
8 1 18.7795 10.3771 15.501 
9 1 18.7189 8.25707 18.4452 
20 1 14.0536 8.67175 25.7221 
21 1 18.248 6.98155 16.2227 
23 1 19.8444 10.6368 13.2714 
24 1 20.5221 9.44438 14.1851 
25 1 17.5295 10.5959 13.4721 
27 1 17.1441 7.54919 15.4909 
37 1 19.9706 8.19623 16.1532 
39 1 16.4258 8.25349 13.4072 
40 1 16.504 9.64354 14.2545 
63 1 17.8715 9.56546 21.8388 
64 1 18.7046 8.27828 21.1067 
70 1 16.9131 9.10725 22.4855 
71 1 18.7161 8.26473 19.6454 
72 1 20.058 11.8865 25.2623 
81 1 19.9488 8.20461 21.9476 
83 1 16.4552 8.31139 24.6695 
84 1 16.9209 7.07547 23.8936 
85 1 17.3944 10.4531 24.5883 
87 1 19.9821 9.45308 22.6426 
97 1 18.2687 6.98941 21.8666 
99 1 19.7391 10.6454 24.7631 
100 1 18.5045 10.9277 23.8226 
104 1 15.1279 8.46841 25.2326 
108 1 18.7874 10.3989 22.584 
111 1 20.4578 9.46567 23.9354 
112 1 17.1501 7.52486 22.6088 
115 1 16.5943 9.61135 23.8512 
118 1 16.9427 9.04841 15.6853 
121 1 16.9298 7.07038 14.1962 
122 1 19.9846 9.47598 15.445 
125 1 18.3699 10.9595 14.2728 
ITEM: TIMESTEP
20
ITEM: NUMBER OF ATOMS
129
ITEM: BOX BOUNDS xy xz yz pp pp pp
0.0000000000000000e+00 2.3654499999999999e+01 7.8845000000000001e+00
0.0000000000000000e+00 1.3658086643083999e+01 0.0000000000000000e+00
0.0000000000000000e+00 2.5747000000000000e+01 0.0000000000000000e+00
ITEM: ATOMS id type x y z 
18 1 10.3871 6.74263 2.65374 
28 1 5.0983 4.58623 12.8921 
31 1 9.45985 6.51914 0.452193 
62 1 9.11904 5.2601 12.3884 
91 1 9.45587 6.50972 11.8743 
92 1 10.6755 6.22964 10.9636 
106 1 10.3889 6.74096 9.68138 
127 1 10.6759 6.23056 1.37216 
4 1 4.43127 5.81079 13.2797 
5 1 3.18776 5.62644 14.2005 
43 1 4.56789 6.95973 15.4679 
52 1 9.12075 5.25827 25.6926 
66 1 4.43007 5.80173 24.8074 
67 1 5.06514 6.92946 23.9021 
88 1 5.09579 4.5877 25.1868 
107 1 3.18125 5.63853 23.8879 
116 1 4.57198 6.95232 22.607 
117 1 5.0722 6.93955 14.1707 
11 1 11.2384 7.56712 3.41299 
12 1 10.5163 8.79658 4.06943 
14 1 8.99832 11.3205 0.407167 
15 1 10.2377 11.4892 1.31898 
16 1 8.36956 8.92055 0.685422 
19 1 10.4729 8.86516 5.56342 
29 1 10.9473 10.123 3.32473 
32 1 8.71466 7.66275 1.28526 
35 1 12.0577 9.59455 2.60852 
45 1 9.22087 8.94622 3.26119 
47 1 12.7108 8.82759 0.52166 
49 1 11.3527 10.9326 0.658657 
51 1 8.84996 10.1841 2.59574 
53 1 11.2338 7.56887 8.9228 
54 1 10.5181 8.80195 8.26818 
56 1 8.98145 11.3269 11.9377 
57 1 8.35412 10.2074 11.0369 
58 1 11.3518 10.9364 11.6713 
60 1 12.3058 8.07496 9.67292 
61 1 10.4746 8.86582 6.77138 
73 1 9.21716 8.94666 9.07348 
75 1 12.7104 8.83488 11.8098 
76 1 12.276 10.0744 11.0052 
79 1 9.19041 7.68252 9.77425 
80 1 8.32616 12.5287 12.3125 
89 1 10.9485 10.1201 9.00832 
93 1 8.37134 8.91677 11.643 
95 1 10.0458 11.0392 9.69842 
105 1 10.2617 11.4888 11.002 
109 1 8.71089 7.66775 11.0447 
110 1 12.0537 9.59361 9.72835 
114 1 8.84527 10.1813 9.73752 
119 1 8.35084 10.2001 1.30435 
120 1 12.3025 8.0768 2.66129 
123 1 12.2798 10.0664 1.31702 
124 1 9.19223 7.68331 2.56238 
128 1 10.0483 11.0399 2.64527 
6 1 5.03087 8.22108 13.5657 
13 1 9.61871 10.2531 25.083 
17 1 9.16504 8.92846 25.1605 
30 1 9.9252 7.70965 25.1006 
34 1 11.2715 7.51214 25.195 
36 1 8.32302 12.5512 25.7647 
46 1 11.6756 8.84348 25.0906 
50 1 10.9813 10.1241 25.1947 
55 1 9.62244 10.2528 12.9921 
59 1 10.9812 10.1251 12.9086 
74 1 11.6679 8.85207 12.9974 
78 1 11.2725 7.51822 12.8865 
90 1 9.92715 7.71368 12.9949 
94 1 9.1572 8.92746 12.9199 
101 1 5.06145 8.20676 24.525 
33 1 11.7763 6.69258 0.629578 
77 1 11.7807 6.69422 11.7022 
41 1 17.8408 6.18033 13.5443 
68 1 17.843 6.20118 24.5515 
103 1 19.1512 6.08612 22.5715 
126 1 19.1603 6.08088 15.518 
3 1 19.5683 6.89738 12.2322 
7 1 20.0429 8.23164 12.2813 
10 1 15.1235 8.44524 12.8522 
22 1 19.3255 9.48665 12.2371 
26 1 18.0123 9.63534 12.3576 
38 1 17.4429 8.25003 12.0925 
42 1 18.2168 6.9242 12.3411 
44 1 20.0819 11.8818 12.8321 
48 1 12.6016 7.55487 1.38 
65 1 19.5706 6.87853 0.130319 
69 1 18.2063 7.01325 0.0182116 
82 1 17.5202 8.29139 0.113861 
86 1 17.9262 9.61902 0.0205523 
96 1 14.0327 8.68545 12.3561 
98 1 19.2696 9.41525 0.112076 
102 1 20.0215 8.19314 0.0376099 
113 1 12.5986 7.54448 10.9478 
129 2 17.3297 8.28428 10.9979 
1 1 17.8584 9.58529 16.2574 
2 1 18.7255 8.24654 16.9781 
8 1 18.7994 10.3538 15.5061 
9 1 18.7228 8.25539 18.4351 
20 1 14.0465 8.67987 25.7225 
21 1 18.2549 6.98887 16.2233 
23 1 19.8456 10.6127 13.2694 
24 1 20.5234 9.45864 14.1805 
25 1 17.548 10.5758 13.4648 
27 1 17.1372 7.53336 15.4969 
37 1 19.9709 8.19214 16.1418 
39 1 16.4375 8.24486 13.3957 
40 1 16.5064 9.6358 14.2594 
63 1 17.8564 9.55488 21.8487 
64 1 18.7026 8.28032 21.1155 
70 1 16.9229 9.1071 22.4906 
71 1 18.7155 8.26559 19.6553 
72 1 20.0709 11.8809 25.2641 
81 1 19.9606 8.19544 21.9481 
83 1 16.4763 8.3138 24.676 
84 1 16.9171 7.06898 23.8823 
85 1 17.4082 10.4413 24.584 
87 1 19.9869 9.46686 22.6531 
97 1 18.2442 6.99756 21.8682 
99 1 19.7415 10.6221 24.7563 
100 1 18.5172 10.9104 23.8399 
104 1 15.1388 8.46035 25.2304 
108 1 18.7964 10.3865 22.5716 
111 1 20.4707 9.46732 23.9401 
112 1 17.1474 7.52096 22.608 
115 1 16.6072 9.58295 23.8367 
118 1 16.9375 9.04848 15.6917 
121 1 16.9149 7.06761 14.2039 
122 1 19.982 9.48029 15.432 
125 1 18.3742 10.9518 14.2651 
ITEM: TIMESTEP
30
ITEM: NUMBER OF ATOMS
129
ITEM: BOX BOUNDS xy xz yz pp pp pp
0.0000000000000000e+00 2.3654499999999999e+01 7.8845000000000001e+00
0.0000000000000000e+00 1.3658086643083999e+01 0.0000000000000000e+00
0.0000000000000000e+00 2.5747000000000000e+01 0.0000000000000000e+00
ITEM: ATOMS id type x y z 
18 1 10.357 6.75893 2.67289 
28 1 5.08747 4.63054 12.8982 
31 1 9.4419 6.5577 0.44678 
62 1 9.07576 5.26981 12.3979 
91 1 9.44207 6.55819 11.8852 
92 1 10.6448 6.26871 10.9645 
106 1 10.3554 6.75896 9.66258 
127 1 10.6423 6.26956 1.36945 
4 1 4.41053 5.8688 13.2864 
5 1 3.1712 5.65537 14.2048 
43 1 4.56558 6.97031 15.4643 
52 1 9.07953 5.26789 25.683 
66 1 4.40694 5.87507 24.8073 
67 1 5.06671 6.96912 23.908 
88 1 5.08991 4.61977 25.1826 
107 1 3.16394 5.68013 23.889 
116 1 4.55942 6.9639 22.6088 
117 1 5.08311 6.97708 14.1725 
11 1 11.2371 7.57566 3.41222 
12 1 10.5165 8.79409 4.05821 
14 1 9.01343 11.2602 0.40371 
15 1 10.2594 11.4519 1.32165 
16 1 8.32368 8.89013 0.665187 
19 1 10.4733 8.85971 5.56674 
29 1 10.948 10.1055 3.32647 
32 1 8.66605 7.64923 1.28223 
35 1 12.0903 9.60733 2.61604 
45 1 9.20607 8.93942 3.2592 
47 1 12.6882 8.86169 0.515105 
49 1 11.3849 10.9316 0.650101 
51 1 8.85658 10.1716 2.59844 
53 1 11.2359 7.57619 8.9229 
54 1 10.515 8.7941 8.27549 
56 1 9.02576 11.2541 11.9278 
57 1 8.35086 10.1596 11.0343 
58 1 11.3871 10.9323 11.6892 
60 1 12.313 8.09591 9.65631 
61 1 10.4736 8.86074 6.76806 
73 1 9.20656 8.94092 9.07605 
75 1 12.6978 8.86394 11.8213 
76 1 12.3147 10.0936 11.002 
79 1 9.1673 7.67033 9.76776 
80 1 8.32629 12.5093 12.3121 
89 1 10.9493 10.1075 9.00742 
93 1 8.32433 8.88808 11.6672 
95 1 10.0528 11.0268 9.68326 
105 1 10.256 11.4505 11.0161 
109 1 8.6658 7.64802 11.0508 
110 1 12.0873 9.60373 9.71898 
114 1 8.85247 10.1748 9.73545 
119 1 8.35321 10.1617 1.29967 
120 1 12.3108 8.09819 2.6779 
123 1 12.319 10.0913 1.33253 
124 1 9.16906 7.66949 2.56538 
128 1 10.0543 11.0314 2.65 
6 1 5.06962 8.2452 13.5467 
13 1 9.62005 10.2317 25.0686 
17 1 9.13889 8.92245 25.1626 
30 1 9.91946 7.71621 25.0872 
34 1 11.2621 7.51522 25.2047 
36 1 8.33472 12.5084 25.7725 
46 1 11.6689 8.85133 25.0893 
50 1 10.9884 10.1403 25.1847 
55 1 9.62106 10.2303 13.0102 
59 1 10.9947 10.148 12.901 
74 1 11.6654 8.85763 12.9938 
78 1 11.2606 7.52298 12.8765 
90 1 9.91892 7.71715 12.9966 
94 1 9.13644 8.9173 12.9243 
101 1 5.10092 8.24231 24.5423 
33 1 11.7631 6.71737 0.64693 
77 1 11.7621 6.72077 11.6868 
41 1 17.8187 6.18547 13.5328 
68 1 17.8087 6.19863 24.5635 
103 1 19.1527 6.09296 22.5622 
126 1 19.16 6.09034 15.5218 
3 1 19.5601 6.9251 12.2331 
7 1 20.0877 8.23944 12.2675 
10 1 15.1164 8.44354 12.8508 
22 1 19.3638 9.48682 12.2427 
26 1 18.0285 9.59459 12.3656 
38 1 17.4312 8.23817 12.0705 
42 1 18.2002 6.91945 12.3392 
44 1 20.1344 11.8867 12.8317 
48 1 12.5896 7.59719 1.38249 
65 1 19.5707 6.89284 0.142134 
69 1 18.1991 6.99421 0.0155782 
82 1 17.5216 8.28303 0.109705 
86 1 17.9306 9.62003 0.010547 
96 1 14.0252 8.6959 12.3664 
98 1 19.2765 9.41375 0.123105 
102 1 20.0484 8.20404 0.0427633 
113 1 12.5897 7.59553 10.9514 
129 2 17.2948 8.27714 10.9733 
1 1 17.857 9.56519 16.2685 
2 1 18.7261 8.25822 16.9818 
8 1 18.8176 10.3371 15.5126 
9 1 18.7281 8.25509 18.4392 
20 1 14.0492 8.68995 25.7111 
21 1 18.2529 6.99971 16.2228 
23 1 19.8825 10.5825 13.2701 
24 1 20.5691 9.48722 14.1702 
25 1 17.5703 10.5265 13.4619 
27 1 17.1152 7.51586 15.5093 
37 1 19.9733 8.19764 16.1399 
39 1 16.4403 8.22474 13.389 
40 1 16.5138 9.59834 14.2658 
63 1 17.8545 9.54466 21.843 
64 1 18.701 8.29038 21.1187 
70 1 16.9199 9.08436 22.4793 
71 1 18.7202 8.26616 19.6582 
72 1 20.1125 11.8666 25.2725 
81 1 19.9651 8.20065 21.946 
83 1 16.4981 8.29471 24.6791 
84 1 16.8849 7.05336 23.8684 
85 1 17.4299 10.4192 24.5725 
87 1 20.0042 9.47622 22.6542 
97 1 18.2388 7.00727 21.8711 
99 1 19.7615 10.5774 24.7739 
100 1 18.5526 10.8719 23.845 
104 1 15.1393 8.44572 25.242 
108 1 18.8203 10.3653 22.557 
111 1 20.5248 9.48383 23.9355 
112 1 17.1186 7.50395 22.5936 
115 1 16.6172 9.53832 23.8325 
118 1 16.931 9.02917 15.7084 
121 1 16.89 7.05803 14.2146 
122 1 19.9958 9.48315 15.4305 
125 1 18.3878 10.9195 14.2629 
ITEM: TIMESTEP
40
ITEM: NUMBER OF ATOMS
129
ITEM: BOX BOUNDS xy xz yz pp pp pp
0.0000000000000000e+00 2.3654499999999999e+01 7.8845000000000001e+00
0.0000000000000000e+00 1.3658086643083999e+01 0.0000000000000000e+00
0.0000000000000000e+00 2.5747000000000000e+01 0.0000000000000000e+00
ITEM: ATOMS id type x y z 
18 1 10.3318 6.789 2.6781 
28 1 5.06983 4.71399 12.9058 
31 1 9.3863 6.58237 0.422947 
62 1 8.99975 5.30869 12.409 
91 1 9.38932 6.58263 11.9138 
92 1 10.5956 6.32879 10.9522 
106 1 10.3337 6.78927 9.65543 
127 1 10.599 6.32697 1.38189 
4 1 4.3988 5.93302 13.2967 
5 1 3.13991 5.69728 14.2042 
43 1 4.57683 6.9905 15.4569 
52 1 9.00338 5.30954 25.6721 
66 1 4.40062 5.93042 24.8141 
67 1 5.08559 7.03622 23.9086 
88 1 5.06655 4.7088 25.17 
107 1 3.12769 5.71917 23.891 
116 1 4.56924 6.98637 22.6306 
117 1 5.09758 7.03895 14.171 
11 1 11.2396 7.57673 3.40458 
12 1 10.5102 8.76625 4.07221 
14 1 9.03547 11.1981 0.398958 
15 1 10.2916 11.4048 1.31562 
16 1 8.26786 8.85096 0.64815 
19 1 10.4723 8.84989 5.5645 
29 1 10.9595 10.0845 3.31024 
32 1 8.58487 7.62097 1.28643 
35 1 12.1273 9.642 2.63773 
45 1 9.20943 8.92969 3.25619 
47 1 12.7101 8.91766 0.506396 
49 1 11.4225 10.9263 0.643974 
51 1 8.84732 10.1558 2.57808 
53 1 11.2391 7.57593 8.92781 
54 1 10.514 8.76987 8.26484 
56 1 9.00463 11.2005 11.9445 
57 1 8.33726 10.1022 11.0413 
58 1 11.4193 10.9309 11.6799 
60 1 12.3104 8.13121 9.64235 
61 1 10.4718 8.84929 6.76982 
73 1 9.20275 8.92781 9.07701 
75 1 12.7048 8.91823 11.8285 
76 1 12.3777 10.1245 10.995 
79 1 9.09585 7.67196 9.77419 
80 1 8.35515 12.4172 12.2972 
89 1 10.9558 10.0794 9.02169 
93 1 8.27035 8.84866 11.6909 
95 1 10.0586 11.0042 9.702 
105 1 10.3128 11.4075 11.0091 
109 1 8.58285 7.62381 11.0449 
110 1 12.1264 9.64848 9.69947 
114 1 8.84714 10.1499 9.75293 
119 1 8.33194 10.0963 1.29781 
120 1 12.3118 8.13504 2.69618 
123 1 12.3805 10.1137 1.33232 
124 1 9.09721 7.67105 2.56112 
128 1 10.0595 11.0007 2.64151 
6 1 5.14403 8.29047 13.5297 
13 1 9.62626 10.2007 25.0652 
17 1 9.09849 8.90027 25.1485 
30 1 9.90692 7.71917 25.0736 
34 1 11.252 7.53126 25.2091 
36 1 8.35159 12.4324 25.7824 
46 1 11.6559 8.86047 25.0859 
50 1 11.0008 10.1541 25.1715 
55 1 9.62763 10.2004 13.0158 
59 1 10.9983 10.1548 12.9187 
74 1 11.6518 8.86196 13.0018 
78 1 11.2506 7.5339 12.8749 
90 1 9.90417 7.72178 13.0075 
94 1 9.09514 8.90333 12.9321 
101 1 5.15591 8.2827 24.5622 
33 1 11.7296 6.76977 0.677671 
77 1 11.7325 6.77363 11.6534 
41 1 17.7874 6.19761 13.5357 
68 1 17.7733 6.20945 24.556 
103 1 19.1396 6.12088 22.5787 
126 1 19.1577 6.11969 15.5172 
3 1 19.5466 6.96869 12.2216 
7 1 20.1333 8.24691 12.2637 
10 1 15.1067 8.43825 12.8566 
22 1 19.4086 9.49647 12.2346 
26 1 18.0776 9.5321 12.3655 
38 1 17.4144 8.21507 12.0338 
42 1 18.1962 6.93634 12.3281 
44 1 20.2267 11.8488 12.8507 
48 1 12.5718 7.6613 1.38559 
65 1 19.5627 6.93294 0.144189 
69 1 18.1872 6.98106 0.0294354 
82 1 17.5298 8.27693 0.109008 
86 1 17.9452 9.60382 0.014678 
96 1 14.0176 8.72854 12.3868 
98 1 19.2873 9.40979 0.144777 
102 1 20.09 8.22429 0.0587522 
113 1 12.5707 7.64822 10.9368 
129 2 17.229 8.26327 10.9399 
1 1 17.8602 9.54209 16.272 
2 1 18.7211 8.27888 16.9865 
8 1 18.8249 10.3024 15.5159 
9 1 18.7392 8.25768 18.4417 
20 1 14.0486 8.70404 25.7045 
21 1 18.2502 7.01637 16.2242 
23 1 19.9483 10.5787 13.2604 
24 1 20.6453 9.53187 14.1688 
25 1 17.6012 10.4452 13.4724 
27 1 17.086 7.49426 15.5283 
37 1 19.9754 8.21006 16.1345 
39 1 16.4295 8.18589 13.3725 
40 1 16.5333 9.53926 14.2727 
63 1 17.8534 9.53237 21.8386 
64 1 18.6878 8.3152 21.1169 
70 1 16.9196 9.04276 22.4603 
71 1 18.728 8.27043 19.6609 
72 1 20.1921 11.8281 25.2872 
81 1 19.9636 8.20926 21.9515 
83 1 16.4796 8.24382 24.6862 
84 1 16.822 7.02967 23.858 
85 1 17.4561 10.3713 24.5417 
87 1 20.0639 9.47283 22.6552 
97 1 18.2318 7.02305 21.8728 
99 1 19.8246 10.5433 24.7962 
100 1 18.5992 10.8114 23.8359 
104 1 15.1406 8.42192 25.2507 
108 1 18.8466 10.3308 22.5575 
111 1 20.6058 9.51817 23.9303 
112 1 17.0863 7.47471 22.5752 
115 1 16.6412 9.49092 23.8259 
118 1 16.9232 8.99257 15.7336 
121 1 16.8501 7.03529 14.2258 
122 1 20.0414 9.48173 15.4139 
125 1 18.4343 10.8461 14.2514 
ITEM: TIMESTEP
50
ITEM: NUMBER OF ATOMS
129
ITEM: BOX BOUNDS xy xz yz pp pp pp
0.0000000000000000e+00 2.3654499999999999e+01 7.8845000000000001e+00
0.0000000000000000e+00 1.3658086643083999e+01 0.0000000000000000e+00
0.0000000000000000e+00 2.5747000000000000e+01 0.0000000000000000e+00
ITEM: ATOMS id type x y z 
18 1 10.3173 6.7999 2.67982 
28 1 5.07943 4.72132 12.8987 
31 1 9.37395 6.58895 0.432431 
62 1 8.96281 5.30711 12.4203 
91 1 9.37342 6.58937 11.9036 
92 1 10.581 6.34226 10.9595 
106 1 10.3165 6.79861 9.65609 
127 1 10.5779 6.34048 1.37115 
4 1 4.39433 5.953 13.2951 
5 1 3.13636 5.70963 14.2025 
43 1 4.58272 6.99641 15.4533 
52 1 8.96741 5.31258 25.6627 
66 1 4.39336 5.95446 24.8057 
67 1 5.0936 7.04377 23.9173 
88 1 5.07765 4.71074 25.1773 
107 1 3.1283 5.73114 23.8964 
116 1 4.57084 6.99064 22.6323 
117 1 5.10906 7.05348 14.1723 
11 1 11.2334 7.5825 3.40306 
12 1 10.5105 8.76935 4.0643 
14 1 9.03106 11.1806 0.40566 
15 1 10.2978 11.3969 1.31295 
16 1 8.25359 8.84273 0.6405 
19 1 10.4717 8.84383 5.56359 
29 1 10.957 10.0761 3.31206 
32 1 8.56304 7.61705 1.28269 
35 1 12.1379 9.64895 2.63578 
45 1 9.2016 8.92681 3.25719 
47 1 12.7043 8.92294 0.510538 
49 1 11.4291 10.9259 0.64039 
51 1 8.84565 10.1478 2.57702 
53 1 11.2335 7.58394 8.9298 
54 1 10.5096 8.76744 8.27148 
56 1 9.03052 11.1796 11.9275 
57 1 8.32432 10.0885 11.0437 
58 1 11.4284 10.9258 11.6941 
60 1 12.3129 8.14447 9.63536 
61 1 10.4715 8.84384 6.76969 
73 1 9.19818 8.92631 9.07739 
75 1 12.7039 8.92577 11.8231 
76 1 12.382 10.1393 10.9903 
79 1 9.07968 7.66314 9.77085 
80 1 8.34127 12.422 12.3059 
89 1 10.9565 10.0784 9.02075 
93 1 8.25422 8.84245 11.6963 
95 1 10.0505 10.9906 9.70005 
105 1 10.2967 11.3975 11.0244 
109 1 8.56034 7.62123 11.0455 
110 1 12.1382 9.64807 9.69771 
114 1 8.84726 10.147 9.7569 
119 1 8.32566 10.0893 1.29031 
120 1 12.3127 8.14594 2.70239 
123 1 12.3879 10.1283 1.34023 
124 1 9.0814 7.66235 2.5645 
128 1 10.0556 10.9921 2.63423 
6 1 5.16613 8.29675 13.5235 
13 1 9.62662 10.1888 25.0673 
17 1 9.08088 8.89536 25.1423 
30 1 9.91045 7.72285 25.0688 
34 1 11.2512 7.53152 25.2055 
36 1 8.34488 12.4244 25.7773 
46 1 11.6539 8.85444 25.0863 
50 1 11.0015 10.1582 25.165 
55 1 9.62293 10.1873 13.0148 
59 1 11.0046 10.1622 12.9178 
74 1 11.645 8.8589 13.0027 
78 1 11.2504 7.53519 12.8766 
90 1 9.90625 7.72557 13.0168 
94 1 9.07876 8.89665 12.9398 
101 1 5.17039 8.29293 24.5693 
33 1 11.7247 6.78193 0.678077 
77 1 11.7257 6.78386 11.6535 
41 1 17.7868 6.20692 13.53 
68 1 17.7635 6.20951 24.565 
103 1 19.1451 6.12778 22.5782 
126 1 19.1627 6.12812 15.5152 
3 1 19.55 6.98139 12.2276 
7 1 20.1542 8.25379 12.2638 
10 1 15.1046 8.43858 12.8627 
22 1 19.4213 9.49889 12.2296 
26 1 18.0839 9.52499 12.357 
38 1 17.4132 8.21419 12.0288 
42 1 18.1934 6.93571 12.3239 
44 1 20.2651 11.8538 12.8514 
48 1 12.5671 7.67076 1.38541 
65 1 19.5659 6.9438 0.140475 
69 1 18.1819 6.98043 0.0331391 
82 1 17.532 8.2775 0.109781 
86 1 17.9452 9.60529 0.0195794 
96 1 14.0195 8.73882 12.3925 
98 1 19.292 9.40864 0.146172 
102 1 20.104 8.2323 0.0675344 
113 1 12.5656 7.66281 10.9394 
129 2 17.2017 8.25749 10.9345 
1 1 17.8593 9.54106 16.2698 
2 1 18.7256 8.2832 16.9841 
8 1 18.8303 10.2912 15.5124 
9 1 18.7433 8.26115 18.4429 
20 1 14.0535 8.70898 25.7048 
21 1 18.2496 7.02157 16.2208 
23 1 19.9534 10.5631 13.2685 
24 1 20.6688 9.538 14.1702 
25 1 17.6136 10.4227 13.4732 
27 1 17.0795 7.48519 15.5326 
37 1 19.9792 8.2128 16.1366 
39 1 16.4289 8.17196 13.3694 
40 1 16.5372 9.51796 14.2676 
63 1 17.8555 9.53128 21.8401 
64 1 18.6914 8.31737 21.1198 
70 1 16.9203 9.03394 22.4529 
71 1 18.7302 8.27404 19.6613 
72 1 20.2293 11.8224 25.2968 
81 1 19.967 8.21124 21.9504 
83 1 16.4861 8.23644 24.6799 
84 1 16.8166 7.01484 23.8506 
85 1 17.4622 10.3583 24.5413 
87 1 20.0834 9.47755 22.6536 
97 1 18.2312 7.02762 21.8798 
99 1 19.834 10.5397 24.7933 
100 1 18.6196 10.7985 23.8415 
104 1 15.1375 8.41475 25.2487 
108 1 18.8594 10.3193 22.5591 
111 1 20.6295 9.52027 23.9303 
112 1 17.0729 7.46683 22.5716 
115 1 16.643 9.48235 23.8282 
118 1 16.9176 8.98471 15.7359 
121 1 16.8407 7.02716 14.2292 
122 1 20.0592 9.48549 15.4151 
125 1 18.4661 10.828 14.2377 
ITEM: TIMESTEP
60
ITEM: NUMBER OF ATOMS
129
ITEM: BOX BOUNDS xy xz yz pp pp pp
0.0000000000000000e+00 2.3654499999999999e+01 7.8845000000000001e+00
0.0000000000000000e+00 1.3658086643083999e+01 0.0000000000000000e+00
0.0000000000000000e+00 2.5747000000000000e+01 0.0000000000000000e+00
ITEM: ATOMS id type x y z 
18 1 10.3104 6.80426 2.67869 
28 1 5.07862 4.72972 12.8986 
31 1 9.36986 6.59167 0.42882 
62 1 8.95483 5.31424 12.4203 
91 1 9.36964 6.59184 11.9059 
92 1 10.5785 6.34478 10.9653 
106 1 10.3095 6.80432 9.65536 
127 1 10.579 6.3429 1.36911 
4 1 4.39486 5.95622 13.2953 
5 1 3.14213 5.7114 14.2019 
43 1 4.58456 6.99786 15.4534 
52 1 8.95774 5.31422 25.6604 
66 1 4.39379 5.95676 24.8056 
67 1 5.09501 7.04682 23.9173 
88 1 5.07884 4.7147 25.1784 
107 1 3.12781 5.73304 23.898 
116 1 4.57059 6.99264 22.6336 
117 1 5.11041 7.05261 14.1697 
11 1 11.2345 7.58439 3.40277 
12 1 10.5121 8.77024 4.06287 
14 1 9.03131 11.178 0.406011 
15 1 10.2961 11.3946 1.31107 
16 1 8.24907 8.83972 0.638972 
19 1 10.4715 8.84239 5.56532 
29 1 10.953 10.0749 3.31262 
32 1 8.55811 7.61686 1.28469 
35 1 12.141 9.65113 2.63586 
45 1 9.19706 8.92618 3.25423 
47 1 12.7041 8.9253 0.508218 
49 1 11.4309 10.9248 0.639574 
51 1 8.84389 10.144 2.57582 
53 1 11.234 7.58423 8.93146 
54 1 10.5113 8.76937 8.27117 
56 1 9.0303 11.1767 11.9282 
57 1 8.32273 10.088 11.0442 
58 1 11.43 10.9267 11.6947 
60 1 12.3117 8.14398 9.63481 
61 1 10.4714 8.84225 6.76885 
73 1 9.19558 8.92581 9.07932 
75 1 12.7036 8.92774 11.8242 
76 1 12.3838 10.1386 10.9895 
79 1 9.07805 7.6613 9.7688 
80 1 8.34046 12.4179 12.3067 
89 1 10.9512 10.0754 9.02155 
93 1 8.249 8.83934 11.6958 
95 1 10.055 10.9902 9.70197 
105 1 10.2945 11.3955 11.0238 
109 1 8.55741 7.61759 11.0491 
110 1 12.1396 9.65203 9.69834 
114 1 8.84308 10.1435 9.75855 
119 1 8.32437 10.0891 1.29029 
120 1 12.3113 8.1452 2.70063 
123 1 12.389 10.1318 1.34013 
124 1 9.07889 7.66116 2.56506 
128 1 10.0569 10.9903 2.63285 
6 1 5.17244 8.30047 13.5246 
13 1 9.62355 10.185 25.0695 
17 1 9.08318 8.89274 25.139 
30 1 9.90481 7.72258 25.0714 
34 1 11.2472 7.5307 25.2026 
36 1 8.34425 12.4199 25.7766 
46 1 11.6577 8.86094 25.0878 
50 1 11.0035 10.1564 25.1637 
55 1 9.62246 10.1849 13.0118 
59 1 11.0036 10.1593 12.9209 
74 1 11.65 8.86428 12.9999 
78 1 11.2448 7.53621 12.878 
90 1 9.90072 7.72128 13.0113 
94 1 9.08086 8.89257 12.9444 
101 1 5.17376 8.29532 24.5697 
33 1 11.7207 6.78321 0.681392 
77 1 11.7215 6.78627 11.6519 
41 1 17.7862 6.2086 13.5252 
68 1 17.7633 6.21031 24.566 
103 1 19.1478 6.13083 22.5803 
126 1 19.1636 6.12989 15.5134 
3 1 19.5538 6.98143 12.2306 
7 1 20.1557 8.25823 12.2618 
10 1 15.1016 8.43932 12.8628 
22 1 19.4286 9.49781 12.2315 
26 1 18.0822 9.52462 12.3578 
38 1 17.4138 8.21463 12.0256 
42 1 18.1923 6.93611 12.3233 
44 1 20.2752 11.8527 12.852 
48 1 12.5657 7.67232 1.38965 
65 1 19.5644 6.9454 0.13936 
69 1 18.1826 6.98138 0.0341455 
82 1 17.5328 8.27673 0.109627 
86 1 17.9477 9.60496 0.0185563 
96 1 14.0165 8.74149 12.3926 
98 1 19.291 9.40969 0.144645 
102 1 20.1061 8.23561 0.0691922 
113 1 12.5649 7.66812 10.9404 
129 2 17.1944 8.25586 10.9342 
1 1 17.8543 9.53789 16.2692 
2 1 18.7254 8.2831 16.9857 
8 1 18.8429 10.2854 15.5109 
9 1 18.7441 8.26225 18.4432 
20 1 14.0539 8.71011 25.7048 
21 1 18.2523 7.02489 16.2217 
23 1 19.9555 10.5623 13.2686 
24 1 20.674 9.53762 14.1681 
25 1 17.6201 10.4158 13.4716 
27 1 17.0772 7.48297 15.5318 
37 1 19.9814 8.21401 16.1353 
39 1 16.429 8.16655 13.3663 
40 1 16.54 9.51633 14.2691 
63 1 17.8558 9.52966 21.8416 
64 1 18.6915 8.31591 21.1208 
70 1 16.9203 9.03468 22.4582 
71 1 18.7309 8.2751 19.6615 
72 1 20.239 11.8195 25.2988 
81 1 19.9696 8.21048 21.9512 
83 1 16.4865 8.23667 24.678 
84 1 16.8145 7.01293 23.8497 
85 1 17.4698 10.3572 24.542 
87 1 20.0853 9.48036 22.6537 
97 1 18.2314 7.03137 21.8784 
99 1 19.8377 10.5387 24.7948 
100 1 18.6179 10.7954 23.8475 
104 1 15.1373 8.41389 25.2478 
108 1 18.8662 10.3128 22.5564 
111 1 20.6347 9.51939 23.9305 
112 1 17.0709 7.46564 22.5717 
115 1 16.6448 9.47345 23.8223 
118 1 16.9181 8.98387 15.7367 
121 1 16.8375 7.02554 14.2338 
122 1 20.056 9.48875 15.4185 
125 1 18.4702 10.8234 14.2303 
ITEM: TIMESTEP
70
ITEM: NUMBER OF ATOMS
129
ITEM: BOX BOUNDS xy xz yz pp pp pp
0.0000000000000000e+00 2.3654499999999999e+01 7.8845000000000001e+00
0.0000000000000000e+00 1.3658086643083999e+01 0.0000000000000000e+00
0.0000000000000000e+00 2.5747000000000000e+01 0.0000000000000000e+00
ITEM: ATOMS id type x y z 
18 1 10.3064 6.80727 2.67738 
28 1 5.08045 4.73552 12.8968 
31 1 9.36457 6.59301 0.427626 
62 1 8.9428 5.31797 12.4224 
91 1 9.36413 6.59317 11.907 
92 1 10.5743 6.34864 10.9671 
106 1 10.3057 6.80736 9.65665 
127 1 10.575 6.34675 1.36765 
4 1 4.39625 5.96056 13.295 
5 1 3.14293 5.71473 14.2008 
43 1 4.58703 6.99971 15.4527 
52 1 8.94549 5.31762 25.6581 
66 1 4.39489 5.96004 24.8056 
67 1 5.0979 7.04991 23.9187 
88 1 5.08073 4.71944 25.1799 
107 1 3.12739 5.73531 23.8993 
116 1 4.57249 6.99442 22.6353 
117 1 5.11399 7.05549 14.1691 
11 1 11.2331 7.58569 3.40161 
12 1 10.5115 8.76953 4.0625 
14 1 9.03023 11.1748 0.406314 
15 1 10.2959 11.3924 1.30939 
16 1 8.24434 8.83731 0.636942 
19 1 10.4713 8.84039 5.56562 
29 1 10.9515 10.0733 3.31154 
32 1 8.55164 7.61603 1.28484 
35 1 12.1423 9.65332 2.63582 
45 1 9.19508 8.92567 3.25351 
47 1 12.7049 8.92759 0.508371 
49 1 11.4321 10.9241 0.63806 
51 1 8.84178 10.142 2.57415 
53 1 11.2324 7.58559 8.93289 
54 1 10.5106 8.7688 8.27162 