ITEM: TIMESTEP
0
ITEM: NUMBER OF ATOMS
73
ITEM: BOX BOUNDS pp pp pp
0.0000000000000000e+00 1.3600000000000000e+01
0.0000000000000000e+00 1.3600000000000000e+01
0.0000000000000000e+00 1.3600000000000000e+01
ITEM: ATOMS id type x y z 
1 1 6.672 0.882 7.682 
2 1 6.673 1.896 8.696 
3 1 6.672 2.763 9.563 
7 1 6.673 5.663 12.463 
8 1 6.672 4.65 11.449 
9 1 6.672 3.783 10.582 
49 1 5.663 6.673 12.463 
50 1 4.65 6.672 11.449 
51 1 3.783 6.672 10.582 
55 1 0.882 6.672 7.682 
56 1 1.896 6.673 8.696 
57 1 2.763 6.672 9.563 
25 1 0.882 7.682 6.672 
26 1 1.896 8.696 6.673 
27 1 2.763 9.563 6.672 
31 1 5.663 12.463 6.673 
32 1 4.65 11.449 6.672 
33 1 3.783 10.582 6.672 
37 1 6.673 12.463 5.663 
38 1 6.672 11.449 4.65 
39 1 6.672 10.582 3.783 
43 1 6.672 7.682 0.882 
44 1 6.673 8.696 1.896 
45 1 6.672 9.563 2.763 
28 1 5.662 7.683 13.473 
29 1 4.649 8.696 13.472 
30 1 3.781 9.563 13.471 
34 1 0.882 12.462 13.473 
35 1 1.896 11.449 13.472 
36 1 2.763 10.582 13.472 
52 1 5.662 13.473 7.683 
53 1 4.649 13.472 8.696 
54 1 3.781 13.472 9.563 
58 1 0.882 13.472 12.462 
59 1 1.896 13.472 11.449 
60 1 2.763 13.472 10.582 
13 1 7.682 6.672 0.882 
14 1 8.696 6.673 1.896 
15 1 9.563 6.672 2.763 
19 1 12.463 6.673 5.663 
20 1 11.449 6.672 4.65 
21 1 10.582 6.672 3.783 
61 1 12.463 5.663 6.673 
62 1 11.449 4.65 6.672 
63 1 10.582 3.783 6.672 
67 1 7.682 0.882 6.672 
68 1 8.696 1.896 6.673 
69 1 9.563 2.763 6.672 
4 1 13.473 5.662 7.683 
5 1 13.472 4.649 8.696 
6 1 13.471 3.781 9.563 
10 1 13.473 0.883 12.462 
11 1 13.473 1.896 11.449 
12 1 13.472 2.763 10.582 
64 1 7.683 5.662 13.473 
65 1 8.696 4.649 13.472 
66 1 9.563 3.781 13.471 
70 1 12.462 0.883 13.473 
71 1 11.449 1.896 13.473 
72 1 10.582 2.763 13.472 
73 2 7.683 0.768 8.089 
16 1 7.683 13.473 5.662 
17 1 8.696 13.472 4.649 
18 1 9.563 13.471 3.781 
22 1 12.462 13.473 0.882 
23 1 11.449 13.473 1.896 
24 1 10.582 13.472 2.763 
40 1 13.473 7.683 5.662 
41 1 13.472 8.696 4.649 
42 1 13.471 9.563 3.781 
46 1 13.473 12.462 0.882 
47 1 13.473 11.449 1.896 
48 1 13.472 10.582 2.763 
ITEM: TIMESTEP
10
ITEM: NUMBER OF ATOMS
73
ITEM: BOX BOUNDS pp pp pp
0.0000000000000000e+00 1.3600000000000000e+01
0.0000000000000000e+00 1.3600000000000000e+01
0.0000000000000000e+00 1.3600000000000000e+01
ITEM: ATOMS id type x y z 
1 1 6.61504 0.931186 7.77527 
2 1 6.54995 1.97254 8.71353 
3 1 6.66248 2.81144 9.59931 
7 1 6.67312 5.66073 12.462 
8 1 6.67197 4.66296 11.461 
9 1 6.67686 3.78996 10.592 
49 1 5.63264 6.68306 12.4426 
50 1 4.63457 6.67267 11.4344 
51 1 3.77023 6.67174 10.5696 
55 1 0.902883 6.67309 7.70222 
56 1 1.90733 6.67408 8.70528 
57 1 2.7733 6.67169 9.57392 
25 1 0.901481 7.70228 6.67172 
26 1 1.90464 8.70269 6.67381 
27 1 2.77099 9.57173 6.67168 
31 1 5.63075 12.4467 6.691 
32 1 4.63315 11.4299 6.67106 
33 1 3.76596 10.5656 6.67139 
37 1 6.67592 12.4333 5.63265 
38 1 6.66936 11.4294 4.63349 
39 1 6.67167 10.5635 3.76397 
43 1 6.67157 7.70408 0.903149 
44 1 6.67382 8.70262 1.90455 
45 1 6.67171 9.57251 2.77178 
28 1 5.6417 7.70805 13.4755 
29 1 4.63652 8.70834 13.4764 
30 1 3.77057 9.574 13.4693 
34 1 0.900141 12.4437 13.473 
35 1 1.90589 11.4404 13.471 
36 1 2.77079 10.5732 13.4722 
52 1 5.59569 13.4323 7.7129 
53 1 4.6319 13.4703 8.70923 
54 1 3.77063 13.4716 9.57534 
58 1 0.901475 13.473 12.4441 
59 1 1.9043 13.4679 11.4399 
60 1 2.77261 13.4744 10.5722 
13 1 7.7035 6.6755 0.906446 
14 1 8.70647 6.67426 1.90896 
15 1 9.5747 6.67168 2.77391 
19 1 12.4439 6.67878 5.63839 
20 1 11.4377 6.67202 4.6381 
21 1 10.5714 6.67205 3.77211 
61 1 12.4524 5.65229 6.67338 
62 1 11.4512 4.6523 6.67132 
63 1 10.5881 3.78855 6.67257 
67 1 7.73485 0.931095 6.5968 
68 1 8.72749 1.93001 6.65228 
69 1 9.59188 2.79454 6.67452 
4 1 13.4772 5.64321 7.70748 
5 1 13.4761 4.6377 8.70835 
6 1 13.4692 3.77103 9.57318 
10 1 13.4723 0.902019 12.4446 
11 1 13.4737 1.90404 11.4382 
12 1 13.4714 2.77228 10.5737 
64 1 7.71393 5.64279 13.4798 
65 1 8.70985 4.63264 13.4801 
66 1 9.57559 3.77067 13.4672 
70 1 12.4446 0.902196 13.4722 
71 1 11.4386 1.90368 13.4737 
72 1 10.5734 2.77251 13.4713 
73 2 7.80229 0.574953 8.05903 
16 1 7.71325 13.4261 5.59616 
17 1 8.7159 13.4699 4.62826 
18 1 9.58175 13.471 3.76339 
22 1 12.4435 13.4729 0.902063 
23 1 11.4395 13.4736 1.90201 
24 1 10.573 13.4721 2.77277 
40 1 13.4732 7.70406 5.643 
41 1 13.4757 8.70725 4.63762 
42 1 13.4693 9.57319 3.77159 
46 1 13.4736 12.4438 0.901179 
47 1 13.4735 11.4376 1.90374 
48 1 13.4715 10.5739 2.77244 
ITEM: TIMESTEP
20
ITEM: NUMBER OF ATOMS
73
ITEM: BOX BOUNDS pp pp pp
0.0000000000000000e+00 1.3600000000000000e+01
0.0000000000000000e+00 1.3600000000000000e+01
0.0000000000000000e+00 1.3600000000000000e+01
ITEM: ATOMS id type x y z 
1 1 6.67582 0.885408 7.76987 
2 1 6.52565 1.97119 8.73333 
3 1 6.63509 2.83264 9.59814 
7 1 6.67149 5.67638 12.4779 
8 1 6.67627 4.68435 11.4803 
9 1 6.68497 3.81769 10.6127 
49 1 5.62798 6.69178 12.4467 
50 1 4.63374 6.67455 11.436 
51 1 3.76888 6.67101 10.5683 
55 1 0.905687 6.67421 7.70401 
56 1 1.90723 6.67516 8.70395 
57 1 2.77154 6.67175 9.57161 
25 1 0.898813 7.70048 6.6707 
26 1 1.90004 8.69824 6.6742 
27 1 2.76445 9.56508 6.67136 
31 1 5.63674 12.4346 6.6756 
32 1 4.63051 11.4238 6.66811 
33 1 3.76281 10.5617 6.67076 
37 1 6.64966 12.4057 5.64082 
38 1 6.66271 11.4213 4.63567 
39 1 6.67058 10.5623 3.76221 
43 1 6.67143 7.70096 0.900063 
44 1 6.6746 8.6993 1.90141 
45 1 6.67168 9.56655 2.76584 
28 1 5.63619 7.71382 13.4774 
29 1 4.63517 8.71676 13.4795 
30 1 3.76449 9.57767 13.4698 
34 1 0.902252 12.4409 13.4745 
35 1 1.90496 11.4417 13.4691 
36 1 2.76908 10.574 13.4719 
52 1 5.57983 13.4305 7.70569 
53 1 4.61402 13.4584 8.71173 
54 1 3.75619 13.4732 9.59154 
58 1 0.899081 13.4723 12.445 
59 1 1.899 13.4672 11.4512 
60 1 2.76156 13.475 10.5809 
13 1 7.70726 6.67654 0.910534 
14 1 8.7074 6.67765 1.91307 
15 1 9.57661 6.67107 2.77567 
19 1 12.4448 6.68648 5.63161 
20 1 11.4379 6.67351 4.63693 
21 1 10.5713 6.67131 3.77144 
61 1 12.4683 5.66735 6.67286 
62 1 11.4679 4.67107 6.67093 
63 1 10.6028 3.80225 6.67616 
67 1 7.73674 0.986351 6.45052 
68 1 8.72337 1.9479 6.58783 
69 1 9.60775 2.80398 6.68166 
4 1 13.4843 5.64152 7.71479 
5 1 13.4804 4.63812 8.71572 
6 1 13.468 3.76627 9.57574 
10 1 13.4717 0.905498 12.4415 
11 1 13.4751 1.90396 11.4378 
12 1 13.4698 2.77122 10.5732 
64 1 7.71619 5.6445 13.4906 
65 1 8.71857 4.63891 13.4845 
66 1 9.57624 3.76406 13.4668 
70 1 12.4453 0.906069 13.4675 
71 1 11.4408 1.9016 13.4742 
72 1 10.5759 2.76866 13.4692 
73 2 7.76236 0.46469 8.23845 
16 1 7.70021 13.4346 5.59387 
17 1 8.72252 13.4544 4.60315 
18 1 9.60053 13.4717 3.75015 
22 1 12.4506 13.4711 0.895879 
23 1 11.4535 13.4771 1.88699 
24 1 10.5892 13.4715 2.7563 
40 1 13.4751 7.70998 5.63728 
41 1 13.477 8.71358 4.63655 
42 1 13.4695 9.57633 3.76755 
46 1 13.4777 12.4372 0.902972 
47 1 13.4768 11.4362 1.90384 
48 1 13.4693 10.573 2.77244 
ITEM: TIMESTEP
30
ITEM: NUMBER OF ATOMS
73
ITEM: BOX BOUNDS pp pp pp
0.0000000000000000e+00 1.3600000000000000e+01
0.0000000000000000e+00 1.3600000000000000e+01
0.0000000000000000e+00 1.3600000000000000e+01
ITEM: ATOMS id type x y z 
1 1 6.77289 0.854028 7.74145 
2 1 6.54775 1.96904 8.72102 
3 1 6.61058 2.81741 9.5898 
7 1 6.67179 5.67595 12.4783 
8 1 6.6808 4.67705 11.4719 
9 1 6.68373 3.82225 10.6064 
49 1 5.62952 6.69182 12.449 
50 1 4.63474 6.67557 11.4383 
51 1 3.76982 6.6709 10.5691 
55 1 0.904917 6.67349 7.7039 
56 1 1.9085 6.67576 8.70473 
57 1 2.77191 6.6717 9.57128 
25 1 0.896931 7.69802 6.67152 
26 1 1.90049 8.69863 6.67392 
27 1 2.76453 9.56513 6.67154 
31 1 5.64241 12.4495 6.68067 
32 1 4.63265 11.4277 6.66845 
33 1 3.76707 10.5649 6.67012 
37 1 6.66336 12.4174 5.64577 
38 1 6.66244 11.4266 4.64545 
39 1 6.6697 10.5678 3.76929 
43 1 6.67192 7.7016 0.900934 
44 1 6.67437 8.70283 1.90453 
45 1 6.67209 9.57024 2.76906 
28 1 5.63722 7.71487 13.4794 
29 1 4.63586 8.71597 13.4795 
30 1 3.7663 9.57696 13.4713 
34 1 0.902701 12.4429 13.4719 
35 1 1.90545 11.4412 13.4691 
36 1 2.76933 10.5737 13.4708 
52 1 5.5908 13.4407 7.69949 
53 1 4.61959 13.4565 8.69794 
54 1 3.76363 13.4722 9.58127 
58 1 0.899245 13.4726 12.4442 
59 1 1.90458 13.4695 11.4451 
60 1 2.76753 13.474 10.5778 
13 1 7.70556 6.67943 0.912235 
14 1 8.70711 6.67873 1.91372 
15 1 9.57607 6.67156 2.77603 
19 1 12.4473 6.68192 5.63846 
20 1 11.441 6.6736 4.63927 
21 1 10.574 6.67098 3.77389 
61 1 12.4602 5.65888 6.67302 
62 1 11.458 4.66142 6.6722 
63 1 10.5944 3.79025 6.68183 
67 1 7.70574 1.00046 6.46745 
68 1 8.70883 1.94555 6.57189 
69 1 9.59579 2.79259 6.67079 
4 1 13.4808 5.64361 7.70919 
5 1 13.4787 4.64029 8.71177 
6 1 13.4693 3.76992 9.57392 
10 1 13.4744 0.903817 12.4409 
11 1 13.4745 1.90455 11.4366 
12 1 13.4697 2.77182 10.5715 
64 1 7.71588 5.64653 13.4922 
65 1 8.71545 4.63967 13.4826 
66 1 9.5766 3.76637 13.4687 
70 1 12.4458 0.906801 13.4668 
71 1 11.439 1.90393 13.4725 
72 1 10.5739 2.76895 13.469 
73 2 7.71392 0.451045 8.29199 
16 1 7.68299 13.4621 5.60173 
17 1 8.70905 13.4539 4.60284 
18 1 9.5931 13.4659 3.75834 
22 1 12.4561 13.4718 0.889563 
23 1 11.4539 13.4766 1.88808 
24 1 10.59 13.4726 2.75684 
40 1 13.4746 7.70828 5.63842 
41 1 13.4764 8.71262 4.63748 
42 1 13.4701 9.57596 3.76924 
46 1 13.4781 12.4382 0.901892 
47 1 13.476 11.4357 1.90411 
48 1 13.4697 10.5722 2.77246 
ITEM: TIMESTEP
40
ITEM: NUMBER OF ATOMS
73
ITEM: BOX BOUNDS pp pp pp
0.0000000000000000e+00 1.3600000000000000e+01
0.0000000000000000e+00 1.3600000000000000e+01
0.0000000000000000e+00 1.3600000000000000e+01
ITEM: ATOMS id type x y z 
1 1 6.78137 0.846282 7.74542 
2 1 6.55493 1.96811 8.71654 
3 1 6.60457 2.81987 9.58159 
7 1 6.67265 5.67734 12.4789 
8 1 6.68175 4.67721 11.4733 
9 1 6.68039 3.81805 10.6036 
49 1 5.63161 6.69008 12.4496 
50 1 4.6344 6.67591 11.4385 
51 1 3.77117 6.67096 10.5706 
55 1 0.903785 6.67334 7.70302 
56 1 1.90877 6.67561 8.70482 
57 1 2.77298 6.67183 9.57205 
25 1 0.89687 7.69754 6.67193 
26 1 1.901 8.69939 6.67386 
27 1 2.76554 9.5656 6.67164 
31 1 5.64102 12.4527 6.68305 
32 1 4.63253 11.4289 6.6685 
33 1 3.76766 10.5654 6.66965 
37 1 6.66758 12.421 5.64641 
38 1 6.66258 11.4266 4.64674 
39 1 6.66957 10.5689 3.77193 
43 1 6.67207 7.70347 0.902906 
44 1 6.67427 8.70529 1.90647 
45 1 6.67211 9.5724 2.77117 
28 1 5.63907 7.71378 13.4802 
29 1 4.63613 8.71574 13.4796 
30 1 3.76633 9.57735 13.4719 
34 1 0.902535 12.4447 13.4702 
35 1 1.90485 11.4418 13.4689 
36 1 2.76891 10.5743 13.4706 
52 1 5.59461 13.4438 7.69919 
53 1 4.62267 13.4568 8.69479 
54 1 3.76596 13.4719 9.57664 
58 1 0.900528 13.4731 12.443 
59 1 1.90655 13.4699 11.4423 
60 1 2.77155 13.4739 10.575 
13 1 7.70449 6.68037 0.91231 
14 1 8.70774 6.67903 1.91475 
15 1 9.57676 6.67189 2.77715 
19 1 12.4475 6.67996 5.64045 
20 1 11.4415 6.67347 4.63974 
21 1 10.575 6.67098 3.77477 
61 1 12.4582 5.65724 6.67329 
62 1 11.4537 4.65598 6.67323 
63 1 10.5912 3.78582 6.6833 
67 1 7.69985 1.00038 6.4794 
68 1 8.70665 1.94607 6.56928 
69 1 9.59399 2.79355 6.66455 
4 1 13.4793 5.6441 7.70731 
5 1 13.4779 4.64009 8.71124 
6 1 13.4698 3.77101 9.57334 
10 1 13.4756 0.902801 12.4404 
11 1 13.4746 1.90516 11.4359 
12 1 13.4698 2.77186 10.5712 
64 1 7.71409 5.64737 13.4912 
65 1 8.71514 4.63937 13.4822 
66 1 9.57517 3.76834 13.4693 
70 1 12.4473 0.90559 13.4663 
71 1 11.4392 1.90413 13.4719 
72 1 10.5731 2.76958 13.4691 
73 2 7.70956 0.440476 8.30113 
16 1 7.67878 13.469 5.59739 
17 1 8.70628 13.4538 4.60111 
18 1 9.592 13.4647 3.75807 
22 1 12.4564 13.4726 0.888735 
23 1 11.4528 13.4764 1.88994 
24 1 10.59 13.4722 2.75807 
40 1 13.4745 7.70719 5.63951 
41 1 13.4761 8.71197 4.63796 
42 1 13.4704 9.57554 3.77006 
46 1 13.4782 12.4391 0.900689 
47 1 13.4758 11.4363 1.90388 
48 1 13.4698 10.5727 2.77159 
ITEM: TIMESTEP
50
ITEM: NUMBER OF ATOMS
73
ITEM: BOX BOUNDS pp pp pp
0.0000000000000000e+00 1.3600000000000000e+01
0.0000000000000000e+00 1.3600000000000000e+01
0.0000000000000000e+00 1.3600000000000000e+01
ITEM: ATOMS id type x y z 
1 1 6.81468 0.797889 7.78092 
2 1 6.59144 1.96851 8.69149 
3 1 6.56336 2.83896 9.53781 
7 1 6.67831 5.67639 12.4738 
8 1 6.68758 4.66432 11.4704 
9 1 6.6583 3.81351 10.5969 
49 1 5.63961 6.68879 12.4571 
50 1 4.6372 6.67816 11.444 
51 1 3.77461 6.67159 10.5747 
55 1 0.901515 6.67197 7.7019 
56 1 1.90945 6.6746 8.70566 
57 1 2.77403 6.67236 9.57097 
25 1 0.896729 7.69636 6.67257 
26 1 1.90463 8.70286 6.67586 
27 1 2.77035 9.56779 6.67053 
31 1 5.63772 12.4659 6.68592 
32 1 4.63266 11.4377 6.66896 
33 1 3.77185 10.5697 6.66648 
37 1 6.67586 12.4392 5.65514 
38 1 6.66383 11.4349 4.66163 
39 1 6.66925 10.5735 3.78794 
43 1 6.67223 7.71175 0.911038 
44 1 6.6759 8.71725 1.91715 
45 1 6.67095 9.58398 2.78219 
28 1 5.64524 7.71224 13.4856 
29 1 4.63807 8.71479 13.4813 
30 1 3.76945 9.57667 13.4747 
34 1 0.90056 12.4541 13.4626 
35 1 1.90226 11.4442 13.4666 
36 1 2.76646 10.5778 13.4695 
52 1 5.62994 13.4639 7.69801 
53 1 4.63753 13.4617 8.67795 
54 1 3.77983 13.4691 9.55121 
58 1 0.913577 13.476 12.4296 
59 1 1.91977 13.4745 11.4268 
60 1 2.78816 13.4727 10.5618 
13 1 7.70163 6.68615 0.916472 
14 1 8.70818 6.68142 1.91856 
15 1 9.57728 6.67401 2.78004 
19 1 12.4506 6.67275 5.64933 
20 1 11.4455 6.67281 4.64457 
21 1 10.5802 6.67083 3.77843 
61 1 12.4434 5.64392 6.67588 
62 1 11.4447 4.63766 6.68102 
63 1 10.581 3.76964 6.68899 
67 1 7.66805 0.99477 6.52067 
68 1 8.68742 1.94002 6.55395 
69 1 9.5702 2.79125 6.62726 
4 1 13.4743 5.6472 7.69995 
5 1 13.4738 4.64141 8.70609 
6 1 13.4722 3.77524 9.57143 
10 1 13.4812 0.897832 12.4384 
11 1 13.4749 1.90585 11.434 
12 1 13.4704 2.7723 10.5699 
64 1 7.70864 5.65681 13.4937 
65 1 8.71075 4.6419 13.4805 
66 1 9.57308 3.77256 13.473 
70 1 12.4524 0.903654 13.4611 
71 1 11.4411 1.90571 13.4673 
72 1 10.574 2.76836 13.4692 
73 2 7.69464 0.351153 8.3747 
16 1 7.65594 13.5153 5.57939 
17 1 8.68567 13.4591 4.5855 
18 1 9.58364 13.4559 3.75612 
22 1 12.4584 13.4755 0.885696 
23 1 11.4542 13.4754 1.89321 
24 1 10.5939 13.4684 2.76336 
40 1 13.4734 7.70246 5.64426 
41 1 13.4742 8.70949 4.63919 
42 1 13.4719 9.57389 3.77346 
46 1 13.4798 12.4441 0.893283 
47 1 13.4742 11.4395 1.90149 
48 1 13.4712 10.5753 2.76783 
ITEM: TIMESTEP
60
ITEM: NUMBER OF ATOMS
73
ITEM: BOX BOUNDS pp pp pp
0.0000000000000000e+00 1.3600000000000000e+01
0.0000000000000000e+00 1.3600000000000000e+01
0.0000000000000000e+00 1.3600000000000000e+01
ITEM: ATOMS id type x y z 
1 1 6.84581 0.783016 7.79544 
2 1 6.58151 1.9734 8.68692 
3 1 6.56436 2.85097 9.52958 
7 1 6.67945 5.67683 12.4749 
8 1 6.68393 4.66451 11.476 
9 1 6.64592 3.82175 10.5917 
49 1 5.63935 6.68984 12.4562 
50 1 4.63853 6.67854 11.4449 
51 1 3.77619 6.67241 10.5769 
55 1 0.902931 6.67367 7.70126 
56 1 1.91058 6.67415 8.70708 
57 1 2.77551 6.67209 9.57287 
25 1 0.897258 7.69742 6.67374 
26 1 1.90441 8.7007 6.67426 
27 1 2.76901 9.56606 6.67066 
31 1 5.63868 12.4676 6.68692 
32 1 4.63406 11.4415 6.66856 
33 1 3.7735 10.574 6.66594 
37 1 6.66629 12.4429 5.65456 
38 1 6.663 11.4383 4.65962 
39 1 6.66991 10.5738 3.79201 
43 1 6.67412 7.71243 0.911156 
44 1 6.67257 8.71556 1.91637 
45 1 6.67326 9.58087 2.78213 
28 1 5.64449 7.7119 13.485 
29 1 4.63775 8.71614 13.4823 
30 1 3.76839 9.5779 13.4746 
34 1 0.902228 12.4536 13.4607 
35 1 1.90392 11.4436 13.4663 
36 1 2.76786 10.5766 13.4695 
52 1 5.63385 13.4638 7.69657 
53 1 4.64814 13.4639 8.68041 
54 1 3.78038 13.47 9.54823 
58 1 0.911767 13.4741 12.4321 
59 1 1.9207 13.4825 11.4225 
60 1 2.78836 13.4697 10.5591 
13 1 7.70013 6.68649 0.915293 
14 1 8.70793 6.68284 1.91965 
15 1 9.57762 6.67425 2.7809 
19 1 12.4517 6.67339 5.65029 
20 1 11.4467 6.67535 4.64309 
21 1 10.5797 6.66944 3.77945 
61 1 12.4489 5.64826 6.67718 
62 1 11.4438 4.63655 6.68141 
63 1 10.5797 3.76947 6.68422 
67 1 7.65955 0.996616 6.51797 
68 1 8.67195 1.94727 6.55404 
69 1 9.56562 2.7862 6.62229 
4 1 13.4752 5.64729 7.70171 
5 1 13.4755 4.64186 8.7074 
6 1 13.4711 3.77441 9.57084 
10 1 13.4831 0.896516 12.437 
11 1 13.4748 1.90563 11.4349 
12 1 13.4716 2.77179 10.5701 
64 1 7.71238 5.65481 13.4935 
65 1 8.71176 4.64274 13.482 
66 1 9.57218 3.77309 13.4737 
70 1 12.4521 0.904729 13.4599 
71 1 11.4418 1.90673 13.4657 
72 1 10.5737 2.76926 13.4692 
73 2 7.68641 0.303862 8.40344 
16 1 7.65261 13.5159 5.57668 
17 1 8.68448 13.4655 4.58254 
18 1 9.57818 13.4559 3.74762 
22 1 12.4608 13.4763 0.884052 
23 1 11.4569 13.474 1.89246 
24 1 10.597 13.4653 2.76286 
40 1 13.4734 7.70331 5.64377 
41 1 13.4741 8.71056 4.63775 
42 1 13.4718 9.57505 3.77142 
46 1 13.4799 12.4436 0.89319 
47 1 13.4751 11.4394 1.90124 
48 1 13.4716 10.5754 2.76826 
ITEM: TIMESTEP
70
ITEM: NUMBER OF ATOMS
73
ITEM: BOX BOUNDS pp pp pp
0.0000000000000000e+00 1.3600000000000000e+01
0.0000000000000000e+00 1.3600000000000000e+01
0.0000000000000000e+00 1.3600000000000000e+01
ITEM: ATOMS id type x y z 
1 1 6.8508 0.779121 7.80051 
2 1 6.58624 1.97356 8.68167 
3 1 6.56013 2.84941 9.52479 
7 1 6.67868 5.67575 12.4761 
8 1 6.68348 4.66386 11.4713 
9 1 6.64193 3.82299 10.5889 
49 1 5.64116 6.68879 12.4566 
50 1 4.63855 6.67872 11.4448 
51 1 3.77607 6.67265 10.5769 
55 1 0.90267 6.67319 7.7015 
56 1 1.91037 6.67414 8.70689 
57 1 2.77513 6.67199 9.57264 
25 1 0.896866 7.69714 6.6733 
26 1 1.90567 8.70202 6.67408 
27 1 2.77012 9.56741 6.67048 
31 1 5.63947 12.4697 6.68622 
32 1 4.63295 11.4419 6.66909 
33 1 3.77287 10.5738 6.66564 
37 1 6.66769 12.4472 5.65236 
38 1 6.66296 11.4392 4.65975 
39 1 6.66997 10.5739 3.79301 
43 1 6.6737 7.71241 0.911046 
44 1 6.67152 8.71734 1.91682 
45 1 6.67395 9.58103 2.78424 
28 1 5.64536 7.71213 13.4859 
29 1 4.63832 8.71587 13.4825 
30 1 3.76905 9.57741 13.4747 
34 1 0.902268 12.4542 13.4599 
35 1 1.90331 11.4441 13.4666 
36 1 2.76738 10.5774 13.4691 
52 1 5.64237 13.469 7.69984 
53 1 4.64939 13.4659 8.68021 
54 1 3.78245 13.47 9.54818 
58 1 0.915242 13.4761 12.4296 
59 1 1.91991 13.4796 11.4202 
60 1 2.78884 13.4717 10.558 
13 1 7.70104 6.68668 0.915924 
14 1 8.70772 6.68324 1.91988 
15 1 9.57732 6.67423 2.78109 
19 1 12.4517 6.67296 5.65124 
20 1 11.4475 6.67449 4.64385 
21 1 10.5804 6.67003 3.78021 
61 1 12.4461 5.64573 6.6769 
62 1 11.4447 4.63454 6.6843 
63 1 10.578 3.76926 6.67999 
67 1 7.6544 0.99648 6.52391 
68 1 8.67255 1.94402 6.55577 
69 1 9.56072 2.78966 6.61958 
4 1 13.4748 5.64844 7.70048 
5 1 13.4756 4.64233 8.70714 
6 1 13.4713 3.77474 9.57019 
10 1 13.4835 0.89582 12.4374 
11 1 13.475 1.9056 11.4348 
12 1 13.4717 2.77174 10.5703 
64 1 7.71123 5.65641 13.4934 
65 1 8.71219 4.64225 13.4823 
66 1 9.57301 3.77273 13.4742 
70 1 12.4528 0.904185 13.4597 
71 1 11.4425 1.90652 13.4653 
72 1 10.5742 2.76895 13.469 
73 2 7.68234 0.288014 8.41265 
16 1 7.65024 13.5194 5.57747 
17 1 8.68231 13.4678 4.58197 
18 1 9.57507 13.456 3.74684 
22 1 12.4612 13.4764 0.884272 
23 1 11.457 13.4729 1.89309 
24 1 10.5966 13.4647 2.76279 
40 1 13.474 7.70322 5.64452 
41 1 13.4741 8.71025 4.63793 
42 1 13.4719 9.57453 3.77168 
46 1 13.4812 12.4441 0.891802 
47 1 13.4734 11.4403 1.9014 
48 1 13.4728 10.5757 2.76741 
ITEM: TIMESTEP
80
ITEM: NUMBER OF ATOMS
73
ITEM: BOX BOUNDS pp pp pp
0.0000000000000000e+00 1.3600000000000000e+01
0.0000000000000000e+00 1.3600000000000000e+01
0.0000000000000000e+00 1.3600000000000000e+01
ITEM: ATOMS id type x y z 
1 1 6.87293 0.762068 7.8187 
2 1 6.59492 1.97588 8.67337 
3 1 6.55145 2.85426 9.51107 
7 1 6.67894 5.6721 12.4763 
8 1 6.67811 4.66409 11.4657 
9 1 6.63068 3.82746 10.5791 
49 1 5.64415 6.68723 12.4577 
50 1 4.63967 6.67898 11.4456 
51 1 3.77704 6.67343 10.5781 
55 1 0.902093 6.67377 7.70038 
56 1 1.91018 6.67403 8.70693 
57 1 2.77478 6.67181 9.57268 
25 1 0.898057 7.69775 6.673 
26 1 1.90722 8.70371 6.67357 
27 1 2.77134 9.56936 6.66984 
31 1 5.63954 12.4745 6.68518 
32 1 4.63243 11.4465 6.67038 
33 1 3.77412 10.5767 6.66505 
37 1 6.66567 12.4553 5.64876 
38 1 6.66254 11.4432 4.65982 
39 1 6.67043 10.5743 3.79672 
43 1 6.67367 7.71323 0.911967 
44 1 6.67153 8.71835 1.9189 
45 1 6.67413 9.58077 2.78748 
28 1 5.64719 7.71085 13.4858 
29 1 4.63914 8.71588 13.4829 
30 1 3.76987 9.57717 13.475 
34 1 0.90231 12.457 13.4571 
35 1 1.90379 11.4457 13.4654 
36 1 2.76671 10.578 13.4692 
52 1 5.65029 13.4702 7.70239 
53 1 4.66036 13.474 8.68483 
54 1 3.78547 13.4701 9.54492 
58 1 0.918109 13.4776 12.4256 
59 1 1.92562 13.4733 11.4187 
60 1 2.78834 13.4757 10.5499 
13 1 7.70112 6.68786 0.91591 
14 1 8.70813 6.68426 1.92126 
15 1 9.5775 6.67459 2.78252 
19 1 12.4526 6.6717 5.6538 
20 1 11.4478 6.67254 4.64665 
21 1 10.5823 6.67122 3.78137 
61 1 12.443 5.64231 6.67786 
62 1 11.4434 4.62942 6.68556 
63 1 10.5733 3.76764 6.67176 
67 1 7.65115 0.995658 6.5346 
68 1 8.66478 1.94693 6.5591 
69 1 9.55205 2.79371 6.6118 
4 1 13.4739 5.64977 7.69914 
5 1 13.475 4.64301 8.70577 
6 1 13.4722 3.77583 9.56913 
10 1 13.4846 0.895524 12.437 
11 1 13.4767 1.90536 11.4335 
12 1 13.4716 2.77242 10.5701 
64 1 7.71028 5.65785 13.4939 
65 1 8.71164 4.64239 13.4815 
66 1 9.57343 3.77404 13.4763 
70 1 12.4549 0.90252 13.4594 
71 1 11.4438 1.906 13.4652 
72 1 10.5757 2.76829 13.468 
73 2 7.67161 0.240383 8.44188 
16 1 7.64562 13.5294 5.57597 
17 1 8.67668 13.4748 4.57933 
18 1 9.56778 13.4572 3.74263 
22 1 12.462 13.4766 0.885292 
23 1 11.457 13.4698 1.89517 
24 1 10.5945 13.4629 2.76274 
40 1 13.4739 7.70199 5.64606 
41 1 13.474 8.7096 4.63805 
42 1 13.4721 9.5736 3.77175 
46 1 13.4822 12.4457 0.888978 
47 1 13.4744 11.4414 1.90074 
48 1 13.4735 10.5766 2.76627 
ITEM: TIMESTEP
90
ITEM: NUMBER OF ATOMS
73
ITEM: BOX BOUNDS pp pp pp
0.0000000000000000e+00 1.3600000000000000e+01
0.0000000000000000e+00 1.3600000000000000e+01
0.0000000000000000e+00 1.3600000000000000e+01
ITEM: ATOMS id type x y z 
1 1 6.89359 0.742736 7.83983 
2 1 6.60613 1.97108 8.67308 
3 1 6.54783 2.86432 9.49414 
7 1 6.67822 5.66876 12.4751 
8 1 6.66995 4.66443 11.4601 
9 1 6.61837 3.83527 10.5672 
49 1 5.64581 6.68597 12.4585 
50 1 4.64077 6.67877 11.4465 
51 1 3.77787 6.67422 10.5792 
55 1 0.903395 6.67516 7.70017 
56 1 1.91086 6.67467 8.70774 
57 1 2.77543 6.67171 9.57352 
25 1 0.8986 7.69831 6.67246 
26 1 1.90806 8.70484 6.67277 
27 1 2.7721 9.57056 6.66894 
31 1 5.63862 12.4796 6.68325 
32 1 4.63111 11.4506 6.67003 
33 1 3.77339 10.5803 6.66513 
37 1 6.66282 12.4631 5.64464 
38 1 6.66232 11.4475 4.65792 
39 1 6.6707 10.5746 3.79896 
43 1 6.67469 7.71265 0.912042 
44 1 6.67197 8.7174 1.92069 
45 1 6.67395 9.5789 2.79005 
28 1 5.64861 7.71055 13.4859 
29 1 4.63998 8.71529 13.4829 
30 1 3.7708 9.57673 13.4759 
34 1 0.902718 12.4561 13.4578 
35 1 1.90745 11.4478 13.4603 
36 1 2.76673 10.5766 13.4708 
52 1 5.65752 13.4714 7.70487 
53 1 4.66545 13.4771 8.68546 
54 1 3.78966 13.477 9.54477 
58 1 0.919226 13.4759 12.4249 
59 1 1.92474 13.4754 11.4145 
60 1 2.78903 13.4729 10.5476 
13 1 7.70104 6.68673 0.914598 
14 1 8.70797 6.68509 1.92105 
15 1 9.57713 6.6763 2.78238 
19 1 12.4533 6.67143 5.65548 
20 1 11.4477 6.67222 4.64742 
21 1 10.5821 6.67061 3.78245 
61 1 12.4445 5.64197 6.67812 
62 1 11.4414 4.6295 6.68336 
63 1 10.5682 3.77154 6.66343 
67 1 7.64819 0.991039 6.54766 
68 1 8.65946 1.94646 6.56294 
69 1 9.5454 2.79488 6.60492 
4 1 13.4748 5.65134 7.69887 
5 1 13.4753 4.64376 8.70572 
6 1 13.4723 3.77651 9.56888 
10 1 13.489 0.894548 12.4369 
11 1 13.4711 1.90618 11.4342 
12 1 13.4761 2.77145 10.569 
64 1 7.70912 5.65635 13.4931 
65 1 8.71408 4.64438 13.4851 
66 1 9.57417 3.77444 13.4744 
70 1 12.4564 0.902052 13.4576 
71 1 11.441 1.90247 13.4727 
72 1 10.5781 2.77003 13.4646 
73 2 7.66442 0.196347 8.47307 
16 1 7.64026 13.5389 5.57518 
17 1 8.67103 13.483 4.57584 
18 1 9.56023 13.4606 3.73753 
22 1 12.4628 13.478 0.883978 
23 1 11.4579 13.4676 1.89641 
24 1 10.5917 13.4616 2.76018 
40 1 13.4741 7.70232 5.64582 
41 1 13.4746 8.70975 4.6377 
42 1 13.4717 9.5735 3.77106 
46 1 13.4824 12.4464 0.889309 
47 1 13.4783 11.4401 1.89898 
48 1 13.4731 10.5772 2.7664 
ITEM: TIMESTEP
100
ITEM: NUMBER OF ATOMS
73
ITEM: BOX BOUNDS pp pp pp
0.0000000000000000e+00 1.3600000000000000e+01
0.0000000000000000e+00 1.3600000000000000e+01
0.0000000000000000e+00 1.3600000000000000e+01
ITEM: ATOMS id type x y z 
1 1 6.9248 0.705529 7.87949 
2 1 6.6404 1.95903 8.67394 
3 1 6.53986 2.87135 9.46995 
7 1 6.67453 5.65727 12.4757 
8 1 6.65637 4.67189 11.4384 
9 1 6.59577 3.8551 10.5355 
49 1 5.65028 6.682 12.4612 
50 1 4.64211 6.67874 11.4486 
51 1 3.77934 6.67469 10.5815 
55 1 0.902102 6.67508 7.6993 
56 1 1.9111 6.67572 8.70765 
57 1 2.77523 6.6734 9.57339 
25 1 0.900537 7.69857 6.67202 
26 1 1.91071 8.70925 6.67065 
27 1 2.77428 9.57542 6.66742 
31 1 5.63494 12.4885 6.67648 
32 1 4.62907 11.4607 6.66824 
33 1 3.77161 10.5896 6.66414 
37 1 6.65743 12.4803 5.63487 
38 1 6.65975 11.4576 4.6524 
39 1 6.67209 10.5764 3.80192 
43 1 6.67753 7.71216 0.914601 
44 1 6.6723 8.71636 1.92576 
45 1 6.67416 9.5755 2.79752 
28 1 5.65385 7.70814 13.486 
29 1 4.64254 8.71248 13.4842 
30 1 3.77287 9.57304 13.4793 
34 1 0.905665 12.463 13.4466 
35 1 1.9062 11.4458 13.4662 
36 1 2.77182 10.5806 13.464 
52 1 5.66855 13.4691 7.71377 
53 1 4.67666 13.4821 8.69172 
54 1 3.79407 13.4836 9.54484 
58 1 0.91473 13.4812 12.417 
59 1 1.92736 13.4727 11.4132 
60 1 2.78814 13.4809 10.5427 
13 1 7.70195 6.68499 0.912314 
14 1 8.70815 6.68502 1.92074 
15 1 9.57609 6.678 2.78337 
19 1 12.4544 6.67073 5.65796 
20 1 11.4474 6.66792 4.64939 
21 1 10.5821 6.67365 3.78418 
61 1 12.4415 5.63776 6.67904 
62 1 11.4351 4.63056 6.67484 
63 1 10.5567 3.77752 6.64591 
67 1 7.66334 0.972351 6.58082 
68 1 8.657 1.94593 6.57452 
69 1 9.53233 2.80647 6.59224 
4 1 13.4737 5.6533 7.69764 
5 1 13.477 4.64308 8.70453 
6 1 13.476 3.77481 9.56669 
10 1 13.4748 0.896277 12.4406 
11 1 13.4944 1.90014 11.4282 
12 1 13.4653 2.77642 10.5752 
64 1 7.70518 5.65396 13.4916 
65 1 8.71628 4.64468 13.4852 
66 1 9.57785 3.77634 13.4719 
70 1 12.4546 0.898357 13.4669 
71 1 11.4566 1.91425 13.4478 
72 1 10.5754 2.76194 13.4803 
73 2 7.64829 0.118892 8.52852 
16 1 7.63426 13.5557 5.57478 
17 1 8.65799 13.5008 4.56943 
18 1 9.54508 13.4771 3.72873 
22 1 12.4644 13.4694 0.893777 
23 1 11.4488 13.4632 1.89499 
24 1 10.5816 13.457 2.7578 
40 1 13.4766 7.69902 5.64782 
41 1 13.4683 8.70917 4.6384 
42 1 13.4745 9.57315 3.77286 
46 1 13.4903 12.4477 0.886593 
47 1 13.4832 11.4397 1.89562 
48 1 13.4738 10.5768 2.76277 
ITEM: TIMESTEP
110
ITEM: NUMBER OF ATOMS
73
ITEM: BOX BOUNDS pp pp pp
0.0000000000000000e+00 1.3600000000000000e+01
0.0000000000000000e+00 1.3600000000000000e+01
0.0000000000000000e+00 1.3600000000000000e+01
ITEM: ATOMS id type x y z 
1 1 6.92644 0.703364 7.8818 
2 1 6.63846 1.95501 8.67899 
3 1 6.54664 2.87572 9.46684 
7 1 6.67555 5.65913 12.4733 
8 1 6.65385 4.67164 11.4386 
9 1 6.59193 3.85656 10.5338 
49 1 5.65125 6.68283 12.46 
50 1 4.63825 6.67653 11.4525 
51 1 3.78151 6.67619 10.5796 
55 1 0.903047 6.6761 7.69911 
56 1 1.91129 6.67583 8.70815 
57 1 2.77564 6.67339 9.57375 
25 1 0.901393 7.69912 6.6722 
26 1 1.90963 8.70822 6.67082 
27 1 2.77276 9.57472 6.6671 
31 1 5.63555 12.4902 6.67662 
32 1 4.62761 11.4612 6.66733 
33 1 3.77104 10.5899 6.66398 
37 1 6.65417 12.4793 5.63417 
38 1 6.65993 11.4581 4.65149 
39 1 6.6715 10.5767 3.8018 
43 1 6.67703 7.71096 0.91347 
44 1 6.67279 8.7157 1.92584 
45 1 6.67436 9.57493 2.79706 
28 1 5.65346 7.70794 13.4867 
29 1 4.64242 8.7128 13.4838 
30 1 3.7731 9.57406 13.4784 
34 1 0.905464 12.4588 13.4525 
35 1 1.90764 11.4461 13.4622 
36 1 2.77169 10.5798 13.4666 
52 1 5.66948 13.4682 7.71434 
53 1 4.67596 13.482 8.69199 
54 1 3.79443 13.4844 9.5457 
58 1 0.915126 13.4792 12.4184 
59 1 1.92556 13.4749 11.4117 
60 1 2.78871 13.4806 10.5435 
13 1 7.70139 6.68395 0.911577 
14 1 8.7081 6.68469 1.92011 
15 1 9.57596 6.67842 2.78252 
19 1 12.4548 6.67121 5.65758 
20 1 11.4472 6.66847 4.64937 
21 1 10.5817 6.67342 3.78452 
61 1 12.4439 5.64019 6.67838 
62 1 11.4356 4.63217 6.67425 
63 1 10.5566 3.78034 6.64441 
67 1 7.66395 0.970764 6.58497 
68 1 8.6576 1.94382 6.57755 
69 1 9.5307 2.80639 6.59125 
4 1 13.4754 5.65225 7.69842 
5 1 13.4762 4.6439 8.70453 
6 1 13.4747 3.77668 9.56751 
10 1 13.483 0.894881 12.4391 
11 1 13.4852 1.90002 11.4283 
12 1 13.4716 2.77557 10.5737 
64 1 7.70616 5.65316 13.4907 
65 1 8.71433 4.64388 13.4847 
66 1 9.57666 3.77612 13.4751 
70 1 12.456 0.897799 13.4658 
71 1 11.4522 1.91072 13.4555 
72 1 10.5778 2.76665 13.4741 
73 2 7.64854 0.114818 8.53146 
16 1 7.63328 13.5552 5.57591 
17 1 8.65755 13.5024 4.56929 
18 1 9.54404 13.4778 3.72789 
22 1 12.4636 13.4733 0.889188 
23 1 11.4516 13.4621 1.89497 
24 1 10.5808 13.4586 2.75426 
40 1 13.4756 7.70139 5.64721 
41 1 13.4707 8.70763 4.63668 
42 1 13.4729 9.57349 3.77298 
46 1 13.4901 12.4472 0.886262 
47 1 13.4842 11.4387 1.89603 
48 1 13.4747 10.5767 2.76362 
ITEM: TIMESTEP
120
ITEM: NUMBER OF ATOMS
73
ITEM: BOX BOUNDS pp pp pp
0.0000000000000000e+00 1.3600000000000000e+01
0.0000000000000000e+00 1.3600000000000000e+01
0.0000000000000000e+00 1.3600000000000000e+01
ITEM: ATOMS id type x y z 
1 1 6.92678 0.70189 7.88326 
2 1 6.64026 1.9548 8.68009 
3 1 6.54703 2.875 9.46624 
7 1 6.6757 5.65923 12.473 
8 1 6.65328 4.67246 11.4377 
9 1 6.59105 3.85766 10.5324 
49 1 5.64953 6.6812 12.4614 
50 1 4.64056 6.68099 11.4502 
51 1 3.78004 6.67397 10.5809 
55 1 0.903235 6.67625 7.69937 
56 1 1.91176 6.67586 8.70794 
57 1 2.77577 6.67341 9.57399 
25 1 0.901175 7.69902 6.67207 
26 1 1.90981 8.70847 6.67087 
27 1 2.77269 9.57509 6.66698 
31 1 5.63523 12.4902 6.6762 
32 1 4.62737 11.4616 6.66713 
33 1 3.77073 10.5903 6.66371 
37 1 6.65331 12.4805 5.63367 
38 1 6.66035 11.4577 4.65201 
39 1 6.67103 10.5772 3.80119 
43 1 6.6772 7.71085 0.913844 
44 1 6.67299 8.71518 1.92572 
45 1 6.67444 9.5746 2.79683 
28 1 5.65323 7.70777 13.4868 
29 1 4.64263 8.7127 13.4837 
30 1 3.7736 9.57398 13.4782 
34 1 0.905411 12.4586 13.4522 
35 1 1.90851 11.4466 13.4619 
36 1 2.77155 10.5793 13.4668 
52 1 5.66964 13.4675 7.71472 
53 1 4.67585 13.482 8.69201 
54 1 3.79479 13.4847 9.54599 
58 1 0.915895 13.4772 12.4195 
59 1 1.92526 13.4757 11.4117 
60 1 2.78853 13.4807 10.5437 
13 1 7.70127 6.6837 0.911437 
14 1 8.70812 6.68452 1.91987 
15 1 9.57593 6.67855 2.78239 
19 1 12.4551 6.67075 5.65686 
20 1 11.4459 6.66927 4.65043 
21 1 10.5821 6.67305 3.78395 