LAMMPS (3 Mar 2020)
# Alpha
clear
units		real
dimension 3
boundary        p p p
atom_style	charge
newton on
read_data       O_2.lmp
  triclinic box = (0 0 0) to (15.77 13.6581 25.747) with tilt (7.8845 0 0)
  2 by 2 by 2 MPI processor grid
  reading atoms ...
  129 atoms
  read_data CPU = 0.0218238 secs

timestep 0.25

# ---------- Define Interatomic Potential ---------------------
pair_style      reax/c NULL checkqeq no
pair_coeff      * * ffield.reax C O
fix             2 all qeq/reax 1 0.0 10.0 1.0e-6 reax/c

#------------ Equilibration of the system -------------------------
reset_timestep 0

dump 1 all custom 10 min.lammpstrj id type x y z

minimize 1.0e-8 1.0e-8 100000 100000
WARNING: Using 'neigh_modify every 1 delay 0 check yes' setting during minimization (../min.cpp:190)
WARNING: Total cutoff < 2*bond cutoff. May need to use an increased neighbor list skin. (../pair_reaxc.cpp:413)
Neighbor list info ...
  update every 1 steps, delay 0 steps, check yes
  max neighbors/atom: 2000, page size: 100000
  master list distance cutoff = 9.5
  ghost atom cutoff = 9.5
  binsize = 4.75, bins = 5 3 6
  2 neighbor lists, perpetual/occasional/extra = 2 0 0
  (1) pair reax/c, perpetual
      attributes: half, newton off, ghost
      pair build: half/bin/newtoff/ghost
      stencil: half/ghost/bin/3d/newtoff
      bin: standard
  (2) fix qeq/reax, perpetual, copy from (1)
      attributes: half, newton off, ghost
      pair build: copy
      stencil: none
      bin: none
Per MPI rank memory allocation (min/avg/max) = 16.27 | 16.85 | 17.48 Mbytes
Step Temp E_pair E_mol TotEng Press 
       0            0   -19253.852            0   -19253.852    67117.345 
     107            0    -21876.47            0    -21876.47    19219.272 
Loop time of 2.356 on 8 procs for 107 steps with 129 atoms

99.4% CPU use with 8 MPI tasks x no OpenMP threads

Minimization stats:
  Stopping criterion = energy tolerance
  Energy initial, next-to-last, final = 
        -19253.8518131     -21876.4699757     -21876.4700137
  Force two-norm initial, final = 5415.43 252.885
  Force max component initial, final = 1201.25 74.6511
  Final line search alpha, max atom move = 9.26839e-06 0.000691895
  Iterations, force evaluations = 107 618

MPI task timing breakdown:
Section |  min time  |  avg time  |  max time  |%varavg| %total
---------------------------------------------------------------
Pair    | 1.4782     | 1.6894     | 1.8271     |   9.8 | 71.71
Neigh   | 0          | 0          | 0          |   0.0 |  0.00
Comm    | 0.010437   | 0.14825    | 0.35992    |  33.2 |  6.29
Output  | 0.00039444 | 0.00045843 | 0.00062232 |   0.0 |  0.02
Modify  | 0.51343    | 0.5136     | 0.51373    |   0.0 | 21.80
Other   |            | 0.004267   |            |       |  0.18

Nlocal:    16.125 ave 37 max 2 min
Histogram: 2 1 1 1 1 0 0 0 0 2
Nghost:    467.5 ave 512 max 418 min
Histogram: 2 1 1 0 0 0 0 0 0 4
Neighs:    1157.38 ave 2440 max 173 min
Histogram: 2 0 2 0 1 1 0 0 0 2

Total # of neighbors = 9259
Ave neighs/atom = 71.7752
Neighbor list builds = 0
Dangerous builds = 0

###
min_style cg
minimize 1.0e-8 1.0e-8 100000 100000
WARNING: Using 'neigh_modify every 1 delay 0 check yes' setting during minimization (../min.cpp:190)
WARNING: Total cutoff < 2*bond cutoff. May need to use an increased neighbor list skin. (../pair_reaxc.cpp:413)
Per MPI rank memory allocation (min/avg/max) = 16.27 | 16.85 | 17.48 Mbytes
Step Temp E_pair E_mol TotEng Press 
     107            0    -21876.47            0    -21876.47    19219.272 
     255            0   -21938.786            0   -21938.786    7264.4849 
Loop time of 4.04843 on 8 procs for 148 steps with 129 atoms

99.4% CPU use with 8 MPI tasks x no OpenMP threads

Minimization stats:
  Stopping criterion = energy tolerance
  Energy initial, next-to-last, final = 
        -21876.4700137     -21938.7863874     -21938.7864052
  Force two-norm initial, final = 252.885 40.8656
  Force max component initial, final = 74.6511 16.3628
  Final line search alpha, max atom move = 0.000307224 0.00502704
  Iterations, force evaluations = 148 1053

MPI task timing breakdown:
Section |  min time  |  avg time  |  max time  |%varavg| %total
---------------------------------------------------------------
Pair    | 2.5898     | 2.9265     | 3.1538     |  11.4 | 72.29
Neigh   | 0          | 0          | 0          |   0.0 |  0.00
Comm    | 0.018154   | 0.24551    | 0.58302    |  39.4 |  6.06
Output  | 0.00060547 | 0.00073805 | 0.0010168  |   0.0 |  0.02
Modify  | 0.86834    | 0.86844    | 0.86865    |   0.0 | 21.45
Other   |            | 0.007204   |            |       |  0.18

Nlocal:    16.125 ave 40 max 0 min
Histogram: 1 2 1 0 2 0 0 0 0 2
Nghost:    467.5 ave 514 max 414 min
Histogram: 2 1 1 0 0 0 0 0 0 4
Neighs:    1131.5 ave 2587 max 0 min
Histogram: 1 2 1 0 0 2 0 0 0 2

Total # of neighbors = 9052
Ave neighs/atom = 70.1705
Neighbor list builds = 0
Dangerous builds = 0

###
fix 1 all box/relax aniso 0.0
min_style cg
minimize 1.0e-8 1.0e-8 100000 100000
WARNING: Using 'neigh_modify every 1 delay 0 check yes' setting during minimization (../min.cpp:190)
WARNING: Total cutoff < 2*bond cutoff. May need to use an increased neighbor list skin. (../pair_reaxc.cpp:413)
Per MPI rank memory allocation (min/avg/max) = 16.27 | 16.85 | 17.48 Mbytes
Step Temp E_pair E_mol TotEng Press Volume 
     255            0   -21938.786            0   -21938.786    7264.4849    5545.5955 
     373            0   -21943.466            0   -21943.466   -1537.5309     5555.925 
Loop time of 0.727593 on 8 procs for 118 steps with 129 atoms

99.4% CPU use with 8 MPI tasks x no OpenMP threads

Minimization stats:
  Stopping criterion = energy tolerance
  Energy initial, next-to-last, final = 
        -21938.7864052      -21943.465699      -21943.465699
  Force two-norm initial, final = 1286.92 259.956
  Force max component initial, final = 943.686 153.364
  Final line search alpha, max atom move = 3.42107e-13 5.2467e-11
  Iterations, force evaluations = 118 208

MPI task timing breakdown:
Section |  min time  |  avg time  |  max time  |%varavg| %total
---------------------------------------------------------------
Pair    | 0.51781    | 0.58295    | 0.62856    |   5.0 | 80.12
Neigh   | 0          | 0          | 0          |   0.0 |  0.00
Comm    | 0.0032006  | 0.048758   | 0.11401    |  17.4 |  6.70
Output  | 0.00043847 | 0.00050036 | 0.00065638 |   0.0 |  0.07
Modify  | 0.091549   | 0.091617   | 0.091673   |   0.0 | 12.59
Other   |            | 0.003766   |            |       |  0.52

Nlocal:    16.125 ave 39 max 0 min
Histogram: 1 2 1 0 2 0 0 0 0 2
Nghost:    470.875 ave 518 max 419 min
Histogram: 2 1 1 0 0 0 0 0 0 4
Neighs:    1125.38 ave 2526 max 0 min
Histogram: 1 2 1 0 0 2 0 0 0 2

Total # of neighbors = 9003
Ave neighs/atom = 69.7907
Neighbor list builds = 0
Dangerous builds = 0

unfix 1
###
min_style cg
minimize 1.0e-8 1.0e-8 100000 100000
WARNING: Using 'neigh_modify every 1 delay 0 check yes' setting during minimization (../min.cpp:190)
WARNING: Total cutoff < 2*bond cutoff. May need to use an increased neighbor list skin. (../pair_reaxc.cpp:413)
Per MPI rank memory allocation (min/avg/max) = 16.27 | 16.85 | 17.48 Mbytes
Step Temp E_pair E_mol TotEng Press 
     373            0   -21943.466            0   -21943.466   -1537.5309 
     383            0    -21944.17            0    -21944.17    8875.2209 
Loop time of 0.315527 on 8 procs for 10 steps with 129 atoms

99.4% CPU use with 8 MPI tasks x no OpenMP threads

Minimization stats:
  Stopping criterion = energy tolerance
  Energy initial, next-to-last, final = 
         -21943.465699     -21944.1693209     -21944.1695023
  Force two-norm initial, final = 138.36 96.658
  Force max component initial, final = 28.2118 16.8935
  Final line search alpha, max atom move = 0.000184865 0.00312301
  Iterations, force evaluations = 10 80

MPI task timing breakdown:
Section |  min time  |  avg time  |  max time  |%varavg| %total
---------------------------------------------------------------
Pair    | 0.21072    | 0.23215    | 0.24695    |   2.6 | 73.58
Neigh   | 0          | 0          | 0          |   0.0 |  0.00
Comm    | 0.0012936  | 0.016086   | 0.037568   |   9.9 |  5.10
Output  | 3.9053e-05 | 4.5571e-05 | 6.3769e-05 |   0.0 |  0.01
Modify  | 0.066594   | 0.066614   | 0.066621   |   0.0 | 21.11
Other   |            | 0.000626   |            |       |  0.20

Nlocal:    16.125 ave 39 max 0 min
Histogram: 1 2 1 0 2 0 0 0 0 2
Nghost:    474.875 ave 514 max 430 min
Histogram: 2 1 1 0 0 0 0 0 0 4
Neighs:    1122.38 ave 2519 max 0 min
Histogram: 1 2 1 0 0 2 0 0 0 2

Total # of neighbors = 8979
Ave neighs/atom = 69.6047
Neighbor list builds = 0
Dangerous builds = 0

###
fix 1 all box/relax aniso 0.0
min_style cg
minimize 1.0e-8 1.0e-8 100000 100000
WARNING: Using 'neigh_modify every 1 delay 0 check yes' setting during minimization (../min.cpp:190)
WARNING: Total cutoff < 2*bond cutoff. May need to use an increased neighbor list skin. (../pair_reaxc.cpp:413)
Per MPI rank memory allocation (min/avg/max) = 16.27 | 16.85 | 17.48 Mbytes
Step Temp E_pair E_mol TotEng Press Volume 
     383            0    -21944.17            0    -21944.17    8875.2209     5555.925 
     389            0   -21944.337            0   -21944.337    276.10211    5557.4258 
Loop time of 0.123354 on 8 procs for 6 steps with 129 atoms

99.4% CPU use with 8 MPI tasks x no OpenMP threads

Minimization stats:
  Stopping criterion = linesearch alpha is zero
  Energy initial, next-to-last, final = 
        -21944.1695023     -21944.3374757     -21944.3374757
  Force two-norm initial, final = 1319.05 336.771
  Force max component initial, final = 928.363 233.659
  Final line search alpha, max atom move = 1.02037e-13 2.38419e-11
  Iterations, force evaluations = 6 35

MPI task timing breakdown:
Section |  min time  |  avg time  |  max time  |%varavg| %total
---------------------------------------------------------------
Pair    | 0.092042   | 0.10118    | 0.10729    |   1.7 | 82.03
Neigh   | 0          | 0          | 0          |   0.0 |  0.00
Comm    | 0.00055134 | 0.0066564  | 0.015812   |   6.6 |  5.40
Output  | 0          | 0          | 0          |   0.0 |  0.00
Modify  | 0.014884   | 0.014888   | 0.014892   |   0.0 | 12.07
Other   |            | 0.0006255  |            |       |  0.51

Nlocal:    16.125 ave 39 max 0 min
Histogram: 1 2 1 0 2 0 0 0 0 2
Nghost:    474.875 ave 514 max 430 min
Histogram: 2 1 1 0 0 0 0 0 0 4
Neighs:    1122.38 ave 2519 max 0 min
Histogram: 1 2 1 0 0 2 0 0 0 2

Total # of neighbors = 8979
Ave neighs/atom = 69.6047
Neighbor list builds = 0
Dangerous builds = 0

unfix 1
###
min_style cg
minimize 1.0e-8 1.0e-8 100000 100000
WARNING: Using 'neigh_modify every 1 delay 0 check yes' setting during minimization (../min.cpp:190)
WARNING: Total cutoff < 2*bond cutoff. May need to use an increased neighbor list skin. (../pair_reaxc.cpp:413)
Per MPI rank memory allocation (min/avg/max) = 16.27 | 16.85 | 17.48 Mbytes
Step Temp E_pair E_mol TotEng Press 
     389            0   -21944.337            0   -21944.337    276.10211 
     517            0   -21961.377            0   -21961.377    7181.1516 
Loop time of 3.42038 on 8 procs for 128 steps with 129 atoms

99.4% CPU use with 8 MPI tasks x no OpenMP threads

Minimization stats:
  Stopping criterion = energy tolerance
  Energy initial, next-to-last, final = 
        -21944.3374757     -21961.3771371     -21961.3771488
  Force two-norm initial, final = 110.521 194.743
  Force max component initial, final = 20.6662 45.2046
  Final line search alpha, max atom move = 0.000350476 0.0158431
  Iterations, force evaluations = 128 894

MPI task timing breakdown:
Section |  min time  |  avg time  |  max time  |%varavg| %total
---------------------------------------------------------------
Pair    | 2.2928     | 2.5255     | 2.6813     |   8.5 | 73.84
Neigh   | 0          | 0          | 0          |   0.0 |  0.00
Comm    | 0.015624   | 0.17134    | 0.40453    |  32.9 |  5.01
Output  | 0.0004885  | 0.00056591 | 0.00076029 |   0.0 |  0.02
Modify  | 0.71656    | 0.71675    | 0.71683    |   0.0 | 20.96
Other   |            | 0.006182   |            |       |  0.18

Nlocal:    16.125 ave 39 max 0 min
Histogram: 1 2 1 0 2 0 0 0 0 2
Nghost:    474.875 ave 514 max 430 min
Histogram: 2 1 1 0 0 0 0 0 0 4
Neighs:    1121.88 ave 2519 max 0 min
Histogram: 1 2 1 0 0 2 0 0 0 2

Total # of neighbors = 8975
Ave neighs/atom = 69.5736
Neighbor list builds = 0
Dangerous builds = 0

undump 1
#############
#----------- Thermo ------------
reset_timestep 0
thermo  200

thermo_style    custom step temp etotal ke pe press
velocity all create 300 12345 mom yes rot yes
fix 1 all npt temp 300 300 25.0 iso 0.0 0.0 250.0

variable vpe equal pe
variable vtemp equal temp
variable vstep equal step

fix output all print 2500 "${vstep} ${vtemp} ${vpe}" file temp-tpdh-Pt.dat screen no

dump 1 all custom 2500 thermo-tpdh-Pt.lammpstrj id type x y z

run 1000000
WARNING: Total cutoff < 2*bond cutoff. May need to use an increased neighbor list skin. (../pair_reaxc.cpp:413)
Per MPI rank memory allocation (min/avg/max) = 15.16 | 15.62 | 16.37 Mbytes
Step Temp TotEng KinEng PotEng Press 
       0          300   -21846.914    114.46311   -21961.377    8122.6611 
     200    240.58272   -21807.548    91.792816   -21899.341   -11401.939 
     400    330.33528   -21753.744    126.03734   -21879.781   -15831.563 
     600    311.68106   -21765.696    118.91994   -21884.616    10521.261 
     800    254.06569   -21778.047     96.93716   -21874.984   -12746.439 
    1000    304.74154    -21748.16    116.27221   -21864.432   -10312.634 
    1200    340.14309    -21751.69    129.77945    -21881.47   -13892.487 
    1400    303.13878   -21779.016    115.66069   -21894.677   -5750.9041 
    1600    265.27995   -21779.115    101.21589   -21880.331    458.72578 
    1800    325.01936   -21750.013    124.00909   -21874.022    3029.4475 
    2000    294.42391   -21766.921    112.33558   -21879.257     2840.693 
    2200    269.58426   -21784.039    102.85817   -21886.897   -24050.827 
    2400    325.89785   -21761.142    124.34427   -21885.486   -665.68645 
    2600    348.59612   -21750.684    133.00465   -21883.689     7951.779 
    2800     280.2717   -21775.543     106.9359   -21882.479   -11636.989 
    3000    277.37652   -21753.944    105.83126   -21859.775    8064.0835 
    3200    344.66467   -21755.529    131.50463   -21887.034    7578.3771 
    3400    288.66617   -21777.998    110.13876   -21888.137    -14539.39 
    3600    296.42364   -21789.388    113.09857   -21902.486    -7240.073 
    3800    318.72145   -21762.095    121.60616   -21883.701    11726.123 
    4000    308.49558    -21762.55    117.70454   -21880.254    13395.191 
    4200    284.68547   -21786.473    108.61994   -21895.093   -15655.099 
    4400    319.15441   -21770.775    121.77135   -21892.546   -8860.7654 
    4600    311.89951   -21764.545    119.00329   -21883.548   -9712.4026 
    4800    281.51516   -21792.255    107.41033   -21899.665   -13350.887 
    5000    323.87104   -21773.947    123.57095   -21897.518   -9727.8993 
    5200    281.79515   -21778.922    107.51716   -21886.439   -3725.9446 
    5400    275.27511   -21791.023    105.02948   -21896.052   -3245.5004 
    5600    306.06188   -21798.192    116.77598   -21914.968    3491.7964 
    5800    302.88301   -21806.387     115.5631    -21921.95   -7331.3496 
    6000    312.86831   -21790.564    119.37293   -21909.937   -742.26723 
    6200    299.35561   -21825.907    114.21724   -21940.124   -12566.416 
    6400     284.9646   -21810.518    108.72644   -21919.244    14639.425 
    6600    309.32542   -21814.174    118.02116   -21932.195    2780.0139 
    6800    283.67737   -21821.758    108.23531   -21929.993    4143.5557 
    7000    341.20281   -21798.668    130.18378   -21928.852   -10547.919 
    7200    315.76804   -21818.384     120.4793   -21938.863    -9492.255 
    7400     271.1717   -21837.762    103.46385   -21941.226    2193.3002 
    7600    294.07974   -21824.802    112.20427   -21937.006    8209.8593 
    7800    335.03171   -21803.824    127.82923   -21931.653    859.78418 
    8000     289.0063   -21832.294    110.26853   -21942.563    4367.4758 
    8200    320.90661   -21813.547    122.43989   -21935.987    10487.482 
    8400    293.89581   -21829.567    112.13409   -21941.701   -31495.925 
    8600    287.04825   -21843.424    109.52145   -21952.946   -5245.7847 
    8800    314.84366    -21818.78    120.12661   -21938.907    13888.035 
    9000     311.5309   -21828.168    118.86265    -21947.03    6461.7145 
    9200     281.9171   -21826.565    107.56369   -21934.129   -6283.0468 
    9400    302.82153   -21824.018    115.53964   -21939.558   -6532.5503 
    9600    247.39526   -21844.017    94.392099   -21938.409    6859.9737 
    9800    342.58081   -21822.447    130.70955   -21953.157    17316.156 
   10000     287.5363   -21837.993    109.70766   -21947.701   -482.82911 
   10200    281.93298   -21843.192    107.56975   -21950.762   -27711.343 
   10400    318.91963   -21824.044    121.68177   -21945.726    -3693.968 
   10600    268.63966   -21832.268    102.49777   -21934.766   -32775.531 
   10800    318.54735   -21807.926    121.53973   -21929.466    -3234.697 
   11000    313.61049   -21820.704     119.6561   -21940.361    -28455.92 
   11200    279.41282   -21830.538     106.6082   -21937.147   -6245.4052 
   11400    310.06791   -21826.037    118.30446   -21944.342   -18008.408 
   11600    267.87656    -21836.03    102.20661   -21938.236    7137.6986 
   11800    312.65823   -21823.882    119.29277   -21943.175    13718.386 
   12000    309.36546    -21813.93    118.03644   -21931.966   -2709.3428 
   12200    307.08439   -21837.111    117.16611   -21954.277    7839.9691 
   12400    309.89293   -21819.156    118.23769   -21937.393    5136.7082 
   12600    294.88178   -21831.164    112.51028   -21943.674    9069.5612 
   12800    281.21264   -21841.893    107.29491   -21949.188    24530.407 
   13000    312.84678   -21819.378    119.36471   -21938.743   -9735.2155 
   13200    303.11961   -21820.611    115.65337   -21936.264    28480.087 
   13400    283.01511    -21831.56    107.98263   -21939.542    1825.4163 
   13600    334.66212    -21817.65    127.68822   -21945.339   -7444.1619 
   13800    278.92007   -21848.612    106.42019   -21955.033   -153.66353 
   14000    253.24249   -21837.972    96.623072   -21934.595    4153.1589 
   14200    299.95779   -21824.632      114.447   -21939.079   -1771.9584 
   14400    298.30412   -21827.293    113.81605   -21941.109    -11916.36 
   14600    296.95757   -21817.879    113.30229   -21931.181   -9586.8111 
   14800    298.06337   -21812.091     113.7242   -21925.815    12374.088 
   15000    290.62277   -21839.009    110.88528   -21949.895   -2296.5701 
   15200    300.06907   -21817.074    114.48946   -21931.563    29087.912 
   15400    306.58344   -21818.135    116.97498    -21935.11    26482.117 
   15600    372.43803   -21835.826    142.10138   -21977.928    3414.6055 
   15800    430.12249   -21939.024    164.11052   -22103.134   -4349.5676 
   16000    363.25746   -22027.391    138.59859   -22165.989    35652.614 
   16200    303.63006   -22074.287    115.84813   -22190.135   -684.38867 
   16400    305.08939   -22062.276    116.40493   -22178.681    338.70798 
   16600    326.33035   -22045.642    124.50928   -22170.152    8682.4378 
   16800    286.75192   -22071.672    109.40838   -22181.081   -973.05768 
   17000    312.33096   -22055.611     119.1679   -22174.779    19571.727 
   17200    303.01526   -22051.354    115.61356   -22166.968   -7410.2114 
   17400    266.42322   -22080.804     101.6521   -22182.456   -10552.947 
   17600    268.24465   -22090.661    102.34705   -22193.008    6468.2483 
   17800    269.85561   -22062.963     102.9617   -22165.925    1557.9375 
   18000    294.90452   -22050.531    112.51896    -22163.05    1414.3759 
   18200    275.60781   -22079.982    105.15642   -22185.138    13012.194 
   18400     298.6213    -22062.57    113.93707   -22176.507   -702.82977 
   18600    308.24532   -22059.805    117.60906   -22177.414    11793.303 
   18800     272.3953   -22089.961    103.93071   -22193.892    19990.093 
   19000    261.14938   -22073.448    99.639898   -22173.088   -22822.918 
   19200    345.11157   -22056.665    131.67514    -22188.34     1489.646 
   19400    307.69966   -22067.488    117.40086   -22184.889   -12923.533 
   19600    250.95456   -22081.039     95.75013    -22176.79   -885.86455 
   19800    323.62205   -22058.589    123.47595   -22182.065    40.356158 
   20000    316.29005   -22066.294    120.67847   -22186.973   -21468.671 
   20200    275.46661   -22080.604    105.10254   -22185.706   -4081.3593 
   20400     288.2639   -22070.551    109.98527   -22180.537   -4493.0132 
   20600    323.84552   -22055.633    123.56121   -22179.195   -16847.876 
   20800    256.11854    -22086.36    97.720413   -22184.081    2571.6593 
   21000     260.2781   -22081.502    99.307464    -22180.81    1141.5213 
   21200    316.35931    -22059.61     120.7049   -22180.315   -13401.296 
   21400     284.6091   -22073.561    108.59081   -22182.152   -17273.046 
   21600    309.00096    -22079.75    117.89737   -22197.647    15519.923 
   21800    330.34235   -22062.231    126.04004   -22188.271    7120.8403 
   22000    320.01305   -22071.133    122.09896   -22193.232    8310.3513 
   22200      266.582    -22094.05    101.71268   -22195.763   -8679.5672 
   22400    320.07451   -22061.839    122.12241   -22183.961    13044.746 
   22600    278.10034   -22076.664    106.10743   -22182.771     419.0886 
   22800    309.79702   -22071.415     118.2011   -22189.617   -4665.4304 
   23000    314.03777   -22053.648    119.81913   -22173.467   -3113.9598 
   23200    299.77979   -22078.941    114.37909    -22193.32    9458.7813 
   23400    304.06027   -22071.812    116.01228   -22187.825    10639.164 
   23600    298.51422   -22064.189    113.89622   -22178.085    21313.518 
   23800    305.99239   -22077.512    116.74946   -22194.262   -3518.8235 
   24000    285.23712   -22076.649    108.83042   -22185.479    15711.525 
   24200    311.00596   -22058.465    118.66236   -22177.127    4792.7049 
   24400    345.50185   -22070.305    131.82405   -22202.129   -5778.6192 
   24600    297.22279   -22071.429    113.40348   -22184.832    17028.964 
   24800    289.21129   -22065.887    110.34674   -22176.234    5133.5108 
   25000    335.50892   -22053.874    128.01131   -22181.885   -2714.2485 
   25200    295.08855   -22081.908    112.58917   -22194.497    22975.699 
   25400    276.97187   -22069.075    105.67687   -22174.752    12488.269 
   25600     322.7573   -22056.599    123.14601   -22179.745    204.55398 
   25800    309.95763   -22076.333    118.26238   -22194.595    12116.189 
   26000    302.16938   -22049.754    115.29082   -22165.045   -8965.8218 
   26200    305.39765   -22059.715    116.52254   -22176.237    8725.9165 
   26400    269.68125    -22074.74    102.89518   -22177.635    11194.314 
   26600    259.11749   -22066.679    98.864643   -22165.544    -9832.103 
   26800    304.54241   -22066.173    116.19623    -22182.37   -3405.4638 
   27000    302.45193   -22076.625    115.39862   -22192.024    30360.427 
   27200    282.86783   -22077.787    107.92643   -22185.713    6541.0521 
   27400    327.67765   -22056.191    125.02334   -22181.214   -10848.432 
   27600    283.00349   -22071.779    107.97819   -22179.757   -4375.7827 
   27800    296.89085   -22072.095    113.27683   -22185.372    24126.042 
   28000    331.29695   -22054.407    126.40426   -22180.811   -6309.6341 
   28200    296.98106   -22078.294    113.31125   -22191.605     34117.98 
   28400    303.37938   -22055.954    115.75249   -22171.707   -6001.2707 
   28600     307.2483   -22054.524    117.22865   -22171.753    11105.233 
   28800     277.9554    -22072.76    106.05213   -22178.812    6247.3755 
   29000    309.31926   -22044.614    118.01881   -22162.632   -972.12109 
   29200    284.11926   -22060.864    108.40391   -22169.268    -7387.565 
   29400    279.99301   -22072.252    106.82957   -22179.082   -7121.7855 
   29600    300.65933   -22043.306    114.71467   -22158.021    22.247334 
   29800    282.93893   -22073.854    107.95356   -22181.808   -13264.555 
   30000     291.8259   -22065.437    111.34433   -22176.781    -7552.778 
   30200    299.93494    -22052.72    114.43828   -22167.159   -20615.998 
   30400    268.84343   -22081.647    102.57551   -22184.222   -3686.5623 
   30600    286.24046   -22071.724    109.21324   -22180.937    2882.3478 
   30800    301.29132   -22061.524     114.9558    -22176.48    14725.097 
   31000    292.50613   -22067.744    111.60387   -22179.348    6726.6936 
   31200    295.71245   -22073.495    112.82722   -22186.322   -5811.8209 
   31400    293.87127    -22049.04    112.12473   -22161.164    24315.017 
   31600    294.60816   -22067.215    112.40588   -22179.621   -2940.8744 
   31800    279.40671   -22075.751    106.60587   -22182.357   -4542.5607 
   32000    297.12871   -22057.322    113.36758    -22170.69   -1294.2666 
   32200    293.29481   -22071.204    111.90478   -22183.109    -4095.457 
   32400    289.56259   -22079.235    110.48078   -22189.716    6369.8761 
   32600    300.52824   -22060.458    114.66465   -22175.123    16767.796 
   32800     311.0571    -22050.77    118.68187   -22169.452     32430.06 
   33000    269.32345   -22080.058    102.75866   -22182.816   -158.19121 
   33200    290.60535   -22058.394    110.87864   -22169.272   -18296.744 
   33400    298.19131   -22061.983    113.77301   -22175.756    497.77734 
   33600    286.25673   -22074.762    109.21945   -22183.981    9348.0754 
   33800    285.79616    -22072.93    109.04372   -22181.973    21699.158 
   34000    318.87384   -22049.965     121.6643    -22171.63    3615.6801 
   34200    297.61915   -22069.131    113.55471   -22182.686    -16104.44 
   34400    307.68708    -22062.12    117.39606   -22179.516   -908.37471 
   34600    313.67265   -22050.272    119.67982   -22169.952    13007.136 
   34800    305.87019   -22055.925    116.70284   -22172.628   -22810.766 
   35000    270.36198   -22073.758    103.15491   -22176.913   -10791.338 
   35200    324.34131    -22045.83    123.75038    -22169.58   -12728.868 
   35400    327.85328   -22054.475    125.09035   -22179.566   -2809.9359 
   35600    305.09062   -22074.845     116.4054    -22191.25    1978.7241 
   35800     283.1457   -22069.019    108.03246   -22177.052   -12473.822 
   36000    299.75462   -22053.027    114.36948   -22167.397    1684.0869 
   36200    285.58506   -22079.159    108.96318   -22188.122    11772.243 
   36400    246.39377   -22068.467    94.009985   -22162.477    -15949.29 
   36600    292.71066   -22058.719     111.6819   -22170.401    14033.089 
   36800    327.89012   -22042.829     125.1044   -22167.933   -7890.7793 
   37000    307.43641   -22071.871    117.30042   -22189.171    3012.0188 
   37200    302.09265   -22060.327    115.26154   -22175.588   -6941.9222 
   37400    303.96611   -22047.427    115.97635   -22163.403    -5611.483 
   37600    295.92582   -22070.636    112.90863   -22183.544   -7488.4355 
   37800    327.57887    -22071.85    124.98565   -22196.836   -5434.7452 
   38000    354.16556   -22036.741    135.12963   -22171.871   -27406.423 
   38200    315.55499   -22066.719    120.39801   -22187.117    2582.9036 
   38400    284.55879   -22066.184    108.57161   -22174.756    7524.9954 
   38600    298.73764   -22060.024    113.98146   -22174.006    6648.6126 
   38800    310.01681    -22056.34    118.28496   -22174.625    20015.681 
   39000    276.15964   -22077.627    105.36697   -22182.994   -22429.799 
   39200    291.70138   -22063.531    111.29682   -22174.827    16220.957 
   39400    307.73185   -22057.318    117.41315   -22174.731    231.19837 
   39600       295.43    -22074.36    112.71945   -22187.079   -2600.3836 
   39800    279.90194   -22069.479    106.79482   -22176.274    32075.305 
   40000    307.27511   -22051.289    117.23888   -22168.528   -7752.0866 
   40200    269.07573   -22076.331    102.66415   -22178.995    -4207.268 
   40400    283.71269   -22071.836    108.24879   -22180.084   -12974.067 
   40600    306.16606   -22063.796    116.81573   -22180.612   -8079.1315 
   40800    301.63731   -22069.512    115.08781     -22184.6    4596.4536 
   41000    289.05543    -22083.78    110.28727   -22194.068    9638.6189 
   41200    320.59998   -22054.637     122.3229    -22176.96   -11265.792 
   41400    302.18068   -22065.851    115.29513   -22181.146   -10488.555 
   41600    255.88631   -22094.656    97.631807   -22192.288   -13110.533 
   41800    292.72154   -22063.369    111.68606   -22175.055    293.79956 
   42000    282.84739   -22060.542    107.91863   -22168.461   -10234.589 
   42200    280.80336   -22082.629    107.13875   -22189.767   -12349.219 
   42400    274.80871   -22061.337    104.85153   -22166.188    11133.541 
   42600    327.27092   -22054.273    124.86815   -22179.141    14492.256 
   42800    289.01237   -22074.359    110.27085    -22184.63     7461.678 
   43000    304.13143    -22064.85    116.03943    -22180.89    5587.2342 
   43200    315.56178   -22052.472    120.40061   -22172.872     18394.14 
   43400     309.9893   -22073.133    118.27446   -22191.407    26092.088 
   43600    286.75278   -22069.649    109.40871   -22179.057   -8264.4912 
   43800    315.46481   -22062.509    120.36361   -22182.872    29227.389 
   44000    301.05724   -22062.921    114.86649   -22177.787   -6173.8829 
   44200    283.35384   -22055.254    108.11187   -22163.366   -34151.498 
   44400    319.62679   -22045.102    121.95158   -22167.053    -4598.013 
   44600    318.33747   -22069.977    121.45965   -22191.437    10288.394 
   44800      304.485   -22069.182    116.17433   -22185.356   -22188.072 
   45000    315.03948   -22043.873    120.20133   -22164.074    12240.231 
   45200    286.65487   -22069.505    109.37136   -22178.876    7971.3078 
   45400    272.17389   -22063.807    103.84623   -22167.653    22649.815 
   45600    315.59718   -22044.734    120.41411   -22165.148   -13446.357 
   45800    338.48288   -22050.122      129.146   -22179.268    2187.6948 
   46000    270.52519   -22074.121    103.21718   -22177.338   -6077.0891 
   46200    306.49315   -22054.643    116.94053   -22171.583   -1742.0297 
   46400    344.84291   -22043.384    131.57264   -22174.957   -1043.0909 
   46600    283.61777    -22071.83    108.21257   -22180.043   -92.031037 
   46800    315.99959   -22049.867    120.56765   -22170.435   -939.02451 
   47000    286.43721   -22053.809    109.28831   -22163.097    23077.488 
   47200    304.71426   -22068.511     116.2618   -22184.773    2963.6235 
   47400    347.84226   -22056.447    132.71702   -22189.164    -10750.51 
   47600    293.32674   -22093.856    111.91697   -22205.773   -3129.3609 
   47800    293.99905   -22104.321    112.17348   -22216.494   -19791.337 
   48000    314.01044   -22090.754     119.8087   -22210.563   -1508.3011 
   48200    312.03382    -22083.03    119.05453   -22202.084    2021.6904 
   48400    278.88539   -22106.089    106.40696   -22212.496    4015.4636 
   48600     308.0686   -22096.769    117.54163    -22214.31   -13714.602 
   48800    312.03082   -22073.006    119.05339   -22192.059   -964.18602 
   49000    321.10046   -22101.933    122.51385   -22224.447   -8588.1783 
   49200    303.56294   -22110.106    115.82252   -22225.929    12659.305 
   49400    303.44146   -22084.838    115.77617   -22200.614    16854.689 
   49600    332.73723   -22097.893    126.95379   -22224.846   -4766.5113 
   49800     302.9834   -22110.263     115.6014   -22225.865    672.54858 
   50000    322.45805   -22095.452    123.03183   -22218.484   -14089.425 
   50200    273.35733   -22097.154    104.29776   -22201.452   -22376.168 
   50400    271.15935     -22118.4    103.45914   -22221.859    -5951.368 
   50600    294.38127   -22091.764    112.31932   -22204.083   -12749.098 
   50800    324.01404   -22086.399    123.62551   -22210.024   -12288.487 
   51000    330.54938    -22106.16    126.11903   -22232.279   -18572.679 
   51200    278.62458   -22115.845    106.30745   -22222.152   -11207.912 
   51400    332.49603   -22087.243    126.86176   -22214.105    11685.693 
   51600    303.72043   -22115.284    115.88261   -22231.167    2830.5222 
   51800    283.28197   -22111.226    108.08445    -22219.31     26090.81 
   52000    298.27488   -22096.446     113.8049   -22210.251   -3325.2002 
   52200    324.95818   -22119.773    123.98574   -22243.759    24541.757 
   52400    295.25149   -22115.351    112.65134   -22228.002    5241.8328 
   52600    342.05851   -22095.915    130.51026   -22226.426    5159.5849 
   52800    285.00669   -22106.718     108.7425    -22215.46    10749.597 
   53000    292.50758   -22111.437    111.60442   -22223.041   -18783.069 
   53200    328.76222   -22083.362    125.43715   -22208.799     3305.318 
   53400    268.37272   -22116.801    102.39592   -22219.197   -2187.7787 
   53600    321.61866   -22108.159    122.71157   -22230.871    24948.032 
   53800    335.54934   -22091.844    128.02673   -22219.871    4226.6723 
   54000    300.78056   -22115.724    114.76092   -22230.485    -1696.824 
   54200    282.68916   -22109.297    107.85826   -22217.155    12369.892 
   54400    327.95574   -22078.268    125.12944   -22203.397   -1948.5237 
   54600    304.11225   -22088.324    116.03211   -22204.357    20297.247 
   54800     288.7155   -22101.662    110.15758    -22211.82    13312.212 
   55000    284.98857   -22113.184    108.73559   -22221.919    24831.739 
   55200    276.72041   -22122.517    105.58093   -22228.097     10855.33 
   55400    347.30123   -22069.473    132.51059   -22201.984    506.47924 
   55600    275.53135   -22103.626    105.12725   -22208.753   -13067.737 
   55800    293.66277   -22111.322    112.04518   -22223.367   -10068.718 
   56000    292.75624   -22111.492    111.69929   -22223.191     29542.04 
   56200    316.03859   -22089.153    120.58253   -22209.736   -20223.133 
   56400    280.76526    -22115.93    107.12421   -22223.054    14603.812 
   56600    296.51252   -22111.806    113.13248   -22224.939    13307.601 
   56800    358.89115   -22086.451    136.93265   -22223.383    26310.942 
   57000      313.321    -22099.64    119.54565   -22219.186     8166.075 
   57200    277.85366   -22114.326    106.01331   -22220.339   -4420.2282 
   57400    320.81576   -22086.425    122.40523    -22208.83   -1490.9076 
   57600    269.04984   -22113.621    102.65427   -22216.275   -7300.4586 
   57800    287.52303    -22110.26     109.7026   -22219.963    30160.394 
   58000    357.46449   -22089.955    136.38832   -22226.343   -21421.354 
   58200      279.658   -22121.736    106.70174   -22228.437   -9337.7381 
   58400    281.33333   -22108.099    107.34096    -22215.44    24749.655 
   58600    324.10483   -22096.436    123.66015   -22220.096    972.39234 
   58800    296.80861   -22107.252    113.24545   -22220.497    17883.636 
   59000    282.15383   -22115.507    107.65401   -22223.161     30183.86 
   59200    267.93115   -22133.466    102.22744   -22235.693   -28382.856 
   59400    299.33255   -22105.737    114.20844   -22219.945   -14143.725 
   59600    295.18212   -22113.606    112.62487   -22226.231    -22111.69 
   59800    275.22682   -22133.972    105.01106   -22238.983    17130.063 
   60000    281.92188   -22101.751    107.56551   -22209.316   -6038.1304 
   60200    286.52307   -22113.384    109.32107   -22222.705     1890.216 
   60400    274.63488   -22119.139    104.78521   -22223.924     4251.737 
   60600    316.12767   -22092.142    120.61652   -22212.759   -7997.5605 
   60800    293.97897    -22115.97    112.16582   -22228.135     19981.11 
   61000    325.74037   -22101.859    124.28418   -22226.143    13631.454 
   61200    284.47281   -22092.408    108.53881   -22200.947   -15235.196 
   61400    289.39549   -22112.752    110.41702   -22223.169   -377.68627 
   61600    315.62763   -22106.481    120.42573   -22226.907   -1124.7813 
   61800    314.04438   -22074.545    119.82165   -22194.367    12024.738 
   62000    303.12649   -22104.937      115.656   -22220.593    3873.8269 
   62200    304.60004   -22117.639    116.21822   -22233.858    13380.528 
   62400    313.11702   -22111.584    119.46782   -22231.052   -7575.6983 
   62600    322.11231   -22093.661    122.89992   -22216.561   -1047.7375 
   62800    262.24953   -22125.751    100.05965   -22225.811    128.29358 
   63000    296.33583   -22107.101    113.06506   -22220.166     6564.426 
   63200    295.28938   -22100.226     112.6658   -22212.892     3014.913 
   63400    260.09966   -22132.155    99.239384   -22231.394   -3750.8639 
   63600    308.67417   -22104.208    117.77268   -22221.981    607.88741 
   63800    329.06896   -22100.917    125.55418   -22226.472   -1382.4848 
   64000    286.39898   -22130.161    109.27372   -22239.435    5023.1086 
   64200     295.3939   -22112.261    112.70568   -22224.967   -11825.291 
   64400    289.41679   -22104.569    110.42515   -22214.994    18768.024 
   64600    320.68861   -22093.768    122.35672   -22216.125    8233.7264 
   64800    310.28976   -22101.354     118.3891   -22219.743    -22535.95 
   65000    297.91845    -22122.17     113.6689   -22235.839    9863.8387 
   65200    319.86362   -22082.132    122.04194   -22204.174   -11026.411 
   65400    347.41069   -22097.364    132.55236   -22229.916   -8696.4641 
   65600    287.87873   -22117.015    109.83831   -22226.853    2587.6769 
   65800    354.71009   -22090.724    135.33739   -22226.062   -63.436796 
   66000    301.98659   -22102.048    115.22108   -22217.269   -12983.394 
   66200    298.68886   -22109.958    113.96285   -22223.921    2520.9619 
   66400     297.7639   -22112.597    113.60994   -22226.207    -4535.081 
   66600    288.28929   -22107.584    109.99496   -22217.579    6892.5937 
   66800    330.35521   -22092.397    126.04494   -22218.442    636.01965 
   67000    311.38702   -22116.629    118.80775   -22235.437   -17257.065 
   67200    303.56914   -22108.501    115.82489   -22224.326     21414.29 
   67400    282.61304    -22098.16    107.82922   -22205.989    6130.7182 
   67600    308.37971   -22108.657    117.66033   -22226.317    16868.756 
   67800    282.56428   -22120.416    107.81062   -22228.227   -6369.5669 
   68000    350.98052   -22101.061     133.9144   -22234.976    20321.038 
   68200    292.33817   -22103.807    111.53978   -22215.347   -6783.3759 
   68400    265.97633   -22120.113    101.48159   -22221.595    5939.1936 
   68600    298.56135   -22102.478     113.9142   -22216.392   -9774.6669 
   68800    305.11671   -22117.156    116.41535   -22233.572    12573.338 
   69000    285.59048   -22123.791    108.96525   -22232.756    5670.2348 
   69200    308.64513   -22106.329     117.7616   -22224.091    28675.873 
   69400    316.49136   -22107.241    120.75528   -22227.997    7272.6425 
   69600    322.51679   -22082.044    123.05424   -22205.098   -124.20865 
   69800    286.24599   -22112.513    109.21535   -22221.728    3257.2803 
   70000    280.90673   -22112.719    107.17819   -22219.898     9002.578 
   70200    339.48053   -22085.973    129.52665   -22215.499    4965.2398 
   70400    296.17975   -22109.556    113.00551   -22222.561   -13409.383 
   70600    280.60832   -22112.062    107.06433   -22219.126    11330.364 
   70800    313.89742   -22096.185    119.76558    -22215.95   -11415.249 
   71000    309.56457   -22107.711    118.11241   -22225.823   -8859.2527 
   71200    300.70464   -22116.384    114.73196   -22231.116   -3071.4363 
   71400    295.05606   -22090.171    112.57678   -22202.748    -23137.58 
   71600    327.10803   -22103.614      124.806    -22228.42    168.66912 
   71800    276.39121   -22107.505    105.45532    -22212.96    14856.041 
   72000    286.51157    -22109.65    109.31668   -22218.967   -7424.4995 
   72200    280.16273   -22123.828    106.89432   -22230.722   -2776.1976 
   72400    324.69012   -22095.122    123.88346   -22219.005   -17263.082 
   72600    292.31173   -22108.484     111.5297   -22220.014   -7497.8768 
   72800    301.61581   -22113.356    115.07961   -22228.435    12492.194 
   73000    295.84631   -22108.055    112.87829   -22220.933    750.90568 
   73200    332.18581   -22110.546     126.7434    -22237.29    2175.3896 
   73400    263.58465   -22123.328    100.56906   -22223.897    19622.511 
   73600    322.05276   -22102.904     122.8772   -22225.781   -12377.066 
   73800    303.21542   -22110.979    115.68993   -22226.669   -668.97712 
   74000    280.47192   -22120.189    107.01229   -22227.202   -13885.327 
   74200    289.01553   -22104.684    110.27205   -22214.956    39615.332 
   74400    319.46737   -22103.016    121.89076   -22224.907   -122.82388 
   74600    289.39324   -22129.784    110.41616     -22240.2    10771.788 
   74800    289.05979   -22100.298    110.28894   -22210.587   -22906.981 
   75000    269.32264   -22103.455    102.75835   -22206.213   -4549.4491 
   75200    263.58481   -22126.719    100.56912   -22227.288    9234.2397 
   75400    277.99062   -22119.521    106.06556   -22225.586   -16008.302 
   75600    306.75941   -22104.229    117.04212   -22221.271   -3500.1436 
   75800    305.19174   -22098.739    116.44398   -22215.183    -11201.35 
   76000    279.53067   -22126.212    106.65316   -22232.865    -6582.821 
   76200    344.84236   -22103.256    131.57243   -22234.828    486.53757 
   76400     283.8477   -22110.869     108.3003   -22219.169    3778.7165 
   76600    275.86625   -22119.627    105.25502   -22224.882   -9493.0399 
   76800    331.16828   -22095.374    126.35516   -22221.729   -1721.2984 
   77000    325.19419   -22102.208    124.07579   -22226.284   -19139.336 
   77200    294.14256   -22113.309    112.22824   -22225.537    19285.267 
   77400    328.25314   -22088.535    125.24291   -22213.778   -3249.6291 
   77600    292.97712   -22112.243    111.78357   -22224.027    32015.089 
   77800    296.53322   -22113.585    113.14038   -22226.726   -7037.5415 
   78000    314.14451   -22097.272    119.85986   -22217.132    9577.3073 
   78200    287.70369   -22124.272    109.77153   -22234.043   -2176.1796 
   78400    308.61247   -22107.658    117.74914   -22225.407   -11013.732 
   78600    301.68266   -22105.649    115.10511   -22220.754    10299.057 
   78800    288.31578   -22120.061    110.00506   -22230.066    635.56488 
   79000    295.49085   -22107.955    112.74267   -22220.697   -14172.489 
   79200    329.95555   -22095.954    125.89246   -22221.846   -11883.682 
   79400    292.48865   -22119.693     111.5972    -22231.29    5647.6459 
   79600    300.74175   -22108.201    114.74612   -22222.947   -17705.881 
   79800    341.78345   -22079.362    130.40532   -22209.767   -2498.6874 
   80000    286.09412   -22112.879    109.15741   -22222.036   -15698.846 
   80200    290.65333   -22115.658    110.89694   -22226.555   -19216.001 
   80400     321.3063   -22087.128    122.59239   -22209.721    14050.027 
   80600    286.99303   -22118.605    109.50038   -22228.106    6664.0045 
   80800    301.12808   -22109.506    114.89352     -22224.4    8254.4147 
   81000    321.80986   -22104.839    122.78452   -22227.624   -9584.8607 
   81200    267.76015   -22126.924     102.1622   -22229.086    -9243.925 
   81400    302.66256    -22106.36    115.47899   -22221.839    7034.8622 
   81600    299.00414   -22103.383    114.08314   -22217.466    17281.115 
   81800    265.21287   -22131.612     101.1903   -22232.802   -16622.534 
   82000    302.40544   -22110.887    115.38089   -22226.268    10962.634 
   82200    289.90283    -22108.39    110.61059   -22219.001    3954.1789 
   82400    313.44941   -22089.722    119.59464   -22209.317   -20140.692 
   82600    288.10386   -22115.278    109.92421   -22225.203    4583.2755 
   82800    295.53078   -22112.375     112.7579   -22225.133    5312.3588 
   83000    327.08887   -22092.538    124.79869   -22217.336   -4438.3467 
   83200    294.46612    -22123.33    112.35169   -22235.682   -12362.122 
   83400    304.82354   -22103.293     116.3035   -22219.596    29928.468 
   83600    299.73793   -22113.776    114.36311   -22228.139    4922.5158 
   83800    296.74027   -22124.288    113.21937   -22237.508    17498.429 
   84000     309.5488   -22104.122    118.10639   -22222.228     6347.656 
   84200    270.02479   -22111.161    103.02625   -22214.188    15382.878 
   84400    303.00921   -22110.243    115.61125   -22225.855   -15079.104 
   84600    332.10539   -22093.104    126.71271   -22219.816   -4045.7378 
   84800    304.37832   -22100.721    116.13363   -22216.855    24806.727 
   85000    297.38442   -22118.241    113.46515   -22231.706      17657.8 
   85200     293.5373   -22105.957     111.9973   -22217.954   -5184.6578 
   85400    325.06035   -22096.842    124.02472   -22220.867   -6780.5356 
   85600    270.76953   -22118.906     103.3104   -22222.217     15124.44 
   85800    292.78013   -22111.845    111.70841   -22223.553   -4615.9229 
   86000    339.84249   -22092.572    129.66476   -22222.236    13745.359 
   86200    291.00513   -22112.074    111.03117   -22223.105   -12015.322 
   86400    288.25378   -22110.237    109.98141   -22220.218    25588.063 
   86600      346.314   -22087.869    132.13392   -22220.003   -562.94229 
   86800    285.96515   -22116.291     109.1082   -22225.399   -11880.399 
   87000    316.31039    -22110.93    120.68623   -22231.616   -12548.311 
   87200    317.43315   -22078.758    121.11461   -22199.872   -25895.568 
   87400    302.31556   -22110.223    115.34659    -22225.57   -21776.368 
   87600    285.12157   -22112.167    108.78634   -22220.953   -4742.9869 
   87800    297.74906     -22089.7    113.60427   -22203.304   -32411.346 
   88000    289.88036   -22115.752    110.60202   -22226.354    -16715.24 
   88200    308.69892   -22117.938    117.78212    -22235.72    4816.7381 
   88400     268.4545    -22095.78    102.42712   -22198.207    1910.4353 
   88600    292.37545   -22121.736    111.55401    -22233.29   -21754.924 
   88800    269.03421   -22117.605     102.6483   -22220.253   -2477.4164 
   89000    312.61209       -22099    119.27517   -22218.275    8149.2916 
   89200    266.65644   -22128.633    101.74108   -22230.374    9018.0417 
   89400     291.6284   -22120.032    111.26897   -22231.301    34517.231 
   89600    310.06664   -22101.422    118.30397   -22219.725   -6750.4011 
   89800    312.05833   -22110.084    119.06389   -22229.148    13112.831 
   90000    279.43757   -22131.534    106.61764   -22238.152   -18675.517 
   90200    301.09799   -22105.101    114.88204   -22219.983    4791.7061 
   90400    290.92891   -22101.745    111.00209   -22212.747   -149.92218 
   90600    281.17877   -22129.815    107.28199   -22237.097    1403.4451 
   90800    283.25998   -22116.019    108.07606   -22224.095   -1816.8331 
   91000    337.05413   -22100.506    128.60088   -22229.107    17726.602 
   91200    297.72774   -22121.633    113.59614    -22235.23    13983.401 
   91400    283.15375   -22124.645    108.03553   -22232.681   -22277.486 
   91600    295.58053   -22109.346    112.77688   -22222.123   -7.2314043 
   91800    313.22016    -22108.78    119.50717   -22228.287    1222.2989 
   92000    302.10388   -22097.703    115.26583   -22212.968   -12540.807 
   92200    320.15397   -22107.893    122.15273   -22230.046    1262.9086 
   92400    296.52194   -22117.902    113.13607   -22231.038   -7885.8136 
   92600    330.79001   -22087.578    126.21084   -22213.788    10126.233 
   92800    325.20015    -22094.51    124.07806   -22218.588   -1303.8223 
   93000    296.97232   -22113.974    113.30791   -22227.282   -3749.3157 
   93200    263.63515   -22110.839    100.58833   -22211.427    9056.6499 
   93400     308.9626   -22094.859    117.88273   -22212.741   -18245.484 
   93600    300.06829   -22116.398    114.48916   -22230.887     8713.269 
   93800    334.55944   -22104.425    127.64904   -22232.074   -995.28037 
   94000    354.14187   -22085.884    135.12059   -22221.004   -8974.2886 
   94200    290.89024   -22113.616    110.98733   -22224.603   -5679.7156 
   94400     298.3997   -22109.611    113.85252   -22223.464    18475.376 
   94600    295.65348   -22092.038    112.80472   -22204.843    3465.8488 
   94800    299.86261   -22119.827    114.41069   -22234.238   -17041.348 
   95000     321.7116   -22099.029    122.74703   -22221.776   -20195.749 
   95200    326.07769   -22102.265    124.41288   -22226.678    37898.121 
   95400     322.4696   -22106.243    123.03624   -22229.279     20974.21 
   95600     289.4486   -22121.949    110.43729   -22232.386   -22259.975 
   95800    267.80539   -22131.537    102.17945   -22233.716    525.84497 
   96000    304.65535   -22110.678    116.23933   -22226.917     15350.66 
   96200    296.21284   -22098.887    113.01814   -22211.905   -6661.2247 
   96400    328.30849   -22104.973    125.26403   -22230.237   -11578.429 
   96600     263.1287   -22124.468    100.39509   -22224.863   -23219.292 
   96800    291.39554   -22092.979    111.18013   -22204.159    -25017.05 
   97000    270.55119   -22108.343     103.2271    -22211.57   -8417.1925 
   97200    292.86905   -22116.044    111.74234   -22227.786    14392.146 
   97400    293.27479   -22118.149    111.89715   -22230.046    13620.439 
   97600    328.79036   -22094.864    125.44789   -22220.311    -3685.859 
   97800    288.64453   -22121.464     110.1305   -22231.594    19849.324 
   98000     300.7214   -22111.365    114.73835   -22226.104    18269.135 
   98200    312.72808   -22086.767    119.31942   -22206.086    12744.565 
   98400    327.90817   -22090.367    125.11129   -22215.478   -9113.0595 
   98600    282.57554   -22117.125    107.81491    -22224.94   -2045.1268 
   98800    303.95332   -22099.046    115.97147   -22215.017   -7212.5251 
   99000    309.36108   -22094.653    118.03477   -22212.688    3979.8333 
   99200    292.36891   -22110.119    111.55151   -22221.671   -6665.5306 
   99400    289.19804   -22109.939    110.34168    -22220.28    25775.883 
   99600    343.92182   -22093.955     131.2212   -22225.176   -24848.807 
   99800    288.08088   -22119.171    109.91544   -22229.086    7696.6025 
  100000    302.14357   -22113.199    115.28097    -22228.48   -140.43103 
  100200    304.51188   -22097.405    116.18459   -22213.589    20107.857 
  100400    304.03301   -22109.528    116.00187    -22225.53   -2901.7174 
  100600    304.68525   -22117.795    116.25073   -22234.045    7705.7099 
  100800    291.17024   -22096.397    111.09417   -22207.492   -9182.8972 
  101000    290.04499   -22106.365    110.66484   -22217.029     6910.428 
  101200    278.08466    -22116.08    106.10145   -22222.181    2209.6244 
  101400    324.11898   -22099.273    123.66555   -22222.939    5409.6925 
  101600    352.25176   -22077.213    134.39944   -22211.612   -11507.117 
  101800    271.36327   -22112.646    103.53694   -22216.183   -16152.399 
  102000     285.1152   -22108.567     108.7839   -22217.351   -9852.3418 
  102200    317.86117   -22085.547    121.27792   -22206.825   -2538.5755 
  102400    277.33484   -22117.695    105.81536    -22223.51    3708.7896 
  102600    325.68678    -22107.65    124.26373   -22231.914   -15335.023 
  102800     324.6644    -22087.41    123.87365   -22211.284   -12886.571 
  103000    319.67252   -22109.749    121.96903   -22231.718   -10107.763 
  103200    328.98643   -22116.098     125.5227   -22241.621   -5274.2714 
  103400    327.30711   -22085.369    124.88196    -22210.25    16339.139 
  103600    299.84476   -22104.246    114.40387    -22218.65   -1441.6035 
  103800    325.45789   -22114.187     124.1764   -22238.363   -4486.4401 
  104000    316.97758   -22100.728    120.94079   -22221.668   -35773.931 
  104200    296.30714   -22092.939    113.05412   -22205.993    11488.168 
  104400    285.66599   -22115.273    108.99405   -22224.267    7022.9408 
  104600    309.47006   -22096.337    118.07635   -22214.413    22769.058 
  104800    319.69913   -22094.297    121.97918   -22216.276   -2276.4727 
  105000    293.07502   -22108.376    111.82092   -22220.196   -427.99337 
  105200    304.64579   -22113.003    116.23568   -22229.238    639.79712 
  105400    335.09342   -22091.694    127.85278   -22219.546     31731.68 
  105600    264.74866    -22119.83    101.01318   -22220.844    4016.1497 
  105800    308.23417   -22113.322     117.6048   -22230.927   -6819.1301 
  106000    304.10215   -22103.525    116.02825   -22219.553   -14191.294 
  106200    292.43273   -22115.435    111.57586   -22227.011    12551.618 
  106400    281.28852   -22113.566    107.32386    -22220.89    7194.1067 
  106600    333.30252   -22088.706    127.16947   -22215.876    8346.7682 
  106800     301.7062    -22113.74     115.1141   -22228.854   -16560.528 
  107000    311.53996   -22113.121     118.8661   -22231.987    -10496.45 
  107200    327.34028   -22093.654    124.89462   -22218.548   -11429.668 
  107400    283.22754   -22123.717    108.06368   -22231.781    11161.699 
  107600     313.7161   -22115.645     119.6964   -22235.342   -2831.5532 
  107800    313.80694   -22102.542    119.73105   -22222.273   -25339.475 
  108000    278.58433   -22111.475    106.29209   -22217.767   -22659.608 
  108200    275.04723   -22133.924    104.94253   -22238.867   -11093.304 
  108400    283.30207   -22106.791    108.09212   -22214.883    14302.012 
  108600    327.96201   -22100.253    125.13183   -22225.385    22734.927 
  108800    270.92946   -22126.967    103.37143   -22230.338    2417.8752 
  109000    316.04595   -22108.914    120.58534   -22229.499    8166.0015 
  109200    301.91484   -22104.924     115.1937   -22220.118    -13737.62 
  109400    274.32111   -22122.249    104.66549   -22226.914    -196.7398 
  109600    285.78509   -22121.509     109.0395   -22230.549   -20643.463 
  109800     312.9671   -22097.339    119.41062    -22216.75   -988.66174 
  110000    276.46389   -22118.401    105.48305   -22223.884   -11659.658 
  110200    267.70516    -22127.98    102.14121   -22230.121   -17692.859 
  110400    326.96214   -22100.193    124.75034   -22224.943   -14000.413 
  110600    291.11161   -22117.734     111.0718   -22228.806     3048.468 
  110800    270.02431   -22102.221    103.02607   -22205.247    12126.913 
  111000    288.34184    -22093.46    110.01501   -22203.475      23744.2 
  111200    291.15456   -22111.398    111.08818   -22222.487     -3693.98 
  111400    293.67606   -22107.659    112.05025   -22219.709   -128.60323 
  111600    317.23926   -22087.219    121.04064   -22208.259      4000.53 
  111800    318.12183   -22108.629    121.37738   -22230.007   -2507.0498 
  112000    315.47281   -22112.547    120.36666   -22232.913     5095.834 
  112200    335.43166   -22079.727    127.98183   -22207.709    20516.425 
  112400    314.25684   -22098.333    119.90271   -22218.236   -19151.241 
  112600    275.88832   -22111.502    105.26345   -22216.766    15792.223 
  112800    304.49672   -22119.808     116.1788   -22235.986    1014.1794 
  113000    319.33582   -22095.054    121.84056   -22216.895    5076.0744 
  113200    308.43574   -22110.888    117.68171    -22228.57       -15368 
  113400    293.29479   -22118.275    111.90478    -22230.18    9832.0983 
  113600     317.1387   -22096.323    121.00227   -22217.325   -7183.3235 
  113800    318.60459   -22119.837    121.56157   -22241.399   -12422.466 
  114000    284.52119   -22117.104    108.55726   -22225.661    2262.7041 
  114200    344.48514   -22096.897    131.43613   -22228.334    11667.398 
  114400     267.4203   -22127.844    102.03253   -22229.877    15112.417 
  114600    304.17338   -22118.143    116.05543   -22234.198   -22609.246 
  114800    295.36728   -22100.708    112.69552   -22213.403   -13199.159 
  115000    300.24828    -22112.31    114.55783   -22226.868    11052.881 
  115200    274.48661   -22131.686    104.72863   -22236.414   -14636.577 
  115400    292.42394   -22107.244    111.57251   -22218.817    5432.0875 
  115600    320.73456   -22100.178    122.37425   -22222.553    66.686584 
  115800    272.84194   -22128.814    104.10112   -22232.915   -28466.206 
  116000      285.925    -22107.02    109.09288   -22216.113    1910.4201 
  116200    287.34211   -22109.853    109.63357   -22219.487    5234.3646 
  116400    299.43181   -22126.024    114.24631    -22240.27    14303.538 
  116600    281.46201   -22119.785    107.39005   -22227.175   -5849.7996 
  116800     301.0793   -22102.348    114.87491   -22217.223   -7240.5132 
  117000    306.60615   -22125.326    116.98364    -22242.31    20731.939 
  117200    290.70596   -22120.332    110.91702   -22231.249   -3819.6236 
  117400    319.45599   -22093.334    121.88642    -22215.22   -11107.277 
  117600    304.32235    -22116.29    116.11227   -22232.402    24583.649 
  117800    295.96567   -22118.199    112.92383   -22231.123   -6682.2184 
  118000     281.2878   -22109.155    107.32358   -22216.479   -4461.2127 
  118200     308.6107   -22094.346    117.74847   -22212.094    9127.1429 
  118400    305.45973     -22105.3    116.54623   -22221.846   -14961.475 
  118600    244.65771   -22117.545    93.347603   -22210.893   -4388.3777 
  118800    313.45693   -22090.817    119.59751   -22210.414   -14987.586 
  119000    336.79039   -22107.888    128.50025   -22236.389    9503.2012 
  119200    301.03864   -22114.786    114.85939   -22229.646   -8317.7027 
  119400    301.09777   -22086.254    114.88195   -22201.136   -11554.295 
  119600    321.49283    -22108.04    122.66356   -22230.703   -7057.0981 
  119800    296.16997   -22112.071    113.00178   -22225.073   -10288.663 
  120000    305.22506   -22089.018    116.45669   -22205.475   -12337.979 
  120200    297.52412   -22093.857    113.51845   -22207.375   -14783.073 
  120400    309.48143    -22112.32    118.08068     -22230.4   -4110.8932 
  120600      304.779   -22109.466     116.2865   -22225.753    6661.3156 
  120800    306.29309    -22090.39    116.86419   -22207.254   -23481.433 
  121000    310.36804   -22111.395    118.41897   -22229.814    4453.1667 
  121200    288.48984   -22113.831    110.07148   -22223.902   -17846.734 
  121400    320.97075   -22084.839    122.46436   -22207.303   -13641.269 
  121600    326.82589   -22106.035    124.69836   -22230.733      19150.4 
  121800    278.83161     -22114.1    106.38644   -22220.486   -11679.579 
  122000    321.58627   -22094.161    122.69921    -22216.86   -22416.782 
  122200    298.95193   -22102.095    114.06322   -22216.158   -5433.8849 
  122400    249.29176   -22112.444    95.115696    -22207.56   -24759.279 
  122600    291.34163    -22093.12    111.15956    -22204.28    5547.9889 
  122800    296.34569   -22121.131    113.06883     -22234.2    17660.489 
  123000    311.61622   -22109.868     118.8952   -22228.764    6777.5287 
  123200    338.19468   -22104.031    129.03605   -22233.067    1406.3445 
  123400    287.68398   -22133.942    109.76401   -22243.706   -11733.748 
  123600    279.02052    -22109.29    106.45852   -22215.749    2478.1398 
  123800     299.8677   -22098.044    114.41263   -22212.457   -4579.6708 
  124000    284.41966   -22118.226    108.51853   -22226.745    6505.9548 
  124200    278.81754    -22113.61    106.38107   -22219.991    6877.0678 
  124400    320.38136   -22099.517    122.23948   -22221.757    5348.3851 
  124600     315.4527   -22108.665    120.35899   -22229.024   -12502.522 
  124800    289.70374   -22124.438    110.53463   -22234.972    3368.1609 
  125000    312.74559   -22110.678    119.32611   -22230.004   -5326.3056 
  125200    315.33227   -22097.593    120.31304   -22217.906    23903.188 
  125400    310.97266   -22116.706    118.64965   -22235.355   -7846.8211 
  125600    262.89703   -22143.483     100.3067    -22243.79   -12288.483 
  125800    299.99765   -22112.785    114.46221   -22227.247    23431.301 
  126000    313.36488   -22099.411    119.56239   -22218.973   -3259.9299 
  126200    278.41533   -22116.691    106.22761   -22222.918    13035.652 
  126400    279.69691   -22117.603    106.71659    -22224.32    1862.8405 
  126600    292.71478   -22100.513    111.68348   -22212.197    10738.526 
  126800    338.95334   -22118.908    129.32551   -22248.234   -246.03893 
  127000    304.00307   -22100.179    115.99045    -22216.17   -18774.465 
  127200    298.82606   -22104.467     114.0152   -22218.482    15507.263 
  127400    269.64541   -22117.823     102.8815   -22220.704   -4790.4856 
  127600     336.8628   -22082.252    128.52788    -22210.78    2834.6704 
  127800     319.4702   -22091.008    121.89184     -22212.9    2020.6712 
  128000    285.49958   -22112.268    108.93056   -22221.199    16343.411 
  128200    279.33339   -22098.736    106.57789   -22205.314    25013.421 
  128400    337.07206   -22098.804    128.60772   -22227.412    4218.6255 
  128600    300.39099   -22112.618    114.61229   -22227.231   -4532.0784 
  128800     294.3742   -22099.664    112.31662   -22211.981    16721.536 
  129000    308.21585   -22079.412    117.59781    -22197.01    39518.788 
  129200    298.73539   -22108.599     113.9806   -22222.579   -4360.6215 
  129400    262.68938   -22112.444    100.22748   -22212.671    9130.4073 
  129600    311.92264   -22084.763    119.01211   -22203.775   -200.97173 
  129800    304.18193   -22115.731     116.0587    -22231.79   -28225.782 
  130000    303.32428   -22112.208    115.73146   -22227.939    13087.547 
  130200    300.43568   -22089.469    114.62934   -22204.099    3324.3976 
  130400    273.10813   -22102.681    104.20268   -22206.884    16035.471 
  130600     295.2784   -22113.784    112.66161   -22226.445   -8497.2208 
  130800    280.89195   -22120.943    107.17255   -22228.115    26120.519 
  131000    344.67911   -22090.134    131.51014   -22221.645   -5715.4006 
  131200    302.54059   -22113.844    115.43245   -22229.276    5560.1553 
  131400    311.66739   -22104.531    118.91472   -22223.446    28687.492 
  131600    312.24109   -22086.644    119.13361   -22205.778   -10785.582 
  131800    278.04628   -22115.111     106.0868   -22221.197    16439.266 
  132000    298.72933    -22113.41    113.97829   -22227.389   -4577.6337 
  132200      321.417   -22084.894    122.63463   -22207.529    14475.066 
  132400    274.35575    -22112.03    104.67871   -22216.709    7428.1467 
  132600    277.05232   -22116.057    105.70756   -22221.765   -3643.0542 
  132800    334.40968   -22086.052     127.5919   -22213.644   -20931.226 
  133000    305.75802   -22105.331    116.66004   -22221.991   -11579.764 
  133200    262.20755   -22120.319    100.04363   -22220.362   -23420.989 
  133400    311.75777   -22106.883    118.94921   -22225.833    17262.174 
  133600    341.58605   -22093.758       130.33   -22224.088    7667.4884 
  133800    279.52496   -22118.162    106.65098   -22224.813    15477.037 
  134000    293.25518    -22109.33    111.88966   -22221.219    18987.893 
  134200    319.91076   -22080.454    122.05993   -22202.514   -5782.6575 
  134400     312.6006    -22107.56    119.27079   -22226.831    835.84241 
  134600    296.67878   -22110.583    113.19592   -22223.779    15374.669 
  134800    257.16045   -22125.503    98.117944   -22223.621    9760.0755 
  135000    319.71533   -22101.612    121.98536   -22223.598   -5089.0853 
  135200    329.04888   -22102.258    125.54652   -22227.805    6361.2603 
  135400    270.16857   -22134.298    103.08111   -22237.379    7171.8422 
  135600    300.52087   -22120.886    114.66184   -22235.548   -554.50214 
  135800     319.8483   -22102.827     122.0361   -22224.863   -569.33436 
  136000    285.67974    -22122.27     108.9993   -22231.269    7223.9328 
  136200    296.02957   -22120.504    112.94822   -22233.452    2718.3264 
  136400    320.91904   -22107.677    122.44463   -22230.122   -18184.783 
  136600    275.99796   -22112.396    105.30528   -22217.701    2652.7583 
  136800     298.3342   -22130.554    113.82753   -22244.382     28493.42 
  137000    280.18146   -22105.407    106.90147   -22212.309   -41391.058 
  137200    288.05914   -22105.858    109.90715   -22215.765     3351.626 
  137400    317.88423    -22111.57    121.28672   -22232.856   -7976.9567 
  137600    287.92035   -22108.807    109.85419   -22218.662    9966.2108 
  137800    295.16754   -22103.504    112.61931   -22216.123   -4913.7287 
  138000    291.00275   -22126.885    111.03026   -22237.915   -9728.9085 
  138200    326.78703   -22102.247    124.68353   -22226.931    3047.0278 
  138400    285.07712   -22104.819    108.76937   -22213.589    8010.5463 
  138600    262.00444   -22118.677     99.96614   -22218.643    8351.0722 
  138800     270.2036   -22131.148    103.09448   -22234.242    -10941.04 
  139000    304.93652   -22107.686     116.3466   -22224.033   -8733.3075 
  139200    280.71858   -22104.674     107.1064   -22211.781   -6042.5062 
  139400    279.93693   -22126.173    106.80817   -22232.981    14826.315 
  139600    326.96039   -22102.812    124.74967   -22227.561   -23592.814 
  139800    279.78099    -22107.18    106.74867   -22213.928   -6447.3362 
  140000    287.68949   -22121.739    109.76611   -22231.505    8414.2148 
  140200    306.74963   -22117.096    117.03838   -22234.134    5278.6934 
  140400     330.6051   -22099.917    126.14029   -22226.057   -7083.3226 
  140600    275.03676   -22127.736    104.93854   -22232.675   -11947.606 
  140800    287.65685   -22116.838    109.75365   -22226.592   -7019.9652 
  141000    327.23778   -22102.661    124.85551   -22227.516    2933.2563 
  141200    290.83571   -22121.907    110.96653   -22232.874   -5421.1553 
  141400    247.52711   -22119.957    94.442405   -22214.399   -14923.106 
  141600    335.56841   -22102.929    128.03401   -22230.963   -8802.2934 
  141800    298.62144   -22108.831    113.93712   -22222.768    12646.579 
  142000    290.89945   -22129.517    110.99085   -22240.508   -11106.662 
  142200    321.07615   -22102.713    122.50458   -22225.218   -10220.977 
  142400    290.92886   -22101.591    111.00207   -22212.593    -25193.88 
  142600    283.79043   -22127.825    108.27845   -22236.104   -8066.9323 
  142800    276.49074   -22117.171     105.4933   -22222.664   -13971.707 
  143000    334.04202   -22110.235    127.45162   -22237.687   -12242.779 
  143200    272.39056   -22130.509     103.9289   -22234.438   -15526.627 
  143400    283.44545   -22115.869    108.14682   -22224.016   -8681.2902 
  143600    299.39053   -22108.406    114.23057   -22222.637   -3582.8238 
  143800    270.86706   -22130.857    103.34762   -22234.205    7340.9892 
  144000    293.42633   -22122.216    111.95496   -22234.171    9437.3533 
  144200    326.12862   -22105.966    124.43232   -22230.399    36647.415 
  144400    289.35234   -22117.324    110.40056   -22227.725    12816.749 
  144600    281.71047   -22131.524    107.48485   -22239.008   -3519.6795 
  144800    298.91829    -22101.76    114.05039    -22215.81    1083.6913 
  145000    299.46018   -22111.425    114.25714   -22225.683   -4143.6204 
  145200     258.7048   -22130.062    98.707181   -22228.769   -10837.501 
  145400     319.9514   -22097.769    122.07544   -22219.845   -11807.538 
  145600    306.72735   -22111.792    117.02989   -22228.822   -12943.644 
  145800     291.5656   -22125.728    111.24501   -22236.973    2372.2242 
  146000    312.38891   -22094.371    119.19002   -22213.561   -30883.445 
  146200     287.1289   -22117.636    109.55222   -22227.188   -11579.277 
  146400    298.52956   -22114.896    113.90207   -22228.798   -14038.276 
  146600      333.841   -22090.338    127.37493   -22217.713   -2055.4281 
  146800     298.6273   -22113.026    113.93936   -22226.966    14183.801 
  147000    306.61871   -22113.623    116.98843   -22230.612    2949.6068 
  147200    320.88646   -22080.662     122.4322   -22203.094    45.232682 
  147400    297.34188   -22103.351    113.44892     -22216.8   -8257.1419 
  147600    290.74874   -22115.146    110.93334   -22226.079   -8994.6487 
  147800    274.58075   -22120.031    104.76455   -22224.796    13400.898 
  148000    297.71425   -22096.145    113.59099   -22209.736    7193.3043 
  148200    282.43885   -22120.525    107.76276   -22228.288   -543.42786 
  148400    295.26565   -22115.846    112.65675   -22228.502   -19880.407 
  148600    331.68345   -22104.215    126.55172   -22230.767   -359.45986 
  148800    286.50831    -22125.34    109.31543   -22234.655    539.77376 
  149000    281.35204   -22120.041    107.34809   -22227.389   -10494.817 
  149200    309.52507   -22103.542    118.09734   -22221.639   -9416.2895 
  149400    300.59937   -22108.792    114.69179   -22223.483   -7287.8543 
  149600    265.67505    -22130.43    101.36664   -22231.796   -5520.9508 
  149800    337.43182   -22104.011    128.74498   -22232.756   -14769.621 
  150000     297.1683   -22110.261    113.38269   -22223.643    256.26568 
  150200    293.32757   -22115.913    111.91728    -22227.83   -26269.597 
  150400    317.00898   -22091.911    120.95278   -22212.864    6990.7664 
  150600    297.25118   -22117.983    113.41431   -22231.398   -16130.901 
  150800    275.25424   -22105.239    105.02152   -22210.261    19245.527 
  151000    331.13351   -22072.372     126.3419   -22198.714    13626.832 
  151200     315.1926   -22101.494    120.25975   -22221.754   -8546.8309 
  151400    297.94169   -22116.069    113.67777   -22229.746   -10742.285 
  151600    309.62831   -22100.275    118.13673   -22218.411    6967.1763 
  151800    315.86544   -22097.256    120.51646   -22217.772   -6806.7361 
  152000    286.59695   -22117.902    109.34926   -22227.251    19467.178 
  152200    300.92013   -22098.591    114.81418   -22213.405    21100.006 
  152400    363.26046   -22070.618    138.59973   -22209.217   -12001.829 
  152600    308.01446   -22103.519    117.52097    -22221.04   -24848.976 
  152800    335.72711   -22113.421    128.09456   -22241.515   -7259.3064 
  153000    299.77971   -22116.265    114.37906   -22230.644   -5237.7929 
  153200    337.36282     -22091.2    128.71865   -22219.918   -19843.607 
  153400    301.78316   -22113.325    115.14346   -22228.468    25088.465 
  153600    306.73663   -22114.224    117.03342   -22231.257   -19920.624 
  153800    315.18413   -22101.318    120.25652   -22221.575   -1207.0812 
  154000    338.89053   -22083.135    129.30154   -22212.437    8572.0175 
  154200    301.75397   -22115.622    115.13232   -22230.755     16518.14 
  154400    285.55596   -22112.126    108.95207   -22221.078    10982.606 
  154600    331.57027   -22088.194    126.50854   -22214.703   -8636.4116 
  154800    292.05917   -22118.616    111.43333   -22230.049    3094.0489 
  155000    308.15352    -22101.27    117.57403   -22218.844   -9243.9632 
  155200    293.36508   -22107.499     111.9316    -22219.43    20754.961 
  155400    291.39808   -22126.477     111.1811   -22237.658   -7800.7508 
  155600     310.1585   -22102.943    118.33902   -22221.282    30102.795 
  155800    302.37775   -22104.129    115.37032   -22219.499   -17263.525 
  156000    290.15974   -22129.346    110.70862   -22240.055   -3136.7188 
  156200    307.11911   -22104.912    117.17936   -22222.092    5461.9922 
  156400    285.16143   -22104.311    108.80154   -22213.113    2260.9294 
  156600     278.8717    -22127.92    106.40174   -22234.322    5858.4636 
  156800    335.97051    -22101.92    128.18743   -22230.107   -23494.098 
  157000    297.37385   -22109.251    113.46112   -22222.712    27949.484 
  157200    272.75149    -22131.66    104.06661   -22235.726   -10686.283 
  157400    251.79147   -22129.609    96.069446   -22225.679   -20323.327 
  157600    315.60605   -22102.029     120.4175   -22222.446    11659.995 
  157800    305.21026   -22105.019    116.45105   -22221.471    3617.4212 
  158000    268.80368   -22126.777    102.56035   -22229.337   -18066.242 
  158200    304.59276   -22102.748    116.21544   -22218.964    11901.878 
  158400    290.86316   -22111.773      110.977    -22222.75   -4526.3471 
  158600    271.67412   -22111.942    103.65554   -22215.598   -11283.572 
  158800    326.75519   -22090.764    124.67138   -22215.436    4569.8023 
  159000    298.11029   -22113.312     113.7421   -22227.054    42792.722 
  159200    273.50428   -22109.731    104.35383   -22214.085    12136.982 
  159400    316.53754   -22080.142     120.7729   -22200.915   -33589.217 
  159600    310.12983   -22109.023    118.32808   -22227.351   -6384.9322 
  159800    291.01355   -22109.645    111.03438   -22220.679    13319.653 
  160000    336.96668   -22086.577    128.56751   -22215.145    7394.8854 
  160200    312.59026   -22113.205    119.26684   -22232.472     14170.04 
  160400    309.81718   -22113.401    118.20879    -22231.61   -20857.907 
  160600    345.21741   -22084.649    131.71552   -22216.365    6128.7967 
  160800    324.29341   -22104.208     123.7321    -22227.94   -3785.7375 
  161000    290.63737   -22110.561    110.89085   -22221.452   -5493.5503 
  161200    329.14977    -22093.18    125.58502   -22218.765   -5018.4072 
  161400    327.82701   -22094.847    125.08033   -22219.928   -2623.7881 
  161600    286.34041   -22115.892    109.25137   -22225.143     3379.129 
  161800    366.85185   -22092.548    139.97001   -22232.518    18048.325 
  162000    299.75161   -22100.058    114.36833   -22214.426    7537.7597 
  162200    282.73695   -22119.225     107.8765   -22227.102    1067.4405 
  162400    324.10115   -22091.209    123.65875   -22214.868    75.641465 
  162600    289.25313   -22100.799     110.3627   -22211.162    8904.5369 
  162800    253.03402   -22115.765    96.543532   -22212.309    692.28805 
  163000    316.05359   -22089.754    120.58825   -22210.342    1569.6706 
  163200    330.66453   -22089.016    126.16296   -22215.179     5164.602 
  163400     276.1961    -22113.98    105.38088   -22219.361    2509.6565 
  163600    280.35329    -22120.58    106.96703   -22227.547     586.6192 
  163800    304.12702   -22092.171    116.03775   -22208.209    5378.7219 
  164000    299.66616   -22112.641    114.33573   -22226.977   -4576.7054 
  164200    290.65063   -22110.047    110.89591   -22220.943   -1703.7877 
  164400    331.64843   -22087.198    126.53836   -22213.736    23363.212 
  164600     341.6995   -22091.699    130.37329   -22222.072    4232.3649 
  164800    312.05359   -22109.914    119.06208   -22228.976    607.68037 
  165000    283.71919   -22121.067    108.25126   -22229.318   -10610.319 
  165200    334.89296   -22090.838     127.7763   -22218.614    8191.9124 
  165400    296.55863   -22103.577    113.15007   -22216.728    45768.133 
  165600    301.25387   -22108.408    114.94151   -22223.349    -6411.952 
  165800    329.30353    -22106.13    125.64368   -22231.773    13057.536 
  166000    275.31851   -22107.034    105.04604    -22212.08   -31642.982 
  166200    322.19573   -22107.743    122.93175   -22230.674   -18430.479 
  166400     280.6701   -22121.211     107.0879   -22228.299   -8680.3242 
  166600    308.19083    -22108.55    117.58826   -22226.138   -7998.0001 
  166800    300.70082   -22102.665     114.7305   -22217.395   -18484.855 
  167000    261.79501   -22128.589    99.886234   -22228.476   -660.57824 
  167200    292.39827   -22115.765    111.56271   -22227.328    13760.926 
  167400    306.21703   -22091.985    116.83517    -22208.82   -4284.2252 
  167600    303.94376   -22116.373    115.96782    -22232.34   -24319.999 
  167800    298.99958   -22116.155     114.0814   -22230.236   -23803.646 
  168000    305.58718   -22099.455    116.59486    -22216.05   -70.048469 
  168200    347.02662    -22073.22    132.40582   -22205.626   -2086.9933 
  168400    294.72364   -22110.309    112.44994   -22222.759    8043.9526 
  168600    316.07402   -22114.558    120.59605   -22235.154    1976.5421 
  168800    298.40566   -22107.514     113.8548   -22221.369   -10478.078 
  169000    295.56352    -22090.84    112.77039    -22203.61   -15591.107 
  169200     262.8798   -22121.723    100.30013   -22222.023    473.57672 
  169400    328.16194   -22103.926    125.20812   -22229.134   -6693.1723 
  169600    315.91878   -22103.355    120.53682   -22223.892    13254.565 
  169800    281.54051   -22123.711       107.42   -22231.131   -4238.5989 
  170000    303.15882   -22099.397    115.66833   -22215.065    6354.6768 
  170200    293.73321   -22111.301    112.07205   -22223.373    2084.0247 
  170400    312.00372   -22112.917    119.04305    -22231.96    8441.8742 
  170600    275.28896   -22102.298    105.03476   -22207.333   -13891.917 
  170800    321.16303   -22084.208    122.53773   -22206.746   -13442.258 
  171000    285.61532   -22116.203    108.97472   -22225.178   -23724.705 
  171200     306.7806   -22110.786     117.0502   -22227.836    19801.263 
  171400    347.36432   -22087.806    132.53466   -22220.341   -19749.493 
  171600     285.7177   -22119.849    109.01379   -22228.862   -9101.4749 
  171800    309.32164   -22105.407    118.01972   -22223.427   -3198.1963 
  172000    319.60429   -22093.545      121.943   -22215.488   -37296.925 
  172200    279.13081   -22122.529     106.5006   -22229.029    7410.9685 
  172400    313.55189   -22104.357    119.63374    -22223.99   -18677.533 
  172600    339.53052   -22097.551    129.54573   -22227.096    3072.5403 
  172800    327.54016   -22109.696    124.97088   -22234.667    14720.561 
  173000    275.84656   -22123.352    105.24751   -22228.599   -3734.7193 
  173200    292.48637   -22114.908    111.59633   -22226.504   -1530.6282 
  173400    319.78944   -22095.847    122.01364    -22217.86    36070.276 
  173600     290.4855   -22125.965    110.83291   -22236.797    9340.2505 
  173800    264.70688   -22120.414    100.99724   -22221.411    16181.133 
  174000    290.50455   -22102.275    110.84018   -22213.115   -10532.307 
  174200    276.69224   -22125.466    105.57018   -22231.036    16286.936 
  174400    261.09428   -22116.563    99.618873   -22216.182    24502.751 
  174600    306.08897   -22101.131    116.78631   -22217.918   -16961.194 
  174800    284.08209   -22115.028    108.38973   -22223.418   -16126.355 
  175000     283.8368   -22130.137    108.29614   -22238.433    12085.771 
  175200    319.77391   -22098.775    122.00772   -22220.783    8233.5218 
  175400    272.33638   -22118.658    103.90823   -22222.566    12472.281 
  175600    345.65347   -22100.994     131.8819   -22232.875   -8937.9528 
  175800    321.17501   -22101.109     122.5423   -22223.652    14308.284 
  176000     283.6748   -22113.734    108.23433   -22221.968    9886.6292 
  176200    325.77547   -22108.149    124.29757   -22232.446    19760.826 
  176400    319.25143     -22107.5    121.80837   -22229.308   -2319.6775 
  176600    277.82917   -22118.424    106.00397   -22224.428   -4775.1099 
  176800     294.4459   -22124.491    112.34397   -22236.835    5650.2308 
  177000    317.34318   -22094.963    121.08029   -22216.043    30543.813 
  177200    307.75459   -22113.909    117.42182   -22231.331    5163.2636 
  177400    281.78128   -22121.705    107.51187   -22229.217   -4985.7417 
  177600    297.18673    -22103.88    113.38972    -22217.27    2820.4876 
  177800    338.42228    -22088.87    129.12288   -22217.993   -13594.248 
[...]
  950000     298.1995   -22240.058    113.77614   -22353.834   -24104.336 
  950200    298.46343   -22241.701    113.87684   -22355.578    8588.6114 
  950400    335.31777   -22214.288    127.93838   -22342.226   -9784.7013 
  950600    270.78371   -22236.408    103.31581   -22339.724   -3264.8855 
  950800    298.86122   -22231.387    114.02861   -22345.415   -7122.0082 
  951000    300.91523   -22227.307    114.81231   -22342.119   -28354.629 
  951200    283.44708   -22241.407    108.14744   -22349.554    26469.333 
  951400    272.42952   -22247.366    103.94376    -22351.31    -13930.24 
  951600    279.94591   -22222.611    106.81159   -22329.422    11324.839 
  951800    318.16899   -22228.993    121.39537   -22350.388    6011.7023 
  952000    283.93824   -22237.286    108.33484   -22345.621   -918.52669 
  952200    295.13627    -22232.02    112.60738   -22344.627   -2443.2699 
  952400    327.10976   -22210.013    124.80666   -22334.819    -14288.66 
  952600      267.028   -22243.225    101.88285   -22345.108   -2062.4075 
  952800    308.22659   -22223.331    117.60191   -22340.933   -1946.6613 
  953000    295.27851   -22222.317    112.66165   -22334.978    4484.7228 
  953200    262.01799   -22248.412    99.971309   -22348.383    23289.728 
  953400    301.78698   -22229.095    115.14492    -22344.24    8184.1101 
  953600    317.04236   -22224.741    120.96551   -22345.706   -7719.5487 
  953800    259.50406   -22238.676    99.012136   -22337.689   -16817.476 
  954000     242.5957   -22269.966    92.560857   -22362.527   -14878.163 
  954200    313.01989   -22237.177    119.43076   -22356.607    25483.975 
  954400    264.73583   -22217.602    101.00828   -22318.611    27495.557 
  954600    279.89713   -22228.351    106.79298   -22335.144   -12246.896 
  954800    289.16331   -22233.337    110.32843   -22343.666   -2978.1802 
  955000    300.12693   -22207.301    114.51154   -22321.812   -2381.6831 
  955200    323.08749   -22209.701    123.27199   -22332.973   -5159.9115 
  955400    290.34821   -22230.174    110.78053   -22340.955    5098.6702 
  955600    274.44169   -22243.203     104.7115   -22347.915    16204.618 
  955800     308.6604   -22212.401    117.76742   -22330.168   -25157.385 
  956000      304.669   -22231.301    116.24453   -22347.545    8322.2951 
  956200    279.14469   -22238.111    106.50589   -22344.617   -14636.153 
  956400    316.31696   -22222.018    120.68874   -22342.706    5305.3089 
  956600    319.63508   -22211.616    121.95474   -22333.571    -11410.42 
  956800    285.15271   -22239.568    108.79821   -22348.366    -10659.99 
  957000    308.71901   -22217.912    117.78979   -22335.702    3699.7142 
  957200    314.12616   -22216.714    119.85285   -22336.566   -7760.8459 
  957400    302.79986   -22230.583    115.53138   -22346.115    5140.3446 
  957600     293.9996   -22239.947    112.17369   -22352.121    2135.1951 
  957800    338.61325   -22211.432    129.19575   -22340.628   -7070.9044 
  958000    287.54362   -22229.674    109.71045   -22339.384    13498.052 
  958200    274.48483   -22237.244    104.72795   -22341.972   -7271.4011 
  958400    298.65758   -22217.047    113.95091   -22330.998   -12039.141 
  958600    265.25776   -22238.676    101.20742   -22339.883   -12.672662 
  958800    285.46129   -22243.358    108.91595   -22352.274    17118.147 
  959000    319.23056   -22217.018    121.80041   -22338.818    23844.285 
  959200    302.78222   -22228.721    115.52465   -22344.246    1397.8804 
  959400    305.40293   -22229.597    116.52456   -22346.121    -10802.34 
  959600    293.27927   -22224.892    111.89885    -22336.79    -1610.132 
  959800    308.03468    -22232.53    117.52869   -22350.059    2599.3169 
  960000    293.31657   -22243.178    111.91309   -22355.092   -16762.522 
  960200    322.37348   -22212.516    122.99957   -22335.515    9677.9753 
  960400    272.39882   -22230.809    103.93205   -22334.741    9625.2744 
  960600    270.47653   -22236.419    103.19861   -22339.618   -9452.6945 
  960800    289.57969    -22228.14     110.4873   -22338.627    887.44098 
  961000    288.72334    -22238.04    110.16057     -22348.2   -19386.868 
  961200     276.1199    -22247.05    105.35181   -22352.402   -838.92121 
  961400     276.5849   -22223.308    105.52922   -22328.838   -38092.997 
  961600    326.49614   -22222.229    124.57254   -22346.801     -9239.43 
  961800    278.89027   -22249.073    106.40882   -22355.482    4203.7681 
  962000    284.07776   -22223.714    108.38808   -22332.102   -1401.3304 
  962200    305.50101   -22227.551    116.56198   -22344.113    12685.387 
  962400    267.05912   -22255.052    101.89472   -22356.946   -9760.6831 
  962600    283.44051    -22230.19    108.14494   -22338.334    10849.351 
  962800    323.11824   -22223.908    123.28372   -22347.192    18309.411 
  963000    280.14783   -22241.924    106.88864   -22348.813   -2769.7537 
  963200    295.68908   -22228.778     112.8183   -22341.596    4534.1119 
  963400    316.86191   -22221.966    120.89666   -22342.863   -13120.234 
  963600    275.31433   -22243.399    105.04444   -22348.444    15831.868 
  963800    304.28393   -22216.742    116.09761    -22332.84   -1019.0582 
  964000    285.22059   -22225.983    108.82411   -22334.808   -15911.503 
  964200    284.01626    -22236.42    108.36461   -22344.785    4181.3717 
  964400    307.50825   -22209.917    117.32783   -22327.244    9376.1682 
  964600    298.05699   -22231.613    113.72176   -22345.334   -7883.0437 
  964800    313.44732   -22233.138    119.59384   -22352.732    11541.826 
  965000    328.11562    -22207.98    125.19044   -22333.171   -11970.575 
  965200    332.64182   -22199.348    126.91739   -22326.265   -3828.2037 
  965400    300.95181   -22232.134    114.82626    -22346.96    6674.0388 
  965600    293.76913   -22228.137    112.08576   -22340.223   -11266.935 
  965800    322.16161   -22208.935    122.91873   -22331.854    14319.628 
  966000    274.57057    -22231.76    104.76067    -22336.52    20073.284 
  966200    305.52875   -22234.471    116.57257   -22351.044    22091.655 
  966400    315.65593     -22207.6    120.43653   -22328.037    3492.6751 
  966600    330.76131   -22220.459    126.19989   -22346.659   -1466.3041 
  966800    301.60531   -22234.055     115.0756   -22349.131    10817.646 
  967000    291.56367   -22221.385    111.24428   -22332.629   -4976.9211 
  967200    309.77405   -22218.888    118.19233    -22337.08    -19956.48 
  967400    289.17892   -22241.371    110.33439   -22351.706    37657.073 
  967600    275.81529   -22228.229    105.23558   -22333.464    8570.3868 
  967800      339.919   -22225.815    129.69395   -22355.509   -31864.167 
  968000    272.18992   -22242.389    103.85235   -22346.241    3079.3046 
  968200     295.4817   -22250.019    112.73918   -22362.758     14996.79 
  968400    344.19282   -22216.831     131.3246   -22348.156   -2954.1991 
  968600     296.0992   -22235.459    112.97478   -22348.434   -3268.0796 
  968800    264.23486   -22252.951    100.81714   -22353.768   -2694.6963 
  969000    296.05661   -22226.736    112.95853   -22339.695    -9024.604 
  969200    323.10046   -22219.491    123.27694   -22342.768    15531.202 
  969400    285.52068    -22244.83    108.93861   -22353.769    24887.704 
  969600    299.82984   -22226.439    114.39818   -22340.837    4421.5015 
  969800    294.99891   -22224.928    112.55497   -22337.483    8263.9224 
  970000    266.63594   -22242.001    101.73326   -22343.734    11686.546 
  970200    270.29308   -22237.954    103.12862   -22341.083    5648.8213 
  970400     326.2835   -22218.758    124.49141    -22343.25   -4290.8661 
  970600    278.29427   -22245.444    106.18142   -22351.625   -8430.1699 
  970800     260.1327   -22258.805    99.251991   -22358.057    -9144.552 
  971000    294.60162   -22223.465    112.40339   -22335.868   -4839.4458 
  971200     308.7242   -22229.212    117.79177   -22347.003     -16396.6 
  971400    266.26491   -22248.279    101.59169   -22349.871   -28847.428 
  971600    331.11786   -22215.957    126.33593   -22342.293   -2394.1241 
  971800     285.5385   -22226.272    108.94541   -22335.217   -5946.8723 
  972000    279.73713   -22254.179    106.73194   -22360.911   -2089.4953 
  972200    272.90822   -22239.203    104.12641   -22343.329   -123.93653 
  972400    311.82255   -22218.941    118.97393   -22337.915   -4279.6988 
  972600    304.85242   -22236.494    116.31452   -22352.809    13205.487 
  972800       261.87   -22243.416    99.914843   -22343.331    -8981.235 
  973000    302.69745   -22220.442     115.4923   -22335.935    -23913.55 
  973200    299.73417   -22229.008    114.36168   -22343.369   -31629.108 
  973400    301.29935   -22239.909    114.95886   -22354.868   -1384.5183 
  973600    300.57265   -22215.096     114.6816   -22329.778    28650.855 
  973800    283.23405    -22227.44    108.06616   -22335.507    1954.3391 
  974000    265.13181   -22238.101    101.15937    -22339.26    12822.941 
  974200    307.55792   -22227.384    117.34678    -22344.73   -1429.0429 
  974400    300.86288   -22233.981    114.79233   -22348.773   -15047.152 
  974600    283.45868   -22246.718    108.15187    -22354.87    2323.5357 
  974800    279.22781   -22222.897    106.53761   -22329.434   -22445.588 
  975000    319.24194   -22226.816    121.80475   -22348.621   -15003.444 
  975200     253.8765   -22255.021    96.864976   -22351.886    1857.5869 
  975400    293.72952   -22234.438    112.07064   -22346.509    7719.7333 
  975600    300.17718   -22222.704    114.53071   -22337.234   -7.9080618 
  975800    293.61195   -22234.315    112.02578   -22346.341   -8156.6191 
  976000    277.26255   -22245.239    105.78778   -22351.027    6726.9681 
  976200    329.10927   -22216.002    125.56957   -22341.572     6459.399 
  976400      312.463   -22228.007    119.21828   -22347.225    3410.7666 
  976600    278.62868   -22250.525    106.30901   -22356.834   -23510.155 
  976800    288.79632   -22234.907    110.18841   -22345.095    952.57211 
  977000    297.58022   -22220.893    113.53985   -22334.433    3893.7782 
  977200    281.07605   -22219.844    107.24279   -22327.087    7430.4471 
  977400    284.53357   -22239.626    108.56199   -22348.188    252.77727 
  977600    331.06268    -22221.49    126.31488   -22347.805   -24225.491 
  977800     310.7265   -22231.757    118.55573   -22350.313   -330.98765 
  978000     328.3286   -22225.566     125.2717   -22350.838   -18313.131 
  978200    273.53863   -22239.931    104.36694   -22344.298    13544.053 
  978400    296.30879   -22227.544    113.05475   -22340.599    6094.1732 
  978600    315.24136   -22222.155    120.27835   -22342.433    4793.7513 
  978800    283.59325   -22230.487    108.20321    -22338.69    24950.208 
  979000    294.11569   -22224.391    112.21799   -22336.609    7291.5061 
  979200     247.7355   -22253.161    94.521915   -22347.683    7155.3179 
  979400    295.09849   -22233.786    112.59296   -22346.379   -2091.9632 
  979600    294.29271    -22223.27    112.28553   -22335.556    5500.0762 
  979800    349.89514   -22203.925    133.50028   -22337.425    10289.618 
  980000    317.27749   -22230.366    121.05522   -22351.421   -4683.3053 
  980200    312.31287   -22234.896      119.161   -22354.057   -10142.507 
  980400    349.36925     -22205.4    133.29963     -22338.7     15369.07 
  980600    295.53799    -22230.96    112.76066   -22343.721   -29893.258 
  980800     322.1764   -22229.378    122.92437   -22352.303    20057.801 
  981000    331.64843   -22217.638    126.53837   -22344.177   -247.47423 
  981200    324.41413   -22217.781    123.77816   -22341.559   -8473.5861 
  981400    280.21931   -22242.474    106.91591    -22349.39    2060.9079 
  981600    319.65007   -22217.718    121.96047   -22339.678    -22419.53 
  981800    313.15583   -22220.264    119.48263   -22339.747   -12519.614 
  982000      298.166   -22237.665    113.76335   -22351.428     6169.695 
  982200    326.89556   -22207.335    124.72494    -22332.06   -6189.6278 
  982400    317.92266   -22214.839    121.30138   -22336.141    4864.7145 
  982600    286.65954   -22235.452    109.37314   -22344.825    501.58615 
  982800    293.55392   -22224.172    112.00365   -22336.175    1207.4024 
  983000    338.54147   -22203.512    129.16836    -22332.68   -28914.612 
  983200     287.0692   -22232.469    109.52944   -22341.998    12320.641 
  983400    295.28778   -22235.115    112.66519    -22347.78   -24970.273 
  983600    348.70714   -22211.604    133.04701   -22344.651    27062.714 
  983800    284.66806    -22233.78     108.6133   -22342.394   -4056.1942 
  984000    274.00985   -22232.922    104.54673   -22337.468    4796.2358 
  984200    319.94153   -22223.329    122.07167     -22345.4   -1709.4861 
  984400    261.38781   -22252.266    99.730869   -22351.997    8470.7791 
  984600    312.37809   -22226.685    119.18589   -22345.871    21072.999 
  984800    303.31046   -22218.766    115.72619   -22334.492   -15930.223 
  985000    260.21442   -22247.635    99.283169   -22346.918    2450.9733 
  985200    287.19459   -22235.413    109.57728    -22344.99   -12154.222 
  985400    299.56003   -22224.757    114.29524   -22339.053    8747.2453 
  985600    319.06769   -22222.952    121.73826    -22344.69   -3475.2424 
  985800    250.87314   -22250.588    95.719062   -22346.307    10793.107 
  986000    303.21934   -22227.866    115.69143   -22343.557    -2514.543 
  986200    303.65204   -22226.458    115.85652   -22342.315   -5483.2404 
  986400    273.60736   -22247.258    104.39316   -22351.651     716.5084 
  986600    249.56328   -22238.579    95.219296   -22333.798    7127.5506 
  986800    279.25169   -22225.614    106.54672   -22332.161    7768.5419 
  987000    278.45764   -22244.898    106.24375   -22351.142   -1935.9829 
  987200    356.44717   -22222.964    136.00017   -22358.964    13759.982 
  987400    328.41215   -22222.593    125.30358   -22347.897   -13808.581 
  987600    255.78716   -22241.024    97.593977   -22338.618   -25267.109 
  987800    299.71884   -22224.342    114.35583   -22338.698    17405.839 
  988000    295.14899   -22226.912    112.61223   -22339.524    25518.331 
  988200    288.44963   -22237.934    110.05614    -22347.99   -13711.974 
  988400    256.30597   -22245.424    97.791925   -22343.216   -17732.534 
  988600    292.01129   -22218.925    111.41506    -22330.34    5985.3596 
  988800    291.53108    -22232.67    111.23184   -22343.901   -18673.772 
  989000    289.07928   -22252.723    110.29638    -22363.02    13037.363 
  989200    319.72753   -22221.524    121.99002   -22343.514   -14898.879 
  989400    338.78115   -22229.667    129.25981   -22358.927     8984.193 
  989600    274.63127   -22253.236    104.78383    -22358.02    -10243.35 
  989800    341.04345   -22227.146    130.12297   -22357.269    -12632.75 
  990000    290.92207   -22232.764    110.99948   -22343.763   -6544.5813 
  990200    290.10012   -22241.768    110.68587   -22352.454   -3006.9893 
  990400    300.12882   -22213.468    114.51226   -22327.981    23461.621 
  990600    279.03994   -22235.965    106.46593   -22342.431   -16026.473 
  990800    305.21513   -22240.957    116.45291    -22357.41   -7489.9316 
  991000    331.34812   -22224.209    126.42378   -22350.633   -7819.9186 
  991200    313.03957   -22203.158    119.43827   -22322.597   -12247.529 
  991400    343.78114   -22215.928    131.16753   -22347.096   -8648.7251 
  991600    281.02426   -22240.607    107.22303    -22347.83   -30112.951 
  991800    333.35629   -22223.389    127.18999   -22350.579    -16327.38 
  992000    305.56065   -22219.513    116.58474   -22336.098   -3430.2788 
  992200    302.48285   -22248.262    115.41042   -22363.673    14691.148 
  992400    308.42454   -22222.715    117.67744   -22340.392    -20609.75 
  992600    309.02564   -22216.773    117.90678    -22334.68    6722.6699 
  992800     276.2255   -22244.739    105.39209   -22350.131     4028.462 
  993000     292.3505   -22224.961    111.54449   -22336.506    3094.7287 
  993200     312.0801   -22227.048    119.07219    -22346.12   -2605.8565 
  993400    262.55435   -22257.562    100.17595   -22357.738   -2321.5634 
  993600    299.91219   -22241.218     114.4296   -22355.648     6392.321 
  993800     314.5973   -22219.342    120.03262   -22339.375   -22661.126 
  994000    291.35645   -22234.941    111.16521   -22346.106    22920.458 
  994200    271.68173    -22239.97    103.65845   -22343.628    2808.5048 
  994400    287.89488   -22221.954    109.84447   -22331.798    4381.3931 
  994600     328.1588   -22212.599    125.20692   -22337.805    2531.3471 
  994800    343.91104   -22219.624    131.21708   -22350.841   -7944.4691 
  995000    328.95459   -22234.458    125.51055   -22359.968    19439.943 
  995200    349.79885   -22205.591    133.46354   -22339.055    7440.6107 
  995400    294.41223   -22234.803    112.33113   -22347.135   -14784.932 
  995600    300.66805   -22225.744      114.718   -22340.462   -17775.335 
  995800    315.11943   -22232.397    120.23183   -22352.629    2829.8564 
  996000    287.44824   -22244.997    109.67406   -22354.671   -2772.8498 
  996200    291.14587   -22228.829    111.08487   -22339.914   -23209.615 
  996400    319.38203   -22222.383     121.8582   -22344.241    2334.1291 
  996600    323.97231   -22217.361    123.60959   -22340.971   -644.85112 
  996800    290.75254   -22241.263    110.93479   -22352.198   -15694.698 
  997000    296.92126   -22225.415    113.28843   -22338.704    6584.6993 
  997200    284.64476     -22202.9    108.60441   -22311.504   -29903.642 
  997400      302.596   -22228.518    115.45359   -22343.972    3901.4909 
  997600    305.91438   -22236.206     116.7197   -22352.926   -22617.403 
  997800    307.71583   -22203.285    117.40703   -22320.692   -10608.172 
  998000    313.68892   -22225.017    119.68603   -22344.703    9918.1686 
  998200    303.05817   -22230.826    115.62993   -22346.456    3380.5477 
  998400    323.35139   -22202.489    123.37268   -22325.862    27309.815 
  998600    326.65436   -22218.152    124.63291   -22342.785    22617.237 
  998800    294.70076   -22232.312    112.44122   -22344.753   -7147.5775 
  999000    293.09417   -22222.761    111.82823   -22334.589    2192.6467 
  999200    314.95917   -22220.721    120.17068   -22340.892   -16088.389 
  999400    283.67176   -22240.324    108.23317   -22348.557    8213.1363 
  999600    319.80082   -22214.751    122.01798   -22336.769   -15230.623 
  999800     280.1441   -22235.499    106.88721   -22342.387   -7999.9928 
 1000000    268.67961     -22236.4    102.51301   -22338.913   -15995.356 
Loop time of 3609.02 on 8 procs for 1000000 steps with 129 atoms

Performance: 5.985 ns/day, 4.010 hours/ns, 277.084 timesteps/s
99.4% CPU use with 8 MPI tasks x no OpenMP threads

MPI task timing breakdown:
Section |  min time  |  avg time  |  max time  |%varavg| %total
---------------------------------------------------------------
Pair    | 2596       | 2920.9     | 3127.1     | 321.2 | 80.93
Neigh   | 0.13786    | 0.14897    | 0.15849    |   1.8 |  0.00
Comm    | 26.434     | 231.35     | 554.87     |1139.9 |  6.41
Output  | 0.089254   | 0.097193   | 0.14252    |   5.5 |  0.00
Modify  | 451.94     | 454.16     | 456.03     |   7.7 | 12.58
Other   |            | 2.366      |            |       |  0.07

Nlocal:    16.125 ave 38 max 1 min
Histogram: 1 1 3 0 1 0 0 0 0 2
Nghost:    516.875 ave 552 max 475 min
Histogram: 1 0 1 1 0 0 3 0 1 1
Neighs:    1003.12 ave 2205 max 79 min
Histogram: 1 1 1 2 1 0 0 0 0 2

Total # of neighbors = 8025
Ave neighs/atom = 62.2093
Neighbor list builds = 285
Dangerous builds = 0

unfix 1
unfix output
undump 1

Please see the log.cite file for references relevant to this simulation

Total wall time: 1:00:20
