LAMMPS (3 Mar 2020)
# Alpha
clear
units		real
dimension 3
boundary        p p p
atom_style	charge
newton on
read_data       H_3.lmp
  orthogonal box = (0 0 0) to (16.114 16.113 16.112)
  2 by 2 by 2 MPI processor grid
  reading atoms ...
  201 atoms
  read_data CPU = 0.0109025 secs

timestep 0.25

# ---------- Define Interatomic Potential ---------------------
pair_style      reax/c NULL checkqeq no
pair_coeff      * * ffield.reax C H
fix             2 all qeq/reax 1 0.0 10.0 1.0e-6 reax/c

#------------ Equilibration of the system -------------------------
reset_timestep 0

dump 1 all custom 10 min.lammpstrj id type x y z

minimize 1.0e-8 1.0e-8 100000 100000
WARNING: Using 'neigh_modify every 1 delay 0 check yes' setting during minimization (../min.cpp:190)
WARNING: Total cutoff < 2*bond cutoff. May need to use an increased neighbor list skin. (../pair_reaxc.cpp:413)
Neighbor list info ...
  update every 1 steps, delay 0 steps, check yes
  max neighbors/atom: 2000, page size: 100000
  master list distance cutoff = 9.5
  ghost atom cutoff = 9.5
  binsize = 4.75, bins = 4 4 4
  2 neighbor lists, perpetual/occasional/extra = 2 0 0
  (1) pair reax/c, perpetual
      attributes: half, newton off, ghost
      pair build: half/bin/newtoff/ghost
      stencil: half/ghost/bin/3d/newtoff
      bin: standard
  (2) fix qeq/reax, perpetual, copy from (1)
      attributes: half, newton off, ghost
      pair build: copy
      stencil: none
      bin: none
Per MPI rank memory allocation (min/avg/max) = 25.25 | 25.52 | 25.79 Mbytes
Step Temp E_pair E_mol TotEng Press 
       0            0   -39003.352            0   -39003.352     32700.42 
      48            0   -39037.657            0   -39037.657     18388.97 
Loop time of 2.06145 on 8 procs for 48 steps with 201 atoms

99.2% CPU use with 8 MPI tasks x no OpenMP threads

Minimization stats:
  Stopping criterion = energy tolerance
  Energy initial, next-to-last, final = 
        -39003.3524376     -39037.6562827      -39037.656511
  Force two-norm initial, final = 373.563 81.3728
  Force max component initial, final = 108.637 28.2167
  Final line search alpha, max atom move = 0.00011066 0.00312245
  Iterations, force evaluations = 48 238

MPI task timing breakdown:
Section |  min time  |  avg time  |  max time  |%varavg| %total
---------------------------------------------------------------
Pair    | 1.581      | 1.6233     | 1.6697     |   2.1 | 78.75
Neigh   | 0          | 0          | 0          |   0.0 |  0.00
Comm    | 0.013196   | 0.059677   | 0.10203    |  11.0 |  2.89
Output  | 0.00015126 | 0.00018662 | 0.00028134 |   0.0 |  0.01
Modify  | 0.37533    | 0.37543    | 0.37554    |   0.0 | 18.21
Other   |            | 0.002871   |            |       |  0.14

Nlocal:    25.125 ave 28 max 22 min
Histogram: 1 0 0 2 0 1 3 0 0 1
Nghost:    966.375 ave 979 max 954 min
Histogram: 1 0 2 0 1 1 0 2 0 1
Neighs:    4309.5 ave 4694 max 3880 min
Histogram: 1 0 0 2 0 1 3 0 0 1

Total # of neighbors = 34476
Ave neighs/atom = 171.522
Neighbor list builds = 0
Dangerous builds = 0

###
min_style cg
minimize 1.0e-8 1.0e-8 100000 100000
WARNING: Using 'neigh_modify every 1 delay 0 check yes' setting during minimization (../min.cpp:190)
WARNING: Total cutoff < 2*bond cutoff. May need to use an increased neighbor list skin. (../pair_reaxc.cpp:413)
Per MPI rank memory allocation (min/avg/max) = 25.25 | 25.52 | 25.79 Mbytes
Step Temp E_pair E_mol TotEng Press 
      48            0   -39037.657            0   -39037.657     18388.97 
      49            0   -39037.657            0   -39037.657    18388.911 
Loop time of 0.0762135 on 8 procs for 1 steps with 201 atoms

99.5% CPU use with 8 MPI tasks x no OpenMP threads

Minimization stats:
  Stopping criterion = energy tolerance
  Energy initial, next-to-last, final = 
         -39037.656511      -39037.656511     -39037.6565891
  Force two-norm initial, final = 81.3728 81.3471
  Force max component initial, final = 28.2167 28.2088
  Final line search alpha, max atom move = 0.00011075 0.00312413
  Iterations, force evaluations = 1 8

MPI task timing breakdown:
Section |  min time  |  avg time  |  max time  |%varavg| %total
---------------------------------------------------------------
Pair    | 0.059597   | 0.06103    | 0.062927   |   0.4 | 80.08
Neigh   | 0          | 0          | 0          |   0.0 |  0.00
Comm    | 0.00036604 | 0.0022681  | 0.0037066  |   2.0 |  2.98
Output  | 0          | 0          | 0          |   0.0 |  0.00
Modify  | 0.012732   | 0.012736   | 0.012738   |   0.0 | 16.71
Other   |            | 0.000179   |            |       |  0.23

Nlocal:    25.125 ave 28 max 22 min
Histogram: 1 0 0 2 0 1 3 0 0 1
Nghost:    966.375 ave 979 max 954 min
Histogram: 1 0 2 0 1 1 0 2 0 1
Neighs:    4304.75 ave 4688 max 3874 min
Histogram: 1 0 0 2 0 1 3 0 0 1

Total # of neighbors = 34438
Ave neighs/atom = 171.333
Neighbor list builds = 0
Dangerous builds = 0

###
fix 1 all box/relax aniso 0.0
min_style cg
minimize 1.0e-8 1.0e-8 100000 100000
WARNING: Using 'neigh_modify every 1 delay 0 check yes' setting during minimization (../min.cpp:190)
WARNING: Total cutoff < 2*bond cutoff. May need to use an increased neighbor list skin. (../pair_reaxc.cpp:413)
Per MPI rank memory allocation (min/avg/max) = 25.25 | 25.52 | 25.79 Mbytes
Step Temp E_pair E_mol TotEng Press Volume 
      49            0   -39037.657            0   -39037.657    18388.911    4183.3983 
     167            0   -39040.864            0   -39040.864   -542.26276    4193.8993 
Loop time of 1.60715 on 8 procs for 118 steps with 201 atoms

99.2% CPU use with 8 MPI tasks x no OpenMP threads

Minimization stats:
  Stopping criterion = energy tolerance
  Energy initial, next-to-last, final = 
        -39037.6565891     -39040.8639027     -39040.8642121
  Force two-norm initial, final = 1945.26 70.0259
  Force max component initial, final = 1147.17 39.3145
  Final line search alpha, max atom move = 3.19031e-06 0.000125425
  Iterations, force evaluations = 118 203

MPI task timing breakdown:
Section |  min time  |  avg time  |  max time  |%varavg| %total
---------------------------------------------------------------
Pair    | 1.3399     | 1.3788     | 1.4224     |   2.2 | 85.79
Neigh   | 0          | 0          | 0          |   0.0 |  0.00
Comm    | 0.0085244  | 0.052154   | 0.091138   |  11.4 |  3.25
Output  | 0.00043104 | 0.00055533 | 0.00083262 |   0.0 |  0.03
Modify  | 0.16941    | 0.16944    | 0.16947    |   0.0 | 10.54
Other   |            | 0.006155   |            |       |  0.38

Nlocal:    25.125 ave 28 max 22 min
Histogram: 1 0 0 2 0 1 3 0 0 1
Nghost:    966.375 ave 979 max 954 min
Histogram: 1 0 2 0 1 1 0 2 0 1
Neighs:    4304.75 ave 4688 max 3874 min
Histogram: 1 0 0 2 0 1 3 0 0 1

Total # of neighbors = 34438
Ave neighs/atom = 171.333
Neighbor list builds = 0
Dangerous builds = 0

unfix 1
###
min_style cg
minimize 1.0e-8 1.0e-8 100000 100000
WARNING: Using 'neigh_modify every 1 delay 0 check yes' setting during minimization (../min.cpp:190)
WARNING: Total cutoff < 2*bond cutoff. May need to use an increased neighbor list skin. (../pair_reaxc.cpp:413)
Per MPI rank memory allocation (min/avg/max) = 25.25 | 25.52 | 25.79 Mbytes
Step Temp E_pair E_mol TotEng Press 
     167            0   -39040.864            0   -39040.864   -542.26276 
     187            0   -39041.806            0   -39041.806    14172.562 
Loop time of 0.882818 on 8 procs for 20 steps with 201 atoms

99.4% CPU use with 8 MPI tasks x no OpenMP threads

Minimization stats:
  Stopping criterion = energy tolerance
  Energy initial, next-to-last, final = 
        -39040.8642121     -39041.8056863     -39041.8056877
  Force two-norm initial, final = 39.1774 67.5379
  Force max component initial, final = 11.0251 20.6156
  Final line search alpha, max atom move = 0.000535305 0.0110357
  Iterations, force evaluations = 20 103

MPI task timing breakdown:
Section |  min time  |  avg time  |  max time  |%varavg| %total
---------------------------------------------------------------
Pair    | 0.68624    | 0.70468    | 0.72572    |   1.5 | 79.82
Neigh   | 0          | 0          | 0          |   0.0 |  0.00
Comm    | 0.0044211  | 0.025464   | 0.043941   |   7.8 |  2.88
Output  | 7.1163e-05 | 8.4349e-05 | 0.00012402 |   0.0 |  0.01
Modify  | 0.1513     | 0.15134    | 0.15137    |   0.0 | 17.14
Other   |            | 0.001249   |            |       |  0.14

Nlocal:    25.125 ave 28 max 22 min
Histogram: 1 0 0 2 0 1 3 0 0 1
Nghost:    966.375 ave 979 max 954 min
Histogram: 1 0 2 0 1 1 0 2 0 1
Neighs:    4300 ave 4685 max 3868 min
Histogram: 1 0 0 2 0 1 3 0 0 1

Total # of neighbors = 34400
Ave neighs/atom = 171.144
Neighbor list builds = 0
Dangerous builds = 0

###
fix 1 all box/relax aniso 0.0
min_style cg
minimize 1.0e-8 1.0e-8 100000 100000
WARNING: Using 'neigh_modify every 1 delay 0 check yes' setting during minimization (../min.cpp:190)
WARNING: Total cutoff < 2*bond cutoff. May need to use an increased neighbor list skin. (../pair_reaxc.cpp:413)
Per MPI rank memory allocation (min/avg/max) = 25.25 | 25.52 | 25.79 Mbytes
Step Temp E_pair E_mol TotEng Press Volume 
     187            0   -39041.806            0   -39041.806    14172.562    4193.8993 
     236            0   -39042.568            0   -39042.568    506.17093    4197.8732 
Loop time of 0.704974 on 8 procs for 49 steps with 201 atoms

99.3% CPU use with 8 MPI tasks x no OpenMP threads

Minimization stats:
  Stopping criterion = energy tolerance
  Energy initial, next-to-last, final = 
        -39041.8056877     -39042.5673328      -39042.567561
  Force two-norm initial, final = 1502.98 59.5097
  Force max component initial, final = 874.09 38.1392
  Final line search alpha, max atom move = 5.1779e-06 0.000197481
  Iterations, force evaluations = 49 89

MPI task timing breakdown:
Section |  min time  |  avg time  |  max time  |%varavg| %total
---------------------------------------------------------------
Pair    | 0.5933     | 0.60616    | 0.62479    |   1.3 | 85.98
Neigh   | 0          | 0          | 0          |   0.0 |  0.00
Comm    | 0.0036109  | 0.022252   | 0.035135   |   6.7 |  3.16
Output  | 0.00017145 | 0.00020719 | 0.00031271 |   0.0 |  0.03
Modify  | 0.073611   | 0.073626   | 0.073652   |   0.0 | 10.44
Other   |            | 0.002729   |            |       |  0.39

Nlocal:    25.125 ave 28 max 23 min
Histogram: 2 0 1 0 1 0 3 0 0 1
Nghost:    966.375 ave 979 max 953 min
Histogram: 1 0 1 1 1 1 0 2 0 1
Neighs:    4301.88 ave 4685 max 4012 min
Histogram: 2 0 1 0 1 1 2 0 0 1

Total # of neighbors = 34415
Ave neighs/atom = 171.219
Neighbor list builds = 0
Dangerous builds = 0

unfix 1
###
min_style cg
minimize 1.0e-8 1.0e-8 100000 100000
WARNING: Using 'neigh_modify every 1 delay 0 check yes' setting during minimization (../min.cpp:190)
WARNING: Total cutoff < 2*bond cutoff. May need to use an increased neighbor list skin. (../pair_reaxc.cpp:413)
Per MPI rank memory allocation (min/avg/max) = 25.25 | 25.52 | 25.79 Mbytes
Step Temp E_pair E_mol TotEng Press 
     236            0   -39042.568            0   -39042.568    506.17093 
     271            0   -39043.325            0   -39043.325    10524.031 
Loop time of 1.74494 on 8 procs for 35 steps with 201 atoms

99.3% CPU use with 8 MPI tasks x no OpenMP threads

Minimization stats:
  Stopping criterion = energy tolerance
  Energy initial, next-to-last, final = 
         -39042.567561     -39043.3247548     -39043.3247584
  Force two-norm initial, final = 24.0935 19.769
  Force max component initial, final = 4.19042 6.55655
  Final line search alpha, max atom move = 0.00707356 0.0463782
  Iterations, force evaluations = 35 205

MPI task timing breakdown:
Section |  min time  |  avg time  |  max time  |%varavg| %total
---------------------------------------------------------------
Pair    | 1.3638     | 1.3911     | 1.4374     |   2.1 | 79.72
Neigh   | 0          | 0          | 0          |   0.0 |  0.00
Comm    | 0.0089968  | 0.055357   | 0.082678   |  10.5 |  3.17
Output  | 0.00015121 | 0.00018399 | 0.0002752  |   0.0 |  0.01
Modify  | 0.29584    | 0.29586    | 0.29589    |   0.0 | 16.96
Other   |            | 0.002445   |            |       |  0.14

Nlocal:    25.125 ave 28 max 23 min
Histogram: 2 0 1 0 1 0 3 0 0 1
Nghost:    966.375 ave 979 max 953 min
Histogram: 1 0 1 1 1 1 0 2 0 1
Neighs:    4299.88 ave 4682 max 4008 min
Histogram: 2 0 1 0 1 0 3 0 0 1

Total # of neighbors = 34399
Ave neighs/atom = 171.139
Neighbor list builds = 0
Dangerous builds = 0

undump 1
#############
#----------- Thermo ------------
reset_timestep 0
thermo  200

thermo_style    custom step temp etotal ke pe press
velocity all create 300 12345 mom yes rot yes
fix 1 all npt temp 300 300 25.0 iso 0.0 0.0 250.0

variable vpe equal pe
variable vtemp equal temp
variable vstep equal step

fix output all print 2500 "${vstep} ${vtemp} ${vpe}" file temp-tpdh-Pt.dat screen no

dump 1 all custom 2500 thermo-tpdh-Pt.lammpstrj id type x y z

run 1000000
WARNING: Total cutoff < 2*bond cutoff. May need to use an increased neighbor list skin. (../pair_reaxc.cpp:413)
Per MPI rank memory allocation (min/avg/max) = 24.12 | 24.39 | 24.67 Mbytes
Step Temp TotEng KinEng PotEng Press 
       0          300   -38864.476     178.8486   -39043.325    12471.583 
     200    193.16806   -38806.281    115.15946   -38921.441     12887.67 
     400    253.15446    -38713.06    150.92107   -38863.981   -34213.192 
     600    342.96876   -38639.263    204.46494   -38843.728   -18331.552 
     800    309.86318   -38666.574    184.72866   -38851.302   -19379.418 
    1000    242.67699   -38697.722     144.6748   -38842.396   -2744.4251 
    1200     308.0477   -38659.078    183.64634   -38842.724   -698.33654 
    1400    292.00872   -38656.479    174.08451   -38830.564    3816.5102 
    1600     300.6408   -38683.528    179.23062   -38862.759   -7325.2599 
    1800    287.96673   -38671.841    171.67482   -38843.516    41769.323 
    2000    321.93144   -38652.055    191.92329   -38843.978    25343.173 
    2200    315.08506   -38667.896    187.84174   -38855.738     2475.805 
    2400    272.44931   -38683.284    162.42393   -38845.708    11880.562 
    2600    275.42475   -38690.234    164.19777   -38854.431    5788.3756 
    2800    310.77611   -38656.279    185.27291   -38841.552   -1817.2761 
    3000    288.31762    -38674.25    171.88401   -38846.134    32319.664 
    3200    273.75678   -38708.175    163.20339   -38871.378   -44825.865 
    3400    305.09011    -38681.09    181.88313   -38862.973    10305.781 
    3600    323.36309   -38661.886    192.77679   -38854.663   -4496.2215 
    3800    322.96572   -38659.131    192.53989   -38851.671   -32834.276 
    4000    285.34879   -38689.195    170.11411   -38859.309   -25667.663 
    4200    321.83432   -38653.977    191.86539   -38845.843   -18054.236 
    4400    302.12903   -38669.578    180.11785   -38849.696   -11007.613 
    4600    286.72812   -38692.999    170.93641   -38863.936     28281.67 
    4800    287.92256   -38684.265    171.64849   -38855.914   -29365.341 
    5000    312.28955    -38662.05    186.17517   -38848.225   -23345.054 
    5200    292.67998    -38671.78    174.48468   -38846.264    2842.7832 
    5400    278.78491   -38691.423    166.20097   -38857.624    -25511.11 
    5600     331.0885   -38651.522    197.38238   -38848.905   -33954.373 
    5800    287.44997   -38675.226    171.36675   -38846.592    26656.941 
    6000     304.4514   -38676.591    181.50236   -38858.093    30158.094 
    6200     305.7842   -38669.267    182.29692   -38851.564   -9246.4296 
    6400    272.18336   -38677.743    162.26538   -38840.008   -200.09447 
    6600    296.60718   -38676.589    176.82593   -38853.415    14857.602 
    6800    328.21042   -38647.865    195.66658   -38843.531    9376.5386 
    7000    282.76922   -38684.614    168.57627    -38853.19   -6563.5166 
    7200    302.07047   -38677.044    180.08294   -38857.127   -13462.523 
    7400    334.34616   -38647.774    199.32448   -38847.098   -22774.522 
    7600    301.34595   -38670.685    179.65101   -38850.336    9445.7394 
    7800    278.56007   -38687.257    166.06693   -38853.324   -8177.6099 
    8000    315.26788   -38655.818    187.95073   -38843.769    30.957604 
    8200    308.87509   -38667.805    184.13959   -38851.945   -41972.213 
    8400    298.47045   -38671.951    177.93674   -38849.888    16933.702 
    8600    326.60338   -38672.846    194.70853   -38867.555    35108.132 
    8800    310.89077   -38670.932    185.34126   -38856.273    26003.133 
    9000    279.11327   -38685.496    166.39673   -38851.892    2176.6288 
    9200    291.44705   -38675.125    173.74966   -38848.875    561.04847 
    9400    305.05102   -38652.397    181.85983   -38834.256    20049.213 
    9600    298.43246   -38676.579    177.91409   -38854.493   -12724.126 
    9800    268.48584   -38724.009    160.06106    -38884.07   -22703.896 
   10000    294.31236   -38693.281    175.45785   -38868.739    6755.5492 
   10200    320.89341   -38658.517    191.30446   -38849.822   -12364.445 
   10400    311.84398   -38673.422    185.90953   -38859.331    11784.195 
   10600    273.21112   -38693.066    162.87809   -38855.944   -30429.443 
   10800    302.93023   -38676.296    180.59549   -38856.892   -25970.727 
   11000     304.8334   -38655.461    181.73009   -38837.191   -7940.4913 
   11200    293.51376     -38683.3    174.98175   -38858.282    2782.3339 
   11400    290.34292    -38683.78    173.09142   -38856.871    7802.5936 
   11600    304.63475   -38666.128    181.61166    -38847.74   -19793.835 
   11800    305.04564   -38664.673    181.85662    -38846.53   -8387.0319 
   12000    313.71435   -38672.054    187.02458   -38859.079    4064.2097 
   12200    287.65238   -38686.508    171.48742   -38857.995     3889.299 
   12400     290.4569   -38677.054    173.15937   -38850.214   -4280.1047 
   12600    330.23817   -38655.046    196.87545   -38851.922    9458.9658 
   12800    295.99592   -38691.525    176.46152   -38867.986   -10155.141 
   13000    290.90441   -38686.125    173.42616   -38859.551    47050.859 
   13200    311.62993   -38660.804    185.78193   -38846.586   -2516.0229 
   13400    310.90434   -38681.498    185.34936   -38866.847   -12856.832 
   13600    301.43651   -38692.027    179.70499   -38871.732   -2114.2238 
   13800    303.69294   -38665.119    181.05019    -38846.17   -20863.529 
   14000    305.21232   -38662.882    181.95599   -38844.838    17699.974 
   14200    269.65722   -38694.251    160.75939    -38855.01    3040.5763 
   14400    305.07479   -38664.345      181.874   -38846.219   -41768.325 
   14600    305.24304   -38661.003     181.9743   -38842.977   -7515.4184 
   14800    275.42051   -38684.258    164.19525   -38848.453    33951.746 
   15000    272.75803   -38712.964    162.60798   -38875.572   -14068.359 
   15200     294.9415   -38676.511    175.83292   -38852.344   -3299.2853 
   15400    302.26232   -38657.479    180.19731   -38837.677   -577.53371 
   15600    302.48518   -38675.732    180.33017   -38856.063   -6495.5007 
   15800    323.12788   -38685.669    192.63657   -38878.306   -7945.0702 
   16000    302.95083   -38663.925    180.60777   -38844.533   -9629.2413 
   16200    277.33515   -38668.933    165.33668   -38834.269   -9559.7418 
   16400    297.84333   -38688.049    177.56288   -38865.611    21406.104 
   16600    304.18085   -38691.069    181.34106    -38872.41    37042.544 
   16800    295.15567   -38670.604     175.9606   -38846.564   -25324.067 
   17000    303.42288   -38658.895     180.8892   -38839.785   -36539.924 
   17200    297.99241   -38682.254    177.65176   -38859.906   -19202.734 
   17400    327.41967   -38678.959    195.19517   -38874.154   -12735.496 
   17600     321.4978   -38664.642    191.66477   -38856.307   -21711.651 
   17800    302.81914   -38675.363    180.52927   -38855.892    27747.297 
   18000    277.67886    -38709.23    165.54159   -38874.771   -24133.947 
   18200    306.29256   -38668.953    182.59999   -38851.553    43506.058 
   18400    306.18957   -38667.019    182.53859   -38849.558    4551.8005 
   18600    279.25555   -38694.788    166.48155    -38861.27    11371.937 
   18800    280.16424   -38671.632    167.02327   -38838.655   -1393.5375 
   19000    292.13735   -38662.691    174.16119   -38836.853   -6015.2992 
   19200    282.98195    -38692.06    168.70309   -38860.763   -33495.771 
   19400    304.04745   -38675.828    181.26154    -38857.09   -17286.145 
   19600    299.95164   -38657.001    178.81977   -38835.821    30047.862 
   19800    288.99853   -38686.662    172.28994   -38858.952   -18001.095 
   20000    275.52459   -38678.355    164.25729   -38842.612   -13378.149 
   20200    293.40056   -38655.474    174.91427   -38830.389   -9773.3821 
   20400    285.31036    -38671.77     170.0912   -38841.861    10711.635 
   20600    296.07592   -38676.828    176.50922   -38853.338   -43629.598 
   20800    338.82506   -38646.225    201.99463    -38848.22   -22607.887 
   21000    283.33303   -38683.515    168.91239   -38852.427    4672.6615 
   21200    300.46681   -38675.319     179.1269   -38854.446   -21602.084 
   21400    293.13904   -38655.612    174.75836    -38830.37    39186.217 
   21600    293.04452   -38671.045    174.70201   -38845.747   -10919.001 
   21800    293.48667   -38672.066     174.9656   -38847.032    14283.482 
   22000    315.81506   -38682.514    188.27694   -38870.791    5478.9689 
   22200    312.64151   -38664.286    186.38499   -38850.671   -15580.383 
   22400    303.36088   -38661.157    180.85223    -38842.01   -584.32221 
   22600    268.64445   -38696.216    160.15561   -38856.372     36878.18 
   22800    304.60099   -38676.888    181.59154   -38858.479     33218.32 
   23000    308.30229    -38663.69    183.79811   -38847.488    -18443.52 
   23200    290.62535   -38681.843     173.2598   -38855.103   -4154.0644 
   23400    284.26425   -38702.531    169.46755   -38871.998    7528.6923 
   23600    302.23883   -38671.103    180.18331   -38851.286    14239.129 
   23800    288.80432   -38663.442    172.17417   -38835.616   -10145.088 
   24000    271.92178    -38689.73    162.10943    -38851.84    16076.466 
   24200    296.32437    -38663.75    176.65733   -38840.407   -27538.401 
   24400    314.10227   -38659.279    187.25584   -38846.535    19091.665 
   24600    281.83802   -38670.711    168.02112   -38838.732    5657.7831 
   24800    269.15576   -38688.519    160.46044    -38848.98    9734.5626 
   25000    303.38626   -38679.397    180.86736   -38860.264    11576.815 
   25200    301.27949   -38658.001    179.61139   -38837.613    20464.628 
   25400    305.09664   -38675.798    181.88703   -38857.685    5463.8606 
   25600     310.7477   -38685.595    185.25598   -38870.851   -15575.889 
   25800    306.70719   -38663.293    182.84717    -38846.14    6032.7247 
   26000    279.08532   -38671.707    166.38007   -38838.087    35049.191 
   26200     307.7922   -38679.514    183.49402   -38863.008    37362.692 
   26400    298.78938   -38668.783    178.12688    -38846.91   -8125.8148 
   26600    321.34725   -38658.159    191.57502   -38849.734   -13919.903 
   26800    269.84183   -38690.643    160.86945   -38851.513   -15974.917 
   27000     303.2186   -38672.458    180.76741   -38853.225    19509.959 
   27200    327.33583   -38647.564    195.14519   -38842.709    509.23238 
   27400     313.7174   -38648.686    187.02639   -38835.713    7458.2433 
   27600    291.18273   -38674.559    173.59208   -38848.151    14509.125 
   27800    310.80187    -38684.21    185.28827   -38869.498    20581.457 
   28000    280.64713    -38682.62    167.31116   -38849.931   -26659.175 
   28200    307.48974   -38659.774     183.3137   -38843.087     7755.102 
   28400    290.60896   -38684.624    173.25002   -38857.874     33520.58 
   28600    279.77006   -38690.737    166.78828   -38857.525   -20384.033 
   28800    299.39009   -38667.736      178.485   -38846.221   -7090.3897 
   29000    290.17072    -38665.33    172.98876   -38838.319   -23392.595 
   29200    288.11661   -38689.778    171.76418   -38861.543    4442.3989 
   29400    282.53293   -38675.717     168.4354   -38844.152   -2226.9471 
   29600     330.9554   -38657.012    197.30304   -38854.315    8307.3963 
   29800    279.90145   -38691.231    166.86661   -38858.097    5989.7398 
   30000    296.19218   -38686.657    176.57852   -38863.235    17452.585 
   30200     308.6118    -38666.65    183.98263   -38850.633    21866.646 
   30400    283.49016   -38666.401    169.00606   -38835.407    14350.843 
   30600    297.72056   -38681.744    177.48969   -38859.234   -12817.667 
   30800    285.60319   -38674.672    170.26577   -38844.937   -20194.413 
   31000    294.40009   -38655.163    175.51015   -38830.673   -7386.2924 
   31200    268.72226   -38692.634    160.20201   -38852.836    8094.1955 
   31400    327.01578   -38686.898    194.95439   -38881.852    11711.456 
   31600    282.94174   -38660.107    168.67912   -38828.786    24299.757 
   31800    283.75753   -38660.179    169.16546   -38829.345   -11644.866 
   32000    297.51125   -38686.421     177.3649   -38863.785   -11445.289 
   32200    310.40717    -38656.28    185.05296   -38841.333    -8595.793 
   32400    296.66964   -38660.723    176.86317   -38837.587   -24059.166 
   32600    293.17025   -38674.816    174.77696   -38849.593    16168.313 
   32800      302.071   -38692.651    180.08325   -38872.735   -17056.876 
   33000    287.41532   -38677.413    171.34609   -38848.759   -22190.829 
   33200    303.26472   -38652.846    180.79491   -38833.641   -4453.5242 
   33400    282.43584   -38690.184    168.37752   -38858.562   -413.42639 
   33600    292.42756   -38680.137     174.3342   -38854.471   -6572.6896 
   33800    297.93647   -38667.723    177.61841   -38845.341    11159.389 
   34000    304.79014   -38663.186     181.7043    -38844.89    13416.078 
   34200    305.75786   -38663.997    182.28122   -38846.279     15094.38 
   34400    278.61237   -38688.831    166.09811   -38854.929    8783.2575 
   34600    329.28987   -38650.619    196.31011   -38846.929    1533.5912 
   34800    324.57161   -38663.016    193.49727   -38856.513    9032.9856 
   35000    269.09454   -38691.914    160.42394   -38852.338    3718.4378 
   35200    275.45873    -38669.69    164.21803   -38833.908    25597.375 
   35400     296.9116   -38664.252    177.00742   -38841.259   -1853.6924 
   35600    299.90739   -38681.229    178.79339   -38860.022    30430.337 
   35800    268.60351   -38693.474    160.13121   -38853.606   -4263.1834 
   36000    306.29161   -38654.547    182.59942   -38837.146    10177.025 
   36200    298.63349   -38671.377    178.03394   -38849.411   -18334.372 
   36400     265.1803   -38707.994    158.09042   -38866.084    6696.4383 
   36600    262.43613   -38693.559    156.45445   -38850.013   -23982.123 
   36800    301.69288   -38662.583    179.85783   -38842.441   -10704.182 
   37000    315.86104   -38664.413    188.30435   -38852.717    26468.222 
   37200    283.91147   -38693.954    169.25723   -38863.211    1785.9383 
   37400    284.87093   -38680.564    169.82922   -38850.394   -5119.2924 
   37600    325.00221   -38655.845    193.75397   -38849.599    46146.671 
   37800    291.18533   -38673.585    173.59363   -38847.179    10783.401 
   38000     295.6007    -38679.06    176.22591   -38855.286   -15073.277 
   38200    294.18397   -38665.557     175.3813   -38840.938   -7483.2729 
   38400    304.53777   -38641.478    181.55385   -38823.032   -24777.282 
   38600    309.55328   -38671.063    184.54391   -38855.607    98.422848 
   38800    309.13231   -38678.619    184.29294   -38862.912    17197.662 
   39000    295.37761   -38640.343    176.09291   -38816.436    14686.499 
   39200    315.53186   -38663.978    188.10811   -38852.086   -25993.746 
   39400     301.4581    -38673.43    179.71787   -38853.148   -33034.607 
   39600    320.14099   -38651.208     190.8559   -38842.064   -16714.486 
   39800    288.82302   -38669.538    172.18531   -38841.724    13545.817 
   40000    292.73974   -38679.877    174.52031   -38854.398    22629.126 
   40200    314.92381   -38651.099    187.74561   -38838.844   -11548.243 
   40400    297.13787   -38643.448    177.14231    -38820.59   -6377.3677 
   40600    291.60589   -38667.219    173.84435   -38841.063    6922.3652 
   40800    263.94435   -38691.851     157.3536   -38849.205    4758.6939 
   41000    287.70642   -38682.628    171.51964   -38854.148    16290.434 
   41200    304.22231   -38654.743    181.36579   -38836.109    19075.584 
   41400    294.24026   -38682.805    175.41487    -38858.22     28718.64 
   41600    311.18088    -38676.33    185.51422   -38861.845    6229.1169 
   41800    299.37225   -38651.444    178.47436   -38829.918   -15072.725 
   42000    279.72561   -38681.073    166.76178   -38847.835    4919.5664 
   42200     291.8768   -38661.876    174.00586   -38835.882   -4069.9464 
   42400    298.17589   -38653.326    177.76114   -38831.087   -55522.212 
   42600    277.43659   -38682.846    165.39716   -38848.243     6969.145 
   42800    268.53605   -38675.499    160.09099    -38835.59    7495.1301 
   43000    309.37657   -38667.912    184.43856    -38852.35   -485.60524 
   43200    307.16797    -38657.42    183.12187   -38840.542    2881.0828 
   43400    290.41575    -38654.41    173.13484   -38827.545    19363.519 
   43600    299.07866   -38685.012    178.29934   -38863.312   -19052.798 
   43800    289.59544   -38667.087     172.6458   -38839.733    8533.8678 
   44000    284.04138   -38663.799    169.33468   -38833.133    13923.881 
   44200     323.1251   -38673.235    192.63491    -38865.87   -4816.8464 
   44400    277.73794   -38693.338    165.57681   -38858.915    9202.0015 
   44600    305.21934     -38651.3    181.96017    -38833.26   -3013.8184 
   44800    298.73155   -38671.771     178.0924   -38849.863    -11453.89 
   45000    288.85479   -38682.721    172.20425   -38854.926   -17920.899 
   45200     299.8705   -38670.124     178.7714   -38848.896     24399.13 
   45400    311.33012   -38662.016    185.60319   -38847.619    14772.412 
   45600    276.81923     -38681.7    165.02911   -38846.729   -19767.081 
   45800    318.12505    -38679.47    189.65407   -38869.124   -11301.438 
   46000    303.88353   -38652.317    181.16382   -38833.481   -8947.6379 
   46200     312.2971   -38671.346    186.17967   -38857.526    12132.331 
   46400    314.27093   -38671.357    187.35639   -38858.714   -1067.4311 
   46600    297.19565   -38669.589    177.17676   -38846.766   -10930.092 
   46800    364.43374   -38646.751    217.26155   -38864.013   -10735.211 
   47000    286.48685   -38679.434    170.79257   -38850.227    49680.658 
   47200      286.862   -38673.354    171.01622    -38844.37   -32290.993 
   47400    293.79075   -38662.447    175.14688   -38837.594    29165.101 
   47600    288.52555   -38665.189    172.00797   -38837.197    35242.185 
   47800    289.90989   -38684.352    172.83326   -38857.185    4258.7397 
   48000    272.30454   -38692.872    162.33762   -38855.209    35808.803 
   48200    322.76011   -38655.448    192.41732   -38847.866    19207.901 
   48400    291.19071   -38670.839    173.59684   -38844.436   -5358.0461 
   48600     302.3413   -38686.319     180.2444   -38866.563    -19826.28 
   48800    309.54227   -38662.951    184.53734   -38847.488   -19717.655 
   49000     306.9476   -38665.282     182.9905   -38848.272    -10640.58 
   49200    277.87564   -38696.818     165.6589   -38862.477    7064.1476 
   49400    299.52604   -38670.251    178.56605   -38848.817    18116.862 
   49600    328.41392   -38659.818     195.7879   -38855.606    24766.904 
   49800    279.28492   -38693.826    166.49906   -38860.325    40997.841 
   50000    287.21275   -38667.274    171.22533   -38838.499    1667.6082 
   50200     310.1496   -38657.867    184.89941   -38842.767   -2309.8906 
   50400    284.55483   -38689.085    169.64078   -38858.725    22590.047 
   50600    294.33924   -38662.401    175.47387   -38837.875   -15956.598 
   50800      299.593   -38663.921    178.60596   -38842.527    -24176.66 
   51000    302.53432   -38678.482    180.35947   -38858.841    22337.367 
   51200    319.92141   -38642.578    190.72499   -38833.303    -26162.67 
   51400    305.68792   -38664.359    182.23953   -38846.599    41637.105 
   51600    303.44862   -38671.065    180.90454   -38851.969   -17585.755 
   51800    315.99286   -38651.634    188.38294   -38840.016    9762.6703 
   52000    324.89885   -38662.302    193.69235   -38855.995   -28971.034 
   52200     289.5091   -38681.257    172.59433   -38853.851   -1457.5183 
   52400    297.40813   -38651.144    177.30343   -38828.447    55548.438 
   52600    308.90994   -38657.245    184.16037   -38841.406   -21772.101 
   52800    309.89846   -38680.418    184.74969   -38865.167    6144.0443 
   53000    290.84402   -38661.455    173.39015   -38834.846    13677.084 
   53200    297.80825    -38658.47    177.54196   -38836.012   -15623.213 
   53400    271.20576   -38691.312    161.68257   -38852.994    10797.754 
   53600     309.8568   -38660.159    184.72485   -38844.884    24158.166 
   53800    296.84335   -38662.798    176.96673   -38839.765    30846.881 
   54000    289.99968   -38683.309    172.88679   -38856.195   -3570.7674 
   54200    323.29206   -38646.336    192.73445   -38839.071   -5480.3844 
   54400    269.49909   -38670.352    160.66512   -38831.017    2063.9189 
   54600    281.89793   -38678.195    168.05684   -38846.252   -24292.286 
   54800     301.0079    -38662.15    179.44947     -38841.6    29302.001 
   55000    318.80741   -38640.203    190.06087   -38830.264    30862.495 
   55200    289.52668   -38672.616    172.60481   -38845.221    3138.3571 
   55400    291.30812   -38680.303    173.66683   -38853.969   -21038.327 
   55600    318.34263   -38652.839    189.78378   -38842.623    27643.049 
   55800      317.978   -38674.874     189.5664   -38864.441   -4479.2666 
   56000    301.43425   -38685.568    179.70365   -38865.272    8448.6131 
   56200     311.0955   -38668.493    185.46332   -38853.956   -8926.5859 
   56400    314.72475    -38663.79    187.62694   -38851.417   -36617.675 
   56600    287.87347    -38688.14    171.61923    -38859.76    26622.754 
   56800    319.34657   -38657.221    190.38229   -38847.603   -23153.122 
   57000    280.56497   -38675.739    167.26218   -38843.001    13995.265 
   57200    282.62325   -38690.977    168.48924   -38859.466   -21574.962 
   57400    302.36977    -38661.83    180.26137   -38842.091   -9277.3479 
   57600    313.72896   -38670.388    187.03329   -38857.421    15610.961 
   57800    281.18681   -38690.286    167.63289   -38857.919    8355.8745 
   58000     315.6412   -38648.659    188.17329   -38836.833   -15442.815 
   58200    284.32535   -38677.339    169.50398   -38846.843   -37726.588 
   58400    281.48083   -38687.502    167.80818    -38855.31    1985.8275 
   58600    330.26594   -38646.713      196.892   -38843.605   -14549.553 
   58800    320.37748    -38672.94    190.99688   -38863.937   -34121.607 
   59000    290.74309   -38673.153    173.32998   -38846.483   -23471.857 
   59200    301.09305   -38644.915    179.50024   -38824.415   -9208.8733 
   59400    303.60232   -38656.839    180.99617   -38837.835   -3650.9086 
   59600    283.21094   -38679.794     168.8396   -38848.634    -39725.23 
   59800    322.07386   -38654.325     192.0082   -38846.333   -31354.296 
   60000    331.52472   -38658.012    197.64244   -38855.655   -24658.634 
   60200    298.18194    -38674.65    177.76475   -38852.415   -2856.9032 
   60400    336.03854   -38653.081    200.33341   -38853.414    11657.818 
   60600    317.39323   -38672.796    189.21779   -38862.014      16211.5 
   60800    262.92244   -38686.338    156.74437   -38843.082    9395.0633 
   61000    303.05958   -38662.003    180.67261   -38842.675   -55192.896 
   61200    285.00253   -38668.006    169.90768   -38837.914    6387.7139 
   61400    271.82889   -38701.832    162.05406   -38863.886    7452.5434 
   61600     278.0005   -38671.152    165.73334   -38836.885   -13718.479 
   61800    293.55005   -38662.269    175.00339   -38837.272    28210.047 
   62000    264.02112   -38695.419    157.39936   -38852.819    4233.6118 
   62200    320.03669   -38666.845    190.79372   -38857.639    12992.258 
   62400     305.0314   -38663.841    181.84813   -38845.689    4556.0998 
   62600    300.29434   -38685.126    179.02408    -38864.15     1307.471 
   62800     290.2616   -38681.101    173.04294   -38854.144   -24757.154 
   63000    317.45251   -38654.634    189.25313   -38843.887   -17540.398 
   63200    264.32878   -38688.873    157.58278   -38846.456   -17912.012 
   63400    295.01464   -38683.842    175.87652   -38859.719    12897.626 
   63600    310.18453   -38666.358    184.92023   -38851.278   -17775.268 
   63800    325.61535   -38649.328     194.1195   -38843.448   -16865.148 
   64000    293.53181   -38674.395    174.99251   -38849.387    -4726.724 
   64200    281.33298   -38687.237    167.72004   -38854.958   -16421.231 
   64400     306.0557     -38648.8    182.45878   -38831.259   -23505.882 
   64600    297.07852   -38673.195    177.10693   -38850.302   -2559.4374 
   64800    305.11493   -38675.585    181.89793   -38857.483   -17618.638 
   65000    298.04263   -38666.781    177.68169   -38844.463   -25801.896 
   65200     315.9657   -38646.432    188.36675   -38834.799   -4456.5343 
   65400    301.71753   -38678.925    179.87253   -38858.798    15414.286 
   65600    317.70611   -38674.312    189.40431   -38863.716    8159.2413 
   65800    358.59121   -38631.525    213.77846   -38845.304   -8363.3315 
   66000    314.14685   -38663.664    187.28242   -38850.946   -4971.8618 
   66200    274.91087   -38675.558    163.89142   -38839.449   -10185.323 
   66400    319.46586   -38634.859    190.45341   -38825.312   -16924.727 
   66600    283.36424   -38660.082    168.93099   -38829.013    15992.452 
   66800    283.47601   -38677.294    168.99763   -38846.291    15757.677 
   67000    297.17416   -38659.495    177.16394   -38836.659   -13912.452 
   67200    330.71624   -38651.419    197.16046   -38848.579   -4349.7872 
   67400    302.49587   -38672.914    180.33655   -38853.251   -525.82247 
   67600    310.69798   -38668.334    185.22633    -38853.56    6336.4045 
   67800     344.5281   -38638.825    205.39456   -38844.219    6009.2514 
   68000    292.37945   -38674.044    174.30552    -38848.35   -17214.997 
   68200    290.85036   -38659.884    173.39394   -38833.278   -26468.003 
   68400    333.09526   -38659.433    198.57874   -38858.012   -3514.0324 
   68600    291.71824   -38688.389    173.91133     -38862.3   -9807.6556 
   68800    297.89819    -38656.13    177.59558   -38833.726   -620.79288 
   69000    316.67453   -38650.441    188.78932    -38839.23   -29267.564 
   69200    290.81691   -38680.631      173.374   -38854.005   -27708.564 
   69400    319.65644    -38666.89    190.56702   -38857.457   -26010.941 
   69600    313.03009   -38635.722    186.61665   -38822.339   -7025.5325 
   69800    316.71209   -38668.137    188.81172   -38856.949     11438.09 
   70000    294.94378   -38677.273    175.83428   -38853.107    21029.387 
   70200    325.80315    -38641.34    194.23146   -38835.572    4236.7409 
   70400    308.08714   -38673.131    183.66985   -38856.801   -13286.419 
   70600    296.70384   -38672.918    176.88356   -38849.802    15023.977 
   70800    299.88323   -38658.562    178.77899   -38837.341    12788.323 
   71000     301.8988   -38656.821    179.98059   -38836.802    1218.1711 
   71200    298.43855   -38683.949    177.91772   -38861.867    15144.787 
   71400    311.61819   -38657.265    185.77493    -38843.04     15914.34 
   71600    330.78585   -38620.588    197.20196    -38817.79    4217.5905 
   71800    317.67797   -38658.444    189.38754   -38847.831    17788.337 
   72000    300.48367   -38680.416    179.13695   -38859.553   -6558.8966 
   72200     345.9316   -38660.068    206.23128   -38866.299   -21854.902 
   72400    336.12877   -38645.741     200.3872   -38846.129    7452.1539 
   72600    303.11814   -38682.223    180.70752   -38862.931    15638.049 
   72800    326.24024   -38661.801    194.49204   -38856.293    54136.549 
   73000    288.65189    -38663.06    172.08329   -38835.143   -22036.022 
   73200    289.55417   -38686.287     172.6212   -38858.908   -7924.4753 
   73400    320.34246   -38661.338      190.976   -38852.314    19456.756 
   73600    290.01871   -38665.773    172.89814   -38838.671    46859.703 
   73800    296.71806   -38692.088    176.89204    -38868.98   -10845.292 
   74000    325.92605    -38656.67    194.30473   -38850.975    46336.048 
   74200    308.98105    -38664.34    184.20277   -38848.543    23794.379 
   74400    300.57587   -38681.917    179.19192   -38861.108    -5621.569 
   74600     311.4531   -38654.987    185.67651   -38840.664   -19196.967 
   74800    306.88773   -38661.865    182.95481    -38844.82    9125.8914 
   75000    299.88276   -38685.044    178.77871   -38863.823     -17322.3 
   75200    309.97492   -38662.523    184.79527   -38847.319   -460.33577 
   75400    311.60573    -38664.81     185.7675   -38850.578   -4967.7891 
   75600    302.53042   -38675.697    180.35714   -38856.054    5665.3727 
   75800    291.46266   -38678.283    173.75897   -38852.042   -35100.696 
   76000    303.96979   -38655.628    181.21524   -38836.843   -42644.001 
   76200    286.06987   -38685.685    170.54399   -38856.229    -20529.16 
   76400    301.58062   -38684.312    179.79091   -38864.103     22390.42 
   76600    294.69581   -38667.234    175.68645    -38842.92   -13368.096 
   76800    297.42505   -38672.615    177.31352   -38849.928     33320.46 
   77000    291.07881   -38697.912    173.53013   -38871.442    -16160.27 
   77200    340.24744   -38654.076     202.8426   -38856.919    32960.128 
   77400     306.3832   -38673.751    182.65403   -38856.405     4173.042 
   77600    286.69843   -38684.967    170.91871   -38855.886    -14789.71 
   77800    328.00959   -38644.991    195.54686   -38840.538    10827.046 
   78000    302.90307   -38680.652     180.5793   -38861.231   -9421.5845 
   78200    310.49821   -38668.493    185.10723     -38853.6   -15526.152 
   78400    322.90042   -38643.134    192.50096   -38835.635    34874.868 
   78600    288.35771   -38672.438    171.90791   -38844.346    21738.066 
   78800    296.26959   -38674.338    176.62467   -38850.962    11541.555 
   79000    309.37431   -38660.193    184.43721    -38844.63    1940.6026 
   79200    287.96358   -38670.228    171.67295   -38841.901   -23870.289 
   79400     283.0707   -38687.395      168.756   -38856.151   -20997.088 
   79600    337.87006   -38646.039    201.42529   -38847.464    9966.6296 
   79800    297.97918   -38673.573    177.64387   -38851.217   -2693.2202 
   80000    297.13857   -38680.455    177.14273   -38857.598   -1467.7998 
   80200    328.00867   -38663.004    195.54631    -38858.55   -22834.594 
   80400    305.47149   -38665.787     182.1105   -38847.897    2918.2106 
   80600    296.72685   -38677.608    176.89728   -38854.505   -9219.2678 
   80800    286.41152   -38693.257    170.74767   -38864.005   -1330.0024 
   81000    305.28337   -38664.358    181.99835   -38846.357   -1199.1581 
   81200    295.75814   -38668.867    176.31976   -38845.187    19696.547 
   81400    285.82895   -38700.528    170.40036   -38870.928   -20521.737 
   81600    311.98819   -38667.666     185.9955   -38853.662   -34420.532 
   81800    311.40083   -38665.627    185.64534   -38851.272    32799.147 
   82000    282.96294   -38691.113    168.69175   -38859.805     6787.408 
   82200    288.73843   -38667.117    172.13488   -38839.252   -40707.262 
   82400    294.66205   -38660.217    175.66632   -38835.884    30042.276 
   82600    302.67105   -38693.908    180.44098   -38874.349    32852.333 
   82800    302.55799   -38679.821    180.37358   -38860.194   -34295.489 
   83000    293.97316   -38666.054    175.25563   -38841.309    46997.565 
   83200    302.95952     -38655.6    180.61296   -38836.213   -1803.4865 
   83400    312.52547   -38687.219    186.31581   -38873.535    30559.145 
   83600    307.04143   -38669.075    183.04644   -38852.122   -12834.721 
   83800    323.54617   -38661.583    192.88594   -38854.469    7027.9493 
   84000    300.09429   -38679.339    178.90482   -38858.244   -22860.136 
   84200    288.09442   -38692.882    171.75095   -38864.633   -26176.105 
   84400    307.75868   -38655.282    183.47403   -38838.756    29226.655 
   84600    295.13806   -38677.714     175.9501   -38853.664    20658.729 
   84800    271.31944   -38689.405    161.75034   -38851.155    13536.368 
   85000    292.53645   -38669.567    174.39912   -38843.966   -14366.046 
   85200    309.16079   -38654.576    184.30992   -38838.886   -6781.4244 
   85400    313.11937   -38681.042    186.66987   -38867.711   -11392.464 
   85600    286.68209   -38680.775    170.90897   -38851.684   -11556.379 
   85800    274.80307   -38660.898    163.82715   -38824.726    23683.751 
   86000     295.4378   -38683.774     176.1288   -38859.903   -12362.224 
   86200    283.03441   -38688.913    168.73436   -38857.647   -14885.159 
   86400    292.46882   -38665.904     174.3588   -38840.263   -24620.348 
   86600    287.21286   -38673.994     171.2254   -38845.219   -22103.121 
   86800    287.60652   -38685.842    171.46008   -38857.302    5940.8377 
   87000    306.18696   -38655.598    182.53704   -38838.135    3935.6525 
   87200    296.52507   -38664.056    176.77698   -38840.833   -37762.879 
   87400    275.07328   -38674.921    163.98824    -38838.91   -31268.509 
   87600    308.97793   -38660.908     184.2009   -38845.109    29288.866 
   87800    320.66377   -38649.458    191.16756   -38840.626    6376.6133 
   88000    298.17201   -38676.421    177.75882    -38854.18   -19190.221 
   88200    300.41517   -38669.637    179.09611   -38848.733    663.83143 
   88400    308.92494   -38641.097    184.16932   -38825.267    29110.852 
   88600    304.62836   -38672.146    181.60785   -38853.754   -2539.4542 
   88800    296.64471   -38669.711    176.84831   -38846.559    22667.167 
   89000    314.49403    -38642.26    187.48939    -38829.75   -27482.856 
   89200    292.35507   -38684.034    174.29099   -38858.325   -1355.8638 
   89400    336.00207   -38669.402    200.31167   -38869.714    2196.7889 
   89600    319.12353   -38644.799    190.24932   -38835.048    25219.949 
   89800    288.10406   -38688.523    171.75669    -38860.28    11079.307 
   90000    308.92302   -38670.735    184.16817   -38854.903    32818.338 
   90200    326.41867   -38658.631    194.59841   -38853.229    18865.631 
   90400    307.53455   -38687.442    183.34041   -38870.782    8490.6671 
   90600    269.16689   -38715.302    160.46708   -38875.769     9714.595 
   90800    296.88009    -38676.34    176.98863   -38853.329    14719.693 
   91000    296.05816   -38657.715    176.49863   -38834.214    8398.9858 
   91200     299.3002   -38692.109    178.43141    -38870.54   -7879.2761 
   91400    293.38499   -38682.717    174.90499   -38857.622   -33369.931 
   91600    294.88649   -38668.262    175.80012   -38844.063   -196.70546 
   91800    335.15284   -38657.546    199.80539   -38857.351   -7421.9177 
   92000    305.52754   -38688.939    182.14391   -38871.083     227.0359 
   92200    282.29795   -38674.253    168.29531   -38842.549   -5805.2202 
   92400    316.33442     -38653.3    188.58656   -38841.887    26796.258 
   92600    309.07318   -38682.479    184.25769   -38866.736    19675.185 
   92800    288.64097   -38672.532    172.07678   -38844.609    -29274.36 
   93000    299.11189   -38672.721    178.31915    -38851.04   -5641.9327 
   93200    294.50864   -38668.828    175.57486   -38844.403    1271.6662 
   93400    295.43516    -38650.55    176.12722   -38826.678   -11440.114 
   93600    313.00926   -38684.219    186.60423   -38870.824   -15753.227 
   93800    301.88539     -38672.6     179.9726   -38852.572    9420.2344 
   94000    297.10044   -38647.674    177.11999   -38824.794   -4974.8558 
   94200    289.59424   -38676.843    172.64508   -38849.488    40411.408 
   94400    315.10537   -38679.233    187.85385   -38867.087    -35836.43 
   94600    317.35356   -38646.169    189.19413   -38835.363    8788.9345 
   94800       304.61   -38672.651    181.59691   -38854.248   -12575.704 
   95000    295.10547   -38674.429    175.93067    -38850.36    8173.0459 
   95200    330.14988   -38648.046    196.82282   -38844.869    -18939.22 
   95400    296.43253   -38660.791    176.72181   -38837.513    18158.403 
   95600    282.91593   -38675.791    168.66373   -38844.455   -6237.4627 
   95800    313.70881   -38658.329    187.02128    -38845.35    39211.265 
   96000     343.9211   -38637.573     205.0327   -38842.606   -13127.426 
   96200    291.49583   -38677.859    173.77874   -38851.637    20413.376 
   96400    316.21074   -38665.293    188.51283   -38853.805    2011.1347 
   96600    284.30999   -38671.366    169.49481    -38840.86   -2375.8775 
   96800    273.10092   -38691.165    162.81239   -38853.977    7927.6827 
   97000    288.02818   -38660.335    171.71146   -38832.046   -3397.8166 
   97200    284.27385   -38661.719    169.47327   -38831.192   -4212.4006 
   97400    289.89282   -38677.243    172.82309   -38850.067    2852.7232 
   97600    309.88165   -38669.894    184.73967   -38854.634    14420.013 
   97800    333.52526   -38654.747    198.83509   -38853.582    4048.8582 
   98000    303.69657   -38671.488    181.05236   -38852.541   -1537.3886 
   98200    298.11862   -38685.372    177.72699   -38863.099    13035.962 
   98400    282.39737   -38651.712    168.35459   -38820.067    2833.5437 
   98600    313.68716   -38677.395    187.00837   -38864.403    7063.2458 
   98800    310.17883    -38674.63    184.91684   -38859.547   -10514.195 
   99000    305.07856   -38653.256    181.87625   -38835.132    14404.079 
   99200    311.67726   -38679.453    185.81014   -38865.263   -11662.594 
   99400    298.46319   -38650.954    177.93241   -38828.886   -20222.227 
   99600    322.03935   -38652.109    191.98763   -38844.097    1327.8521 
   99800    308.88485   -38672.239    184.14541   -38856.384    2166.2755 
  100000    295.28511   -38676.257    176.03776   -38852.295    13146.668 
  100200    330.70053   -38637.912     197.1511   -38835.063   -8370.2231 
  100400    324.30467   -38663.407    193.33812   -38856.745    14486.886 
  100600    290.59546   -38679.059    173.24198   -38852.301    3192.5868 
  100800    282.51679   -38692.672    168.42578   -38861.097    23417.118 
  101000    296.76573   -38662.401    176.92045   -38839.321   -1071.5604 
  101200    315.83435   -38648.179    188.28844   -38836.468    7698.0496 
  101400    300.99111   -38688.312    179.43946   -38867.751    -1231.987 
  101600    306.61883   -38668.498     182.7945   -38851.293    10108.935 
  101800     309.8481   -38658.541    184.71967    -38843.26   -15227.258 
  102000    299.38037   -38671.264     178.4792   -38849.743    9666.8485 
  102200    278.26784   -38703.749    165.89271   -38869.642   -2396.9154 
  102400    294.23177   -38671.417     175.4098   -38846.827    34038.841 
  102600    276.59444   -38663.376     164.8951   -38828.271   -36157.227 
  102800    299.39018   -38641.469    178.48505   -38819.954   -8578.0469 
  103000    279.74826   -38678.028    166.77529   -38844.804    16701.629 
  103200    306.82845   -38661.128    182.91947   -38844.047   -30165.183 
  103400    321.81937   -38645.256    191.85648   -38837.113    11688.244 
  103600    302.07382   -38683.116    180.08493   -38863.201    27026.837 
  103800    297.48777    -38665.54    177.35091   -38842.891   -20297.405 
  104000     335.9049   -38651.785    200.25374   -38852.039    3657.6388 
  104200    301.67836   -38670.668    179.84918   -38850.517    16836.261 
  104400    302.05773   -38667.083    180.07534   -38847.158     21511.13 
  104600    255.47588   -38685.274    152.30501   -38837.579    9380.8496 
  104800    265.00643   -38688.741    157.98677   -38846.727    9526.8985 
  105000    288.63184   -38661.398    172.07134   -38833.469    5637.4767 
  105200    297.34351   -38656.563    177.26491   -38833.827    41340.163 
  105400    292.14782   -38689.755    174.16743   -38863.923    10109.968 
  105600    318.56655   -38655.832    189.91728   -38845.749    33351.613 
  105800    307.73194    -38656.58    183.45809   -38840.038    33584.107 
  106000    289.30192   -38680.667    172.47082   -38853.138   -35512.036 
  106200    325.80395   -38652.839    194.23194   -38847.071    1009.0201 
  106400    284.58081   -38658.962    169.65627   -38828.618     16378.86 
  106600    283.95854   -38682.606    169.28529   -38851.891    6972.8576 
  106800    316.16635   -38652.062    188.48637   -38840.549    23058.679 
  107000    293.84115   -38655.006    175.17693   -38830.183    13026.291 
  107200     293.3303   -38681.759    174.87238   -38856.631   -2528.8305 
  107400    318.27692   -38652.425    189.74461   -38842.169   -5428.8016 
  107600    293.90582   -38675.703    175.21548   -38850.918    2410.5637 
  107800    298.14551    -38678.02    177.74302   -38855.763   -7013.0069 
  108000    299.61794   -38656.124    178.62083   -38834.745    11947.589 
  108200    315.39699   -38665.094     188.0277   -38853.122   -13447.459 
  108400    283.36918   -38687.839    168.93394   -38856.773    47288.261 
  108600    302.43055   -38653.179    180.29761   -38833.477   -18360.232 
  108800    298.01054   -38659.471    177.66256   -38837.134   -6036.6183 
  109000     316.0323    -38669.58    188.40645   -38857.987   -24009.637 
  109200    293.25688   -38660.874    174.82861   -38835.703   -6547.6766 
  109400    313.17231   -38636.657    186.70143   -38823.358    5986.7004 
  109600    287.81192   -38676.869    171.58253   -38848.452   -9690.1634 
  109800    323.45144   -38658.506    192.82946   -38851.335    1794.2917 
  110000    301.02787   -38640.041    179.46138   -38819.502   -14065.224 
  110200    267.74492   -38669.807    159.61935   -38829.427   -9075.5433 
  110400    306.24751   -38674.169    182.57313   -38856.742    1007.7855 
  110600    291.05938   -38637.542    173.51854    -38811.06   -20490.079 
  110800    274.12412   -38668.509    163.42239   -38831.932   -1985.3313 
  111000    306.04577   -38680.509    182.45286   -38862.962    12441.823 
  111200    287.39448    -38659.25    171.33367   -38830.583   -36012.879 
  111400    310.44956   -38658.284    185.07824   -38843.363   -30315.975 
  111600    294.41227   -38667.629    175.51741   -38843.146   -30696.278 
  111800    328.26082   -38658.882    195.69663   -38854.579   -28248.888 
  112000    297.14984   -38656.488    177.14945   -38833.637   -15710.622 
  112200    284.38013   -38684.693    169.53663   -38854.229    8266.6357 
  112400     308.1284   -38649.997    183.69445   -38833.692   -8991.8788 
  112600    308.15249   -38648.351    183.70881    -38832.06    29544.939 
  112800    283.02118   -38676.188    168.72647   -38844.915   -4098.0467 
  113000    268.60567   -38683.565    160.13249   -38843.698   -5123.4818 
  113200    345.89727   -38647.886    206.21081   -38854.097   -17249.653 
  113400    292.90426   -38677.899    174.61839   -38852.517   -27848.228 
  113600    283.95956   -38679.615     169.2859   -38848.901   -11921.468 
  113800    318.50113   -38664.867    189.87828   -38854.745    6351.8346 
  114000    317.61693   -38670.969    189.35115    -38860.32   -19398.503 
  114200    277.27411   -38688.987    165.30029   -38854.287   -14182.307 
  114400    300.84015   -38660.439    179.34947   -38839.789    11877.777 
  114600    301.96708   -38670.359     180.0213    -38850.38    -36594.35 
  114800    284.69793   -38676.888    169.72609   -38846.614    3885.1034 
  115000    286.77343   -38674.661    170.96342   -38845.625     1532.346 
  115200    336.83186   -38649.298    200.80636   -38850.104    14286.241 
  115400    309.12405   -38675.216    184.28802   -38859.504    16042.209 
  115600    263.07128    -38722.65     156.8331   -38879.484   -19566.662 
  115800    287.07239   -38690.852    171.14165   -38861.993   -13910.276 
  116000    311.47874   -38659.509    185.69179   -38845.201   -15916.079 
  116200    298.01082   -38656.279    177.66273   -38833.942   -9279.1414 
  116400    290.83794   -38691.543    173.38653   -38864.929     12089.37 
  116600    292.62887   -38661.613    174.45422   -38836.067   -14447.867 
  116800    286.66419   -38662.019     170.8983   -38832.918    5700.4433 
  117000    300.56369   -38678.829    179.18465   -38858.013   -18220.051 
  117200    267.95043   -38704.485    159.74187   -38864.227     24569.03 
  117400    298.17079   -38671.023     177.7581   -38848.781   -28532.518 
  117600    295.78808   -38664.419    176.33762   -38840.756   -22960.952 
  117800    338.78893   -38637.458    201.97309   -38839.432     36324.94 
  118000    298.63144   -38675.237    178.03272   -38853.269   -1840.0093 
  118200    279.53626   -38670.381     166.6489    -38837.03     22855.42 
  118400    305.19372   -38639.329     181.9449   -38821.274   -15016.372 
  118600    292.76287   -38678.169     174.5341   -38852.703    15285.108 
  118800    294.99501   -38670.705    175.86482    -38846.57    3646.5572 
  119000    321.77526   -38650.028    191.83019   -38841.858    -4875.945 
  119200    282.35885   -38686.945    168.33162   -38855.277   -13054.187 
  119400    310.90668   -38664.381    185.35075   -38849.732    9638.5128 
  119600    301.48349   -38659.255      179.733   -38838.988   -20108.108 
  119800    256.45652   -38671.147    152.88964   -38824.037    7528.4145 
  120000    286.49717   -38707.288    170.79873   -38878.087   -24939.719 
  120200    279.78717   -38677.768    166.79848   -38844.567    4926.5306 
  120400    326.31362   -38663.235    194.53578   -38857.771    15897.624 
  120600    296.84183   -38685.462    176.96582   -38862.428   -1868.7082 
  120800    288.87744   -38681.001    172.21775   -38853.219     1990.607 
  121000    320.09393   -38663.896    190.82784   -38854.724    6676.4257 
  121200    283.41827   -38671.696    168.96321    -38840.66    11571.844 
  121400    293.97964    -38642.25    175.25949   -38817.509   -13794.083 
  121600    286.30693   -38674.456    170.68531   -38845.141   -8183.8522 
  121800    286.29504   -38677.803    170.67823   -38848.481     2821.215 
  122000    309.82138   -38641.649    184.70374   -38826.353    -24085.19 
  122200     312.6587   -38665.373    186.39524   -38851.768    21368.637 
  122400    300.01048   -38676.356    178.85485   -38855.211    21129.255 
  122600    302.82217   -38659.614    180.53107   -38840.146   -35677.455 
  122800    343.65762   -38639.017    204.87562   -38843.892    6243.3573 
  123000    285.49819   -38671.063    170.20317   -38841.266    13361.913 
  123200    284.81437   -38683.353    169.79551   -38853.148    12279.817 
  123400    300.02928   -38656.924    178.86606   -38835.791    15533.578 
  123600    308.69483   -38667.261    184.03213   -38851.293   -17115.686 
  123800    289.27721   -38688.318    172.45608   -38860.774    18858.596 
  124000    292.88593   -38676.518    174.60746   -38851.126   -16051.298 
  124200    295.79354   -38649.416    176.34087   -38825.756     19099.82 
  124400    271.46132   -38680.654    161.83493   -38842.489   -18643.862 
  124600    281.06256   -38676.069    167.55882   -38843.627   -44501.826 
  124800    334.68936   -38647.643    199.52908   -38847.172   -21040.692 
  125000    302.45034   -38666.952     180.3094   -38847.261    7375.4368 
  125200    286.53644   -38673.727    170.82214   -38844.549   -43166.728 
  125400    334.02558   -38649.107    199.13336    -38848.24     17840.15 
  125600    318.25366   -38661.449    189.73074    -38851.18    1367.4063 
  125800    300.38752   -38680.923    179.07963   -38860.003    5780.0987 
  126000    310.85406   -38667.627    185.31938   -38852.946    14642.942 
  126200    305.87227   -38632.369    182.34943   -38814.719   -29023.762 
  126400    314.95854    -38658.14    187.76632   -38845.906   -13157.217 
  126600    307.55363   -38678.219    183.35179   -38861.571   -15278.266 
  126800    311.68258   -38655.308    185.81331   -38841.121   -3782.5647 
  127000    308.78803   -38654.634    184.08769   -38838.721   -14559.634 
  127200    306.92298   -38668.456    182.97582   -38851.432   -14911.584 
  127400     307.0817   -38668.031    183.07044   -38851.102     3881.858 
  127600     294.5797   -38680.135    175.61723   -38855.752    -174.6804 
  127800    329.22036    -38647.71    196.26867   -38843.979    11606.086 
  128000    287.67238   -38672.947    171.49934   -38844.446    2648.3489 
  128200    285.42345   -38679.827    170.15862   -38849.986    13025.015 
  128400    300.40899   -38653.029    179.09243   -38832.122    -10749.06 
  128600    312.60114   -38667.356    186.36092   -38853.717     25535.16 
  128800    300.40851   -38667.222    179.09214   -38846.315    15298.909 
  129000    304.47445   -38679.901     181.5161   -38861.417   -33664.821 
  129200    287.00442   -38687.604    171.10113   -38858.706   -47421.444 
  129400    320.57474   -38658.746    191.11448   -38849.861    11476.865 
  129600     288.5725   -38676.002    172.03596   -38848.038   -28661.857 
  129800    275.74961   -38704.113    164.39144   -38868.505     11862.42 
  130000    304.99824   -38667.568    181.82836   -38849.397   -5410.7406 
  130200      313.258   -38664.877    186.75252    -38851.63   -17496.375 
  130400    271.75326   -38699.695    162.00897   -38861.704    5977.8825 
  130600    307.41286   -38672.129    183.26787   -38855.397    20080.137 
  130800    301.93735   -38660.353    180.00358   -38840.356    30555.863 
  131000    271.77328   -38687.547     162.0209   -38849.568   -1344.4204 
  131200    281.76587   -38665.779    167.97811   -38833.757    955.78456 
  131400    305.71957   -38660.074     182.2584   -38842.332   -540.15144 
  131600     270.0265   -38691.899    160.97954   -38852.878    36762.443 
  131800    304.48209   -38673.092    181.52066   -38854.613    11177.687 
  132000     291.7972   -38667.533    173.95841   -38841.491   -29440.574 
  132200    297.03808   -38686.073    177.08282   -38863.155    55097.481 
  132400    303.21842   -38665.237     180.7673   -38846.004    33214.123 
  132600    294.74323   -38660.871    175.71472   -38836.585    -27748.02 
  132800    294.54473   -38689.809    175.59638   -38865.406   -6796.4299 
  133000    295.32659   -38698.204    176.06249   -38874.266   -24295.906 
  133200    297.58625   -38665.844    177.40962   -38843.254   -8206.4972 
  133400    307.30904   -38666.941    183.20598   -38850.147   -23367.966 
  133600    313.42836   -38695.678    186.85408   -38882.532    10776.048 
  133800    290.01688   -38665.126    172.89704   -38838.023    9042.9292 
  134000    305.30898   -38668.999    182.01362   -38851.012   -10134.781 
  134200    279.95828   -38689.211    166.90049   -38856.111   -10634.614 
  134400    306.10301   -38665.573    182.48699    -38848.06   -1320.6707 
  134600    302.80769   -38655.641    180.52244   -38836.163   -2052.4587 
  134800    309.69515    -38677.22    184.62848   -38861.848   -7977.2326 
  135000    284.59999   -38702.754     169.6677   -38872.422    7362.2528 
  135200    289.77317   -38670.901    172.75175   -38843.653   -20227.883 
  135400    312.36699   -38651.561    186.22133   -38837.783   -46128.566 
  135600    295.84529   -38686.405    176.37172   -38862.777   -2271.6482 
  135800    288.86744   -38672.152     172.2118   -38844.363   -12159.095 
  136000    317.30737   -38664.878     189.1666   -38854.045    28904.778 
  136200    289.67322   -38668.508    172.69217     -38841.2    11286.682 
  136400    276.65748   -38705.117    164.93268   -38870.049    9281.1802 
  136600    288.61126   -38675.454    172.05907   -38847.513   -14101.478 
  136800    305.42621   -38662.805     182.0835   -38844.889   -5996.5766 
  137000    291.66121   -38689.477    173.87733   -38863.354    8721.2251 
  137200    299.21159   -38680.658    178.37859   -38859.037    24238.426 
  137400    314.99371   -38656.646    187.78728   -38844.434    -19466.51 
  137600    296.00444   -38683.021     176.4666   -38859.487     16644.52 
  137800     292.5046   -38665.914    174.38013   -38840.294    18394.946 
  138000    313.54922   -38656.931    186.92613   -38843.857    12529.132 
  138200    299.23027   -38673.639    178.38972   -38852.028    3237.5659 
  138400    293.90026   -38667.434    175.21217   -38842.646    17226.956 
  138600    317.82588   -38653.173    189.47572   -38842.648    -7679.339 
  138800    284.12471   -38686.917    169.38436   -38856.301    9691.5573 
  139000     289.7492   -38678.955    172.73746   -38851.692   -10611.535 
  139200    297.12933   -38668.208    177.13722   -38845.345    -27694.27 
  139400    312.75778   -38651.294    186.45431   -38837.748    16919.219 
  139600    297.53104   -38685.555    177.37671   -38862.931    4921.4362 
  139800    321.67566   -38659.111    191.77081   -38850.882   -12785.745 
  140000    299.43786   -38657.671    178.51348   -38836.185    1913.5356 
  140200    293.44432   -38684.316    174.94036   -38859.256    -10206.32 
  140400    313.93133   -38662.076    187.15393    -38849.23   -10394.831 
  140600    310.23734   -38661.989    184.95172   -38846.941    3036.2298 
  140800    257.67902   -38687.126    153.61844   -38840.744    53009.559 
  141000    321.55985   -38647.653    191.70177   -38839.355   -6125.7185 
  141200    305.24508   -38657.074    181.97552   -38839.049    22180.357 
  141400    297.21502   -38684.196    177.18831   -38861.384   -23846.847 
  141600    297.60728   -38654.084    177.42215   -38831.506    17575.054 
  141800    312.80258   -38657.985    186.48101   -38844.466   -29572.219 
  142000    299.49193   -38680.788    178.54571   -38859.334    22264.859 
  142200    325.47995    -38651.04    194.03878   -38845.079     3404.965 
  142400    328.71591   -38654.351    195.96793   -38850.319        20911 
  142600    296.66784   -38675.728     176.8621    -38852.59   -22011.014 
  142800    300.99183   -38661.076     179.4399   -38840.516   -5513.8993 
  143000    323.19757   -38654.066    192.67811   -38846.745    597.84153 
  143200    296.33673   -38684.469     176.6647   -38861.133      17052.9 
  143400    311.12776   -38670.504    185.48255   -38855.987    25295.612 
  143600    328.85175   -38656.696    196.04892   -38852.745    28679.277 
  143800    299.25953   -38677.179    178.40716   -38855.587    36361.644 
  144000    336.97032   -38649.511     200.8889   -38850.399   -18666.415 
  144200    313.73391   -38656.013    187.03624   -38843.049   -3035.4321 
  144400    303.03638   -38675.376    180.65878   -38856.035    12740.966 
  144600    305.29984   -38674.833    182.00816   -38856.841   -545.15691 
  144800    325.71237   -38649.716    194.17734   -38843.893     39357.38 
  145000    281.03981   -38670.079    167.54526   -38837.624    -18514.87 
  145200    297.25658   -38666.245    177.21308   -38843.458    30583.147 
  145400    315.82689   -38652.255    188.28399   -38840.539    16283.636 
  145600     286.9215   -38681.872     171.0517   -38852.924   -8220.0872 
  145800    303.06269   -38672.039    180.67446   -38852.714    21262.675 
  146000    343.25196    -38636.22    204.63378   -38840.853    11538.751 
  146200    327.49906   -38641.473     195.2425   -38836.716    59878.035 
  146400    276.03511   -38678.994    164.56165   -38843.556    15455.167 
  146600     288.9286   -38678.551    172.24825     -38850.8    33755.706 
  146800     291.9724   -38651.279    174.06285   -38825.341   -30288.506 
  147000    274.64775   -38693.961    163.73456   -38857.695   -14994.034 
  147200    303.32645   -38677.794    180.83171   -38858.625    19370.798 
  147400    315.07589   -38652.266    187.83627   -38840.102    40097.103 
  147600    283.24009   -38686.631    168.85698   -38855.488    47198.552 
  147800    317.41969   -38669.521    189.23356   -38858.755   -11516.111 
  148000    316.16424   -38661.211    188.48511   -38849.696   -14162.627 
  148200    283.63393   -38682.342    169.09177   -38851.434   -5215.7286 
  148400    276.51834   -38681.696    164.84973   -38846.545    -40276.15 
  148600     315.6455   -38654.119    188.17585   -38842.295    18129.714 
  148800    297.63185   -38679.153     177.4368   -38856.589    4528.2637 
  149000    292.50155   -38679.774    174.37831   -38854.152   -32707.261 
  149200    303.61503   -38660.943    181.00375   -38841.947    30522.897 
  149400    298.36894   -38649.044    177.87623    -38826.92    10889.671 
  149600    304.91043   -38680.853    181.77601   -38862.629    22173.779 
  149800    301.22795   -38674.669    179.58066    -38854.25      32889.5 
  150000    304.26227   -38653.081     181.3896    -38834.47   -695.85074 
  150200    294.45735    -38670.94    175.54429   -38846.484    19119.856 
  150400    331.90951   -38671.737    197.87184   -38869.609    12712.553 
  150600    321.81786   -38642.584    191.85559    -38834.44   -13823.237 
  150800    262.58164   -38675.281     156.5412   -38831.822    523.75752 
  151000    305.74779   -38678.698    182.27522   -38860.973   -11367.975 
  151200    326.25654   -38637.924    194.50175   -38832.426    22944.235 
  151400    292.60266     -38657.7    174.43859   -38832.138    -22309.85 
  151600    326.06664   -38676.964    194.38855   -38871.352     37.72397 
  151800    341.57018   -38657.108    203.63117   -38860.739    26919.026 
  152000    317.04295   -38644.394    189.00896   -38833.403    28457.941 
  152200    289.94759    -38675.95    172.85574   -38848.806    -33381.66 
  152400    306.59135   -38662.313    182.77812   -38845.091     14073.33 
  152600    350.17982   -38636.583    208.76391   -38845.347    10961.983 
  152800    302.26879   -38677.989    180.20117   -38858.191    4145.9778 
  153000     306.3187   -38669.553    182.61557   -38852.169   -18071.188 
  153200    314.31011    -38638.64    187.37975    -38826.02   -26194.467 
  153400    311.44406     -38676.3    185.67112   -38861.971    -8012.465 
  153600    268.78607   -38675.478    160.24005   -38835.718    14686.819 
  153800    317.45386   -38648.661    189.25393   -38837.915    36.940071 
  154000     300.1434   -38667.564    178.93409   -38846.498    -15388.87 
  154200    308.33376   -38668.842    183.81687   -38852.659   -8177.5807 
  154400    312.56526   -38646.778    186.33953   -38833.117    29849.765 
  154600    320.06652   -38669.625     190.8115   -38860.436    9541.0437 
  154800    292.78746   -38679.211    174.54876   -38853.759    10353.257 
  155000    324.39217   -38638.828    193.39029   -38832.219    28173.203 
  155200    327.26724   -38659.374     195.1043   -38854.478   -1016.5713 
  155400    289.32039   -38676.862    172.48183   -38849.344    -1260.054 
  155600    313.97773   -38644.721    187.18159   -38831.903    21341.473 
  155800    297.83377   -38671.443    177.55718       -38849     2612.593 
  156000    288.41992   -38683.285      171.945    -38855.23   -14500.399 
  156200    301.36909   -38649.809     179.6648   -38829.474    28661.623 
  156400    320.47899   -38659.567     191.0574   -38850.624   -4822.8745 
  156600    296.21041   -38671.046     176.5894   -38847.636   -11709.824 
  156800     290.5833   -38666.053    173.23473   -38839.287   -26822.179 
  157000    292.97693   -38657.752    174.66172   -38832.414   -9829.0847 
  157200    289.29122   -38683.587    172.46444   -38856.051     -10501.9 
  157400    307.70128   -38671.823    183.43981   -38855.262    28615.093 
  157600    298.01443   -38655.225    177.66488    -38832.89   -13044.568 
  157800    286.28029   -38685.517    170.66943   -38856.187   -27190.852 
  158000    318.36616   -38668.286    189.79781   -38858.084   -18602.649 
  158200    311.98884   -38651.771    185.99589   -38837.767    8653.1374 
  158400    292.16868   -38680.904    174.17987   -38855.084   -9578.4339 
  158600    299.97341   -38657.894    178.83275   -38836.727   -33074.633 
  158800    306.22443   -38650.346    182.55937   -38832.905    3483.9239 
  159000    307.92354    -38673.48    183.57232   -38857.052   -11548.681 
  159200    281.62731   -38680.342     167.8955   -38848.237    10045.554 
  159400    295.08626   -38670.578    175.91922   -38846.497    5029.8094 
  159600    279.11759   -38668.188     166.3993   -38834.587    17992.211 
  159800      303.963   -38670.747     181.2112   -38851.959   -21074.984 
  160000    290.99568   -38680.883    173.48057   -38854.364   -4618.9663 
  160200    316.89311    -38649.66    188.91963   -38838.579   -11310.045 
  160400    260.02404   -38688.075    155.01645   -38843.091    18930.513 
  160600    302.14146   -38674.128    180.12526   -38854.253    3838.2199 
  160800    300.87142   -38655.481    179.36811    -38834.85    10989.952 
  161000    335.59642   -38633.386    200.06984   -38833.456   -12951.336 
  161200    288.71346   -38674.485       172.12   -38846.605    15169.825 
  161400    287.31425   -38682.038    171.28584   -38853.324    14832.378 
  161600    341.73813   -38644.073    203.73129   -38847.805    14330.309 
  161800    300.29194   -38672.952    179.02265   -38851.974    2799.4465 
  162000    304.76073   -38675.521    181.68677   -38857.208    8273.0594 
  162200    325.26921   -38660.847    193.91315    -38854.76    47100.038 
  162400    319.42891   -38640.103    190.43138   -38830.535   -17587.333 
  162600    290.54146   -38676.563    173.20978   -38849.773    19054.139 
  162800    302.08127   -38672.568    180.08938   -38852.657    8383.3649 
  163000    329.48625   -38631.258    196.42718   -38827.685   -13698.312 
  163200    305.17235   -38668.606    181.93216   -38850.539    23482.757 
  163400    305.63356   -38679.826    182.20711   -38862.033    14556.294 
  163600    301.56931   -38652.891    179.78417   -38832.675    14896.352 
  163800    314.33704   -38674.133     187.3958   -38861.529    4745.1115 
  164000      308.676   -38673.768    184.02091   -38857.789    13506.805 
  164200    302.09657   -38654.352     180.0985    -38834.45    -22589.42 
  164400    313.89266   -38647.033    187.13088   -38834.164    16896.581 
  164600    305.42121    -38676.74    182.08052   -38858.821   -30184.415 
  164800    335.82222   -38654.121    200.20445   -38854.326   -20169.916 
  165000    270.18496   -38678.654    161.07401   -38839.728   -6464.8814 
  165200    291.98046   -38683.353    174.06766    -38857.42    6433.6879 
  165400     306.5354   -38655.958    182.74476   -38838.703   -44058.927 
  165600    316.43203   -38670.792    188.64476   -38859.437   -45368.125 
  165800    302.16428   -38680.395    180.13887   -38860.534   -13720.046 
  166000     299.2743   -38669.276    178.41597   -38847.692   -34963.035 
  166200    326.33147   -38640.533    194.54643   -38835.079    18020.158 
  166400    301.50047   -38671.486    179.74312    -38851.23   -16982.026 
  166600     310.4264   -38676.361    185.06442   -38861.425    6127.9311 
  166800    315.19502   -38650.475     187.9073   -38838.383    27210.783 
  167000    268.85486   -38691.089    160.28105    -38851.37   -27598.259 
  167200    273.66309   -38672.199    163.14754   -38835.346   -22295.069 
  167400    317.20136   -38651.497     189.1034   -38840.601   -13737.393 
  167600    309.20582   -38670.779    184.33676   -38855.116   -19259.354 
  167800    288.09296    -38674.57    171.75008    -38846.32   -1605.4846 
  168000    316.29951   -38635.868    188.56575   -38824.434   -9669.5472 
  168200    313.22262   -38663.527    186.73143   -38850.258    24478.829 
  168400    289.34071   -38674.747    172.49394   -38847.241   -3075.1856 
  168600    309.24531    -38651.93    184.36031    -38836.29   -14938.342 
  168800     306.3409   -38651.443    182.62881   -38834.072    11538.117 
  169000    290.59761   -38665.386    173.24325   -38838.629     6647.473 
  169200    269.82123   -38690.058    160.85717   -38850.915   -13385.108 
  169400    293.96247   -38655.956    175.24925   -38831.206    5250.9051 
  169600    318.89142   -38659.254    190.11095   -38849.365   -3177.5367 
  169800       304.76   -38691.591    181.68633   -38873.277    14822.593 
  170000    306.98453   -38647.459    183.01251   -38830.471   -13232.791 
  170200    315.34394    -38662.28    187.99608   -38850.276   -29800.264 
  170400    274.42709   -38675.914      163.603   -38839.517   -18364.567 
  170600    304.24318   -38648.711    181.37823   -38830.089    -11172.37 
  170800    337.95949   -38639.746    201.47861   -38841.224   -2294.8271 
  171000    301.20567   -38674.385    179.56737   -38853.952    15006.476 
  171200    286.94476   -38672.025    171.06557    -38843.09    293.26634 
  171400    323.65261   -38656.172    192.94939   -38849.121    7209.7748 
  171600    284.72049   -38670.765    169.73954   -38840.504   -11375.103 
  171800    292.27752   -38688.411    174.24476   -38862.656   -19724.417 
  172000    301.41382   -38673.415    179.69147   -38853.107   -10073.572 
  172200    312.29647   -38660.792    186.17929   -38846.972   -34305.698 
  172400    280.61248   -38674.998     167.2905   -38842.288    19077.957 
  172600    298.41273   -38671.162    177.90233   -38849.064     109.5137 
  172800    317.69887   -38653.247        189.4   -38842.647   -11549.094 
  173000    264.05303   -38683.011    157.41839    -38840.43    -12282.32 
  173200    328.55399    -38666.16    195.87141   -38862.031    3573.7312 
  173400    293.94561    -38663.09     175.2392   -38838.329   -432.37039 
  173600    297.06499   -38677.745    177.09886   -38854.844   -10638.056 
  173800    278.53714   -38691.495    166.05326   -38857.548   -21617.793 
  174000    308.72323   -38657.438    184.04906   -38841.487    -1813.276 
  174200    295.27269   -38679.011    176.03036   -38855.041    28726.354 
  174400    297.77802    -38673.97    177.52394   -38851.494    10906.006 
  174600    309.00239   -38652.365    184.21549    -38836.58   -19140.607 
  174800    302.08582   -38686.431    180.09209   -38866.523    1883.8284 
  175000    307.58814   -38673.565    183.37236   -38856.937   -5825.8508 
  175200    306.52813   -38662.996    182.74043   -38845.737    8296.2629 
  175400    269.38813   -38685.515    160.59897   -38846.114   -18940.891 
  175600    274.64289   -38697.414    163.73165   -38861.146   -13366.589 
  175800    299.19089    -38661.62    178.36624   -38839.986   -41530.296 
  176000    311.51184   -38669.928    185.71152   -38855.639    19383.328 
  176200     291.5014   -38685.485    173.78206   -38859.267    15470.778 
  176400    330.33321   -38639.914    196.93211   -38836.847   -10199.594 
  176600    278.94983   -38672.489    166.29929   -38838.788   -443.61964 
  176800    274.83441   -38684.474    163.84583    -38848.32   -17391.408 
  177000    322.70249    -38650.25    192.38296   -38842.633   -20841.692 
  177200    281.64823   -38666.122    167.90798    -38834.03   -19838.783 
  177400    308.52913   -38676.551    183.93334   -38860.484   -20697.228 
  177600     312.3766    -38668.15    186.22706   -38854.377   -8228.9203 
  177800    320.29124   -38649.053    190.94547   -38839.999    1708.7604 
[...]
  950000    320.91637   -38661.763    191.31815   -38853.082    25287.479 
  950200    326.14664   -38629.152    194.43624   -38823.588     14288.34 
  950400    281.38912   -38673.003    167.75351   -38840.757   -3405.1145 
  950600    296.35809   -38667.952    176.67743    -38844.63    30729.349 
  950800    322.00355   -38642.021    191.96628   -38833.988     4693.472 
  951000    287.50206   -38670.987     171.3978   -38842.385    46135.022 
  951200    290.39811   -38679.912    173.12432   -38853.037   -677.82598 
  951400    343.20875    -38644.82    204.60802   -38849.428    5110.0404 
  951600    297.00082   -38659.573    177.06061   -38836.634   -16592.049 
  951800     288.7244   -38675.918    172.12652   -38848.044    13288.111 
  952000    301.82527   -38678.508    179.93676   -38858.444   -12665.056 
  952200    294.92865   -38653.752    175.82526   -38829.578   -22255.797 
  952400    319.19588   -38662.527    190.29246   -38852.819     19991.29 
  952600    290.36488   -38689.294    173.10451   -38862.399    17709.335 
  952800    291.07329   -38661.162    173.52684   -38834.688    6241.1565 
  953000    317.69921   -38667.871     189.4002   -38857.272   -1462.8363 
  953200    270.88397    -38693.48    161.49073   -38854.971    27627.311 
  953400    278.23337   -38681.099    165.87216   -38846.971   -7690.1847 
  953600    297.34453   -38659.173    177.26551   -38836.438   -9125.5064 
  953800    294.89159   -38682.015    175.80316   -38857.818    4525.7383 
  954000     269.6079   -38687.251    160.72999   -38847.981    -1522.666 
  954200     313.7739   -38660.435    187.06008   -38847.495    2074.6585 
  954400    307.10039   -38679.211    183.08158   -38862.292   -3066.5748 
  954600    281.86922   -38670.651    168.03972    -38838.69    10024.219 
  954800    309.56624   -38644.734    184.55163   -38829.285    38310.739 
  955000     277.3148   -38683.097    165.32455   -38848.422    1961.7049 
  955200    278.20217   -38673.979    165.85357   -38839.832    26622.568 
  955400    311.14071   -38652.324    185.49027   -38837.814    12762.381 
  955600    291.10735   -38668.118    173.54714   -38841.666    571.96276 
  955800    287.70981   -38672.002    171.52166   -38843.523    9854.1729 
  956000    330.97185   -38644.404    197.31285   -38841.717    8688.7632 
  956200    276.21198   -38679.773    164.66709    -38844.44    2323.3018 
  956400    294.55165   -38677.371     175.6005   -38852.971    33282.802 
  956600    316.81701   -38660.626    188.87427     -38849.5    10953.811 
  956800     304.5596   -38667.726    181.56686   -38849.293    2238.7714 
  957000     295.1503   -38665.913    175.95739    -38841.87   -37086.747 
  957200    318.99424   -38644.247    190.17225    -38834.42   -5838.2197 
  957400    288.43608   -38680.173    171.95463   -38852.128    5546.2393 
  957600    303.28419   -38672.874    180.80651    -38853.68   -21959.895 
  957800    312.28783   -38628.957    186.17414   -38815.131    3928.8624 
  958000    303.29193   -38661.386    180.81113   -38842.197   -5516.0523 
  958200    278.35729   -38676.373    165.94604   -38842.319    20493.512 
  958400    304.10614   -38652.861    181.29653   -38834.157    4155.4895 
  958600    341.90136   -38657.647     203.8286   -38861.475    32786.322 
  958800    304.58085   -38679.865    181.57953   -38861.445    10366.684 
  959000    298.56425    -38654.49    177.99266   -38832.482    5404.3039 
  959200    327.37473   -38642.589    195.16837   -38837.758    -33817.74 
  959400    292.43046   -38679.041    174.33593   -38853.377    24555.767 
  959600    298.77742   -38673.465    178.11975   -38851.584    52696.283 
  959800    338.66844   -38651.194    201.90126   -38853.095    16830.667 
  960000    288.72753   -38671.589    172.12839   -38843.718    30959.763 
  960200    275.63524   -38699.346    164.32326    -38863.67    10735.585 
  960400     274.4723   -38686.497    163.62996   -38850.127   -17932.358 
  960600    304.35799   -38663.424    181.44667   -38844.871    25190.776 
  960800    318.47948    -38659.44    189.86537   -38849.305    19493.869 
  961000    296.65963   -38683.507     176.8572   -38860.365    20001.921 
  961200    315.58815   -38666.207    188.14167   -38854.349   -25800.081 
  961400    315.24487   -38651.936    187.93701   -38839.873    22451.825 
  961600    271.04552   -38689.581    161.58704   -38851.168   -1941.2763 
  961800     295.2802   -38674.204    176.03484   -38850.239    3321.2043 
  962000    288.35302   -38655.154    171.90511   -38827.059   -15220.137 
  962200    272.50556   -38694.148    162.45746   -38856.605    25946.287 
  962400    296.03116   -38673.483    176.48253   -38849.966   -32686.538 
  962600    297.15835   -38660.094    177.15452   -38837.249    16736.459 
  962800    299.77884   -38670.684    178.71676   -38849.401   -9488.3045 
  963000    303.73308   -38658.492    181.07412   -38839.566   -922.96151 
  963200    315.44939   -38658.465    188.05894   -38846.524   -18460.166 
  963400    294.23935   -38674.889    175.41432   -38850.303     1812.066 
  963600    300.13589   -38654.862    178.92962   -38833.792   -23951.051 
  963800    336.68738   -38639.814    200.72023   -38840.534   -19645.418 
  964000    286.43537   -38680.228    170.76189    -38850.99   -21868.969 
  964200    295.37071   -38664.166     176.0888   -38840.255    4134.9087 
  964400        313.3   -38654.537    186.77756   -38841.315    14704.196 
  964600    290.76623   -38688.466    173.34378    -38861.81    9091.5032 
  964800    318.02598   -38661.367    189.59501   -38850.962     -5463.21 
  965000    366.17131   -38635.505    218.29742   -38853.802    24346.085 
  965200     295.2468   -38668.538    176.01493   -38844.553    4262.4219 
  965400    287.15189   -38680.553    171.18905   -38851.742    3540.7764 
  965600    336.12125   -38647.248    200.38272    -38847.63   -28983.463 
  965800    322.46781   -38665.767    192.24306   -38858.011    3168.1493 
  966000    293.59781   -38672.375    175.03186   -38847.407    11266.025 
  966200    291.02163   -38661.739    173.49604   -38835.235    35892.585 
  966400    311.86348   -38671.906    185.92116   -38857.827   -21875.922 
  966600    283.70798   -38685.853    169.13592   -38854.989    -7954.216 
  966800     308.7184   -38659.516    184.04618   -38843.562    24505.322 
  967000    332.74656   -38658.989    198.37086    -38857.36    7927.9215 
  967200    300.89536   -38676.715    179.38238   -38856.097     2348.304 
  967400    309.40077    -38661.96    184.45299   -38846.413    21.397012 
  967600     336.9407   -38635.978    200.87125    -38836.85    13357.575 
  967800    305.09692     -38673.1    181.88719   -38854.987   -10517.503 
  968000    293.13638   -38668.699    174.75677   -38843.456    14014.705 
  968200    316.66678   -38645.525    188.78471    -38834.31   -29030.125 
  968400     282.4772   -38687.364    168.40217   -38855.766   -61182.675 
  968600    310.93424   -38662.185    185.36718   -38847.553    15498.754 
  968800    282.71181   -38659.078    168.54204    -38827.62    -2019.236 
  969000    312.58709   -38673.562    186.35255   -38859.915    1501.7749 
  969200     304.2677   -38696.015    181.39284   -38877.408   -11813.505 
  969400    288.13671   -38685.151    171.77616   -38856.927   -23099.776 
  969600     315.9431   -38669.037    188.35328   -38857.391   -19695.472 
  969800    283.90307   -38677.455    169.25222   -38846.707    -18211.65 
  970000    322.21677   -38645.411    192.09339   -38837.504    6030.0433 
  970200    301.46213   -38678.627    179.72027   -38858.347    35304.068 
  970400    285.95896   -38678.484    170.47787   -38848.962    16773.984 
  970600    317.12548   -38650.867    189.05816   -38839.925   -41535.387 
  970800    339.13686   -38615.871    202.18051   -38818.052     17699.28 
  971000    300.85068   -38662.692    179.35575   -38842.048    30233.695 
  971200    283.13755   -38687.656    168.79585   -38856.452   -15117.448 
  971400    277.38459   -38653.444    165.36615    -38818.81    24075.645 
  971600    301.92682   -38664.679     179.9973   -38844.676   -9080.6706 
  971800    316.59958   -38670.689    188.74464   -38859.434   -18063.998 
  972000    319.76942   -38658.224    190.63438   -38848.858   -7538.4018 
  972200    321.14992   -38640.596    191.45738   -38832.053    -23036.67 
  972400    314.11252   -38675.659    187.26195   -38862.921    25654.333 
  972600    324.44202   -38657.528    193.42001   -38850.948    4414.6708 
  972800    304.12141   -38658.473    181.30563   -38839.778    31093.524 
  973000    293.39614   -38682.367    174.91163   -38857.279    4766.8056 
  973200     327.6937   -38654.825    195.35854   -38850.184    20668.982 
  973400    311.40306   -38647.879    185.64667   -38833.526   -45203.554 
  973600    285.63026   -38672.082    170.28191   -38842.364   -30092.416 
  973800    293.02005   -38679.161    174.68742   -38853.849   -5480.0373 
  974000    286.30374   -38660.717    170.68342   -38831.401    58217.987 
  974200    303.91943   -38657.866    181.18522   -38839.051    9005.1872 
  974400    293.84117   -38676.821    175.17694   -38851.998     6454.551 
  974600    291.36795   -38661.697    173.70251   -38835.399   -10414.666 
  974800    305.49346   -38654.349     182.1236   -38836.472    10477.635 
  975000    299.20167   -38686.123    178.37267   -38864.495    21243.838 
  975200     307.0855   -38681.402    183.07271   -38864.474    772.28569 
  975400    302.51496   -38667.853    180.34793   -38848.201    12696.287 
  975600    282.19651   -38677.461    168.23484   -38845.696   -19224.322 
  975800    312.87558   -38695.469    186.52454   -38881.994    6344.6723 
  976000    287.77128   -38656.149     171.5583   -38827.707      3536.69 
  976200    300.03093    -38674.13    178.86704   -38852.997    7355.5651 
  976400    303.20069    -38678.57    180.75673   -38859.326    30535.919 
  976600    335.44963   -38645.907    199.98233   -38845.889    -2962.896 
  976800    283.04537   -38675.373     168.7409   -38844.114    10969.792 
  977000    269.71324   -38676.521    160.79279   -38837.313    5915.5836 
  977200    337.61412    -38631.84    201.27271   -38833.113   -28175.892 
  977400    312.31249   -38662.501    186.18884    -38848.69    10707.937 
  977600     291.3866   -38682.425    173.71362   -38856.138       4534.8 
  977800    264.61956   -38711.685    157.75613   -38869.441   -29728.457 
  978000      302.959   -38675.567    180.61265   -38856.179   -40632.896 
  978200    292.64354   -38663.117    174.46296    -38837.58   -5977.7439 
  978400    319.39956   -38658.448    190.41388   -38848.862    9863.4147 
  978600      300.796    -38686.59    179.32315   -38865.913     16476.34 
  978800    292.13271   -38668.683    174.15842   -38842.841   -44418.564 
  979000    318.90527   -38660.537    190.11921   -38850.656   -22349.694 
  979200    274.17835   -38684.941    163.45471   -38848.396    8953.0976 
  979400    306.57391   -38654.174    182.76772   -38836.942    1299.3473 
  979600    295.46768   -38665.183    176.14661    -38841.33   -7739.8328 
  979800    289.98103   -38680.148    172.87568   -38853.024    2570.5159 
  980000    323.05016   -38640.223    192.59023   -38832.814    4323.5619 
  980200    327.34793   -38659.005     195.1524   -38854.157   -10712.205 
  980400    285.31901   -38678.904    170.09635   -38849.001     -18474.3 
  980600    323.22441   -38646.142    192.69411   -38838.836   -3985.3842 
  980800    301.45115   -38665.479    179.71372   -38845.193    20526.192 
  981000    317.04293   -38679.564    189.00895   -38868.573   -5386.6116 
  981200    284.03955   -38676.586    169.33359    -38845.92    11001.853 
  981400    343.61445   -38650.175    204.84988   -38855.025    45263.321 
  981600    284.40741   -38679.284    169.55289   -38848.837    6151.5361 
  981800    307.15307    -38665.39    183.11299   -38848.503   -19866.109 
  982000    298.41436   -38676.096    177.90331   -38853.999   -1929.0393 
  982200    284.96557    -38697.08    169.88565   -38866.965   -15667.459 
  982400    305.58856   -38663.371    182.18029   -38845.552    11452.933 
  982600    296.07558   -38665.341    176.50901    -38841.85    18373.831 
  982800     263.3332    -38695.27    156.98925    -38852.26    12558.713 
  983000    289.01888   -38670.303    172.30208   -38842.605    40408.598 
  983200    280.31896   -38661.329    167.11551   -38828.444     -3355.07 
  983400    284.30012   -38701.098    169.48893   -38870.587    12508.588 
  983600    301.57235   -38670.268    179.78598   -38850.054    -848.8037 
  983800    298.73745   -38671.705    178.09592   -38849.801    25820.691 
  984000    321.20239    -38661.44    191.48866   -38852.929   -15603.574 
  984200    301.14577    -38669.77    179.53167   -38849.302    23915.239 
  984400    268.66682   -38688.307    160.16895   -38848.476    20601.294 
  984600    285.86678   -38678.038    170.42291   -38848.461    -19987.99 
  984800    310.91355   -38649.871    185.35485   -38835.226     22513.82 
  985000    298.93928   -38680.927    178.21624   -38859.143    -13842.44 
  985200     299.8538   -38670.723    178.76145   -38849.484    23159.004 
  985400    297.38455   -38645.634    177.28937   -38822.923    24058.486 
  985600    314.32079   -38652.406    187.38612   -38839.792   -7513.2616 
  985800    290.63763   -38680.435    173.26712   -38853.703   -10640.238 
  986000    323.94889   -38660.254    193.12602    -38853.38     14310.34 
  986200    292.79084   -38660.915    174.55077   -38835.466    13319.275 
  986400    291.96007   -38685.425     174.0555   -38859.481    5250.0018 
  986600    312.59988   -38658.455    186.36017   -38844.815    5028.1769 
  986800    306.09205   -38671.609    182.48045   -38854.089    27070.162 
  987000    288.09367   -38690.238     171.7505   -38861.989    -22152.11 
  987200    297.85408   -38659.508    177.56929   -38837.077    439.22914 
  987400    302.39249   -38661.109    180.27492   -38841.384    -2183.716 
  987600    270.90258     -38684.9    161.50183   -38846.402    16622.917 
  987800    328.39867   -38649.779    195.77881   -38845.558   -7832.6382 
  988000    292.43237   -38665.026    174.33707   -38839.363    -659.0902 
  988200    297.28197   -38679.787    177.22822   -38857.015    20725.156 
  988400    272.89568   -38696.691    162.69004   -38859.381   -25602.636 
  988600    319.74781   -38660.886     190.6215   -38851.507   -11059.289 
  988800    309.51915    -38670.81    184.52356   -38855.333     24691.92 
  989000    281.07327   -38698.386    167.56521   -38865.951    18738.494 
  989200    292.81029   -38670.485    174.56237   -38845.047   -8297.0821 
  989400     308.4266   -38659.225    183.87222   -38843.097   -1187.1539 
  989600    272.32549   -38688.161    162.35011   -38850.512    15136.944 
  989800    277.99928   -38680.368    165.73261     -38846.1    35253.288 
  990000    296.88295   -38668.789    176.99034    -38845.78   -7220.1446 
  990200    288.02205   -38684.763    171.70781    -38856.47   -7775.0307 
  990400    305.05264   -38657.585    181.86079   -38839.446   -9362.7623 
  990600    320.07223   -38666.021     190.8149   -38856.835     19145.75 
  990800    301.24099   -38676.604    179.58844   -38856.192    19230.648 
  991000    308.92886   -38664.615    184.17165   -38848.787    21604.757 
  991200    323.61294   -38638.898    192.92574   -38831.824    929.69445 
  991400    295.67048   -38674.448    176.26751   -38850.716   -7228.1426 
  991600    298.04598   -38668.662    177.68369   -38846.345   -6475.7139 
  991800    316.26713   -38645.919    188.54645   -38834.465   -40580.917 
  992000    317.00421   -38662.251    188.98587   -38851.237   -19360.328 
  992200    270.44008   -38689.914     161.2261    -38851.14   -23055.202 
  992400     298.5314   -38660.885    177.97308   -38838.859    17.676978 
  992600    296.72617   -38675.783    176.89687    -38852.68      6326.36 
  992800     272.5657   -38704.184    162.49332   -38866.678    -7283.273 
  993000    272.86852   -38679.667    162.67385    -38842.34     18687.47 
  993200    304.72211   -38658.309    181.66374   -38839.973   -29076.251 
  993400    291.57972   -38684.232    173.82875   -38858.061   -23598.968 
  993600    315.27445   -38686.932    187.95465   -38874.887    8642.8544 
  993800    332.72908   -38666.775    198.36044   -38865.136   -5768.9715 
  994000    311.19628   -38660.356     185.5234    -38845.88   -14843.001 
  994200    307.49298   -38656.079    183.31563   -38839.395    10938.024 
  994400    300.06664   -38684.343    178.88833   -38863.232    12566.841 
  994600    329.57595   -38647.601    196.48066   -38844.082    30350.704 
  994800    313.12469   -38662.751    186.67305   -38849.424    -17927.08 
  995000    292.12705   -38679.204    174.15505   -38853.359   -10882.415 
  995200    324.41718    -38641.58     193.4052   -38834.985    1608.8715 
  995400    308.92525   -38643.315     184.1695   -38827.484   -12962.533 
  995600    306.69086   -38676.103    182.83744    -38858.94    9783.4616 
  995800    317.43805   -38676.331    189.24451   -38865.575   -26748.874 
  996000     298.9005   -38655.344    178.19312   -38833.537   -18494.957 
  996200    280.65274    -38670.36     167.3145   -38837.674   -26697.939 
  996400    300.13869   -38681.723    178.93129   -38860.655   -5831.5701 
  996600    276.02461   -38694.401    164.55539   -38858.957   -28667.916 
  996800    319.91423   -38658.667    190.72071   -38849.388    -19982.46 
  997000    290.43408   -38674.115    173.14577   -38847.261    16184.705 
  997200     281.0884   -38710.153    167.57423   -38877.727   -15049.521 
  997400    266.07772    -38689.66    158.62543   -38848.285   -2724.3318 
  997600     307.6915   -38663.593    183.43399   -38847.027    37241.339 
  997800    298.31664    -38674.33    177.84505   -38852.175   -8529.1473 
  998000    304.46046   -38689.613    181.50776    -38871.12    1296.5809 
  998200    326.47154   -38656.884    194.62993   -38851.514    1329.3041 
  998400    285.05771    -38668.14    169.94058   -38838.081   -8156.7038 
  998600    298.24915    -38681.95    177.80481   -38859.754   -27754.852 
  998800    294.40657   -38671.277    175.51401   -38846.791   -5427.2749 
  999000     318.1092   -38646.478    189.64462   -38836.123    18831.445 
  999200    300.75918   -38672.171     179.3012   -38851.473    29.739948 
  999400    312.83617   -38677.547    186.50104   -38864.048    15093.581 
  999600    309.00084   -38643.051    184.21456   -38827.265   -10212.237 
  999800    302.68014   -38664.057     180.4464   -38844.504   -5979.7612 
 1000000    318.81627   -38669.234    190.06615     -38859.3   -10724.323 
Loop time of 7881.01 on 8 procs for 1000000 steps with 201 atoms

Performance: 2.741 ns/day, 8.757 hours/ns, 126.887 timesteps/s
99.4% CPU use with 8 MPI tasks x no OpenMP threads

MPI task timing breakdown:
Section |  min time  |  avg time  |  max time  |%varavg| %total
---------------------------------------------------------------
Pair    | 6705.6     | 6836.3     | 7048.2     | 139.7 | 86.74
Neigh   | 0          | 0          | 0          |   0.0 |  0.00
Comm    | 52.915     | 264.69     | 395.36     | 708.9 |  3.36
Output  | 0.099761   | 0.1091     | 0.16906    |   6.9 |  0.00
Modify  | 774.77     | 774.97     | 775.36     |   0.7 |  9.83
Other   |            | 4.953      |            |       |  0.06

Nlocal:    25.125 ave 28 max 23 min
Histogram: 2 0 1 0 1 0 3 0 0 1
Nghost:    966.375 ave 979 max 953 min
Histogram: 1 0 1 1 1 1 0 2 0 1
Neighs:    4300.38 ave 4685 max 4009 min
Histogram: 2 0 1 0 1 1 2 0 0 1

Total # of neighbors = 34403
Ave neighs/atom = 171.159
Neighbor list builds = 0
Dangerous builds = 0

unfix 1
unfix output
undump 1

Please see the log.cite file for references relevant to this simulation

Total wall time: 2:11:28
