ITEM: TIMESTEP
0
ITEM: NUMBER OF ATOMS
201
ITEM: BOX BOUNDS pp pp pp
0.0000000000000000e+00 1.6114000000000001e+01
0.0000000000000000e+00 1.6113000000000000e+01
0.0000000000000000e+00 1.6111999999999998e+01
ITEM: ATOMS id type x y z 
5 1 5.384 5.384 5.384 
65 1 5.66 6.662 2.461 
66 1 5.336 7.323 3.711 
68 1 4.865 6.606 4.866 
79 1 5.364 7.322 1.219 
89 1 6.662 2.461 5.66 
90 1 7.323 3.711 5.336 
92 1 6.606 4.866 4.866 
101 1 7.322 1.219 5.364 
109 1 2.461 5.66 6.662 
110 1 3.71 5.336 7.323 
112 1 4.865 4.866 6.606 
121 1 1.218 5.364 7.322 
129 1 6.662 5.66 2.461 
130 1 7.323 5.336 3.711 
137 1 7.322 5.364 1.219 
141 1 2.461 6.662 5.66 
142 1 3.71 7.323 5.336 
149 1 1.218 7.322 5.364 
153 1 5.66 2.461 6.662 
154 1 5.336 3.711 7.323 
161 1 5.364 1.219 7.322 
7 1 6.662 5.66 13.616 
8 1 7.323 5.336 12.366 
10 1 6.606 4.866 11.211 
21 1 7.322 5.364 14.858 
32 1 1.218 7.322 10.713 
40 1 2.461 6.662 10.417 
41 1 3.71 7.323 10.741 
43 1 4.865 6.606 11.211 
47 1 5.364 1.219 8.755 
55 1 5.66 2.461 9.415 
56 1 5.336 3.711 8.754 
58 1 4.865 4.866 9.471 
64 1 5.629 6.643 16.094 
75 1 5.384 5.384 10.693 
118 1 6.643 5.629 16.094 
168 1 5.66 6.662 13.616 
169 1 5.336 7.323 12.366 
176 1 5.364 7.322 14.858 
182 1 7.322 1.219 10.713 
186 1 6.662 2.461 10.417 
187 1 7.323 3.711 10.741 
191 1 1.218 5.364 8.755 
195 1 2.461 5.66 9.415 
196 1 3.71 5.336 8.754 
9 1 7.322 10.713 1.219 
19 1 6.662 10.417 2.461 
20 1 7.323 10.741 3.711 
22 1 6.606 11.211 4.866 
27 1 1.218 8.755 5.364 
35 1 2.461 9.415 5.66 
36 1 3.71 8.754 5.336 
38 1 4.865 9.471 4.866 
44 1 6.643 16.095 5.63 
50 1 5.66 13.616 6.662 
51 1 5.336 12.366 7.323 
53 1 4.865 11.211 6.606 
62 1 5.364 14.858 7.322 
76 1 5.629 16.095 6.643 
81 1 5.384 10.693 5.384 
167 1 5.364 8.755 1.219 
171 1 5.66 9.415 2.461 
172 1 5.336 8.754 3.711 
180 1 6.662 13.616 5.66 
181 1 7.323 12.366 5.336 
188 1 7.322 14.858 5.364 
194 1 1.218 10.713 7.322 
198 1 2.461 10.417 6.662 
199 1 3.71 10.741 7.323 
17 1 5.384 10.693 10.693 
39 1 6.643 16.095 10.448 
49 1 5.629 9.434 16.095 
73 1 5.364 8.755 14.858 
82 1 5.629 16.095 9.434 
83 1 5.66 9.415 13.616 
84 1 5.336 8.754 12.366 
86 1 4.865 9.471 11.211 
91 1 7.322 14.858 10.713 
99 1 6.662 13.616 10.417 
100 1 7.323 12.366 10.741 
102 1 6.606 11.211 11.211 
113 1 6.643 10.448 16.094 
114 1 2.461 10.417 9.415 
115 1 3.71 10.741 8.754 
117 1 4.865 11.211 9.471 
126 1 1.218 10.713 8.755 
131 1 7.322 10.713 14.858 
135 1 6.662 10.417 13.616 
136 1 7.323 10.741 12.366 
144 1 2.461 9.415 10.417 
145 1 3.71 8.754 10.741 
152 1 1.218 8.755 10.713 
158 1 5.364 14.858 8.755 
162 1 5.66 13.616 9.415 
163 1 5.336 12.366 8.754 
3 1 8.755 5.364 1.219 
13 1 9.415 5.66 2.461 
14 1 8.754 5.336 3.711 
16 1 9.471 4.866 4.866 
24 1 16.095 5.629 6.643 
30 1 13.616 6.662 5.66 
31 1 12.367 7.323 5.336 
33 1 11.212 6.606 4.866 
42 1 14.859 7.322 5.364 
52 1 10.713 1.219 7.322 
60 1 10.417 2.461 6.662 
61 1 10.741 3.711 7.323 
63 1 11.212 4.866 6.606 
87 1 10.693 5.384 5.384 
98 1 16.095 6.643 5.63 
170 1 10.713 7.322 1.219 
174 1 10.417 6.662 2.461 
175 1 10.741 7.323 3.711 
179 1 8.755 1.219 5.364 
183 1 9.415 2.461 5.66 
184 1 8.754 3.711 5.336 
192 1 13.616 5.66 6.662 
193 1 12.367 5.336 7.323 
200 1 14.859 5.364 7.322 
201 2 8.755 4.264 1.219 
6 1 16.096 5.629 9.434 
23 1 10.693 5.384 10.693 
59 1 10.448 6.643 16.095 
67 1 10.713 7.322 14.858 
77 1 10.417 6.662 13.616 
78 1 10.741 7.323 12.366 
80 1 11.212 6.606 11.211 
93 1 16.096 6.643 10.448 
94 1 9.415 2.461 10.417 
95 1 8.754 3.711 10.741 
97 1 9.471 4.866 11.211 
106 1 8.755 1.219 10.713 
116 1 14.859 5.364 8.755 
123 1 9.434 5.629 16.094 
124 1 13.616 5.66 9.415 
125 1 12.367 5.336 8.754 
127 1 11.212 4.866 9.471 
134 1 8.755 5.364 14.858 
138 1 9.415 5.66 13.616 
139 1 8.754 5.336 12.366 
143 1 14.859 7.322 10.713 
147 1 13.616 6.662 10.417 
148 1 12.367 7.323 10.741 
156 1 10.417 2.461 9.415 
157 1 10.741 3.711 8.754 
164 1 10.713 1.219 8.755 
11 1 10.693 10.693 5.384 
18 1 16.096 10.448 6.643 
29 1 9.434 16.095 5.63 
70 1 10.448 16.095 6.643 
71 1 10.417 9.415 2.461 
72 1 10.741 8.754 3.711 
74 1 11.212 9.471 4.866 
85 1 10.713 8.755 1.219 
96 1 8.755 14.858 5.364 
103 1 16.095 9.434 5.63 
104 1 9.415 13.616 5.66 
105 1 8.754 12.366 5.336 
107 1 9.471 11.211 4.866 
111 1 14.859 10.713 7.322 
119 1 13.616 10.417 6.662 
120 1 12.367 10.741 7.323 
122 1 11.212 11.211 6.606 
132 1 9.415 10.417 2.461 
133 1 8.754 10.741 3.711 
140 1 8.755 10.713 1.219 
146 1 14.859 8.755 5.364 
150 1 13.616 9.415 5.66 
151 1 12.367 8.754 5.336 
155 1 10.713 14.858 7.322 
159 1 10.417 13.616 6.662 
160 1 10.741 12.366 7.323 
1 1 9.415 10.417 13.616 
2 1 8.754 10.741 12.366 
4 1 9.471 11.211 11.211 
12 1 16.096 10.448 9.434 
15 1 8.755 10.713 14.858 
25 1 13.616 9.415 10.417 
26 1 12.367 8.754 10.741 
28 1 11.212 9.471 11.211 
34 1 9.434 16.095 10.448 
37 1 14.859 8.755 10.713 
45 1 10.417 13.616 9.415 
46 1 10.741 12.366 8.754 
48 1 11.212 11.211 9.471 
54 1 10.448 9.434 16.094 
57 1 10.713 14.858 8.755 
69 1 10.693 10.693 10.693 
88 1 10.448 16.095 9.434 
108 1 16.096 9.434 10.448 
128 1 9.434 10.448 16.094 
165 1 10.417 9.415 13.616 
166 1 10.741 8.754 12.366 
173 1 10.713 8.755 14.858 
177 1 9.415 13.616 10.417 
178 1 8.754 12.366 10.741 
185 1 8.755 14.858 10.713 
189 1 13.616 10.417 9.415 
190 1 12.367 10.741 8.754 
197 1 14.859 10.713 8.755 
ITEM: TIMESTEP
10
ITEM: NUMBER OF ATOMS
201
ITEM: BOX BOUNDS pp pp pp
0.0000000000000000e+00 1.6114000000000001e+01
0.0000000000000000e+00 1.6113000000000000e+01
0.0000000000000000e+00 1.6111999999999998e+01
ITEM: ATOMS id type x y z 
5 1 5.38113 5.38406 5.385 
65 1 5.64706 6.66882 2.46248 
66 1 5.33508 7.32554 3.71318 
68 1 4.8641 6.60557 4.86878 
79 1 5.35642 7.32495 1.21814 
89 1 6.66118 2.46 5.65931 
90 1 7.32316 3.70933 5.33708 
92 1 6.60818 4.86667 4.86559 
101 1 7.32182 1.21818 5.36323 
109 1 2.45996 5.65914 6.66173 
110 1 3.70955 5.3366 7.3237 
112 1 4.86479 4.86574 6.60702 
121 1 1.21807 5.36296 7.32231 
129 1 6.65198 5.65702 2.46435 
130 1 7.32474 5.33431 3.71704 
137 1 7.27132 5.40156 1.21898 
141 1 2.45946 6.66129 5.6595 
142 1 3.7093 7.32333 5.3376 
149 1 1.21804 7.32235 5.3631 
153 1 5.65887 2.46061 6.66216 
154 1 5.33664 3.71029 7.32358 
161 1 5.36301 1.21863 7.32224 
7 1 6.66165 5.65671 13.617 
8 1 7.32238 5.3364 12.3636 
10 1 6.60647 4.86578 11.2102 
21 1 7.32282 5.36314 14.8519 
32 1 1.21824 7.32224 10.7138 
40 1 2.46022 6.66176 10.4176 
41 1 3.71014 7.32316 10.7403 
43 1 4.86494 6.6065 11.2105 
47 1 5.36327 1.21862 8.75514 
55 1 5.65922 2.46061 9.41517 
56 1 5.33664 3.71057 8.75389 
58 1 4.86522 4.86574 9.4703 
64 1 5.61708 6.64926 16.0917 
75 1 5.38228 5.38435 10.6927 
118 1 6.6325 5.62568 16.0898 
168 1 5.65875 6.66208 13.6146 
169 1 5.33664 7.32284 12.3665 
176 1 5.35805 7.32389 14.8548 
182 1 7.32199 1.2184 10.7137 
186 1 6.66155 2.46042 10.4176 
187 1 7.32287 3.71016 10.7399 
191 1 1.21821 5.36318 8.755 
195 1 2.46008 5.65948 9.41561 
196 1 3.70992 5.33661 8.75411 
9 1 7.32257 10.7148 1.21894 
19 1 6.66189 10.4187 2.46119 
20 1 7.32313 10.7404 3.71133 
22 1 6.60644 11.2114 4.86659 
27 1 1.21815 8.75503 5.36335 
35 1 2.46003 9.41563 5.65942 
36 1 3.70974 8.75435 5.33687 
38 1 4.86479 9.4713 4.86697 
44 1 6.6425 16.0947 5.62914 
50 1 5.65942 13.6161 6.66194 
51 1 5.33651 12.3664 7.32338 
53 1 4.86523 11.2115 6.60704 
62 1 5.36326 14.8581 7.32224 
76 1 5.62854 16.0948 6.64293 
81 1 5.38363 10.6942 5.38447 
167 1 5.36164 8.75858 1.21901 
171 1 5.659 9.41762 2.46114 
172 1 5.33647 8.75713 3.71172 
180 1 6.6615 13.6163 5.65959 
181 1 7.32282 12.3663 5.33684 
188 1 7.32203 14.858 5.36341 
194 1 1.21831 10.7139 7.32226 
198 1 2.46037 10.4178 6.66197 
199 1 3.71001 10.7405 7.32329 
17 1 5.38362 10.6934 10.6929 
39 1 6.64266 16.0948 10.4482 
49 1 5.6279 9.4368 16.0939 
73 1 5.36218 8.75848 14.8571 
82 1 5.62878 16.0948 9.43433 
83 1 5.6589 9.41639 13.615 
84 1 5.33619 8.75408 12.3653 
86 1 4.86531 9.4705 11.211 
91 1 7.32206 14.8581 10.7135 
99 1 6.66178 13.6161 10.4174 
100 1 7.32291 12.3662 10.7403 
102 1 6.60615 11.2113 11.2103 
113 1 6.64259 10.4495 16.0942 
114 1 2.46045 10.4175 9.41522 
115 1 3.71016 10.7406 8.75409 
117 1 4.86537 11.2112 9.47049 
126 1 1.21831 10.7137 8.75504 
131 1 7.32223 10.7147 14.8575 
135 1 6.66177 10.4182 13.6154 
136 1 7.32284 10.7405 12.3656 
144 1 2.46044 9.41525 10.4175 
145 1 3.71016 8.75408 10.7405 
152 1 1.2183 8.75501 10.7136 
158 1 5.36344 14.8581 8.75502 
162 1 5.65957 13.6161 9.41518 
163 1 5.33644 12.3662 8.75405 
3 1 8.77177 5.29308 1.21986 
13 1 9.42461 5.68298 2.48893 
14 1 8.75692 5.34031 3.71316 
16 1 9.47171 4.86365 4.87327 
24 1 16.0956 5.62831 6.64262 
30 1 13.6181 6.66091 5.65927 
31 1 12.3687 7.32382 5.33857 
33 1 11.2128 6.60807 4.86791 
42 1 14.8595 7.32235 5.36283 
52 1 10.7143 1.21818 7.32243 
60 1 10.4183 2.46003 6.66171 
61 1 10.7401 3.71004 7.32394 
63 1 11.2125 4.86507 6.60817 
87 1 10.6943 5.38188 5.38509 
98 1 16.0955 6.6424 5.62892 
170 1 10.7178 7.32817 1.21865 
174 1 10.4179 6.66292 2.46216 
175 1 10.7436 7.32934 3.71937 
179 1 8.75474 1.21793 5.36291 
183 1 9.41645 2.45851 5.65957 
184 1 8.75414 3.70944 5.33911 
192 1 13.6174 5.65869 6.66177 
193 1 12.3678 5.337 7.32387 
200 1 14.8592 5.3627 7.32246 
201 2 8.78494 4.18101 1.22345 
6 1 16.0957 5.6286 9.43463 
23 1 10.694 5.38307 10.6928 
59 1 10.451 6.64428 16.0916 
67 1 10.7204 7.32813 14.8496 
77 1 10.42 6.66161 13.6142 
78 1 10.7408 7.32423 12.363 
80 1 11.2123 6.60694 11.2101 
93 1 16.0958 6.64266 10.4485 
94 1 9.41563 2.45977 10.4176 
95 1 8.75384 3.71022 10.7393 
97 1 9.47121 4.86475 11.2079 
106 1 8.75476 1.21832 10.7138 
116 1 14.8591 5.3631 8.75521 
123 1 9.44543 5.65149 16.0654 
124 1 13.6173 5.65926 9.41572 
125 1 12.3674 5.33683 8.75432 
127 1 11.212 4.86558 9.46991 
134 1 8.75895 5.36101 14.8564 
138 1 9.41758 5.65982 13.6089 
139 1 8.75318 5.33731 12.3628 
143 1 14.8592 7.32232 10.7138 
147 1 13.6173 6.66168 10.4178 
148 1 12.3677 7.32341 10.7398 
156 1 10.4178 2.46026 9.41561 
157 1 10.7402 3.71041 8.75412 
164 1 10.714 1.21838 8.75514 
11 1 10.6936 10.6946 5.38458 
18 1 16.0957 10.4486 6.64289 
29 1 9.43455 16.0944 5.62911 
70 1 10.4485 16.0947 6.6427 
71 1 10.4169 9.41766 2.46124 
72 1 10.7397 8.75726 3.71187 
74 1 11.2129 9.47273 4.86873 
85 1 10.7166 8.75495 1.21868 
96 1 8.75478 14.858 5.36329 
103 1 16.0956 9.43458 5.62903 
104 1 9.41552 13.6163 5.65957 
105 1 8.75372 12.3666 5.33693 
107 1 9.46978 11.2114 4.86605 
111 1 14.859 10.7139 7.32239 
119 1 13.617 10.4181 6.66208 
120 1 12.3671 10.7405 7.32346 
122 1 11.212 11.2117 6.60752 
132 1 9.41597 10.4183 2.46079 
133 1 8.75343 10.7405 3.71197 
140 1 8.75448 10.7145 1.21904 
146 1 14.8592 8.7551 5.36311 
150 1 13.6177 9.41634 5.65947 
151 1 12.3675 8.75514 5.33755 
155 1 10.7139 14.858 7.3223 
159 1 10.4176 13.6163 6.66176 
160 1 10.7404 12.3665 7.32347 
1 1 9.41519 10.4189 13.6157 
2 1 8.75341 10.7407 12.3648 
4 1 9.47035 11.2113 11.2106 
12 1 16.0957 10.4483 9.43435 
15 1 8.75438 10.7147 14.8574 
25 1 13.6172 9.4155 10.4175 
26 1 12.3672 8.75442 10.7401 
28 1 11.2122 9.47135 11.2097 
34 1 9.43435 16.0947 10.4483 
37 1 14.8591 8.75499 10.7136 
45 1 10.4175 13.6161 9.41533 
46 1 10.7405 12.3663 8.75413 
48 1 11.2118 11.2114 9.4702 
54 1 10.4481 9.43697 16.0938 
57 1 10.7137 14.8581 8.75503 
69 1 10.6935 10.6936 10.6928 
88 1 10.4483 16.0947 9.43452 
108 1 16.0957 9.43439 10.4484 
128 1 9.4353 10.4493 16.0942 
165 1 10.4176 9.41796 13.6136 
166 1 10.7403 8.75499 12.3651 
173 1 10.7165 8.75839 14.8571 
177 1 9.4152 13.6162 10.4175 
178 1 8.75378 12.3664 10.7402 
185 1 8.75481 14.8581 10.7136 
189 1 13.6168 10.4177 9.41519 
190 1 12.367 10.7405 8.75415 
197 1 14.859 10.7136 8.75506 
ITEM: TIMESTEP
20
ITEM: NUMBER OF ATOMS
201
ITEM: BOX BOUNDS pp pp pp
0.0000000000000000e+00 1.6114000000000001e+01
0.0000000000000000e+00 1.6113000000000000e+01
0.0000000000000000e+00 1.6111999999999998e+01
ITEM: ATOMS id type x y z 
5 1 5.3837 5.38453 5.38462 
65 1 5.64234 6.67047 2.46309 
66 1 5.33341 7.32524 3.71261 
68 1 4.86486 6.60535 4.8702 
79 1 5.35319 7.32504 1.21816 
89 1 6.66241 2.46166 5.65927 
90 1 7.32391 3.7107 5.33504 
92 1 6.61051 4.86825 4.86116 
101 1 7.32159 1.21905 5.36376 
109 1 2.4605 5.65899 6.66204 
110 1 3.7103 5.33616 7.32327 
112 1 4.86564 4.8664 6.60549 
121 1 1.2182 5.36269 7.32258 
129 1 6.654 5.66422 2.45847 
130 1 7.32591 5.33294 3.71136 
137 1 7.28715 5.41857 1.2194 
141 1 2.45994 6.66153 5.65982 
142 1 3.70985 7.32265 5.33837 
149 1 1.21833 7.32244 5.36302 
153 1 5.65983 2.46109 6.66187 
154 1 5.33638 3.7105 7.32295 
161 1 5.36328 1.21888 7.32211 
7 1 6.66452 5.65672 13.6203 
8 1 7.32306 5.33589 12.3658 
10 1 6.60722 4.86619 11.2116 
21 1 7.32473 5.36858 14.8561 
32 1 1.21854 7.32238 10.7139 
40 1 2.46082 6.66201 10.4175 
41 1 3.71042 7.32296 10.7404 
43 1 4.8656 6.60636 11.2109 
47 1 5.36334 1.2187 8.75499 
55 1 5.65931 2.46086 9.41481 
56 1 5.33654 3.71052 8.75381 
58 1 4.8656 4.86595 9.47059 
64 1 5.61153 6.65179 16.0907 
75 1 5.38294 5.38468 10.6926 
118 1 6.63498 5.63478 16.0959 
168 1 5.66133 6.66193 13.6145 
169 1 5.3373 7.32154 12.3676 
176 1 5.35619 7.32397 14.8539 
182 1 7.32182 1.21842 10.7135 
186 1 6.66211 2.46119 10.4177 
187 1 7.32232 3.71075 10.7404 
191 1 1.21844 5.36302 8.75496 
195 1 2.46053 5.65971 9.41562 
196 1 3.71004 5.3365 8.75367 
9 1 7.32374 10.7152 1.21868 
19 1 6.66176 10.4188 2.46124 
20 1 7.32355 10.7403 3.71155 
22 1 6.60629 11.2115 4.86705 
27 1 1.21853 8.75501 5.36335 
35 1 2.46027 9.41561 5.65963 
36 1 3.71008 8.75399 5.33696 
38 1 4.86456 9.47186 4.86753 
44 1 6.64264 16.0951 5.62912 
50 1 5.65935 13.6161 6.6623 
51 1 5.33649 12.3666 7.32354 
53 1 4.86531 11.2117 6.60756 
62 1 5.36323 14.8583 7.32226 
76 1 5.62877 16.0951 6.64311 
81 1 5.38365 10.6944 5.38502 
167 1 5.36114 8.7604 1.2189 
171 1 5.65868 9.41802 2.46096 
172 1 5.33589 8.75816 3.71212 
180 1 6.66134 13.6166 5.65978 
181 1 7.32256 12.3663 5.33709 
188 1 7.32202 14.8583 5.36352 
194 1 1.21848 10.7139 7.32222 
198 1 2.46064 10.4176 6.66209 
199 1 3.70997 10.7405 7.32331 
17 1 5.38353 10.6928 10.6926 
39 1 6.64291 16.095 10.4482 
49 1 5.62786 9.4372 16.0935 
73 1 5.36146 8.75937 14.8565 
82 1 5.62886 16.0949 9.43406 
83 1 5.65866 9.41698 13.6145 
84 1 5.33612 8.75298 12.3653 
86 1 4.86558 9.47005 11.2109 
91 1 7.32213 14.8582 10.7135 
99 1 6.66185 13.6161 10.4173 
100 1 7.32276 12.3663 10.74 
102 1 6.60565 11.2114 11.2094 
113 1 6.64248 10.4496 16.0944 
114 1 2.46069 10.4174 9.41507 
115 1 3.71015 10.7405 8.7543 
117 1 4.86547 11.2111 9.47036 
126 1 1.21842 10.7136 8.75529 
131 1 7.32331 10.7153 14.8576 
135 1 6.66161 10.4184 13.615 
136 1 7.32286 10.7404 12.3653 
144 1 2.46062 9.41497 10.4174 
145 1 3.71045 8.75389 10.7406 
152 1 1.21858 8.75506 10.7136 
158 1 5.36345 14.8581 8.75512 
162 1 5.65952 13.6161 9.41494 
163 1 5.33644 12.3663 8.75431 
3 1 8.77406 5.24478 1.22103 
13 1 9.41119 5.69098 2.48124 
14 1 8.75636 5.34544 3.71192 
16 1 9.47049 4.8656 4.87171 
24 1 16.096 5.62831 6.64261 
30 1 13.6178 6.66126 5.65935 
31 1 12.3684 7.32371 5.33953 
33 1 11.2119 6.60929 4.86876 
42 1 14.8599 7.32237 5.36268 
52 1 10.7145 1.21775 7.32262 
60 1 10.4181 2.4597 6.66141 
61 1 10.7403 3.7098 7.32364 
63 1 11.2118 4.86498 6.60735 
87 1 10.6926 5.38224 5.38567 
98 1 16.0957 6.64236 5.62867 
170 1 10.7134 7.32678 1.21876 
174 1 10.4087 6.66623 2.46333 
175 1 10.7436 7.32989 3.72001 
179 1 8.7545 1.2181 5.36306 
183 1 9.41566 2.45913 5.65999 
184 1 8.75463 3.71076 5.33951 
192 1 13.6175 5.65847 6.66176 
193 1 12.3679 5.33695 7.32336 
200 1 14.8595 5.3622 7.32251 
201 2 8.80495 4.12851 1.22591 
6 1 16.0959 5.62868 9.43488 
23 1 10.6931 5.38254 10.6924 
59 1 10.4436 6.64807 16.0903 
67 1 10.7193 7.3285 14.8486 
77 1 10.4205 6.66318 13.6128 
78 1 10.7406 7.32448 12.3615 
80 1 11.2121 6.60785 11.2095 
93 1 16.0959 6.64284 10.4485 
94 1 9.41538 2.45948 10.4174 
95 1 8.75341 3.71031 10.7387 
97 1 9.47018 4.86566 11.208 
106 1 8.75456 1.21833 10.7139 
116 1 14.8594 5.36267 8.75527 
123 1 9.43315 5.65828 16.0745 
124 1 13.6175 5.65902 9.41589 
125 1 12.3676 5.33697 8.75445 
127 1 11.2119 4.86543 9.46986 
134 1 8.75856 5.36764 14.8582 
138 1 9.41537 5.66308 13.6093 
139 1 8.75288 5.33826 12.3633 
143 1 14.8597 7.32251 10.7141 
147 1 13.6172 6.66198 10.418 
148 1 12.3679 7.32336 10.7391 
156 1 10.4176 2.4599 9.41604 
157 1 10.7401 3.70993 8.75404 
164 1 10.7142 1.21792 8.75489 
11 1 10.694 10.6948 5.38501 
18 1 16.0959 10.4485 6.64301 
29 1 9.43439 16.0943 5.6291 
70 1 10.4483 16.0947 6.64259 
71 1 10.4164 9.41619 2.46148 
72 1 10.7398 8.75795 3.71271 
74 1 11.2136 9.47359 4.8695 
85 1 10.7166 8.75412 1.2184 
96 1 8.75453 14.8583 5.36322 
103 1 16.0961 9.43483 5.62893 
104 1 9.41551 13.6162 5.65968 
105 1 8.75351 12.3669 5.33723 
107 1 9.46894 11.2114 4.86565 
111 1 14.8595 10.7143 7.32246 
119 1 13.6172 10.4183 6.66195 
120 1 12.3672 10.7404 7.32358 
122 1 11.2121 11.2122 6.6085 
132 1 9.41648 10.4175 2.46053 
133 1 8.75365 10.7404 3.71205 
140 1 8.75451 10.7141 1.21942 
146 1 14.8592 8.75507 5.36297 
150 1 13.6184 9.41677 5.65955 
151 1 12.3674 8.75553 5.33836 
155 1 10.714 14.858 7.32253 
159 1 10.4175 13.6165 6.66183 
160 1 10.7402 12.367 7.32383 
1 1 9.41555 10.4192 13.6159 
2 1 8.75316 10.741 12.3638 
4 1 9.46979 11.2113 11.2105 
12 1 16.0959 10.4484 9.43418 
15 1 8.75424 10.7146 14.8575 
25 1 13.6177 9.41561 10.4175 
26 1 12.3668 8.7548 10.7398 
28 1 11.2125 9.47188 11.2084 
34 1 9.43423 16.0944 10.4482 
37 1 14.859 8.75513 10.7137 
45 1 10.4174 13.6163 9.41537 
46 1 10.7404 12.3666 8.7545 
48 1 11.2117 11.2117 9.46967 
54 1 10.4478 9.43525 16.0939 
57 1 10.7137 14.8581 8.75501 
69 1 10.6938 10.6932 10.6926 
88 1 10.4481 16.0945 9.43459 
108 1 16.096 9.43427 10.4484 
128 1 9.43596 10.4484 16.0941 
165 1 10.4176 9.41885 13.6128 
166 1 10.7398 8.75596 12.3647 
173 1 10.7179 8.75919 14.8557 
177 1 9.41503 13.6162 10.4174 
178 1 8.75344 12.3667 10.7398 
185 1 8.75464 14.8581 10.7137 
189 1 13.6169 10.4177 9.41534 
190 1 12.3671 10.7404 8.75455 
197 1 14.8592 10.7139 8.75532 
ITEM: TIMESTEP
30
ITEM: NUMBER OF ATOMS
201
ITEM: BOX BOUNDS pp pp pp
0.0000000000000000e+00 1.6114000000000001e+01
0.0000000000000000e+00 1.6113000000000000e+01
0.0000000000000000e+00 1.6111999999999998e+01
ITEM: ATOMS id type x y z 
5 1 5.38466 5.38534 5.38456 
65 1 5.64018 6.66993 2.46183 
66 1 5.33166 7.32651 3.71226 
68 1 4.86555 6.6056 4.87107 
79 1 5.34637 7.32835 1.21816 
89 1 6.66315 2.46276 5.65914 
90 1 7.3248 3.71143 5.3339 
92 1 6.61028 4.86747 4.85954 
101 1 7.32184 1.21943 5.36391 
109 1 2.46086 5.65888 6.66241 
110 1 3.71091 5.33597 7.3227 
112 1 4.86658 4.86647 6.60519 
121 1 1.21846 5.36283 7.32256 
129 1 6.6591 5.67309 2.45404 
130 1 7.32321 5.3344 3.70766 
137 1 7.29814 5.42435 1.21964 
141 1 2.45968 6.66119 5.66061 
142 1 3.71057 7.32242 5.33946 
149 1 1.21841 7.32214 5.36341 
153 1 5.66041 2.46183 6.66218 
154 1 5.3364 3.71097 7.32249 
161 1 5.36397 1.21954 7.32184 
7 1 6.66401 5.65727 13.6215 
8 1 7.32283 5.33499 12.3665 
10 1 6.60707 4.86634 11.2125 
21 1 7.32293 5.37227 14.8601 
32 1 1.21892 7.32207 10.7136 
40 1 2.46103 6.66202 10.4172 
41 1 3.71105 7.32248 10.7407 
43 1 4.86571 6.60588 11.2105 
47 1 5.36366 1.21917 8.75476 
55 1 5.65965 2.4614 9.41445 
56 1 5.3363 3.71087 8.75365 
58 1 4.86574 4.86609 9.47032 
64 1 5.60899 6.65206 16.0922 
75 1 5.38338 5.38489 10.6924 
118 1 6.64072 5.64553 16.0998 
168 1 5.66138 6.66279 13.6146 
169 1 5.33809 7.32187 12.3673 
176 1 5.35364 7.32555 14.8539 
182 1 7.32168 1.21891 10.7133 
186 1 6.66201 2.4614 10.4173 
187 1 7.32266 3.71087 10.7405 
191 1 1.21863 5.36329 8.75529 
195 1 2.46109 5.6598 9.41484 
196 1 3.7106 5.33624 8.75363 
9 1 7.32338 10.7149 1.21865 
19 1 6.66259 10.419 2.46178 
20 1 7.32325 10.7401 3.71076 
22 1 6.60656 11.2117 4.86725 
27 1 1.21834 8.75464 5.36329 
35 1 2.46072 9.41521 5.65956 
36 1 3.70979 8.75367 5.33756 
38 1 4.8649 9.47149 4.86692 
44 1 6.64282 16.0956 5.62922 
50 1 5.65944 13.6165 6.66231 
51 1 5.33669 12.3671 7.3239 
53 1 4.86539 11.2117 6.60773 
62 1 5.36327 14.8587 7.32229 
76 1 5.62888 16.0956 6.64326 
81 1 5.38423 10.6951 5.38528 
167 1 5.36028 8.76286 1.21896 
171 1 5.65865 9.41882 2.46117 
172 1 5.33517 8.75859 3.71193 
180 1 6.66146 13.6168 5.65988 
181 1 7.32221 12.3665 5.33718 
188 1 7.32169 14.8585 5.36365 
194 1 1.21859 10.714 7.32252 
198 1 2.46073 10.4176 6.6621 
199 1 3.71001 10.7405 7.3236 
17 1 5.38405 10.6926 10.6925 
39 1 6.64283 16.0953 10.448 
49 1 5.62797 9.43788 16.0931 
73 1 5.36109 8.76047 14.8558 
82 1 5.6289 16.0952 9.43371 
83 1 5.65889 9.41723 13.6144 
84 1 5.33626 8.7529 12.3652 
86 1 4.86625 9.46919 11.2114 
91 1 7.32166 14.8582 10.7135 
99 1 6.66179 13.6164 10.4173 
100 1 7.32222 12.366 10.7397 
102 1 6.60542 11.2111 11.2092 
113 1 6.64327 10.4497 16.0941 
114 1 2.46081 10.4172 9.41527 
115 1 3.71024 10.7404 8.75431 
117 1 4.86571 11.2109 9.47054 
126 1 1.21861 10.7137 8.75502 
131 1 7.32279 10.7151 14.8573 
135 1 6.66205 10.4184 13.6145 
136 1 7.32235 10.7402 12.3659 
144 1 2.46112 9.41464 10.4175 
145 1 3.71036 8.75335 10.7405 
152 1 1.21862 8.75475 10.7137 
158 1 5.3634 14.8586 8.75507 
162 1 5.65942 13.6161 9.415 
163 1 5.33647 12.3664 8.75467 
3 1 8.7803 5.20872 1.2215 
13 1 9.40491 5.68952 2.47587 
14 1 8.75642 5.34926 3.71194 
16 1 9.47077 4.86698 4.87143 
24 1 16.0959 5.62857 6.64301 
30 1 13.6176 6.66177 5.65999 
31 1 12.3681 7.32405 5.34 
33 1 11.2112 6.61072 4.86833 
42 1 14.8596 7.32214 5.36319 
52 1 10.7146 1.218 7.3227 
60 1 10.4177 2.46008 6.66134 
61 1 10.7407 3.70994 7.32363 
63 1 11.212 4.86512 6.60758 
87 1 10.6916 5.3832 5.38611 
98 1 16.0957 6.64237 5.62897 
170 1 10.7095 7.32776 1.21944 
174 1 10.3978 6.66862 2.46294 
175 1 10.7415 7.32955 3.7205 
179 1 8.75451 1.21877 5.36337 
183 1 9.41537 2.4601 5.66046 
184 1 8.75546 3.71222 5.33856 
192 1 13.6172 5.65869 6.66211 
193 1 12.3679 5.33661 7.32337 
200 1 14.8597 5.36251 7.32247 
201 2 8.82096 4.08751 1.22816 
6 1 16.0961 5.62876 9.4344 
23 1 10.6925 5.38271 10.6917 
59 1 10.4338 6.65011 16.0918 
67 1 10.716 7.32985 14.8497 
77 1 10.421 6.6642 13.6131 
78 1 10.7406 7.32598 12.3594 
80 1 11.2118 6.60773 11.2077 
93 1 16.0961 6.64298 10.4484 
94 1 9.4149 2.46032 10.4171 
95 1 8.75353 3.71065 10.7385 
97 1 9.47029 4.86575 11.2072 
106 1 8.75442 1.21849 10.7139 
116 1 14.8595 5.36285 8.75521 
123 1 9.42845 5.65559 16.0815 
124 1 13.6174 5.65895 9.41517 
125 1 12.3679 5.33669 8.75386 
127 1 11.2121 4.86523 9.46945 
134 1 8.75886 5.3718 14.8594 
138 1 9.41489 5.66665 13.6092 
139 1 8.75402 5.33913 12.3645 
143 1 14.8598 7.32219 10.7139 
147 1 13.6176 6.66186 10.4175 
148 1 12.3682 7.3233 10.7383 
156 1 10.4176 2.46022 9.41576 
157 1 10.7405 3.70983 8.75376 
164 1 10.7144 1.21827 8.75477 
11 1 10.6938 10.6952 5.38529 
18 1 16.096 10.4484 6.64279 
29 1 9.43412 16.0948 5.6291 
70 1 10.4481 16.0948 6.64224 
71 1 10.4164 9.41589 2.46212 
72 1 10.7401 8.75726 3.71348 
74 1 11.2142 9.47412 4.87045 
85 1 10.717 8.75403 1.21855 
96 1 8.75443 14.8584 5.36315 
103 1 16.0961 9.43453 5.62891 
104 1 9.41513 13.6163 5.6596 
105 1 8.75354 12.367 5.33733 
107 1 9.46896 11.2114 4.8657 
111 1 14.8596 10.7146 7.32266 
119 1 13.6176 10.4185 6.66186 
120 1 12.3674 10.7404 7.32344 
122 1 11.2121 11.2121 6.60842 
132 1 9.41629 10.4172 2.46068 
133 1 8.7538 10.7405 3.71278 
140 1 8.75514 10.7135 1.21892 
146 1 14.8597 8.7548 5.36305 
150 1 13.6185 9.41661 5.65971 
151 1 12.3678 8.7556 5.33931 
155 1 10.7142 14.8583 7.32254 
159 1 10.4173 13.6168 6.66127 
160 1 10.7401 12.3671 7.32352 
1 1 9.41517 10.4198 13.6155 
2 1 8.75314 10.7411 12.3638 
4 1 9.46919 11.2112 11.2104 
12 1 16.096 10.4482 9.4345 
15 1 8.75492 10.7143 14.8573 
25 1 13.6176 9.41543 10.4177 
26 1 12.3674 8.75459 10.7391 
28 1 11.2126 9.47205 11.2077 
34 1 9.43397 16.0948 10.4483 
37 1 14.8594 8.75484 10.7139 
45 1 10.4175 13.6166 9.41591 
46 1 10.7402 12.3669 8.7546 
48 1 11.2118 11.2115 9.46968 
54 1 10.448 9.43513 16.0928 
57 1 10.7141 14.8584 8.7548 
69 1 10.6933 10.6938 10.6923 
88 1 10.4482 16.0948 9.43486 
108 1 16.0962 9.43411 10.4483 
128 1 9.43556 10.4478 16.0939 
165 1 10.4181 9.41934 13.6121 
166 1 10.7394 8.75684 12.3639 
173 1 10.7187 8.75825 14.8551 
177 1 9.41466 13.616 10.4178 
178 1 8.75334 12.3667 10.7394 
185 1 8.7545 14.8585 10.714 
189 1 13.6172 10.4179 9.41556 
190 1 12.3674 10.7402 8.75436 
197 1 14.8595 10.7143 8.75492 
ITEM: TIMESTEP
40
ITEM: NUMBER OF ATOMS
201
ITEM: BOX BOUNDS pp pp pp
0.0000000000000000e+00 1.6114000000000001e+01
0.0000000000000000e+00 1.6113000000000000e+01
0.0000000000000000e+00 1.6111999999999998e+01
ITEM: ATOMS id type x y z 
5 1 5.38677 5.38505 5.38386 
65 1 5.63873 6.67218 2.46039 
66 1 5.33034 7.32591 3.71204 
68 1 4.86624 6.60603 4.8703 
79 1 5.34356 7.32842 1.219 
89 1 6.66366 2.46352 5.65967 
90 1 7.32567 3.71201 5.33272 
92 1 6.6095 4.86797 4.85787 
101 1 7.3223 1.22006 5.3643 
109 1 2.46097 5.65891 6.66247 
110 1 3.71176 5.33564 7.32242 
112 1 4.86705 4.86678 6.60486 
121 1 1.2187 5.36301 7.32239 
129 1 6.66328 5.67686 2.45309 
130 1 7.32403 5.33488 3.70892 
137 1 7.29795 5.42649 1.21864 
141 1 2.46029 6.66163 5.66087 
142 1 3.7106 7.32275 5.33984 
149 1 1.21852 7.3221 5.36377 
153 1 5.66177 2.46206 6.66151 
154 1 5.33641 3.71152 7.32264 
161 1 5.36454 1.22016 7.32208 
7 1 6.66418 5.65829 13.6211 
8 1 7.32308 5.33459 12.3679 
10 1 6.60696 4.86625 11.213 
21 1 7.32312 5.37455 14.8591 
32 1 1.21913 7.32219 10.7135 
40 1 2.46104 6.6616 10.4168 
41 1 3.71121 7.32252 10.7408 
43 1 4.86652 6.60573 11.2112 
47 1 5.36409 1.2195 8.75428 
55 1 5.6602 2.46155 9.4145 
56 1 5.33614 3.71129 8.75316 
58 1 4.86627 4.86583 9.4702 
64 1 5.6077 6.65439 16.0929 
75 1 5.38502 5.38413 10.6927 
118 1 6.64491 5.65019 16.1035 
168 1 5.66195 6.66242 13.6162 
169 1 5.33814 7.32157 12.3664 
176 1 5.35317 7.32542 14.8543 
182 1 7.3219 1.21939 10.7131 
186 1 6.66206 2.46173 10.4169 
187 1 7.32275 3.71153 10.7411 
191 1 1.21891 5.3633 8.75509 
195 1 2.46135 5.65998 9.41468 
196 1 3.71115 5.33612 8.75315 
9 1 7.32348 10.7147 1.21908 
19 1 6.66284 10.4192 2.46104 
20 1 7.32351 10.7407 3.71234 
22 1 6.60662 11.2114 4.86679 
27 1 1.21884 8.7548 5.36374 
35 1 2.46054 9.41489 5.65996 
36 1 3.71051 8.75361 5.33754 
38 1 4.86452 9.47201 4.86781 
44 1 6.64306 16.0958 5.62968 
50 1 5.65971 13.6167 6.6623 
51 1 5.33641 12.3668 7.32361 
53 1 4.86554 11.2119 6.6078 
62 1 5.36348 14.8589 7.32229 
76 1 5.62952 16.0958 6.6429 
81 1 5.38407 10.6942 5.38524 
167 1 5.35897 8.76333 1.21889 
171 1 5.65855 9.41935 2.46195 
172 1 5.33473 8.75834 3.71174 
180 1 6.66159 13.6169 5.66017 
181 1 7.32282 12.3669 5.33721 
188 1 7.3219 14.859 5.36395 
194 1 1.21871 10.7136 7.32225 
198 1 2.46066 10.4172 6.66215 
199 1 3.71011 10.7406 7.32327 
17 1 5.38351 10.6922 10.6923 
39 1 6.64273 16.0953 10.4476 
49 1 5.62788 9.4384 16.0929 
73 1 5.36044 8.75965 14.8564 
82 1 5.6293 16.0958 9.43384 
83 1 5.65862 9.41721 13.6139 
84 1 5.33674 8.7525 12.3656 
86 1 4.86585 9.4689 11.2108 
91 1 7.32203 14.859 10.7135 
99 1 6.66144 13.6165 10.4172 
100 1 7.32254 12.3664 10.7394 
102 1 6.60602 11.211 11.2096 
113 1 6.64358 10.4501 16.0943 
114 1 2.46041 10.4171 9.41517 
115 1 3.71026 10.7403 8.75399 
117 1 4.86546 11.2109 9.47011 
126 1 1.21865 10.7134 8.75508 
131 1 7.3228 10.7152 14.857 
135 1 6.662 10.4187 13.6154 
136 1 7.32243 10.7405 12.3648 
144 1 2.46097 9.41461 10.4173 
145 1 3.71062 8.7532 10.7405 
152 1 1.2188 8.75476 10.7136 
158 1 5.3634 14.8585 8.75472 
162 1 5.65935 13.6167 9.41506 
163 1 5.33646 12.3664 8.75422 
3 1 8.78277 5.18894 1.22176 
13 1 9.40607 5.68841 2.4811 
14 1 8.75509 5.34967 3.71172 
16 1 9.4704 4.86758 4.87091 
24 1 16.096 5.62879 6.64304 
30 1 13.6171 6.66212 5.6606 
31 1 12.3669 7.32434 5.33913 
33 1 11.2104 6.60975 4.86851 
42 1 14.8591 7.32204 5.36373 
52 1 10.7137 1.21858 7.32201 
60 1 10.4174 2.46024 6.66222 
61 1 10.7412 3.71014 7.32296 
63 1 11.2116 4.86527 6.60709 
87 1 10.6915 5.38523 5.38615 
98 1 16.0956 6.64265 5.6292 
170 1 10.7066 7.32852 1.22007 
174 1 10.3909 6.66889 2.46415 
175 1 10.7397 7.32999 3.72038 
179 1 8.75483 1.21932 5.36422 
183 1 9.41452 2.46108 5.66066 
184 1 8.75569 3.71291 5.33738 
192 1 13.6173 5.65935 6.66209 
193 1 12.3669 5.33594 7.32291 
200 1 14.8589 5.3629 7.32218 
201 2 8.82853 4.071 1.22928 
6 1 16.0959 5.62898 9.43448 
23 1 10.6926 5.3839 10.6913 
59 1 10.4269 6.6488 16.0931 
67 1 10.7134 7.32944 14.85 
77 1 10.4206 6.66495 13.612 
78 1 10.7408 7.32613 12.3594 
80 1 11.2114 6.60713 11.2067 
93 1 16.0962 6.64264 10.4481 
94 1 9.41464 2.46048 10.4166 
95 1 8.75378 3.71141 10.7391 
97 1 9.46932 4.86626 11.2085 
106 1 8.7546 1.21906 10.7133 
116 1 14.8593 5.36295 8.755 
123 1 9.43083 5.65435 16.0775 
124 1 13.6172 5.6593 9.41517 
125 1 12.3671 5.33606 8.75377 
127 1 11.2121 4.86507 9.46939 
134 1 8.75888 5.37309 14.8612 
138 1 9.41476 5.66866 13.6089 
139 1 8.7539 5.33859 12.3635 
143 1 14.8593 7.32226 10.7138 
147 1 13.6179 6.66156 10.4169 
148 1 12.3672 7.32329 10.7384 
156 1 10.4172 2.46031 9.4152 
157 1 10.741 3.71003 8.75371 
164 1 10.7138 1.21849 8.75499 
11 1 10.6933 10.6953 5.38562 
18 1 16.096 10.4481 6.6431 
29 1 9.4334 16.0954 5.62928 
70 1 10.4479 16.095 6.643 
71 1 10.4167 9.4153 2.46244 
72 1 10.7408 8.75659 3.71454 
74 1 11.2136 9.47357 4.86944 
85 1 10.7166 8.75564 1.21906 
96 1 8.75452 14.8585 5.3637 
103 1 16.0963 9.43435 5.62922 
104 1 9.41466 13.6167 5.65978 
105 1 8.75346 12.3666 5.33704 
107 1 9.47005 11.2118 4.86699 
111 1 14.8596 10.7143 7.3224 
119 1 13.6174 10.4185 6.66242 
120 1 12.3677 10.7407 7.32367 
122 1 11.2121 11.2121 6.60818 
132 1 9.4158 10.4168 2.46174 
133 1 8.75405 10.7402 3.71171 
140 1 8.75561 10.713 1.21918 
146 1 14.8596 8.75475 5.36344 
150 1 13.6184 9.41628 5.66015 
151 1 12.368 8.75498 5.33949 
155 1 10.7136 14.8584 7.32197 
159 1 10.4172 13.6168 6.66201 
160 1 10.7403 12.3674 7.32357 
1 1 9.41533 10.4197 13.6148 
2 1 8.75349 10.7407 12.3646 
4 1 9.46996 11.2114 11.2093 
12 1 16.096 10.4481 9.43423 
15 1 8.75533 10.7143 14.8574 
25 1 13.6176 9.41557 10.4173 
26 1 12.3678 8.75426 10.7388 
28 1 11.2125 9.47156 11.208 
34 1 9.43393 16.0952 10.448 
37 1 14.8595 8.75487 10.7137 
45 1 10.4174 13.6167 9.4155 