ITEM: TIMESTEP
0
ITEM: NUMBER OF ATOMS
51
ITEM: BOX BOUNDS pp pp pp
0.0000000000000000e+00 1.1000000000000000e+01
0.0000000000000000e+00 1.1002000000000001e+01
0.0000000000000000e+00 1.1000000000000000e+01
ITEM: ATOMS id type x y z 
10 1 4.603 4.603 4.603 
11 1 3.085 3.085 3.085 
12 1 3.796 3.796 3.796 
46 1 0.726 0.725 0.725 
47 1 2.26 2.259 2.26 
48 1 1.551 1.55 1.55 
19 1 4.546 4.545 6.226 
20 1 3.013 3.013 7.764 
21 1 3.721 3.721 7.053 
31 1 0.668 0.667 10.103 
32 1 2.187 2.187 8.589 
33 1 1.476 1.475 9.298 
16 1 4.546 6.225 4.546 
17 1 3.013 7.765 3.013 
18 1 3.721 7.053 3.722 
25 1 0.668 10.103 0.668 
26 1 2.188 8.589 2.188 
27 1 1.476 9.298 1.476 
51 3 3.715 7.345 0.157 
4 1 4.608 6.169 6.169 
5 1 3.086 7.684 7.684 
6 1 3.799 6.974 6.974 
37 1 0.729 10.046 10.046 
38 1 2.259 8.509 8.508 
39 1 1.552 9.219 9.219 
49 2 2.87 7.771 9.462 
50 2 4.056 7.809 10.38 
13 1 6.225 4.546 4.546 
14 1 7.764 3.013 3.013 
15 1 7.053 3.721 3.722 
28 1 10.102 0.667 0.668 
29 1 8.589 2.187 2.188 
30 1 9.298 1.475 1.476 
1 1 6.168 4.608 6.169 
2 1 7.684 3.086 7.684 
3 1 6.974 3.799 6.974 
40 1 10.045 0.728 10.046 
41 1 8.508 2.259 8.508 
42 1 9.218 1.551 9.218 
7 1 6.169 6.169 4.608 
8 1 7.684 7.684 3.086 
9 1 6.974 6.974 3.799 
43 1 10.046 10.047 0.729 
44 1 8.508 8.509 2.259 
45 1 9.219 9.219 1.552 
22 1 6.229 6.229 6.229 
23 1 7.764 7.765 7.765 
24 1 7.055 7.056 7.055 
34 1 10.108 10.108 10.107 
35 1 8.59 8.59 8.59 
36 1 9.301 9.301 9.3 
ITEM: TIMESTEP
10
ITEM: NUMBER OF ATOMS
51
ITEM: BOX BOUNDS pp pp pp
0.0000000000000000e+00 1.1000000000000000e+01
0.0000000000000000e+00 1.1002000000000001e+01
0.0000000000000000e+00 1.1000000000000000e+01
ITEM: ATOMS id type x y z 
10 1 4.59884 4.59818 4.59249 
11 1 3.0819 3.08195 3.07701 
12 1 3.78524 3.78497 3.79431 
46 1 0.734001 0.730322 0.729901 
47 1 2.2711 2.27039 2.26979 
48 1 1.56504 1.56379 1.5666 
19 1 4.53757 4.53115 6.23317 
20 1 2.9999 3.00177 7.77578 
21 1 3.70837 3.70457 7.0683 
31 1 0.670578 0.708414 10.0997 
32 1 2.19601 2.18839 8.58 
33 1 1.47907 1.49357 9.2946 
16 1 4.53885 6.23325 4.53226 
17 1 3.00182 7.77678 3.0037 
18 1 3.70727 7.06553 3.70594 
25 1 0.670697 10.1001 0.709156 
26 1 2.19602 8.58064 2.19001 
27 1 1.47908 9.29503 1.49456 
51 3 3.71978 7.35232 0.136038 
4 1 4.61381 6.16155 6.16714 
5 1 3.09773 7.67824 7.64779 
6 1 3.80929 6.96683 6.94992 
37 1 0.754187 10.0246 10.0162 
38 1 2.29482 8.45445 8.5406 
39 1 1.52689 9.24591 9.23443 
49 2 2.851 7.79126 9.45657 
50 2 4.05508 7.80069 10.398 
13 1 6.23282 4.53899 4.53782 
14 1 7.77421 3.003 3.00205 
15 1 7.06699 3.70661 3.70953 
28 1 10.0966 0.67443 0.676051 
29 1 8.58601 2.19243 2.19406 
30 1 9.28666 1.48166 1.48136 
1 1 6.17332 4.59972 6.17685 
2 1 7.68628 3.08129 7.69204 
3 1 6.98716 3.79017 6.97622 
40 1 10.0393 0.731417 10.0372 
41 1 8.49716 2.26764 8.49679 
42 1 9.20545 1.56791 9.20624 
7 1 6.17679 6.17505 4.60225 
8 1 7.69117 7.69016 3.08403 
9 1 6.97812 6.98017 3.78462 
43 1 10.0404 10.0396 0.733883 
44 1 8.49722 8.49939 2.26932 
45 1 9.20617 9.20399 1.56594 
22 1 6.24362 6.23694 6.23747 
23 1 7.77466 7.77663 7.77734 
24 1 7.07156 7.07043 7.06825 
34 1 10.0664 10.1051 10.104 
35 1 8.58858 8.58115 8.58093 
36 1 9.28232 9.29751 9.2968 
ITEM: TIMESTEP
20
ITEM: NUMBER OF ATOMS
51
ITEM: BOX BOUNDS pp pp pp
0.0000000000000000e+00 1.1000000000000000e+01
0.0000000000000000e+00 1.1002000000000001e+01
0.0000000000000000e+00 1.1000000000000000e+01
ITEM: ATOMS id type x y z 
10 1 4.59793 4.59279 4.59234 
11 1 3.08282 3.08357 3.08334 
12 1 3.79206 3.79014 3.79081 
46 1 0.739116 0.731959 0.735411 
47 1 2.27286 2.27323 2.27309 
48 1 1.56761 1.5646 1.56593 
19 1 4.5393 4.52052 6.23282 
20 1 2.99966 3.00215 7.7773 
21 1 3.70941 3.70198 7.06542 
31 1 0.667718 0.717942 10.1024 
32 1 2.19575 2.18833 8.58004 
33 1 1.47789 1.49658 9.2952 
16 1 4.53994 6.23216 4.52114 
17 1 2.99963 7.77801 3.00413 
18 1 3.70955 7.06552 3.70329 
25 1 0.668354 10.1035 0.7141 
26 1 2.19384 8.58197 2.19089 
27 1 1.47763 9.29643 1.49615 
51 3 3.71802 7.34909 0.128456 
4 1 4.62873 6.14722 6.15114 
5 1 3.09031 7.6912 7.60303 
6 1 3.81383 6.96328 6.93887 
37 1 0.729258 10.0527 10.0281 
38 1 2.32478 8.4094 8.62056 
39 1 1.51369 9.25681 9.22755 
49 2 2.83535 7.80373 9.45146 
50 2 4.06652 7.80153 10.4046 
13 1 6.23717 4.53513 4.53519 
14 1 7.77559 3.00093 3.0018 
15 1 7.06684 3.70783 3.70763 
28 1 10.0929 0.676353 0.677703 
29 1 8.58525 2.19043 2.19118 
30 1 9.29205 1.48138 1.48265 
1 1 6.18021 4.59569 6.1733 
2 1 7.68624 3.08377 7.6867 
3 1 6.97992 3.79226 6.97795 
40 1 10.0347 0.737267 10.0333 
41 1 8.49488 2.27186 8.49599 
42 1 9.20363 1.56665 9.20279 
7 1 6.17876 6.17377 4.59546 
8 1 7.68622 7.68707 3.08362 
9 1 6.97992 6.97826 3.79175 
43 1 10.0388 10.0334 0.737156 
44 1 8.49541 8.49746 2.27186 
45 1 9.20512 9.2033 1.56683 
22 1 6.25439 6.23545 6.23559 
23 1 7.77401 7.77761 7.77755 
24 1 7.07353 7.06696 7.0669 
34 1 10.058 10.1075 10.1063 
35 1 8.5884 8.58125 8.58083 
36 1 9.2795 9.29811 9.29735 
ITEM: TIMESTEP
30
ITEM: NUMBER OF ATOMS
51
ITEM: BOX BOUNDS pp pp pp
0.0000000000000000e+00 1.1000000000000000e+01
0.0000000000000000e+00 1.1002000000000001e+01
0.0000000000000000e+00 1.1000000000000000e+01
ITEM: ATOMS id type x y z 
10 1 4.60317 4.5925 4.58777 
11 1 3.08407 3.08532 3.08605 
12 1 3.79673 3.79254 3.79013 
46 1 0.739559 0.73517 0.743124 
47 1 2.27567 2.2759 2.2754 
48 1 1.56919 1.56741 1.57076 
19 1 4.54484 4.51561 6.22887 
20 1 3.00083 3.00213 7.77557 
21 1 3.71251 3.69921 7.06298 
31 1 0.659892 0.726133 10.1096 
32 1 2.19374 2.18793 8.58243 
33 1 1.47328 1.50172 9.29947 
16 1 4.54606 6.22672 4.51725 
17 1 2.99986 7.77759 3.00555 
18 1 3.71088 7.06343 3.70032 
25 1 0.663694 10.1095 0.710065 
26 1 2.18849 8.58678 2.19286 
27 1 1.47359 9.30062 1.49751 
51 3 3.71799 7.33771 0.123078 
4 1 4.63377 6.14173 6.15112 
5 1 3.07112 7.7137 7.57289 
6 1 3.78821 6.99697 6.89673 
37 1 0.708892 10.0744 10.0247 
38 1 2.35019 8.36387 8.69635 
39 1 1.50095 9.27075 9.19625 
49 2 2.85194 7.76385 9.48561 
50 2 4.09839 7.80489 10.4212 
13 1 6.24373 4.52849 4.52868 
14 1 7.78015 2.99641 2.99759 
15 1 7.0714 3.70344 3.70276 
28 1 10.094 0.675659 0.679539 
29 1 8.58767 2.1872 2.18741 
30 1 9.29645 1.4778 1.48054 
1 1 6.18375 4.59224 6.16699 
2 1 7.68414 3.08527 7.68579 
3 1 6.98027 3.79268 6.97322 
40 1 10.0244 0.746265 10.0362 
41 1 8.49193 2.27522 8.49182 
42 1 9.19793 1.57186 9.20241 
7 1 6.18051 6.16925 4.59083 
8 1 7.68535 7.68625 3.08494 
9 1 6.9783 6.97557 3.79086 
43 1 10.0362 10.0324 0.743111 
44 1 8.49354 8.4956 2.2738 
45 1 9.20296 9.20196 1.57019 
22 1 6.25914 6.22956 6.23038 
23 1 7.77325 7.77583 7.77553 
24 1 7.07652 7.0637 7.06371 
34 1 10.0508 10.1146 10.1113 
35 1 8.58805 8.58283 8.58299 
36 1 9.27491 9.30184 9.30076 
ITEM: TIMESTEP
40
ITEM: NUMBER OF ATOMS
51
ITEM: BOX BOUNDS pp pp pp
0.0000000000000000e+00 1.1000000000000000e+01
0.0000000000000000e+00 1.1002000000000001e+01
0.0000000000000000e+00 1.1000000000000000e+01
ITEM: ATOMS id type x y z 
10 1 4.60578 4.59189 4.59192 
11 1 3.08523 3.08693 3.08574 
12 1 3.79779 3.79173 3.79174 
46 1 0.739175 0.733241 0.743027 
47 1 2.2751 2.27604 2.27591 
48 1 1.56905 1.5666 1.57098 
19 1 4.54377 4.52693 6.22959 
20 1 3.00416 3.00101 7.77236 
21 1 3.71296 3.70301 7.06235 
31 1 0.659599 0.720319 10.1082 
32 1 2.19283 2.19154 8.58353 
33 1 1.47401 1.50169 9.29832 
16 1 4.54313 6.22895 4.52202 
17 1 2.99898 7.77675 3.00209 
18 1 3.70941 7.06764 3.70298 
25 1 0.666823 10.1068 0.696942 
26 1 2.18476 8.59032 2.19562 
27 1 1.47342 9.30056 1.49265 
51 3 3.72321 7.32986 0.123638 
4 1 4.6184 6.15979 6.14877 
5 1 3.05742 7.72907 7.56843 
6 1 3.78061 7.00143 6.90928 
37 1 0.713134 10.071 10.0123 
38 1 2.34504 8.3643 8.69887 
39 1 1.5029 9.26684 9.18834 
49 2 2.86556 7.73097 9.50225 
50 2 4.11966 7.80569 10.4367 
13 1 6.24581 4.52701 4.52553 
14 1 7.78191 2.99456 2.9954 
15 1 7.07302 3.70189 3.70144 
28 1 10.0971 0.672965 0.679346 
29 1 8.58873 2.18639 2.18683 
30 1 9.2969 1.47659 1.48028 
1 1 6.17985 4.59432 6.16443 
2 1 7.68287 3.0858 7.68295 
3 1 6.97929 3.79524 6.97244 
40 1 10.023 0.748033 10.0401 
41 1 8.49158 2.27564 8.4915 
42 1 9.1968 1.57267 9.20448 
7 1 6.18136 6.16647 4.59402 
8 1 7.68425 7.68566 3.08448 
9 1 6.97912 6.97463 3.79174 
43 1 10.0389 10.0324 0.742532 
44 1 8.49379 8.49638 2.27376 
45 1 9.20421 9.2027 1.57 
22 1 6.24873 6.231 6.231 
23 1 7.77435 7.77242 7.7724 
24 1 7.07254 7.06316 7.06302 
34 1 10.057 10.1148 10.1097 
35 1 8.58389 8.58369 8.58423 
36 1 9.2761 9.30061 9.29881 
ITEM: TIMESTEP
50
ITEM: NUMBER OF ATOMS
51
ITEM: BOX BOUNDS pp pp pp
0.0000000000000000e+00 1.1000000000000000e+01
0.0000000000000000e+00 1.1002000000000001e+01
0.0000000000000000e+00 1.1000000000000000e+01
ITEM: ATOMS id type x y z 
10 1 4.60638 4.59161 4.59265 
11 1 3.08575 3.08671 3.08599 
12 1 3.79763 3.79265 3.79166 
46 1 0.74034 0.732165 0.741798 
47 1 2.27468 2.27599 2.27607 
48 1 1.56929 1.56626 1.57072 
19 1 4.54251 4.52867 6.23015 
20 1 3.00498 3.00068 7.77182 
21 1 3.71262 3.70402 7.06217 
31 1 0.659327 0.72212 10.1076 
32 1 2.19284 2.19201 8.58347 
33 1 1.47384 1.5026 9.29857 
16 1 4.54278 6.23075 4.52254 
17 1 2.99898 7.77821 3.00294 
18 1 3.70852 7.06575 3.70086 
25 1 0.667529 10.1066 0.69579 
26 1 2.18434 8.59106 2.19548 
27 1 1.47257 9.30062 1.49246 
51 3 3.72502 7.32714 0.124006 
4 1 4.61646 6.1617 6.1487 
5 1 3.05476 7.73204 7.56606 
6 1 3.779 7.00278 6.90912 
37 1 0.712192 10.0721 10.0107 
38 1 2.34913 8.35689 8.70694 
39 1 1.5018 9.26795 9.1863 
49 2 2.86551 7.72605 9.5009 
50 2 4.12624 7.80608 10.4415 
13 1 6.24489 4.52803 4.52584 
14 1 7.78177 2.99481 2.9953 
15 1 7.07291 3.70179 3.70179 
28 1 10.0974 0.672662 0.679889 
29 1 8.58945 2.18571 2.18634 
30 1 9.29749 1.47581 1.47977 
1 1 6.17926 4.59531 6.16472 
2 1 7.68293 3.08669 7.68298 
3 1 6.97864 3.7941 6.97115 
40 1 10.0236 0.747543 10.0403 
41 1 8.49137 2.27601 8.49209 
42 1 9.19676 1.57239 9.20402 
7 1 6.18102 6.16637 4.59407 
8 1 7.68379 7.68582 3.08448 
9 1 6.97972 6.97384 3.79179 
43 1 10.0401 10.0314 0.741155 
44 1 8.49389 8.49711 2.27386 
45 1 9.2048 9.20212 1.5695 
22 1 6.24733 6.23227 6.23137 
23 1 7.77502 7.77184 7.77204 
24 1 7.07145 7.0635 7.06312 
34 1 10.056 10.1147 10.109 
35 1 8.58413 8.58335 8.58413 
36 1 9.27431 9.30161 9.29931 
ITEM: TIMESTEP
60
ITEM: NUMBER OF ATOMS
51
ITEM: BOX BOUNDS pp pp pp
0.0000000000000000e+00 1.1000000000000000e+01
0.0000000000000000e+00 1.1002000000000001e+01
0.0000000000000000e+00 1.1000000000000000e+01
ITEM: ATOMS id type x y z 
10 1 4.60641 4.5923 4.59294 
11 1 3.08593 3.087 3.08604 
12 1 3.79793 3.79251 3.79185 
46 1 0.741455 0.731351 0.740928 
47 1 2.27434 2.27594 2.27629 
48 1 1.56963 1.56607 1.57053 
19 1 4.54131 4.53076 6.23059 
20 1 3.00544 3.00022 7.77135 
21 1 3.71251 3.70489 7.0622 
31 1 0.659276 0.722888 10.1073 
32 1 2.19318 2.19284 8.58356 
33 1 1.47357 1.50348 9.29808 
16 1 4.54231 6.23084 4.52217 
17 1 2.99845 7.77806 3.00234 
18 1 3.70855 7.06676 3.70144 
25 1 0.66761 10.1057 0.693612 
26 1 2.18326 8.59113 2.19585 
27 1 1.47341 9.30158 1.49176 
51 3 3.72726 7.32406 0.12451 
4 1 4.61454 6.16345 6.14928 
5 1 3.05188 7.7344 7.56553 
6 1 3.77614 7.00673 6.90697 
37 1 0.711338 10.0733 10.0086 
38 1 2.35111 8.35181 8.71324 
39 1 1.50194 9.26755 9.18443 
49 2 2.86666 7.71909 9.50173 
50 2 4.13344 7.80646 10.447 
13 1 6.24451 4.52851 4.52635 
14 1 7.78179 2.99482 2.99556 
15 1 7.07276 3.70183 3.70117 
28 1 10.0984 0.671803 0.68011 
29 1 8.58998 2.18533 2.18619 
30 1 9.29766 1.47526 1.47952 
1 1 6.17866 4.59609 6.16469 
2 1 7.68284 3.08703 7.6824 
3 1 6.97804 3.79415 6.97079 
40 1 10.0237 0.747433 10.0401 
41 1 8.49118 2.27625 8.49208 
42 1 9.19632 1.57281 9.20436 
7 1 6.18051 6.16636 4.5942 
8 1 7.68367 7.68578 3.08443 
9 1 6.97987 6.97366 3.7918 
43 1 10.0411 10.0303 0.740106 
44 1 8.49415 8.49757 2.2739 
45 1 9.20505 9.20191 1.5692 
22 1 6.24531 6.23344 6.23171 
23 1 7.77526 7.77134 7.77169 
24 1 7.07098 7.06357 7.06298 
34 1 10.0553 10.1149 10.1085 
35 1 8.58327 8.58323 8.58418 
36 1 9.27381 9.30155 9.2989 
ITEM: TIMESTEP
70
ITEM: NUMBER OF ATOMS
51
ITEM: BOX BOUNDS pp pp pp
0.0000000000000000e+00 1.1000000000000000e+01
0.0000000000000000e+00 1.1002000000000001e+01
0.0000000000000000e+00 1.1000000000000000e+01
ITEM: ATOMS id type x y z 
10 1 4.60825 4.59644 4.59599 
11 1 3.08936 3.08664 3.08631 
12 1 3.79601 3.79565 3.79351 
46 1 0.751905 0.722511 0.732048 
47 1 2.27199 2.27468 2.27786 
48 1 1.57148 1.56401 1.56903 
19 1 4.52991 4.55613 6.23523 
20 1 3.01275 2.99795 7.76535 
21 1 3.71094 3.71452 7.06044 
31 1 0.657772 0.72749 10.1025 
32 1 2.19471 2.20389 8.58472 
33 1 1.47378 1.50947 9.2928 
16 1 4.5381 6.23753 4.52256 
17 1 2.99334 7.78338 3.00079 
18 1 3.70346 7.06787 3.69699 
25 1 0.674781 10.1014 0.664458 
26 1 2.17636 8.59905 2.19875 
27 1 1.47185 9.30114 1.48114 
51 3 3.75724 7.28713 0.130924 
4 1 4.58999 6.191 6.14992 
5 1 3.01742 7.76776 7.55482 
6 1 3.74335 7.04171 6.8976 
37 1 0.705676 10.0825 9.98045 
38 1 2.36251 8.3061 8.76858 
39 1 1.50645 9.25766 9.17482 
49 2 2.88348 7.63177 9.52499 
50 2 4.21723 7.80994 10.5135 
13 1 6.24098 4.53183 4.52978 
14 1 7.78044 2.99525 2.99417 
15 1 7.07428 3.70194 3.70125 
28 1 10.1061 0.661882 0.676254 
29 1 8.58918 2.18247 2.17776 
30 1 9.31117 1.46703 1.49237 
1 1 6.16921 4.60449 6.16405 
2 1 7.6796 3.08976 7.67564 
3 1 6.97355 3.79846 6.96725 
40 1 10.021 0.749384 10.0409 
41 1 8.48714 2.28053 8.49246 
42 1 9.19256 1.57719 9.20452 
7 1 6.17766 6.16529 4.59536 
8 1 7.68478 7.68474 3.08369 
9 1 6.97869 6.97535 3.79127 
43 1 10.0503 10.0215 0.72932 
44 1 8.49517 8.50366 2.27407 
45 1 9.21249 9.19634 1.56541 
22 1 6.2232 6.24409 6.23441 
23 1 7.77836 7.76447 7.76627 
24 1 7.06116 7.06502 7.06192 
34 1 10.0541 10.1169 10.1013 
35 1 8.57428 8.58176 8.58435 
36 1 9.26748 9.30125 9.29511 
ITEM: TIMESTEP
80
ITEM: NUMBER OF ATOMS
51
ITEM: BOX BOUNDS pp pp pp
0.0000000000000000e+00 1.1000000000000000e+01
0.0000000000000000e+00 1.1002000000000001e+01
0.0000000000000000e+00 1.1000000000000000e+01
ITEM: ATOMS id type x y z 
10 1 4.60777 4.59674 4.59531 
11 1 3.08874 3.0866 3.08635 
12 1 3.79608 3.79499 3.79364 
46 1 0.750545 0.723196 0.731597 
47 1 2.27156 2.27454 2.27768 
48 1 1.57261 1.56297 1.56852 
19 1 4.52931 4.55795 6.23432 
20 1 3.01279 2.99879 7.76538 
21 1 3.71166 3.71578 7.05992 
31 1 0.656109 0.727098 10.1005 
32 1 2.19463 2.20353 8.58428 
33 1 1.4733 1.51051 9.29327 
16 1 4.53776 6.23667 4.52095 
17 1 2.99262 7.78194 2.99931 
18 1 3.70255 7.072 3.69942 
25 1 0.675394 10.1 0.662846 
26 1 2.17504 8.5993 2.19767 
27 1 1.47292 9.30241 1.47902 
51 3 3.76255 7.28382 0.131482 
4 1 4.58804 6.19347 6.14826 
5 1 3.01599 7.76894 7.55351 
6 1 3.74257 7.04237 6.89703 
37 1 0.707196 10.0813 9.97768 
38 1 2.36154 8.3043 8.76555 
39 1 1.50901 9.25295 9.18275 
49 2 2.88109 7.6282 9.53018 
50 2 4.22331 7.80927 10.5211 
13 1 6.24164 4.53163 4.53006 
14 1 7.78035 2.9955 2.99408 
15 1 7.07344 3.70183 3.70087 
28 1 10.1098 0.661128 0.681127 
29 1 8.59386 2.1807 2.18474 
30 1 9.30315 1.46978 1.48141 
1 1 6.16884 4.60528 6.16375 
2 1 7.67982 3.08989 7.67474 
3 1 6.97204 3.79922 6.96863 
40 1 10.021 0.750099 10.0427 
41 1 8.48776 2.28045 8.4931 
42 1 9.19219 1.57659 9.20518 
7 1 6.17764 6.16592 4.59466 
8 1 7.68465 7.68543 3.08387 
9 1 6.97938 6.97516 3.79118 
43 1 10.0516 10.021 0.728892 
44 1 8.49724 8.50201 2.27389 
45 1 9.21023 9.19884 1.5647 
22 1 6.22149 6.24487 6.23368 
23 1 7.77719 7.76407 7.7664 
24 1 7.06064 7.06487 7.0612 
34 1 10.0543 10.1185 10.0997 
35 1 8.57431 8.58169 8.58461 
36 1 9.26768 9.30199 9.29429 
ITEM: TIMESTEP
90
ITEM: NUMBER OF ATOMS
51
ITEM: BOX BOUNDS pp pp pp
0.0000000000000000e+00 1.1000000000000000e+01
0.0000000000000000e+00 1.1002000000000001e+01
0.0000000000000000e+00 1.1000000000000000e+01
ITEM: ATOMS id type x y z 
10 1 4.60719 4.59713 4.59554 
11 1 3.08737 3.08727 3.08692 
12 1 3.79837 3.79354 3.79261 
46 1 0.750187 0.723271 0.731462 
47 1 2.2711 2.2743 2.27754 
48 1 1.57304 1.56247 1.568 
19 1 4.52936 4.55789 6.234 
20 1 3.01311 2.99865 7.76527 
21 1 3.71106 3.71667 7.0603 
31 1 0.655801 0.726948 10.0999 
32 1 2.19448 2.20316 8.58365 
33 1 1.47354 1.5114 9.29419 
16 1 4.53748 6.23711 4.52076 
17 1 2.99201 7.78251 2.9993 
18 1 3.70249 7.07206 3.69878 
25 1 0.675525 10.1003 0.662323 
26 1 2.17507 8.59942 2.19739 
27 1 1.47274 9.30227 1.47861 
51 3 3.76391 7.28266 0.131761 
4 1 4.58755 6.19414 6.14804 
5 1 3.01557 7.76935 7.55294 
6 1 3.74231 7.04252 6.89679 
37 1 0.707369 10.0813 9.97735 
38 1 2.3616 8.30319 8.76574 
39 1 1.5098 9.25157 9.18442 
49 2 2.88037 7.62731 9.5313 
50 2 4.22525 7.80924 10.5231 
13 1 6.24166 4.5318 4.53047 
14 1 7.78028 2.99573 2.99456 
15 1 7.07281 3.70209 3.70077 
28 1 10.1096 0.661455 0.681373 
29 1 8.59402 2.18052 2.18484 
30 1 9.30322 1.46972 1.48132 
1 1 6.16848 4.60551 6.16363 
2 1 7.67945 3.09006 7.67513 
3 1 6.97254 3.79907 6.96798 
40 1 10.0208 0.750136 10.043 
41 1 8.4876 2.28031 8.49304 
42 1 9.19221 1.57714 9.20532 
7 1 6.17782 6.16566 4.59458 
8 1 7.68464 7.68595 3.08403 
9 1 6.97975 6.97461 3.79073 
43 1 10.0516 10.0211 0.728594 
44 1 8.49733 8.50191 2.27369 
45 1 9.2106 9.19899 1.56471 
22 1 6.22115 6.24515 6.23359 
23 1 7.77686 7.76406 7.76662 
24 1 7.06074 7.06493 7.06096 
34 1 10.0541 10.1188 10.0993 
35 1 8.57427 8.58174 8.58454 
36 1 9.2677 9.30196 9.29422 
ITEM: TIMESTEP
100
ITEM: NUMBER OF ATOMS
51
ITEM: BOX BOUNDS pp pp pp
0.0000000000000000e+00 1.1000000000000000e+01
0.0000000000000000e+00 1.1002000000000001e+01
0.0000000000000000e+00 1.1000000000000000e+01
ITEM: ATOMS id type x y z 
10 1 4.60718 4.59713 4.59552 
11 1 3.08738 3.08726 3.08692 
12 1 3.79832 3.79355 3.79263 
46 1 0.750176 0.723277 0.731454 
47 1 2.27108 2.27428 2.27754 
48 1 1.57307 1.56246 1.56797 
19 1 4.5293 4.55798 6.23399 
20 1 3.01307 2.99873 7.76528 
21 1 3.71114 3.71661 7.06027 
31 1 0.655817 0.726952 10.0999 
32 1 2.19451 2.20316 8.58366 
33 1 1.47347 1.51142 9.29414 
16 1 4.53747 6.23714 4.52076 
17 1 2.99199 7.78252 2.99932 
18 1 3.70249 7.07206 3.69875 
25 1 0.675491 10.1003 0.662295 
26 1 2.17503 8.59942 2.19739 
27 1 1.4728 9.30228 1.47852 
51 3 3.76403 7.28255 0.131786 
4 1 4.58752 6.19417 6.14798 
5 1 3.01553 7.76939 7.55289 
6 1 3.74229 7.04254 6.89677 
37 1 0.70738 10.0812 9.97732 
38 1 2.36161 8.30309 8.76577 
39 1 1.50985 9.25146 9.18457 
49 2 2.88031 7.62723 9.5314 
50 2 4.22543 7.80924 10.5233 
13 1 6.24166 4.53182 4.53046 
14 1 7.7803 2.99573 2.99454 
15 1 7.07281 3.70206 3.70078 
28 1 10.1096 0.661469 0.681382 
29 1 8.59403 2.18052 2.18485 
30 1 9.30321 1.4697 1.48133 
1 1 6.16846 4.60553 6.16366 
2 1 7.67944 3.09006 7.67513 
3 1 6.97253 3.79908 6.96799 
40 1 10.0208 0.750159 10.0431 
41 1 8.4876 2.28033 8.49304 
42 1 9.19218 1.57714 9.20534 
7 1 6.17783 6.16566 4.59457 
8 1 7.68467 7.68594 3.08403 
9 1 6.97971 6.97467 3.79073 
43 1 10.0516 10.0211 0.728578 
44 1 8.49737 8.5019 2.27369 
45 1 9.21059 9.19902 1.56467 
22 1 6.22111 6.24519 6.23356 
23 1 7.77682 7.76406 7.76662 
24 1 7.06073 7.06492 7.06095 
34 1 10.0542 10.1188 10.0993 
35 1 8.57428 8.58175 8.58451 
36 1 9.26768 9.30194 9.29425 
ITEM: TIMESTEP
110
ITEM: NUMBER OF ATOMS
51
ITEM: BOX BOUNDS pp pp pp
0.0000000000000000e+00 1.1000000000000000e+01
0.0000000000000000e+00 1.1002000000000001e+01
0.0000000000000000e+00 1.1000000000000000e+01
ITEM: ATOMS id type x y z 
10 1 4.60697 4.59775 4.58915 
11 1 3.08227 3.08364 3.08777 
12 1 3.79562 3.79075 3.79043 
46 1 0.749227 0.723375 0.72081 
47 1 2.2709 2.2654 2.27418 
48 1 1.5724 1.55795 1.56086 
19 1 4.52104 4.57347 6.22572 
20 1 3.01549 3.01041 7.76711 
21 1 3.71019 3.72725 7.05775 
31 1 0.651213 0.730494 10.0893 
32 1 2.1976 2.20567 8.58003 
33 1 1.46902 1.51803 9.28684 
16 1 4.5341 6.24506 4.51002 
17 1 2.98182 7.79086 2.99779 
18 1 3.69536 7.08067 3.6945 
25 1 0.676224 10.1029 0.641306 
26 1 2.17025 8.60278 2.18457 
27 1 1.47215 9.30373 1.46056 
51 3 3.81932 7.233 0.143225 
4 1 4.57459 6.21141 6.12939 
5 1 2.99802 7.78477 7.53349 
6 1 3.72724 7.05666 6.88197 
37 1 0.713343 10.0799 9.96343 
38 1 2.3676 8.25263 8.78167 
39 1 1.53382 9.203 9.25203 
49 2 2.85265 7.59003 9.57762 
50 2 4.30683 7.80908 10.6057 
13 1 6.23872 4.53372 4.53318 
14 1 7.7796 2.9949 2.9972 
15 1 7.07158 3.70399 3.70055 
28 1 10.1033 0.665816 0.685417 
29 1 8.59499 2.17996 2.19202 
30 1 9.30205 1.46863 1.48648 
1 1 6.15973 4.61426 6.16702 
2 1 7.67473 3.09345 7.67358 
3 1 6.96742 3.80438 6.96885 
40 1 10.0164 0.757876 10.0506 
41 1 8.48473 2.28329 8.49121 
42 1 9.18582 1.58463 9.21114 
7 1 6.17827 6.16623 4.58799 
8 1 7.69037 7.69254 3.08405 
9 1 6.98275 6.97851 3.7851 
43 1 10.0531 10.0242 0.717775 
44 1 8.50736 8.50234 2.2683 
45 1 9.21691 9.2002 1.55695 
22 1 6.20907 6.25598 6.22427 
23 1 7.76847 7.761 7.76935 
24 1 7.05076 7.06834 7.05817 
34 1 10.0558 10.1256 10.088 
35 1 8.57434 8.57998 8.58007 
36 1 9.26145 9.30549 9.29046 
ITEM: TIMESTEP
120
ITEM: NUMBER OF ATOMS
51
ITEM: BOX BOUNDS pp pp pp
0.0000000000000000e+00 1.1000000000000000e+01
0.0000000000000000e+00 1.1002000000000001e+01
0.0000000000000000e+00 1.1000000000000000e+01
ITEM: ATOMS id type x y z 
10 1 4.60605 4.59867 4.58921 
11 1 3.08252 3.08258 3.08767 
12 1 3.79454 3.79132 3.78972 
46 1 0.749667 0.72433 0.719645 
47 1 2.27136 2.26573 2.27472 
48 1 1.57316 1.55846 1.56117 
19 1 4.52118 4.57261 6.22576 
20 1 3.01612 3.01022 7.76688 
21 1 3.70884 3.72904 7.05772 
31 1 0.651032 0.729333 10.0889 
32 1 2.19661 2.20762 8.57968 
33 1 1.47152 1.51625 9.28645 
16 1 4.53487 6.24377 4.50898 
17 1 2.98137 7.7915 2.99798 
18 1 3.69559 7.08006 3.693 
25 1 0.677038 10.1028 0.640527 
26 1 2.17024 8.6026 2.18411 
27 1 1.4721 9.30416 1.46032 
51 3 3.82096 7.23053 0.142813 
4 1 4.57398 6.21203 6.13051 
5 1 2.9962 7.78539 7.53498 
6 1 3.72547 7.05954 6.88102 
37 1 0.712833 10.0797 9.96355 
38 1 2.36844 8.24985 8.78757 
39 1 1.53263 9.20274 9.24926 
49 2 2.85401 7.58754 9.58078 
50 2 4.30994 7.80904 10.6087 
13 1 6.23871 4.5343 4.53217 
14 1 7.7788 2.99639 2.99762 
15 1 7.07089 3.70348 3.7029 
28 1 10.1059 0.664162 0.684172 
29 1 8.59432 2.17987 2.19293 
30 1 9.30189 1.46989 1.48686 
1 1 6.15958 4.61534 6.16697 
2 1 7.67442 3.09417 7.67273 
3 1 6.96586 3.80514 6.96926 
40 1 10.016 0.757618 10.0489 
41 1 8.48337 2.2846 8.49256 
42 1 9.18666 1.58396 9.20818 
7 1 6.17764 6.16755 4.58716 
8 1 7.6905 7.69188 3.08335 
9 1 6.98318 6.9793 3.78627 
43 1 10.0521 10.0232 0.716328 
44 1 8.50686 8.50176 2.26884 
45 1 9.2167 9.19958 1.55724 
22 1 6.2093 6.25596 6.22421 
23 1 7.76799 7.7612 7.76897 
24 1 7.05081 7.06855 7.05861 
34 1 10.0554 10.1257 10.0883 
35 1 8.57142 8.58089 8.58184 
36 1 9.26631 9.30411 9.28703 
ITEM: TIMESTEP
130
ITEM: NUMBER OF ATOMS
51
ITEM: BOX BOUNDS pp pp pp
0.0000000000000000e+00 1.1000000000000000e+01
0.0000000000000000e+00 1.1002000000000001e+01
0.0000000000000000e+00 1.1000000000000000e+01
ITEM: ATOMS id type x y z 
10 1 4.60566 4.59908 4.58901 
11 1 3.08256 3.08246 3.08777 
12 1 3.79463 3.79142 3.78962 
46 1 0.749729 0.72457 0.71925 
47 1 2.27146 2.26569 2.27483 
48 1 1.57319 1.5585 1.56101 
19 1 4.52099 4.57288 6.22581 
20 1 3.01608 3.01031 7.7669 
21 1 3.70861 3.72942 7.0577 
31 1 0.650998 0.729132 10.0885 
32 1 2.19623 2.20818 8.57968 
33 1 1.4722 1.51557 9.28632 
16 1 4.535 6.24352 4.50878 
17 1 2.98144 7.79151 2.99813 
18 1 3.69554 7.07992 3.69256 
25 1 0.677151 10.1026 0.639969 
26 1 2.17045 8.60245 2.1834 
27 1 1.47156 9.30459 1.46101 
51 3 3.82175 7.22945 0.142664 
4 1 4.57365 6.21245 6.13073 
5 1 2.99568 7.78557 7.53571 
6 1 3.72459 7.06046 6.8805 
37 1 0.712736 10.0795 9.96352 
38 1 2.3687 8.24878 8.78951 
39 1 1.53245 9.20239 9.24816 
49 2 2.85461 7.58642 9.58235 
50 2 4.31129 7.80899 10.6101 
13 1 6.23854 4.53456 4.53223 
14 1 7.77856 2.99667 2.998 
15 1 7.07063 3.70361 3.70327 
28 1 10.1063 0.663693 0.683944 
29 1 8.59432 2.17966 2.1931 
30 1 9.30201 1.4701 1.48676 
1 1 6.1593 4.61558 6.16696 
2 1 7.67396 3.0944 7.6728 
3 1 6.96595 3.80546 6.9689 
40 1 10.0161 0.757468 10.0483 
41 1 8.48296 2.28505 8.49302 
42 1 9.18698 1.58358 9.20726 
7 1 6.17743 6.16793 4.58686 
8 1 7.69061 7.69176 3.08333 
9 1 6.98316 6.97934 3.78627 
43 1 10.0523 10.023 0.716032 
44 1 8.50736 8.50174 2.26906 
45 1 9.21617 9.19967 1.55656 
22 1 6.20907 6.25602 6.22438 
23 1 7.76794 7.76138 7.76923 
24 1 7.05072 7.06877 7.05839 
34 1 10.0559 10.1255 10.0879 
35 1 8.57136 8.581 8.58189 
36 1 9.26642 9.30416 9.28702 
ITEM: TIMESTEP
140
ITEM: NUMBER OF ATOMS
51
ITEM: BOX BOUNDS pp pp pp
0.0000000000000000e+00 1.1000000000000000e+01
0.0000000000000000e+00 1.1002000000000001e+01
0.0000000000000000e+00 1.1000000000000000e+01
ITEM: ATOMS id type x y z 
10 1 4.60561 4.59909 4.589 
11 1 3.08259 3.08242 3.08778 
12 1 3.7946 3.79147 3.7896 
46 1 0.749737 0.724601 0.719185 
47 1 2.27147 2.26567 2.27484 
48 1 1.57318 1.5585 1.56099 
19 1 4.52094 4.57295 6.22582 
20 1 3.01608 3.01036 7.76687 
21 1 3.7086 3.72942 7.05771 
31 1 0.650939 0.729113 10.0884 
32 1 2.19615 2.20826 8.57965 
33 1 1.47235 1.51547 9.28635 
16 1 4.535 6.24349 4.50874 
17 1 2.98141 7.79153 2.99811 
18 1 3.69555 7.07992 3.69252 
25 1 0.677176 10.1026 0.639949 
26 1 2.17044 8.60246 2.18336 
27 1 1.47154 9.3046 1.46099 
51 3 3.82186 7.22929 0.142643 
4 1 4.57362 6.2125 6.13078 
5 1 2.99561 7.78557 7.5358 
6 1 3.72449 7.06059 6.88043 
37 1 0.712733 10.0795 9.9635 
38 1 2.36874 8.24862 8.78977 
39 1 1.53242 9.20234 9.24802 
49 2 2.8547 7.58626 9.58259 
50 2 4.31149 7.80899 10.6103 
13 1 6.23852 4.53459 4.53225 
14 1 7.77855 2.99667 2.99803 
15 1 7.0706 3.70365 3.70331 
28 1 10.1064 0.663682 0.683881 
29 1 8.59433 2.17963 2.19312 
30 1 9.30202 1.47011 1.48675 
1 1 6.15927 4.61563 6.16695 
2 1 7.67393 3.09443 7.67279 
3 1 6.96591 3.8055 6.96891 
40 1 10.0161 0.75742 10.0482 
41 1 8.48295 2.28507 8.49306 
42 1 9.187 1.58356 9.20723 
7 1 6.17742 6.16799 4.58685 
8 1 7.69063 7.69175 3.08332 
9 1 6.98316 6.97935 3.78627 
43 1 10.0523 10.023 0.715981 
44 1 8.50739 8.50175 2.26907 
45 1 9.21614 9.19963 1.55655 
22 1 6.20903 6.25604 6.22438 
23 1 7.76792 7.76139 7.7692 
24 1 7.05067 7.06878 7.05842 
34 1 10.0559 10.1255 10.0878 
35 1 8.57134 8.58102 8.5819 
36 1 9.26645 9.30415 9.28701 
ITEM: TIMESTEP
150
ITEM: NUMBER OF ATOMS
51
ITEM: BOX BOUNDS pp pp pp
0.0000000000000000e+00 1.1000000000000000e+01
0.0000000000000000e+00 1.1002000000000001e+01
0.0000000000000000e+00 1.1000000000000000e+01
ITEM: ATOMS id type x y z 
10 1 4.6056 4.5991 4.58899 
11 1 3.08259 3.08242 3.08778 
12 1 3.7946 3.79147 3.7896 
46 1 0.749736 0.724605 0.719178 
47 1 2.27147 2.26567 2.27484 
48 1 1.57318 1.55851 1.56098 
19 1 4.52094 4.57296 6.22582 
20 1 3.01609 3.01036 7.76687 
21 1 3.70859 3.72944 7.05771 
31 1 0.650931 0.729113 10.0884 
32 1 2.19613 2.20828 8.57965 
33 1 1.47237 1.51545 9.28635 
16 1 4.535 6.24348 4.50874 
17 1 2.98141 7.79153 2.99811 
18 1 3.69556 7.07992 3.69251 
25 1 0.677174 10.1026 0.639948 
26 1 2.17044 8.60246 2.18336 
27 1 1.47154 9.3046 1.46098 
51 3 3.82188 7.22927 0.14264 
4 1 4.57362 6.2125 6.13079 
5 1 2.9956 7.78557 7.53582 
6 1 3.72448 7.06061 6.88042 
37 1 0.712733 10.0795 9.9635 
38 1 2.36875 8.2486 8.78981 
39 1 1.53241 9.20233 9.248 
49 2 2.85471 7.58624 9.58262 
50 2 4.31152 7.80899 10.6103 
13 1 6.23851 4.53459 4.53225 
14 1 7.77855 2.99667 2.99804 
15 1 7.0706 3.70365 3.70331 
28 1 10.1064 0.663677 0.683874 
29 1 8.59433 2.17963 2.19312 
30 1 9.30202 1.47011 1.48675 
1 1 6.15927 4.61564 6.16696 
2 1 7.67392 3.09443 7.67279 
3 1 6.96591 3.80551 6.96891 
40 1 10.0161 0.757417 10.0482 
41 1 8.48294 2.28508 8.49307 
42 1 9.187 1.58356 9.20721 
7 1 6.17742 6.168 4.58685 
8 1 7.69063 7.69175 3.08332 
9 1 6.98316 6.97935 3.78627 
43 1 10.0523 10.023 0.715966 
44 1 8.50739 8.50174 2.26906 
45 1 9.21614 9.19964 1.55656 
22 1 6.20902 6.25605 6.22438 
23 1 7.76792 7.76139 7.7692 
24 1 7.05067 7.06879 7.05843 
34 1 10.0559 10.1255 10.0878 
35 1 8.57135 8.58101 8.5819 
36 1 9.26645 9.30417 9.28699 
ITEM: TIMESTEP
154
ITEM: NUMBER OF ATOMS
51
ITEM: BOX BOUNDS pp pp pp
0.0000000000000000e+00 1.1000000000000000e+01
0.0000000000000000e+00 1.1002000000000001e+01
0.0000000000000000e+00 1.1000000000000000e+01
ITEM: ATOMS id type x y z 
10 1 4.6056 4.5991 4.58899 
11 1 3.08259 3.08242 3.08778 
12 1 3.7946 3.79147 3.7896 
46 1 0.749736 0.724605 0.719176 
47 1 2.27147 2.26567 2.27484 
48 1 1.57318 1.55851 1.56098 
19 1 4.52094 4.57296 6.22582 
20 1 3.01609 3.01036 7.76687 
21 1 3.70859 3.72944 7.05771 
31 1 0.650934 0.72911 10.0884 
32 1 2.19614 2.20828 8.57965 
33 1 1.47237 1.51545 9.28635 
16 1 4.535 6.24348 4.50874 
17 1 2.98141 7.79153 2.99811 
18 1 3.69556 7.07992 3.69251 
25 1 0.677176 10.1026 0.639945 
26 1 2.17044 8.60246 2.18336 
27 1 1.47154 9.3046 1.46099 
51 3 3.82188 7.22927 0.14264 
4 1 4.57362 6.21251 6.13079 
5 1 2.99559 7.78557 7.53582 
6 1 3.72447 7.06061 6.88042 
37 1 0.712733 10.0795 9.9635 
38 1 2.36875 8.24859 8.78982 
39 1 1.53241 9.20233 9.24799 
49 2 2.85471 7.58623 9.58263 
50 2 4.31152 7.80898 10.6103 
13 1 6.23851 4.53459 4.53225 
14 1 7.77855 2.99667 2.99804 
15 1 7.0706 3.70365 3.70331 
28 1 10.1064 0.663676 0.683873 
29 1 8.59433 2.17963 2.19313 
30 1 9.30202 1.47011 1.48675 
1 1 6.15927 4.61564 6.16696 
2 1 7.67392 3.09443 7.67279 
3 1 6.96591 3.80551 6.96891 
40 1 10.0161 0.757416 10.0482 
41 1 8.48294 2.28508 8.49308 
42 1 9.187 1.58356 9.20721 
7 1 6.17742 6.168 4.58685 
8 1 7.69063 7.69175 3.08332 
9 1 6.98316 6.97935 3.78627 
43 1 10.0523 10.023 0.715964 
44 1 8.50739 8.50174 2.26906 
45 1 9.21614 9.19964 1.55656 
22 1 6.20902 6.25605 6.22438 
23 1 7.76792 7.76139 7.76919 
24 1 7.05067 7.06879 7.05843 
34 1 10.0559 10.1255 10.0878 
35 1 8.57134 8.58101 8.5819 
36 1 9.26645 9.30418 9.28699 
ITEM: TIMESTEP
156
ITEM: NUMBER OF ATOMS
51
ITEM: BOX BOUNDS pp pp pp
0.0000000000000000e+00 1.1000000000000000e+01
0.0000000000000000e+00 1.1002000000000001e+01
0.0000000000000000e+00 1.1000000000000000e+01
ITEM: ATOMS id type x y z 
10 1 4.6056 4.5991 4.58899 
11 1 3.08259 3.08242 3.08778 
12 1 3.7946 3.79147 3.7896 
46 1 0.749736 0.724605 0.719176 
47 1 2.27147 2.26567 2.27484 
48 1 1.57318 1.55851 1.56098 
19 1 4.52094 4.57296 6.22582 
20 1 3.01609 3.01036 7.76687 
21 1 3.70859 3.72944 7.05771 