LAMMPS (3 Mar 2020)
# Alpha
clear
units		real
dimension 3
boundary        p p p
atom_style	charge
newton on
read_data       O_20.lmp
  triclinic box = (0 0 0) to (15.77 13.6581 25.747) with tilt (7.8845 0 0)
  2 by 2 by 2 MPI processor grid
  reading atoms ...
  129 atoms
  read_data CPU = 0.015525 secs

timestep 0.25

# ---------- Define Interatomic Potential ---------------------
pair_style      reax/c NULL checkqeq no
pair_coeff      * * ffield.reax C O
fix             2 all qeq/reax 1 0.0 10.0 1.0e-6 reax/c

#------------ Equilibration of the system -------------------------
reset_timestep 0

dump 1 all custom 10 min.lammpstrj id type x y z

minimize 1.0e-8 1.0e-8 100000 100000
WARNING: Using 'neigh_modify every 1 delay 0 check yes' setting during minimization (../min.cpp:190)
WARNING: Total cutoff < 2*bond cutoff. May need to use an increased neighbor list skin. (../pair_reaxc.cpp:413)
Neighbor list info ...
  update every 1 steps, delay 0 steps, check yes
  max neighbors/atom: 2000, page size: 100000
  master list distance cutoff = 9.5
  ghost atom cutoff = 9.5
  binsize = 4.75, bins = 5 3 6
  2 neighbor lists, perpetual/occasional/extra = 2 0 0
  (1) pair reax/c, perpetual
      attributes: half, newton off, ghost
      pair build: half/bin/newtoff/ghost
      stencil: half/ghost/bin/3d/newtoff
      bin: standard
  (2) fix qeq/reax, perpetual, copy from (1)
      attributes: half, newton off, ghost
      pair build: copy
      stencil: none
      bin: none
Per MPI rank memory allocation (min/avg/max) = 16.27 | 16.8 | 17.41 Mbytes
Step Temp E_pair E_mol TotEng Press 
       0            0   -19455.175            0   -19455.175    59287.416 
      41            0   -21955.842            0   -21955.842    16920.197 
Loop time of 3.15217 on 8 procs for 41 steps with 129 atoms

99.9% CPU use with 8 MPI tasks x no OpenMP threads

Minimization stats:
  Stopping criterion = energy tolerance
  Energy initial, next-to-last, final = 
        -19455.1745076     -21955.8418734     -21955.8419847
  Force two-norm initial, final = 4836.93 886.866
  Force max component initial, final = 1201.25 631.377
  Final line search alpha, max atom move = 2.89853e-07 0.000183007
  Iterations, force evaluations = 41 209

MPI task timing breakdown:
Section |  min time  |  avg time  |  max time  |%varavg| %total
---------------------------------------------------------------
Pair    | 1.912      | 2.1801     | 2.3683     |  11.4 | 69.16
Neigh   | 0          | 0          | 0          |   0.0 |  0.00
Comm    | 0.032444   | 0.22075    | 0.48846    |  35.8 |  7.00
Output  | 0.00065411 | 0.00081415 | 0.0011239  |   0.0 |  0.03
Modify  | 0.74048    | 0.74062    | 0.74121    |   0.0 | 23.50
Other   |            | 0.009894   |            |       |  0.31

Nlocal:    16.125 ave 37 max 2 min
Histogram: 2 1 1 1 1 0 0 0 0 2
Nghost:    464.5 ave 508 max 415 min
Histogram: 2 1 1 0 0 0 0 0 0 4
Neighs:    1160.25 ave 2465 max 173 min
Histogram: 2 0 2 0 1 1 0 0 0 2

Total # of neighbors = 9282
Ave neighs/atom = 71.9535
Neighbor list builds = 0
Dangerous builds = 0

###
min_style cg
minimize 1.0e-8 1.0e-8 100000 100000
WARNING: Using 'neigh_modify every 1 delay 0 check yes' setting during minimization (../min.cpp:190)
WARNING: Total cutoff < 2*bond cutoff. May need to use an increased neighbor list skin. (../pair_reaxc.cpp:413)
Per MPI rank memory allocation (min/avg/max) = 16.27 | 16.8 | 17.41 Mbytes
Step Temp E_pair E_mol TotEng Press 
      41            0   -21955.842            0   -21955.842    16920.197 
     356            0   -22088.803            0   -22088.803    6080.7129 
Loop time of 33.7114 on 8 procs for 315 steps with 129 atoms

99.7% CPU use with 8 MPI tasks x no OpenMP threads

Minimization stats:
  Stopping criterion = energy tolerance
  Energy initial, next-to-last, final = 
        -21955.8419847     -22088.8031978     -22088.8032193
  Force two-norm initial, final = 886.866 77.2987
  Force max component initial, final = 631.377 17.7412
  Final line search alpha, max atom move = 0.00338754 0.0600992
  Iterations, force evaluations = 315 2260

MPI task timing breakdown:
Section |  min time  |  avg time  |  max time  |%varavg| %total
---------------------------------------------------------------
Pair    | 21.322     | 24.078     | 25.85      |  32.5 | 71.43
Neigh   | 0          | 0          | 0          |   0.0 |  0.00
Comm    | 0.30513    | 2.0749     | 4.8395     | 111.2 |  6.16
Output  | 0.0051796  | 0.0065629  | 0.009313   |   1.6 |  0.02
Modify  | 7.4526     | 7.4547     | 7.4616     |   0.1 | 22.11
Other   |            | 0.09669    |            |       |  0.29

Nlocal:    16.125 ave 39 max 0 min
Histogram: 2 1 1 0 2 0 0 0 1 1
Nghost:    471.875 ave 514 max 417 min
Histogram: 1 1 2 0 0 0 0 0 0 4
Neighs:    1148.38 ave 2591 max 0 min
Histogram: 2 1 0 1 0 2 0 0 0 2

Total # of neighbors = 9187
Ave neighs/atom = 71.2171
Neighbor list builds = 0
Dangerous builds = 0

###
fix 1 all box/relax aniso 0.0
min_style cg
minimize 1.0e-8 1.0e-8 100000 100000
WARNING: Using 'neigh_modify every 1 delay 0 check yes' setting during minimization (../min.cpp:190)
WARNING: Total cutoff < 2*bond cutoff. May need to use an increased neighbor list skin. (../pair_reaxc.cpp:413)
Per MPI rank memory allocation (min/avg/max) = 16.27 | 16.8 | 17.41 Mbytes
Step Temp E_pair E_mol TotEng Press Volume 
     356            0   -22088.803            0   -22088.803    6080.7129    5545.5955 
     417            0   -22090.874            0   -22090.874    3274.8855    5549.8205 
Loop time of 1.82216 on 8 procs for 61 steps with 129 atoms

99.7% CPU use with 8 MPI tasks x no OpenMP threads

Minimization stats:
  Stopping criterion = linesearch alpha is zero
  Energy initial, next-to-last, final = 
        -22088.8032193     -22090.8743184     -22090.8743184
  Force two-norm initial, final = 1056.65 474.048
  Force max component initial, final = 779.262 273.09
  Final line search alpha, max atom move = 5.52699e-14 1.50937e-11
  Iterations, force evaluations = 61 133

MPI task timing breakdown:
Section |  min time  |  avg time  |  max time  |%varavg| %total
---------------------------------------------------------------
Pair    | 1.2644     | 1.4298     | 1.5411     |   8.5 | 78.47
Neigh   | 0          | 0          | 0          |   0.0 |  0.00
Comm    | 0.014624   | 0.12555    | 0.2915     |  28.6 |  6.89
Output  | 0.00095819 | 0.0012502  | 0.0018088  |   0.7 |  0.07
Modify  | 0.25264    | 0.25277    | 0.25311    |   0.0 | 13.87
Other   |            | 0.01278    |            |       |  0.70

Nlocal:    16.125 ave 39 max 0 min
Histogram: 1 2 1 0 2 0 0 0 0 2
Nghost:    469.75 ave 516 max 415 min
Histogram: 2 1 1 0 0 0 0 0 0 4
Neighs:    1131.75 ave 2559 max 0 min
Histogram: 1 2 1 0 0 2 0 0 0 2

Total # of neighbors = 9054
Ave neighs/atom = 70.186
Neighbor list builds = 0
Dangerous builds = 0

unfix 1
###
min_style cg
minimize 1.0e-8 1.0e-8 100000 100000
WARNING: Using 'neigh_modify every 1 delay 0 check yes' setting during minimization (../min.cpp:190)
WARNING: Total cutoff < 2*bond cutoff. May need to use an increased neighbor list skin. (../pair_reaxc.cpp:413)
Per MPI rank memory allocation (min/avg/max) = 16.27 | 16.8 | 17.41 Mbytes
Step Temp E_pair E_mol TotEng Press 
     417            0   -22090.874            0   -22090.874    3274.8855 
     494            0   -22097.172            0   -22097.172    2767.3757 
Loop time of 7.67832 on 8 procs for 77 steps with 129 atoms

99.7% CPU use with 8 MPI tasks x no OpenMP threads

Minimization stats:
  Stopping criterion = energy tolerance
  Energy initial, next-to-last, final = 
        -22090.8743184     -22097.1718838     -22097.1720907
  Force two-norm initial, final = 118.17 58.1116
  Force max component initial, final = 16.2322 14.5552
  Final line search alpha, max atom move = 0.000106993 0.00155731
  Iterations, force evaluations = 77 514

MPI task timing breakdown:
Section |  min time  |  avg time  |  max time  |%varavg| %total
---------------------------------------------------------------
Pair    | 4.9852     | 5.5515     | 5.8873     |  14.5 | 72.30
Neigh   | 0          | 0          | 0          |   0.0 |  0.00
Comm    | 0.077365   | 0.41321    | 0.98079    |  53.2 |  5.38
Output  | 0.0013283  | 0.0016837  | 0.0024116  |   0.8 |  0.02
Modify  | 1.6892     | 1.6896     | 1.691      |   0.0 | 22.00
Other   |            | 0.02236    |            |       |  0.29

Nlocal:    16.125 ave 39 max 0 min
Histogram: 1 2 1 0 2 0 0 0 0 2
Nghost:    471.875 ave 514 max 423 min
Histogram: 2 1 1 0 0 0 0 0 0 4
Neighs:    1129.12 ave 2553 max 0 min
Histogram: 1 2 1 0 0 2 0 0 0 2

Total # of neighbors = 9033
Ave neighs/atom = 70.0233
Neighbor list builds = 0
Dangerous builds = 0

###
fix 1 all box/relax aniso 0.0
min_style cg
minimize 1.0e-8 1.0e-8 100000 100000
WARNING: Using 'neigh_modify every 1 delay 0 check yes' setting during minimization (../min.cpp:190)
WARNING: Total cutoff < 2*bond cutoff. May need to use an increased neighbor list skin. (../pair_reaxc.cpp:413)
Per MPI rank memory allocation (min/avg/max) = 16.27 | 16.8 | 17.41 Mbytes
Step Temp E_pair E_mol TotEng Press Volume 
     494            0   -22097.172            0   -22097.172    2767.3757    5549.8205 
     503            0     -22097.3            0     -22097.3    68.244226    5550.4636 
Loop time of 0.450594 on 8 procs for 9 steps with 129 atoms

99.6% CPU use with 8 MPI tasks x no OpenMP threads

Minimization stats:
  Stopping criterion = energy tolerance
  Energy initial, next-to-last, final = 
        -22097.1720907      -22097.299744     -22097.2997444
  Force two-norm initial, final = 540.809 190.657
  Force max component initial, final = 443.375 124.94
  Final line search alpha, max atom move = 2.44257e-11 3.05174e-09
  Iterations, force evaluations = 9 32

MPI task timing breakdown:
Section |  min time  |  avg time  |  max time  |%varavg| %total
---------------------------------------------------------------
Pair    | 0.32068    | 0.35824    | 0.3825     |   3.7 | 79.50
Neigh   | 0          | 0          | 0          |   0.0 |  0.00
Comm    | 0.004283   | 0.02857    | 0.066318   |  13.2 |  6.34
Output  | 0.00014813 | 0.00017679 | 0.00025128 |   0.0 |  0.04
Modify  | 0.060335   | 0.060358   | 0.060454   |   0.0 | 13.40
Other   |            | 0.003249   |            |       |  0.72

Nlocal:    16.125 ave 41 max 0 min
Histogram: 2 1 1 1 1 0 0 0 1 1
Nghost:    473.375 ave 518 max 421 min
Histogram: 2 1 1 0 0 0 0 0 1 3
Neighs:    1125.38 ave 2667 max 0 min
Histogram: 1 2 1 0 1 1 0 0 0 2

Total # of neighbors = 9003
Ave neighs/atom = 69.7907
Neighbor list builds = 0
Dangerous builds = 0

unfix 1
###
min_style cg
minimize 1.0e-8 1.0e-8 100000 100000
WARNING: Using 'neigh_modify every 1 delay 0 check yes' setting during minimization (../min.cpp:190)
WARNING: Total cutoff < 2*bond cutoff. May need to use an increased neighbor list skin. (../pair_reaxc.cpp:413)
Per MPI rank memory allocation (min/avg/max) = 16.27 | 16.8 | 17.41 Mbytes
Step Temp E_pair E_mol TotEng Press 
     503            0     -22097.3            0     -22097.3    68.244226 
     507            0   -22097.461            0   -22097.461      5026.43 
Loop time of 0.331211 on 8 procs for 4 steps with 129 atoms

99.9% CPU use with 8 MPI tasks x no OpenMP threads

Minimization stats:
  Stopping criterion = energy tolerance
  Energy initial, next-to-last, final = 
        -22097.2997444     -22097.4611971     -22097.4612119
  Force two-norm initial, final = 96.9398 96.97
  Force max component initial, final = 18.4183 36.8395
  Final line search alpha, max atom move = 0.000837094 0.0308381
  Iterations, force evaluations = 4 21

MPI task timing breakdown:
Section |  min time  |  avg time  |  max time  |%varavg| %total
---------------------------------------------------------------
Pair    | 0.21454    | 0.2382     | 0.25167    |   2.9 | 71.92
Neigh   | 0          | 0          | 0          |   0.0 |  0.00
Comm    | 0.003449   | 0.016996   | 0.040707   |  11.0 |  5.13
Output  | 0          | 0          | 0          |   0.0 |  0.00
Modify  | 0.07475    | 0.074784   | 0.074851   |   0.0 | 22.58
Other   |            | 0.001231   |            |       |  0.37

Nlocal:    16.125 ave 41 max 0 min
Histogram: 2 1 1 1 1 0 0 0 1 1
Nghost:    472.625 ave 516 max 421 min
Histogram: 2 1 1 0 0 0 0 0 0 4
Neighs:    1124.75 ave 2666 max 0 min
Histogram: 1 2 1 0 1 1 0 0 0 2

Total # of neighbors = 8998
Ave neighs/atom = 69.7519
Neighbor list builds = 0
Dangerous builds = 0

undump 1
#############
#----------- Thermo ------------
reset_timestep 0
thermo  200

thermo_style    custom step temp etotal ke pe press
velocity all create 300 12345 mom yes rot yes
fix 1 all npt temp 300 300 25.0 iso 0.0 0.0 250.0

variable vpe equal pe
variable vtemp equal temp
variable vstep equal step

fix output all print 2500 "${vstep} ${vtemp} ${vpe}" file temp-tpdh-Pt.dat screen no

dump 1 all custom 2500 thermo-tpdh-Pt.lammpstrj id type x y z

run 1000000
WARNING: Total cutoff < 2*bond cutoff. May need to use an increased neighbor list skin. (../pair_reaxc.cpp:413)
Per MPI rank memory allocation (min/avg/max) = 15.1 | 15.57 | 16.3 Mbytes
Step Temp TotEng KinEng PotEng Press 
       0          300   -21982.998    114.46311   -22097.461    5969.1205 
     200    228.47889   -21942.375    87.174677   -22029.549    11172.001 
     400    322.05233    -21894.67    122.87703   -22017.547   -22909.116 
     600    300.01633   -21971.946    114.46934   -22086.416    595.35736 
     800    264.70788   -22006.747    100.99762   -22107.744   -15935.013 
    1000    287.00166   -21987.234    109.50367   -22096.738   -11509.097 
    1200    317.91027   -21988.923    121.29666    -22110.22   -1090.4185 
    1400    276.77805   -22009.937    105.60292    -22115.54   -3705.1981 
    1600    266.40225   -21983.682     101.6441   -22085.326    15301.207 
    1800    290.24645   -21984.037     110.7417   -22094.778   -16993.698 
    2000    251.82213   -22014.772    96.081145   -22110.853    11517.912 
    2200    333.32096   -22042.388    127.17651   -22169.565     9173.178 
    2400     298.2129   -22063.772    113.78125   -22177.554     16212.35 
    2600    293.67414   -22041.417    112.04951   -22153.467    9866.9153 
    2800    317.86802   -22041.558    121.28054   -22162.839   -8384.0112 
    3000    281.16595   -22058.374    107.27709   -22165.651   -18112.541 
    3200    318.30737   -22031.277    121.44817   -22152.725     14717.12 
    3400    303.75371    -22048.32    115.89531   -22164.216    7696.4346 
    3600    299.06866   -22055.797    114.10776   -22169.904   -2939.1649 
    3800    323.27185    -22025.22    123.34233   -22148.562    2495.2778 
    4000    298.54675   -22043.294    113.90863   -22157.203   -6598.6263 
    4200    289.03667   -22057.953    110.28012   -22168.233   -14653.992 
    4400    271.86116   -22054.163    103.72691    -22157.89   -19688.073 
    4600    311.72337   -22031.841    118.93608   -22150.777    25827.276 
    4800    275.79801   -22061.844    105.22899   -22167.073    12674.963 
    5000    312.58232   -22051.738    119.26381   -22171.001   -11713.322 
    5200    305.35796   -22048.955     116.5074   -22165.463    9569.3873 
    5400    277.82268    -22073.53    106.00149   -22179.531    27020.828 
    5600    319.92566    -22046.42    122.06562   -22168.485    12367.393 
    5800    293.26185   -22052.218    111.89221    -22164.11   -558.29323 
    6000    254.50959   -22077.918    97.106528   -22175.024   -17738.755 
    6200    309.07125   -22046.888    117.92418   -22164.812   -17598.601 
    6400     283.1476   -22059.078    108.03318   -22167.112    6764.3753 
    6600    280.48938   -22071.505    107.01895   -22178.524    11816.406 
    6800    318.18591    -22044.15    121.40183   -22165.552   -23603.179 
    7000    299.49234   -22049.838    114.26941   -22164.107    7149.9197 
    7200    283.43714   -22073.941    108.14365   -22182.085   -20508.611 
    7400    281.44005   -22056.032    107.38167   -22163.413    905.07355 
    7600    310.24709   -22054.213    118.37282   -22172.585     -7767.46 
    7800    308.78076   -22060.794    117.81335   -22178.608   -7290.4507 
    8000    291.63896   -22073.491      111.273   -22184.764    3696.4246 
    8200    293.78059   -22049.837    112.09013   -22161.927   -15820.203 
    8400    282.62725   -22061.935    107.83464   -22169.769   -3365.1437 
    8600    264.12446   -22072.368    100.77502   -22173.143   -27848.983 
    8800    306.63783   -22048.106    116.99573   -22165.102   -3392.4702 
    9000     283.9339   -22062.454    108.33319   -22170.787   -4007.1431 
    9200    288.88497   -22065.063    110.22224   -22175.286    12967.048 
    9400    326.01785   -22040.236    124.39005   -22164.626   -4850.0563 
    9600    288.62057   -22057.954    110.12136   -22168.075   -11005.606 
    9800    301.01638   -22069.355     114.8509   -22184.206   -11004.165 
   10000    297.67428   -22041.981    113.57574   -22155.557    22022.565 
   10200    306.12245   -22042.944    116.79909   -22159.743    3172.0825 
   10400    280.11252   -22065.531    106.87516   -22172.406    14363.261 
   10600    251.80264   -22092.062    96.073708   -22188.135   -4216.7403 
   10800    312.67611   -22082.662     119.2996   -22201.962    22993.069 
   11000    330.71535    -22073.94    126.18236   -22200.122   -17307.375 
   11200      259.937   -22094.192    99.177321   -22193.369   -1554.7287 
   11400    277.94466   -22078.048    106.04803   -22184.096    13178.006 
   11600    310.95031   -22071.779    118.64113   -22190.421   -2072.5811 
   11800    271.78974   -22096.034    103.69966   -22199.734   -18369.221 
   12000    271.95742   -22091.692    103.76364   -22195.456    26386.107 
   12200    327.80108   -22062.937    125.07043   -22188.007    1807.2673 
   12400    306.57255   -22072.621    116.97082   -22189.592    -13523.59 
   12600    268.95587   -22089.322    102.61841   -22191.941    5133.3202 
   12800    337.32271   -22066.694    128.70335   -22195.397    7964.2578 
   13000     305.1749   -22042.855    116.43756   -22159.292   -24243.021 
   13200     281.9728   -22074.962    107.58494   -22182.547    10636.385 
   13400      300.931   -22080.285    114.81832   -22195.103    3527.2508 
   13600    322.89784   -22051.985    123.19963   -22175.185    4828.2255 
   13800    309.34957   -22073.097    118.03038   -22191.127   -19458.234 
   14000     289.6822   -22080.346    110.52642   -22190.872   -21448.055 
   14200       302.68   -22056.461    115.48564   -22171.947   -7470.8303 
   14400    298.61499    -22067.98    113.93466   -22181.915    23552.095 
   14600    304.59046   -22076.588    116.21457   -22192.803    5883.1024 
   14800    306.99769    -22069.06    117.13303   -22186.193   -13448.719 
   15000    295.23031   -22077.555    112.64326   -22190.198    14360.498 
   15200    298.64665   -22085.369    113.94674   -22199.316    32695.307 
   15400    312.29858   -22062.248    119.15555   -22181.404    550.88954 
   15600    270.29432   -22082.511    103.12909    -22185.64    10223.915 
   15800    318.79045    -22084.61    121.63248   -22206.242   -22818.478 
   16000    318.81084   -22067.241    121.64026   -22188.881   -10283.967 
   16200    283.91634   -22087.203    108.32649   -22195.529   -12422.692 
   16400    340.76811    -22067.05    130.01792   -22197.068   -4460.8419 
   16600     322.4203   -22068.117    123.01743   -22191.134     -6408.54 
   16800    296.05402   -22085.529    112.95754   -22198.486   -8280.4686 
   17000    286.38208   -22076.515    109.26727   -22185.782    22.834535 
   17200    313.09336   -22052.576    119.45879   -22172.035   -15095.056 
   17400    298.70188   -22077.968    113.96782   -22191.936   -6970.1881 
   17600    318.67487    -22067.48    121.58838   -22189.068    24241.857 
   17800    289.60544   -22063.549    110.49713   -22174.047    14574.292 
   18000    303.19409   -22088.751    115.68179   -22204.433   -25545.154 
   18200    330.45439   -22069.422    126.08279   -22195.505   -9283.5879 
   18400    313.73565    -22064.02    119.70386   -22183.724    15861.323 
   18600    289.45211   -22080.097    110.43863   -22190.536   -6572.2218 
   18800    311.16191   -22078.341    118.72186   -22197.063   -8909.6963 
   19000    302.01719   -22077.293    115.23275   -22192.526   -3817.8613 
   19200    274.37799   -22074.877    104.68719   -22179.564     6702.849 
   19400    292.89496   -22086.153    111.75222   -22197.905    644.37375 
   19600    284.21011   -22066.134    108.43857   -22174.573    20699.468 
   19800    316.39105   -22067.137    120.71701   -22187.854    22518.168 
   20000    311.19087   -22077.249    118.73291   -22195.982   -7824.5996 
   20200    299.81228   -22074.754    114.39148   -22189.145   -33052.043 
   20400    292.34862   -22092.947    111.54377   -22204.491   -4641.4129 
   20600    308.35384    -22070.18    117.65046   -22187.831    7028.2261 
   20800    315.05021   -22071.324    120.20542   -22191.529    8373.9892 
   21000    299.01302   -22080.713    114.08653     -22194.8    1941.5807 
   21200    275.98203   -22074.282     105.2992   -22179.581   -6893.0402 
   21400    280.12104   -22074.028    106.87841   -22180.906    23267.494 
   21600    283.28879   -22088.249    108.08705   -22196.336    10127.096 
   21800    314.99363    -22074.58    120.18383   -22194.764    11542.811 
   22000    307.57619    -22060.99    117.35375   -22178.343    3386.0586 
   22200    261.83599   -22085.687    99.901871   -22185.588    6435.4062 
   22400    300.41129   -22089.279    114.62003   -22203.899   -4987.6406 
   22600     304.0803   -22071.255    116.01992   -22187.275     9232.649 
   22800    308.81828   -22083.398    117.82767   -22201.226    5413.5052 
   23000    282.38954   -22092.725    107.74394   -22200.469   -147.34532 
   23200    313.71272   -22068.682    119.69511   -22188.377    19768.401 
   23400    306.10458   -22073.957    116.79227    -22190.75   -3792.6506 
   23600      266.205   -22098.676    101.56884   -22200.245    21656.722 
   23800    301.39599   -22081.144    114.99574    -22196.14   -11525.188 
   24000    315.47002   -22077.419    120.36559   -22197.785   -5641.9907 
   24200    336.72526   -22055.733     128.4754   -22184.209   -6614.7437 
   24400    282.79585   -22074.883    107.89897   -22182.782    -14464.97 
   24600    311.07055   -22082.729    118.68701   -22201.416     16652.12 
   24800    327.78725   -22069.675    125.06515    -22194.74    13523.837 
   25000    312.29468   -22073.248    119.15406   -22192.403      18853.7 
   25200    273.94018   -22088.576    104.52015   -22193.096    6589.6465 
   25400    323.97393   -22064.982    123.61021   -22188.592    7748.0944 
   25600    297.85963   -22082.128    113.64646   -22195.775   -14022.209 
   25800    244.21867   -22106.438    93.180092   -22199.619    19625.124 
   26000    280.45751   -22088.694    107.00679   -22195.701   -4983.3231 
   26200    334.27209   -22065.336    127.53941   -22192.876    7045.4687 
   26400    282.53549   -22079.605    107.79963   -22187.405     2366.001 
   26600    257.78497   -22088.024    98.356228   -22186.381   -1148.2169 
   26800    352.30773   -22052.781    134.42079   -22187.202    5277.4596 
   27000    299.69578   -22076.051    114.34703   -22190.398    4283.5251 
   27200    311.56025   -22083.599    118.87385   -22202.473   -26820.707 
   27400    323.61966   -22056.816    123.47504   -22180.291   -16629.564 
   27600    301.94211   -22076.201     115.2041   -22191.405    21063.053 
   27800     280.7911   -22095.809    107.13407   -22202.943   -8296.9603 
   28000    274.45829   -22103.298    104.71783   -22208.016    5631.7941 
   28200    323.05297   -22076.303    123.25882   -22199.562   -1039.5508 
   28400    283.26689   -22079.555    108.07869   -22187.634    75.310934 
   28600    273.29733    -22101.77    104.27487   -22206.045   -11076.696 
   28800    285.09808   -22070.945    108.77737   -22179.722   -19224.522 
   29000    295.15494   -22085.739     112.6145   -22198.354   -7371.0798 
   29200    286.68509   -22088.533    109.38289   -22197.916   -4933.5477 
   29400    301.02736   -22063.032    114.85509   -22177.887    6004.6241 
   29600    282.62122   -22082.883    107.83234   -22190.715    4537.8036 
   29800    315.04771   -22062.263    120.20446   -22182.468    19565.802 
   30000    315.38642   -22065.987     120.3337   -22186.321    6500.6453 
   30200    326.81402   -22077.809    124.69383   -22202.503     5568.671 
   30400    305.79684   -22063.154    116.67485   -22179.829   -13440.516 
   30600    325.61805   -22050.225    124.23751   -22174.463    8021.9519 
   30800    303.46871   -22068.904    115.78657   -22184.691    11195.538 
   31000    294.40963    -22086.41    112.33013    -22198.74    23684.954 
   31200     301.5501   -22064.222    115.05454   -22179.277    19764.317 
   31400    291.62063   -22071.486    111.26601   -22182.752   -8937.7259 
   31600    275.73876   -22089.446    105.20638   -22194.653   -8697.0231 
   31800    316.75192   -22068.574    120.85469   -22189.429    4818.5056 
   32000    288.36477   -22088.495    110.02376   -22198.518   -22806.182 
   32200    306.33634   -22089.718     116.8807   -22206.599   -2965.9996 
   32400       344.89   -22066.482     131.5906   -22198.073    10815.003 
   32600    312.54561   -22075.668    119.24981   -22194.918   -17927.167 
   32800     327.8076   -22078.655    125.07292   -22203.728    27755.924 
   33000    285.00085   -22083.913    108.74027   -22192.653   -12219.198 
   33200    342.90246   -22060.866    130.83227   -22191.699    5532.2822 
   33400    292.95479   -22085.051    111.77505   -22196.826    4565.2724 
   33600    292.74056   -22079.606    111.69331   -22191.299    -4800.419 
   33800    323.86187   -22060.458    123.56745   -22184.025    18012.334 
   34000    305.16023   -22077.982    116.43196   -22194.414   -12415.674 
   34200    303.29542    -22087.17    115.72045    -22202.89    -23668.89 
   34400    306.72984   -22070.974    117.03084   -22188.004    5699.8724 
   34600    308.83354   -22067.762    117.83349   -22185.595   -5355.5885 
   34800    279.55757   -22080.994    106.66343   -22187.657   -2078.2446 
   35000    293.22678   -22073.094    111.87883   -22184.973   -2650.6437 
   35200    296.46199   -22089.874     113.1132   -22202.987    -1855.912 
   35400    306.83226   -22077.268    117.06991   -22194.338    1317.1173 
   35600    320.78246   -22068.729    122.39252   -22191.122    -10411.51 
   35800    287.49866   -22075.538     109.6933   -22185.231    3609.9933 
   36000    307.03456   -22074.596     117.1471   -22191.743   -1892.8593 
   36200    304.14974   -22078.597    116.04641   -22194.643   -33511.086 
   36400    266.30386   -22088.845    101.60656   -22190.452    16103.829 
   36600     276.1124   -22088.462    105.34894   -22193.811    4378.6482 
   36800    320.83867   -22066.432    122.41397   -22188.846    506.26685 
   37000     274.7988   -22089.524    104.84775   -22194.371    1369.6385 
   37200    312.39513   -22080.799    119.19239   -22199.991   -5149.0517 
   37400    316.95701   -22076.418    120.93295   -22197.351   -4845.4685 
   37600    293.92732   -22091.765    112.14611   -22203.911    2457.7192 
   37800    298.20163    -22072.97    113.77695   -22186.747    5006.8174 
   38000     259.0775   -22069.244    98.849383   -22168.093   -14264.381 
   38200    290.81485   -22086.517    110.95857   -22197.475     6356.361 
   38400    248.74952   -22096.611    94.908811    -22191.52   -3102.6192 
   38600    308.81067   -22068.432    117.82476   -22186.257     15689.14 
   38800    270.33932   -22087.066    103.14626   -22190.212   -8456.6891 
   39000    291.63983   -22076.904    111.27334   -22188.177   -4442.2316 
   39200    323.17313   -22060.527    123.30467   -22183.832    -17221.65 
   39400    267.05724   -22087.047      101.894   -22188.941   -19749.343 
   39600    300.31021   -22082.022    114.58147   -22196.603   -4552.8694 
   39800    266.79889   -22079.161    101.79543   -22180.957   -19326.705 
   40000    293.40227   -22080.892    111.94578   -22192.838     6040.982 
   40200    294.64783   -22067.267    112.42102   -22179.688   -3504.8785 
   40400    299.85921   -22062.876    114.40939   -22177.286   -27929.436 
   40600    287.30266   -22086.022    109.61852    -22195.64    -13259.76 
   40800    281.05676   -22071.216    107.23543   -22178.452    19628.733 
   41000    320.87142    -22043.91    122.42646   -22166.336     27310.07 
   41200    280.50785   -22074.284      107.026    -22181.31   -1224.6592 
   41400    303.72014   -22076.784     115.8825   -22192.666   -7062.8018 
   41600    340.88438   -22055.104    130.06228   -22185.166    -30529.49 
   41800    275.42766   -22086.101    105.08768   -22191.188   -20492.479 
   42000    275.06494   -22070.451    104.94929   -22175.401    6382.0858 
   42200    304.48597   -22066.084     116.1747   -22182.259   -196.92093 
   42400     299.3806   -22075.635    114.22678   -22189.862   -4643.9638 
   42600    284.65999    -22070.35    108.61022    -22178.96    14030.743 
   42800    278.97743   -22093.789    106.44208   -22200.231    19741.379 
   43000    307.10247   -22069.729    117.17301   -22186.902     6716.403 
   43200    311.47645     -22073.6    118.84187   -22192.442   -5718.9901 
   43400    280.44047   -22090.829    107.00029   -22197.829   -9366.9651 
   43600    277.57748   -22078.353    105.90794   -22184.261   -11755.635 
   43800    344.99116   -22062.056     131.6292   -22193.685   -20781.325 
   44000    272.20544   -22091.061    103.85827    -22194.92   -3144.6121 
   44200    284.06469   -22079.074    108.38309   -22187.457    10372.376 
   44400    296.19153   -22065.174    113.01001   -22178.184   -6838.9394 
   44600    278.88878   -22091.715    106.40825   -22198.123    7141.3042 
   44800    311.43471   -22071.289    118.82595   -22190.115    9647.3804 
   45000    275.54272   -22077.157    105.13159   -22182.289    14704.749 
   45200    293.38823   -22091.149    111.94043   -22203.089    478.33715 
   45400     300.7184   -22069.283    114.73721    -22184.02   -18858.777 
   45600    299.68909   -22071.121    114.34448   -22185.465    9819.3605 
   45800    287.11141    -22079.79    109.54555   -22189.336   -7796.3308 
   46000    290.48248   -22074.583    110.83176   -22185.415    11860.482 
   46200    333.97638   -22057.612    127.42658   -22185.038   -17419.084 
   46400    301.77476   -22079.511    115.14026   -22194.652   -1157.0295 
   46600    329.19159   -22063.695    125.60097   -22189.296   -16863.632 
   46800    285.70146   -22064.675    109.00759   -22173.682   -12398.055 
   47000    307.11283   -22078.964    117.17696   -22196.141   -16183.616 
   47200    291.86664   -22077.901    111.35987    -22189.26    27801.525 
   47400    334.07131   -22058.399     127.4628   -22185.861   -4660.5393 
   47600    277.42778   -22089.904    105.85082   -22195.755    4960.4765 
   47800     312.3744   -22075.356    119.18448   -22194.541    26279.324 
   48000    322.15292   -22047.264    122.91541    -22170.18   -26903.488 
   48200    284.54432   -22068.422    108.56609   -22176.988   -740.79241 
   48400    268.75771   -22085.189    102.54281   -22187.732   -6093.7118 
   48600    325.16842   -22063.344    124.06596    -22187.41   -8676.2918 
   48800      339.052   -22075.301    129.36315   -22204.664     5571.908 
   49000    288.64255   -22080.483    110.12974   -22190.613    5271.6127 
   49200    295.11889   -22064.461    112.60075   -22177.061   -2931.9489 
   49400    263.23726   -22091.392    100.43651   -22191.828    2345.1202 
   49600    247.24742   -22085.327    94.335691   -22179.662    4722.2655 
   49800    296.65041   -22067.607    113.18509   -22180.792    5537.6493 
   50000    313.22762   -22071.227    119.51002   -22190.737    13984.404 
   50200    294.40341   -22088.327    112.32776   -22200.655   -30173.936 
   50400    304.80525    -22070.41    116.29652   -22186.707    1469.8547 
   50600    294.26508   -22080.325    112.27498     -22192.6    2325.3854 
   50800    306.54388   -22048.937    116.95988   -22165.896     16471.83 
   51000     321.7406   -22070.783    122.75809   -22193.541    35488.089 
   51200     309.7457   -22077.261    118.18152   -22195.442   -16374.807 
   51400    359.34796   -22049.186    137.10695   -22186.293    18050.336 
   51600    326.35392   -22072.615    124.51828   -22197.133   -23814.469 
   51800    301.98673   -22078.029    115.22113    -22193.25   -7933.6834 
   52000    325.14267   -22071.559    124.05613   -22195.615   -896.44205 
   52200    306.04108   -22056.256    116.76804   -22173.024   -6156.4961 
   52400    302.39043   -22085.754    115.37516   -22201.129   -22116.535 
   52600    334.77613   -22070.166    127.73172   -22197.897    -14145.54 
   52800     291.6466   -22093.799    111.27592   -22205.075   -9713.4058 
   53000    292.92594   -22085.372    111.76404   -22197.136    2650.7182 
   53200    324.10916    -22073.37    123.66181   -22197.032   -30188.974 
   53400    311.27113    -22075.73    118.76353   -22194.493    8034.9395 
   53600    333.60764   -22072.351    127.28589   -22199.637   -2126.1721 
   53800     275.4071   -22089.955    105.07984   -22195.035   -15808.722 
   54000     316.7852   -22065.119    120.86739   -22185.986    157.84877 
   54200    319.79624   -22070.725    122.01624   -22192.741    24026.852 
   54400    280.18508   -22101.065    106.90285   -22207.968   -7879.0561 
   54600    293.62709   -22083.979    112.03156    -22196.01   -1741.7325 
   54800    298.07608   -22076.852    113.72905   -22190.581     6169.377 
   55000    290.29568   -22073.842    110.76048   -22184.602   -1295.0831 
   55200    281.20735   -22085.205    107.29289   -22192.498    -11191.02 
   55400    287.13405    -22083.56    109.55418   -22193.115   -8132.0143 
   55600    349.26604   -22062.154    133.26025   -22195.415    267.84868 
   55800    277.66328   -22092.854    105.94067   -22198.794    4444.6995 
   56000    298.56698   -22077.846    113.91635   -22191.762   -4211.2261 
   56200    335.62412   -22070.885    128.05526   -22198.941    7500.5613 
   56400    315.27885   -22075.385    120.29266   -22195.677   -6799.6148 
   56600    302.60818   -22076.174    115.45824   -22191.632   -18847.319 
   56800     309.0575   -22062.839    117.91894   -22180.758   -4916.6245 
   57000    288.63956   -22088.819     110.1286   -22198.948    22623.829 
   57200     284.2153   -22075.709    108.44055   -22184.149    -12351.96 
   57400    325.68611   -22058.188    124.26348   -22182.452    19366.088 
   57600    277.78671   -22084.192    105.98776    -22190.18    615.43421 
   57800    290.21663   -22077.038    110.73032   -22187.768    659.00871 
   58000    339.57932   -22044.697    129.56434   -22174.261    25622.689 
   58200    322.32893   -22070.168    122.98257    -22193.15   -181.55184 
   58400    326.11687   -22077.391    124.42783   -22201.819   -4818.1071 
   58600    290.68565    -22069.11    110.90928   -22180.019    4060.6371 
   58800    309.45531   -22064.113    118.07072   -22182.184    4239.0241 
   59000    289.65615   -22071.292    110.51648   -22181.808    6305.2679 
   59200    284.74957   -22087.485     108.6444    -22196.13   -4593.0254 
   59400    337.94421   -22055.434    128.94048   -22184.374    19859.671 
   59600    303.59725   -22078.244    115.83561    -22194.08    23018.163 
   59800    342.57813   -22074.842    130.70852   -22205.551   -24089.978 
   60000    333.98585   -22050.654    127.43019   -22178.084    5985.1921 
   60200    288.80184   -22082.267    110.19052   -22192.457    5810.1931 
   60400    318.59017   -22079.548    121.55607   -22201.104    7749.5749 
   60600    306.31851   -22051.636    116.87389    -22168.51   -19076.607 
   60800    316.52878   -22079.658    120.76956   -22200.428   -19417.417 
   61000    309.83439   -22071.264    118.21536   -22189.479    8275.0878 
   61200    325.56073   -22056.659    124.21564   -22180.875   -3006.8737 
   61400    284.02514   -22085.881      108.368   -22194.249   -1116.6176 
   61600     357.0141   -22068.446    136.21647   -22204.663   -3674.3265 
   61800    263.29185   -22080.416    100.45734   -22180.873   -8399.1203 
   62000    273.94546   -22090.679    104.52216   -22195.201    9023.2637 
   62200    300.83068   -22065.265    114.78005   -22180.045    18683.045 
   62400     313.5818   -22067.373    119.64515   -22187.018    2357.8734 
   62600    277.26052    -22090.24      105.787   -22196.027   -6294.7145 
   62800    337.58802   -22067.897    128.80458   -22196.701     32291.29 
   63000    322.65433   -22053.242    123.10672   -22176.349     22385.41 
   63200    283.12522   -22083.137    108.02464   -22191.162    22655.188 
   63400    303.56011   -22074.922    115.82144   -22190.743    11403.293 
   63600    301.28057    -22065.45     114.9517   -22180.402    3908.9373 
   63800    267.51876   -22091.054    102.07009   -22193.124   -10398.767 
   64000    302.94775   -22064.446     115.5878   -22180.034   -9141.0643 
   64200    315.09112    -22069.55    120.22103   -22189.771    -24054.62 
   64400    260.72699   -22098.054    99.478736   -22197.532   -10172.415 
   64600    247.12791   -22108.091    94.290093   -22202.381    5700.8261 
   64800    297.82482   -22079.863    113.63318   -22193.496   -2639.2418 
   65000     306.1485   -22073.648    116.80903   -22190.457    21839.915 
   65200    279.92949   -22098.939    106.80533   -22205.744    7402.8003 
   65400    317.41869   -22075.625     121.1091   -22196.734   -17648.347 
   65600    299.42825   -22080.282    114.24496   -22194.527   -13726.784 
   65800    277.12919   -22094.155    105.73689   -22199.892   -11764.374 
   66000    309.25972   -22064.185    117.99609   -22182.181   -9270.3935 
   66200    293.85165   -22080.348    112.11724   -22192.465    4037.9222 
   66400    281.40829   -22095.382    107.36956   -22202.751    -20888.06 
   66600     310.4479   -22068.021    118.44943    -22186.47    3251.3046 
   66800    301.83592   -22075.771    115.16359   -22190.934   -2895.7981 
   67000    272.19465   -22090.526    103.85415    -22194.38    6610.3072 
   67200    331.53642   -22075.115    126.49563   -22201.611   -12724.275 
   67400    289.35959   -22083.827    110.40332   -22194.231    4551.5541 
   67600    257.92988   -22102.089    98.411516   -22200.501    13420.174 
   67800    306.54805   -22084.049    116.96147    -22201.01    13679.534 
   68000    313.50272   -22074.071    119.61499   -22193.686   -2604.1418 
   68200    336.09149   -22084.574    128.23358   -22212.808   -20167.191 
   68400    287.92867   -22084.363    109.85737    -22194.22    6082.0935 
   68600    319.95571   -22063.387    122.07708   -22185.464    12611.707 
   68800    297.45035   -22082.109     113.4903     -22195.6    2393.0372 
   69000    268.79392   -22089.801    102.55662   -22192.358    10887.739 
   69200    313.13099   -22058.307    119.47315    -22177.78     2277.139 
   69400    314.90709   -22076.539    120.15081    -22196.69   -11290.441 
   69600    278.14837   -22084.915    106.12575   -22191.041    7887.4498 
   69800    353.40895   -22056.873    134.84095   -22191.714    41086.977 
   70000    292.12672   -22076.414    111.45911   -22187.873    5957.3339 
   70200     278.1007   -22089.632    106.10757    -22195.74   -11341.442 
   70400    327.39275   -22059.905    124.91464   -22184.819   -19159.065 
   70600     249.2598   -22083.197    95.103504     -22178.3   -10894.059 
   70800    298.14136   -22080.233    113.75395   -22193.987   -1601.5335 
   71000    320.93739   -22058.682    122.45163   -22181.134   -19503.623 
   71200    268.30273   -22085.376    102.36921   -22187.745    13136.492 
   71400    318.36505   -22062.026    121.47018   -22183.497   -4867.4763 
   71600    325.89984   -22063.926    124.34503   -22188.271    17854.819 
   71800    295.92105   -22081.984    112.90681   -22194.891   -6189.2229 
   72000    344.42003     -22071.6    131.41129   -22203.011    -4716.462 
   72200    328.92844   -22065.242    125.50057   -22190.742    11969.977 
   72400    295.08443   -22092.111     112.5876   -22204.699    1073.7479 
   72600     339.4609   -22072.454    129.51916   -22201.973    13317.151 
   72800    325.72697   -22075.021    124.27907     -22199.3    -13176.72 
   73000    293.76273   -22087.857    112.08331    -22199.94    496.13312 
   73200     301.9901   -22088.981    115.22242   -22204.204   -4805.2154 
   73400     322.3758   -22065.078    123.00045   -22188.078   -8761.4418 
   73600    296.36531   -22086.636    113.07631   -22199.712   -18640.302 
   73800    291.22475   -22090.082    111.11497   -22201.197    21881.999 
   74000    285.55703   -22077.135    108.95248   -22186.087   -9975.6542 
   74200    282.65702   -22075.464      107.846    -22183.31   -42116.886 
   74400    289.22261     -22091.4    110.35106   -22201.751   -8745.0768 
   74600    316.56151   -22077.843    120.78205   -22198.625   -681.18551 
   74800    299.85207   -22072.144    114.40666   -22186.551    11516.094 
   75000    263.05254   -22097.614    100.36604    -22197.98   -7992.3594 
   75200    282.25771   -22092.611    107.69365   -22200.304   -8336.0207 
   75400    304.60626   -22075.646     116.2206   -22191.867   -34326.998 
   75600    340.20106   -22065.708    129.80157    -22195.51     6061.557 
   75800    284.43391   -22088.788    108.52396   -22197.312    22692.479 
   76000     306.1872   -22063.569    116.82379   -22180.393   -10592.774 
   76200    317.00385    -22072.08    120.95082    -22193.03    11502.074 
   76400    245.17137   -22089.106    93.543586   -22182.649    -16070.76 
   76600    324.15031   -22056.405     123.6775   -22180.082   -12110.223 
   76800    307.86205   -22071.011    117.46282   -22188.474    2953.4456 
   77000    302.77788   -22083.065    115.52299   -22198.588    26125.586 
   77200    317.33132   -22059.613    121.07576   -22180.689   -16661.884 
   77400    304.23894   -22062.485    116.08045   -22178.565   -21577.886 
   77600    290.85418   -22078.465    110.97358   -22189.439    19311.581 
   77800    318.08436   -22067.752    121.36308   -22189.115    -3513.722 
   78000    326.30173   -22050.915    124.49836   -22175.413   -32269.296 
   78200    286.10832   -22082.711    109.16282   -22191.874     15899.18 
   78400    317.93298   -22061.825    121.30532    -22183.13    14575.605 
   78600    308.45538   -22068.771     117.6892    -22186.46    36307.572 
   78800    312.16913   -22076.538    119.10616   -22195.644    9284.5051 
   79000    256.21622   -22077.629     97.75768   -22175.387    8945.6933 
   79200    314.30183   -22061.343    119.91988   -22181.263    -12124.89 
   79400    313.74351   -22076.987    119.70685   -22196.694   -13934.704 
   79600    273.53649   -22088.954    104.36612   -22193.321    3965.0537 
   79800    292.52125   -22074.572    111.60964   -22186.182    5185.9439 
   80000    315.50939   -22079.132    120.38061   -22199.513   -10529.588 
   80200    311.18007   -22059.249    118.72879   -22177.978    13776.661 
   80400    311.59719   -22058.301    118.88794   -22177.189    21487.129 
   80600    287.70186   -22081.666    109.77083   -22191.436   -12734.882 
   80800    317.31526   -22058.588    121.06963   -22179.658   -10833.468 
   81000    281.18274    -22086.36     107.2835   -22193.644    4881.8718 
   81200    307.16451   -22079.573    117.19668   -22196.769     8650.697 
   81400    317.05604   -22059.003    120.97073   -22179.973   -6165.8066 
   81600    301.04383   -22078.459    114.86137    -22193.32    20146.942 
   81800    302.12012   -22078.118    115.27202    -22193.39    4937.4644 
   82000    277.81913   -22100.827    106.00014   -22206.827   -15021.587 
   82200    296.68798   -22079.417    113.19942   -22192.616   -14152.574 
   82400    314.64779   -22069.333    120.05188   -22189.385    16486.019 
   82600    294.89112    -22090.65    112.51384   -22203.163   -8817.6965 
   82800    281.09669   -22078.802    107.25067   -22186.053   -941.23948 
   83000     305.0853   -22075.952    116.40337   -22192.355   -6346.7681 
   83200    269.07844   -22072.777    102.66518   -22175.442    25659.666 
   83400    285.30903   -22090.585    108.85786   -22199.443    9324.0079 
   83600    283.12033   -22069.253    108.02277   -22177.276    -3455.969 
   83800    309.60284   -22069.976    118.12701   -22188.103   -9335.6975 
   84000    284.90888   -22081.887    108.70518   -22190.592   -2335.0272 
   84200    280.50519   -22067.585    107.02498    -22174.61   -21676.905 
   84400    318.67252   -22054.356    121.58749   -22175.944    5365.5548 
   84600     288.6702   -22083.033    110.14029   -22193.174    -3342.166 
   84800    281.23089   -22081.927    107.30187   -22189.229   -7526.1263 
   85000    309.41696   -22060.301    118.05609   -22178.357     27925.29 
   85200    268.74354   -22089.349     102.5374   -22191.886   -4389.0636 
   85400    294.93154   -22079.581    112.52927   -22192.111    8182.5518 
   85600    310.54687   -22064.788     118.4872   -22183.275     80.08133 
   85800    277.62151    -22097.67    105.92473   -22203.595   -3179.1807 
   86000    334.00363   -22073.835    127.43698   -22201.272    -7884.872 
   86200    323.57473   -22071.185     123.4579   -22194.643    2137.7151 
   86400    263.31796   -22098.183    100.46731   -22198.651   -3245.3846 
   86600    297.34914   -22080.891    113.45169   -22194.342    5343.3003 
   86800    270.25164    -22079.02    103.11281   -22182.133    12091.645 
   87000    329.72153   -22069.164    125.80317   -22194.967    25907.209 
   87200    290.42366   -22077.141    110.80932   -22187.951    21084.034 
   87400    295.86387   -22091.858    112.88499   -22204.743   -5856.1174 
   87600    301.46992   -22061.144    115.02394   -22176.168    30345.691 
   87800    289.10476   -22078.019    110.30609   -22188.325    40331.373 
   88000    292.28104   -22085.116    111.51799   -22196.634   -1488.9431 
   88200    306.35543   -22063.614    116.88798   -22180.502    17028.889 
   88400     296.0249     -22084.5    112.94643   -22197.446   -3841.3477 
   88600    280.66407   -22085.251     107.0856   -22192.336    710.99362 
   88800     321.2258    -22074.21    122.56168   -22196.771    19681.759 
   89000    314.44516   -22076.524    119.97457   -22196.498    3208.0291 
   89200    253.87597   -22102.761    96.864772   -22199.625   -11180.043 
   89400      301.544   -22076.177    115.05221    -22191.23    1459.1646 
   89600    264.53908   -22073.281    100.93321   -22174.214   -27246.341 
   89800    296.73923   -22058.571    113.21898    -22171.79    11098.479 
   90000    314.28473   -22062.996    119.91336   -22182.909   -11408.085 
   90200    303.74927   -22082.694    115.89362   -22198.588    11121.991 
   90400    313.95609    -22080.49    119.78796   -22200.278    20736.658 
   90600    315.34847   -22063.163    120.31922   -22183.482   -575.64256 
   90800    249.30951   -22090.885    95.122471   -22186.008   -1577.4297 
   91000    300.00548   -22074.919     114.4652   -22189.384   -14288.272 
   91200    309.81461   -22076.135    118.20781   -22194.343    -9739.225 
   91400     274.1415   -22085.392    104.59696   -22189.989   -6124.0824 
   91600    339.50815   -22055.101    129.53719   -22184.638    30646.871 
   91800    294.48746   -22082.005    112.35983   -22194.365   -6833.3717 
   92000    303.18041   -22079.211    115.67657   -22194.888   -16350.632 
   92200    312.49118   -22068.924    119.22904   -22188.153   -6920.0802 
   92400    266.11496   -22096.444    101.53448   -22197.978    5874.2114 
   92600    291.88659   -22073.471    111.36749   -22184.839    4751.3183 
   92800    308.04658    -22071.94    117.53323   -22189.474   -4815.4028 
   93000     308.1305   -22079.883    117.56525   -22197.448    2323.1573 
   93200    284.09767   -22085.072    108.39567   -22193.468   -5675.6444 
   93400    302.91695   -22056.169    115.57605   -22171.745   -3861.5183 
   93600    254.87277   -22083.986    97.245097   -22181.231     16035.37 
   93800    282.35697   -22079.765    107.73152   -22187.497   -4555.1309 
   94000    351.55942    -22051.59    134.13528   -22185.726   -7295.4328 
   94200     285.9192    -22075.08    109.09067   -22184.171   -6313.9599 
   94400    311.64252   -22077.679    118.90524   -22196.584    9684.5033 
   94600     331.5157   -22065.744    126.48772   -22192.231    19220.542 
   94800     290.6729   -22090.144    110.90441   -22201.048   -18564.023 
   95000    311.62254   -22088.171    118.89761   -22207.068     5847.618 
   95200    308.33486   -22066.294    117.64322   -22183.937    6047.3751 
   95400    286.32956   -22074.549    109.24723   -22183.796    7216.2541 
   95600    305.32414   -22086.698     116.4945   -22203.192   -18897.095 
   95800     329.9449   -22057.723    125.88839   -22183.611   -5366.8626 
   96000    301.19243   -22079.398    114.91807   -22194.316    2025.7993 
   96200    315.04808   -22076.902    120.20461   -22197.106    8495.8822 
   96400    363.54804   -22047.961    138.70946    -22186.67   -10274.373 
   96600    301.68362   -22068.947    115.10548   -22184.052    4120.7743 
   96800    309.77256   -22085.828    118.19176    -22204.02    2258.9554 
   97000     300.2739   -22078.543    114.56761    -22193.11   -6927.7491 
   97200    339.98317   -22058.609    129.71843   -22188.328   -2544.8968 
   97400    280.92522   -22089.944    107.18524   -22197.129   -12472.371 
   97600    310.27666   -22067.135     118.3841   -22185.519     36628.96 
   97800    325.57139   -22070.205    124.21971   -22194.425    -13210.06 
   98000    282.88593   -22083.753    107.93334   -22191.687    2924.8973 
   98200    318.23453   -22051.111    121.42037   -22172.532    32979.839 
   98400    271.51907   -22075.778    103.59639   -22179.374    30154.823 
   98600     313.2386   -22082.873    119.51421   -22202.387    16160.505 
   98800    351.84482   -22054.314    134.24417   -22188.558   -16481.988 
   99000    291.32552   -22085.098    111.15341   -22196.251    3736.8147 
   99200    293.60057    -22079.73    112.02144   -22191.751   -4921.8418 
   99400    334.64111   -22064.067     127.6802   -22191.747    13262.506 
   99600    299.37942   -22091.352    114.22633   -22205.578    4831.3785 
   99800    312.42551   -22074.192    119.20398   -22193.396    24802.554 
  100000    333.02112   -22066.564    127.06211   -22193.627    20007.451 
  100200    287.09134   -22084.176    109.53789   -22193.714     23349.44 
  100400    274.65164   -22100.686     104.7916   -22205.477   -7347.1374 
  100600    285.65143   -22078.102     108.9885    -22187.09    41731.601 
  100800     303.4031   -22067.852    115.76154   -22183.613   -9489.1854 
  101000    278.28681   -22091.723    106.17858   -22197.901    29469.261 
  101200     302.5503   -22073.171    115.43616   -22188.607    9647.2868 
  101400    302.64881   -22070.288    115.47374   -22185.762   -9896.9778 
  101600    297.30774   -22089.354    113.43589    -22202.79    11066.954 
  101800    284.57993   -22097.856    108.57967   -22206.435   -1568.0111 
  102000    291.27512   -22067.444    111.13418   -22178.579   -5687.2511 
  102200    311.04278   -22080.923    118.67641   -22199.599   -14109.747 
  102400    267.91841   -22092.147    102.22258   -22194.369    11221.268 
  102600    274.34661   -22079.804    104.67522    -22184.48   -2100.1665 
  102800    328.40164    -22075.27    125.29957    -22200.57    11991.105 
  103000    296.89339   -22094.425     113.2778   -22207.703   -5268.5088 
  103200    304.94229   -22075.001    116.34881    -22191.35    15084.988 
  103400      283.809   -22076.291    108.28553   -22184.576   -9910.1315 
  103600    297.30988   -22083.478    113.43671   -22196.915     27997.86 
  103800    298.00204   -22078.823     113.7008   -22192.524   -45.087126 
  104000    281.21187   -22074.298    107.29461   -22181.593   -1841.0421 
  104200    276.60885   -22093.148    105.53836   -22198.687   -8827.3924 
  104400    300.80389   -22072.725    114.76983   -22187.495   -1789.4118 
  104600    322.14554   -22072.318     122.9126   -22195.231   -7991.4219 
  104800     276.4338    -22097.83    105.47157   -22203.301    -27455.19 
  105000    304.84185   -22088.493    116.31048   -22204.803    14392.824 
  105200    304.02392    -22073.72    115.99841   -22189.718    3090.6931 
  105400    318.49341   -22067.081    121.51915     -22188.6   -8966.0281 
  105600    287.11388   -22085.415    109.54649   -22194.961    11644.032 
  105800    292.07212    -22082.24    111.43828   -22193.678   -22163.197 
  106000    314.64203   -22066.513    120.04968   -22186.562   -37296.504 
  106200    279.77169   -22079.181    106.74512   -22185.926    2516.9578 
  106400     303.0649   -22068.013     115.6325   -22183.646    4540.5602 
  106600    311.30855   -22063.981    118.77781   -22182.759    989.90008 
  106800    290.23027   -22086.191    110.73553   -22196.927     10109.04 
  107000    294.53386    -22076.59    112.37754   -22188.968    20551.531 
  107200    330.36997   -22052.133    126.05058   -22178.184   -18962.272 
  107400     303.9536   -22076.037    115.97158   -22192.008    22760.557 
  107600    286.49969   -22075.104    109.31215   -22184.416   -5466.3763 
  107800    300.63747   -22076.231    114.70633   -22190.938   -7906.0828 
  108000    284.97533   -22089.562    108.73054   -22198.293    217.14036 
  108200    287.06093    -22065.28    109.52629   -22174.806   -9351.6588 
  108400    311.10222   -22076.933    118.69909   -22195.632    910.48851 
  108600    273.03487   -22097.426    104.17473   -22201.601    42575.145 
  108800    311.69317   -22063.994    118.92456   -22182.919    7598.4559 
  109000    293.18781   -22076.257    111.86396   -22188.121   -12114.005 
  109200    287.48092   -22093.718    109.68653   -22203.404     5551.479 
  109400    302.41569   -22061.409     115.3848   -22176.794    11962.092 
  109600    297.97573   -22082.047    113.69076   -22195.738   -3749.7969 
  109800    282.95228   -22079.079    107.95866   -22187.038    9764.3753 
  110000    308.83481   -22062.813    117.83397   -22180.647    2776.2459 
  110200    302.07173   -22083.217    115.25356    -22198.47     9838.064 
  110400    309.73401   -22074.313    118.17705    -22192.49    15994.164 
  110600    323.91719     -22063.1    123.58856   -22186.688    2081.4767 
  110800    294.55603   -22089.844    112.38599    -22202.23   -6521.0376 
  111000    298.78016   -22079.294    113.99768   -22193.291   -9874.8406 
  111200    301.99972   -22074.721    115.22609   -22189.947    2721.0707 
  111400    262.18299   -22100.891    100.03426   -22200.925    3786.8401 
  111600    295.79192   -22075.167    112.85754   -22188.024    34783.692 
  111800    290.63991   -22071.184    110.89182   -22182.076    5774.9828 
  112000     235.6598   -22100.853    89.914507   -22190.768   -4791.5264 
  112200    309.90285   -22083.937    118.24148   -22202.179    7587.3557 
  112400    308.27272   -22073.334    117.61951   -22190.953    26185.705 
  112600    312.87262   -22059.523    119.37457   -22178.897   -9163.8811 
  112800     254.7658   -22086.204    97.204282   -22183.409    1287.3865 
  113000    292.76241   -22071.101    111.70165   -22182.803   -11937.352 
  113200     320.0216   -22068.124    122.10222   -22190.226    19240.365 
  113400    291.80486   -22075.542     111.3363   -22186.878      2900.25 
  113600    292.88015   -22080.972    111.74657   -22192.718    4993.4425 
  113800    280.09128   -22093.727    106.86706   -22200.594    -6293.781 
  114000    311.67175   -22067.949    118.91639   -22186.865    1268.0206 
  114200    291.55461   -22081.724    111.24082   -22192.965    9447.0419 
  114400    303.69972   -22080.729    115.87471   -22196.604   -2769.6414 
  114600    317.54352   -22073.891    121.15673   -22195.048    1620.6365 
  114800    355.01473   -22072.842    135.45363   -22208.296   -11636.355 
  115000    296.10142   -22094.078    112.97563   -22207.053     2867.223 
  115200    331.33816   -22063.406    126.41998   -22189.826    3283.3296 
  115400    297.37648   -22077.116    113.46212   -22190.578     2236.344 
  115600    307.39641   -22085.699    117.28516   -22202.984    22160.988 
  115800    330.55344   -22067.066    126.12058   -22193.187   -13609.467 
  116000    283.45338   -22087.391    108.14985   -22195.541   -882.86139 
  116200    299.91207   -22078.721    114.42956   -22193.151    4412.8503 
  116400    322.62715   -22056.251    123.09635   -22179.347    6019.9009 
  116600    303.11015   -22078.698    115.64976   -22194.348    -15676.05 
  116800    290.45862   -22078.602    110.82265   -22189.425    -19245.78 
  117000    319.57684   -22067.219    121.93253   -22189.152   -12432.406 
  117200    280.77549    -22068.82    107.12811   -22175.948    5114.5383 
  117400    282.90899   -22087.274    107.94214   -22195.216    46793.119 
  117600    306.49001   -22057.695    116.93933   -22174.634    11607.838 
  117800    309.76188   -22072.317    118.18769   -22190.505    14100.817 
  118000    294.33668   -22084.711     112.3023   -22197.014    20254.003 
  118200    298.48962    -22075.55    113.88683   -22189.437   -3117.5596 
  118400    313.17165   -22048.135    119.48867   -22167.624   -31090.627 
  118600    324.04373   -22071.509    123.63684   -22195.146   -13048.506 
  118800    286.38155   -22086.327    109.26707   -22195.594   -844.09414 
  119000     329.5427   -22075.407    125.73494   -22201.142   -6980.8144 
  119200    329.59569    -22059.51    125.75515   -22185.265   -3726.8275 
  119400    277.75916   -22087.452    105.97726   -22193.429    3771.9817 
  119600    269.26656   -22068.503    102.73696    -22171.24   -8658.0223 
  119800    307.61614   -22073.302      117.369   -22190.671    14727.331 
  120000    288.80187    -22091.66    110.19053   -22201.851    3868.0833 
  120200    317.16476   -22067.647    121.01221   -22188.659   -8377.3049 
  120400    295.98619   -22083.625    112.93166   -22196.557    -3227.337 
  120600    276.66715   -22095.763     105.5606   -22201.324    15200.269 
  120800    293.78184    -22064.51    112.09061     -22176.6    6300.3648 
  121000    277.53113   -22080.292    105.89025   -22186.182   -35913.786 
  121200    299.07657   -22081.839    114.11078   -22195.949    3145.4683 
  121400    331.69266   -22047.503    126.55524   -22174.058    5166.3197 
  121600     298.8804   -22077.692    114.03593   -22191.728    114.85239 
  121800    300.93543   -22090.839    114.82001    -22205.66   -2024.1076 
  122000    304.54968   -22084.763    116.19901   -22200.962    -17574.27 
  122200    347.78119   -22064.265    132.69372   -22196.959   -2326.6504 
  122400    267.28009   -22090.339    101.97903   -22192.318    26591.306 
  122600     327.6788   -22077.984    125.02378   -22203.008   -4884.7802 
  122800    329.52213   -22066.054    125.72709   -22191.781    -14670.23 
  123000    299.26595   -22073.852    114.18304   -22188.035    -11070.03 
  123200    310.53916   -22083.063    118.48426   -22201.547    1071.3053 
  123400    342.17377   -22056.063    130.55424   -22186.618   -6057.9131 
  123600    290.18798   -22077.509    110.71939   -22188.228    1409.5913 
  123800    275.42003   -22081.785    105.08477    -22186.87   -10011.966 
  124000    295.84837   -22073.719    112.87908   -22186.599    4849.7755 
  124200    335.58492   -22058.487    128.04031   -22186.527    22738.308 
  124400    270.36511   -22086.901     103.1561   -22190.057     12316.41 
  124600    309.06253   -22066.905    117.92086   -22184.826   -14192.357 
  124800    280.98236   -22083.075    107.20704   -22190.282    18132.943 
  125000    275.60768   -22089.584    105.15637    -22194.74   -16602.053 
  125200    297.97009   -22070.908    113.68861   -22184.597   -2056.0584 
  125400    257.63842   -22093.094    98.300313   -22191.395    9250.0106 
  125600    274.70267   -22087.483    104.81107   -22192.294   -3120.7905 
  125800    300.72237   -22074.426    114.73872   -22189.165    22468.084 
  126000      304.432   -22082.909    116.15411   -22199.063   -20857.408 
  126200     264.2602   -22094.244    100.82681   -22195.071   -8931.8995 
  126400    316.40837   -22065.818    120.72361   -22186.541    27816.441 
  126600    266.14647   -22078.848    101.54651   -22180.394    9287.9156 
  126800    254.23647   -22101.668    97.002319   -22198.671   -511.02104 
  127000    318.73995   -22073.729    121.61322   -22195.342    8330.0212 
  127200    316.57622   -22072.287    120.78766   -22193.074    6346.7923 
  127400     259.7143   -22100.529     99.09235   -22199.622    -21352.67 
  127600    299.62547   -22085.339    114.32021   -22199.659   -3316.3905 
  127800    301.85368   -22073.551    115.17037   -22188.722    25609.052 
  128000    290.66198    -22063.65    110.90024    -22174.55   -5325.3739 
  128200    271.52839   -22084.215    103.59994   -22187.815   -5883.1311 
  128400    293.43493   -22083.222    111.95825    -22195.18     3427.081 
  128600     320.1731   -22060.896    122.16002   -22183.056   -4210.8376 
  128800    297.56517   -22074.346    113.53411    -22187.88    8869.1116 
  129000    278.76015   -22077.493    106.35917   -22183.853   -1433.6377 
  129200    316.21948   -22073.471    120.65155   -22194.123   -2985.0854 
  129400    288.12921   -22083.074    109.93388   -22193.008   -4376.4593 
  129600    293.16628   -22088.236    111.85574   -22200.092    17421.059 
  129800    304.74173   -22061.105    116.27228   -22177.377    16518.953 
  130000    288.83629   -22082.472    110.20366   -22192.676   -12.981817 
  130200    288.02033   -22079.765    109.89234   -22189.658   -11461.857 
  130400    295.54741   -22056.654    112.76425   -22169.419     13940.94 
  130600    317.95207   -22068.669     121.3126   -22189.981    1973.0301 
  130800    312.61522   -22087.861    119.27636   -22207.137   -926.09995 
  131000    281.01699   -22070.884    107.22026   -22178.105    14586.731 
  131200    336.63748   -22058.138     128.4419    -22186.58    6456.8613 
  131400    291.36159   -22075.016    111.16717   -22186.184    15609.959 
  131600    282.19043    -22076.27    107.66798   -22183.938    -14478.28 
  131800    244.75715   -22101.051    93.385546   -22194.437    25601.784 
  132000    305.69612   -22075.614    116.63642    -22192.25   -9159.0052 
  132200    294.79153   -22068.999    112.47585   -22181.475   -13417.925 
  132400    290.04181   -22089.181    110.66362   -22199.845    6187.0567 
  132600    310.38097   -22085.749     118.4239   -22204.173   -4689.9779 
  132800     334.4034   -22067.121    127.58951    -22194.71    1809.4715 
  133000    302.26569   -22086.895    115.32757   -22202.223   -1960.4078 
  133200    301.46242   -22062.992    115.02108   -22178.013    25379.565 
  133400    316.12308   -22063.852    120.61476   -22184.467   -9153.3301 
  133600    293.51019   -22084.915    111.98696   -22196.902    24635.405 
  133800    298.08282   -22068.509    113.73162   -22182.241    2582.0101 
  134000      309.464   -22060.702    118.07403   -22178.776   -10662.431 
  134200    318.16411   -22076.511    121.39351   -22197.904    5655.1051 
  134400    298.23356   -22067.062    113.78913   -22180.851    38230.523 
  134600    300.29878   -22063.167     114.5771   -22177.744   -7107.4254 
  134800    290.66116   -22085.364    110.89993   -22196.264    11875.699 
  135000    317.30369   -22065.556    121.06522   -22186.621   -4926.6928 
  135200    299.42796    -22055.25    114.24485   -22169.495    4989.5843 
  135400    271.82865    -22082.69    103.71451   -22186.405   -220.65291 
  135600    292.95989   -22064.312    111.77699   -22176.089    10142.924 
  135800     325.0805   -22060.497    124.03241   -22184.529   -17854.399 
  136000    284.30033   -22084.762      108.473   -22193.235   -4236.1588 
  136200    289.57016   -22063.371    110.48366   -22173.855    -1359.092 
  136400     271.4307   -22084.822    103.56267   -22188.384    5805.5537 
  136600    304.66514   -22079.855    116.24306   -22196.098    29770.643 
  136800    325.05878   -22063.992    124.02413   -22188.016   -15823.715 
  137000    276.09091   -22097.301    105.34074   -22202.642   -7774.1207 
  137200    313.97883   -22078.396    119.79664   -22198.193    6271.9511 
  137400    306.58243   -22071.362    116.97459   -22188.337    8487.3354 
  137600    287.34137    -22085.03    109.63329   -22194.663   -10409.409 
  137800    274.61235    -22073.02    104.77661   -22177.796   -10551.593 
  138000    294.85714   -22060.718    112.50088   -22173.219   -18016.336 
  138200    286.38625   -22091.768    109.26887   -22201.037    1682.9751 
  138400    329.80544   -22066.929    125.83518   -22192.764     2073.231 
  138600    309.05709   -22069.304    117.91878   -22187.223   -19217.408 
  138800     265.2329   -22095.844    101.19794   -22197.042   -22545.278 
  139000    317.01581   -22073.321    120.95538   -22194.276    21242.292 
  139200    303.33576     -22072.1    115.73585   -22187.836    22874.211 
  139400     275.0942   -22096.676    104.96045   -22201.637    20530.356 
  139600    316.14141   -22075.577    120.62176   -22196.199    3048.6372 
  139800    297.67009   -22075.199    113.57414   -22188.773    27851.857 
  140000    322.61549    -22065.14     123.0919   -22188.232   -6979.5188 
  140200    292.08908   -22082.468    111.44474   -22193.912   -16170.113 
  140400    317.61388   -22084.191    121.18357   -22205.375    3402.3286 
  140600    299.37625   -22059.662    114.22512   -22173.887    15975.109 
  140800    315.73162   -22078.081     120.4654   -22198.547    -18633.74 
  141000    319.29124   -22072.062    121.82356   -22193.886   -1958.3061 
  141200    324.48811   -22051.462    123.80639   -22175.268   -20840.807 
  141400    292.45877   -22081.051     111.5858   -22192.637   -8890.9162 
  141600    274.64486   -22087.814    104.78901   -22192.603    8124.1563 
  141800    332.74897   -22060.972    126.95827   -22187.931   -43312.932 
  142000    282.62861   -22084.209    107.83516   -22192.044   -21973.501 
  142200     302.0857   -22082.279    115.25889   -22197.538   -22606.242 
  142400    312.43006   -22062.033    119.20572   -22181.238    2246.8133 
  142600     291.2144     -22064.9    111.11101   -22176.011   -17947.184 
  142800    267.38646   -22086.006    102.01961   -22188.026    7626.2853 
  143000    331.64462   -22059.494    126.53691   -22186.031    7325.8274 
  143200    313.42009   -22063.482    119.58346   -22183.065    12818.008 
  143400    266.98069   -22080.225     101.8648    -22182.09   -7776.9903 
  143600    268.54574   -22084.511    102.46193   -22186.973     1957.579 
  143800    305.79203    -22057.67    116.67302   -22174.344     1810.631 
  144000    284.75003   -22080.907    108.64458   -22189.552   -6248.8368 
  144200    316.41934   -22079.158     120.7278   -22199.886   -15904.489 
  144400    277.43894   -22074.331    105.85508   -22180.186       458.94 
  144600    305.60007   -22061.173    116.59978   -22177.773      24358.5 
  144800    286.32633   -22087.039      109.246   -22196.285    8145.4269 
  145000     301.0283   -22074.155    114.85545   -22189.011    3303.1566 
  145200    345.39576    -22047.53    131.78357   -22179.314   -5361.8945 
  145400    279.86795   -22084.982    106.78185   -22191.763    -14869.59 
  145600    288.42629   -22083.407    110.04723   -22193.454    -1870.846 
  145800    330.65691   -22063.211    126.16006   -22189.371   -9524.6713 
  146000    307.93941   -22094.349    117.49234   -22211.842   -13834.977 
  146200    296.32187   -22079.171    113.05974   -22192.231    9693.9176 
  146400    296.73766   -22073.051    113.21838   -22186.269   -15345.154 
  146600    261.49011   -22104.681    99.769902   -22204.451    33325.088 
  146800     303.0589   -22077.275    115.63021   -22192.905    12228.089 
  147000    337.94078   -22065.208    128.93917   -22194.147   -35.616907 
  147200    267.86081   -22093.792     102.2006   -22195.992    16247.126 
  147400     285.0104   -22075.734    108.74392   -22184.478    15669.806 
  147600    293.81585   -22072.548    112.10358   -22184.652    23464.495 
  147800    284.58319   -22086.492    108.58092   -22195.073   -7302.8168 
  148000    290.70288   -22089.871    110.91585   -22200.787     32012.95 
  148200    305.23472   -22068.656    116.46038   -22185.116   -16302.082 
  148400    307.00675    -22088.63    117.13649   -22205.766    20335.648 
  148600    321.83562   -22084.824    122.79435   -22207.618   -1337.0441 
  148800    301.71962    -22067.56    115.11922   -22182.679    6128.8492 
  149000    285.53784   -22090.054    108.94516   -22198.999    11363.116 
  149200    299.40287   -22061.695    114.23527   -22175.931    2505.5069 
  149400    289.85745   -22071.577    110.59328    -22182.17    20630.635 
  149600    297.20353   -22084.793    113.39613   -22198.189   -7183.1744 
  149800    302.95563   -22050.094    115.59081   -22165.685   -2488.1949 
  150000    294.79873   -22070.996    112.47859   -22183.474   -27023.447 
  150200     279.6181   -22079.052    106.68652   -22185.739     23597.41 
  150400    378.52029   -22047.837    144.42203   -22192.259    16430.981 
  150600    334.01766   -22067.493    127.44233   -22194.935    255.82909 
  150800    281.82816   -22087.544    107.52975   -22195.074    12411.962 
  151000    296.45743   -22077.846    113.11146   -22190.958    38063.608 
  151200    305.85024    -22063.02    116.69523   -22179.715    -19334.79 
  151400    293.71943   -22090.384    112.06679   -22202.451    1653.9135 
  151600    292.46399     -22071.6    111.58779   -22183.188   -33355.088 
  151800    342.58404   -22062.034    130.71078   -22192.745   -11397.007 
  152000    296.30043   -22088.911    113.05156   -22201.963   -7758.3859 
  152200    295.79316    -22066.91    112.85801   -22179.768   -5898.8983 
  152400    288.89744   -22069.721      110.227   -22179.948    -7471.896 
  152600     312.7799   -22075.805     119.3392   -22195.144   -8285.9583 
  152800     278.9964   -22078.421    106.44931    -22184.87   -18001.985 
  153000    300.35104   -22082.971    114.59704   -22197.568   -3351.5581 
  153200    276.03847    -22082.18    105.32074   -22187.501    2487.0403 
  153400     344.7648   -22055.084    131.54283   -22186.627   -7822.3779 
  153600    298.26204   -22074.111        113.8   -22187.911   -10075.619 
  153800    300.01119   -22076.128    114.46738   -22190.595   -24946.454 
  154000    320.89526   -22066.399    122.43556   -22188.835     6882.146 
  154200    307.85928   -22078.968    117.46177    -22196.43    15858.034 
  154400    301.18599   -22084.971    114.91561   -22199.887    635.09518 
  154600    338.08698    -22068.06    128.99495   -22197.055    18066.219 
  154800     284.5952   -22081.394     108.5855   -22189.979    6302.2448 
  155000    248.84299    -22109.21     94.94447   -22204.154    2450.6203 
  155200    314.07297   -22075.128    119.83256   -22194.961   -4553.3111 
  155400    276.46866   -22074.803    105.48487   -22180.288    32689.891 
  155600    287.13832   -22088.152    109.55581   -22197.707    12021.631 
  155800    296.95622   -22064.928    113.30177    -22178.23   -9707.0274 
  156000     319.9743    -22068.45    122.08417   -22190.534   -7221.3375 
  156200    309.97979   -22086.338    118.27083   -22204.609    2694.2606 
  156400    308.58163   -22068.799    117.73737   -22186.537   -10719.373 
  156600     313.3631   -22062.216    119.56171   -22181.777   -19872.145 
  156800    247.81778   -22092.475    94.553308   -22187.028    26329.071 
  157000    301.15895   -22066.738     114.9053   -22181.643   -13588.062 
  157200    270.92694   -22080.312    103.37046   -22183.683   -11959.158 
  157400    262.38722   -22099.833    100.11219   -22199.945   -3114.1974 
  157600    302.26114   -22079.587    115.32583   -22194.912   -4201.2977 
  157800     316.7112   -22065.232    120.83916   -22186.071    4658.8051 
  158000    276.44638   -22081.316    105.47637   -22186.792   -24915.731 
  158200    277.10999   -22086.028    105.72957   -22191.758    13998.397 
  158400    310.27808   -22062.826    118.38464   -22181.211   -3648.4645 
  158600    291.81602   -22077.387    111.34056   -22188.728    4977.0409 
  158800    277.56598   -22087.398    105.90355   -22193.301    24918.461 
  159000     292.9026   -22077.663    111.75514   -22189.418     27306.83 
  159200    319.15534   -22065.743    121.77171   -22187.515    -15967.49 
  159400    276.49445   -22096.165    105.49471   -22201.659   -461.89298 
  159600    301.35599   -22080.489    114.98048    -22195.47    10746.956 
  159800     296.6217   -22073.571    113.17414   -22186.745    10361.124 
  160000    265.21865   -22078.015     101.1925   -22179.208   -746.05238 
  160200     311.8054   -22077.303    118.96738   -22196.271    7595.1299 
  160400    303.90333   -22074.103     115.9524   -22190.055    4145.3609 
  160600     264.7143   -22083.967    101.00007   -22184.967    12018.801 
  160800    251.45186    -22086.88    95.939871    -22182.82   -18396.148 
  161000    335.00239   -22059.479    127.81805   -22187.297   -3734.3649 
  161200    281.10648   -22081.537     107.2544   -22188.791    1536.4265 
  161400    299.56558   -22075.113    114.29736    -22189.41   -15903.767 
  161600    292.14346    -22058.65    111.46549   -22170.115    -6863.129 
  161800    293.71658    -22081.67    112.06571   -22193.736   -10260.145 
  162000    323.38311    -22061.13    123.38479   -22184.514   -11759.685 
  162200    309.24886   -22057.961    117.99195   -22175.953    22837.515 
  162400    305.07797   -22077.647    116.40057   -22194.048    2477.9295 
  162600    275.97647   -22092.028    105.29708   -22197.325   -26647.273 
  162800    280.55756   -22078.502    107.04497   -22185.547    5608.1388 
  163000    280.59855   -22068.802    107.06061   -22175.863    22035.474 
  163200    287.04266   -22094.191    109.51931    -22203.71   -20906.557 
  163400    309.42083   -22084.438    118.05756   -22202.496    6111.6842 
  163600    308.12524   -22068.274    117.56324   -22185.838    10089.243 
  163800    252.28775   -22088.483    96.258796   -22184.742   -3178.2005 
  164000    289.75922   -22078.567     110.5558   -22189.123    17808.371 
  164200    308.01513   -22065.887    117.52123   -22183.408    1092.5456 
  164400    307.90152   -22083.176    117.47788   -22200.654    12984.064 
  164600    311.34819   -22078.418    118.79294   -22197.211    45746.303 
  164800    333.42955   -22060.512    127.21794    -22187.73   -2929.4705 
  165000    289.25172   -22082.205    110.36217   -22192.567    6876.1141 
  165200    291.75808   -22081.673    111.31845   -22192.991   -7697.1607 
  165400     332.0096   -22054.211    126.67617   -22180.887   -11648.864 
  165600    305.21989   -22078.705    116.45472    -22195.16    30124.796 
  165800    283.96006   -22084.356    108.34317   -22192.699   -10320.302 
  166000    312.13226   -22058.413    119.09209   -22177.506   -4591.8075 
  166200    283.11322   -22082.184    108.02006   -22190.204   -441.77879 
  166400    305.65296   -22084.458    116.61996   -22201.078   -11248.967 
  166600    327.45613   -22057.166    124.93882   -22182.105    4508.4288 
  166800     332.6757   -22071.625    126.93031   -22198.555   -14919.187 
  167000    305.05121   -22078.486    116.39036   -22194.876   -7145.4012 
  167200     260.2782   -22086.418    99.307505   -22185.725    -48203.61 
  167400    262.65029   -22086.641    100.21256   -22186.853     8427.422 
  167600    294.73177   -22063.867    112.45305    -22176.32   -11791.806 
  167800    284.39834   -22093.103    108.51039   -22201.614   -15950.344 
  168000    301.55928   -22080.488    115.05804   -22195.546    16379.368 
  168200    307.86795   -22066.926    117.46507   -22184.391    8857.2591 
  168400    291.45563   -22095.283    111.20306   -22206.486   -1676.6162 
  168600      301.075   -22077.306    114.87327   -22192.179    3012.5282 
  168800    303.88636    -22069.18    115.94592   -22185.126   -6855.0349 
  169000    293.89648   -22083.499    112.13435   -22195.633    -1444.761 
  169200    247.37627   -22107.933    94.384853   -22202.318   -14532.086 
  169400    339.63432   -22078.465    129.58533    -22208.05   -21819.372 
  169600    293.70961   -22069.035    112.06305   -22181.098    948.02195 
  169800    304.31289   -22078.192    116.10866   -22194.301   -1284.0686 
  170000    283.91672   -22093.313    108.32663   -22201.639    12122.818 
  170200     311.1305   -22062.928    118.70988   -22181.638   -23366.793 
  170400    327.38321   -22078.604      124.911   -22203.515   -3207.7041 
  170600    259.91995   -22089.807    99.170816   -22188.978    -8787.122 
  170800    308.56106   -22060.447    117.72953   -22178.176   -5236.1839 
  171000    295.65157   -22079.957    112.80399   -22192.761    23975.805 
  171200     318.6056   -22079.142    121.56195   -22200.704     6564.012 
  171400    353.21124   -22069.691    134.76552   -22204.456   -27353.562 
  171600    321.91567   -22077.714    122.82489   -22200.539    2324.8442 
  171800    261.91281   -22086.896    99.931178   -22186.827   -25021.048 
  172000    303.03588   -22066.378    115.62143   -22181.999    1741.4145 
  172200    312.66635   -22067.603    119.29587   -22186.899    -4902.693 
  172400    286.53588   -22089.049    109.32596   -22198.375   -17729.692 
  172600    285.67232   -22071.477    108.99647   -22180.474    -7357.714 
  172800    280.40211   -22085.366    106.98565   -22192.351    5990.5174 
  173000    293.48343   -22091.387    111.97675   -22203.364    12708.281 
  173200    286.39397   -22069.657    109.27181   -22178.928   -10126.596 
  173400     268.0381    -22080.21    102.26824   -22182.479    86.879178 
  173600    277.60263   -22107.078    105.91753   -22212.996   -7989.6028 
  173800    299.94101   -22080.487     114.4406   -22194.928   -22809.772 
  174000    317.66324    -22067.82     121.2024   -22189.022    17092.323 
  174200     284.5976   -22080.372    108.58642   -22188.958   -5312.4713 
  174400    295.77201   -22085.261    112.84994   -22198.111    11089.921 
  174600    312.92829   -22061.964    119.39581    -22181.36   -6566.3273 
  174800    289.27615   -22079.654    110.37149   -22190.025    12518.263 
  175000    326.26738   -22084.534    124.48526    -22209.02    1934.4473 
  175200    323.48442   -22078.065    123.42344   -22201.489   -7988.1158 
  175400    319.88209   -22062.027    122.04899   -22184.076    13570.829 
  175600     290.6118   -22089.918     110.8811   -22200.799    12485.507 
  175800    290.18629   -22076.967    110.71875   -22187.686    18734.192 
  176000    313.61956   -22073.643    119.65956   -22193.302     9772.187 
  176200    288.68127   -22071.386    110.14451   -22181.531   -12369.387 
  176400    337.44868   -22054.551    128.75141   -22183.303    15493.061 
  176600    314.11147   -22080.968    119.84725   -22200.815    854.08475 
  176800    309.88043    -22074.38    118.23292   -22192.613    10777.544 
  177000    338.14395   -22048.544    129.01669   -22177.561   -21368.736 
  177200    304.55691   -22067.655    116.20176   -22183.857    12590.861 
  177400    268.90724   -22085.143    102.59986   -22187.743    7792.2291 
  177600    301.94511    -22057.68    115.20525   -22172.885   -4685.5483 
  177800    323.30811   -22073.994    123.35617    -22197.35    2190.3644 
[...]
  950000    309.37855   -22351.914    118.04143   -22469.956     8654.096 
  950200     276.5426   -22370.484    105.51308   -22475.997    1791.9325 
  950400    320.97034    -22339.82    122.46421   -22462.285   -5865.0597 
  950600    304.00822    -22351.53    115.99242   -22467.522   -2902.7387 
  950800    273.47545   -22376.608    104.34283   -22480.951    4192.7846 
  951000     317.7673   -22346.463    121.24211   -22467.705   -3799.4967 
  951200    303.90443   -22336.851    115.95282   -22452.804   -12910.162 
  951400    307.22392   -22358.484    117.21935   -22475.704    24799.115 
  951600     298.4071   -22335.458    113.85535   -22449.314   -7910.3309 
  951800    313.83949   -22338.745    119.74348   -22458.488    -15091.33 
  952000    293.50806   -22353.433    111.98615   -22465.419    3690.5722 
  952200    300.59282   -22331.221    114.68929    -22445.91   -11959.489 
  952400    299.98805   -22340.763    114.45855   -22455.221   -13676.916 
  952600    282.55914   -22349.838    107.80865   -22457.647    18343.892 
  952800    332.01778   -22323.401    126.67929    -22450.08    2022.4452 
  953000    293.07889   -22325.234     111.8224   -22437.057    8866.5381 
  953200    305.27237   -22351.103    116.47475   -22467.577   -26680.374 
  953400    304.38037   -22345.907    116.13441   -22462.042   -4766.2621 
  953600    285.61128   -22314.441    108.97318   -22423.414    1332.9363 
  953800    271.89039   -22345.615    103.73806   -22449.353   -116.93346 
  954000    325.41724   -22344.695    124.16089   -22468.855    3764.8519 
  954200    297.61805   -22355.267    113.55429   -22468.821    -6260.002 
  954400    287.17421   -22355.246    109.56951   -22464.816   -21286.134 
  954600    325.56069   -22332.997    124.21563   -22457.213     19438.75 
  954800    288.91066   -22352.503    110.23204   -22462.735   -9547.8642 
  955000    258.18159   -22367.414    98.507554   -22465.921   -10729.356 
  955200    328.88022   -22342.879    125.48217   -22468.361   -7068.7379 
  955400    292.79992    -22345.64    111.71596   -22457.356     31565.56 
  955600    245.42348   -22367.566    93.639778   -22461.206    45197.177 
  955800    295.89896   -22344.487    112.89838   -22457.386    23753.684 
  956000    324.31888   -22347.403    123.74182   -22471.145    -24117.93 
  956200    251.99824   -22365.804    96.148339   -22461.952    -11018.82 
  956400    294.04544   -22334.495    112.19118   -22446.686    6783.9202 
  956600    301.26079   -22347.714    114.94415   -22462.658    16369.338 
  956800    277.51978    -22354.29    105.88592   -22460.176    18723.034 
  957000    310.28457   -22351.812    118.38712   -22470.199   -1365.9532 
  957200    326.71492    -22333.42    124.65602   -22458.076   -10188.979 
  957400    291.04001   -22325.997    111.04448   -22437.042    26895.555 
  957600    292.45891   -22352.714    111.58585     -22464.3   -14071.652 
  957800    302.85483   -22338.821    115.55235   -22454.373    10943.058 
  958000    309.80186   -22327.517    118.20295    -22445.72     14697.67 
  958200    291.53383   -22357.946    111.23289   -22469.179    18106.208 
  958400     282.7808   -22336.369    107.89323   -22444.262   -17552.385 
  958600    307.05394   -22329.326    117.15449    -22446.48    5739.5398 
  958800    327.17014   -22352.849     124.8297   -22477.679    13065.041 
  959000    279.96444   -22355.557    106.81867   -22462.376   -13439.177 
  959200    322.02958   -22327.556    122.86835   -22450.424    20354.744 
  959400    283.65851   -22352.367    108.22811   -22460.595   -6131.6894 
  959600    302.37345   -22347.736    115.36868   -22463.104   -407.01791 
  959800    321.26638   -22322.506    122.57716   -22445.083   -18648.921 
  960000    274.24417   -22349.807    104.63613   -22454.443   -22108.708 
  960200    287.54142   -22346.012    109.70961   -22455.722    21517.555 
  960400     317.8513   -22326.674    121.27416   -22447.948   -9578.0513 
  960600    291.42843   -22350.935    111.19268   -22462.127   -2151.8764 
  960800    280.24457   -22346.506    106.92555   -22453.431   -17883.863 
  961000    371.74178   -22316.598    141.83573   -22458.434   -7834.4504 
  961200    296.83175   -22325.295    113.25428   -22438.549    15625.504 
  961400    301.98518   -22348.865    115.22054   -22464.086    17865.826 
  961600    290.90872   -22353.298    110.99439   -22464.292   -21772.705 
  961800    330.90567   -22325.267    126.25497   -22451.522   -19798.149 
  962000    302.30964   -22355.647    115.34433   -22470.991   -4985.7168 
  962200    307.12917   -22352.991    117.18319   -22470.174    3976.0574 
  962400    326.58793   -22332.726    124.60756   -22457.333    7821.7435 
  962600    330.55976   -22332.317    126.12299    -22458.44   -26143.758 
  962800    292.10141   -22357.366    111.44945   -22468.816   -7150.4162 
  963000    321.84264   -22336.813    122.79703    -22459.61    9975.7602 
  963200    305.75014   -22335.821    116.65703   -22452.478   -4948.5699 
  963400    279.78714   -22350.925    106.75102   -22457.676    11055.374 
  963600    308.19696   -22342.684     117.5906   -22460.275    -5549.505 
  963800    342.01013   -22320.978    130.49181    -22451.47    31636.956 
  964000    307.00672   -22350.777    117.13648   -22467.913   -7947.2363 
  964200    315.15149    -22348.71    120.24406   -22468.954   -17918.884 
  964400    310.68436   -22321.357    118.53966   -22439.896    17719.288 
  964600    310.04364   -22347.173    118.29519   -22465.468      1663.01 
  964800    292.49618   -22345.901    111.60007   -22457.501   -16633.464 
  965000    272.07104   -22362.785    103.80699   -22466.592   -17157.473 
  965200    305.29395   -22345.776    116.48298   -22462.259   -3078.9849 
  965400    309.73147   -22343.573    118.17609   -22461.749     1955.701 
  965600    311.79886    -22356.29    118.96489   -22475.255   -1502.1367 
  965800    333.74868   -22327.639     127.3397   -22454.979    801.10645 
  966000    304.82742   -22349.758    116.30498   -22466.063    14464.978 
  966200    300.25184   -22357.006    114.55919   -22471.565   -6990.1226 
  966400    321.05849   -22337.088    122.49784   -22459.586    1406.7701 
  966600    292.63339   -22362.002    111.65242   -22473.655   -15459.864 
  966800    269.67682   -22354.397    102.89349    -22457.29   -14703.621 
  967000    283.52836   -22336.798    108.17846   -22444.976    9329.2443 
  967200    276.71332   -22359.292    105.57822    -22464.87   -3417.1695 
  967400    270.43443    -22365.62    103.18255   -22468.803    19696.606 
  967600    295.20281   -22341.063    112.63277   -22453.696    22682.313 
  967800    261.34621   -22344.695    99.714995    -22444.41   -8408.9124 
  968000     258.7606   -22366.702    98.728475   -22465.431    17823.731 
  968200    297.57552   -22336.247    113.53806   -22449.785   -484.91275 
  968400    259.71082   -22351.779    99.091023    -22450.87    -2670.159 
  968600    315.28928   -22342.463    120.29663   -22462.759    23556.694 
  968800    345.09057    -22331.85    131.66713   -22463.517   -13136.302 
  969000    307.08303   -22347.117    117.16559   -22464.283    15963.242 
  969200     301.5874   -22338.047    115.06877   -22453.116    -3991.168 
  969400    340.42637   -22333.641    129.88753   -22463.528    24093.196 
  969600    298.96366    -22355.44     114.0677   -22469.508   -1069.8063 
  969800    326.28571   -22331.541    124.49225   -22456.033    28449.068 
  970000    287.86951   -22351.627    109.83479   -22461.462    13142.856 
  970200    295.58725   -22350.477    112.77945   -22463.257   -27792.068 
  970400    324.56195   -22328.902    123.83456   -22452.736    17542.582 
  970600    280.66016   -22358.713    107.08411   -22465.797    2794.8314 
  970800    303.35222   -22348.711    115.74213   -22464.453    -9133.609 
  971000    310.16212   -22333.138     118.3404   -22451.479     3105.909 
  971200    276.79746   -22365.108    105.61032   -22470.718   -15701.722 
  971400    311.76316   -22341.675    118.95127   -22460.626     12751.39 
  971600    277.89917   -22337.126    106.03067   -22443.157    10075.495 
  971800    249.53939   -22364.942    95.210179   -22460.152    5498.0071 
  972000     285.9829   -22341.726    109.11497   -22450.841   -7785.4571 
  972200    297.66847   -22340.376    113.57352   -22453.949    -599.1497 
  972400    276.57389   -22356.175    105.52502     -22461.7    2748.2338 
  972600    261.62192   -22368.655    99.820191   -22468.475   -27523.202 
  972800    331.06621   -22341.942    126.31622   -22468.258   -27819.762 
  973000    289.99122   -22345.951    110.64432   -22456.595    3156.7834 
  973200    268.29431   -22367.942      102.366   -22470.308    9271.9672 
  973400    318.90536   -22338.018    121.67633   -22459.694    2828.2381 
  973600    270.24983   -22339.119    103.11212   -22442.231   -26131.426 
  973800     286.4566    -22365.62    109.29571   -22474.916    8515.2801 
  974000    309.05265   -22341.233    117.91709    -22459.15    22212.471 
  974200    271.37665   -22347.543    103.54205   -22451.085   -8077.0819 
  974400    302.12815   -22357.669    115.27509   -22472.944    2762.6349 
  974600    317.09007   -22332.332    120.98371   -22453.315    5695.8811 
  974800    296.76417   -22350.148     113.2285   -22463.376    18016.489 
  975000     287.2255   -22353.225    109.58907   -22462.814   -16156.659 
  975200    317.84964   -22339.961    121.27352   -22461.235    25758.521 
  975400    312.64171   -22330.997    119.28647   -22450.284    -15331.34 
  975600    280.81493   -22356.122    107.14316   -22463.265    10898.314 
  975800    298.29354   -22339.441    113.81202   -22453.253   -4182.6462 
  976000    325.42358   -22335.369    124.16331   -22459.532    19061.224 
  976200    304.62981   -22345.637    116.22958   -22461.866   -9622.5183 
  976400    270.82491   -22364.309    103.33154    -22467.64    5467.3573 
  976600    266.01789   -22367.983    101.49745   -22469.481    14541.937 
  976800    319.34652    -22345.28    121.84465   -22467.124   -17398.006 
  977000    339.83647   -22336.159    129.66246   -22465.822    12099.033 
  977200    247.73865   -22365.686    94.523116   -22460.209    -10126.83 
  977400    274.63861     -22343.3    104.78663   -22448.086    18145.791 
  977600    313.74299   -22344.283    119.70666   -22463.989   -547.84531 
  977800    312.07887    -22349.05    119.07172   -22468.121   -8244.0983 
  978000    289.38681   -22347.927    110.41371   -22458.341    1339.5858 
  978200     303.2448   -22321.277    115.70114   -22436.979    14182.389 
  978400    290.67764   -22351.326    110.90622   -22462.232    4049.0845 
  978600    278.98057   -22353.016    106.44328   -22459.459   -10890.068 
  978800    315.03308   -22322.372    120.19888   -22442.571   -29825.039 
  979000    304.20524    -22328.71    116.06759   -22444.778   -3586.6879 
  979200    283.55494    -22352.05     108.1886   -22460.239    20486.022 
  979400    315.64576   -22331.686    120.43265   -22452.119   -11064.959 
  979600    324.24507   -22327.625    123.71366   -22451.339    7967.9636 
  979800    275.56817   -22344.386    105.14129   -22449.527    6850.3392 
  980000    313.70301   -22335.082     119.6914   -22454.774    9940.0759 
  980200    329.78433   -22320.191    125.82713   -22446.018   -10720.133 
  980400    289.99187   -22351.574    110.64457   -22462.219   -15816.074 
  980600    329.28322   -22339.568    125.63593   -22465.204    6575.6238 
  980800    320.58572   -22331.849    122.31746   -22454.167   -9107.2804 
  981000    289.55071   -22353.796    110.47625   -22464.272   -5157.3477 
  981200    310.44357   -22333.156    118.44779   -22451.604     10304.74 
  981400    292.58271   -22357.416    111.63308   -22469.049    15322.836 
  981600    289.84139   -22357.461    110.58715   -22468.048    17502.302 
  981800    282.17533   -22344.846    107.66222   -22452.508    8381.4941 
  982000    354.94096   -22313.307    135.42548   -22448.733     -1126.82 
  982200    302.44605   -22342.724    115.39638    -22458.12    6711.5725 
  982400    269.31598    -22359.28    102.75581   -22462.036    7145.1271 
  982600    298.48303   -22330.935    113.88431    -22444.82   -21135.828 
  982800    311.21218   -22345.679    118.74104    -22464.42    16847.342 
  983000    290.85258   -22355.499    110.97296   -22466.472   -22104.825 
  983200     317.2765   -22343.859    121.05485   -22464.913   -12096.997 
  983400    322.95412   -22331.984    123.22111   -22455.205   -1160.9598 
  983600    267.83783   -22359.462    102.19183   -22461.653   -15431.443 
  983800     324.9685   -22348.596    123.98968   -22472.586    -5888.431 
  984000    305.41764   -22342.571    116.53017   -22459.101   -13456.156 
  984200    310.66506   -22352.298    118.53229   -22470.831    15076.697 
  984400     258.1588   -22370.148    98.498859   -22468.647    28131.323 
  984600    330.26274    -22343.76    126.00966    -22469.77    12083.355 
  984800    282.60144    -22345.73    107.82479   -22453.555    13304.903 
  985000    278.65902   -22356.648    106.32059   -22462.969   -11036.289 
  985200    300.96437   -22349.751    114.83106   -22464.582    2540.8573 
  985400    319.23608   -22336.801    121.80251   -22458.604    35775.581 
  985600    290.82186   -22351.758    110.96125   -22462.719     20803.19 
  985800    291.67366   -22365.531    111.28625   -22476.817   -17319.816 
  986000    317.81864   -22340.723     121.2617   -22461.984   -10370.915 
  986200    308.92518   -22340.042    117.86845    -22457.91    18271.138 
  986400    276.08525   -22366.747    105.33859   -22472.085    5779.0497 
  986600    293.44353   -22348.261    111.96153   -22460.223   -18496.727 
  986800    297.66088   -22337.464    113.57063   -22451.035   -20691.356 
  987000    310.10223   -22343.148    118.31755   -22461.465    2378.3064 
  987200    288.08641    -22356.87    109.91755   -22466.788   -15477.233 
  987400    313.72475   -22325.866     119.6997   -22445.566   -8968.6493 
  987600    342.14192   -22334.822    130.54209   -22465.364   -4971.6079 
  987800     305.2141   -22350.308    116.45251    -22466.76      4963.74 
  988000    309.51555   -22336.218     118.0937   -22454.311   -1543.8846 
  988200    325.81166    -22324.17    124.31138   -22448.481   -22021.343 
  988400    289.36756   -22351.459    110.40637   -22461.865    10886.015 
  988600    314.67634   -22343.228    120.06277   -22463.291   -5010.0435 
  988800    323.04691   -22327.945    123.25651   -22451.201    10878.874 
  989000    291.67797   -22348.986    111.28789   -22460.274    20691.858 
  989200    345.37955   -22337.461    131.77739   -22469.239    5274.0237 
  989400    300.64407   -22347.287    114.70885   -22461.996   -23504.673 
  989600    289.44475   -22359.447    110.43582   -22469.883    17307.698 
  989800    310.96078   -22330.358    118.64512   -22449.003    3156.0997 
  990000    295.44978   -22347.533      112.727    -22460.26    15534.928 
  990200    280.11525    -22352.59     106.8762   -22459.467    8855.4273 
  990400    319.19507   -22341.938    121.78686   -22463.725    10211.778 
  990600    276.23013   -22343.429    105.39386   -22448.823   -2882.6663 
  990800    279.96386   -22351.646    106.81844   -22458.465    11907.537 
  991000     255.6892   -22368.865    97.556601   -22466.422    1276.2479 
  991200    302.28451   -22338.357    115.33475   -22453.692   -2888.6802 
  991400     335.0372   -22341.712    127.83133   -22469.544    16332.324 
  991600    283.15911   -22365.015    108.03757   -22473.053   -13077.197 
  991800    303.93376   -22345.323    115.96401   -22461.287    8738.1294 
  992000     291.8909   -22346.355    111.36913   -22457.724    11253.395 
  992200    287.10128   -22346.452    109.54168   -22455.994    1680.9346 
  992400    310.32445    -22334.01    118.40233   -22452.412    -7944.478 
  992600    297.66503   -22360.097    113.57221   -22473.669    12580.376 
  992800     301.7995   -22345.563     115.1497   -22460.713    12922.338 
  993000     303.8425   -22338.322    115.92919   -22454.252   -12795.532 
  993200    264.70577   -22354.354    100.99682    -22455.35    48803.562 
  993400    300.22127    -22355.42    114.54753   -22469.967     15953.27 
  993600    298.05375   -22330.535    113.72053   -22444.256    8760.8726 
  993800    286.48771   -22356.648    109.30758   -22465.956   -24696.039 
  994000    283.08206   -22353.163    108.00817   -22461.171    16102.988 
  994200    335.52271   -22336.555    128.01657   -22464.572    1932.5384 
  994400    269.07294   -22348.593    102.66308   -22451.256   -4173.2241 
  994600    265.12784   -22370.735    101.15785   -22471.893    -12401.94 
  994800    290.42435   -22351.124    110.80958   -22461.933    16757.894 
  995000    306.71253    -22342.16    117.02423   -22459.184    4849.8969 
  995200     262.2137     -22360.1    100.04598   -22460.146   -37909.477 
  995400    273.67511   -22351.447    104.41901   -22455.866   -17131.555 
  995600    335.43105   -22340.319     127.9816     -22468.3    8761.5911 
  995800     307.6431   -22365.014    117.37928   -22482.393   -23236.057 
  996000    300.72042   -22339.625    114.73798   -22454.363   -14580.354 
  996200    300.45417   -22348.948    114.63639   -22463.584    14965.911 
  996400    284.95492   -22357.815    108.72275   -22466.538   -24565.855 
  996600    369.22693   -22335.271     140.8762   -22476.148   -15508.856 
  996800    296.40006   -22346.128    113.08957   -22459.217    314.68357 
  997000    277.97249   -22360.513    106.05865   -22466.572   -22974.253 
  997200     244.6745     -22371.1     93.35401   -22464.454    7570.6721 
  997400    292.19802   -22350.177    111.48631   -22461.663    -613.0551 
  997600    348.16263   -22330.762    132.83925   -22463.601   -9609.5158 
  997800    274.67166   -22359.296    104.79924   -22464.095    22477.552 
  998000    312.81774    -22347.93    119.35363   -22467.283     12696.98 
  998200    331.30212   -22322.527    126.40623   -22448.933   -7185.1142 
  998400    348.30667   -22316.877    132.89421   -22449.772    3097.3231 
  998600    321.70405   -22348.377    122.74415   -22471.121   -845.33223 
  998800    289.56561   -22356.434    110.48193   -22466.916    4138.3096 
  999000    310.26536   -22327.051    118.37979   -22445.431   -8788.5997 
  999200    303.34364   -22347.191    115.73885   -22462.929    -3826.842 
  999400    265.04194    -22346.07    101.12508   -22447.195    7032.7878 
  999600    311.99698   -22350.083    119.04048   -22469.123   -5137.8758 
  999800    279.22164   -22364.825    106.53525    -22471.36    -2472.977 
 1000000    296.84954   -22342.774    113.26107   -22456.035   -27749.443 
Loop time of 13778.3 on 8 procs for 1000000 steps with 129 atoms

Performance: 1.568 ns/day, 15.309 hours/ns, 72.578 timesteps/s
99.7% CPU use with 8 MPI tasks x no OpenMP threads

MPI task timing breakdown:
Section |  min time  |  avg time  |  max time  |%varavg| %total
---------------------------------------------------------------
Pair    | 9672.5     | 10977      | 11701      | 678.8 | 79.67
Neigh   | 1.707      | 1.8311     | 1.9455     |   7.4 |  0.01
Comm    | 184.35     | 908.38     | 2213       |2363.1 |  6.59
Output  | 0.3673     | 0.39557    | 0.562      |  10.0 |  0.00
Modify  | 1868       | 1871.8     | 1875       |   4.9 | 13.58
Other   |            | 18.97      |            |       |  0.14

Nlocal:    16.125 ave 41 max 2 min
Histogram: 1 3 2 0 0 0 0 0 0 2
Nghost:    503 ave 542 max 458 min
Histogram: 2 0 1 0 1 0 0 1 0 3
Neighs:    1096.75 ave 2611 max 163 min
Histogram: 1 3 1 1 0 0 0 0 0 2

Total # of neighbors = 8774
Ave neighs/atom = 68.0155
Neighbor list builds = 911
Dangerous builds = 0

unfix 1
unfix output
undump 1

Please see the log.cite file for references relevant to this simulation

Total wall time: 3:50:25
