ITEM: TIMESTEP
0
ITEM: NUMBER OF ATOMS
129
ITEM: BOX BOUNDS xy xz yz pp pp pp
0.0000000000000000e+00 2.3654499999999999e+01 7.8845000000000001e+00
0.0000000000000000e+00 1.3658086643083999e+01 0.0000000000000000e+00
0.0000000000000000e+00 2.5747000000000000e+01 0.0000000000000000e+00
ITEM: ATOMS id type x y z 
18 1 10.522 6.683 2.644 
28 1 5.247 4.273 12.803 
31 1 9.65 6.514 0.446 
62 1 9.171 5.15 12.405 
91 1 9.65 6.514 11.889 
92 1 10.81 6.18 11.007 
106 1 10.522 6.683 9.691 
127 1 10.81 6.18 1.328 
4 1 4.402 5.735 13.319 
5 1 3.307 5.568 14.201 
43 1 4.549 6.796 15.517 
52 1 9.172 5.15 25.677 
66 1 4.402 5.735 24.762 
67 1 5.003 6.76 23.881 
88 1 5.247 4.273 25.278 
107 1 3.307 5.568 23.881 
116 1 4.549 6.796 22.565 
117 1 5.003 6.76 14.201 
11 1 11.272 7.494 3.321 
12 1 10.477 8.871 4.018 
14 1 9.018 11.397 0.446 
15 1 10.114 11.565 1.328 
16 1 8.412 9.024 0.654 
19 1 10.477 8.871 5.569 
29 1 10.927 10.156 3.321 
32 1 8.77 7.648 1.328 
35 1 12.036 9.594 2.644 
45 1 9.231 8.963 3.321 
47 1 12.762 8.702 0.446 
49 1 11.224 11 0.654 
51 1 8.872 10.337 2.644 
53 1 11.272 7.494 9.014 
54 1 10.477 8.871 8.317 
56 1 9.018 11.397 11.889 
57 1 8.418 10.372 11.007 
58 1 11.224 11 11.681 
60 1 12.255 7.901 9.691 
61 1 10.477 8.871 6.766 
73 1 9.231 8.963 9.014 
75 1 12.762 8.702 11.889 
76 1 12.202 10.061 11.007 
79 1 9.224 7.617 9.691 
80 1 8.174 12.859 12.405 
89 1 10.927 10.156 9.014 
93 1 8.412 9.024 11.681 
95 1 9.951 11.095 9.691 
105 1 10.114 11.565 11.007 
109 1 8.77 7.648 11.007 
110 1 12.036 9.594 9.691 
114 1 8.872 10.337 9.691 
119 1 8.418 10.372 1.328 
120 1 12.255 7.901 2.644 
123 1 12.202 10.061 1.328 
124 1 9.224 7.617 2.644 
128 1 9.951 11.095 2.644 
6 1 5.009 8.108 13.527 
13 1 9.663 10.28 25.128 
17 1 9.204 8.965 25.162 
30 1 10.016 7.556 25.128 
34 1 11.289 7.464 25.162 
36 1 8.174 12.859 25.677 
46 1 11.752 8.777 25.128 
50 1 10.937 10.184 25.162 
55 1 9.663 10.28 12.954 
59 1 10.937 10.184 12.919 
74 1 11.752 8.777 12.954 
78 1 11.289 7.464 12.919 
90 1 10.016 7.556 12.954 
94 1 9.204 8.965 12.919 
101 1 5.009 8.108 24.555 
33 1 11.795 6.589 0.654 
77 1 11.795 6.589 11.681 
41 1 17.967 6.132 13.527 
68 1 17.967 6.132 24.554 
103 1 19.24 6.037 22.565 
126 1 19.24 6.037 15.517 
3 1 19.528 6.852 12.254 
7 1 19.987 8.167 12.289 
10 1 15.106 8.528 12.804 
22 1 19.175 9.576 12.254 
26 1 17.902 9.668 12.289 
38 1 17.439 8.356 12.254 
42 1 18.254 6.949 12.289 
44 1 20.019 11.982 12.804 
48 1 12.546 7.4 1.328 
65 1 19.528 6.852 0.081 
69 1 18.254 6.949 0.046 
82 1 17.439 8.356 0.081 
86 1 17.902 9.668 0.046 
96 1 14.084 8.604 12.405 
98 1 19.175 9.576 0.081 
102 1 19.987 8.167 0.046 
113 1 12.546 7.4 11.007 
129 2 17.439 8.356 10.9 
1 1 17.919 9.638 16.194 
2 1 18.714 8.261 16.892 
8 1 18.669 10.449 15.517 
9 1 18.714 8.261 18.442 
20 1 14.084 8.604 25.677 
21 1 18.264 6.977 16.194 
23 1 19.541 10.618 13.32 
24 1 20.421 9.484 14.201 
25 1 17.396 10.544 13.527 
27 1 17.155 7.538 15.517 
37 1 19.96 8.169 16.194 
39 1 16.429 8.43 13.319 
40 1 16.644 9.732 14.201 
63 1 17.919 9.638 21.888 
64 1 18.714 8.261 21.19 
70 1 16.936 9.231 22.565 
71 1 18.714 8.261 19.64 
72 1 20.019 11.982 25.278 
81 1 19.96 8.169 21.888 
83 1 16.429 8.43 24.762 
84 1 16.989 7.071 23.881 
85 1 17.396 10.544 24.555 
87 1 19.967 9.515 22.565 
97 1 18.263 6.977 21.888 
99 1 19.541 10.618 24.762 
100 1 18.38 10.953 23.881 
104 1 15.106 8.528 25.278 
108 1 18.669 10.449 22.565 
111 1 20.421 9.484 23.881 
112 1 17.155 7.538 22.565 
115 1 16.644 9.732 23.881 
118 1 16.936 9.231 15.517 
121 1 16.989 7.071 14.201 
122 1 19.967 9.515 15.517 
125 1 18.38 10.953 14.201 
ITEM: TIMESTEP
10
ITEM: NUMBER OF ATOMS
129
ITEM: BOX BOUNDS xy xz yz pp pp pp
0.0000000000000000e+00 2.3654499999999999e+01 7.8845000000000001e+00
0.0000000000000000e+00 1.3658086643083999e+01 0.0000000000000000e+00
0.0000000000000000e+00 2.5747000000000000e+01 0.0000000000000000e+00
ITEM: ATOMS id type x y z 
18 1 10.4066 6.72216 2.65619 
28 1 5.10713 4.55417 12.8821 
31 1 9.42182 6.54724 0.447993 
62 1 9.1698 5.24048 12.3553 
91 1 9.4235 6.5443 11.8927 
92 1 10.6219 6.1789 10.9558 
106 1 10.3938 6.71565 9.69309 
127 1 10.6357 6.17659 1.36595 
4 1 4.46705 5.69697 13.1026 
5 1 3.25445 5.69564 14.2129 
43 1 4.54442 6.93182 15.5935 
52 1 9.16749 5.22538 25.7211 
66 1 4.43445 5.81938 24.8024 
67 1 5.09405 6.93378 23.9098 
88 1 5.07933 4.61378 25.178 
107 1 3.17077 5.63349 23.8664 
116 1 4.56322 6.94863 22.6246 
117 1 5.01407 6.84676 14.139 
11 1 11.2368 7.59617 3.42336 
12 1 10.5415 8.78639 4.07719 
14 1 8.98269 11.3291 0.397563 
15 1 10.2591 11.501 1.33562 
16 1 8.3856 8.94225 0.677214 
19 1 10.4726 8.86908 5.56427 
29 1 10.9545 10.1202 3.32991 
32 1 8.6609 7.6597 1.2989 
35 1 12.0449 9.58982 2.61514 
45 1 9.2078 8.9436 3.26214 
47 1 12.717 8.85428 0.54048 
49 1 11.3782 10.9366 0.653173 
51 1 8.84839 10.1596 2.58539 
53 1 11.2355 7.5916 8.90669 
54 1 10.5338 8.79011 8.2534 
56 1 8.99304 11.3212 11.9319 
57 1 8.31355 10.1942 11.0263 
58 1 11.3546 10.9117 11.6744 
60 1 12.31 8.09846 9.63189 
61 1 10.4726 8.8681 6.77218 
73 1 9.20903 8.94352 9.0715 
75 1 12.6917 8.85635 11.793 
76 1 12.2776 10.079 11.0123 
79 1 9.18818 7.70577 9.75352 
80 1 8.33418 12.5309 12.3096 
89 1 10.9537 10.1261 9.00869 
93 1 8.37847 8.93248 11.6591 
95 1 10.0624 11.0321 9.69638 
105 1 10.2713 11.4941 11.0078 
109 1 8.67613 7.6543 11.0399 
110 1 12.0436 9.58734 9.72163 
114 1 8.84995 10.1655 9.74742 
119 1 8.31314 10.1802 1.31218 
120 1 12.3052 8.0856 2.67869 
123 1 12.2888 10.054 1.31774 
124 1 9.18291 7.71074 2.58758 
128 1 10.0559 11.038 2.64884 
6 1 5.00077 8.24319 13.5252 
13 1 9.61517 10.2465 25.0761 
17 1 9.12914 8.94552 25.1442 
30 1 9.9107 7.72468 25.059 
34 1 11.2941 7.50162 25.1883 
36 1 8.32789 12.5423 25.7693 
46 1 11.6759 8.8678 25.0645 
50 1 10.9955 10.1176 25.1799 
55 1 9.61196 10.2529 12.9938 
59 1 11.0017 10.1358 12.9131 
74 1 11.6732 8.86526 13.0167 
78 1 11.2713 7.50429 12.9001 
90 1 9.9153 7.74075 13.0127 
94 1 9.14191 8.93201 12.9301 
101 1 5.03779 8.17927 24.5546 
33 1 11.7991 6.70567 0.630176 
77 1 11.7931 6.67637 11.7196 
41 1 17.8512 6.19312 13.5569 
68 1 17.8281 6.21088 24.5672 
103 1 19.1376 6.09732 22.5826 
126 1 19.1906 6.12208 15.586 
3 1 19.5775 6.88398 12.2189 
7 1 20.0885 8.19219 12.2609 
10 1 15.0974 8.43788 12.8487 
22 1 19.2256 9.50978 12.2051 
26 1 18.0806 9.7233 12.3258 
38 1 17.4647 8.19659 12.0559 
42 1 18.2599 6.82193 12.3561 
44 1 20.1027 11.9461 12.7998 
48 1 12.6217 7.55153 1.36273 
65 1 19.5866 6.886 0.123289 
69 1 18.2081 7.00059 0.0143007 
82 1 17.5096 8.26442 0.14861 
86 1 17.9318 9.64664 0.0157564 
96 1 14.0397 8.69573 12.339 
98 1 19.2919 9.39314 0.125746 
102 1 20.0352 8.19204 0.0282292 
113 1 12.6266 7.54737 10.9543 
129 2 17.2975 8.34268 10.695 
1 1 17.9396 9.5922 16.2892 
2 1 18.6763 8.31046 17.0028 
8 1 18.7902 10.3648 15.5136 
9 1 18.7203 8.2654 18.4374 
20 1 14.1298 8.65528 25.7089 
21 1 18.2317 7.01339 16.2471 
23 1 19.8721 10.7195 13.3101 
24 1 20.5384 9.4442 14.1781 
25 1 17.4837 10.4921 13.5556 
27 1 17.1384 7.50062 15.4993 
37 1 19.9476 8.20611 16.1827 
39 1 16.4082 8.33729 13.5053 
40 1 16.6517 9.57129 14.261 
63 1 17.8552 9.55151 21.8355 
64 1 18.6918 8.27974 21.0881 
70 1 16.92 9.09529 22.474 
71 1 18.717 8.26093 19.6547 
72 1 20.0327 11.846 25.2293 
81 1 19.9705 8.21164 21.9366 
83 1 16.4589 8.28937 24.6526 
84 1 16.9075 7.07213 23.8946 
85 1 17.3926 10.4309 24.6082 
87 1 20.0066 9.44867 22.6479 
97 1 18.2537 6.98415 21.8699 
99 1 19.7878 10.647 24.7881 
100 1 18.5435 10.9619 23.8221 
104 1 15.0556 8.4703 25.2539 
108 1 18.7871 10.3988 22.5772 
111 1 20.4932 9.47736 23.9346 
112 1 17.1464 7.51405 22.5993 
115 1 16.5912 9.58491 23.8408 
118 1 16.8288 9.06903 15.5817 
121 1 16.8998 7.03674 14.2027 
122 1 19.9951 9.4698 15.435 
125 1 18.3478 10.9444 14.2891 
ITEM: TIMESTEP
20
ITEM: NUMBER OF ATOMS
129
ITEM: BOX BOUNDS xy xz yz pp pp pp
0.0000000000000000e+00 2.3654499999999999e+01 7.8845000000000001e+00
0.0000000000000000e+00 1.3658086643083999e+01 0.0000000000000000e+00
0.0000000000000000e+00 2.5747000000000000e+01 0.0000000000000000e+00
ITEM: ATOMS id type x y z 
18 1 10.346 6.78723 2.64353 
28 1 5.10661 4.57899 12.8756 
31 1 9.37751 6.64619 0.414926 
62 1 9.21882 5.26423 12.2779 
91 1 9.38524 6.64185 11.9173 
92 1 10.5739 6.20152 11.0051 
106 1 10.3479 6.78613 9.69404 
127 1 10.5813 6.20629 1.32642 
4 1 4.44973 5.79578 13.1401 
5 1 3.26659 5.74152 14.2277 
43 1 4.57747 6.97047 15.5387 
52 1 9.2202 5.26886 25.8085 
66 1 4.4023 5.8895 24.7981 
67 1 5.10475 6.9921 23.9043 
88 1 5.05854 4.67934 25.1654 
107 1 3.12545 5.68776 23.8959 
116 1 4.57502 6.96134 22.6195 
117 1 4.95623 6.92622 14.1662 
11 1 11.2427 7.54872 3.39607 
12 1 10.5311 8.78844 4.07113 
14 1 9.01289 11.2413 0.408161 
15 1 10.2966 11.4448 1.32413 
16 1 8.32069 8.88552 0.656769 
19 1 10.4755 8.8619 5.56277 
29 1 10.9502 10.0941 3.33359 
32 1 8.59874 7.65363 1.30114 
35 1 12.0872 9.61209 2.6126 
45 1 9.20932 8.93585 3.27357 
47 1 12.7135 8.87341 0.499745 
49 1 11.4094 10.9257 0.646379 
51 1 8.85019 10.1641 2.583 
53 1 11.2389 7.54441 8.93781 
54 1 10.5191 8.78516 8.26417 
56 1 9.02035 11.236 11.9228 
57 1 8.32619 10.1416 11.0343 
58 1 11.3961 10.9241 11.6972 
60 1 12.3092 8.08951 9.64927 
61 1 10.4717 8.86092 6.77203 
73 1 9.21813 8.9388 9.06658 
75 1 12.6936 8.871 11.8212 
76 1 12.3331 10.1276 10.9744 
79 1 9.15911 7.67081 9.7646 
80 1 8.3572 12.4612 12.2969 
89 1 10.9517 10.0969 8.99489 
93 1 8.303 8.88165 11.6744 
95 1 10.0549 11.0093 9.70014 
105 1 10.2872 11.4425 11.014 
109 1 8.60187 7.65682 11.0251 
110 1 12.089 9.61369 9.70731 
114 1 8.85102 10.1649 9.75174 
119 1 8.327 10.1409 1.29767 
120 1 12.3099 8.09927 2.68042 
123 1 12.3369 10.1047 1.34243 
124 1 9.15582 7.66539 2.57367 
128 1 10.0546 11.0105 2.63407 
6 1 5.02425 8.24658 13.5319 
13 1 9.62054 10.218 25.0619 
17 1 9.11146 8.92307 25.1402 
30 1 9.91317 7.74424 25.0492 
34 1 11.2643 7.5347 25.2078 
36 1 8.35538 12.4605 25.7851 
46 1 11.6659 8.86486 25.0729 
50 1 10.9968 10.1481 25.1756 
55 1 9.62577 10.2219 13.0208 
59 1 10.9971 10.1494 12.9284 
74 1 11.6621 8.8664 13.0201 
78 1 11.2548 7.54581 12.8649 
90 1 9.90933 7.73689 13.0311 
94 1 9.11413 8.92829 12.9407 
101 1 5.12902 8.24704 24.5412 
33 1 11.7275 6.75455 0.670072 
77 1 11.7164 6.75381 11.6655 
41 1 17.8352 6.21457 13.5652 
68 1 17.783 6.20304 24.5575 
103 1 19.15 6.10463 22.5852 
126 1 19.1658 6.15146 15.5917 
3 1 19.5773 6.90542 12.1739 
7 1 20.0963 8.232 12.2598 
10 1 15.1085 8.42738 12.859 
22 1 19.366 9.49906 12.2155 
26 1 18.0459 9.64441 12.352 
38 1 17.492 8.19029 11.9522 
42 1 18.2308 6.8541 12.3357 
44 1 20.1761 11.8961 12.8259 
48 1 12.5768 7.59942 1.38659 
65 1 19.5681 6.89702 0.172255 
69 1 18.1951 6.9863 0.0282579 
82 1 17.5246 8.27417 0.115325 
86 1 17.9327 9.60363 0.0129116 
96 1 14.0439 8.70382 12.344 
98 1 19.2761 9.38095 0.173794 
102 1 20.071 8.20674 0.0538498 
113 1 12.5688 7.59196 10.9335 
129 2 17.2185 8.31655 10.6951 
1 1 17.933 9.58559 16.306 
2 1 18.653 8.36193 16.9737 
8 1 18.8246 10.3225 15.5493 
9 1 18.7196 8.27314 18.4402 
20 1 14.0622 8.69453 25.725 
21 1 18.2352 7.02116 16.2418 
23 1 19.8515 10.6557 13.3363 
24 1 20.5684 9.49985 14.1373 
25 1 17.5277 10.4611 13.5915 
27 1 17.0864 7.50647 15.5174 
37 1 19.968 8.20335 16.1547 
39 1 16.4166 8.27306 13.4704 
40 1 16.6391 9.49818 14.2855 
63 1 17.8554 9.5627 21.8483 
64 1 18.6801 8.3147 21.1201 
70 1 16.9247 9.07852 22.4731 
71 1 18.722 8.26173 19.6569 
72 1 19.9928 11.8606 25.1668 
81 1 19.9567 8.19598 21.9522 
83 1 16.4692 8.28187 24.69 
84 1 16.8663 7.04032 23.8601 
85 1 17.4573 10.3864 24.5436 
87 1 20.0025 9.47282 22.6517 
97 1 18.244 7.01291 21.8723 
99 1 19.8257 10.5217 24.7958 
100 1 18.6042 10.9503 23.8851 
104 1 15.1263 8.42832 25.2381 
108 1 18.8312 10.332 22.5921 
111 1 20.5762 9.47534 23.9187 
112 1 17.1221 7.49806 22.5926 
115 1 16.6361 9.53861 23.8324 
118 1 16.8688 9.00974 15.5819 
121 1 16.8705 7.03957 14.2155 
122 1 20.0332 9.45349 15.4133 
125 1 18.4353 10.9263 14.2659 
ITEM: TIMESTEP
30
ITEM: NUMBER OF ATOMS
129
ITEM: BOX BOUNDS xy xz yz pp pp pp
0.0000000000000000e+00 2.3654499999999999e+01 7.8845000000000001e+00
0.0000000000000000e+00 1.3658086643083999e+01 0.0000000000000000e+00
0.0000000000000000e+00 2.5747000000000000e+01 0.0000000000000000e+00
ITEM: ATOMS id type x y z 
18 1 10.3384 6.78044 2.6391 
28 1 5.10259 4.5927 12.8746 
31 1 9.37344 6.65336 0.408803 
62 1 9.21956 5.26245 12.2702 
91 1 9.37557 6.64975 11.9238 
92 1 10.5738 6.21945 10.9992 
106 1 10.3377 6.77769 9.69386 
127 1 10.5787 6.2261 1.33441 
4 1 4.44044 5.81775 13.1598 
5 1 3.25859 5.73901 14.2157 
43 1 4.57804 6.97572 15.5299 
52 1 9.22141 5.26558 25.8164 
66 1 4.39424 5.90971 24.8021 
67 1 5.09516 6.99642 23.9019 
88 1 5.06377 4.67591 25.1681 
107 1 3.1311 5.69747 23.8945 
116 1 4.5699 6.97199 22.6217 
117 1 4.97256 6.94141 14.1631 
11 1 11.2327 7.56361 3.39371 
12 1 10.5264 8.78093 4.06259 
14 1 9.02668 11.228 0.410207 
15 1 10.2914 11.431 1.32029 
16 1 8.30314 8.88311 0.657391 
19 1 10.476 8.85923 5.56487 
29 1 10.9537 10.0933 3.33049 
32 1 8.59433 7.65076 1.30316 
35 1 12.0964 9.61481 2.61879 
45 1 9.20841 8.93294 3.26879 
47 1 12.705 8.88086 0.508134 
49 1 11.4099 10.931 0.647161 
51 1 8.85211 10.1531 2.58681 
53 1 11.231 7.55973 8.93916 
54 1 10.5224 8.78027 8.27141 
56 1 9.02832 11.2242 11.9242 
57 1 8.32929 10.1343 11.0331 
58 1 11.4058 10.926 11.6908 
60 1 12.311 8.0982 9.64452 
61 1 10.4724 8.85841 6.76925 
73 1 9.20944 8.93563 9.06766 
75 1 12.6954 8.88398 11.8138 
76 1 12.3316 10.1145 10.9838 
79 1 9.14882 7.67028 9.76424 
80 1 8.35262 12.4636 12.2995 
89 1 10.9543 10.0953 8.99938 
93 1 8.2911 8.88172 11.6768 
95 1 10.0603 11.0068 9.69624 
105 1 10.286 11.4298 11.0154 
109 1 8.59549 7.65289 11.0316 
110 1 12.0986 9.61761 9.70863 
114 1 8.85308 10.1574 9.74882 
119 1 8.33147 10.137 1.301 
120 1 12.3124 8.10111 2.68409 
123 1 12.3453 10.0991 1.33472 
124 1 9.14518 7.66978 2.57234 
128 1 10.058 11.0078 2.63518 
6 1 5.02695 8.2488 13.5309 
13 1 9.62496 10.2199 25.0673 
17 1 9.10603 8.92217 25.1334 
30 1 9.91423 7.73559 25.0509 
34 1 11.2561 7.53818 25.2107 
36 1 8.35167 12.461 25.7831 
46 1 11.6714 8.86511 25.0785 
50 1 10.9977 10.1505 25.1716 
55 1 9.62601 10.2188 13.017 
59 1 11.0025 10.1512 12.9288 
74 1 11.662 8.86744 13.0127 
78 1 11.2527 7.54669 12.8649 
90 1 9.90717 7.73661 13.0296 
94 1 9.1061 8.92537 12.9427 
101 1 5.13587 8.24728 24.5487 
33 1 11.7184 6.75397 0.663676 
77 1 11.7142 6.75297 11.6673 
41 1 17.8375 6.22165 13.5569 
68 1 17.7807 6.20262 24.5652 
103 1 19.1482 6.11075 22.5806 
126 1 19.1653 6.14095 15.5914 
3 1 19.5767 6.90954 12.1734 
7 1 20.091 8.23866 12.2558 
10 1 15.1114 8.4296 12.8548 
22 1 19.3426 9.49085 12.2295 
26 1 18.0701 9.61409 12.3649 
38 1 17.4934 8.21257 11.9575 
42 1 18.2259 6.86689 12.3343 
44 1 20.1937 11.9018 12.8239 
48 1 12.5692 7.61516 1.38224 
65 1 19.5646 6.9104 0.155108 
69 1 18.1952 6.98579 0.0301949 
82 1 17.5184 8.27029 0.110234 
86 1 17.9428 9.60016 0.00713751 
96 1 14.0387 8.70103 12.3472 
98 1 19.2816 9.38834 0.163681 
102 1 20.0723 8.20156 0.0584551 
113 1 12.5597 7.60583 10.9421 
129 2 17.2076 8.30851 10.6915 
1 1 17.9351 9.5747 16.3048 
2 1 18.6572 8.36222 16.9686 
8 1 18.8325 10.3278 15.5457 
9 1 18.7183 8.27605 18.4482 
20 1 14.0542 8.69669 25.7234 
21 1 18.23 7.03762 16.2421 
23 1 19.852 10.6483 13.3291 
24 1 20.5771 9.48919 14.1492 
25 1 17.5376 10.4391 13.5774 
27 1 17.0831 7.49585 15.5248 
37 1 19.9697 8.21003 16.1545 
39 1 16.4229 8.26715 13.4654 
40 1 16.6434 9.49067 14.2813 
63 1 17.8561 9.55682 21.8517 
64 1 18.6901 8.30356 21.1304 
70 1 16.9238 9.07668 22.4739 
71 1 18.7231 8.26346 19.6618 
72 1 19.9882 11.8659 25.1562 
81 1 19.9636 8.20064 21.9461 
83 1 16.4801 8.27679 24.6834 
84 1 16.8568 7.04561 23.8634 
85 1 17.4725 10.3848 24.5561 
87 1 20.0167 9.47198 22.654 
97 1 18.2348 7.0133 21.8699 
99 1 19.8269 10.5009 24.806 
100 1 18.6099 10.9292 23.8808 
104 1 15.1351 8.42497 25.2389 
108 1 18.8345 10.3441 22.5977 
111 1 20.5865 9.48032 23.9233 
112 1 17.1117 7.49419 22.5892 
115 1 16.6417 9.52326 23.8299 
118 1 16.8728 9.01049 15.5841 
121 1 16.8712 7.04223 14.2131 
122 1 20.0361 9.45704 15.4147 
125 1 18.437 10.9067 14.266 
ITEM: TIMESTEP
40
ITEM: NUMBER OF ATOMS
129
ITEM: BOX BOUNDS xy xz yz pp pp pp
0.0000000000000000e+00 2.3654499999999999e+01 7.8845000000000001e+00
0.0000000000000000e+00 1.3658086643083999e+01 0.0000000000000000e+00
0.0000000000000000e+00 2.5747000000000000e+01 0.0000000000000000e+00
ITEM: ATOMS id type x y z 
18 1 10.3208 6.78457 2.64728 
28 1 5.10502 4.60047 12.8694 
31 1 9.36164 6.66069 0.398192 
62 1 9.22347 5.2637 12.2527 
91 1 9.36031 6.65833 11.9362 
92 1 10.5654 6.23816 10.9988 
106 1 10.319 6.78157 9.68607 
127 1 10.567 6.24357 1.33315 
4 1 4.43664 5.84244 13.179 
5 1 3.26604 5.75263 14.2185 
43 1 4.56756 6.98585 15.5219 
52 1 9.22545 5.26479 25.8335 
66 1 4.39092 5.92556 24.8041 
67 1 5.09017 7.00422 23.9059 
88 1 5.06982 4.67699 25.1718 
107 1 3.1327 5.71108 23.8945 
116 1 4.56583 6.97774 22.6192 
117 1 4.98335 6.94802 14.173 
11 1 11.2256 7.56628 3.38795 
12 1 10.5204 8.77505 4.06229 
14 1 9.03555 11.2139 0.409848 
15 1 10.2878 11.4171 1.31707 
16 1 8.28289 8.87811 0.649796 
19 1 10.4763 8.85422 5.56593 
29 1 10.9538 10.0884 3.32402 
32 1 8.57834 7.64956 1.29857 
35 1 12.115 9.61761 2.62657 
45 1 9.20679 8.93085 3.26803 
47 1 12.6948 8.89321 0.510858 
49 1 11.4182 10.9291 0.640362 
51 1 8.85379 10.1506 2.58909 
53 1 11.2218 7.56457 8.94308 
54 1 10.5192 8.77391 8.27186 
56 1 9.03202 11.2108 11.9281 
57 1 8.33131 10.126 11.0342 
58 1 11.411 10.9265 11.6959 
60 1 12.311 8.11613 9.64082 
61 1 10.474 8.85368 6.76908 
73 1 9.20697 8.9321 9.06751 
75 1 12.7001 8.89582 11.8179 
76 1 12.3484 10.1045 10.995 
79 1 9.13194 7.66421 9.76754 
80 1 8.34982 12.457 12.3014 
89 1 10.9545 10.0884 9.0047 
93 1 8.27504 8.87773 11.6852 
95 1 10.0602 11.0018 9.69227 
105 1 10.2879 11.4164 11.0178 
109 1 8.57935 7.64882 11.0375 
110 1 12.1139 9.61777 9.70088 
114 1 8.8543 10.1529 9.7461 
119 1 8.33249 10.1247 1.30164 
120 1 12.3119 8.11441 2.68821 
123 1 12.3594 10.1039 1.33397 
124 1 9.12947 7.66274 2.56903 
128 1 10.0603 11.0019 2.64184 
6 1 5.03911 8.26128 13.5239 
13 1 9.62645 10.2128 25.0698 
17 1 9.09277 8.92026 25.1322 
30 1 9.90919 7.74057 25.0483 
34 1 11.2537 7.53261 25.2093 
36 1 8.34697 12.4584 25.7801 
46 1 11.6668 8.86508 25.0836 
50 1 11.0061 10.1599 25.1687 
55 1 9.62672 10.2137 13.0113 
59 1 11.0093 10.1623 12.9252 
74 1 11.6643 8.86632 12.9982 
78 1 11.2498 7.54059 12.8662 
90 1 9.90527 7.74075 13.0302 
94 1 9.0896 8.92174 12.9435 
101 1 5.15152 8.25309 24.5615 
33 1 11.7142 6.75858 0.6606 
77 1 11.7089 6.75776 11.6715 
41 1 17.8312 6.22991 13.5451 
68 1 17.776 6.2044 24.574 
103 1 19.1473 6.11567 22.5772 
126 1 19.156 6.12858 15.5981 
3 1 19.5749 6.92908 12.1568 
7 1 20.1113 8.21875 12.2532 
10 1 15.1105 8.43236 12.8463 
22 1 19.3429 9.49894 12.2211 
26 1 18.0869 9.61098 12.3406 
38 1 17.4589 8.18488 11.9412 
42 1 18.2185 6.8745 12.3236 
44 1 20.2219 11.8894 12.8293 
48 1 12.5581 7.62686 1.37946 
65 1 19.5631 6.91357 0.148312 
69 1 18.1834 6.98092 0.0281354 
82 1 17.5242 8.27081 0.112004 
86 1 17.9436 9.60216 0.00965391 
96 1 14.0289 8.701 12.3519 
98 1 19.2884 9.39033 0.164297 
102 1 20.0902 8.20393 0.0607008 
113 1 12.5509 7.62588 10.95 
129 2 17.1865 8.296 10.6763 
1 1 17.9425 9.57198 16.3008 
2 1 18.6657 8.36382 16.9708 
8 1 18.8423 10.3292 15.5575 
9 1 18.7166 8.28156 18.4539 
20 1 14.0533 8.69759 25.7155 
21 1 18.2378 7.04485 16.235 
23 1 19.8742 10.6591 13.341 
24 1 20.5894 9.49276 14.1569 
25 1 17.5335 10.4283 13.599 
27 1 17.0707 7.49099 15.5315 
37 1 19.9802 8.21206 16.1533 
39 1 16.4203 8.25432 13.4585 
40 1 16.6455 9.48382 14.2823 
63 1 17.8659 9.55395 21.8615 
64 1 18.6922 8.30404 21.1391 
70 1 16.9241 9.06593 22.4675 
71 1 18.725 8.26581 19.6652 
72 1 19.9787 11.872 25.1353 
81 1 19.9662 8.20429 21.9428 
83 1 16.4898 8.26788 24.6754 
84 1 16.8411 7.04081 23.8599 
85 1 17.4793 10.3834 24.5609 
87 1 20.0314 9.48065 22.6601 
97 1 18.2322 7.01892 21.8693 
99 1 19.8378 10.4804 24.8203 
100 1 18.6261 10.9064 23.884 
104 1 15.1364 8.4228 25.245 
108 1 18.8497 10.3399 22.5892 
111 1 20.6075 9.48568 23.9221 
112 1 17.0941 7.49148 22.5858 
115 1 16.6514 9.51207 23.8343 
118 1 16.8745 8.99999 15.5871 
121 1 16.8698 7.03737 14.22 
122 1 20.0466 9.46608 15.418 
125 1 18.4501 10.892 14.2627 
ITEM: TIMESTEP
41
ITEM: NUMBER OF ATOMS
129
ITEM: BOX BOUNDS xy xz yz pp pp pp
0.0000000000000000e+00 2.3654499999999999e+01 7.8845000000000001e+00
0.0000000000000000e+00 1.3658086643083999e+01 0.0000000000000000e+00
0.0000000000000000e+00 2.5747000000000000e+01 0.0000000000000000e+00
ITEM: ATOMS id type x y z 
18 1 10.3208 6.78457 2.64728 
28 1 5.10502 4.60048 12.8694 
31 1 9.36164 6.66069 0.398191 
62 1 9.22347 5.2637 12.2527 
91 1 9.36031 6.65833 11.9362 
92 1 10.5654 6.23816 10.9988 
106 1 10.319 6.78157 9.68608 
127 1 10.567 6.24357 1.33315 
4 1 4.43664 5.84245 13.179 
5 1 3.26604 5.75263 14.2185 
43 1 4.56756 6.98585 15.5219 
52 1 9.22545 5.26478 25.8335 
66 1 4.39092 5.92557 24.8041 
67 1 5.09017 7.00422 23.9059 
88 1 5.06982 4.67699 25.1718 
107 1 3.1327 5.71109 23.8945 
116 1 4.56583 6.97775 22.6192 
117 1 4.98335 6.94802 14.173 
11 1 11.2256 7.56629 3.38795 
12 1 10.5204 8.77505 4.06228 
14 1 9.03555 11.2139 0.409847 
15 1 10.2878 11.4171 1.31707 
16 1 8.28289 8.87811 0.649795 
19 1 10.4763 8.85422 5.56593 
29 1 10.9538 10.0884 3.32402 
32 1 8.57834 7.64956 1.29857 
35 1 12.115 9.61761 2.62658 
45 1 9.20679 8.93085 3.26803 
47 1 12.6948 8.89321 0.510857 
49 1 11.4182 10.9291 0.640362 
51 1 8.85379 10.1506 2.58909 
53 1 11.2218 7.56457 8.94308 
54 1 10.5192 8.77391 8.27186 
56 1 9.03202 11.2108 11.9281 
57 1 8.33131 10.126 11.0342 
58 1 11.411 10.9265 11.6959 
60 1 12.311 8.11613 9.64082 
61 1 10.474 8.85368 6.76908 
73 1 9.20697 8.9321 9.06751 
75 1 12.7001 8.89582 11.8179 
76 1 12.3484 10.1045 10.995 
79 1 9.13193 7.66421 9.76754 
80 1 8.34982 12.457 12.3014 
89 1 10.9545 10.0884 9.00471 
93 1 8.27504 8.87773 11.6852 
95 1 10.0602 11.0018 9.69227 
105 1 10.2879 11.4164 11.0178 
109 1 8.57935 7.64882 11.0375 
110 1 12.1139 9.61778 9.70088 
114 1 8.8543 10.1529 9.7461 
119 1 8.33249 10.1247 1.30164 
120 1 12.3119 8.11441 2.68821 
123 1 12.3594 10.1039 1.33397 
124 1 9.12947 7.66274 2.56903 
128 1 10.0603 11.0019 2.64184 
6 1 5.03911 8.26128 13.5239 
13 1 9.62645 10.2128 25.0698 
17 1 9.09277 8.92026 25.1322 
30 1 9.90919 7.74057 25.0483 
34 1 11.2537 7.53261 25.2093 
36 1 8.34697 12.4584 25.7801 
46 1 11.6668 8.86508 25.0836 
50 1 11.0061 10.1599 25.1687 
55 1 9.62672 10.2137 13.0113 
59 1 11.0093 10.1623 12.9252 
74 1 11.6643 8.86632 12.9982 
78 1 11.2498 7.54059 12.8662 
90 1 9.90527 7.74075 13.0302 
94 1 9.08959 8.92174 12.9435 
101 1 5.15153 8.25309 24.5615 
33 1 11.7142 6.75858 0.660601 
77 1 11.7089 6.75776 11.6715 
41 1 17.8312 6.22991 13.5451 
68 1 17.776 6.2044 24.574 
103 1 19.1473 6.11567 22.5772 
126 1 19.156 6.12859 15.5981 
3 1 19.5749 6.92908 12.1568 
7 1 20.1113 8.21875 12.2532 
10 1 15.1105 8.43236 12.8463 
22 1 19.3429 9.49893 12.2211 
26 1 18.0869 9.61098 12.3406 
38 1 17.4589 8.18489 11.9412 
42 1 18.2185 6.8745 12.3236 
44 1 20.2219 11.8894 12.8293 
48 1 12.5581 7.62687 1.37946 
65 1 19.5631 6.91357 0.148312 
69 1 18.1834 6.98092 0.0281369 
82 1 17.5242 8.27081 0.112004 
86 1 17.9436 9.60216 0.00965554 
96 1 14.0289 8.701 12.3519 
98 1 19.2884 9.39033 0.164297 
102 1 20.0902 8.20393 0.0607022 
113 1 12.5509 7.62588 10.95 
129 2 17.1865 8.296 10.6763 
1 1 17.9425 9.57198 16.3008 
2 1 18.6657 8.36382 16.9708 
8 1 18.8423 10.3292 15.5574 
9 1 18.7166 8.28157 18.4539 
20 1 14.0533 8.69759 25.7155 
21 1 18.2378 7.04484 16.235 
23 1 19.8742 10.6591 13.341 
24 1 20.5894 9.49276 14.1569 
25 1 17.5335 10.4283 13.599 
27 1 17.0707 7.49099 15.5315 
37 1 19.9802 8.21206 16.1533 
39 1 16.4203 8.25433 13.4585 
40 1 16.6455 9.48382 14.2823 
63 1 17.8659 9.55395 21.8615 
64 1 18.6922 8.30404 21.1391 
70 1 16.9241 9.06593 22.4675 
71 1 18.725 8.26581 19.6652 
72 1 19.9787 11.872 25.1353 
81 1 19.9662 8.20429 21.9428 
83 1 16.4898 8.26787 24.6754 
84 1 16.8411 7.04081 23.8599 
85 1 17.4793 10.3834 24.5609 
87 1 20.0314 9.48065 22.6601 
97 1 18.2322 7.01892 21.8693 
99 1 19.8378 10.4804 24.8203 
100 1 18.6261 10.9064 23.884 
104 1 15.1364 8.4228 25.245 
108 1 18.8497 10.3399 22.5892 
111 1 20.6075 9.48568 23.9221 
112 1 17.0941 7.49148 22.5858 
115 1 16.6514 9.51207 23.8343 
118 1 16.8745 8.99999 15.5871 
121 1 16.8698 7.03737 14.22 
122 1 20.0466 9.46608 15.418 
125 1 18.4501 10.892 14.2627 
ITEM: TIMESTEP
50
ITEM: NUMBER OF ATOMS
129
ITEM: BOX BOUNDS xy xz yz pp pp pp
0.0000000000000000e+00 2.3654499999999999e+01 7.8845000000000001e+00
0.0000000000000000e+00 1.3658086643083999e+01 0.0000000000000000e+00
0.0000000000000000e+00 2.5747000000000000e+01 0.0000000000000000e+00
ITEM: ATOMS id type x y z 
18 1 10.3183 6.78529 2.64671 
28 1 5.10256 4.60902 12.8696 
31 1 9.358 6.663 0.396186 
62 1 9.22324 5.26241 12.2491 
91 1 9.35702 6.66031 11.9379 
92 1 10.5632 6.24304 10.9981 
106 1 10.3168 6.78233 9.68658 
127 1 10.5654 6.24815 1.33443 
33 1 11.7116 6.76056 0.660948 
77 1 11.7076 6.76042 11.6691 
52 1 9.22483 5.26334 0.0896901 
4 1 4.43868 5.84814 13.1777 
88 1 5.07072 4.67894 25.1725 
66 1 4.39128 5.92644 24.8048 
11 1 11.225 7.56685 3.387 
12 1 10.52 8.77401 4.06222 
14 1 9.0344 11.2118 0.409552 
15 1 10.2899 11.4146 1.31691 
16 1 8.27861 8.87678 0.647993 
19 1 10.4764 8.85285 5.56528 
29 1 10.9549 10.0853 3.32328 
32 1 8.57376 7.64839 1.29697 
35 1 12.1179 9.62157 2.62759 
45 1 9.20537 8.92915 3.26728 
47 1 12.696 8.89445 0.509439 
49 1 11.42 10.9284 0.64166 
51 1 8.85344 10.15 2.5888 
53 1 11.2222 7.56439 8.94475 
54 1 10.5184 8.77311 8.27165 
56 1 9.03182 11.2094 11.9275 
57 1 8.33033 10.1235 11.0335 
58 1 11.4139 10.926 11.6946 
60 1 12.3088 8.11469 9.64123 
61 1 10.4743 8.85237 6.76852 
73 1 9.20517 8.93063 9.0687 
75 1 12.6986 8.89665 11.8189 
76 1 12.3519 10.1088 10.9931 
79 1 9.1261 7.66467 9.76791 
80 1 8.34908 12.455 12.302 
89 1 10.9542 10.0865 9.0062 
93 1 8.27091 8.87647 11.6859 
95 1 10.0614 11.0007 9.69329 
105 1 10.2888 11.4138 11.017 
109 1 8.57404 7.64808 11.0386 
110 1 12.1167 9.62242 9.70026 
114 1 8.85352 10.1517 9.74668 
119 1 8.33225 10.1233 1.3013 
120 1 12.3103 8.11471 2.68844 
123 1 12.3622 10.1065 1.33495 
124 1 9.12406 7.66311 2.5687 
128 1 10.0605 11.0008 2.6408 
36 1 8.34709 12.4549 0.0330026 
78 1 11.2486 7.53928 12.8682 
6 1 5.04089 8.26136 13.5233 
13 1 9.62648 10.2115 25.0701 
17 1 9.09052 8.92032 25.1322 
30 1 9.90744 7.7401 25.0474 
34 1 11.2515 7.53331 25.2083 
67 1 5.09116 7.00774 23.9057 
46 1 11.6674 8.86433 25.0843 
50 1 11.0062 10.1608 25.1667 
55 1 9.62715 10.2115 13.0123 
59 1 11.0089 10.1628 12.9265 
74 1 11.6628 8.86665 12.9986 
43 1 4.56307 6.98288 15.5231 
90 1 9.90388 7.74153 13.0317 
94 1 9.08735 8.92185 12.9448 
101 1 5.15553 8.25512 24.561 
117 1 4.9844 6.9499 14.1682 
116 1 4.56671 6.97853 22.6206 
41 1 17.8342 6.2344 13.5443 
68 1 17.773 6.20466 24.5701 
103 1 19.1469 6.11695 22.5775 
126 1 19.1596 6.13153 15.599 
5 1 19.0333 5.75485 14.2157 
107 1 18.9007 5.7137 23.8953 
3 1 19.5749 6.92729 12.1604 
7 1 20.1129 8.22433 12.2539 
10 1 15.1122 8.43174 12.8467 
22 1 19.3456 9.4944 12.2205 
26 1 18.0866 9.60701 12.3406 
38 1 17.4545 8.18737 11.9381 
42 1 18.2184 6.87427 12.3215 
44 1 20.2309 11.8884 12.8301 
48 1 12.5561 7.63035 1.37966 
65 1 19.5626 6.91539 0.148299 
69 1 18.1837 6.97998 0.0306035 
82 1 17.5243 8.27285 0.111402 
86 1 17.9448 9.60261 0.0112162 
96 1 14.031 8.70244 12.354 
98 1 19.2891 9.39053 0.165094 
102 1 20.0928 8.20412 0.0629445 
113 1 12.5484 7.62696 10.9482 
129 2 17.1803 8.29227 10.674 
1 1 17.9427 9.57005 16.301 
2 1 18.6687 8.36615 16.9717 
8 1 18.846 10.3289 15.558 
9 1 18.7167 8.28302 18.4533 
20 1 14.0531 8.69774 25.7145 
21 1 18.2384 7.04545 16.2352 
23 1 19.8767 10.6565 13.3434 
24 1 20.5921 9.49421 14.1551 
25 1 17.538 10.4225 13.5972 
27 1 17.0692 7.49196 15.5328 
37 1 19.9794 8.21445 16.1548 
39 1 16.4213 8.25325 13.4567 
40 1 16.6463 9.47866 14.2818 
63 1 17.8657 9.55332 21.8625 
64 1 18.691 8.30709 21.1375 
70 1 16.9251 9.06358 22.4674 
71 1 18.725 8.2667 19.6653 
72 1 19.9788 11.8724 25.1316 
81 1 19.9665 8.20441 21.9454 
83 1 16.4893 8.2651 24.6778 
84 1 16.8388 7.03771 23.8598 
85 1 17.4809 10.3814 24.5612 
87 1 20.0364 9.47955 22.659 
97 1 18.2319 7.02055 21.872 
99 1 19.8425 10.4777 24.823 
100 1 18.628 10.9012 23.8832 
104 1 15.1366 8.42247 25.2454 
108 1 18.8537 10.3398 22.5894 
111 1 20.613 9.48679 23.9251 
112 1 17.0922 7.49 22.584 
115 1 16.6533 9.51097 23.8334 
118 1 16.8762 8.99635 15.587 
121 1 16.8688 7.03548 14.2185 
122 1 20.0493 9.46802 15.4198 
125 1 18.4527 10.8889 14.2629 
ITEM: TIMESTEP
60
ITEM: NUMBER OF ATOMS
129
ITEM: BOX BOUNDS xy xz yz pp pp pp
0.0000000000000000e+00 2.3654499999999999e+01 7.8845000000000001e+00
0.0000000000000000e+00 1.3658086643083999e+01 0.0000000000000000e+00
0.0000000000000000e+00 2.5747000000000000e+01 0.0000000000000000e+00
ITEM: ATOMS id type x y z 
18 1 10.3084 6.79209 2.64931 
28 1 5.10775 4.61054 12.8644 
31 1 9.34617 6.66756 0.390194 
62 1 9.221 5.26334 12.2395 
91 1 9.34472 6.66549 11.9446 
92 1 10.5563 6.24925 10.9966 
106 1 10.3064 6.79046 9.6826 
127 1 10.5595 6.25565 1.33572 
33 1 11.7074 6.76871 0.660242 
77 1 11.705 6.77058 11.6713 
52 1 9.22245 5.2639 0.0989204 
4 1 4.44181 5.8592 13.1696 
88 1 5.07154 4.6878 25.1736 
66 1 4.39219 5.92969 24.806 
11 1 11.2236 7.56529 3.3849 
12 1 10.5178 8.77082 4.06306 
14 1 9.03218 11.2061 0.409167 
15 1 10.2951 11.4087 1.31671 
16 1 8.26732 8.87401 0.642873 
19 1 10.4765 8.84897 5.56494 
29 1 10.9551 10.0784 3.32071 
32 1 8.56242 7.64326 1.29147 
35 1 12.127 9.62774 2.62925 
45 1 9.20355 8.92766 3.26514 
47 1 12.6983 8.9009 0.506568 
49 1 11.4239 10.9252 0.642488 
51 1 8.85215 10.1485 2.58783 
53 1 11.2207 7.56254 8.9465 
54 1 10.5155 8.77069 8.27028 
56 1 9.03144 11.2049 11.9264 
57 1 8.32821 10.1187 11.0349 
58 1 11.4202 10.9228 11.6938 
60 1 12.3036 8.11974 9.64135 
61 1 10.4752 8.84855 6.76885 