ITEM: TIMESTEP
0
ITEM: NUMBER OF ATOMS
162
ITEM: BOX BOUNDS xy xz yz pp pp pp
-6.7755000000000001e+00 1.3552000000000000e+01 -6.7755000000000001e+00
0.0000000000000000e+00 1.1735510246683001e+01 0.0000000000000000e+00
0.0000000000000000e+00 2.2149999999999999e+01 0.0000000000000000e+00
ITEM: ATOMS id type x y z 
8 1 -2.486 5.297 9.849 
87 1 3.001 4.231 10.696 
90 1 2.733 5.481 9.824 
109 1 -2.486 5.297 0.765 
158 1 2.733 5.481 0.79 
11 1 4.24 4.139 20.131 
14 1 3.031 4.094 19.728 
18 1 1.299 5.827 18.554 
33 1 2.266 4.151 20.924 
43 1 4.343 3.96 21.647 
47 1 3.32 5.732 17.88 
52 1 4.24 4.139 12.633 
76 1 2.552 4.924 14.209 
85 1 4.343 3.96 11.117 
89 1 3.32 5.732 14.883 
91 1 1.036 5.037 11.84 
102 1 3.031 4.094 13.035 
105 1 1.299 5.827 14.209 
114 1 2.266 4.151 11.84 
150 1 2.552 4.924 18.554 
156 1 3.001 4.231 22.068 
159 1 1.036 5.037 20.924 
5 1 -5.049 10.63 8.653 
9 1 -3.317 8.897 7.479 
19 1 -1.707 7.414 10.572 
21 1 -2.66 8.795 10.993 
23 1 -3.31 7.532 6.805 
25 1 -4.284 10.573 9.849 
32 1 1.503 6.367 0.79 
36 1 -1.869 7.426 9.056 
38 1 -2.209 6.086 8.653 
54 1 0.3 8.576 10.696 
57 1 1.291 8.001 9.824 
60 1 -1.707 7.414 0.042 
65 1 -3.31 7.532 3.808 
78 1 -1.869 7.426 1.558 
80 1 -2.566 8.842 1.961 
84 1 -4.57 9.799 3.135 
99 1 -3.054 9.687 0.765 
100 1 -2.96 6.142 3.135 
107 1 -5.049 10.63 1.961 
110 1 -3.317 8.897 3.135 
111 1 0.642 5.929 10.696 
113 1 1.503 6.367 9.824 
119 1 -4.284 10.573 0.765 
127 1 -2.209 6.086 1.961 
131 1 -2.318 6.148 10.993 
138 1 1.291 8.001 0.79 
142 1 -2.566 8.842 8.653 
145 1 -4.57 9.799 7.479 
151 1 -5.019 10.493 10.993 
154 1 -3.054 9.687 9.849 
155 1 -2.96 6.142 7.479 
162 3 -6.258 11.561 7.706 
12 1 2.53 7.1 17.202 
17 1 0.468 9.427 20.924 
24 1 -3.52 8.357 11.865 
27 1 -0.31 7.31 21.647 
29 1 0.642 5.929 22.068 
31 1 1.292 7.192 17.88 
44 1 -0.148 7.298 20.131 
46 1 0.191 8.638 19.728 
51 1 -0.31 7.31 11.117 
53 1 2.53 7.1 15.561 
56 1 1.292 7.192 14.883 
63 1 -2.318 6.148 21.771 
66 1 -3.309 6.723 20.899 
70 1 -0.148 7.298 12.633 
72 1 0.548 5.882 13.035 
92 1 0.942 8.582 14.209 
95 1 -5.019 10.493 21.771 
98 1 -4.751 9.243 20.899 
104 1 0.468 9.427 11.84 
116 1 -2.66 8.795 21.771 
118 1 -3.52 8.357 20.899 
122 1 0.191 8.638 13.035 
133 1 -3.309 6.723 11.865 
136 1 0.3 8.576 22.068 
147 1 0.548 5.882 19.728 
153 1 -4.751 9.243 11.865 
160 1 0.942 8.582 18.554 
1 1 7.976 4.694 10.572 
4 1 9.274 4.77 10.993 
20 1 8.034 4.861 9.056 
42 1 9.55 5.41 7.479 
67 1 10.043 4.578 0.765 
77 1 7.976 4.694 0.042 
94 1 8.035 4.861 1.558 
96 1 9.278 4.635 1.961 
121 1 4.688 5.417 10.696 
130 1 9.55 5.41 3.135 
134 1 10.043 4.578 9.849 
152 1 9.278 4.635 8.653 
45 1 4.688 5.417 22.068 
55 1 4.788 5.329 13.035 
106 1 9.274 4.77 21.771 
137 1 4.788 5.329 19.728 
2 1 7.294 10.585 9.056 
3 1 9.004 7.624 6.127 
6 1 8.556 6.347 6.805 
16 1 2.314 8.72 0.79 
22 1 7.166 6.156 8.653 
26 1 7.226 8.565 7.479 
35 1 7.191 10.764 10.572 
37 1 6.846 9.307 10.993 
39 1 8.214 8.992 6.805 
41 1 6.677 7.002 9.849 
48 1 3.775 6.213 0.79 
61 1 7.294 10.585 1.558 
62 1 9.004 7.624 4.487 
64 1 6.747 9.395 1.961 
68 1 7.437 6.931 3.135 
71 1 4.29 8.493 10.696 
74 1 3.567 7.818 9.824 
81 1 8.556 6.347 3.808 
83 1 6.47 8.606 0.765 
93 1 7.191 10.764 0.042 
97 1 8.214 8.992 3.808 
101 1 2.261 9.954 10.696 
103 1 2.314 8.72 9.824 
117 1 7.166 6.156 1.961 
120 1 7.226 8.565 3.135 
123 1 3.775 6.213 9.824 
129 1 6.677 7.002 0.765 
132 1 6.747 9.395 8.653 
135 1 7.437 6.931 7.479 
141 1 7.244 6.231 10.993 
144 1 6.47 8.606 9.849 
148 1 3.567 7.818 0.79 
161 2 7.294 10.585 7.706 
7 1 9.22 6.004 11.865 
10 1 3.558 10.029 21.647 
13 1 2.261 9.954 22.068 
15 1 2.978 8.376 17.88 
28 1 3.5 9.862 20.131 
30 1 4.369 8.568 19.728 
34 1 4.308 6.159 18.554 
40 1 7.76 8.511 11.865 
49 1 4.857 7.722 20.924 
50 1 1.984 9.314 18.554 
58 1 1.491 10.146 11.84 
59 1 4.097 7.793 14.209 
69 1 3.558 10.029 11.117 
73 1 2.978 8.376 14.883 
75 1 5.064 6.118 11.84 
79 1 7.244 6.231 21.771 
82 1 7.967 6.906 20.899 
86 1 3.5 9.862 12.633 
88 1 2.256 10.089 13.035 
108 1 9.22 6.004 20.899 
112 1 4.369 8.568 13.035 
115 1 4.308 6.159 14.209 
124 1 4.857 7.722 11.84 
125 1 1.984 9.314 14.209 
126 1 6.846 9.307 21.771 
128 1 7.76 8.511 20.899 
139 1 1.491 10.146 20.924 
140 1 4.097 7.793 18.554 
143 1 7.967 6.906 11.865 
146 1 4.29 8.493 22.068 
149 1 5.064 6.118 20.924 
157 1 2.256 10.089 19.728 
ITEM: TIMESTEP
10
ITEM: NUMBER OF ATOMS
162
ITEM: BOX BOUNDS xy xz yz pp pp pp
-6.7755000000000001e+00 1.3552000000000000e+01 -6.7755000000000001e+00
0.0000000000000000e+00 1.1735510246683001e+01 0.0000000000000000e+00
0.0000000000000000e+00 2.2149999999999999e+01 0.0000000000000000e+00
ITEM: ATOMS id type x y z 
8 1 -2.41101 5.33692 9.84026 
87 1 2.99441 4.26447 10.6506 
90 1 2.65356 5.46326 9.78708 
109 1 -2.41113 5.3417 0.764242 
158 1 2.65738 5.46131 0.819676 
11 1 4.2957 4.14947 20.1493 
14 1 2.9202 4.12339 19.7014 
18 1 1.32269 5.86421 18.5886 
33 1 2.15065 4.21261 20.9102 
43 1 4.32114 4.12638 21.6006 
47 1 3.26997 5.8036 17.8148 
52 1 4.29415 4.15135 12.6143 
76 1 2.4658 4.93047 14.1825 
85 1 4.33035 4.12122 11.1657 
89 1 3.26875 5.80434 14.9495 
91 1 1.00704 5.06504 11.854 
102 1 2.9216 4.12441 13.0606 
105 1 1.32223 5.86424 14.1748 
114 1 2.14902 4.2129 11.8581 
150 1 2.46426 4.93014 18.5805 
156 1 2.98752 4.26532 22.1135 
159 1 1.0075 5.06477 20.9085 
5 1 -4.84722 10.5569 8.64438 
9 1 -3.32891 8.86357 7.48828 
19 1 -1.74191 7.48423 10.5467 
21 1 -2.59505 8.7676 10.8787 
23 1 -3.31237 7.54012 6.83588 
25 1 -4.13626 10.5247 9.83127 
32 1 1.57958 6.34685 0.771139 
36 1 -1.90212 7.52611 9.068 
38 1 -2.1597 6.20046 8.63662 
54 1 0.294634 8.53077 10.6736 
57 1 1.34321 7.98524 9.79427 
60 1 -1.74382 7.46705 0.0783273 
65 1 -3.31007 7.55139 3.75849 
78 1 -1.90527 7.5075 1.54075 
80 1 -2.55253 8.78038 1.84992 
84 1 -4.4764 9.79125 3.1101 
99 1 -3.03144 9.67179 0.793465 
100 1 -2.91908 6.26051 3.17861 
107 1 -4.9457 10.6049 1.98909 
110 1 -3.34043 8.85778 3.09413 
111 1 0.600608 5.95784 10.8177 
113 1 1.57725 6.34446 9.84634 
119 1 -4.17385 10.5136 0.773556 
127 1 -2.15234 6.20479 1.98074 
131 1 -2.30291 6.18296 11.0346 
138 1 1.34873 7.98175 0.822601 
142 1 -2.55179 8.77545 8.7679 
145 1 -4.44739 9.83209 7.50766 
151 1 -5.02203 10.4904 11.0642 
154 1 -2.99034 9.634 9.82945 
155 1 -2.93149 6.24984 7.4243 
162 3 -6.30081 11.6123 7.70963 
12 1 2.56954 7.06542 17.1424 
17 1 0.398424 9.37297 20.9263 
24 1 -3.60214 8.37201 11.8538 
27 1 -0.264483 7.24541 21.6176 
29 1 0.598666 5.95454 21.9436 
31 1 1.29088 7.17535 17.9262 
44 1 -0.111035 7.21932 20.1472 
46 1 0.139606 8.52428 19.7159 
51 1 -0.258418 7.24975 11.1465 
53 1 2.56783 7.06581 15.6196 
56 1 1.28964 7.17547 14.8362 
63 1 -2.30433 6.18954 21.736 
66 1 -3.3823 6.77868 20.8618 
70 1 -0.109911 7.22003 12.6128 
72 1 0.527227 5.94371 12.9316 
92 1 0.902833 8.46292 14.2496 
95 1 -5.02002 10.4351 21.7241 
98 1 -4.67037 9.20443 20.8727 
104 1 0.397233 9.36876 11.8344 
116 1 -2.61309 8.77328 21.8818 
118 1 -3.55152 8.36205 20.9262 
122 1 0.139378 8.52151 13.047 
133 1 -3.37779 6.74975 11.9063 
136 1 0.292397 8.53531 22.0946 
147 1 0.528677 5.94139 19.8336 
153 1 -4.68725 9.25374 11.8939 
160 1 0.903321 8.46508 18.513 
1 1 7.88789 4.89711 10.5329 
4 1 9.18971 4.78738 11.0252 
20 1 7.89869 4.95014 9.07976 
42 1 9.45927 5.43759 7.43321 
67 1 9.98519 4.53102 0.75825 
77 1 7.88292 4.90412 0.0894354 
94 1 7.90393 4.95755 1.53334 
96 1 9.19077 4.64191 1.99639 
121 1 4.67372 5.40639 10.726 
130 1 9.4719 5.41362 3.18434 
134 1 9.98535 4.53298 9.85607 
152 1 9.20032 4.64782 8.60076 
45 1 4.68174 5.41351 22.0414 
55 1 4.81918 5.47452 13.0557 
106 1 9.19165 4.7966 21.7284 
137 1 4.82085 5.47665 19.7072 
2 1 7.18961 10.6973 8.98149 
3 1 8.97895 7.62712 6.07142 
6 1 8.51721 6.36738 6.82701 
16 1 2.3431 8.6964 0.836122 
22 1 7.16664 6.18841 8.728 
26 1 7.1816 8.40953 7.55561 
35 1 7.22753 10.5662 10.5966 
37 1 6.83184 9.33339 10.9672 
39 1 8.32007 8.9242 6.79106 
41 1 6.74288 7.00143 9.83118 
48 1 3.73891 6.35676 0.829942 
61 1 7.24338 10.5672 1.51745 
62 1 8.96202 7.65858 4.54149 
64 1 6.71231 9.25038 1.97547 
68 1 7.41068 6.95772 3.05121 
71 1 4.28311 8.53422 10.7812 
74 1 3.62008 7.79688 9.8499 
81 1 8.52853 6.39595 3.78558 
83 1 6.54606 8.45636 0.776968 
93 1 7.22811 10.5799 0.095458 
97 1 8.26375 8.92267 3.87193 
101 1 2.34041 9.93865 10.6581 
103 1 2.342 8.69791 9.7775 
117 1 7.17893 6.18116 1.88136 
120 1 7.19291 8.43891 3.07245 
123 1 3.73824 6.35834 9.78066 
129 1 6.73977 7.02392 0.790117 
132 1 6.69976 9.11685 8.63599 
135 1 7.4148 6.9396 7.56704 
141 1 7.24992 6.18594 10.904 
144 1 6.53369 8.45821 9.80991 
148 1 3.62067 7.79275 0.762728 
161 2 7.19852 10.6643 7.66172 
7 1 9.19014 6.02651 11.9119 
10 1 3.64794 9.82259 21.6177 
13 1 2.343 9.93768 22.102 
15 1 3.01123 8.3304 17.9047 
28 1 3.64057 9.78197 20.1422 
30 1 4.36183 8.52489 19.7971 
34 1 4.33913 6.28881 18.6172 
40 1 7.79628 8.36521 11.9026 
49 1 4.79663 7.69937 20.9002 
50 1 2.05981 9.30758 18.5093 
58 1 1.53598 10.1885 11.8309 
59 1 4.12119 7.7627 14.1232 
69 1 3.6498 9.82536 11.1319 
73 1 3.01339 8.33457 14.8586 
75 1 4.99802 6.25742 11.856 
79 1 7.2553 6.2033 21.8568 
82 1 7.90344 6.9751 20.9331 
86 1 3.65584 9.79246 12.6313 
88 1 2.31078 10.0846 13.0875 
108 1 9.19603 6.03815 20.8598 
112 1 4.36866 8.51456 12.9727 
115 1 4.33865 6.28912 14.1465 
124 1 4.79934 7.69775 11.8627 
125 1 2.05746 9.30345 14.2581 
126 1 6.87428 9.29003 21.7743 
128 1 7.72888 8.39251 20.9095 
139 1 1.54293 10.1873 20.9285 
140 1 4.12069 7.76403 18.64 
143 1 7.91207 6.93851 11.8399 
146 1 4.28171 8.5351 21.9783 
149 1 4.99724 6.2612 20.9064 
157 1 2.32416 10.0782 19.6852 
ITEM: TIMESTEP
20
ITEM: NUMBER OF ATOMS
162
ITEM: BOX BOUNDS xy xz yz pp pp pp
-6.7755000000000001e+00 1.3552000000000000e+01 -6.7755000000000001e+00
0.0000000000000000e+00 1.1735510246683001e+01 0.0000000000000000e+00
0.0000000000000000e+00 2.2149999999999999e+01 0.0000000000000000e+00
ITEM: ATOMS id type x y z 
8 1 -2.41722 5.36863 9.84784 
87 1 2.97678 4.26449 10.6477 
90 1 2.65399 5.46268 9.78761 
109 1 -2.41781 5.36696 0.764818 
158 1 2.65413 5.46239 0.824008 
11 1 4.2936 4.18724 20.134 
14 1 2.91757 4.13688 19.6939 
18 1 1.32525 5.85825 18.5958 
33 1 2.13624 4.21403 20.9101 
43 1 4.31397 4.15781 21.5852 
47 1 3.26789 5.80186 17.8187 
52 1 4.29313 4.18643 12.6298 
76 1 2.45259 4.94098 14.1739 
85 1 4.31769 4.15113 11.1793 
89 1 3.26625 5.80198 14.9456 
91 1 0.994285 5.05988 11.8562 
102 1 2.91848 4.13694 13.0699 
105 1 1.32518 5.85797 14.1679 
114 1 2.13779 4.2144 11.8522 
150 1 2.45177 4.94122 18.5896 
156 1 2.97422 4.26241 22.1172 
159 1 0.99459 5.06041 20.9089 
5 1 -4.81845 10.5352 8.65193 
9 1 -3.30916 8.85551 7.50179 
19 1 -1.74359 7.47594 10.5548 
21 1 -2.61567 8.75576 10.8773 
23 1 -3.30354 7.5445 6.84067 
25 1 -4.13048 10.5237 9.84148 
32 1 1.60176 6.36231 0.75321 
36 1 -1.87663 7.51398 9.07008 
38 1 -2.16269 6.20406 8.63762 
54 1 0.305871 8.52643 10.6638 
57 1 1.35918 7.97209 9.79999 
60 1 -1.74203 7.46787 0.0664089 
65 1 -3.30727 7.55045 3.76664 
78 1 -1.88506 7.5186 1.54732 
80 1 -2.5524 8.78862 1.83693 
84 1 -4.46947 9.78451 3.09887 
99 1 -3.01767 9.67123 0.78839 
100 1 -2.93288 6.26736 3.17493 
107 1 -4.9403 10.5898 1.99725 
110 1 -3.34332 8.86675 3.08857 
111 1 0.609541 5.96421 10.8153 
113 1 1.60097 6.36162 9.86014 
119 1 -4.16294 10.5089 0.763353 
127 1 -2.15886 6.20348 1.97872 
131 1 -2.3262 6.19528 11.0246 
138 1 1.35953 7.97034 0.81354 
142 1 -2.55224 8.78065 8.77479 
145 1 -4.42348 9.8108 7.50803 
151 1 -5.01254 10.482 11.0676 
154 1 -2.98297 9.65519 9.84318 
155 1 -2.92963 6.26071 7.43361 
162 3 -6.32855 11.6299 7.71109 
12 1 2.56187 7.078 17.1477 
17 1 0.400117 9.35392 20.9214 
24 1 -3.61786 8.36201 11.8283 
27 1 -0.265712 7.23694 21.6271 
29 1 0.610343 5.96469 21.948 
31 1 1.28793 7.17168 17.9212 
44 1 -0.132104 7.20523 20.1423 
46 1 0.14236 8.52271 19.7133 
51 1 -0.263736 7.23779 11.1368 
53 1 2.56165 7.07954 15.6153 
56 1 1.28723 7.17235 14.8419 
63 1 -2.3225 6.19885 21.7417 
66 1 -3.38561 6.79005 20.8735 
70 1 -0.132881 7.20446 12.6222 
72 1 0.529761 5.93551 12.9135 
92 1 0.914871 8.45468 14.2498 
95 1 -4.9818 10.4168 21.7225 
98 1 -4.66541 9.20122 20.8803 
104 1 0.39957 9.35435 11.8433 
116 1 -2.60891 8.7751 21.8851 
118 1 -3.54343 8.35214 20.9376 
122 1 0.141733 8.52272 13.0513 
133 1 -3.38034 6.75736 11.8892 
136 1 0.306044 8.5262 22.0988 
147 1 0.529874 5.93633 19.849 
153 1 -4.6794 9.25151 11.8935 
160 1 0.915998 8.45599 18.5135 
1 1 7.86323 4.89207 10.5371 
4 1 9.17836 4.80006 11.0175 
20 1 7.87817 4.93717 9.07327 
42 1 9.4646 5.43697 7.43518 
67 1 9.97577 4.54958 0.767474 
77 1 7.85411 4.89424 0.0683659 
94 1 7.88371 4.94503 1.54698 
96 1 9.1976 4.66007 1.99774 
121 1 4.67129 5.45463 10.7106 
130 1 9.46411 5.4356 3.17611 
134 1 9.98011 4.54874 9.84534 
152 1 9.19328 4.65861 8.61415 
45 1 4.67301 5.45625 22.0555 
55 1 4.80658 5.48877 13.0655 
106 1 9.18218 4.81907 21.7392 
137 1 4.80635 5.4894 19.6973 
2 1 7.16901 10.6774 8.96083 
3 1 8.96667 7.64391 6.07324 
6 1 8.51437 6.37759 6.81315 
16 1 2.34966 8.68923 0.841593 
22 1 7.14421 6.18644 8.72803 
26 1 7.18974 8.41285 7.55184 
35 1 7.24249 10.5382 10.5777 
37 1 6.84845 9.29865 10.9802 
39 1 8.30511 8.90328 6.78092 
41 1 6.73269 6.9926 9.83808 
48 1 3.70583 6.35487 0.819327 
61 1 7.24764 10.5296 1.54832 
62 1 8.97069 7.64668 4.53461 
64 1 6.72684 9.23125 1.98343 
68 1 7.40427 6.97641 3.05619 
71 1 4.29551 8.52246 10.778 
74 1 3.60124 7.79002 9.83695 
81 1 8.52468 6.39153 3.79086 
83 1 6.54194 8.43642 0.806098 
93 1 7.24262 10.5837 0.0982528 
97 1 8.26643 8.92372 3.86781 
101 1 2.35774 9.92519 10.6721 
103 1 2.3487 8.69038 9.7712 
117 1 7.15187 6.1917 1.89565 
120 1 7.19966 8.42851 3.06046 
123 1 3.70478 6.35584 9.792 
129 1 6.72793 7.02029 0.784845 
132 1 6.72491 9.13031 8.63435 
135 1 7.40569 6.93344 7.55501 
141 1 7.23559 6.19724 10.9156 
144 1 6.53438 8.44982 9.80934 
148 1 3.60112 7.7888 0.776668 
161 2 7.18177 10.6705 7.66318 
7 1 9.18692 6.03698 11.9165 
10 1 3.67168 9.82193 21.6117 
13 1 2.35846 9.925 22.0925 
15 1 3.01021 8.3333 17.8973 
28 1 3.65969 9.78073 20.1428 
30 1 4.38086 8.52755 19.8015 
34 1 4.33312 6.2937 18.6285 
40 1 7.82453 8.36628 11.8936 
49 1 4.80077 7.71101 20.9072 
50 1 2.06856 9.28456 18.5092 
58 1 1.55453 10.1767 11.8427 
59 1 4.1311 7.74983 14.127 
69 1 3.67376 9.8252 11.1518 
73 1 3.01135 8.33429 14.8664 
75 1 4.99314 6.27156 11.8581 
79 1 7.24235 6.21389 21.8434 
82 1 7.92039 6.96911 20.9187 
86 1 3.65975 9.78023 12.6213 
88 1 2.33766 10.0644 13.0756 
108 1 9.18564 6.0542 20.8595 
112 1 4.38183 8.52811 12.964 
115 1 4.33288 6.2946 14.136 
124 1 4.80155 7.71042 11.8558 
125 1 2.06883 9.28478 14.2542 
126 1 6.83483 9.24314 21.7522 
128 1 7.74452 8.38581 20.8923 
139 1 1.55432 10.1759 20.922 
140 1 4.13136 7.74944 18.636 
143 1 7.93321 6.93943 11.8559 
146 1 4.29442 8.52372 21.9841 
149 1 4.99426 6.27312 20.9041 
157 1 2.33692 10.0632 19.6882 
ITEM: TIMESTEP
30
ITEM: NUMBER OF ATOMS
162
ITEM: BOX BOUNDS xy xz yz pp pp pp
-6.7755000000000001e+00 1.3552000000000000e+01 -6.7755000000000001e+00
0.0000000000000000e+00 1.1735510246683001e+01 0.0000000000000000e+00
0.0000000000000000e+00 2.2149999999999999e+01 0.0000000000000000e+00
ITEM: ATOMS id type x y z 
8 1 -2.42763 5.39101 9.84416 
87 1 2.96916 4.27091 10.6413 
90 1 2.642 5.45265 9.78588 
109 1 -2.42705 5.39224 0.767933 
158 1 2.64151 5.45156 0.828287 
11 1 4.28661 4.21609 20.1203 
14 1 2.90335 4.14742 19.6997 
18 1 1.31449 5.86137 18.6026 
33 1 2.11752 4.21482 20.9055 
43 1 4.29779 4.20366 21.5674 
47 1 3.25014 5.80437 17.8156 
52 1 4.28632 4.21625 12.6427 
76 1 2.4388 4.9451 14.1748 
85 1 4.29982 4.20009 11.1952 
89 1 3.24987 5.80459 14.9482 
91 1 0.977769 5.04795 11.8493 
102 1 2.90436 4.14753 13.0643 
105 1 1.31455 5.86153 14.1611 
114 1 2.11901 4.21546 11.8574 
150 1 2.43867 4.9453 18.5888 
156 1 2.96887 4.27022 22.1227 
159 1 0.97762 5.04818 20.9138 
5 1 -4.78599 10.5081 8.65366 
9 1 -3.28848 8.84833 7.50984 
19 1 -1.7367 7.48088 10.5532 
21 1 -2.61629 8.75717 10.8828 
23 1 -3.29769 7.54229 6.83519 
25 1 -4.11312 10.5206 9.8482 
32 1 1.60657 6.384 0.747921 
36 1 -1.84682 7.52078 9.07164 
38 1 -2.15365 6.21538 8.6373 
54 1 0.318167 8.51524 10.6639 
57 1 1.37023 7.95872 9.80613 
60 1 -1.73347 7.47404 0.0675784 
65 1 -3.29999 7.55496 3.77277 
78 1 -1.85735 7.53083 1.54772 
80 1 -2.54159 8.79166 1.83405 
84 1 -4.4578 9.78183 3.09923 
99 1 -2.99505 9.68213 0.78139 
100 1 -2.9379 6.27993 3.17208 
107 1 -4.92197 10.5811 1.99181 
110 1 -3.3335 8.86345 3.08499 
111 1 0.608573 5.96096 10.8116 
113 1 1.60613 6.38417 9.86555 
119 1 -4.14072 10.5055 0.775765 
127 1 -2.15448 6.21992 1.97778 
131 1 -2.33697 6.20694 11.0276 
138 1 1.37001 7.95847 0.807319 
142 1 -2.53443 8.78162 8.7854 
145 1 -4.40494 9.78796 7.51273 
151 1 -5.00145 10.4766 11.0767 
154 1 -2.96186 9.67082 9.85101 
155 1 -2.93381 6.27077 7.43783 
162 3 -6.36876 11.6526 7.71585 
12 1 2.56206 7.07622 17.1503 
17 1 0.410643 9.3305 20.9172 
24 1 -3.62471 8.3412 11.8205 
27 1 -0.271113 7.22982 21.6267 
29 1 0.609097 5.96162 21.9522 
31 1 1.28137 7.16807 17.9156 
44 1 -0.160036 7.19328 20.1426 
46 1 0.13706 8.50457 19.7126 
51 1 -0.268605 7.23095 11.1381 
53 1 2.56198 7.07683 15.6136 
56 1 1.28139 7.16823 14.8475 
63 1 -2.33496 6.21218 21.7429 
66 1 -3.3889 6.80664 20.8805 
70 1 -0.160597 7.19286 12.6216 
72 1 0.520953 5.93228 12.9068 
92 1 0.920177 8.4427 14.2471 
95 1 -4.98078 10.3942 21.7164 
98 1 -4.65565 9.18354 20.8689 
104 1 0.41028 9.33075 11.8466 
116 1 -2.58404 8.78375 21.8837 
118 1 -3.5294 8.33417 20.9409 
122 1 0.136057 8.50462 13.0517 
133 1 -3.38952 6.76996 11.8819 
136 1 0.318072 8.51455 22.0992 
147 1 0.520996 5.93311 19.8563 
153 1 -4.67064 9.26194 11.8951 
160 1 0.920503 8.44253 18.5166 
1 1 7.81932 4.88224 10.5407 
4 1 9.15332 4.82453 11.0042 
20 1 7.84656 4.93635 9.07141 
42 1 9.45602 5.44594 7.43714 
67 1 9.96428 4.57426 0.768003 
77 1 7.81132 4.89074 0.0666419 
94 1 7.85306 4.95139 1.53901 
96 1 9.17082 4.67891 1.99733 
121 1 4.65617 5.49479 10.6877 
130 1 9.45161 5.45388 3.17371 
134 1 9.96813 4.56907 9.84283 
152 1 9.16837 4.677 8.6141 
45 1 4.65619 5.49568 22.0773 
55 1 4.81182 5.51088 13.0652 
106 1 9.15024 4.85205 21.7523 
137 1 4.81271 5.51157 19.6986 
2 1 7.15788 10.6605 8.93719 
3 1 8.95993 7.65762 6.07706 
6 1 8.5142 6.38186 6.80727 
16 1 2.35854 8.69227 0.850146 
22 1 7.11821 6.17408 8.71666 
26 1 7.19651 8.39617 7.54464 
35 1 7.26659 10.4921 10.5491 
37 1 6.86543 9.25615 10.9978 
39 1 8.31129 8.89649 6.77021 
41 1 6.71491 6.98072 9.84171 
48 1 3.69593 6.34918 0.820726 
61 1 7.25831 10.4982 1.55454 
62 1 8.97215 7.6492 4.53422 
64 1 6.72025 9.20991 1.98868 
68 1 7.3937 6.96498 3.06201 
71 1 4.31204 8.51054 10.7562 
74 1 3.59076 7.79792 9.81396 
81 1 8.5146 6.39058 3.80428 
83 1 6.53525 8.41823 0.803631 
93 1 7.24347 10.5353 0.103706 
97 1 8.28369 8.92135 3.8729 
101 1 2.38089 9.90043 10.6876 
103 1 2.35715 8.69374 9.7632 
117 1 7.12162 6.18048 1.90648 
120 1 7.2031 8.41628 3.07555 
123 1 3.69613 6.34913 9.79255 
129 1 6.71084 6.99792 0.77953 
132 1 6.74463 9.12758 8.63357 
135 1 7.3937 6.92401 7.54642 
141 1 7.21952 6.20859 10.9334 
144 1 6.53617 8.42647 9.80564 
148 1 3.59138 7.79915 0.799589 
161 2 7.15168 10.6895 7.66336 
7 1 9.17576 6.03355 11.9241 
10 1 3.71318 9.82714 21.6109 
13 1 2.38305 9.90293 22.0783 
15 1 3.01947 8.33103 17.8868 
28 1 3.68973 9.77809 20.1392 
30 1 4.41 8.53699 19.7892 
34 1 4.32983 6.30579 18.6153 
40 1 7.83558 8.37227 11.892 
49 1 4.81927 7.72459 20.9144 
50 1 2.08129 9.26952 18.5124 
58 1 1.56762 10.1545 11.8465 
59 1 4.14164 7.76046 14.1325 
69 1 3.7187 9.8371 11.1509 
73 1 3.01993 8.33099 14.8771 
75 1 4.99419 6.29656 11.8648 
79 1 7.22441 6.21614 21.8326 
82 1 7.92495 6.95682 20.8922 
86 1 3.6873 9.77398 12.6254 
88 1 2.36675 10.0433 13.074 
108 1 9.16879 6.0664 20.8588 
112 1 4.41006 8.53933 12.9753 
115 1 4.32946 6.30588 14.1483 
124 1 4.82006 7.72517 11.8487 
125 1 2.08147 9.26979 14.251 
126 1 6.8453 9.22317 21.7475 
128 1 7.74019 8.38743 20.8789 
139 1 1.56732 10.1536 20.9169 
140 1 4.14187 7.76039 18.6308 
143 1 7.94121 6.92761 11.8775 
146 1 4.30933 8.51487 22.0057 
149 1 4.99622 6.29723 20.8987 
157 1 2.36449 10.0426 19.6901 
ITEM: TIMESTEP
40
ITEM: NUMBER OF ATOMS
162
ITEM: BOX BOUNDS xy xz yz pp pp pp
-6.7755000000000001e+00 1.3552000000000000e+01 -6.7755000000000001e+00
0.0000000000000000e+00 1.1735510246683001e+01 0.0000000000000000e+00
0.0000000000000000e+00 2.2149999999999999e+01 0.0000000000000000e+00
ITEM: ATOMS id type x y z 
8 1 -2.45267 5.42643 9.84006 
87 1 2.95155 4.29357 10.6388 
90 1 2.61154 5.45986 9.7738 
109 1 -2.45501 5.42943 0.771561 
158 1 2.60959 5.46191 0.841002 
11 1 4.26875 4.26974 20.1055 
14 1 2.87669 4.16614 19.7064 
18 1 1.2931 5.87188 18.6083 
33 1 2.09901 4.20924 20.9117 
43 1 4.26962 4.27925 21.5371 
47 1 3.2329 5.79591 17.8238 
52 1 4.26902 4.26938 12.6556 
76 1 2.40734 4.94384 14.1776 
85 1 4.26836 4.28168 11.2244 
89 1 3.23285 5.79611 14.9402 
91 1 0.936285 5.03483 11.8344 
102 1 2.87667 4.16684 13.0566 
105 1 1.29248 5.87148 14.1543 
114 1 2.09708 4.20958 11.8544 
150 1 2.40709 4.94349 18.5864 
156 1 2.95123 4.29737 22.1246 
159 1 0.93587 5.03425 20.9285 
5 1 -4.77461 10.4874 8.66454 
9 1 -3.26091 8.82521 7.51238 
19 1 -1.73726 7.50104 10.5576 
21 1 -2.58616 8.77214 10.8884 
23 1 -3.29269 7.53491 6.82528 
25 1 -4.08615 10.5048 9.84257 
32 1 1.59214 6.39902 0.75769 
36 1 -1.80106 7.54485 9.06324 
38 1 -2.13291 6.24183 8.63853 
54 1 0.331574 8.48969 10.6713 
57 1 1.3901 7.94366 9.80477 
60 1 -1.72177 7.49432 0.0733305 
65 1 -3.30349 7.55302 3.77106 
78 1 -1.80932 7.55376 1.55797 
80 1 -2.5102 8.80507 1.83135 
84 1 -4.42536 9.78192 3.10041 
99 1 -2.9393 9.69586 0.767088 
100 1 -2.93727 6.28345 3.16189 
107 1 -4.89418 10.5528 1.97996 
110 1 -3.3126 8.85219 3.08209 
111 1 0.583968 5.94144 10.8133 
113 1 1.59251 6.39978 9.85701 
119 1 -4.10814 10.5023 0.774738 
127 1 -2.13565 6.25388 1.98082 
131 1 -2.34524 6.23264 11.0207 
138 1 1.39266 7.9439 0.809674 
142 1 -2.48379 8.79164 8.79067 
145 1 -4.37648 9.76515 7.52303 
151 1 -4.97537 10.4544 11.0754 
154 1 -2.91309 9.67671 9.86934 
155 1 -2.92614 6.26713 7.45326 
162 3 -6.43141 11.6841 7.73438 
12 1 2.57003 7.05098 17.1464 
17 1 0.438534 9.29326 20.9141 
24 1 -3.62031 8.32017 11.833 
27 1 -0.272713 7.21257 21.6231 
29 1 0.585124 5.93867 21.95 
31 1 1.28316 7.17414 17.9163 
44 1 -0.206148 7.16834 20.1373 
46 1 0.118833 8.47068 19.7111 
51 1 -0.273569 7.21429 11.1404 
53 1 2.57003 7.05002 15.6173 
56 1 1.28398 7.17466 14.8471 
63 1 -2.34151 6.23609 21.7482 
66 1 -3.39573 6.82233 20.8814 
70 1 -0.206927 7.16827 12.6263 
72 1 0.491669 5.91846 12.9091 
92 1 0.915067 8.43821 14.2365 
95 1 -4.96573 10.3495 21.7246 
98 1 -4.63549 9.15853 20.8566 
104 1 0.43866 9.29473 11.8499 
116 1 -2.53624 8.80863 21.881 
118 1 -3.49941 8.32444 20.9433 
122 1 0.118499 8.47095 13.053 
133 1 -3.41054 6.78281 11.8819 
136 1 0.331088 8.49116 22.0925 
147 1 0.49128 5.91965 19.8554 
153 1 -4.64124 9.25982 11.9018 
160 1 0.915132 8.43751 18.5271 
1 1 7.73932 4.8735 10.5492 
4 1 9.08448 4.85849 10.982 
20 1 7.79035 4.93923 9.08837 
42 1 9.43361 5.4623 7.4436 
67 1 9.92827 4.63275 0.772446 
77 1 7.7346 4.89397 0.0643616 
94 1 7.78498 4.95634 1.53189 
96 1 9.11568 4.71678 1.9923 
121 1 4.63002 5.54482 10.6724 
130 1 9.43493 5.47222 3.16145 
134 1 9.93398 4.61759 9.83216 
152 1 9.11664 4.7033 8.61538 
45 1 4.63071 5.54624 22.0894 
55 1 4.81786 5.56712 13.069 
106 1 9.08823 4.8989 21.7626 
137 1 4.81882 5.56796 19.6943 
2 1 7.19619 10.6333 8.89821 
3 1 8.9628 7.67441 6.07828 
6 1 8.51087 6.38401 6.80533 
16 1 2.37482 8.69237 0.867008 
22 1 7.05306 6.15054 8.68871 
26 1 7.20526 8.37107 7.53005 
35 1 7.29908 10.423 10.518 
37 1 6.9018 9.2032 11.0112 
39 1 8.3354 8.91229 6.77236 
41 1 6.6843 6.94969 9.83904 
48 1 3.69039 6.35744 0.855385 
61 1 7.27833 10.4455 1.55649 
62 1 8.96123 7.67571 4.54153 
64 1 6.72374 9.15499 1.99369 
68 1 7.37753 6.94298 3.07968 
71 1 4.33855 8.51821 10.7225 
74 1 3.6108 7.81179 9.78071 
81 1 8.50778 6.40216 3.81233 
83 1 6.5166 8.37563 0.81208 
93 1 7.25998 10.4529 0.11635 
97 1 8.29868 8.92765 3.86567 
101 1 2.44918 9.8665 10.7103 
103 1 2.37847 8.69223 9.75011 
117 1 7.05436 6.16253 1.93476 
120 1 7.1997 8.39337 3.09715 
123 1 3.69008 6.35574 9.76035 
129 1 6.67527 6.95928 0.781673 
132 1 6.75579 9.07155 8.62676 
135 1 7.37467 6.90687 7.53071 
141 1 7.19769 6.20306 10.9615 
144 1 6.54046 8.38185 9.78575 
148 1 3.61061 7.81054 0.833917 
161 2 7.0855 10.7328 7.67157 
7 1 9.15424 6.03732 11.9364 
10 1 3.79555 9.84884 21.6059 
13 1 2.44557 9.8659 22.0548 
15 1 3.02909 8.32111 17.8802 
28 1 3.7373 9.75777 20.1626 
30 1 4.47699 8.56438 19.761 
34 1 4.33224 6.33194 18.5942 
40 1 7.83851 8.36703 11.9173 
49 1 4.85159 7.75998 20.9178 
50 1 2.10083 9.25026 18.5223 
58 1 1.59934 10.1018 11.8596 
59 1 4.15827 7.77779 14.1507 
69 1 3.79535 9.84802 11.1464 
73 1 3.02931 8.32206 14.882 
75 1 5.00208 6.34447 11.8738 
79 1 7.18711 6.20526 21.8064 
82 1 7.8863 6.94509 20.8486 
86 1 3.74491 9.76477 12.6079 
88 1 2.42113 10.0113 13.0781 
108 1 9.14006 6.09258 20.8607 
112 1 4.47905 8.55281 12.9993 
115 1 4.33257 6.33193 14.1699 
124 1 4.85422 7.76359 11.8503 
125 1 2.10057 9.25138 14.2408 
126 1 6.84909 9.1784 21.7365 
128 1 7.74793 8.36851 20.8499 
139 1 1.59679 10.1034 20.9068 
140 1 4.15774 7.77594 18.6095 
143 1 7.91642 6.90897 11.9046 
146 1 4.33708 8.51251 22.0392 
149 1 5.00196 6.34208 20.8919 
157 1 2.43107 10.0129 19.6841 
ITEM: TIMESTEP
50
ITEM: NUMBER OF ATOMS
162
ITEM: BOX BOUNDS xy xz yz pp pp pp
-6.7755000000000001e+00 1.3552000000000000e+01 -6.7755000000000001e+00
0.0000000000000000e+00 1.1735510246683001e+01 0.0000000000000000e+00
0.0000000000000000e+00 2.2149999999999999e+01 0.0000000000000000e+00
ITEM: ATOMS id type x y z 
8 1 -2.46304 5.44284 9.8352 
87 1 2.95127 4.31143 10.6413 
90 1 2.61503 5.46465 9.75342 
109 1 -2.46365 5.45042 0.782251 
158 1 2.61617 5.4644 0.860347 
11 1 4.25979 4.2961 20.0877 
14 1 2.86822 4.17045 19.7076 
18 1 1.28827 5.87102 18.6094 
33 1 2.08227 4.21751 20.9155 
43 1 4.26272 4.28722 21.5354 
47 1 3.2309 5.7981 17.8307 
52 1 4.26016 4.29652 12.6764 
76 1 2.39343 4.9438 14.176 
85 1 4.26508 4.28405 11.2287 
89 1 3.22959 5.79881 14.9335 
91 1 0.926538 5.01856 11.8433 
102 1 2.86718 4.17018 13.0555 
105 1 1.28811 5.87122 14.154 
114 1 2.08291 4.21851 11.8471 
150 1 2.39274 4.94411 18.588 
156 1 2.95126 4.30959 22.1226 
159 1 0.92666 5.01697 20.9193 
5 1 -4.75981 10.4791 8.65857 
9 1 -3.25621 8.82168 7.52808 
19 1 -1.72864 7.50657 10.5453 
21 1 -2.58274 8.76745 10.8896 
23 1 -3.28589 7.52562 6.83427 
25 1 -4.07173 10.5027 9.84412 
32 1 1.57406 6.39422 0.754627 
36 1 -1.77968 7.54498 9.06636 
38 1 -2.12823 6.24417 8.64127 
54 1 0.350515 8.48097 10.6677 
57 1 1.393 7.95226 9.80393 
60 1 -1.71744 7.50574 0.0841355 
65 1 -3.30095 7.55495 3.77737 
78 1 -1.79476 7.56382 1.55891 
80 1 -2.49131 8.81306 1.82897 
84 1 -4.41393 9.78191 3.09893 
99 1 -2.92232 9.71168 0.771267 
100 1 -2.93955 6.28642 3.16223 
107 1 -4.88418 10.5482 1.97214 
110 1 -3.30738 8.85479 3.07593 
111 1 0.576627 5.94584 10.8053 
113 1 1.5735 6.39501 9.85849 
119 1 -4.09702 10.4886 0.763312 
127 1 -2.13416 6.25365 1.97721 
131 1 -2.37026 6.23688 11.028 
138 1 1.39523 7.95292 0.812511 
142 1 -2.47202 8.79993 8.79307 
145 1 -4.35664 9.77078 7.5345 
151 1 -4.97219 10.4364 11.064 
154 1 -2.89804 9.6964 9.85695 
155 1 -2.93063 6.26432 7.44922 
162 3 -6.45132 11.7026 7.74684 
12 1 2.56525 7.05589 17.1507 
17 1 0.447482 9.27195 20.904 
24 1 -3.59746 8.33015 11.8267 
27 1 -0.272548 7.19965 21.6164 
29 1 0.578899 5.94539 21.959 
31 1 1.28148 7.16928 17.9131 
44 1 -0.21779 7.15683 20.1341 
46 1 0.115645 8.46986 19.7171 
51 1 -0.273785 7.20033 11.1493 
53 1 2.56546 7.05783 15.6108 
56 1 1.2823 7.16982 14.8504 
63 1 -2.35541 6.24695 21.7442 
66 1 -3.39407 6.82028 20.8849 
70 1 -0.218172 7.15656 12.6306 
72 1 0.472625 5.91019 12.9007 
92 1 0.92056 8.44003 14.2375 
95 1 -4.96626 10.3288 21.7192 
98 1 -4.63125 9.13832 20.8464 
104 1 0.446574 9.27142 11.8598 
116 1 -2.52185 8.81066 21.8788 
118 1 -3.47941 8.33026 20.9421 
122 1 0.115508 8.46889 13.0474 
133 1 -3.41399 6.77505 11.8822 
136 1 0.351416 8.48234 22.0949 
147 1 0.473056 5.91005 19.864 
153 1 -4.64715 9.24887 11.9195 
160 1 0.920032 8.43936 18.5254 
1 1 7.72573 4.88039 10.5442 
4 1 9.07597 4.85827 10.9918 
20 1 7.75583 4.93169 9.07441 
42 1 9.43866 5.46852 7.45297 
67 1 9.89902 4.65882 0.773325 
77 1 7.71937 4.90035 0.0644855 
94 1 7.75258 4.95125 1.54309 
96 1 9.09294 4.73012 1.98676 
121 1 4.6169 5.56488 10.6832 
130 1 9.42585 5.48688 3.16095 
134 1 9.90782 4.63949 9.83402 
152 1 9.09183 4.71458 8.62035 
45 1 4.61789 5.56487 22.0827 
55 1 4.81686 5.57855 13.0733 
106 1 9.07029 4.90593 21.758 
137 1 4.81703 5.57781 19.6883 
2 1 7.19377 10.6049 8.89265 
3 1 8.96324 7.67468 6.0756 
6 1 8.50312 6.3935 6.79781 
16 1 2.39789 8.68966 0.864663 
22 1 7.02847 6.13727 8.68081 
26 1 7.21012 8.3653 7.5174 
35 1 7.30634 10.4194 10.5137 
37 1 6.91062 9.18952 10.9902 
39 1 8.34217 8.89854 6.77844 
41 1 6.67104 6.93169 9.83753 
48 1 3.66807 6.36949 0.87299 
61 1 7.28201 10.4259 1.57879 
62 1 8.96866 7.66762 4.53437 
64 1 6.72231 9.14291 1.99388 
68 1 7.35836 6.93668 3.08476 
71 1 4.36409 8.52947 10.7238 
74 1 3.61693 7.82178 9.76799 
81 1 8.50037 6.40152 3.81815 
83 1 6.51633 8.36872 0.800882 
93 1 7.27495 10.4397 0.134162 
97 1 8.3043 8.92625 3.85873 
101 1 2.46 9.86535 10.7015 
103 1 2.39967 8.69055 9.75165 
117 1 7.03159 6.15032 1.94146 
120 1 7.20646 8.38299 3.10514 
123 1 3.66869 6.37314 9.73999 
129 1 6.65357 6.94778 0.78277 
132 1 6.76587 9.07177 8.61963 
135 1 7.3675 6.89664 7.52337 
141 1 7.16805 6.19451 10.9572 
144 1 6.54418 8.37748 9.79435 
148 1 3.61384 7.82209 0.849263 
161 2 7.05453 10.7393 7.67943 
7 1 9.13112 6.03982 11.9342 
10 1 3.812 9.83652 21.6285 
13 1 2.46245 9.86553 22.0628 
15 1 3.03489 8.3184 17.8704 
28 1 3.77742 9.76217 20.1415 
30 1 4.50139 8.56577 19.7542 
34 1 4.3287 6.33752 18.5843 
40 1 7.86127 8.35423 11.9373 
49 1 4.8661 7.77793 20.9113 
50 1 2.10621 9.23618 18.5213 
58 1 1.62869 10.082 11.8616 