ITEM: TIMESTEP
0
ITEM: NUMBER OF ATOMS
51
ITEM: BOX BOUNDS pp pp pp
0.0000000000000000e+00 1.1000000000000000e+01
0.0000000000000000e+00 1.1002000000000001e+01
0.0000000000000000e+00 1.1000000000000000e+01
ITEM: ATOMS id type x y z 
10 1 4.603 4.603 4.603 
11 1 3.085 3.085 3.085 
12 1 3.796 3.796 3.796 
46 1 0.726 0.725 0.725 
47 1 2.26 2.259 2.26 
48 1 1.551 1.55 1.55 
19 1 4.546 4.545 6.226 
20 1 3.013 3.013 7.764 
21 1 3.721 3.721 7.053 
31 1 0.668 0.667 10.103 
32 1 2.187 2.187 8.589 
33 1 1.476 1.475 9.298 
16 1 4.546 6.225 4.546 
17 1 3.013 7.765 3.013 
18 1 3.721 7.053 3.722 
25 1 0.668 10.103 0.668 
26 1 2.188 8.589 2.188 
27 1 1.476 9.298 1.476 
51 3 3.715 7.345 0.157 
4 1 4.608 6.169 6.169 
5 1 3.086 7.684 7.684 
6 1 3.799 6.974 6.974 
37 1 0.729 10.046 10.046 
38 1 2.259 8.509 8.508 
39 1 1.552 9.219 9.219 
49 2 2.87 7.771 9.462 
50 2 4.056 7.809 10.38 
13 1 6.225 4.546 4.546 
14 1 7.764 3.013 3.013 
15 1 7.053 3.721 3.722 
28 1 10.102 0.667 0.668 
29 1 8.589 2.187 2.188 
30 1 9.298 1.475 1.476 
1 1 6.168 4.608 6.169 
2 1 7.684 3.086 7.684 
3 1 6.974 3.799 6.974 
40 1 10.045 0.728 10.046 
41 1 8.508 2.259 8.508 
42 1 9.218 1.551 9.218 
7 1 6.169 6.169 4.608 
8 1 7.684 7.684 3.086 
9 1 6.974 6.974 3.799 
43 1 10.046 10.047 0.729 
44 1 8.508 8.509 2.259 
45 1 9.219 9.219 1.552 
22 1 6.229 6.229 6.229 
23 1 7.764 7.765 7.765 
24 1 7.055 7.056 7.055 
34 1 10.108 10.108 10.107 
35 1 8.59 8.59 8.59 
36 1 9.301 9.301 9.3 
ITEM: TIMESTEP
10
ITEM: NUMBER OF ATOMS
51
ITEM: BOX BOUNDS pp pp pp
0.0000000000000000e+00 1.1000000000000000e+01
0.0000000000000000e+00 1.1002000000000001e+01
0.0000000000000000e+00 1.1000000000000000e+01
ITEM: ATOMS id type x y z 
10 1 4.60412 4.6046 4.60124 
11 1 3.08645 3.08658 3.08686 
12 1 3.79789 3.79714 3.79739 
46 1 0.733138 0.720415 0.722145 
47 1 2.26593 2.26505 2.26611 
48 1 1.55541 1.55533 1.55415 
19 1 4.54379 4.53107 6.22893 
20 1 3.01056 3.0098 7.76682 
21 1 3.71886 3.71848 7.05571 
31 1 0.663818 0.692323 10.1082 
32 1 2.19112 2.18651 8.58442 
33 1 1.47259 1.48536 9.30048 
16 1 4.545 6.22686 4.53223 
17 1 3.01241 7.76578 3.01236 
18 1 3.71989 7.05478 3.71988 
25 1 0.662831 10.1089 0.694213 
26 1 2.19159 8.58502 2.18903 
27 1 1.47278 9.29989 1.48353 
51 3 3.7125 7.34634 0.151446 
4 1 4.6221 6.15476 6.15826 
5 1 3.09099 7.69087 7.64583 
6 1 3.80849 6.97217 6.95032 
37 1 0.745182 10.0386 10.0229 
38 1 2.32091 8.412 8.58301 
39 1 1.51207 9.26139 9.24225 
49 2 2.82774 7.81259 9.42471 
50 2 4.06521 7.80827 10.3883 
13 1 6.2267 4.54529 4.54435 
14 1 7.7655 3.0111 3.01116 
15 1 7.05548 3.71916 3.7207 
28 1 10.0958 0.673699 0.674711 
29 1 8.58916 2.18666 2.1873 
30 1 9.29942 1.47322 1.47427 
1 1 6.16945 4.609 6.16764 
2 1 7.68311 3.08695 7.68389 
3 1 6.97284 3.79881 6.97187 
40 1 10.0484 0.723824 10.0389 
41 1 8.50361 2.26404 8.50355 
42 1 9.21294 1.5565 9.21322 
7 1 6.16695 6.16707 4.60826 
8 1 7.68246 7.68258 3.08588 
9 1 6.97386 6.97364 3.80073 
43 1 10.0507 10.0398 0.725087 
44 1 8.50311 8.50394 2.2647 
45 1 9.21427 9.21531 1.55699 
22 1 6.24218 6.23041 6.22988 
23 1 7.76611 7.76665 7.7667 
24 1 7.0549 7.05551 7.05452 
34 1 10.082 10.1124 10.1113 
35 1 8.59003 8.58513 8.58502 
36 1 9.29066 9.30447 9.3038 
ITEM: TIMESTEP
20
ITEM: NUMBER OF ATOMS
51
ITEM: BOX BOUNDS pp pp pp
0.0000000000000000e+00 1.1000000000000000e+01
0.0000000000000000e+00 1.1002000000000001e+01
0.0000000000000000e+00 1.1000000000000000e+01
ITEM: ATOMS id type x y z 
10 1 4.60637 4.60457 4.60313 
11 1 3.08773 3.08922 3.08946 
12 1 3.80226 3.79856 3.7985 
46 1 0.736957 0.716507 0.721424 
47 1 2.26209 2.26479 2.2643 
48 1 1.5591 1.55134 1.55322 
19 1 4.54663 4.53575 6.22594 
20 1 3.01022 3.00969 7.76655 
21 1 3.72114 3.71586 7.05395 
31 1 0.663275 0.698358 10.1089 
32 1 2.18871 2.18671 8.58726 
33 1 1.47001 1.48692 9.30265 
16 1 4.54727 6.22385 4.53481 
17 1 3.01028 7.76727 3.01085 
18 1 3.7206 7.05415 3.7153 
25 1 0.66037 10.1117 0.698468 
26 1 2.18732 8.58864 2.18649 
27 1 1.46929 9.30485 1.48634 
51 3 3.71037 7.34546 0.151292 
4 1 4.62339 6.15317 6.1553 
5 1 3.08588 7.69856 7.61978 
6 1 3.80591 6.97554 6.93165 
37 1 0.729265 10.0575 10.0121 
38 1 2.33019 8.39228 8.64616 
39 1 1.51479 9.25683 9.24547 
49 2 2.81835 7.81509 9.42785 
50 2 4.07512 7.80866 10.3939 
13 1 6.23058 4.5413 4.54193 
14 1 7.7668 3.00981 3.01044 
15 1 7.0553 3.71837 3.71897 
28 1 10.1006 0.66845 0.668718 
29 1 8.58902 2.18502 2.18597 
30 1 9.30203 1.47432 1.47472 
1 1 6.16894 4.60657 6.16385 
2 1 7.68135 3.08917 7.68095 
3 1 6.96977 3.80061 6.97114 
40 1 10.0475 0.723464 10.0368 
41 1 8.50454 2.26372 8.50635 
42 1 9.21638 1.55271 9.21181 
7 1 6.16836 6.16502 4.60689 
8 1 7.68083 7.68153 3.08892 
9 1 6.97077 6.97012 3.80045 
43 1 10.055 10.0353 0.723327 
44 1 8.50416 8.50815 2.26349 
45 1 9.21865 9.21185 1.55405 
22 1 6.23878 6.22836 6.22817 
23 1 7.7663 7.7669 7.76651 
24 1 7.0597 7.05535 7.05532 
34 1 10.076 10.1141 10.1122 
35 1 8.5897 8.58808 8.58826 
36 1 9.28902 9.30598 9.3048 
ITEM: TIMESTEP
30
ITEM: NUMBER OF ATOMS
51
ITEM: BOX BOUNDS pp pp pp
0.0000000000000000e+00 1.1000000000000000e+01
0.0000000000000000e+00 1.1002000000000001e+01
0.0000000000000000e+00 1.1000000000000000e+01
ITEM: ATOMS id type x y z 
10 1 4.61021 4.60374 4.60376 
11 1 3.08838 3.09018 3.0898 
12 1 3.80252 3.79947 3.79938 
46 1 0.739877 0.714315 0.72308 
47 1 2.26491 2.26642 2.26591 
48 1 1.55994 1.55063 1.55452 
19 1 4.54691 4.53746 6.22573 
20 1 3.01177 3.01031 7.76471 
21 1 3.72286 3.71636 7.05205 
31 1 0.662583 0.700763 10.1083 
32 1 2.18965 2.1897 8.58689 
33 1 1.46968 1.49052 9.30252 
16 1 4.54747 6.22416 4.53408 
17 1 3.01009 7.76703 3.00929 
18 1 3.72065 7.05373 3.71331 
25 1 0.655988 10.1159 0.700444 
26 1 2.18554 8.59021 2.18736 
27 1 1.46713 9.3077 1.48815 
51 3 3.70825 7.34467 0.150924 
4 1 4.62125 6.15752 6.15002 
5 1 3.0756 7.70971 7.60837 
6 1 3.79694 6.98581 6.92305 
37 1 0.723682 10.065 9.99665 
38 1 2.33834 8.37816 8.66149 
39 1 1.51523 9.2543 9.25045 
49 2 2.826 7.79661 9.45943 
50 2 4.08593 7.80884 10.4003 
13 1 6.23164 4.54045 4.54169 
14 1 7.76881 3.00722 3.00844 
15 1 7.05765 3.71634 3.71659 
28 1 10.1027 0.668438 0.666458 
29 1 8.59262 2.18288 2.18487 
30 1 9.30212 1.47154 1.46967 
1 1 6.16792 4.60591 6.1612 
2 1 7.68026 3.0895 7.6811 
3 1 6.97065 3.80101 6.9693 
40 1 10.0435 0.726468 10.0398 
41 1 8.50333 2.26472 8.504 
42 1 9.21509 1.55466 9.21213 
7 1 6.16916 6.16201 4.60732 
8 1 7.68016 7.68277 3.09005 
9 1 6.97074 6.96823 3.79911 
43 1 10.0579 10.0319 0.723687 
44 1 8.50299 8.50657 2.26465 
45 1 9.22042 9.21 1.55391 
22 1 6.23706 6.22811 6.22772 
23 1 7.76597 7.76508 7.76499 
24 1 7.05945 7.05383 7.05363 
34 1 10.0731 10.1154 10.1121 
35 1 8.5864 8.58764 8.58787 
36 1 9.28594 9.3061 9.30469 
ITEM: TIMESTEP
40
ITEM: NUMBER OF ATOMS
51
ITEM: BOX BOUNDS pp pp pp
0.0000000000000000e+00 1.1000000000000000e+01
0.0000000000000000e+00 1.1002000000000001e+01
0.0000000000000000e+00 1.1000000000000000e+01
ITEM: ATOMS id type x y z 
10 1 4.61017 4.6037 4.60374 
11 1 3.08839 3.09018 3.0898 
12 1 3.8025 3.79948 3.79938 
46 1 0.739897 0.714327 0.72309 
47 1 2.26484 2.26635 2.26584 
48 1 1.56005 1.55072 1.55462 
19 1 4.54689 4.53744 6.22574 
20 1 3.01178 3.0103 7.7647 
21 1 3.72284 3.71636 7.05207 
31 1 0.662573 0.700731 10.1083 
32 1 2.18964 2.18972 8.58689 
33 1 1.46971 1.49051 9.30251 
16 1 4.54745 6.22419 4.53404 
17 1 3.01008 7.76704 3.00927 
18 1 3.72063 7.05375 3.71331 
25 1 0.656028 10.1159 0.70041 
26 1 2.18554 8.59022 2.18736 
27 1 1.46712 9.30768 1.48816 
51 3 3.70824 7.34467 0.150923 
4 1 4.62121 6.15754 6.15004 
5 1 3.07563 7.70968 7.60833 
6 1 3.79688 6.98588 6.92309 
37 1 0.723657 10.065 9.99664 
38 1 2.33836 8.37812 8.66152 
39 1 1.5152 9.25433 9.25048 
49 2 2.82601 7.79658 9.45947 
50 2 4.08596 7.80885 10.4003 
13 1 6.23167 4.54042 4.54165 
14 1 7.76881 3.00722 3.00842 
15 1 7.05769 3.7163 3.71657 
28 1 10.1027 0.668478 0.666438 
29 1 8.59263 2.18287 2.18485 
30 1 9.30212 1.47154 1.46969 
1 1 6.16793 4.60588 6.16125 
2 1 7.68026 3.0895 7.68111 
3 1 6.97066 3.801 6.96928 
40 1 10.0435 0.72647 10.0398 
41 1 8.50337 2.26468 8.50402 
42 1 9.21504 1.5547 9.2121 
7 1 6.16918 6.16205 4.60728 
8 1 7.68015 7.68277 3.09004 
9 1 6.97076 6.96825 3.79912 
43 1 10.0579 10.0319 0.723698 
44 1 8.50306 8.50662 2.26459 
45 1 9.22031 9.20991 1.55402 
22 1 6.23709 6.22813 6.22774 
23 1 7.76598 7.76508 7.76499 
24 1 7.05946 7.05386 7.05366 
34 1 10.0731 10.1154 10.1121 
35 1 8.58641 8.58764 8.58787 
36 1 9.28591 9.30611 9.30469 
ITEM: TIMESTEP
41
ITEM: NUMBER OF ATOMS
51
ITEM: BOX BOUNDS pp pp pp
0.0000000000000000e+00 1.1000000000000000e+01
0.0000000000000000e+00 1.1002000000000001e+01
0.0000000000000000e+00 1.1000000000000000e+01
ITEM: ATOMS id type x y z 
10 1 4.61017 4.6037 4.60374 
11 1 3.08839 3.09018 3.0898 
12 1 3.8025 3.79948 3.79938 
46 1 0.739897 0.714327 0.72309 
47 1 2.26484 2.26635 2.26584 
48 1 1.56005 1.55072 1.55462 
19 1 4.54689 4.53744 6.22574 
20 1 3.01178 3.0103 7.7647 
21 1 3.72284 3.71636 7.05207 
31 1 0.662573 0.700731 10.1083 
32 1 2.18964 2.18972 8.58689 
33 1 1.46971 1.49051 9.30251 
16 1 4.54745 6.22419 4.53404 
17 1 3.01008 7.76704 3.00927 
18 1 3.72063 7.05375 3.71331 
25 1 0.656028 10.1159 0.70041 
26 1 2.18554 8.59022 2.18736 
27 1 1.46712 9.30768 1.48816 
51 3 3.70824 7.34467 0.150923 
4 1 4.62121 6.15754 6.15004 
5 1 3.07563 7.70968 7.60833 
6 1 3.79688 6.98588 6.92309 
37 1 0.723657 10.065 9.99664 
38 1 2.33836 8.37812 8.66152 
39 1 1.5152 9.25433 9.25048 
49 2 2.82601 7.79658 9.45947 
50 2 4.08596 7.80885 10.4003 
13 1 6.23167 4.54042 4.54165 
14 1 7.76881 3.00722 3.00842 
15 1 7.05769 3.7163 3.71657 
28 1 10.1027 0.668478 0.666438 
29 1 8.59263 2.18287 2.18485 
30 1 9.30212 1.47154 1.46969 
1 1 6.16793 4.60588 6.16125 
2 1 7.68026 3.0895 7.68111 
3 1 6.97066 3.801 6.96928 
40 1 10.0435 0.72647 10.0398 
41 1 8.50337 2.26468 8.50402 
42 1 9.21504 1.5547 9.2121 
7 1 6.16918 6.16205 4.60728 
8 1 7.68015 7.68277 3.09004 
9 1 6.97076 6.96825 3.79912 
43 1 10.0579 10.0319 0.723698 
44 1 8.50306 8.50662 2.26459 
45 1 9.22031 9.20991 1.55402 
22 1 6.23709 6.22813 6.22774 
23 1 7.76598 7.76508 7.76499 
24 1 7.05946 7.05386 7.05366 
34 1 10.0731 10.1154 10.1121 
35 1 8.58641 8.58764 8.58787 
36 1 9.28591 9.30611 9.30469 
ITEM: TIMESTEP
50
ITEM: NUMBER OF ATOMS
51
ITEM: BOX BOUNDS pp pp pp
-1.6677973869987285e-04 1.1000166779738699e+01
7.0480381400326014e-04 1.1001295196185996e+01
-3.1103012684176880e-03 1.1003110301268419e+01
ITEM: ATOMS id type x y z 
10 1 4.6102 4.60369 4.60328 
11 1 3.08849 3.09046 3.08841 
12 1 3.80213 3.79976 3.79847 
46 1 0.739619 0.714671 0.720195 
47 1 2.26401 2.26608 2.26338 
48 1 1.56067 1.55176 1.5529 
19 1 4.54692 4.5375 6.22607 
20 1 3.01188 3.01055 7.7658 
21 1 3.72274 3.71688 7.05302 
31 1 0.662048 0.700894 10.1111 
32 1 2.18933 2.19034 8.58874 
33 1 1.46998 1.4909 9.30446 
16 1 4.54741 6.22409 4.53334 
17 1 3.00998 7.76676 3.0076 
18 1 3.72052 7.05361 3.71255 
25 1 0.655718 10.1157 0.697219 
26 1 2.18544 8.59007 2.18539 
27 1 1.46681 9.30693 1.48614 
51 3 3.70812 7.34441 0.147872 
4 1 4.62106 6.15747 6.15024 
5 1 3.07561 7.70929 7.60906 
6 1 3.79605 6.9866 6.92408 
37 1 0.722975 10.065 9.99912 
38 1 2.33868 8.37716 8.66376 
39 1 1.51465 9.25424 9.25312 
49 2 2.82605 7.79585 9.46248 
50 2 4.08626 7.80855 10.4033 
13 1 6.23177 4.54046 4.5409 
14 1 7.76893 3.00748 3.0068 
15 1 7.05792 3.71635 3.71569 
28 1 10.103 0.669041 0.663174 
29 1 8.59282 2.18323 2.18266 
30 1 9.30228 1.47194 1.46775 
1 1 6.16775 4.60604 6.16183 
2 1 7.68023 3.08991 7.68249 
3 1 6.97091 3.801 6.96983 
40 1 10.0439 0.726869 10.0426 
41 1 8.50389 2.2647 8.50598 
42 1 9.21477 1.55554 9.21415 
7 1 6.16919 6.16192 4.60656 
8 1 7.68009 7.68236 3.08851 
9 1 6.97106 6.96833 3.79841 
43 1 10.0584 10.0313 0.720766 
44 1 8.50385 8.50682 2.26217 
45 1 9.21979 9.20887 1.55235 
22 1 6.23722 6.22804 6.22813 
23 1 7.76618 7.76469 7.76618 
24 1 7.05925 7.05374 7.05461 
34 1 10.0738 10.1151 10.1148 
35 1 8.58656 8.58728 8.58972 
36 1 9.28574 9.30561 9.30669 
ITEM: TIMESTEP
60
ITEM: NUMBER OF ATOMS
51
ITEM: BOX BOUNDS pp pp pp
-1.3159529956831951e-04 1.1000131595299568e+01
1.6268053112181860e-03 1.1000373194688784e+01
-6.6526788319418335e-03 1.1006652678831944e+01
ITEM: ATOMS id type x y z 
10 1 4.61051 4.60391 4.6029 
11 1 3.08865 3.09091 3.08687 
12 1 3.80194 3.80003 3.7974 
46 1 0.73943 0.715072 0.716848 
47 1 2.26362 2.2663 2.26103 
48 1 1.56108 1.55245 1.5504 
19 1 4.54715 4.53775 6.22633 
20 1 3.01223 3.01096 7.76697 
21 1 3.72265 3.71758 7.05402 
31 1 0.661726 0.701355 10.1144 
32 1 2.18905 2.19124 8.5908 
33 1 1.47058 1.49134 9.30674 
16 1 4.54749 6.22382 4.53276 
17 1 3.01004 7.76619 3.0059 
18 1 3.72061 7.05349 3.71154 
25 1 0.655195 10.1156 0.693751 
26 1 2.18533 8.58972 2.18321 
27 1 1.46681 9.30626 1.48378 
51 3 3.70802 7.34408 0.144375 
4 1 4.62119 6.15728 6.15018 
5 1 3.0752 7.70928 7.61015 
6 1 3.79535 6.98724 6.92479 
37 1 0.722336 10.065 10.0018 
38 1 2.33931 8.37579 8.66663 
39 1 1.51435 9.25386 9.25603 
49 2 2.82625 7.79476 9.46627 
50 2 4.08682 7.80817 10.4068 
13 1 6.23167 4.54068 4.54018 
14 1 7.76883 3.00792 3.00504 
15 1 7.05811 3.71654 3.71481 
28 1 10.1033 0.669633 0.659469 
29 1 8.59286 2.18373 2.1801 
30 1 9.30247 1.47238 1.46559 
1 1 6.16747 4.60647 6.16215 
2 1 7.68015 3.09045 7.68392 
3 1 6.97099 3.80104 6.97063 
40 1 10.0441 0.727525 10.0459 
41 1 8.50417 2.26505 8.50797 
42 1 9.21434 1.55644 9.21665 
7 1 6.16898 6.16141 4.60592 
8 1 7.67989 7.68181 3.08669 
9 1 6.97139 6.96846 3.79776 
43 1 10.0589 10.0306 0.717306 
44 1 8.5042 8.50664 2.2598 
45 1 9.21971 9.20804 1.54987 
22 1 6.23711 6.22775 6.22839 
23 1 7.76618 7.76402 7.76739 
24 1 7.05884 7.05349 7.05558 
34 1 10.0743 10.1146 10.1181 
35 1 8.58645 8.58692 8.59175 
36 1 9.28554 9.30472 9.3091 
ITEM: TIMESTEP
70
ITEM: NUMBER OF ATOMS
51
ITEM: BOX BOUNDS pp pp pp
4.6035304269683737e-04 1.0999539646957302e+01
3.2507807261447177e-03 1.0998749219273858e+01
-9.8849689513520345e-03 1.1009884968951358e+01
ITEM: ATOMS id type x y z 
10 1 4.61101 4.60435 4.60265 
11 1 3.08901 3.09177 3.08552 
12 1 3.80206 3.8004 3.79639 
46 1 0.73977 0.716131 0.713775 
47 1 2.26368 2.2671 2.25902 
48 1 1.56187 1.55349 1.54802 
19 1 4.54749 4.53839 6.22653 
20 1 3.01286 3.01195 7.768 
21 1 3.72289 3.7182 7.05478 
31 1 0.661911 0.70255 10.1172 
32 1 2.18906 2.19253 8.5926 
33 1 1.47166 1.49244 9.30899 
16 1 4.54778 6.22352 4.53241 
17 1 3.01054 7.76533 3.0045 
18 1 3.72072 7.05299 3.71043 
25 1 0.655189 10.1148 0.690762 
26 1 2.1855 8.58903 2.18123 
27 1 1.46719 9.30513 1.48163 
51 3 3.70807 7.34351 0.141144 
4 1 4.62146 6.1571 6.14995 
5 1 3.07488 7.70916 7.61102 
6 1 3.79467 6.98787 6.92518 
37 1 0.722134 10.0645 10.0039 
38 1 2.3404 8.37378 8.66974 
39 1 1.51468 9.25273 9.2586 
49 2 2.82679 7.79311 9.4703 
50 2 4.08773 7.80748 10.4102 
13 1 6.23152 4.54103 4.53973 
14 1 7.76847 3.00872 3.00369 
15 1 7.05805 3.71704 3.7137 
28 1 10.1031 0.670815 0.656173 
29 1 8.5927 2.18448 2.17789 
30 1 9.30218 1.47354 1.46323 
1 1 6.16706 4.60705 6.16219 
2 1 7.67981 3.09123 7.68504 
3 1 6.97092 3.8015 6.97156 
40 1 10.0437 0.728938 10.049 
41 1 8.5041 2.26595 8.5097 
42 1 9.2135 1.55767 9.21902 
7 1 6.16864 6.16059 4.60538 
8 1 7.6794 7.68089 3.08496 
9 1 6.97164 6.96853 3.79736 
43 1 10.0588 10.0293 0.714098 
44 1 8.50412 8.50598 2.25771 
45 1 9.21937 9.20674 1.54755 
22 1 6.23664 6.22735 6.22854 
23 1 7.76564 7.76298 7.76839 
24 1 7.05856 7.05289 7.0563 
34 1 10.0741 10.1134 10.121 
35 1 8.58597 8.58612 8.59368 
36 1 9.28496 9.30346 9.31116 
ITEM: TIMESTEP
80
ITEM: NUMBER OF ATOMS
51
ITEM: BOX BOUNDS pp pp pp
3.3025032244839690e-04 1.0999669749677551e+01
4.2037396440778342e-03 1.0997796260355926e+01
-1.3680057482991203e-02 1.1013680057482999e+01
ITEM: ATOMS id type x y z 
10 1 4.61138 4.60464 4.60231 
11 1 3.08904 3.09234 3.08398 
12 1 3.80204 3.80062 3.79517 
46 1 0.739559 0.716669 0.710234 
47 1 2.26336 2.26755 2.25673 
48 1 1.5622 1.55403 1.54522 
19 1 4.54771 4.53889 6.22675 
20 1 3.01318 3.01259 7.76922 
21 1 3.72287 3.71872 7.05572 
31 1 0.661717 0.703118 10.1205 
32 1 2.18893 2.19329 8.5948 
33 1 1.47169 1.49341 9.31149 
16 1 4.54791 6.2233 4.53198 
17 1 3.01067 7.76472 3.0028 
18 1 3.72064 7.05274 3.70915 
25 1 0.654541 10.1145 0.687429 
26 1 2.18518 8.58867 2.17892 
27 1 1.46707 9.30462 1.47908 
51 3 3.70785 7.34316 0.137329 
4 1 4.62141 6.15717 6.14977 
5 1 3.07416 7.70939 7.61201 
6 1 3.79368 6.98879 6.92548 
37 1 0.721279 10.0645 10.0062 
38 1 2.34118 8.37194 8.67355 
39 1 1.51464 9.25188 9.26149 
49 2 2.82702 7.79153 9.47508 
50 2 4.08862 7.80707 10.4142 
13 1 6.23149 4.54125 4.53916 
14 1 7.76843 3.0092 3.00204 
15 1 7.05823 3.71727 3.7124 
28 1 10.1034 0.671434 0.652396 
29 1 8.593 2.18476 2.17541 
30 1 9.30235 1.47427 1.46022 
1 1 6.16679 4.60747 6.16236 
2 1 7.67976 3.0918 7.6864 
3 1 6.97097 3.80167 6.97252 
40 1 10.0438 0.729816 10.0527 
41 1 8.50431 2.26644 8.51185 
42 1 9.21339 1.55846 9.22163 
7 1 6.16862 6.15998 4.60495 
8 1 7.6794 7.68039 3.08338 
9 1 6.97167 6.96844 3.79613 
43 1 10.0594 10.0284 0.710374 
44 1 8.50442 8.50558 2.25535 
45 1 9.21951 9.20596 1.54482 
22 1 6.23627 6.22704 6.22876 
23 1 7.76545 7.76218 7.76962 
24 1 7.05844 7.05258 7.05721 
34 1 10.0743 10.1127 10.1244 
35 1 8.58583 8.58567 8.59593 
36 1 9.2849 9.30268 9.31359 
ITEM: TIMESTEP
90
ITEM: NUMBER OF ATOMS
51
ITEM: BOX BOUNDS pp pp pp
2.7422641678509670e-04 1.0999725773583219e+01
5.5178117493536018e-03 1.0996482188250649e+01
-1.7514218981183171e-02 1.1017514218981194e+01
ITEM: ATOMS id type x y z 
10 1 4.61182 4.60494 4.60187 
11 1 3.08912 3.09313 3.08242 
12 1 3.80208 3.80092 3.79407 
46 1 0.739628 0.717457 0.706583 
47 1 2.26323 2.26815 2.25445 
48 1 1.5625 1.55494 1.54243 
19 1 4.54785 4.53961 6.22694 
20 1 3.0135 3.01347 7.77043 
21 1 3.72304 3.71923 7.05661 
31 1 0.661613 0.704055 10.1237 
32 1 2.18879 2.19442 8.59701 
33 1 1.47187 1.49462 9.31402 
16 1 4.54797 6.22305 4.53164 
17 1 3.01075 7.76391 3.00103 
18 1 3.72071 7.05248 3.70778 
25 1 0.65389 10.1139 0.684167 
26 1 2.18483 8.5881 2.17659 
27 1 1.46695 9.30404 1.4766 
51 3 3.70759 7.3427 0.133405 
4 1 4.62112 6.15754 6.14951 
5 1 3.07323 7.7097 7.61282 
6 1 3.79242 6.98998 6.92534 
37 1 0.720301 10.0645 10.0081 
38 1 2.3423 8.36939 8.6782 
39 1 1.51476 9.25061 9.26447 
49 2 2.8274 7.78929 9.48079 
50 2 4.08995 7.80648 10.4185 
13 1 6.23155 4.54152 4.53855 
14 1 7.76845 3.00981 3.00033 
15 1 7.05839 3.71747 3.711 
28 1 10.1038 0.672576 0.648365 
29 1 8.59336 2.18535 2.17278 
30 1 9.30242 1.47495 1.45725 
1 1 6.16653 4.60789 6.16255 
2 1 7.67966 3.09253 7.68771 
3 1 6.97096 3.80202 6.97343 
40 1 10.0436 0.731065 10.0566 
41 1 8.50434 2.26709 8.51401 
42 1 9.21339 1.55967 9.22429 
7 1 6.16855 6.15936 4.60438 
8 1 7.67919 7.67986 3.08176 
9 1 6.97193 6.968 3.795 
43 1 10.0599 10.027 0.706542 
44 1 8.50467 8.505 2.25302 
45 1 9.21967 9.20475 1.54197 
22 1 6.23578 6.22677 6.22891 
23 1 7.76523 7.76126 7.77084 
24 1 7.05827 7.05205 7.05812 
34 1 10.0745 10.1117 10.1277 
35 1 8.58557 8.58497 8.59821 
36 1 9.28464 9.30173 9.31605 
ITEM: TIMESTEP
100
ITEM: NUMBER OF ATOMS
51
ITEM: BOX BOUNDS pp pp pp
7.4802835245510034e-04 1.0999251971647553e+01
7.7394247919081189e-03 1.0994260575208093e+01
-2.0875787631972998e-02 1.1020875787631986e+01
ITEM: ATOMS id type x y z 
10 1 4.61245 4.6051 4.60164 
11 1 3.08945 3.09425 3.08125 
12 1 3.80241 3.80177 3.79294 
46 1 0.7406 0.718952 0.703087 
47 1 2.26369 2.26926 2.25242 
48 1 1.56299 1.55654 1.54018 
19 1 4.54804 4.54068 6.22689 
20 1 3.01411 3.01477 7.77131 
21 1 3.72358 3.72027 7.05731 
31 1 0.662295 0.705767 10.1263 
32 1 2.18904 2.19644 8.59906 
33 1 1.47242 1.49647 9.31596 
16 1 4.54808 6.22286 4.53151 
17 1 3.0111 7.76275 2.99927 
18 1 3.72079 7.05198 3.70655 
25 1 0.653598 10.113 0.681744 
26 1 2.18476 8.58744 2.17484 
27 1 1.46693 9.30243 1.47411 
51 3 3.70732 7.34192 0.129795 
4 1 4.62041 6.1584 6.14896 
5 1 3.07198 7.71018 7.61306 
6 1 3.79061 6.99182 6.92411 
37 1 0.719373 10.0643 10.0086 
38 1 2.34443 8.36518 8.68433 
39 1 1.51541 9.24843 9.26738 
49 2 2.82831 7.78548 9.48817 
50 2 4.09237 7.8055 10.4231 
13 1 6.23168 4.5418 4.53795 
14 1 7.76841 3.01066 2.99871 
15 1 7.05856 3.71784 3.70962 
28 1 10.1036 0.67453 0.644547 
29 1 8.59346 2.18625 2.17038 
30 1 9.30234 1.47642 1.45433 
1 1 6.16605 4.60825 6.1626 
2 1 7.67925 3.09349 7.68861 
3 1 6.97086 3.80306 6.97432 
40 1 10.0427 0.733453 10.0604 
41 1 8.50411 2.26833 8.51578 
42 1 9.2127 1.56172 9.2268 
7 1 6.16871 6.15851 4.60387 
8 1 7.67882 7.67904 3.08049 
9 1 6.97191 6.96716 3.79383 
43 1 10.0602 10.0244 0.70283 
44 1 8.50462 8.50383 2.25099 
45 1 9.2196 9.20285 1.53948 
22 1 6.23495 6.22643 6.22894 
23 1 7.76476 7.75982 7.77189 
24 1 7.05787 7.05128 7.05862 
34 1 10.0743 10.1099 10.1302 
35 1 8.5848 8.58388 8.60003 
36 1 9.2838 9.29986 9.31847 
ITEM: TIMESTEP
110
ITEM: NUMBER OF ATOMS
51
ITEM: BOX BOUNDS pp pp pp
5.6960593628971041e-04 1.0999430394063719e+01
9.2904105177458000e-03 1.0992709589482258e+01
-2.3918384912879894e-02 1.1023918384912895e+01
ITEM: ATOMS id type x y z 
10 1 4.61323 4.6051 4.60113 
11 1 3.0893 3.0955 3.08008 
12 1 3.80309 3.80169 3.79241 
46 1 0.741232 0.72002 0.700011 
47 1 2.26333 2.27001 2.25101 
48 1 1.56444 1.55765 1.53769 
19 1 4.54832 4.54171 6.22688 
20 1 3.01503 3.01575 7.77207 
21 1 3.72314 3.72147 7.05747 
31 1 0.662779 0.706477 10.1278 
32 1 2.18902 2.19825 8.60067 
33 1 1.4725 1.49863 9.31793 
16 1 4.54816 6.22346 4.53162 
17 1 3.01119 7.76254 2.9971 
18 1 3.72002 7.05092 3.70551 
25 1 0.65254 10.1122 0.679144 
26 1 2.18431 8.58654 2.1724 
27 1 1.46577 9.303 1.47385 
51 3 3.70648 7.34131 0.12627 
4 1 4.61871 6.16065 6.14789 
5 1 3.06942 7.71187 7.61264 
6 1 3.78731 6.99548 6.92109 
37 1 0.717194 10.0654 10.0069 
38 1 2.34742 8.35922 8.69341 
39 1 1.51587 9.24614 9.27052 
49 2 2.8294 7.77977 9.49903 
50 2 4.09644 7.8048 10.4285 
13 1 6.23209 4.54198 4.53714 
14 1 7.7689 3.01107 2.99676 
15 1 7.05903 3.71755 3.70871 
28 1 10.1039 0.675561 0.640942 
29 1 8.59431 2.18596 2.16885 
30 1 9.30243 1.47843 1.4497 
1 1 6.16602 4.60919 6.16283 
2 1 7.67947 3.09499 7.68961 
3 1 6.97005 3.80244 6.97416 
40 1 10.0421 0.735999 10.0647 
41 1 8.50441 2.26958 8.51696 
42 1 9.21173 1.56299 9.22986 
7 1 6.16994 6.15714 4.60364 
8 1 7.6793 7.6785 3.07989 
9 1 6.97101 6.96645 3.79186 
43 1 10.0614 10.0212 0.698827 
44 1 8.50516 8.50241 2.24918 
45 1 9.21973 9.20199 1.53729 
22 1 6.23405 6.22666 6.22833 
23 1 7.76469 7.75872 7.77211 
24 1 7.05706 7.05018 7.05985 
34 1 10.0745 10.1079 10.1328 
35 1 8.58377 8.58246 8.60235 
36 1 9.28343 9.29951 9.31921 
ITEM: TIMESTEP
120
ITEM: NUMBER OF ATOMS
51
ITEM: BOX BOUNDS pp pp pp
6.1433377179910976e-04 1.0999385666228211e+01
1.0194193099271064e-02 1.0991805806900732e+01
-2.3523342030765844e-02 1.1023523342030780e+01
ITEM: ATOMS id type x y z 
10 1 4.61389 4.60446 4.60162 
11 1 3.0896 3.09548 3.08059 
12 1 3.80286 3.80288 3.79227 
46 1 0.742124 0.720439 0.699897 
47 1 2.26373 2.27045 2.25135 
48 1 1.56449 1.55827 1.53795 
19 1 4.54797 4.54263 6.22628 
20 1 3.01482 3.01649 7.77145 
21 1 3.72433 3.72193 7.05732 
31 1 0.663292 0.707437 10.1272 
32 1 2.18883 2.20002 8.60057 
33 1 1.47335 1.49862 9.31709 
16 1 4.54748 6.22332 4.53205 
17 1 3.01085 7.76147 2.99693 
18 1 3.72051 7.05195 3.70544 
25 1 0.65155 10.1124 0.680566 
26 1 2.18371 8.58662 2.17332 
27 1 1.46598 9.30227 1.47337 
51 3 3.70595 7.34091 0.126361 
4 1 4.6177 6.16201 6.14682 
5 1 3.06801 7.71283 7.61173 
6 1 3.78536 6.99769 6.91867 
37 1 0.716258 10.0658 10.0039 
38 1 2.34924 8.35572 8.69762 
39 1 1.51631 9.24472 9.27093 
49 2 2.83013 7.77621 9.50411 
50 2 4.09912 7.80443 10.4298 
13 1 6.23222 4.54168 4.53705 
14 1 7.76911 3.01076 2.99668 
15 1 7.05963 3.71801 3.70852 
28 1 10.1036 0.676881 0.639575 
29 1 8.59404 2.1867 2.16788 
30 1 9.30356 1.47807 1.45116 
1 1 6.16549 4.60934 6.16271 
2 1 7.67929 3.09517 7.6891 
3 1 6.97016 3.80322 6.974 
40 1 10.0407 0.737479 10.0655 
41 1 8.50384 2.26997 8.51684 
42 1 9.21192 1.5647 9.22936 
7 1 6.1698 6.15662 4.60313 
8 1 7.67852 7.67837 3.07944 
9 1 6.97249 6.96578 3.79314 
43 1 10.0618 10.0198 0.698599 
44 1 8.50511 8.50229 2.24967 
45 1 9.22043 9.20034 1.53695 
22 1 6.23335 6.22649 6.22819 
23 1 7.76462 7.75784 7.77208 
24 1 7.05643 7.0501 7.05878 
34 1 10.0748 10.1068 10.1318 
35 1 8.58335 8.58216 8.60154 
36 1 9.28259 9.29823 9.31973 
ITEM: TIMESTEP
130
ITEM: NUMBER OF ATOMS
51
ITEM: BOX BOUNDS pp pp pp
-3.5423794939188187e-04 1.1000354237949404e+01
1.1130381020690836e-02 1.0990869618979310e+01
-2.3600870876747455e-02 1.1023600870876761e+01
ITEM: ATOMS id type x y z 
10 1 4.61444 4.60394 4.60181 
11 1 3.08919 3.09609 3.08075 
12 1 3.80292 3.80299 3.7925 
46 1 0.742599 0.72048 0.698659 
47 1 2.26356 2.27096 2.25175 
48 1 1.5642 1.5582 1.53706 
19 1 4.54745 4.54382 6.22575 
20 1 3.01474 3.01758 7.77084 
21 1 3.72471 3.7227 7.057 
31 1 0.663334 0.707484 10.1268 
32 1 2.1882 2.20219 8.60054 
33 1 1.47357 1.49928 9.31652 
16 1 4.54661 6.22414 4.53292 
17 1 3.01009 7.76104 2.99615 
18 1 3.72023 7.05214 3.70509 
25 1 0.65001 10.1137 0.681439 
26 1 2.1826 8.58678 2.17334 
27 1 1.46419 9.30225 1.47399 
51 3 3.70451 7.34037 0.125727 
4 1 4.61484 6.16513 6.14444 
5 1 3.06482 7.71497 7.6104 
6 1 3.78113 7.00235 6.91418 
37 1 0.713287 10.0677 9.99872 
38 1 2.35216 8.34931 8.70646 
39 1 1.51628 9.2426 9.27253 
49 2 2.83103 7.76945 9.51487 
50 2 4.10429 7.80411 10.4332 
13 1 6.23291 4.54136 4.53633 
14 1 7.76987 3.01055 2.99611 
15 1 7.06103 3.71743 3.708 
28 1 10.1047 0.678541 0.637087 
29 1 8.595 2.1866 2.16733 
30 1 9.30482 1.47874 1.45011 
1 1 6.16512 4.60974 6.16303 
2 1 7.67959 3.09605 7.6887 
3 1 6.96983 3.80291 6.97316 
40 1 10.04 0.739801 10.068 
41 1 8.50376 2.2709 8.51653 
42 1 9.21253 1.56617 9.23029 
7 1 6.17092 6.15561 4.60266 
8 1 7.67892 7.67826 3.07977 
9 1 6.97291 6.96496 3.7927 
43 1 10.0635 10.0168 0.69738 
44 1 8.50593 8.50195 2.2498 
45 1 9.22134 9.19811 1.53656 
22 1 6.23241 6.22699 6.22788 
23 1 7.76464 7.7567 7.77159 
24 1 7.05625 7.05017 7.05863 
34 1 10.076 10.1054 10.1308 
35 1 8.58256 8.58156 8.60158 
36 1 9.28275 9.29707 9.31925 
ITEM: TIMESTEP
140
ITEM: NUMBER OF ATOMS
51
ITEM: BOX BOUNDS pp pp pp
-6.2784621494193756e-04 1.1000627846214954e+01
1.1373975072671447e-02 1.0990626024927330e+01
-2.3052212052319557e-02 1.1023052212052333e+01
ITEM: ATOMS id type x y z 
10 1 4.61476 4.60357 4.60191 
11 1 3.08899 3.09654 3.08099 
12 1 3.80328 3.80246 3.7931 
46 1 0.743358 0.720533 0.698561 
47 1 2.26357 2.27113 2.25194 
48 1 1.56445 1.55811 1.5378 
19 1 4.54777 4.54414 6.22562 
20 1 3.01531 3.01774 7.7706 
21 1 3.72388 3.72362 7.0562 
31 1 0.664094 0.706703 10.1255 
32 1 2.18839 2.20248 8.59989 
33 1 1.47317 1.50061 9.3163 
16 1 4.54651 6.22479 4.53314 
17 1 3.01028 7.76106 2.9957 
18 1 3.71902 7.05236 3.70553 
25 1 0.648962 10.114 0.682528 
26 1 2.18212 8.58687 2.17371 
27 1 1.46353 9.30259 1.47467 
51 3 3.70379 7.34014 0.12599 
4 1 4.61379 6.167 6.14311 
5 1 3.06337 7.71608 7.60973 
6 1 3.77902 7.00478 6.91177 
37 1 0.712025 10.0686 9.99543 
38 1 2.35371 8.3462 8.71071 
39 1 1.51653 9.24155 9.27294 
49 2 2.83154 7.76598 9.52006 
50 2 4.1072 7.80408 10.4345 
13 1 6.2334 4.54133 4.53642 
14 1 7.77066 3.01018 2.99642 
15 1 7.06075 3.71737 3.70742 
28 1 10.1051 0.679218 0.636508 
29 1 8.59592 2.18651 2.16779 
30 1 9.30426 1.47873 1.44916 
1 1 6.16465 4.60964 6.1626 
2 1 7.67942 3.09544 7.68766 
3 1 6.97005 3.80442 6.97376 
40 1 10.0397 0.740991 10.0684 
41 1 8.5043 2.27133 8.51589 
42 1 9.21137 1.56665 9.23085 
7 1 6.17182 6.15468 4.6028 
8 1 7.67915 7.678 3.0799 
9 1 6.973 6.96522 3.79318 
43 1 10.0644 10.0154 0.69702 
44 1 8.5061 8.50175 2.25017 
45 1 9.22212 9.19747 1.5366 
22 1 6.23153 6.22723 6.22751 
23 1 7.76424 7.75641 7.7711 
24 1 7.05604 7.04957 7.05795 
34 1 10.0763 10.1049 10.13 
35 1 8.58185 8.58157 8.60126 
36 1 9.28323 9.29627 9.31859 
ITEM: TIMESTEP
150
ITEM: NUMBER OF ATOMS
51
ITEM: BOX BOUNDS pp pp pp
-7.8342617198656772e-04 1.1000783426172001e+01
1.2130702445113724e-02 1.0989869297554886e+01
-2.2101696872496385e-02 1.1022101696872507e+01
ITEM: ATOMS id type x y z 
10 1 4.61516 4.60321 4.60238 
11 1 3.08897 3.09692 3.0815 
12 1 3.80343 3.80254 3.7936 
46 1 0.744013 0.720931 0.699006 
47 1 2.26353 2.27158 2.2526 
48 1 1.56497 1.55846 1.53835 
19 1 4.54788 4.54469 6.22522 
20 1 3.01558 3.01828 7.77007 
21 1 3.72379 3.72455 7.05542 
31 1 0.66461 0.70679 10.124 
32 1 2.18829 2.20359 8.59919 
33 1 1.47359 1.50124 9.31548 
16 1 4.54616 6.22523 4.53369 
17 1 3.0101 7.76096 2.99564 
18 1 3.71859 7.05226 3.70586 
25 1 0.648342 10.114 0.683754 
26 1 2.1819 8.58672 2.17408 
27 1 1.46265 9.30246 1.47598 
51 3 3.70314 7.33974 0.12666 
4 1 4.61254 6.1686 6.14162 
5 1 3.0621 7.71683 7.60904 
6 1 3.77713 7.00689 6.90944 
37 1 0.710917 10.0691 9.99199 
38 1 2.35522 8.34304 8.71439 
39 1 1.51679 9.24025 9.27309 
49 2 2.83202 7.76253 9.52458 
50 2 4.11001 7.80383 10.4353 
13 1 6.23363 4.54138 4.53634 
14 1 7.77106 3.01019 2.9969 
15 1 7.06091 3.71739 3.70719 
28 1 10.105 0.680417 0.635908 
29 1 8.59629 2.18668 2.16816 
30 1 9.30445 1.47925 1.44917 
1 1 6.16421 4.60993 6.16258 
2 1 7.67947 3.09579 7.6869 
3 1 6.96983 3.80484 6.97351 
40 1 10.039 0.742337 10.0687 
41 1 8.5042 2.27183 8.51517 
42 1 9.21108 1.56782 9.23083 
7 1 6.17246 6.15421 4.60308 
8 1 7.67917 7.67805 3.08055 
9 1 6.97337 6.96439 3.79314 
43 1 10.065 10.0137 0.697179 
44 1 8.50626 8.50143 2.25082 
45 1 9.22266 9.19616 1.53685 
22 1 6.23094 6.22744 6.22707 
23 1 7.76405 7.75593 7.77035 
24 1 7.05561 7.04919 7.0577 
34 1 10.0769 10.1038 10.1287 
35 1 8.58146 8.58111 8.60054 
36 1 9.28301 9.2954 9.31794 
ITEM: TIMESTEP
160
ITEM: NUMBER OF ATOMS
51
ITEM: BOX BOUNDS pp pp pp
-1.6411223910468768e-03 1.1001641122391062e+01
1.1265142816035840e-02 1.0990734857183964e+01
-2.1597735867929860e-02 1.1021597735867939e+01
ITEM: ATOMS id type x y z 
10 1 4.61532 4.60278 4.60262 
11 1 3.08852 3.09668 3.08181 
12 1 3.80352 3.80191 3.7939 
46 1 0.744053 0.719927 0.699143 
47 1 2.26311 2.2709 2.25286 
48 1 1.56481 1.55801 1.53881 
19 1 4.5474 4.54507 6.22482 
20 1 3.01508 3.01842 7.76948 
21 1 3.72412 3.72413 7.05539 