LAMMPS (3 Mar 2020)
Reading data file ...
  orthogonal box = (0 0 0) to (11 11.002 11)
  2 by 2 by 2 MPI processor grid
  reading atoms ...
  51 atoms
  read_data CPU = 0.0151944 secs
WARNING: Using 'neigh_modify every 1 delay 0 check yes' setting during minimization (../min.cpp:190)
WARNING: Total cutoff < 2*bond cutoff. May need to use an increased neighbor list skin. (../pair_reaxc.cpp:413)
Neighbor list info ...
  update every 1 steps, delay 0 steps, check yes
  max neighbors/atom: 2000, page size: 100000
  master list distance cutoff = 9.5
  ghost atom cutoff = 9.5
  binsize = 4.75, bins = 3 3 3
  2 neighbor lists, perpetual/occasional/extra = 2 0 0
  (1) pair reax/c, perpetual
      attributes: half, newton off, ghost
      pair build: half/bin/newtoff/ghost
      stencil: half/ghost/bin/3d/newtoff
      bin: standard
  (2) fix qeq/reax, perpetual, copy from (1)
      attributes: half, newton off, ghost
      pair build: copy
      stencil: none
      bin: none
Setting up cg style minimization ...
  Unit style    : real
  Current step  : 0
Per MPI rank memory allocation (min/avg/max) = 19.03 | 19.29 | 19.6 Mbytes
Step Temp E_pair E_mol TotEng Press 
       0            0   -8789.2303            0   -8789.2303     801.4489 
      40            0   -8831.4116            0   -8831.4116    13444.751 
Loop time of 0.662863 on 8 procs for 40 steps with 51 atoms

99.4% CPU use with 8 MPI tasks x no OpenMP threads

Minimization stats:
  Stopping criterion = energy tolerance
  Energy initial, next-to-last, final = 
        -8789.23025576     -8831.41148235     -8831.41156037
  Force two-norm initial, final = 490.836 165.489
  Force max component initial, final = 207.654 44.4829
  Final line search alpha, max atom move = 7.02398e-05 0.00312447
  Iterations, force evaluations = 40 230

MPI task timing breakdown:
Section |  min time  |  avg time  |  max time  |%varavg| %total
---------------------------------------------------------------
Pair    | 0.48941    | 0.49683    | 0.50798    |   0.8 | 74.95
Neigh   | 0          | 0          | 0          |   0.0 |  0.00
Comm    | 0.0043661  | 0.015534   | 0.022959   |   4.5 |  2.34
Output  | 5.8189e-05 | 7.9492e-05 | 0.00014967 |   0.0 |  0.01
Modify  | 0.14888    | 0.14894    | 0.14898    |   0.0 | 22.47
Other   |            | 0.00148    |            |       |  0.22

Nlocal:    6.375 ave 8 max 6 min
Histogram: 6 0 0 0 0 1 0 0 0 1
Nghost:    626 ave 642 max 611 min
Histogram: 1 1 0 1 2 0 0 2 0 1
Neighs:    837.375 ave 1033 max 784 min
Histogram: 6 0 0 0 0 1 0 0 0 1

Total # of neighbors = 6699
Ave neighs/atom = 131.353
Neighbor list builds = 0
Dangerous builds = 0
WARNING: Using 'neigh_modify every 1 delay 0 check yes' setting during minimization (../min.cpp:190)
WARNING: Total cutoff < 2*bond cutoff. May need to use an increased neighbor list skin. (../pair_reaxc.cpp:413)
Setting up cg style minimization ...
  Unit style    : real
  Current step  : 40
Per MPI rank memory allocation (min/avg/max) = 19.03 | 19.29 | 19.6 Mbytes
Step Temp E_pair E_mol TotEng Press 
      40            0   -8831.4116            0   -8831.4116    13444.751 
      41            0   -8831.4116            0   -8831.4116    13443.485 
Loop time of 0.0254502 on 8 procs for 1 steps with 51 atoms

99.3% CPU use with 8 MPI tasks x no OpenMP threads

Minimization stats:
  Stopping criterion = energy tolerance
  Energy initial, next-to-last, final = 
        -8831.41156037     -8831.41156037     -8831.41161576
  Force two-norm initial, final = 165.489 165.473
  Force max component initial, final = 44.4829 44.4776
  Final line search alpha, max atom move = 7.02517e-05 0.00312463
  Iterations, force evaluations = 1 8

MPI task timing breakdown:
Section |  min time  |  avg time  |  max time  |%varavg| %total
---------------------------------------------------------------
Pair    | 0.018957   | 0.019211   | 0.019664   |   0.2 | 75.48
Neigh   | 0          | 0          | 0          |   0.0 |  0.00
Comm    | 0.00016576 | 0.0006205  | 0.00087418 |   0.0 |  2.44
Output  | 0          | 0          | 0          |   0.0 |  0.00
Modify  | 0.0055099  | 0.0055132  | 0.0055165  |   0.0 | 21.66
Other   |            | 0.0001056  |            |       |  0.41

Nlocal:    6.375 ave 8 max 6 min
Histogram: 6 0 0 0 0 1 0 0 0 1
Nghost:    626 ave 642 max 611 min
Histogram: 1 1 0 1 2 0 0 2 0 1
Neighs:    841.375 ave 1048 max 784 min
Histogram: 5 1 0 0 1 0 0 0 0 1

Total # of neighbors = 6731
Ave neighs/atom = 131.98
Neighbor list builds = 0
Dangerous builds = 0
WARNING: Using 'neigh_modify every 1 delay 0 check yes' setting during minimization (../min.cpp:190)
WARNING: Total cutoff < 2*bond cutoff. May need to use an increased neighbor list skin. (../pair_reaxc.cpp:413)
Setting up cg style minimization ...
  Unit style    : real
  Current step  : 41
WARNING: Energy due to 3 extra global DOFs will be included in minimizer energies
Per MPI rank memory allocation (min/avg/max) = 19.03 | 19.29 | 19.6 Mbytes
Step Temp E_pair E_mol TotEng Press Volume 
      41            0   -8831.4116            0   -8831.4116    13443.485     1331.242 
    2200            0   -8897.0345            0   -8897.0345    276.87819    1349.9006 
Loop time of 7.72783 on 8 procs for 2159 steps with 51 atoms

99.4% CPU use with 8 MPI tasks x no OpenMP threads

Minimization stats:
  Stopping criterion = linesearch alpha is zero
  Energy initial, next-to-last, final = 
        -8831.41161576     -8897.03447947     -8897.03447947
  Force two-norm initial, final = 481.645 27.5732
  Force max component initial, final = 273.084 6.51573
  Final line search alpha, max atom move = 1.32573e-11 8.63807e-11
  Iterations, force evaluations = 2159 2994

MPI task timing breakdown:
Section |  min time  |  avg time  |  max time  |%varavg| %total
---------------------------------------------------------------
Pair    | 6.2739     | 6.3483     | 6.498      |   2.9 | 82.15
Neigh   | 0          | 0          | 0          |   0.0 |  0.00
Comm    | 0.054306   | 0.20435    | 0.27906    |  16.3 |  2.64
Output  | 0.0034453  | 0.004538   | 0.0081906  |   2.1 |  0.06
Modify  | 1.1123     | 1.1129     | 1.1134     |   0.0 | 14.40
Other   |            | 0.05772    |            |       |  0.75

Nlocal:    6.375 ave 8 max 6 min
Histogram: 6 0 0 0 0 1 0 0 0 1
Nghost:    626 ave 642 max 611 min
Histogram: 1 1 0 1 2 0 0 2 0 1
Neighs:    841.375 ave 1048 max 784 min
Histogram: 5 1 0 0 1 0 0 0 0 1

Total # of neighbors = 6731
Ave neighs/atom = 131.98
Neighbor list builds = 0
Dangerous builds = 0
WARNING: Using 'neigh_modify every 1 delay 0 check yes' setting during minimization (../min.cpp:190)
WARNING: Total cutoff < 2*bond cutoff. May need to use an increased neighbor list skin. (../pair_reaxc.cpp:413)
Setting up cg style minimization ...
  Unit style    : real
  Current step  : 2200
Per MPI rank memory allocation (min/avg/max) = 19.03 | 19.29 | 19.6 Mbytes
Step Temp E_pair E_mol TotEng Press 
    2200            0   -8897.0345            0   -8897.0345    276.87819 
    2285            0   -8919.9668            0   -8919.9668    4958.3084 
Loop time of 1.37093 on 8 procs for 85 steps with 51 atoms

99.4% CPU use with 8 MPI tasks x no OpenMP threads

Minimization stats:
  Stopping criterion = energy tolerance
  Energy initial, next-to-last, final = 
        -8897.03447947     -8919.96669455      -8919.9667774
  Force two-norm initial, final = 25.86 19.6693
  Force max component initial, final = 5.25406 5.23404
  Final line search alpha, max atom move = 0.000596631 0.00312279
  Iterations, force evaluations = 85 489

MPI task timing breakdown:
Section |  min time  |  avg time  |  max time  |%varavg| %total
---------------------------------------------------------------
Pair    | 1.03       | 1.0404     | 1.0517     |   0.7 | 75.89
Neigh   | 0          | 0          | 0          |   0.0 |  0.00
Comm    | 0.01097    | 0.022313   | 0.032608   |   4.9 |  1.63
Output  | 0.00015276 | 0.00020069 | 0.00037008 |   0.0 |  0.01
Modify  | 0.30487    | 0.30502    | 0.30514    |   0.0 | 22.25
Other   |            | 0.003029   |            |       |  0.22

Nlocal:    6.375 ave 8 max 6 min
Histogram: 6 0 0 0 0 1 0 0 0 1
Nghost:    614.125 ave 624 max 606 min
Histogram: 1 0 2 1 1 0 2 0 0 1
Neighs:    841.125 ave 1040 max 787 min
Histogram: 6 0 0 0 1 0 0 0 0 1

Total # of neighbors = 6729
Ave neighs/atom = 131.941
Neighbor list builds = 0
Dangerous builds = 0
WARNING: Using 'neigh_modify every 1 delay 0 check yes' setting during minimization (../min.cpp:190)
WARNING: Total cutoff < 2*bond cutoff. May need to use an increased neighbor list skin. (../pair_reaxc.cpp:413)
Setting up cg style minimization ...
  Unit style    : real
  Current step  : 2285
WARNING: Energy due to 3 extra global DOFs will be included in minimizer energies
Per MPI rank memory allocation (min/avg/max) = 19.03 | 19.29 | 19.6 Mbytes
Step Temp E_pair E_mol TotEng Press Volume 
    2285            0   -8919.9668            0   -8919.9668    4958.3084    1349.9006 
    2545            0   -8921.2662            0   -8921.2662   -149.20404    1352.0869 
Loop time of 1.04614 on 8 procs for 260 steps with 51 atoms

99.4% CPU use with 8 MPI tasks x no OpenMP threads

Minimization stats:
  Stopping criterion = energy tolerance
  Energy initial, next-to-last, final = 
         -8919.9667774     -8921.26607768     -8921.26615452
  Force two-norm initial, final = 170.727 16.2896
  Force max component initial, final = 108.415 4.9043
  Final line search alpha, max atom move = 1.80952e-05 8.87444e-05
  Iterations, force evaluations = 260 410

MPI task timing breakdown:
Section |  min time  |  avg time  |  max time  |%varavg| %total
---------------------------------------------------------------
Pair    | 0.86225    | 0.87058    | 0.88539    |   1.0 | 83.22
Neigh   | 0          | 0          | 0          |   0.0 |  0.00
Comm    | 0.0073438  | 0.022126   | 0.030458   |   6.0 |  2.12
Output  | 0.00041342 | 0.00053293 | 0.00094972 |   0.0 |  0.05
Modify  | 0.14519    | 0.14521    | 0.14523    |   0.0 | 13.88
Other   |            | 0.007686   |            |       |  0.73

Nlocal:    6.375 ave 8 max 6 min
Histogram: 6 0 0 0 0 1 0 0 0 1
Nghost:    614.125 ave 628 max 602 min
Histogram: 1 1 0 1 2 1 0 0 1 1
Neighs:    838.625 ave 1033 max 784 min
Histogram: 5 1 0 0 0 1 0 0 0 1

Total # of neighbors = 6709
Ave neighs/atom = 131.549
Neighbor list builds = 0
Dangerous builds = 0
WARNING: Using 'neigh_modify every 1 delay 0 check yes' setting during minimization (../min.cpp:190)
WARNING: Total cutoff < 2*bond cutoff. May need to use an increased neighbor list skin. (../pair_reaxc.cpp:413)
Setting up cg style minimization ...
  Unit style    : real
  Current step  : 2545
Per MPI rank memory allocation (min/avg/max) = 19.03 | 19.29 | 19.6 Mbytes
Step Temp E_pair E_mol TotEng Press 
    2545            0   -8921.2662            0   -8921.2662   -149.20404 
    2618            0   -8923.5766            0   -8923.5766    -2064.501 
Loop time of 1.61581 on 8 procs for 73 steps with 51 atoms

99.4% CPU use with 8 MPI tasks x no OpenMP threads

Minimization stats:
  Stopping criterion = energy tolerance
  Energy initial, next-to-last, final = 
        -8921.26615452     -8923.57655614     -8923.57662001
  Force two-norm initial, final = 15.3322 49.1311
  Force max component initial, final = 4.9043 12.9166
  Final line search alpha, max atom move = 0.000658351 0.00850367
  Iterations, force evaluations = 73 592

MPI task timing breakdown:
Section |  min time  |  avg time  |  max time  |%varavg| %total
---------------------------------------------------------------
Pair    | 1.2423     | 1.2489     | 1.2652     |   0.7 | 77.29
Neigh   | 0          | 0          | 0          |   0.0 |  0.00
Comm    | 0.010622   | 0.026873   | 0.033552   |   5.0 |  1.66
Output  | 0.00012459 | 0.0001646  | 0.00030853 |   0.0 |  0.01
Modify  | 0.33638    | 0.33652    | 0.33663    |   0.0 | 20.83
Other   |            | 0.003333   |            |       |  0.21

Nlocal:    6.375 ave 8 max 6 min
Histogram: 6 0 0 0 0 1 0 0 0 1
Nghost:    611 ave 619 max 602 min
Histogram: 1 1 0 1 1 0 2 0 0 2
Neighs:    838.125 ave 1033 max 784 min
Histogram: 5 1 0 0 1 0 0 0 0 1

Total # of neighbors = 6705
Ave neighs/atom = 131.471
Neighbor list builds = 0
Dangerous builds = 0
WARNING: Total cutoff < 2*bond cutoff. May need to use an increased neighbor list skin. (../pair_reaxc.cpp:413)
Setting up Verlet run ...
  Unit style    : real
  Current step  : 0
  Time step     : 0.25
Per MPI rank memory allocation (min/avg/max) = 17.9 | 18.17 | 18.47 Mbytes
Step Temp TotEng KinEng PotEng Press 
       0          300   -8878.8645    44.712151   -8923.5766   -552.84213 
     200    204.47749   -8860.3921    30.475427   -8890.8676   -9297.2787 
     400     321.5609   -8831.5361    47.925599   -8879.4617    13322.728 
     600    308.12136   -8827.1838    45.922562   -8873.1064   -31176.407 
     800    270.65138   -8836.4454    40.338017   -8876.7834    9120.8886 
    1000    330.37071   -8822.8293    49.238617   -8872.0679   -39959.642 
    1200    282.41403   -8837.2254    42.091129   -8879.3166   -34368.467 
    1400    269.81923   -8835.9242    40.213993   -8876.1382   -19600.557 
    1600    307.69041   -8823.6199    45.858333   -8869.4782   -2939.5918 
    1800    337.00746   -8829.9534    50.227761   -8880.1812    14131.042 
    2000    202.73167   -8849.3876    30.215229   -8879.6028    3276.8038 
    2200    277.81553   -8839.5647    41.405766   -8880.9705    60193.033 
    2400    294.93688   -8830.3063    43.957541   -8874.2639    11532.545 
    2600    328.06781   -8833.4299    48.895391   -8882.3253   -7368.6404 
    2800    311.30288   -8833.3528    46.396738   -8879.7495   -35329.394 
    3000    334.07142   -8825.3737    49.790172   -8875.1638    -27410.44 
    3200    261.13501   -8841.2017    38.919693   -8880.1214    24134.241 
    3400    339.51702   -8826.7459    50.601787   -8877.3477   -11126.974 
    3600    331.46112   -8819.8406    49.401132   -8869.2417    15269.609 
    3800     320.7733   -8828.5563    47.808214   -8876.3645   -25725.944 
    4000     237.9516   -8836.0766    35.464426    -8871.541    2651.7964 
    4200     251.8994   -8833.0038    37.543213    -8870.547   -58426.643 
    4400    273.57253   -8837.4833    40.773387   -8878.2567    21241.475 
    4600    258.83159   -8839.4861     38.57639   -8878.0625    2779.2982 
    4800    346.51711   -8823.3647    51.645085   -8875.0098   -3708.7422 
    5000    254.07739   -8839.2988    37.867822   -8877.1667   -421.24096 
    5200     319.0401   -8842.9311    47.549897    -8890.481    7089.1757 
    5400    308.74979   -8834.5819    46.016224   -8880.5982   -25945.604 
    5600    372.77538   -8815.2414     55.55863      -8870.8   -27368.363 
    5800    274.08452   -8834.5991    40.849695   -8875.4488    5159.6109 
    6000    306.09556   -8835.2031    45.620635   -8880.8237   -18866.185 
    6200     327.5809   -8824.9467    48.822822   -8873.7696    24600.586 
    6400    243.13559   -8842.5059    36.237051   -8878.7429   -48309.411 
    6600    315.01449   -8829.7005    46.949918   -8876.6505   -31007.801 
    6800    265.56272   -8832.8216    39.579602   -8872.4012   -5604.8306 
    7000    275.86698   -8844.5938    41.115354   -8885.7092   -9476.3477 
    7200    307.35154   -8829.0842    45.807828   -8874.8921    118.24188 
    7400    286.00103   -8825.9099    42.625737   -8868.5356   -30328.895 
    7600    332.68588   -8825.2259    49.583671   -8874.8095   -16919.989 
    7800    252.63632   -8838.0789    37.653044   -8875.7319   -1718.0495 
    8000    349.83492   -8825.2601    52.139573   -8877.3997   -10306.243 
    8200     263.0391   -8842.9163     39.20348   -8882.1198   -18548.278 
    8400    325.47749   -8829.3819    48.509329   -8877.8912     -9771.24 
    8600    234.52231   -8839.1891    34.953322   -8874.1424    7069.2823 
    8800    318.18944   -8825.8721    47.423115   -8873.2952    13596.333 
    9000    271.88603   -8835.3295     40.52203   -8875.8516    8478.1271 
    9200    312.55974   -8835.2985     46.58406   -8881.8825     -4488.15 
    9400     301.1557   -8829.9949    44.884397   -8874.8793     7016.338 
    9600    275.62109   -8835.8226    41.078706   -8876.9013    32695.016 
    9800    239.92977   -8848.3421    35.759254   -8884.1013    23980.575 
   10000    330.32519   -8830.4679    49.231833   -8879.6997   -10875.338 
   10200    353.29057   -8828.1955    52.654604   -8880.8501   -8608.2365 
   10400    371.00699    -8824.767    55.295068    -8880.062      29429.1 
   10600    271.42077   -8839.8074    40.452689   -8880.2601    -3706.772 
   10800    305.96668   -8831.5195    45.601428   -8877.1209    -6528.437 
   11000    316.16264   -8821.8185    47.121038   -8868.9396    531.25125 
   11200    279.15307     -8841.85    41.605114   -8883.4551    -2834.066 
   11400    312.36377   -8842.8241    46.554854    -8889.379   -8969.4218 
   11600    365.71091   -8829.9488    54.505737   -8884.4546   -15683.015 
   11800    282.58413   -8842.7551     42.11648   -8884.8716    11882.288 
   12000    237.55139    -8843.645    35.404779   -8879.0498      20206.3 
   12200     318.7708   -8829.7873     47.50976    -8877.297   -10744.595 
   12400    327.27607   -8825.9719    48.777389   -8874.7492    1648.4568 
   12600    290.95382   -8841.2389    43.363903   -8884.6028    5006.9098 
   12800    317.91955   -8831.8389    47.382889   -8879.2218    5600.6353 
   13000     313.1169   -8815.4289      46.6671    -8862.096   -14099.741 
   13200    300.18362   -8828.4655    44.739517    -8873.205     9577.885 
   13400    277.74637   -8834.4322    41.395458   -8875.8276   -2110.4033 
   13600    312.43367   -8817.2145     46.56527   -8863.7797     27092.49 
   13800    317.22041   -8829.5333    47.278689    -8876.812    2347.9979 
   14000    332.85474   -8835.2998    49.608838   -8884.9086   -15679.341 
   14200    281.51375   -8845.1698    41.956951   -8887.1267   -9121.8353 
   14400    275.62898   -8829.3069    41.079881   -8870.3867   -2674.3064 
   14600    323.80978   -8829.8823    48.260772   -8878.1431    33164.332 
   14800    255.41438   -8843.7389    38.067087   -8881.8059    3805.6977 
   15000    339.78558   -8825.7591    50.641814   -8876.4009   -18492.008 
   15200    285.62986   -8833.7505    42.570418   -8876.3209   -34245.074 
   15400    273.05536   -8831.1212    40.696308   -8871.8175   -16919.962 
   15600    321.02693   -8821.1928    47.846015   -8869.0388   -34380.698 
   15800    342.17754   -8832.1893    50.998313   -8883.1876    20036.321 
   16000    297.04807   -8839.0203    44.272193   -8883.2925   -1322.9828 
   16200    326.49806   -8826.3621    48.661434   -8875.0235    26844.162 
   16400    300.97772   -8830.9386     44.85787   -8875.7965    10430.216 
   16600    351.46286   -8827.8987    52.382201   -8880.2809    1561.6478 
   16800    284.77497   -8825.7757    42.443005   -8868.2187    38650.996 
   17000     328.8263   -8834.3816    49.008437     -8883.39    3773.7631 
   17200     289.8957   -8836.3115    43.206201   -8879.5177   -15472.508 
   17400    311.55026   -8821.3622    46.433608   -8867.7958    3073.8466 
   17600    306.19821   -8838.4843    45.635936   -8884.1202   -8411.0383 
   17800    309.32741   -8834.3323    46.102313   -8880.4346    21010.531 
   18000    354.47987   -8830.1776    52.831857   -8883.0094   -24498.133 
   18200    351.90025   -8821.8704    52.447391   -8874.3178   -13176.786 
   18400    278.54648   -8838.8307    41.514707   -8880.3454    3726.1136 
   18600    336.78008   -8830.5307    50.193873   -8880.7246    -23832.23 
   18800    308.90713    -8831.356    46.039674   -8877.3956    17877.302 
   19000    365.47983   -8831.8948    54.471297   -8886.3661    28350.488 
   19200    273.03619   -8840.0429    40.693451   -8880.7363   -6343.9626 
   19400    311.86265   -8832.1811    46.480166   -8878.6613   -7062.2263 
   19600    329.26396   -8829.7953    49.073666    -8878.869    -24578.52 
   19800    268.27612   -8838.1896    39.984008   -8878.1736   -6105.2376 
   20000    266.79169   -8833.4025    39.762768   -8873.1652   -25446.057 
   20200     299.9385   -8828.8796    44.702985   -8873.5826   -11792.058 
   20400    352.38407   -8831.8454    52.519499   -8884.3649     1237.664 
   20600    259.28216   -8845.1195    38.643543    -8883.763     3007.665 
   20800    305.76349   -8827.3193    45.571144   -8872.8905   -22126.926 
   21000    263.72317   -8833.6647    39.305433   -8872.9701   -10038.686 
   21200    231.29306   -8849.2685    34.472033   -8883.7405   -2303.2967 
   21400    262.01779   -8835.6726    39.051264   -8874.7239    257.26801 
   21600    285.75469   -8828.3157    42.589023   -8870.9047    31935.866 
   21800    330.99208   -8826.7263    49.331226   -8876.0575     3037.765 
   22000    238.94424   -8841.8155    35.612369   -8877.4279    520.95264 
   22200    316.16684   -8827.9312    47.121665   -8875.0528    4225.7362 
   22400     299.4278   -8832.0169     44.62687   -8876.6437    5058.0454 
   22600      303.053   -8840.8706    45.167172   -8886.0377     10957.64 
   22800    373.20449   -8822.5388    55.622584   -8878.1614     23066.88 
   23000    301.30616    -8835.755    44.906822   -8880.6619    -16955.78 
   23200    344.21075   -8825.4323    51.301343   -8876.7336     5020.881 
   23400    298.15167   -8823.8383    44.436675    -8868.275    13054.163 
   23600     299.3188   -8831.2157    44.610624   -8875.8264    3280.9587 
   23800    328.61851   -8834.9001    48.977469   -8883.8776   -25523.464 
   24000    261.68547   -8834.1245    39.001734   -8873.1262    10888.394 
   24200    341.55695   -8829.6242     50.90582     -8880.53    28007.675 
   24400     253.0226   -8839.8809    37.710615   -8877.5915   -19912.709 
   24600    306.05148     -8829.06    45.614066    -8874.674   -3555.8356 
   24800    325.08669   -8824.6849    48.451083    -8873.136    5399.1254 
   25000    274.34703   -8839.8779     40.88882   -8880.7667   -4117.8939 
   25200    304.98637   -8836.1582    45.455322   -8881.6135    6442.3018 
   25400    323.57506   -8824.1692    48.225789    -8872.395   -11348.756 
   25600    365.11406   -8820.8503    54.416783   -8875.2671   -2422.5675 
   25800    243.80383   -8832.5313    36.336646    -8868.868   -14722.859 
   26000    242.84959   -8838.7937    36.194425   -8874.9881     14078.33 
   26200     298.0844   -8835.8396    44.426648   -8880.2662    13691.109 
   26400    334.08987   -8823.7701    49.792922    -8873.563    13747.567 
   26600    307.27355   -8820.2718    45.796204    -8866.068   -12035.967 
   26800    263.63832   -8836.2132    39.292788    -8875.506    5409.4574 
   27000    320.74597   -8821.8125     47.80414   -8869.6166   -5241.8209 
   27200    271.38499   -8839.7314    40.447355   -8880.1787   -16742.815 
   27400     304.6547    -8831.855    45.405889   -8877.2609    22747.499 
   27600    272.45789   -8825.1979    40.607261   -8865.8051    51343.173 
   27800    346.07833   -8813.5499    51.579688   -8865.1296        24150 
   28000     265.7983   -8832.4393    39.614711    -8872.054   -58392.115 
   28200    335.14541   -8824.7159     49.95024   -8874.6661   -16115.991 
   28400    328.56691   -8826.0393    48.969778   -8875.0091   -20161.526 
   28600    265.62964   -8840.3686    39.589576   -8879.9581   -15731.698 
   28800    236.91983   -8824.7502     35.31065   -8860.0608    7992.8952 
   29000    289.56568   -8827.0376    43.157015   -8870.1947    9088.1067 
   29200    277.81327   -8836.5897    41.405429   -8877.9952    4522.1889 
   29400    369.27551   -8815.6919    55.037008   -8870.7289    7125.6145 
   29600    243.84818   -8837.2448    36.343256   -8873.5881   -3159.2061 
   29800    256.26745   -8829.8345    38.194229   -8868.0287   -3267.1998 
   30000     315.1793   -8821.0942    46.974481   -8868.0687    4281.3117 
   30200    281.04939   -8837.1892    41.887742    -8879.077   -17762.934 
   30400    263.04026   -8838.8249    39.203652   -8878.0285   -3512.1277 
   30600    383.54639   -8821.2977    57.163947   -8878.4617   -810.39589 
   30800    290.41508   -8833.7838     43.28361   -8877.0674   -12879.513 
   31000    357.16953    -8821.591    53.232726   -8874.8237    12509.708 
   31200    298.29872   -8814.2175    44.458591   -8858.6761   -11872.536 
   31400    303.15693   -8830.8696    45.182661   -8876.0522    -2956.195 
   31600     264.5725   -8840.7911    39.432018   -8880.2231   -1627.6597 
   31800    345.22285   -8826.6881    51.452187   -8878.1403     10933.59 
   32000    250.25228   -8830.6584    37.297726   -8867.9561    40295.906 
   32200    271.78018   -8844.7966    40.506254   -8885.3029   -15290.013 
   32400    244.74614   -8852.3949    36.477088    -8888.872    1767.4487 
   32600    302.64735    -8831.234    45.106712   -8876.3407   -23739.516 
   32800    295.75404   -8832.3206     44.07933   -8876.3999   -6539.6148 
   33000    249.33371   -8840.4412    37.160822    -8877.602   -1576.8894 
   33200    329.06706   -8827.5436    49.044319   -8876.5879   -11782.338 
   33400    248.22616   -8836.8762    36.995751   -8873.8719    29272.213 
   33600    261.69187   -8840.0844    39.002688   -8879.0871   -36229.881 
   33800    367.46167   -8824.3928    54.766672   -8879.1594    34187.462 
   34000    254.82406   -8837.2338    37.979106   -8875.2129    60958.981 
   34200    334.94914   -8826.4374    49.920989   -8876.3583    22378.623 
   34400    310.54018   -8823.3959    46.283064   -8869.6789    16257.388 
   34600     310.6389    -8833.998    46.297778   -8880.2958    9487.1014 
   34800      332.975   -8823.5628    49.626761   -8873.1895    -14194.15 
   35000     368.8454   -8819.8297    54.972904   -8874.8026     19326.61 
   35200    271.78566   -8837.9993    40.507071   -8878.5064   -6988.1254 
   35400    285.63799   -8832.6443    42.571629   -8875.2159   -4799.2971 
   35600    302.05618   -8825.3916    45.018605   -8870.4102     46192.75 
   35800    303.20479   -8830.7124    45.189794   -8875.9022   -34514.198 
   36000    278.75299   -8836.2734    41.545485   -8877.8189   -24038.934 
   36200    277.91185   -8827.5287    41.420122   -8868.9488   -30596.049 
   36400    351.59064   -8816.4424    52.401245   -8868.8436    62280.471 
   36600    240.19022   -8833.6144    35.798071   -8869.4125     1118.083 
   36800    277.80797   -8833.5997     41.40464   -8875.0043    -8692.427 
   37000    354.35769   -8817.6917    52.813648   -8870.5053      20665.1 
   37200    314.54291   -8835.3255    46.879633   -8882.2051   -18518.152 
   37400    310.95619   -8827.8784    46.345067   -8874.2234   -1904.5914 
   37600     308.3822   -8825.7565    45.961438   -8871.7179     -7045.52 
   37800    281.86179   -8840.0171    42.008823   -8882.0259     -10646.7 
   38000    309.77774   -8824.8916     46.16943    -8871.061    8787.3065 
   38200    313.52467   -8842.4464    46.727874   -8889.1742   -11956.211 
   38400    295.69505   -8837.0485    44.070539    -8881.119   -6346.6082 
   38600    321.24529   -8825.3658    47.878559   -8873.2443   -9864.2079 
   38800    249.86303    -8842.904    37.239712   -8880.1437    9665.6175 
   39000    274.43914   -8836.7932    40.902548   -8877.6958    4659.1824 
   39200    330.95748   -8828.3996    49.326069   -8877.7257    3294.7053 
   39400    262.80261    -8841.722    39.168234   -8880.8903    46488.379 
   39600    314.58499   -8831.5183    46.885905   -8878.4042   -3595.1916 
   39800     259.2112   -8833.3231    38.632967   -8871.9561    -8615.862 
   40000    263.50356   -8835.0972    39.272704     -8874.37   -20790.599 
   40200    335.45606   -8820.9169     49.99654   -8870.9134   -36584.609 
   40400    304.06091   -8837.7658    45.317391   -8883.0832   -11578.947 
   40600    304.60565   -8828.5993     45.39858   -8873.9978    22020.249 
   40800    328.25758   -8836.5396    48.923675   -8885.4633    13413.739 
   41000    295.20189   -8840.8274    43.997039   -8884.8244    1595.0267 
   41200    320.25256   -8828.6544    47.730603    -8876.385    16751.561 
   41400    302.36581   -8825.7258    45.064752   -8870.7906    23226.881 
   41600    290.33881   -8842.9988    43.272242   -8886.2711   -16597.646 
   41800     292.4337   -8831.2591    43.584465   -8874.8436   -11585.832 
   42000    298.76011   -8827.7132    44.527357   -8872.2406    5978.2659 
   42200    260.29668   -8833.5182    38.794749    -8872.313    4581.2122 
   42400    295.01117   -8832.5361    43.968614   -8876.5047   -2465.5588 
   42600    261.94434   -8839.2673    39.040316   -8878.3076    -11481.28 
   42800    376.47255    -8828.873    56.109658   -8884.9826    7667.9515 
   43000    299.83693   -8837.4147    44.687847   -8882.1025    9783.7876 
   43200    234.45786   -8839.1987    34.943718   -8874.1424   -22468.158 
   43400    365.80847   -8827.8644    54.520278   -8882.3847    2576.4065 
   43600    266.75606   -8839.0609    39.757457   -8878.8184   -10047.483 
   43800    268.92391   -8847.5239    40.080555   -8887.6045     9539.943 
   44000    291.14516   -8835.1004    43.392421   -8878.4928    7364.6458 
   44200    343.02188   -8824.8615    51.124153   -8875.9857    16597.588 
   44400    378.45152   -8819.6886    56.404605   -8876.0932   -23444.001 
   44600    284.64714   -8834.3199    42.423952   -8876.7439   -26864.538 
   44800    292.91571   -8836.8369    43.656304   -8880.4932    27244.789 
   45000    322.39806   -8821.3494    48.050369   -8869.3998    39047.389 
   45200    289.49628   -8835.9304    43.146671   -8879.0771   -9972.0063 
   45400    287.49323   -8830.7484    42.848135   -8873.5966   -9399.3272 
   45600    325.32766   -8825.8924    48.486997   -8874.3794   -32394.097 
   45800    284.06605   -8831.3517    42.337347    -8873.689   -13741.831 
   46000    311.37159   -8832.1448    46.406978   -8878.5517    17978.963 
   46200    349.79534   -8817.1513    52.133673    -8869.285   -7800.1618 
   46400     341.2947   -8831.0619    50.866733   -8881.9286   -24759.311 
   46600    266.50141   -8832.9851    39.719503   -8872.7046    23548.152 
   46800    265.82645   -8840.7046    39.618908   -8880.3235    5458.1976 
   47000    258.96276   -8840.4084     38.59594   -8879.0043   -4448.7852 
   47200    338.54014   -8828.0531    50.456192   -8878.5093   -24844.801 
   47400    222.26766    -8838.654    33.126884   -8871.7809    10909.765 
   47600     264.8543   -8839.5733    39.474018   -8879.0473   -11805.497 
   47800    319.95352   -8832.6348    47.686033   -8880.3208    8821.8771 
   48000    305.61987   -8831.7237    45.549739   -8877.2734   -18313.949 
   48200    352.39937   -8819.1904     52.52178   -8871.7121   -21056.105 
   48400    339.81329   -8837.8952    50.645943   -8888.5412   -22571.303 
   48600    285.71261   -8828.4407    42.582751   -8871.0235     50130.66 
   48800    307.35308   -8818.9386    45.808058   -8864.7466    19490.108 
   49000    257.17373   -8840.9914    38.329302   -8879.3207    18410.026 
   49200     293.7946   -8826.6983    43.787294   -8870.4856   -3784.6553 
   49400    354.11108   -8828.0888    52.776894   -8880.8657    17907.457 
   49600     295.0697   -8845.5779    43.977336   -8889.5552    21222.102 
   49800    311.31028   -8830.7482    46.397841    -8877.146   -27873.325 
   50000    320.68659    -8831.965    47.795291   -8879.7603   -17767.613 
   50200    255.22484   -8846.7871    38.038838    -8884.826   -8656.8626 
   50400    300.07471   -8831.8523    44.723285   -8876.5756    6503.3519 
   50600    327.59318   -8840.7332    48.824653   -8889.5579   -39061.703 
   50800    266.93714   -8838.7548    39.784446   -8878.5392    17953.369 
   51000    328.07361   -8830.4483    48.896256   -8879.3446    8337.4975 
   51200    251.69542   -8849.9192    37.512812    -8887.432    6014.6038 
   51400    322.71777   -8841.2795    48.098019   -8889.3776   -7183.4097 
   51600    280.67201   -8832.0854    41.831497   -8873.9169    6830.4756 
   51800    306.89263    -8822.362    45.739432   -8868.1014    28942.379 
   52000    289.18897   -8836.4602    43.100869   -8879.5611    1772.8252 
   52200    284.77414   -8833.1564    42.442881   -8875.5992    26662.925 
   52400    281.68044   -8826.7076    41.981794   -8868.6894    27332.615 
   52600    334.98792   -8828.6673    49.926768    -8878.594    3879.9089 
   52800    234.03413   -8846.4438    34.880564   -8881.3244   -27397.894 
   53000    296.31103   -8835.8491    44.162345   -8880.0114   -8337.3186 
   53200    308.67014   -8828.9579    46.004353   -8874.9623    4159.8407 
   53400    263.43452   -8834.3776    39.262413     -8873.64     6668.294 
   53600    284.04327   -8841.6776    42.333952   -8884.0115   -8144.9845 
   53800    302.71293     -8823.73    45.116487   -8868.8465    15540.495 
   54000    256.14042   -8835.3739    38.175297   -8873.5492    34303.766 
   54200    268.56954   -8844.4411    40.027739   -8884.4688    4658.9519 
   54400     340.2675   -8831.6529    50.713639   -8882.3665   -15947.169 
   54600    293.99284   -8830.7548    43.816841   -8874.5716    5862.7035 
   54800    264.30686   -8847.0434    39.392427   -8886.4359   -3077.2409 
   55000    256.49053   -8858.8211    38.227477   -8897.0485    53852.086 
   55200     282.1772   -8837.9842    42.055832   -8880.0401     7254.105 
   55400    278.74753   -8833.5951    41.544672   -8875.1398    15594.349 
   55600     269.9584   -8847.1864    40.234735   -8887.4211   -1489.4814 
   55800    301.41794   -8828.6363    44.923482   -8873.5598   -1007.5894 
   56000    299.46304   -8833.3102    44.632122   -8877.9423   -6306.6867 
   56200     296.5728    -8846.697    44.201359   -8890.8983   -32321.721 
   56400    274.74556   -8837.9622    40.948216   -8878.9104    19867.548 
   56600     320.6914   -8826.1206    47.796007   -8873.9166      46759.3 
   56800    297.46694   -8840.4385    44.334622   -8884.7731   -18655.546 
   57000     296.7554   -8837.5819    44.228574   -8881.8105   -13990.118 
   57200    334.06446    -8824.017    49.789135   -8873.8061    37827.188 
   57400    278.47423   -8841.9607    41.503939   -8883.4646    22805.417 
   57600    314.73951   -8840.9332    46.908934   -8887.8421   -1490.1129 
   57800    414.56711   -8822.9024     61.78729   -8884.6897    15909.794 
   58000    294.05336   -8841.9474     43.82586   -8885.7733   -21156.139 
   58200    278.47023   -8839.6387    41.503344    -8881.142    20929.069 
   58400    354.52272   -8827.7958    52.838245    -8880.634   -38941.353 
   58600     298.2032   -8832.4727    44.444355   -8876.9171    2900.2376 
   58800    278.40198   -8839.2174    41.493172   -8880.7106   -2705.2895 
   59000    359.85499   -8823.0703    53.632969   -8876.7033    10851.639 
   59200    261.59655   -8831.4235    38.988482   -8870.4119    674.87445 
   59400    302.99606   -8835.8159    45.158685   -8880.9745    29268.838 
   59600    371.38684   -8815.5282    55.351681   -8870.8799   -3481.0218 
   59800     300.9203   -8825.3317    44.849312    -8870.181   -4516.1335 
   60000    299.67933   -8835.2046    44.664358    -8879.869    10506.899 
   60200    268.05649   -8839.4443    39.951274   -8879.3956    12010.357 
   60400     338.7753   -8825.5419    50.491241   -8876.0332    -17595.91 
   60600    294.80038   -8838.7418    43.937197    -8882.679    7666.2058 
   60800    326.75137   -8840.4656    48.699189   -8889.1648    14491.937 
   61000    377.64565   -8811.3946    56.284498   -8867.6791    13473.537 
   61200    297.26037   -8833.4614    44.303835   -8877.7652     6397.638 
   61400    256.94461   -8840.9011    38.295154   -8879.1963   -23570.984 
   61600    333.70463   -8823.7067    49.735506   -8873.4422   -15115.716 
   61800    290.41839   -8837.9573    43.284103   -8881.2414    42919.942 
   62000    241.93344   -8842.7231    36.057882    -8878.781    30894.187 
   62200    277.89265   -8843.9408    41.417261    -8885.358   -8168.7259 
   62400    318.49898   -8830.6319    47.469248   -8878.1011    23285.746 
   62600    312.52009   -8824.7851    46.578152   -8871.3633    20597.413 
   62800    304.46081   -8826.2264    45.376992   -8871.6034   -21922.897 
   63000    262.93877   -8841.2717    39.188526   -8880.4602   -27634.856 
   63200    380.73541   -8826.4952    56.744996   -8883.2402    4953.1071 
   63400    329.52657   -8834.3463    49.112806   -8883.4591   -6554.7251 
   63600    310.97851   -8837.7854    46.348394   -8884.1337    14140.932 
   63800    331.79807   -8825.9468    49.451352   -8875.3982   -635.73332 
   64000    278.41771   -8834.3146    41.495516   -8875.8101    23749.393 
   64200    281.01191    -8845.528    41.882157   -8887.4102   -9299.6582 
   64400    327.88416    -8827.545     48.86802    -8876.413   -20367.555 
   64600    313.31061   -8833.9033     46.69597   -8880.5993   -12018.769 
   64800     310.4105   -8835.2493    46.263737    -8881.513    22759.049 
   65000    298.65034   -8829.7211    44.510997   -8874.2321   -32683.635 
   65200    314.85998   -8844.8507    46.926889   -8891.7776    29582.592 
   65400     297.1692    -8844.405    44.290246   -8888.6953    17381.432 
   65600    288.33429   -8835.5979    42.973487   -8878.5713    11321.137 
   65800    289.70259   -8832.8721     43.17742   -8876.0496   -6944.9443 
   66000    288.56553   -8828.2633    43.007952   -8871.2712    37554.357 
   66200    321.22977   -8826.5751    47.876247   -8874.4514   -763.53674 
   66400    291.07237   -8843.6174    43.381572    -8886.999    14054.423 
   66600      353.743   -8833.1309    52.722034   -8885.8529   -18541.589 
   66800    387.96603   -8821.3765    57.822652   -8879.1991    -3222.726 
   67000     314.5304   -8836.2911    46.877769   -8883.1688    -24887.23 
   67200    307.91829   -8834.9314    45.892297   -8880.8237    11112.793 
   67400    309.89548     -8839.35    46.186979    -8885.537   -16160.205 
   67600    215.96478   -8846.4088      32.1875   -8878.5963    8118.3503 
   67800    286.10683   -8829.8203    42.641505   -8872.4618   -220.55179 
   68000    281.19644    -8838.466    41.909659   -8880.3757    14845.096 
   68200    248.69614   -8851.0605    37.065798   -8888.1263   -8217.9952 
   68400    386.62635   -8831.6366    57.622985   -8889.2596   -4524.7883 
   68600    340.77911   -8838.3586    50.789889   -8889.1485   -4418.2329 
   68800    227.65968   -8844.8048    33.930513   -8878.7353   -14565.059 
   69000    315.96955   -8824.8542    47.092261   -8871.9464    10814.064 
   69200    300.70443   -8840.5487    44.817139   -8885.3658    975.55319 
   69400    278.21255   -8838.8238    41.464938   -8880.2888   -6971.0244 
   69600    322.60006   -8836.3549    48.080476   -8884.4354    18091.113 
   69800    275.48734   -8830.9296    41.058772   -8871.9884   -2766.4949 
   70000    311.83088   -8822.1304     46.47543   -8868.6058   -48794.401 
   70200    323.33282   -8836.8039    48.189686   -8884.9936   -28758.157 
   70400    337.67885   -8831.2199    50.327825   -8881.5477   -10143.275 
   70600     406.4332   -8816.2319    60.575009   -8876.8069    18450.301 
   70800    264.12511   -8835.1519    39.365339   -8874.5172   -1527.8683 
   71000    319.54881   -8833.0432    47.625715   -8880.6689   -13533.319 
   71200    313.82544   -8827.6215    46.772701   -8874.3942     18676.62 
   71400    284.11466   -8839.1014    42.344592   -8881.4459    -22319.37 
   71600    295.51063   -8843.0394    44.043053   -8887.0824    4191.2164 
   71800    321.81522   -8824.8606    47.963502   -8872.8241   -4469.4516 
   72000    314.78128   -8840.0512     46.91516   -8886.9663    20381.625 
   72200    327.60663   -8836.4718    48.826657   -8885.2985    -2727.757 
   72400    349.84445   -8812.1784    52.140993   -8864.3194   -10678.854 
   72600    344.04692   -8833.5149    51.276926   -8884.7918   -1615.8366 
   72800    282.80126   -8842.5019    42.148842   -8884.6508   -4113.5176 
   73000    309.07812   -8830.9448    46.065159     -8877.01     37211.68 
   73200    311.91886   -8828.2555    46.488544    -8874.744    45139.815 
   73400    302.01776   -8838.7857    45.012878   -8883.7985    24237.423 
   73600    297.60858   -8833.1066    44.355732   -8877.4623   -18056.274 
   73800    320.16939   -8821.1882    47.718206   -8868.9064    36693.701 
   74000    282.31123   -8840.3276    42.075807   -8882.4034   -3491.8465 
   74200     323.5288   -8830.2307    48.218896   -8878.4496    -4950.929 
   74400    308.06042   -8827.1446     45.91348    -8873.058    20269.301 
   74600    258.32362   -8844.9602    38.500682   -8883.4609    17433.332 
   74800    349.87543   -8830.2373     52.14561   -8882.3829    17163.788 
   75000    373.01785    -8828.039    55.594768   -8883.6338   -27622.344 
   75200    289.82501   -8834.8847    43.195665   -8878.0804    22961.967 
   75400    281.83199     -8833.79    42.004381   -8875.7944   -36856.386 
   75600    288.48734    -8837.969    42.996299   -8880.9653   -15662.989 
   75800    291.83272   -8829.2831    43.494895   -8872.7779    -24004.99 
   76000    304.91042   -8826.8732    45.444002   -8872.3172    17476.278 
   76200     265.7992   -8838.8322    39.614846   -8878.4471    5955.4341 
   76400    337.66566   -8829.3237     50.32586   -8879.6496    26771.665 
   76600    326.97733   -8837.5737    48.732866   -8886.3065   -12798.646 
   76800     259.9834   -8840.0543    38.748056   -8878.8024   -18532.619 
   77000    336.09396   -8829.0668    50.091613   -8879.1584    9993.2748 
   77200    299.06843   -8835.8392    44.573309   -8880.4125    11421.151 
   77400    357.32593   -8819.0399    53.256036   -8872.2959    6471.7655 
   77600    283.10834   -8837.3749     42.19461   -8879.5695   -9546.1946 
   77800    289.51946   -8835.3509    43.150126    -8878.501    12421.171 
   78000    358.12703   -8823.5167    53.375433   -8876.8922     20217.74 
   78200     304.6001   -8834.3084    45.397752   -8879.7061   -11196.318 
   78400     269.7867   -8841.0559    40.209145   -8881.2651   -4948.1551 
   78600    244.91362   -8851.6116     36.50205   -8888.1137   -1576.1526 
   78800    301.51604   -8832.8612    44.938103   -8877.7993    10170.913 
   79000    310.13085   -8832.0744    46.222057   -8878.2965    26512.855 
   79200    218.58438   -8847.1415    32.577925   -8879.7194    36732.688 
   79400    344.44075   -8831.2553    51.335623   -8882.5909    3846.3015 
   79600    322.55652   -8836.5754    48.073986   -8884.6494    8627.7412 
   79800    220.88455   -8846.7212    32.920744   -8879.6419     14395.18 
   80000    287.19183   -8833.5224    42.803214   -8876.3256   -22664.238 
   80200    317.78402   -8832.3336     47.36269   -8879.6963    38700.663 
   80400    293.62498   -8844.1215    43.762014   -8887.8835    -27087.15 
   80600    250.91549   -8839.8876    37.396571   -8877.2842    14342.057 
   80800    275.99714   -8831.5498    41.134752   -8872.6845   -21722.671 
   81000    334.48393   -8838.8767    49.851654   -8888.7284    32112.666 
   81200    305.39255   -8845.8756     45.51586   -8891.3915   -19481.022 
   81400    283.47471   -8832.2394    42.249213   -8874.4886   -39247.364 
   81600    348.58822   -8828.4463    51.953763      -8880.4   -17495.364 
   81800    256.27147    -8844.199    38.194829   -8882.3938    3104.2849 
   82000     283.3827   -8831.8796      42.2355   -8874.1151   -6934.1825 
   82200    309.36001   -8832.6214    46.107171   -8878.7286   -2781.2333 
   82400    249.41813   -8844.3735    37.173404   -8881.5469    -23083.73 
   82600    364.67006   -8828.8539    54.350608   -8883.2045   -2456.4284 
   82800    241.81143   -8832.6832    36.039697   -8868.7229      5817.04 
   83000    257.33901    -8841.114    38.353935   -8879.4679   -32203.345 
   83200    305.78496    -8839.103    45.574344   -8884.6773   -3465.8758 
   83400    279.94415   -8833.4583    41.723016   -8875.1814    14227.502 
   83600    330.94274   -8833.8538    49.323873   -8883.1777    3690.7942 
   83800    228.66866   -8846.7276    34.080892   -8880.8085   -25867.985 
   84000    332.40842    -8828.878    49.542317   -8878.4203    31769.851 
   84200    365.74995   -8828.9966    54.511556   -8883.5081   -9742.5218 
   84400    313.92198   -8838.4283     46.78709   -8885.2154   -11042.227 
   84600    314.13133   -8820.8704    46.818292   -8867.6887    70293.027 
   84800    336.43844   -8821.5182    50.142954   -8871.6612    -33265.33 
   85000    286.74389   -8840.2006    42.736454    -8882.937    20408.685 
   85200     246.6523   -8833.7596    36.761182   -8870.5208    21093.171 
   85400    339.38057   -8824.3229    50.581451   -8874.9044    12689.694 
   85600     228.9118   -8838.2351     34.11713   -8872.3522   -34366.843 
   85800    304.89283   -8833.1736     45.44138    -8878.615   -47201.842 
   86000    302.74147   -8832.3634    45.120741   -8877.4842   -24777.009 
   86200    344.97319   -8824.9384    51.414978   -8876.3534    20972.256 
   86400    292.12952   -8827.7798    43.539131    -8871.319    14502.509 
   86600    290.05884   -8837.6367    43.230515   -8880.8672   -6430.5809 
   86800    264.65365   -8837.5949    39.444113    -8877.039    16291.037 
   87000    257.09594   -8833.5181    38.317709   -8871.8359   -20244.169 
   87200    396.84112   -8816.6105    59.145399   -8875.7559    -18187.26 
   87400    287.27016   -8832.3744    42.814889   -8875.1893   -24230.146 
   87600    318.16065   -8839.1319    47.418823   -8886.5507   -2039.3063 
   87800    328.25295   -8830.8792    48.922985   -8879.8022   -9067.3307 
   88000    277.93411   -8833.6166    41.423439     -8875.04    64499.032 
   88200    254.08651   -8841.4887    37.869181   -8879.3579   -9069.5527 
   88400     256.6619   -8849.4646    38.253018   -8887.7176   -20124.092 
   88600    297.65564   -8832.4368    44.362746   -8876.7995    23389.586 
   88800    350.66755   -8828.4477    52.263668   -8880.7114    11812.377 
   89000    213.67689   -8844.9185    31.846511    -8876.765   -31669.574 
   89200    275.63317   -8833.7428    41.080506   -8874.8233   -21517.374 
   89400    333.68603    -8829.345    49.732734   -8879.0777   -18894.864 
   89600    231.95899   -8849.3228    34.571285   -8883.8941   -18362.285 
   89800    343.47911   -8836.4968      51.1923   -8887.6891    37.928542 
   90000    363.51886    -8824.862    54.179034    -8879.041   -3165.0916 
   90200    364.10849   -8827.3767    54.266912   -8881.6437   -16580.882 
   90400    263.98806   -8840.4095    39.344913   -8879.7544    4275.3635 
   90600    264.28506    -8831.102    39.389178   -8870.4912    36801.306 
   90800    292.04116   -8827.1589    43.525961   -8870.6848   -14790.068 
   91000    274.23786   -8838.6443    40.872549   -8879.5168   -4343.1237 
   91200    312.74536   -8831.3539    46.611725   -8877.9656   -17504.552 
   91400    409.94606   -8817.6864    61.098567   -8878.7849    18678.087 
   91600    300.01438   -8833.6195    44.714294   -8878.3338    -3081.608 
   91800    289.44648   -8834.5584    43.139248   -8877.6977     -19010.8 
   92000    326.09071    -8824.669    48.600723   -8873.2697   -6192.5325 
   92200    264.66021    -8834.019     39.44509   -8873.4641   -33918.987 
   92400    305.40458   -8835.5551    45.517652   -8881.0728    11712.355 
   92600    244.66624   -8847.3268    36.465179   -8883.7919   -14874.756 
   92800    343.29729   -8836.6481    51.165201   -8887.8133   -33966.937 
   93000    294.83535   -8831.8905    43.942409   -8875.8329    43933.059 
   93200     282.8337   -8847.8534    42.153676    -8890.007   -2354.5843 
   93400    319.03091   -8841.5985    47.548527    -8889.147   -16858.775 
   93600    300.84414    -8834.404    44.837962    -8879.242    27361.143 
   93800    350.73465   -8819.2694    52.273669   -8871.5431   -22933.034 
   94000    294.62599   -8832.8363    43.911205   -8876.7475    1740.3037 
   94200    321.52847   -8835.8788    47.920765   -8883.7996   -15748.299 
   94400    317.59174   -8817.7861    47.334033   -8865.1201   -9507.5042 
   94600    297.46923   -8828.1294    44.334963   -8872.4643   -25033.311 
   94800     278.4673   -8836.5546    41.502906   -8878.0575   -21487.795 
   95000    294.06995   -8830.5614    43.828334   -8874.3897   -3530.5253 
   95200    313.43533   -8835.2128    46.714558   -8881.9273   -379.21171 
   95400    295.20983   -8833.0338    43.998222   -8877.0321    8136.8909 
   95600    289.94431   -8827.6571    43.213446   -8870.8706   -55970.904 
   95800    293.00724   -8839.1564    43.669946   -8882.8264    2018.5414 
   96000    235.83986   -8841.2762    35.149691   -8876.4258   -6311.1823 
   96200    350.73995   -8826.6867    52.274458   -8878.9612    1503.2166 
   96400    332.51689   -8839.5701    49.558485   -8889.1285     21041.78 
   96600    256.69805   -8833.8053    38.258406   -8872.0637   -43499.673 
   96800    312.22212   -8827.2149    46.533741   -8873.7487    -2140.633 
   97000    270.57221   -8838.9755    40.326218   -8879.3017    14813.667 
   97200    348.22945   -8820.7598    51.900293   -8872.6601    5223.5109 
   97400    318.83543   -8831.3025    47.519393   -8878.8219   -536.81376 
   97600     289.3754   -8835.4373    43.128654    -8878.566    29149.047 
   97800    365.92893   -8824.5887    54.538231   -8879.1269    23685.775 
   98000    304.15463   -8819.5236    45.331358   -8864.8549   -4282.4507 
   98200    332.71828   -8838.2393      49.5885   -8887.8278   -9470.8532 
   98400    353.62443    -8831.334    52.704363   -8884.0383    35418.545 
   98600    324.66651    -8829.168     48.38846   -8877.5564    11134.284 
   98800    319.50529   -8833.8231    47.619229   -8881.4424     11847.46 
   99000    295.35693   -8843.7663    44.020145   -8887.7864    -35449.47 
   99200    302.76195   -8833.9813    45.123793   -8879.1051    10486.263 
   99400     323.0781   -8828.8602    48.151723   -8877.0119    1471.7428 
   99600    285.70821    -8844.879    42.582095   -8887.4611   -5580.3338 
   99800    290.06986   -8842.1823    43.232158   -8885.4145     24900.79 
  100000    294.31196   -8830.2418    43.864402   -8874.1062     7469.035 
  100200    287.11982   -8836.0961    42.792483   -8878.8886   -1489.4713 
  100400      308.945   -8833.1214    46.045318   -8879.1667     39846.58 
  100600    241.92699   -8838.9821     36.05692    -8875.039   -27871.374 
  100800     311.7035   -8822.9077    46.456446   -8869.3642   -3101.7302 
  101000    340.42693   -8831.5009      50.7374   -8882.2383     13636.46 
  101200    283.11061   -8837.3478    42.194948   -8879.5428    4770.5193 
  101400    319.30036   -8829.9299    47.588686   -8877.5186        139.4 
  101600    308.43394   -8821.3973     45.96915   -8867.3665   -29658.168 
  101800    319.48416   -8834.0631    47.616079   -8881.6792   -8873.8026 
  102000    309.52959   -8837.8077    46.132446   -8883.9401   -17052.265 
  102200    344.34545   -8825.7531    51.321419   -8877.0745   -2201.2209 
  102400     270.0762   -8839.3488    40.252293    -8879.601    26266.977 
  102600    302.07968   -8842.9216    45.022107   -8887.9437      2493.99 
  102800    328.31955   -8832.3539     48.93291   -8881.2868   -21267.552 
  103000    258.31126   -8840.7948     38.49884   -8879.2937    28524.994 
  103200     270.2176   -8828.1701    40.273368   -8868.4434   -19946.624 
  103400    274.62871    -8829.456    40.930801   -8870.3868   -24956.817 
  103600    221.45681   -8845.7801    33.006034   -8878.7862   -6548.6234 
  103800    296.32919   -8831.8475    44.165051   -8876.0126   -4298.4879 
  104000    287.88254   -8832.4289    42.906159   -8875.3351    9973.3795 
  104200    312.57984   -8834.8842    46.587056   -8881.4713   -21819.889 
  104400    306.46662   -8840.7093    45.675939   -8886.3852   -3750.2512 
  104600    358.37691    -8824.798    53.412674   -8878.2107   -14040.531 
  104800    274.15248   -8836.2129    40.859823   -8877.0727    9835.2322 
  105000    265.97877   -8835.8134     39.64161    -8875.455    30152.829 
  105200    303.17281   -8827.0736    45.185028   -8872.2586    25106.899 
  105400    294.82516   -8839.7838    43.940889   -8883.7247   -20131.531 
  105600    280.23321   -8843.1267    41.766098   -8884.8928    18117.008 
  105800    305.44407   -8824.1801    45.523538   -8869.7036     8687.751 
  106000    294.56501   -8835.7728    43.902117   -8879.6749    -18867.13 
  106200    274.84492   -8834.6524    40.963026   -8875.6154    12710.911 
  106400    311.83214   -8829.5238    46.475619   -8875.9994    187.71816 
  106600     342.1849   -8832.9583     50.99941   -8883.9577    -20263.12 
  106800    269.90781   -8843.9235    40.227196   -8884.1507    10225.208 
  107000    323.24275   -8828.2976    48.176262   -8876.4738   -20133.395 
  107200    271.58783   -8833.2739    40.477587   -8873.7514    51900.835 
  107400    272.00757   -8834.5056    40.540146   -8875.0457    30621.173 
  107600     338.8645   -8821.7935    50.504535    -8872.298    2596.7015 
  107800    309.59057   -8829.8524    46.141534   -8875.9939   -11396.237 
  108000    309.86533   -8840.1354    46.182485   -8886.3179    26921.948 
  108200    340.60112   -8828.5428    50.763362   -8879.3061   -21516.833 
  108400    346.24127    -8821.858    51.603973   -8873.4619    4568.0739 
  108600    263.89947   -8841.2365     39.33171   -8880.5682   -55253.711 
  108800    341.69456   -8827.9805    50.926329   -8878.9068    15929.281 
  109000    322.44857   -8831.7518    48.057897   -8879.8097   -2274.2323 
  109200    278.34116   -8834.0833    41.484107   -8875.5674    20423.699 
  109400    336.06233   -8825.1948    50.086899   -8875.2817    26389.795 
  109600    282.07677    -8828.604    42.040863   -8870.6449    11035.596 
  109800    318.44489   -8836.9991    47.461187   -8884.4603   -30713.948 
  110000    287.09728   -8832.5429    42.789123    -8875.332   -11627.915 
  110200    328.10218   -8825.9174    48.900514   -8874.8179    1789.2259 
  110400    280.74225   -8842.1509    41.841967   -8883.9928   -12210.292 
  110600    313.22307   -8834.7436    46.682923   -8881.4265   -30660.746 
  110800    319.98763   -8825.1578    47.691118   -8872.8489   -27208.001 
  111000    259.01697   -8836.7055     38.60402   -8875.3095     16015.87 
  111200    337.13753   -8831.0109    50.247147    -8881.258     6849.336 
  111400    347.41784    -8823.153    51.779329   -8874.9324    13278.327 
  111600    260.08689   -8838.8782     38.76348   -8877.6417   -37701.433 
  111800    323.93788   -8837.4094    48.279865   -8885.6893   -14656.413 
  112000    350.91715   -8822.5683    52.300868   -8874.8692   -10512.016 
  112200    285.94756   -8836.4766    42.617769   -8879.0943    54106.454 
  112400    322.25458   -8835.1114    48.028985   -8883.1404    218.80326 
  112600    306.81101   -8827.6117    45.727267    -8873.339    13782.397 
  112800    271.01801   -8835.6239    40.392661   -8876.0166   -18553.628 
  113000    304.19578   -8844.8007    45.337493   -8890.1382   -565.30548 
  113200    286.41483   -8828.1427    42.687411   -8870.8301   -80.755697 
  113400    268.65034   -8837.5989    40.039782   -8877.6387    10893.406 
  113600    257.70289   -8844.8187    38.408168   -8883.2268   -8404.9051 
  113800    327.89023    -8825.162    48.868925    -8874.031   -36311.743 
  114000    331.34001   -8838.1567    49.383082   -8887.5398    6496.4062 
  114200    345.14695   -8826.8884    51.440874   -8878.3293   -15853.161 
  114400    308.66694    -8830.448    46.003876   -8876.4519    19095.625 
  114600    281.38038   -8837.7376    41.937073   -8879.6747   -11282.882 
  114800    291.46492   -8837.7571    43.440078   -8881.1972   -11126.365 
  115000    367.15576   -8825.4718    54.721078   -8880.1928    1224.5704 
  115200    288.57484   -8840.9031     43.00934   -8883.9124    19225.006 
  115400    309.23371   -8836.8029    46.088348   -8882.8912    3126.5977 
  115600    301.46869   -8819.4441    44.931044   -8864.3751    -1696.128 
  115800    328.52785   -8830.3815    48.963955   -8879.3455   -2567.3635 
  116000    306.88538   -8838.1575    45.738351   -8883.8959     15992.07 
  116200    361.95433   -8824.3197    53.945856   -8878.2656   -14257.565 
  116400    312.41746   -8842.5838    46.562855   -8889.1467   -16994.513 
  116600    329.11226   -8840.6594    49.051057   -8889.7104   -37693.142 
  116800    277.47556   -8825.7312    41.355097   -8867.0863    27603.505 
  117000    303.03536   -8826.8404    45.164543   -8872.0049    12705.657 
  117200    305.49237   -8838.0047    45.530737   -8883.5354   -13154.927 
  117400    253.48687   -8847.8431     37.77981   -8885.6229    11048.918 
  117600    276.44416   -8845.9207    41.201377   -8887.1221   -34217.929 
  117800    342.45111   -8832.6763    51.039086   -8883.7154   -9103.9401 
  118000    316.97644   -8830.0169    47.242328   -8877.2592   -14666.107 
  118200    348.07618   -8820.3938    51.877449   -8872.2713    1943.3745 
  118400    275.63194   -8837.8171    41.080323   -8878.8974   -4726.8982 
  118600    296.16767   -8829.7596    44.140978   -8873.9005   -25831.871 
  118800     358.6286   -8817.2456    53.450186   -8870.6958    21461.832 
  119000    236.77915   -8837.2605    35.289684   -8872.5502   -16938.214 
  119200    275.70306    -8832.736    41.090922   -8873.8269   -21799.141 
  119400    393.14223     -8812.99    58.594116   -8871.5841    -4152.089 
  119600    308.46387   -8836.9841    45.973611   -8882.9577    5739.4881 
  119800    285.09641   -8841.5983    42.490912   -8884.0892      5378.64 
  120000    293.73224   -8825.3417       43.778   -8869.1197    18928.166 
  120200    268.34264   -8844.7893    39.993922   -8884.7832   -19923.469 
  120400    307.57526   -8834.8567    45.841171   -8880.6978   -20706.079 
  120600    321.46509   -8835.1126    47.911318   -8883.0239   -13492.528 
  120800    238.75544   -8848.1221     35.58423   -8883.7063    30920.133 
  121000    320.71791   -8829.8156    47.799958   -8877.6156    25111.445 
  121200    285.00975   -8833.3722    42.477997   -8875.8502    28017.831 
  121400    225.81568   -8844.7255    33.655683   -8878.3812   -1483.2096 
  121600    260.17318   -8832.7911    38.776341   -8871.5674     11513.41 
  121800     323.1401   -8828.0478    48.160963   -8876.2087    21894.887 
  122000    281.66792   -8835.3802    41.979928   -8877.3601   -6433.5652 
  122200    275.93914   -8837.9259    41.126108    -8879.052   -4871.5234 
  122400    240.64069   -8851.9667     35.86521   -8887.8319   -22603.749 
  122600    271.92881   -8837.2075    40.528406   -8877.7359   -452.91279 
  122800    307.23436   -8829.5474    45.790363   -8875.3378   -15779.496 
  123000    227.17904   -8837.4623    33.858879   -8871.3212   -15611.712 
  123200    293.56175   -8836.1468    43.752591   -8879.8994   -6192.3723 
  123400    285.99226   -8826.0177     42.62443   -8868.6421    16532.238 
  123600    273.21762   -8845.3082    40.720491   -8886.0287   -1605.4385 
  123800    339.71594   -8831.8508    50.631434   -8882.4822    26656.937 
  124000    320.27004   -8837.0291    47.733207   -8884.7623   -837.42867 
  124200    214.48707   -8842.8253     31.96726   -8874.7925    23751.955 
  124400    314.56422   -8834.4101    46.882809   -8881.2929    5973.5089 
  124600    238.55142   -8844.3423    35.553823   -8879.8961    4613.0974 
  124800    286.11465    -8835.165    42.642671   -8877.8077   -28785.743 
  125000    261.27079   -8832.3397     38.93993   -8871.2797    9766.9609 
  125200    263.73744   -8840.4501     39.30756   -8879.7576    9260.0835 
  125400    242.21883   -8845.0418    36.100416   -8881.1422    28336.265 
  125600    302.58638   -8833.9241    45.097626   -8879.0217    6596.7157 
  125800    273.87335   -8837.5196    40.818222   -8878.3379    16436.962 
  126000    294.42687    -8840.022    43.881528   -8883.9036    14246.812 
  126200    362.65439   -8826.4307    54.050193   -8880.4809    15359.961 
  126400    302.10113   -8837.3041    45.025304   -8882.3294    13413.409 
  126600    264.67215   -8843.5527     39.44687   -8882.9995    48032.453 
  126800    283.52624   -8824.0073    42.256894   -8866.2642   -19603.749 
  127000    291.30059   -8831.9445    43.415587   -8875.3601    37651.679 
  127200    273.16532    -8842.548    40.712697   -8883.2607   -2541.1974 
  127400    264.25285   -8842.1081    39.384378   -8881.4925   -12334.517 
  127600    353.87168   -8825.4582    52.741212   -8878.1994   -14627.587 
  127800    310.20158   -8838.7352    46.232599   -8884.9678    10820.534 
  128000    282.45916   -8841.9654    42.097856   -8884.0632   -35889.049 
  128200    282.94119   -8827.0138    42.169696   -8869.1835    13666.942 
  128400    287.92485    -8836.024    42.912464   -8878.9365   -11826.591 
  128600    297.63442   -8836.3903    44.359584   -8880.7499   -29729.727 
  128800    366.04212   -8820.4708    54.555102    -8875.026    10306.488 
  129000    297.10534   -8830.2944     44.28073   -8874.5751     13381.65 
  129200    280.45376   -8839.9365    41.798969   -8881.7354   -7977.4709 
  129400    348.85256   -8832.0251     51.99316   -8884.0182    233.95165 
  129600    352.20951   -8831.4627    52.493482   -8883.9562    27176.275 
  129800    261.71346   -8842.0299    39.005905   -8881.0358     126.8285 
  130000    347.46234   -8821.0499    51.785962   -8872.8359     41261.09 
  130200    282.32777   -8834.7181    42.078273   -8876.7964   -26617.903 
  130400    265.51181   -8843.2436    39.572014   -8882.8156    1824.6541 
  130600    352.77796   -8824.3679    52.578204   -8876.9461   -4015.6561 
  130800    271.04563   -8836.0048    40.396776   -8876.4016     4835.916 
  131000    284.46158   -8841.1931    42.396296   -8883.5894   -12747.039 
  131200    343.50106   -8822.7124    51.195571    -8873.908   -18087.454 
  131400    293.61603   -8835.8629     43.76068   -8879.6236   -14449.602 
  131600    290.63708   -8839.0806    43.316696   -8882.3973    1415.3625 
  131800    401.23214   -8820.5442     59.79984    -8880.344    5336.1588 
  132000    314.91473   -8831.6402     46.93505   -8878.5752    -1206.743 
  132200    249.68922   -8840.6272    37.213807    -8877.841   -6414.0204 
  132400    286.84017   -8832.4847    42.750803   -8875.2355   -26953.578 
  132600    312.20894   -8830.0951    46.531778   -8876.6269   -25975.473 
  132800    284.23241   -8829.4071    42.362141   -8871.7692    29139.478 
  133000    307.82898   -8839.4703    45.878986   -8885.3493   -118.96766 
  133200    256.68565   -8834.9828    38.256558   -8873.2394   -11280.412 
  133400    306.93696   -8824.8831    45.746038   -8870.6292   -35531.963 
  133600    275.63999   -8839.3387    41.081523   -8880.4202   -30489.437 
  133800    302.81028   -8833.8446    45.130997   -8878.9756    5118.5595 
  134000    334.89351   -8830.0694    49.912696   -8879.9821    29863.796 
  134200    356.30291   -8819.0617    53.103564   -8872.1653    37144.668 
  134400    263.61703   -8838.4525    39.289614   -8877.7421   -2187.7621 
  134600    274.88558   -8831.6728    40.969085   -8872.6419    8438.0984 
  134800    275.42087    -8832.426    41.048864   -8873.4749   -1464.2921 
  135000    294.08431   -8833.4251    43.830473   -8877.2555   -2420.3163 
  135200    372.95851   -8824.9481    55.585924    -8880.534   -6644.2788 
  135400    350.05647    -8825.459    52.172592   -8877.6316   -24582.195 
  135600    267.15377   -8839.7832    39.816732      -8879.6    19558.697 
  135800    347.57821   -8828.5738     51.80323    -8880.377    14849.878 
  136000    317.31907   -8825.2036    47.293394    -8872.497    -15099.45 
  136200    280.74547   -8836.9146    41.842446   -8878.7571   -10451.912 
  136400    291.91146   -8829.0428    43.506631   -8872.5494   -26304.342 
  136600    362.60974   -8825.0712    54.043538   -8879.1147    36462.272 
  136800    272.36112   -8840.2258    40.592839   -8880.8186    44957.328 
  137000    293.19106   -8829.8782    43.697343   -8873.5756     10725.15 
  137200    327.31447   -8826.0742    48.783113   -8874.8573    5186.2113 
  137400    292.98139   -8829.6558    43.666094   -8873.3219   -4002.3136 
  137600    260.66975   -8843.9099    38.850351   -8882.7602   -25348.304 
  137800    340.01941   -8829.4809    50.676664   -8880.1576   -3476.2354 
  138000    265.37709   -8831.7888    39.551935   -8871.3407    37634.565 
  138200    254.95608   -8840.9479    37.998782   -8878.9466     -29683.5 
  138400     296.5824   -8831.1952     44.20279    -8875.398   -3014.5838 
  138600    321.17244   -8824.7904    47.867702   -8872.6581   -32498.943 
  138800    260.92393   -8843.8099    38.888234   -8882.6981    14801.906 
  139000    287.14851   -8834.5086    42.796758   -8877.3054    5384.0292 
  139200    308.51901   -8830.4158    45.981829   -8876.3977   -1692.0697 
  139400    312.80531   -8842.9463     46.62066   -8889.5669    24487.407 
  139600      247.982   -8849.1826    36.959362    -8886.142   -21017.154 
  139800    344.72082    -8833.556    51.377365   -8884.9334    31314.353 
  140000    322.35432   -8827.0475     48.04385   -8875.0914   -10420.635 
  140200    281.72103   -8837.1774    41.987844   -8879.1653   -23601.908 
  140400    252.63716   -8838.7084     37.65317   -8876.3615    5670.1136 
  140600    361.36563   -8829.4573    53.858115   -8883.3154    7193.3969 
  140800    266.72413   -8837.0202    39.752698   -8876.7729   -35302.889 
  141000    353.08493   -8824.4532    52.623956   -8877.0772    46796.283 
  141200    319.26947   -8832.7201    47.584083   -8880.3042   -3223.6516 
  141400    297.26226   -8837.8757    44.304116   -8882.1798    -29104.37 
  141600    321.81717   -8827.9708    47.963793   -8875.9346     11664.58 
  141800    360.01232   -8817.1127    53.656417   -8870.7692     16836.56 
  142000    319.82407    -8834.903    47.666741   -8882.5698    8182.6034 
  142200    292.50434   -8837.4431    43.594994   -8881.0381    3927.9699 
  142400    330.58315    -8821.037    49.270279   -8870.3073   -4358.8391 
  142600    322.65052   -8838.5437    48.087996   -8886.6317   -27459.562 
  142800    333.00866   -8830.6411    49.631778   -8880.2729   -4118.9735 
  143000    310.76238   -8824.4166    46.316181   -8870.7328    30963.456 
  143200    238.12565   -8841.3282    35.490367   -8876.8186    415.43464 
  143400    316.51226   -8827.4918    47.173146   -8874.6649   -34137.651 
  143600    461.53455   -8812.0361    68.787341   -8880.8234    4185.6056 
  143800    307.21021   -8833.9544    45.786764   -8879.7412   -46784.034 
  144000     306.3366    -8835.901     45.65656   -8881.5575   -6735.8576 
  144200    317.32029   -8826.1725    47.293576   -8873.4661    6802.1026 
  144400    297.05858    -8836.794     44.27376   -8881.0677    4208.8317 
  144600    272.95276   -8839.2649    40.681017   -8879.9459   -573.72826 
  144800    361.16077   -8821.0356    53.827582   -8874.8632   -10443.233 
  145000     332.0287   -8833.5384    49.485724   -8883.0241    9594.6763 
  145200    248.91357    -8839.453    37.098203   -8876.5512   -9800.9533 
  145400    329.04006   -8819.3319    49.040295   -8868.3722    14411.186 
  145600    287.64117   -8827.0059    42.870184    -8869.876    19694.227 
  145800    347.94325   -8838.1354    51.857637   -8889.9931   -19219.251 
  146000    306.30849   -8842.3333    45.652371   -8887.9857   -20848.923 
  146200    319.87997   -8826.3555    47.675071   -8874.0306    37326.301 
  146400    286.39443   -8839.9318    42.684369   -8882.6162    -9634.378 
  146600     327.1566   -8839.3315    48.759585   -8888.0911    11955.098 
  146800    291.45466   -8830.3552    43.438549   -8873.7937   -40497.744 
  147000     286.6941   -8830.6068    42.729032   -8873.3359    15954.845 
  147200    295.60426   -8838.2946    44.057007   -8882.3516     118.2721 
  147400    269.05046   -8845.1305    40.099416   -8885.2299   -11658.028 
  147600    264.10762   -8831.3195    39.362732   -8870.6822   -11939.658 
  147800    309.70982    -8831.186    46.159308   -8877.3454   -11881.361 
  148000    250.77686   -8844.7503     37.37591   -8882.1262    5608.7106 
  148200    268.95703   -8832.2103    40.085491   -8872.2958    21228.733 
  148400    285.66979   -8830.2248    42.576369   -8872.8011   -32186.388 
  148600    262.48391   -8849.4827    39.120734   -8888.6034     6356.825 
  148800    289.55254   -8838.0669    43.155056    -8881.222    30277.229 
  149000    307.24625   -8830.3442    45.792136   -8876.1363    34573.988 
  149200    410.32722   -8813.9424    61.155375   -8875.0977   -17130.161 
  149400    314.42194   -8833.8553    46.861603   -8880.7169   -67195.097 
  149600    347.44475   -8835.7632     51.78334   -8887.5465    3143.6587 
  149800    322.92568   -8832.6977    48.129006   -8880.8267    49289.643 
  150000    319.90906    -8822.418    47.679407   -8870.0974    25525.255 
  150200    309.92324   -8836.3647    46.191116   -8882.5558   -365.96486 
  150400    263.21128   -8835.4904    39.229142   -8874.7195    -27432.83 
  150600    347.78753   -8823.2519    51.834429   -8875.0863   -22477.325 
  150800    296.09324   -8827.9287    44.129885   -8872.0586   -12582.154 
  151000    293.90992   -8841.1726    43.804482   -8884.9771   -4712.9734 
  151200    316.50687   -8826.7298    47.172343   -8873.9022   -48132.665 
  151400    278.37632   -8826.5785    41.489347   -8868.0679   -22106.868 
  151600    256.01512   -8841.2801    38.156622   -8879.4368    9725.4872 
  151800    337.18468    -8820.472    50.254174   -8870.7262   -38264.843 
  152000    329.69589   -8831.6365    49.138042   -8880.7746   -28227.128 
  152200    277.21212   -8841.2128    41.315834   -8882.5286    -11782.67 
  152400    334.60273   -8826.8643    49.869359   -8876.7337   -20749.442 
  152600    293.74412   -8827.2028    43.779771   -8870.9826   -15424.484 
  152800    274.53281    -8838.293    40.916508   -8879.2095   -18870.036 
  153000    346.25159   -8824.7621     51.60551   -8876.3676    309.57898 
  153200    289.91903   -8829.7514    43.209678   -8872.9611    48776.373 
  153400    299.44643   -8838.9613    44.629647    -8883.591    13204.752 
  153600    308.58587   -8829.0963    45.991793   -8875.0881    14258.244 
  153800    352.56438   -8820.4937    52.546372   -8873.0401    15796.062 
  154000    261.29057   -8833.9339    38.942879   -8872.8767   -39758.982 
  154200    258.89647   -8840.7915     38.58606   -8879.3776   -3156.3469 
  154400    343.32613   -8820.7426    51.169499   -8871.9121   -17789.878 
  154600    300.13088    -8833.526    44.731658   -8878.2577   -5379.9124 
  154800    296.16345   -8836.4937    44.140349    -8880.634   -33271.894 
  155000    379.90162   -8819.2879    56.620728   -8875.9087    7653.9414 
  155200    321.99211   -8826.8738    47.989866   -8874.8637    16588.469 
  155400    293.35166   -8835.6174    43.721279   -8879.3387   -8225.4662 
  155600    259.04931   -8845.3569     38.60884   -8883.9658    7106.3999 
  155800    302.41457     -8833.89    45.072019    -8878.962   -18321.308 
  156000     346.1676   -8827.4441    51.592993   -8879.0371    17006.499 
  156200    252.31804   -8845.5528    37.605608   -8883.1584   -30769.262 
  156400    268.92995    -8839.651    40.081455   -8879.7325   -3271.8504 
  156600    325.11805   -8830.7647    48.455758   -8879.2205    25737.781 
  156800    255.10432   -8841.7945    38.020876   -8879.8154     5020.631 
  157000    280.19182    -8841.449     41.75993   -8883.2089   -5913.1994 
  157200    326.11846   -8830.3462    48.604859   -8878.9511    18657.214 
  157400     277.1893   -8837.3178    41.312433   -8878.6303    19974.196 
  157600    273.15578   -8846.0088    40.711274     -8886.72   -14591.021 
  157800    296.23007   -8832.6624    44.150279   -8876.8127   -6890.6547 
  158000    298.84075   -8828.0708    44.539376   -8872.6102    1011.7841 
  158200    305.92672   -8833.9767    45.595471   -8879.5722   -506.03504 
  158400    308.84669    -8840.899    46.030667   -8886.9296   -5562.9991 
  158600    334.68613   -8820.9837    49.881789   -8870.8655   -12272.249 
  158800    252.33395   -8831.2297    37.607978   -8868.8377    52404.687 
  159000    270.74177   -8834.5989     40.35149   -8874.9504   -26978.943 
  159200    275.97944   -8846.3006    41.132114   -8887.4327    13183.494 
  159400     288.2416   -8838.6547    42.959673   -8881.6144   -14284.099 
  159600    277.13346   -8830.8605     41.30411   -8872.1646   -33386.874 
  159800    329.48811   -8837.3386    49.107074   -8886.4456   -10242.084 
  160000    265.75243   -8844.5773    39.607876   -8884.1852   -18254.591 
  160200    330.85677    -8829.951    49.311059   -8879.2621   -29500.333 
  160400     282.4383   -8836.5651    42.094746   -8878.6598   -42311.635 
  160600    215.77082   -8851.7564    32.158591    -8883.915   -35130.824 
  160800    299.15128   -8835.9148    44.585658   -8880.5004    6946.6126 
  161000    304.91922   -8827.4496    45.445314   -8872.8949    8751.9351 
  161200     261.9445   -8844.6298    39.040341   -8883.6701    7408.2094 
  161400    232.59395   -8837.8766    34.665919   -8872.5425   -24466.578 
  161600    313.16868   -8830.9098    46.674817   -8877.5846    18820.615 
  161800    314.43887   -8830.5196    46.864127   -8877.3837    10744.293 
  162000     238.3451    -8845.022    35.523074    -8880.545    28748.461 
  162200    295.37148   -8828.4652    44.022315   -8872.4875   -17277.961 
  162400    322.10519   -8828.9904    48.006719   -8876.9971    3459.4641 
  162600    299.17046   -8838.2138    44.588516   -8882.8023   -51926.516 
  162800    262.97481   -8848.1475    39.193898   -8887.3414    10924.164 
  163000    294.78653   -8831.4545    43.935133   -8875.3896   -20401.592 
  163200    320.53362   -8833.6101    47.772491   -8881.3826   -21355.439 
  163400     247.9593   -8848.7719    36.955978   -8885.7278    53988.539 
  163600    282.61145   -8837.1907    42.120553   -8879.3113   -2960.7635 
  163800    352.06587   -8830.4319    52.472074   -8882.9039    3977.8418 
  164000    247.99316   -8844.9514    36.961025   -8881.9125   -8128.5496 
  164200    229.36882   -8838.1157    34.185244    -8872.301     3450.425 
  164400    294.90498   -8827.8571    43.952787   -8871.8098    -20157.19 
  164600    264.57659   -8844.5171    39.432628   -8883.9498   -10884.159 
  164800    262.93554   -8841.8595    39.188045   -8881.0475    18712.827 
  165000     330.6071   -8833.9007    49.273849   -8883.1746    39621.881 
  165200     308.0464   -8827.8763     45.91139   -8873.7877   -13750.191 
  165400    278.21736   -8833.8299    41.465655   -8875.2956   -2337.7063 
  165600    287.01077   -8837.8864    42.776229   -8880.6626    17794.245 
  165800    304.61984   -8823.0668    45.400695   -8868.4675    31336.989 
  166000    248.47758   -8838.9759    37.033224   -8876.0092    8480.7689 
  166200    275.85062   -8844.4851    41.112914    -8885.598   -275.97477 
  166400    374.34888     -8828.46    55.793146   -8884.2531    35827.147 
  166600    286.20792   -8839.0987    42.656573   -8881.7553    10147.726 
  166800    274.36825   -8832.3585    40.891981   -8873.2505    5843.2691 
  167000    296.93076   -8828.1578     44.25471   -8872.4125   -8785.7002 
  167200    244.61118   -8841.9564    36.456973   -8878.4133    43.306883 
  167400    310.89482   -8837.0737     46.33592   -8883.4096   -31515.671 
  167600    303.88022   -8830.9299    45.290461   -8876.2203   -25029.692 
  167800    353.66593   -8827.4287    52.710548   -8880.1392   -15132.818 
  168000    282.93032   -8838.7154    42.168078   -8880.8835    39359.863 
  168200    291.19351   -8840.3895    43.399628   -8883.7892    3697.0444 
  168400    304.50899    -8827.264    45.384173   -8872.6481   -26746.781 
  168600    250.89971   -8840.0884    37.394219   -8877.4826    12575.209 
  168800    356.76337   -8820.8834    53.172192   -8874.0556   -11514.824 
  169000     286.4696   -8828.2778    42.695573   -8870.9733    56069.854 
  169200    278.84689   -8835.8232    41.559481   -8877.3826    34778.582 
  169400    233.62393   -8841.1229    34.819428   -8875.9423   -12682.517 
  169600    327.79712    -8823.914    48.855048    -8872.769   -62852.954 
  169800    302.02953   -8837.6949    45.014633   -8882.7096    14.654282 
  170000    210.52973   -8848.5529    31.377457   -8879.9303    11519.816 
  170200    325.17174   -8832.1028     48.46376   -8880.5666    4062.5274 
  170400    312.29864   -8836.7438    46.545147    -8883.289    4736.7582 
  170600    298.97135   -8831.4616     44.55884   -8876.0205   -20617.615 
  170800    344.24124   -8825.1405    51.305887   -8876.4464    3521.9457 
  171000    240.41343   -8841.9668    35.831338   -8877.7981    4151.7811 
  171200    335.06599   -8830.5272    49.938403   -8880.4656     13172.46 
  171400    290.80906   -8821.7204    43.342329   -8865.0627   -17939.916 
  171600    244.70302    -8833.858    36.470661   -8870.3287    32611.353 
  171800    273.15006   -8842.0816    40.710423    -8882.792    8635.5137 
  172000    340.87144   -8823.3923    50.803651   -8874.1959   -12313.665 
  172200    291.17437   -8835.0207    43.396774   -8878.4175   -9968.9823 
  172400    303.68692    -8838.756     45.26165   -8884.0176    6811.7722 
  172600    310.63963   -8832.1507    46.297887   -8878.4486   -10914.429 
  172800    260.32481   -8848.0274     38.79894   -8886.8263   -16868.291 
  173000    292.28627   -8841.1509    43.562492   -8884.7133   -1315.8687 
  173200     297.4924   -8833.2832    44.338416   -8877.6216    36727.017 
  173400     296.7517    -8824.068    44.228022   -8868.2961   -18439.142 
  173600    299.59444   -8834.1594    44.651706   -8878.8111   -5869.9074 
  173800    272.36542   -8842.6692    40.593479   -8883.2627    24221.805 
  174000    321.37675   -8820.8995    47.898152   -8868.7977   -515.47624 
  174200    328.54724    -8831.545    48.966846   -8880.5118    3090.4648 
  174400    310.07536   -8838.8237    46.213787   -8885.0375    9233.0941 
  174600    310.17744   -8828.9362    46.229002   -8875.1652    -21605.48 
  174800     419.1532   -8813.6158    62.470803   -8876.0866    8438.6385 
  175000    326.51153   -8835.2547    48.663442   -8883.9181   -4507.5327 
  175200    297.31809   -8829.4416    44.312437   -8873.7541    22342.453 
  175400    301.38678   -8821.5396    44.918837   -8866.4584   -7343.2952 
  175600    313.18218    -8836.727     46.67683   -8883.4039    7523.6572 
  175800    307.55272   -8833.1721    45.837812   -8879.0099    4544.5121 
  176000    304.17905   -8820.1696    45.334998   -8865.5046    45981.174 
  176200    252.26201   -8836.7121    37.597257   -8874.3093   -35815.599 
  176400    261.00014   -8836.4928    38.899591   -8875.3924    5130.9585 
  176600    394.73441   -8818.4719    58.831415   -8877.3033   -8585.1786 
  176800    293.13223    -8836.096    43.688575   -8879.7846    25.154807 
  177000     306.4036   -8836.0935    45.666547     -8881.76   -3208.2768 
  177200    324.10086   -8828.7138    48.304154    -8877.018   -7512.2011 
  177400    301.02607   -8827.6514    44.865076   -8872.5164    28990.703 
  177600    305.80415   -8843.1822    45.577204   -8888.7594    25533.667 
  177800    274.23488   -8829.5192    40.872105   -8870.3914    7348.7774 
  178000     281.8352   -8831.7566     42.00486   -8873.7614   -11075.407 
  178200    317.39643   -8840.4133    47.304923   -8887.7183    15513.147 
  178400    362.14799   -8821.4573    53.974718    -8875.432    2307.5633 
  178600    277.64484   -8835.8759    41.380326   -8877.2562    -25592.98 
  178800    286.69827   -8840.6864    42.729655   -8883.4161   -12598.412 
  179000     281.5315   -8833.6184    41.959596    -8875.578   -2004.5657 
  179200    303.23747    -8832.646    45.194665   -8877.8407   -17723.898 
  179400    300.33706   -8848.4338    44.762386   -8893.1961   -954.13373 
[...]
  950000    291.43963   -8895.3036    43.436309   -8938.7399     43806.78 
  950200    337.93252   -8888.9998    50.365632   -8939.3654   -16564.719 
  950400    298.80716   -8889.1901     44.53437   -8933.7244    22861.462 
  950600    276.53922   -8898.5528    41.215544   -8939.7684    33256.804 
  950800    329.58543   -8878.8234    49.121578   -8927.9449   -12425.152 
  951000    247.63309   -8887.2048    36.907359   -8924.1122    15781.752 
  951200    282.97151   -8895.0683    42.174216   -8937.2425   -30185.447 
  951400    303.25689    -8886.155    45.197559   -8931.3526    41208.971 
  951600     332.3929   -8879.9878    49.540005   -8929.5278   -25582.734 
  951800     271.9447   -8897.8614    40.530774   -8938.3922    15090.909 
  952000    280.82923   -8891.8054    41.854929   -8933.6603   -5420.3938 
  952200    274.22214    -8877.397    40.870205   -8918.2672    8821.9177 
  952400    275.93761   -8894.8393     41.12588   -8935.9651    25878.116 
  952600    312.15351   -8894.3731    46.523516   -8940.8966    31690.038 
  952800    324.12551   -8890.4464    48.307829   -8938.7542    16739.267 
  953000    322.10168    -8882.366    48.006197   -8930.3722    14616.262 
  953200     257.6407   -8899.7919    38.398899   -8938.1908   -29198.014 
  953400    274.33721   -8894.0191    40.887356   -8934.9064   -4357.9178 
  953600    314.12269   -8889.3527    46.817004   -8936.1697    4217.4763 
  953800    300.97227   -8897.5792    44.857058   -8942.4362   -10776.287 
  954000    257.28493   -8904.6749    38.345876   -8943.0208   -17406.567 
  954200    371.78123   -8886.1082    55.410461   -8941.5187    25662.196 
  954400    296.89763   -8897.0829    44.249773   -8941.3327   -8110.2557 
  954600    330.89348   -8886.8082     49.31653   -8936.1248   -34514.843 
  954800    299.72979   -8884.6231    44.671879    -8929.295    14638.903 
  955000    276.06533   -8899.5896    41.144915   -8940.7345   -19550.423 
  955200    277.52676   -8894.0293    41.362728    -8935.392   -9618.2592 
  955400    324.80529   -8886.4194    48.409143   -8934.8286   -8759.0059 
  955600    289.66014   -8900.0472    43.171092   -8943.2183   -22727.676 
  955800    278.41043   -8895.2048    41.494431   -8936.6992   -19454.964 
  956000    287.97107   -8881.5512    42.919353   -8924.4705   -18667.364 
  956200    294.14206   -8891.6822     43.83908   -8935.5213    8668.0934 
  956400    344.31628   -8894.5341    51.317072   -8945.8512    15682.804 
  956600    369.32607   -8879.7948    55.044542   -8934.8394   -10503.502 
  956800    297.97761   -8892.5156    44.410733   -8936.9263    35735.218 
  957000    304.97128   -8893.5461    45.453073   -8938.9991    16948.803 
  957200    270.66028   -8885.4386    40.339345    -8925.778    20862.676 
  957400    267.90646   -8901.6424    39.928914   -8941.5713    23107.513 
  957600    306.77595   -8890.3486    45.722042   -8936.0707    3948.6236 
  957800    292.86894   -8888.3759    43.649334   -8932.0252    17378.181 
  958000     253.6502    -8897.631    37.804153   -8935.4352    42348.274 
  958200    303.15127     -8897.54    45.181818   -8942.7218    8915.4974 
  958400    310.30776   -8881.3487    46.248424   -8927.5971    26301.495 
  958600     274.3864   -8894.4536    40.894687   -8935.3482   -7628.0114 
  958800    305.62457   -8888.7254    45.550439   -8934.2758    31717.873 
  959000    359.83935    -8877.711    53.630638   -8931.3416    31629.992 
  959200    296.09774   -8897.6809    44.130556   -8941.8114    1806.2904 
  959400     350.9197    -8888.996    52.301248   -8941.2973   -9783.6632 
  959600    351.25617   -8881.0089    52.351396   -8933.3603   -429.75934 
  959800    301.66936    -8889.845    44.960952   -8934.8059    -12259.62 
  960000    254.02136   -8897.4304    37.859471   -8935.2899   -49933.205 
  960200    275.40762   -8897.1287     41.04689   -8938.1756   -12183.539 
  960400    321.17716   -8881.9223    47.868405   -8929.7907   -17526.553 
  960600    277.06782   -8893.7455    41.294327   -8935.0398   -11567.697 
  960800    254.74558   -8898.1419    37.967409   -8936.1093   -16121.294 
  961000    327.34865   -8886.9742    48.788207   -8935.7624    1460.5893 
  961200    262.07898   -8887.7265    39.060382   -8926.7868   -12288.976 
  961400    310.66796   -8891.4158    46.302108   -8937.7179    24193.618 
  961600    276.65334   -8897.6788    41.232552   -8938.9114    2551.5807 
  961800    340.27212   -8886.5569    50.714328   -8937.2712   -27274.326 
  962000    366.33452   -8885.4354     54.59868   -8940.0341    11511.993 
  962200    273.90218   -8898.9301    40.822519   -8939.7527   -22596.273 
  962400    259.39004   -8893.0079    38.659622   -8931.6675    16658.814 
  962600    353.97381   -8883.1517    52.756435   -8935.9081   -11395.823 
  962800    270.50941   -8900.8534    40.316858   -8941.1703    11377.498 
  963000    313.04672   -8890.5592     46.65664   -8937.2158    5072.4029 
  963200    317.55777   -8889.6855    47.328969   -8937.0145    31865.474 
  963400    340.92944   -8890.7428    50.812294   -8941.5551   -14178.323 
  963600    306.24378   -8892.3337    45.642726   -8937.9764   -9340.5559 
  963800     268.3903   -8892.1795    40.001026   -8932.1806   -13880.888 
  964000    332.36197   -8880.9317    49.535396   -8930.4671    7607.4107 
  964200    295.46923   -8894.9363    44.036883   -8938.9732    -933.5542 
  964400    287.31167   -8897.0174    42.821076   -8939.8385   -11012.071 
  964600     299.7417    -8890.764    44.673653   -8935.4376    -5432.916 
  964800    294.23876    -8891.512    43.853492   -8935.3655     40665.56 
  965000    318.59408   -8890.3958    47.483422   -8937.8792    46792.461 
  965200    285.79732   -8895.7476    42.595376    -8938.343    26115.035 
  965400    301.86987   -8887.0552    44.990837    -8932.046   -15580.653 
  965600    304.08885   -8886.8868    45.321555   -8932.2084   -12772.841 
  965800    258.67512    -8898.782    38.553071    -8937.335    14590.248 
  966000    309.54875   -8890.2697    46.135301    -8936.405    14863.603 
  966200    335.64413   -8878.3768     50.02457   -8928.4013    109.02788 
  966400    302.14801   -8891.4045    45.032291   -8936.4367    10931.644 
  966600    289.19626   -8890.6104    43.101956   -8933.7123   -36302.648 
  966800    281.61677   -8890.2317    41.972306    -8932.204   -37916.157 
  967000    242.64992   -8900.7814    36.164665   -8936.9461    6071.6472 
  967200    307.23024   -8888.7563    45.789749   -8934.5461   -25126.981 
  967400    294.04367   -8892.4546    43.824416    -8936.279    9222.5201 
  967600    269.55847   -8904.4498    40.175129   -8944.6249   -1525.5331 
  967800    418.57478   -8888.3938    62.384596   -8950.7783   -256.04792 
  968000    305.10313   -8894.3352    45.472724   -8939.8079   -10639.048 
  968200    244.71344   -8904.9657    36.472214   -8941.4379   -7916.8545 
  968400    340.47508   -8887.6984    50.744577    -8938.443    22989.912 
  968600    307.34793   -8893.2246     45.80729   -8939.0319   -21116.149 
  968800    223.30331   -8908.3805    33.281238   -8941.6618   -19670.446 
  969000    280.57686   -8892.0202    41.817317   -8933.8376    22420.004 
  969200    281.13071    -8889.742    41.899863   -8931.6419    16122.599 
  969400    349.65316    -8873.197    52.112483   -8925.3094    15538.317 
  969600     250.8844   -8893.8177    37.391937   -8931.2097   -52247.214 
  969800    320.45662   -8891.5882    47.761015   -8939.3492   -39458.975 
  970000    290.82455   -8891.8857    43.344637   -8935.2304   -9075.8265 
  970200    306.04689   -8895.4488    45.613383   -8941.0622   -2264.3959 
  970400    321.90422   -8900.9928    47.976767   -8948.9695    23146.808 
  970600    297.14723   -8884.2958    44.286973   -8928.5828   -7134.8823 
  970800    343.74711   -8890.1791    51.232242   -8941.4114    15414.396 
  971000    278.04752    -8898.314    41.440342   -8939.7543   -18164.784 
  971200    288.58287   -8886.8003    43.010536   -8929.8109   -6050.9621 
  971400    322.42935   -8893.5077    48.055033   -8941.5628   -32741.256 
  971600    369.05341   -8887.9403    55.003906   -8942.9442   -21919.627 
  971800    286.13736   -8891.1259    42.646056    -8933.772    16612.152 
  972000     278.1771    -8901.127    41.459655   -8942.5867   -21014.482 
  972200    307.31264   -8886.8026     45.80203   -8932.6047    30815.443 
  972400    327.93482   -8884.8643    48.875571   -8933.7398   -484.20939 
  972600    245.36584   -8902.7745    36.569449    -8939.344    23311.347 
  972800    245.75029   -8896.4445    36.626746   -8933.0713    10620.707 
  973000    302.52211   -8885.7395    45.088048   -8930.8276   -872.82391 
  973200    341.23062   -8890.2387    50.857183   -8941.0959    9095.4313 
  973400    286.70903   -8902.3829    42.731258   -8945.1142   -16092.147 
  973600    272.23273   -8886.8126    40.573704   -8927.3863   -12060.283 
  973800    319.07368   -8894.6384    47.554902   -8942.1933    21693.787 
  974000    294.49068   -8892.1328    43.891039   -8936.0238    6686.6578 
  974200    379.24306   -8870.9016    56.522576   -8927.4242   -37198.769 
  974400    303.35752   -8890.2585    45.212557   -8935.4711   -27229.524 
  974600    244.92125   -8895.0325    36.503187   -8931.5357   -1424.9487 
  974800    365.75442   -8876.5361    54.512223   -8931.0483    10850.324 
  975000     317.8902   -8890.5769    47.378516   -8937.9555    1282.1372 
  975200    302.73062   -8894.2487    45.119123   -8939.3678    11125.364 
  975400    273.12309   -8896.8742    40.706403   -8937.5806    15413.803 
  975600      321.056   -8881.7553    47.850348   -8929.6056   -42433.102 
  975800    260.18962   -8896.3503    38.778791   -8935.1291    6338.0834 
  976000    281.93785   -8897.7556    42.020158   -8939.7758    34447.693 
  976200    338.98572    -8880.036    50.522603   -8930.5586    14032.341 
  976400    423.81653   -8859.2937    63.165829   -8922.4596    4529.7592 
  976600    293.02803   -8884.3903    43.673044   -8928.0634    -21912.93 
  976800    285.07169   -8896.7503    42.487227   -8939.2376   -240.20338 
  977000    313.29827   -8887.1098    46.694132    -8933.804   -5835.4351 
  977200    319.42847   -8885.8189     47.60778   -8933.4267   -21491.113 
  977400    268.70194   -8897.6269    40.047473   -8937.6743   -10024.391 
  977600    302.16496   -8888.6817    45.034818   -8933.7165    5663.6662 
  977800     300.3727   -8891.0703    44.767697    -8935.838   -384.71428 
  978000    295.71641   -8896.9296    44.073723   -8941.0033   -4672.1901 
  978200    273.93743   -8885.7794    40.827772   -8926.6072   -33995.079 
  978400     341.9975   -8877.3112     50.97148   -8928.2827   -21102.276 
  978600    238.39859    -8897.906    35.531046    -8933.437    6529.8804 
  978800    319.40717   -8887.3451    47.604606   -8934.9497    8920.1374 
  979000    305.62136   -8883.8061    45.549961    -8929.356    5826.9171 
  979200    284.70731    -8890.827    42.432921   -8933.2599   -25365.062 
  979400    288.32804   -8892.0705    42.972556   -8935.0431    39366.323 
  979600    377.82036   -8877.0234    56.310536   -8933.3339    -26009.66 
  979800    326.62114   -8893.9077    48.679779   -8942.5874     10535.29 
  980000    340.27779   -8893.8266    50.715172   -8944.5418    237.47813 
  980200    267.52189   -8889.2513    39.871596   -8929.1229   -21458.539 
  980400    327.39975   -8892.9459    48.795823   -8941.7417    6885.9327 
  980600    265.53394    -8898.724    39.575312   -8938.2993   -27862.747 
  980800    308.17483    -8884.605    45.930532   -8930.5355    35202.363 
  981000    271.10642   -8889.0859    40.405838   -8929.4917    12422.335 
  981200     282.7827   -8899.8182    42.146075   -8941.9643    2180.7274 
  981400    277.39563   -8887.8649    41.343184   -8929.2081    16437.163 
  981600    280.03873   -8888.8831    41.737113   -8930.6202    -8798.751 
  981800    265.06234   -8894.6039    39.505024   -8934.1089    6778.5101 
  982000    288.52426    -8907.137    43.001801   -8950.1388   -10458.744 
  982200    332.80954   -8890.6532    49.602101   -8940.2554   -24269.349 
  982400    316.11499   -8889.6111    47.113937    -8936.725    10592.431 
  982600    254.14785   -8905.4919    37.878324   -8943.3702    6852.6877 
  982800    298.60183   -8891.8132    44.503767    -8936.317   -27432.195 
  983000     258.6253   -8891.9984    38.545644    -8930.544   -3490.3725 
  983200    271.30358   -8894.2055    40.435221   -8934.6407    28426.788 
  983400    305.75639   -8888.1197    45.570086   -8933.6898    31966.241 
  983600    315.92713     -8879.96    47.085938   -8927.0459   -7152.9053 
  983800    295.11854   -8899.5635    43.984616   -8943.5482    20176.916 
  984000    322.54957    -8891.832     48.07295    -8939.905    11379.966 
  984200    318.49044   -8884.2258    47.467976   -8931.6938    7335.6174 
  984400    270.83831   -8900.7372    40.365878   -8941.1031   -16239.885 
  984600    258.25092   -8888.1657    38.489847   -8926.6556    20680.499 
  984800    281.12311   -8885.0118     41.89873   -8926.9105   -7165.4079 
  985000    237.52782    -8902.864    35.401265   -8938.2653   -41147.875 
  985200    248.17507   -8903.3327    36.988137   -8940.3209   -1933.3549 
  985400    377.04894   -8888.0746    56.195563   -8944.2701   -35863.503 
  985600    288.03059   -8895.0624    42.928223   -8937.9906   -11976.226 
  985800    301.33713   -8901.2161    44.911438   -8946.1275    -10457.03 
  986000    290.59516   -8892.7995    43.310449   -8936.1099   -49404.318 
  986200      335.806   -8884.1975    50.048695   -8934.2462   -606.17217 
  986400    301.83919    -8903.145    44.986264   -8948.1312    6948.4007 
  986600    303.82356   -8890.4425    45.282016   -8935.7245   -17683.862 
  986800    372.46513      -8884.7     55.51239   -8940.2124    15245.628 
  987000    263.76336   -8905.3397    39.311423   -8944.6511   -45249.113 
  987200    323.17026   -8890.5554    48.165458   -8938.7209   -5452.4893 
  987400     310.6533   -8890.5129    46.299924   -8936.8128   -20552.044 
  987600     291.4586   -8905.0683    43.439136   -8948.5074   -5068.2002 
  987800    362.90375   -8889.6713    54.087357   -8943.7587   -23137.766 
  988000    307.49972   -8886.5578    45.829912   -8932.3877    4212.8755 
  988200     253.7976   -8903.8604    37.826122   -8941.6865   -2375.1484 
  988400    276.16716    -8888.113    41.160093   -8929.2731   -26992.674 
  988600    315.54312   -8886.2939    47.028706   -8933.3226    -421.2296 
  988800    285.00731   -8898.1872    42.477633   -8940.6649   -157.87255 
  989000    271.22232   -8901.8068    40.423111   -8942.2299    3614.1218 
  989200    343.52519   -8883.6974    51.199166   -8934.8965   -26670.893 
  989400     263.2506   -8898.1306    39.235002   -8937.3656    28909.311 
  989600    255.20791   -8897.7108    38.036316   -8935.7471    51783.651 
  989800    297.80815   -8890.0958    44.385476   -8934.4813    18766.958 
  990000    287.41687   -8893.9782    42.836755   -8936.8149    2686.2299 
  990200    240.35478   -8907.6098    35.822597   -8943.4324    46337.878 
  990400    333.22725   -8890.9669    49.664357   -8940.6312    29179.526 
  990600    256.95427   -8889.0338    38.296593   -8927.3304   -20262.207 
  990800    405.57805   -8886.4277    60.447556   -8946.8753    16264.537 
  991000     261.4916   -8899.9202     38.97284    -8938.893   -7779.0014 
  991200    340.14933   -8883.4357    50.696027   -8934.1317   -28916.216 
  991400    270.33495   -8888.0959    40.290857   -8928.3867   -16523.201 
  991600     271.0796   -8896.2923    40.401839   -8936.6942   -25505.594 
  991800    275.94662   -8886.3428    41.127222     -8927.47    9240.5871 
  992000    362.14631   -8871.3659    53.974468   -8925.3403   -15262.971 
  992200    330.67536    -8893.281    49.284022    -8942.565    7558.0676 
  992400    252.92164   -8896.1749    37.695569   -8933.8704    25562.665 
  992600    270.95414   -8884.5092    40.383141   -8924.8923   -17695.761 
  992800    298.68551   -8891.8265    44.516239   -8936.3428   -13192.418 
  993000    244.21048     -8898.85    36.397253   -8935.2473    8041.6483 
  993200    273.10465   -8899.3772    40.703655   -8940.0809    32657.491 
  993400    300.76546     -8886.93    44.826235   -8931.7562    34486.619 
  993600    252.27011   -8902.8109    37.598464   -8940.4093    21605.965 
  993800    243.33905   -8898.5695    36.267374   -8934.8369   -9273.4285 
  994000    342.89796   -8882.4562    51.105684   -8933.5619     11260.77 
  994200    328.63595   -8889.6352    48.980068   -8938.6153   -4742.7195 
  994400    276.42202    -8899.948    41.198077   -8941.1461   -9620.7402 
  994600    306.28694    -8889.006    45.649159   -8934.6552   -9432.4765 
  994800    345.19602   -8874.9367    51.448189   -8926.3849   -40022.623 
  995000    288.79954   -8890.0338    43.042828   -8933.0766   -9659.8155 
  995200    277.25893    -8893.853    41.322811   -8935.1758   -21284.095 
  995400    379.78796   -8881.3669    56.603789   -8937.9707   -27921.377 
  995600    289.86172   -8896.5014    43.201136   -8939.7026    24775.071 
  995800    303.98595    -8896.718    45.306218   -8942.0242    31554.971 
  996000    318.48161   -8893.1366    47.466659   -8940.6032    5488.5418 
  996200    270.39593   -8891.5965    40.299945   -8931.8964    31690.752 
  996400     299.0379    -8889.904    44.568759   -8934.4727    19464.187 
  996600    285.67027   -8884.7406    42.576441    -8927.317    9450.2604 
  996800    261.27377   -8895.5163    38.940374   -8934.4567    7894.7276 
  997000     288.0779    -8897.818    42.935275   -8940.7533   -23724.235 
  997200    338.66855   -8880.4032    50.475331   -8930.8785    29912.366 
  997400    322.35146   -8892.7575    48.043423   -8940.8009    10044.917 
  997600    269.00134   -8908.5095    40.092095   -8948.6016    5758.1224 
  997800     281.3706     -8900.45    41.935615   -8942.3856   -95.957294 
  998000    315.59415   -8891.5299     47.03631   -8938.5662   -4136.8743 
  998200    352.15104   -8880.4412    52.484768   -8932.9259     7609.361 
  998400    316.09232   -8891.6896    47.110558   -8938.8001   -5394.7372 
  998600    282.26152   -8894.4653    42.068398   -8936.5337    19124.459 
  998800    348.85862   -8872.1533    51.994064   -8924.1474   -25345.753 
  999000    297.20445   -8882.6902    44.295501   -8926.9857    5254.4912 
  999200    281.51549   -8900.0075    41.957211   -8941.9647    11335.309 
  999400     276.4362    -8895.684    41.200191   -8936.8842    2011.3769 
  999600    252.84261   -8888.8196     37.68379   -8926.5034    -38127.22 
  999800    277.12202   -8896.0276    41.302405     -8937.33    8208.6657 
 1000000    247.47398   -8903.4396    36.883646   -8940.3233    -23516.73 
Loop time of 2510.42 on 8 procs for 1000000 steps with 51 atoms

Performance: 8.604 ns/day, 2.789 hours/ns, 398.340 timesteps/s
99.4% CPU use with 8 MPI tasks x no OpenMP threads

MPI task timing breakdown:
Section |  min time  |  avg time  |  max time  |%varavg| %total
---------------------------------------------------------------
Pair    | 2060.3     | 2083.3     | 2121.6     |  38.7 | 82.99
Neigh   | 1.2359     | 1.2479     | 1.2686     |   1.0 |  0.05
Comm    | 19.277     | 57.404     | 80.224     | 231.9 |  2.29
Output  | 0.080477   | 0.093509   | 0.1788     |  10.5 |  0.00
Modify  | 366.43     | 366.66     | 366.88     |   0.8 | 14.61
Other   |            | 1.681      |            |       |  0.07

Nlocal:    6.375 ave 9 max 6 min
Histogram: 7 0 0 0 0 0 0 0 0 1
Nghost:    599.75 ave 612 max 588 min
Histogram: 2 0 2 0 0 0 0 2 1 1
Neighs:    838.875 ave 1151 max 779 min
Histogram: 7 0 0 0 0 0 0 0 0 1

Total # of neighbors = 6711
Ave neighs/atom = 131.588
Neighbor list builds = 1753
Dangerous builds = 0

Please see the log.cite file for references relevant to this simulation

Total wall time: 0:42:02
