LAMMPS (3 Mar 2020)
# Alpha
clear
units		real
dimension 3
boundary        p p p
atom_style	charge
newton on
read_data       OOH_4.lmp
  orthogonal box = (0 0 0) to (32.808 17.78 2.473)
  4 by 2 by 1 MPI processor grid
  reading atoms ...
  59 atoms
  read_data CPU = 0.00817246 secs

timestep 0.25

# ---------- Define Interatomic Potential ---------------------
pair_style      reax/c NULL checkqeq no
pair_coeff      * * ffield.reax C H O
fix             2 all qeq/reax 1 0.0 10.0 1.0e-6 reax/c

#------------ Equilibration of the system -------------------------
reset_timestep 0

dump 1 all custom 10 min.lammpstrj id type x y z

minimize 1.0e-8 1.0e-8 100000 100000
WARNING: Using 'neigh_modify every 1 delay 0 check yes' setting during minimization (../min.cpp:190)
WARNING: Total cutoff < 2*bond cutoff. May need to use an increased neighbor list skin. (../pair_reaxc.cpp:413)
Neighbor list info ...
  update every 1 steps, delay 0 steps, check yes
  max neighbors/atom: 2000, page size: 100000
  master list distance cutoff = 9.5
  ghost atom cutoff = 9.5
  binsize = 4.75, bins = 7 4 1
  2 neighbor lists, perpetual/occasional/extra = 2 0 0
  (1) pair reax/c, perpetual
      attributes: half, newton off, ghost
      pair build: half/bin/newtoff/ghost
      stencil: half/ghost/bin/3d/newtoff
      bin: standard
  (2) fix qeq/reax, perpetual, copy from (1)
      attributes: half, newton off, ghost
      pair build: copy
      stencil: none
      bin: none
Per MPI rank memory allocation (min/avg/max) = 20.84 | 21.19 | 21.86 Mbytes
Step Temp E_pair E_mol TotEng Press 
       0            0   -11276.338            0   -11276.338    44539.126 
      33            0   -11339.561            0   -11339.561    62731.725 
Loop time of 1.06416 on 8 procs for 33 steps with 59 atoms

99.3% CPU use with 8 MPI tasks x no OpenMP threads

Minimization stats:
  Stopping criterion = energy tolerance
  Energy initial, next-to-last, final = 
        -11276.3377712     -11339.5609404     -11339.5609889
  Force two-norm initial, final = 346.864 83.9135
  Force max component initial, final = 196.08 31.5988
  Final line search alpha, max atom move = 0.000718778 0.0227125
  Iterations, force evaluations = 33 179

MPI task timing breakdown:
Section |  min time  |  avg time  |  max time  |%varavg| %total
---------------------------------------------------------------
Pair    | 0.83309    | 0.86573    | 0.91446    |   2.5 | 81.35
Neigh   | 0          | 0          | 0          |   0.0 |  0.00
Comm    | 0.0050394  | 0.053607   | 0.086083   |  10.1 |  5.04
Output  | 9.1521e-05 | 0.00012438 | 0.00022723 |   0.0 |  0.01
Modify  | 0.14269    | 0.14273    | 0.14279    |   0.0 | 13.41
Other   |            | 0.001967   |            |       |  0.18

Nlocal:    7.375 ave 11 max 3 min
Histogram: 1 0 2 1 0 0 0 2 0 2
Nghost:    734.125 ave 771 max 710 min
Histogram: 2 0 1 2 1 0 1 0 0 1
Neighs:    1193.75 ave 1775 max 472 min
Histogram: 1 0 2 0 1 0 1 0 1 2

Total # of neighbors = 9550
Ave neighs/atom = 161.864
Neighbor list builds = 0
Dangerous builds = 0

###
min_style cg
minimize 1.0e-8 1.0e-8 100000 100000
WARNING: Using 'neigh_modify every 1 delay 0 check yes' setting during minimization (../min.cpp:190)
WARNING: Total cutoff < 2*bond cutoff. May need to use an increased neighbor list skin. (../pair_reaxc.cpp:413)
Per MPI rank memory allocation (min/avg/max) = 20.84 | 21.19 | 21.86 Mbytes
Step Temp E_pair E_mol TotEng Press 
      33            0   -11339.561            0   -11339.561    62731.725 
      74            0   -11342.717            0   -11342.717    49388.013 
Loop time of 1.46254 on 8 procs for 41 steps with 59 atoms

99.4% CPU use with 8 MPI tasks x no OpenMP threads

Minimization stats:
  Stopping criterion = energy tolerance
  Energy initial, next-to-last, final = 
        -11339.5609889     -11342.7169777     -11342.7169789
  Force two-norm initial, final = 83.9135 45.7427
  Force max component initial, final = 31.5988 19.9112
  Final line search alpha, max atom move = 0.000602068 0.0119879
  Iterations, force evaluations = 41 250

MPI task timing breakdown:
Section |  min time  |  avg time  |  max time  |%varavg| %total
---------------------------------------------------------------
Pair    | 1.1432     | 1.1909     | 1.2613     |   3.2 | 81.43
Neigh   | 0          | 0          | 0          |   0.0 |  0.00
Comm    | 0.0055083  | 0.075662   | 0.12316    |  12.7 |  5.17
Output  | 9.5338e-05 | 0.00013671 | 0.00027588 |   0.0 |  0.01
Modify  | 0.19334    | 0.1934     | 0.19348    |   0.0 | 13.22
Other   |            | 0.002448   |            |       |  0.17

Nlocal:    7.375 ave 11 max 3 min
Histogram: 1 0 2 1 0 0 0 2 0 2
Nghost:    734.125 ave 771 max 710 min
Histogram: 2 0 1 2 1 0 1 0 0 1
Neighs:    1191.75 ave 1775 max 472 min
Histogram: 1 0 2 0 1 0 1 0 1 2

Total # of neighbors = 9534
Ave neighs/atom = 161.593
Neighbor list builds = 0
Dangerous builds = 0

###
fix 1 all box/relax aniso 0.0
min_style cg
minimize 1.0e-8 1.0e-8 100000 100000
WARNING: Using 'neigh_modify every 1 delay 0 check yes' setting during minimization (../min.cpp:190)
WARNING: Total cutoff < 2*bond cutoff. May need to use an increased neighbor list skin. (../pair_reaxc.cpp:413)
Per MPI rank memory allocation (min/avg/max) = 20.84 | 21.19 | 21.86 Mbytes
Step Temp E_pair E_mol TotEng Press Volume 
      74            0   -11342.717            0   -11342.717    49388.013    1442.5658 
     707            0   -11348.828            0   -11348.828    329.74708    1449.0316 
Loop time of 5.99503 on 8 procs for 633 steps with 59 atoms

99.4% CPU use with 8 MPI tasks x no OpenMP threads

Minimization stats:
  Stopping criterion = energy tolerance
  Energy initial, next-to-last, final = 
        -11342.7169789     -11348.8281629     -11348.8282055
  Force two-norm initial, final = 1917.6 16.0216
  Force max component initial, final = 1552.66 9.21732
  Final line search alpha, max atom move = 1.52436e-05 0.000140505
  Iterations, force evaluations = 633 1093

MPI task timing breakdown:
Section |  min time  |  avg time  |  max time  |%varavg| %total
---------------------------------------------------------------
Pair    | 4.9243     | 5.1392     | 5.4249     |   6.5 | 85.72
Neigh   | 0          | 0          | 0          |   0.0 |  0.00
Comm    | 0.021463   | 0.30673    | 0.52102    |  26.5 |  5.12
Output  | 0.0014431  | 0.0020291  | 0.0040057  |   1.7 |  0.03
Modify  | 0.51686    | 0.51733    | 0.51753    |   0.0 |  8.63
Other   |            | 0.02976    |            |       |  0.50

Nlocal:    7.375 ave 12 max 3 min
Histogram: 1 0 3 0 0 0 2 0 1 1
Nghost:    734.125 ave 771 max 709 min
Histogram: 1 1 1 1 1 1 1 0 0 1
Neighs:    1192.38 ave 1956 max 472 min
Histogram: 1 0 3 0 0 1 0 1 1 1

Total # of neighbors = 9539
Ave neighs/atom = 161.678
Neighbor list builds = 0
Dangerous builds = 0

unfix 1
###
min_style cg
minimize 1.0e-8 1.0e-8 100000 100000
WARNING: Using 'neigh_modify every 1 delay 0 check yes' setting during minimization (../min.cpp:190)
WARNING: Total cutoff < 2*bond cutoff. May need to use an increased neighbor list skin. (../pair_reaxc.cpp:413)
Per MPI rank memory allocation (min/avg/max) = 20.84 | 21.19 | 21.86 Mbytes
Step Temp E_pair E_mol TotEng Press 
     707            0   -11348.828            0   -11348.828    329.74708 
     810            0   -11350.433            0   -11350.433    16380.613 
Loop time of 3.85119 on 8 procs for 103 steps with 59 atoms

99.4% CPU use with 8 MPI tasks x no OpenMP threads

Minimization stats:
  Stopping criterion = energy tolerance
  Energy initial, next-to-last, final = 
        -11348.8282055     -11350.4325276     -11350.4325859
  Force two-norm initial, final = 9.41693 13.9878
  Force max component initial, final = 2.94536 9.15619
  Final line search alpha, max atom move = 0.000167902 0.00153734
  Iterations, force evaluations = 103 672

MPI task timing breakdown:
Section |  min time  |  avg time  |  max time  |%varavg| %total
---------------------------------------------------------------
Pair    | 3.0526     | 3.1626     | 3.3492     |   5.4 | 82.12
Neigh   | 0          | 0          | 0          |   0.0 |  0.00
Comm    | 0.015269   | 0.20147    | 0.31116    |  21.5 |  5.23
Output  | 0.00025217 | 0.00034351 | 0.00069586 |   0.0 |  0.01
Modify  | 0.48046    | 0.48056    | 0.48073    |   0.0 | 12.48
Other   |            | 0.006209   |            |       |  0.16

Nlocal:    7.375 ave 12 max 3 min
Histogram: 1 0 3 0 0 0 2 0 1 1
Nghost:    731.125 ave 771 max 709 min
Histogram: 3 1 0 0 1 1 1 0 0 1
Neighs:    1187.38 ave 1944 max 472 min
Histogram: 1 0 3 0 0 0 1 1 1 1

Total # of neighbors = 9499
Ave neighs/atom = 161
Neighbor list builds = 0
Dangerous builds = 0

###
fix 1 all box/relax aniso 0.0
min_style cg
minimize 1.0e-8 1.0e-8 100000 100000
WARNING: Using 'neigh_modify every 1 delay 0 check yes' setting during minimization (../min.cpp:190)
WARNING: Total cutoff < 2*bond cutoff. May need to use an increased neighbor list skin. (../pair_reaxc.cpp:413)
Per MPI rank memory allocation (min/avg/max) = 20.84 | 21.19 | 21.86 Mbytes
Step Temp E_pair E_mol TotEng Press Volume 
     810            0   -11350.433            0   -11350.433    16380.613    1449.0316 
    1135            0   -11351.374            0   -11351.374   -301.86524    1449.7221 
Loop time of 3.24113 on 8 procs for 325 steps with 59 atoms

99.4% CPU use with 8 MPI tasks x no OpenMP threads

Minimization stats:
  Stopping criterion = energy tolerance
  Energy initial, next-to-last, final = 
        -11350.4325859     -11351.3738241     -11351.3738896
  Force two-norm initial, final = 652.983 16.4006
  Force max component initial, final = 508.92 10.1045
  Final line search alpha, max atom move = 8.97145e-06 9.0652e-05
  Iterations, force evaluations = 325 596

MPI task timing breakdown:
Section |  min time  |  avg time  |  max time  |%varavg| %total
---------------------------------------------------------------
Pair    | 2.6851     | 2.7857     | 2.9383     |   4.9 | 85.95
Neigh   | 0          | 0          | 0          |   0.0 |  0.00
Comm    | 0.012193   | 0.16457    | 0.2648     |  20.3 |  5.08
Output  | 0.00074938 | 0.00099055 | 0.0019253  |   0.0 |  0.03
Modify  | 0.27389    | 0.2742     | 0.27436    |   0.0 |  8.46
Other   |            | 0.0157     |            |       |  0.48

Nlocal:    7.375 ave 11 max 3 min
Histogram: 1 0 2 1 0 0 0 2 0 2
Nghost:    731.125 ave 771 max 710 min
Histogram: 4 0 0 1 1 0 1 0 0 1
Neighs:    1187.75 ave 1769 max 472 min
Histogram: 1 0 2 0 1 0 1 0 1 2

Total # of neighbors = 9502
Ave neighs/atom = 161.051
Neighbor list builds = 0
Dangerous builds = 0

unfix 1
###
min_style cg
minimize 1.0e-8 1.0e-8 100000 100000
WARNING: Using 'neigh_modify every 1 delay 0 check yes' setting during minimization (../min.cpp:190)
WARNING: Total cutoff < 2*bond cutoff. May need to use an increased neighbor list skin. (../pair_reaxc.cpp:413)
Per MPI rank memory allocation (min/avg/max) = 20.84 | 21.19 | 21.86 Mbytes
Step Temp E_pair E_mol TotEng Press 
    1135            0   -11351.374            0   -11351.374   -301.86524 
    1154            0   -11351.516            0   -11351.516    12912.842 
Loop time of 0.745025 on 8 procs for 19 steps with 59 atoms

99.4% CPU use with 8 MPI tasks x no OpenMP threads

Minimization stats:
  Stopping criterion = energy tolerance
  Energy initial, next-to-last, final = 
        -11351.3738896     -11351.5157863     -11351.5158013
  Force two-norm initial, final = 10.2804 15.8344
  Force max component initial, final = 3.27281 6.17999
  Final line search alpha, max atom move = 0.00453428 0.0280218
  Iterations, force evaluations = 19 130

MPI task timing breakdown:
Section |  min time  |  avg time  |  max time  |%varavg| %total
---------------------------------------------------------------
Pair    | 0.59404    | 0.61616    | 0.64897    |   2.3 | 82.70
Neigh   | 0          | 0          | 0          |   0.0 |  0.00
Comm    | 0.0027772  | 0.035508   | 0.057539   |   9.7 |  4.77
Output  | 4.8651e-05 | 6.724e-05  | 0.00014147 |   0.0 |  0.01
Modify  | 0.09202    | 0.092043   | 0.092073   |   0.0 | 12.35
Other   |            | 0.001251   |            |       |  0.17

Nlocal:    7.375 ave 11 max 3 min
Histogram: 1 0 2 1 0 0 0 2 0 2
Nghost:    731.125 ave 771 max 710 min
Histogram: 4 0 0 1 1 0 1 0 0 1
Neighs:    1188 ave 1769 max 474 min
Histogram: 1 0 2 0 1 0 1 0 1 2

Total # of neighbors = 9504
Ave neighs/atom = 161.085
Neighbor list builds = 0
Dangerous builds = 0

undump 1
#############
#----------- Thermo ------------
reset_timestep 0
thermo  200

thermo_style    custom step temp etotal ke pe press
velocity all create 300 12345 mom yes rot yes
fix 1 all npt temp 300 300 25.0 iso 0.0 0.0 250.0

variable vpe equal pe
variable vtemp equal temp
variable vstep equal step

fix output all print 2500 "${vstep} ${vtemp} ${vpe}" file temp-tpdh-Pt.dat screen no

dump 1 all custom 2500 thermo-tpdh-Pt.lammpstrj id type x y z

run 1000000
WARNING: Total cutoff < 2*bond cutoff. May need to use an increased neighbor list skin. (../pair_reaxc.cpp:413)
Per MPI rank memory allocation (min/avg/max) = 19.72 | 20.07 | 20.73 Mbytes
Step Temp TotEng KinEng PotEng Press 
       0          300    -11299.65    51.866095   -11351.516    14548.271 
     200    223.33765   -11279.267    38.612173    -11317.88    76689.764 
     400    262.61299   -11248.413    45.402367   -11293.815   -40321.851 
     600    321.01063    -11235.69     55.49856   -11291.189   -24436.181 
     800    307.43553   -11247.354    53.151602   -11300.505    2631.1873 
    1000    322.71481   -11236.967     55.79319    -11292.76   -49133.383 
    1200    300.96133   -11241.015    52.032297   -11293.047    -1231.147 
    1400    273.53479   -11254.031    47.290604   -11301.322    32295.242 
    1600    314.92718   -11242.335     54.44681   -11296.781    61803.703 
    1800    262.47782   -11259.459    45.378999   -11304.838    46292.145 
    2000    253.61497   -11256.776    43.846727   -11300.623    23551.377 
    2200    317.97182   -11246.375    54.973189   -11301.348   -3621.9667 
    2400    289.44183   -11245.356    50.040724   -11295.397    40644.009 
    2600    340.85521   -11235.223    58.929428   -11294.152   -33182.599 
    2800    293.65856   -11249.569    50.769743   -11300.338   -18928.095 
    3000    290.20343   -11246.252    50.172396   -11296.425   -1473.1328 
    3200    356.56183   -11229.866    61.644898   -11291.511   -47818.431 
    3400    287.70804   -11248.373    49.740976   -11298.114     21273.55 
    3600    252.95661   -11253.519    43.732905   -11297.251   -17575.932 
    3800    323.70197   -11240.228    55.963857   -11296.192    -36728.95 
    4000    322.37876   -11242.437    55.735092   -11298.172    20122.263 
    4200    291.25333   -11259.056    50.353909    -11309.41   -44872.081 
    4400    288.69516   -11247.004    49.911635   -11296.916   -81932.771 
    4600    345.35846   -11226.421    59.707982   -11286.129    38059.819 
    4800    310.91852   -11243.726    53.753764    -11297.48    12720.753 
    5000    296.98963   -11250.391    51.345641   -11301.736    53840.843 
    5200    298.27353   -11237.078     51.56761   -11288.646    26573.069 
    5400    369.33258   -11231.979    63.852795   -11295.832    37895.175 
    5600    349.23371   -11248.539    60.377963   -11308.917    4277.7661 
    5800    275.74734   -11260.838    47.673126   -11308.511    61603.888 
    6000    303.04282    -11242.28    52.392158   -11294.672   -41720.886 
    6200    314.62635   -11247.647    54.394801   -11302.041    14665.842 
    6400    292.56882   -11257.658     50.58134   -11308.239     54764.79 
    6600    311.40555   -11245.323    53.837966   -11299.161   -26170.073 
    6800    280.07942   -11245.614    48.422085   -11294.036   -13360.644 
    7000    299.23452   -11262.729    51.733754   -11314.462   -27376.438 
    7200    304.51555   -11247.136    52.646775   -11299.783    62706.646 
    7400    253.14918   -11254.297    43.766198   -11298.063   -12560.045 
    7600    329.56196   -11247.878    56.976973   -11304.855    4984.0093 
    7800    384.04164   -11235.963    66.395801   -11302.359   -12304.738 
    8000    260.14624    -11254.17    44.975898   -11299.146    92284.293 
    8200    312.55486   -11241.784    54.036667    -11295.82    7920.9649 
    8400    285.51212   -11259.258    49.361329   -11308.619    14721.243 
    8600    310.83989   -11253.853    53.740171   -11307.593   -25786.783 
    8800    314.02538   -11242.455    54.290901   -11296.746   -36781.715 
    9000    270.73209   -11258.629    46.806054   -11305.435    55497.732 
    9200    284.86028   -11253.831    49.248634   -11303.079   -5758.8574 
    9400    272.48212   -11242.276    47.108611   -11289.385    28792.591 
    9600    291.95413   -11255.259    50.475069   -11305.734    41890.037 
    9800    354.54554   -11240.061    61.296309   -11301.358    11971.468 
   10000    307.93432   -11250.846    53.237835   -11304.084   -8380.3899 
   10200    254.27366   -11256.203    43.960606   -11300.164   -30499.501 
   10400    353.80536   -11243.395    61.168341   -11304.564    -44768.84 
   10600    365.93901   -11231.649    63.266091   -11294.915   -2987.7577 
   10800    279.39136   -11252.639    48.303129   -11300.942   -37982.473 
   11000    353.87803   -11246.227    61.180904   -11307.408   -41104.312 
   11200    337.44249   -11244.366    58.339414   -11302.706   -39745.937 
   11400    276.91491   -11261.656    47.874984   -11309.531    24832.878 
   11600    293.52784   -11247.211    50.747142   -11297.958    27229.585 
   11800    293.94748   -11246.207    50.819692   -11297.026   -34061.446 
   12000    267.53624   -11251.214    46.253534   -11297.468    39157.799 
   12200    331.69373   -11244.298    57.345529   -11301.643   -59906.581 
   12400    247.51399   -11250.144    42.791947   -11292.936    50314.929 
   12600    264.02917   -11255.926    45.647207   -11301.574    3530.5926 
   12800    344.70418    -11245.69    59.594866   -11305.285   -32744.317 
   13000       266.17   -11259.004    46.017329   -11305.022    -84839.77 
   13200    303.75356   -11250.977    52.515037   -11303.492   -31984.082 
   13400    332.93712   -11246.689    57.560495   -11304.249    37128.364 
   13600    289.33297   -11256.044    50.021904   -11306.066    49916.234 
   13800    305.11391   -11245.453    52.750223   -11298.203    51710.351 
   14000    314.70338   -11236.474    54.408119   -11290.882   -23338.796 
   14200    330.92649   -11257.696    57.212882   -11314.908    83815.977 
   14400     279.1886   -11252.249    48.268075   -11300.517    13807.762 
   14600    313.92579   -11246.088    54.273682   -11300.362    3732.8408 
   14800    202.44994   -11260.102    35.000959   -11295.103   -11955.998 
   15000    274.24541   -11242.412    47.413462   -11289.826    38707.977 
   15200     333.7329   -11240.552    57.698074    -11298.25    -46468.75 
   15400    291.91142   -11254.519    50.467685   -11304.987    2246.0382 
   15600    299.59438   -11246.557    51.795968   -11298.353   -16637.899 
   15800    336.15751   -11247.539    58.117258   -11305.656   -42695.557 
   16000    309.55969   -11256.537     53.51884   -11310.056   -866.82299 
   16200    322.03413    -11246.96    55.675509   -11302.635    8002.7644 
   16400    311.41318   -11239.365    53.839286   -11293.204   -42945.322 
   16600    317.74987   -11242.268    54.934816   -11297.203   -26289.947 
   16800    274.33612   -11260.441    47.429145    -11307.87    -20804.43 
   17000    292.03993   -11251.553    50.489902   -11302.043   -4335.9611 
   17200    363.45443   -11228.676     62.83654   -11291.512    2463.4751 
   17400    315.13815   -11250.723    54.483283   -11305.206    11873.308 
   17600    266.00432   -11256.065    45.988684   -11302.053   -43651.272 
   17800    310.99743   -11235.878    53.767407   -11289.646   -37826.944 
   18000    312.65639   -11241.631     54.05422   -11295.685    11994.835 
   18200    277.44234   -11253.586    47.966169   -11301.552   -3693.0467 
   18400    345.36068   -11245.403    59.708366   -11305.111    4904.6995 
   18600    267.43793   -11265.001    46.236537   -11311.237    -14746.82 
   18800    312.90063   -11252.326    54.096445   -11306.423   -12064.726 
   19000     263.1929   -11255.453    45.502627   -11300.955    30606.818 
   19200    325.86633   -11252.848    56.338047   -11309.186    16843.022 
   19400    319.27314   -11242.916    55.198169   -11298.114    2692.5837 
   19600    298.81358   -11249.956    51.660978   -11301.617   -31714.431 
   19800    285.95747   -11251.681    49.438324    -11301.12    7450.3614 
   20000    290.54696   -11250.076    50.231788   -11300.307   -9061.6086 
   20200    261.30459   -11263.651    45.176161   -11308.828    11876.751 
   20400     302.0262   -11247.272    52.216398   -11299.488   -55534.293 
   20600      301.408   -11246.935     52.10952   -11299.045    35723.986 
   20800    256.57699   -11260.203    44.358821   -11304.562   -18745.324 
   21000    311.02428   -11247.919     53.77205   -11301.691     69437.44 
   21200    316.13606   -11245.162     54.65581   -11299.818   -72212.674 
   21400    284.26872   -11255.098    49.146361   -11304.245    38839.445 
   21600    273.22003   -11242.878    47.236187   -11290.114   -37648.684 
   21800    284.50106   -11257.658     49.18653   -11306.844   -41987.788 
   22000    309.34505   -11254.318    53.481733     -11307.8    9619.5648 
   22200    338.95122   -11246.014    58.600254   -11304.614    3694.3805 
   22400    276.01061   -11250.275    47.718641   -11297.994    -27968.34 
   22600    241.25701   -11260.051    41.710197   -11301.761     14441.13 
   22800    341.13673    -11244.61      58.9781   -11303.588    33206.488 
   23000    311.57446   -11247.706    53.867168   -11301.573   -32094.485 
   23200    273.78303    -11264.04    47.333521   -11311.373    34447.169 
   23400    352.72818   -11248.503    60.982111   -11309.485   -6642.8104 
   23600    303.70207   -11250.516    52.506135   -11303.022    -15742.85 
   23800    291.71624   -11260.766     50.43394     -11311.2    31372.996 
   24000    302.93382   -11239.456    52.373314   -11291.829    18671.352 
   24200     320.2684    -11244.68    55.370237    -11300.05   -30175.806 
   24400    273.18762   -11260.597    47.230583   -11307.827    43839.101 
   24600    290.00125   -11247.082    50.137442   -11297.219    67403.115 
   24800    319.94148   -11243.671    55.313716   -11298.985   -68139.294 
   25000    270.60333   -11264.717    46.783793   -11311.501   -55120.154 
   25200    267.98922   -11257.512    46.331848   -11303.844    53515.657 
   25400    327.75879   -11243.559    56.665228   -11300.224    9318.2478 
   25600    260.98814    -11257.11    45.121451   -11302.231   -51301.082 
   25800    266.99364   -11250.081    46.159725   -11296.241   -8027.4768 
   26000    290.27208   -11242.149    50.184265   -11292.333   -40952.021 
   26200    266.98289    -11256.93    46.157867   -11303.088   -59527.593 
   26400    320.52851   -11248.854    55.415208   -11304.269    90403.648 
   26600    294.50114   -11245.364    50.915413   -11296.279    27317.359 
   26800    295.57746   -11254.031    51.101495   -11305.133      1151.95 
   27000    307.38952   -11245.899    53.143646   -11299.043   -9691.8991 
   27200    262.95669   -11244.325    45.461789   -11289.786    -103774.2 
   27400    284.32241   -11260.553    49.155644   -11309.708    25976.752 
   27600    323.31476   -11250.977    55.896913   -11306.874   -16028.037 
   27800    350.43508   -11249.307    60.585664   -11309.893   -24936.761 
   28000    317.18387    -11238.25    54.836963   -11293.087    25724.494 
   28200    273.95123   -11239.693    47.362601   -11287.056   -840.98752 
   28400    263.36772    -11254.21    45.532851   -11299.743    27689.899 
   28600    342.87996   -11243.473    59.279482   -11302.752    60198.903 
   28800    308.28524   -11244.865    53.298505   -11298.163    5987.3518 
   29000    274.13189   -11259.517    47.393835   -11306.911    -17132.38 
   29200    292.53678   -11241.129      50.5758   -11291.705    2562.9728 
   29400    287.38002   -11247.738    49.684265   -11297.423   -19185.654 
   29600     303.4325   -11252.925    52.459529   -11305.385    9099.1955 
   29800    228.45789   -11267.154    39.497395   -11306.652   -27210.628 
   30000    288.00231   -11251.509     49.79185   -11301.301   -21372.467 
   30200    354.61175    -11243.41    61.307756   -11304.718   -17958.439 
   30400    287.63175   -11260.692    49.727786    -11310.42   -1621.3727 
   30600    255.49081   -11249.021    44.171035   -11293.192   -77949.806 
   30800    323.81448   -11244.984    55.983308   -11300.967    55643.012 
   31000    285.76899   -11253.689    49.405738   -11303.095    6046.3685 
   31200    343.45155   -11231.995    59.378302   -11291.374   -16776.077 
   31400    274.63434   -11239.174    47.480702   -11286.654   -54057.679 
   31600    273.74214   -11244.997    47.326452   -11292.324    54231.585 
   31800    354.34321   -11241.287    61.261328   -11302.548   -4477.2533 
   32000    300.39522   -11251.448    51.934423   -11303.382   -19257.414 
   32200    299.70313    -11243.54     51.81477   -11295.355   -49486.875 
   32400    259.68362   -11263.786    44.895917   -11308.682    53484.911 
   32600    320.69946   -11247.646    55.444762   -11303.091    17917.317 
   32800    311.47626   -11249.637    53.850191   -11303.487    43236.669 
   33000    262.50679   -11256.892    45.384008   -11302.276   -8446.4067 
   33200    275.30785   -11240.901    47.597144   -11288.499   -57012.528 
   33400    266.17595   -11250.179    46.018357   -11296.198    52289.579 
   33600    326.39833   -11236.265    56.430023   -11292.695   -23318.936 
   33800    282.70512   -11248.249    48.876036   -11297.125    29297.752 
   34000    268.32556   -11252.176    46.389997   -11298.566   -43727.196 
   34200    347.61557    -11231.68    60.098207   -11291.778    46199.081 
   34400    288.54331   -11246.823    49.885383   -11296.708    749.93922 
   34600    339.75809   -11248.038    58.739751   -11306.778   -5232.5001 
   34800     273.1273   -11256.115    47.220156   -11303.335    24715.323 
   35000    302.73341   -11251.578    52.338667   -11303.916    24794.938 
   35200    375.03996   -11239.228    64.839526   -11304.068    90744.844 
   35400    276.49147   -11250.886    47.801776   -11298.688    56575.574 
   35600    297.33172   -11244.012    51.404784   -11295.417    27884.446 
   35800     307.5877   -11246.999    53.177909   -11300.177   -25285.375 
   36000    262.61839   -11260.306    45.403301   -11305.709   -3884.4512 
   36200    295.03491   -11242.749    51.007695   -11293.757   -6953.4412 
   36400    279.16039   -11252.218    48.263198   -11300.481    1645.3596 
   36600    295.80953    -11252.28    51.141616   -11303.422    16367.721 
   36800    352.50177   -11239.948    60.942968   -11300.891   -56059.181 
   37000    279.17371   -11254.439    48.265501   -11302.704    33253.186 
   37200    312.47741   -11241.327    54.023277    -11295.35    41801.337 
   37400    331.95734   -11239.424    57.391103   -11296.815   -15036.649 
   37600    313.89654   -11247.274    54.268626   -11301.542    12508.851 
   37800    330.56569   -11256.587    57.150505   -11313.737   -12925.641 
   38000    279.36482   -11269.922    48.298542   -11318.221   -4864.2239 
   38200    297.74811    -11254.31    51.476772   -11305.787    -18514.27 
   38400    308.86027   -11249.138     53.39792   -11302.536   -44356.207 
   38600    254.61772   -11263.902     44.02009   -11307.922    46097.558 
   38800    281.30141   -11252.829    48.633353   -11301.462    23296.164 
   39000    324.77161    -11240.24    56.148784   -11296.388   -26672.836 
   39200    297.82727   -11252.774    51.490458   -11304.265    33877.599 
   39400    281.29952   -11253.759    48.633025   -11302.392   -18330.725 
   39600    331.54546   -11237.942    57.319895   -11295.262    -47667.67 
   39800    309.02297   -11249.071    53.426049   -11302.497   -10765.782 
   40000    277.68135   -11260.828     48.00749   -11308.835   -28940.493 
   40200    283.04327   -11261.527    48.934497   -11310.462    8086.5628 
   40400    324.64131   -11244.979    56.126256   -11301.106    22253.171 
   40600    290.20213   -11250.088     50.17217    -11300.26   -18956.119 
   40800    260.16142   -11261.578    44.978523   -11306.557    54074.665 
   41000    283.94935   -11243.912    49.091146   -11293.003   -37632.551 
   41200    287.48624   -11250.316    49.702629   -11300.018    13679.164 
   41400    263.66781   -11255.478    45.584733   -11301.063   -1040.9259 
   41600    275.60952    -11254.14    47.649298    -11301.79    21328.091 
   41800    284.81178   -11244.064    49.240249   -11293.304    23175.252 
   42000    293.11202   -11239.446    50.675253   -11290.121    118907.26 
   42200    256.22755   -11260.404    44.298407   -11304.702    21743.026 
   42400     336.7687   -11245.038    58.222924   -11303.261   -105313.81 
   42600    262.71059   -11251.726    45.419241   -11297.145    92515.437 
   42800    274.89365   -11258.531    47.525533   -11306.056   -47331.915 
   43000     322.9693   -11252.499    55.837187   -11308.336    45196.541 
   43200    292.41903   -11244.353    50.555444   -11294.909   -22551.069 
   43400    323.01452   -11243.283    55.845005   -11299.128   -53121.109 
   43600    288.56104   -11257.016    49.888448   -11306.904    53808.105 
   43800    308.85306   -11243.175    53.396674   -11296.572    10943.628 
   44000    291.16534   -11244.444    50.338698   -11294.782    12050.712 
   44200    289.40454   -11247.932    50.034277   -11297.966    29408.968 
   44400    292.86166    -11255.44    50.631968   -11306.072    33733.723 
   44600    259.10195    -11251.64    44.795354   -11296.436     4612.725 
   44800    269.84836   -11237.726     46.65327   -11284.379    26468.889 
   45000    294.91682   -11249.022    50.987279   -11300.009   -36894.952 
   45200    286.05252   -11254.427    49.454757   -11303.882   -19425.575 
   45400    316.50344   -11242.046    54.719325   -11296.766    -10093.35 
   45600    267.89107   -11262.623    46.314878   -11308.938   -14673.666 
   45800    277.69648   -11249.184    48.010106   -11297.194    -14008.25 
   46000    303.81999   -11250.019    52.526522   -11302.545    25067.239 
   46200     257.4297   -11262.185    44.506244   -11306.691   -38546.273 
   46400    284.08145   -11245.071    49.113985   -11294.185   -3499.0839 
   46600     277.9966   -11246.254    48.061993   -11294.316   -32024.293 
   46800    240.44295   -11263.596    41.569456   -11305.165   -20702.851 
   47000    302.16015   -11253.859    52.239557   -11306.098    53174.878 
   47200    255.94455   -11250.231    44.249482   -11294.481    31343.693 
   47400    263.34044   -11261.034    45.528134   -11306.562    28706.747 
   47600    289.42053   -11250.172    50.037042    -11300.21   -69238.186 
   47800    269.59158   -11251.711    46.608876    -11298.32     8704.177 
   48000    332.78481   -11244.903    57.534162   -11302.437   -66107.535 
   48200    331.28335   -11244.845    57.274578   -11302.119    56984.572 
   48400    300.92419   -11259.367    52.025876   -11311.393   -59227.399 
   48600    318.98262   -11242.024    55.147942   -11297.172    18580.442 
   48800    334.10823   -11241.963    57.762964   -11299.726    738.48614 
   49000     324.9748   -11250.098    56.183912   -11306.282    34638.053 
   49200    236.14641   -11262.581     40.82664   -11303.407    15324.924 
   49400    321.61118   -11245.101    55.602387   -11300.704   -12578.127 
   49600    337.67767   -11244.566    58.380074   -11302.946   -20911.952 
   49800    262.18227   -11257.777    45.327902   -11303.105   -76094.452 
   50000    311.28403   -11244.896    53.816957   -11298.713   -57240.651 
   50200    337.72013   -11221.336    58.387414   -11279.723    10201.831 
   50400    310.53544   -11240.244    53.687535   -11293.932    21322.769 
   50600    300.58443   -11252.775    51.967135   -11304.742   -31720.201 
   50800    268.21881    -11262.07     46.37154   -11308.442    17661.811 
   51000    311.51764   -11242.528    53.857345   -11296.386   -68851.196 
   51200    289.09282   -11250.487    49.980385   -11300.467   -86162.722 
   51400    308.27326   -11257.124    53.296434    -11310.42    61356.106 
   51600    342.52172   -11232.064    59.217547   -11291.282    33414.544 
   51800    249.91004   -11247.198    43.206192   -11290.404   -48796.727 
   52000    280.74655     -11258.9    48.537423   -11307.438    36836.653 
   52200    247.78631   -11256.173    42.839027   -11299.012   -5424.8236 
   52400    327.63942   -11243.595     56.64459    -11300.24    18140.689 
   52600    306.99819   -11251.476    53.075991   -11304.552   -31664.173 
   52800    281.83442   -11264.109    48.725502   -11312.835   -27355.173 
   53000    293.77459   -11253.889    50.789803   -11304.679    5946.1085 
   53200    306.79889   -11240.548    53.041534    -11293.59    26600.406 
   53400    256.62917   -11252.868    44.367843   -11297.236   -1394.4809 
   53600    300.63247    -11250.49    51.975441   -11302.465    19036.446 
   53800    279.65282   -11244.061    48.348333   -11292.409   -25756.833 
   54000    290.89209   -11248.543    50.291456   -11298.834   -60541.251 
   54200    265.56311   -11264.313    45.912404   -11310.225   -53846.851 
   54400    298.35069   -11249.432     51.58095   -11301.013     25396.24 
   54600      392.126   -11238.695    67.793481   -11306.489    14266.372 
   54800     258.3817    -11256.92    44.670832   -11301.591   -58513.015 
   55000    336.81485   -11245.355    58.230904   -11303.586   -67866.648 
   55200    322.05482   -11245.814    55.679086   -11301.493   -31004.014 
   55400     290.8545   -11256.479    50.284957   -11306.764    29539.573 
   55600    300.68519   -11245.602    51.984556   -11297.586   -93466.927 
   55800     314.8266   -11237.891    54.429421   -11292.321   -32162.913 
   56000    285.26642   -11257.564     49.31885   -11306.883    27009.904 
   56200    327.32753   -11251.309     56.59067     -11307.9   -39086.456 
   56400    319.20161   -11244.934    55.185804    -11300.12    37886.491 
   56600     360.2432   -11223.953     62.28136   -11286.235    -39891.47 
   56800    329.95514   -11249.667    57.044948   -11306.712    98579.283 
   57000    321.69079   -11254.069     55.61615   -11309.685   -44762.959 
   57200    311.81358   -11239.874    53.908509   -11293.782   -9941.6994 
   57400    263.90264   -11257.792    45.625332   -11303.417    22873.527 
   57600    312.78102   -11251.526    54.075766   -11305.602   -12855.489 
   57800    347.30197   -11245.763    60.043989   -11305.807    19674.966 
   58000    273.46879   -11245.939    47.279195   -11293.218    65294.159 
   58200    272.88249   -11253.096     47.17783   -11300.274    25692.352 
   58400    288.35202   -11254.663     49.85231   -11304.516   -53269.641 
   58600    347.10045   -11236.823    60.009149   -11296.832   -8294.1432 
   58800    297.88475   -11251.087    51.500396   -11302.587   -19732.334 
   59000    258.18573   -11249.267    44.636951   -11293.904    32704.898 
   59200    341.98843    -11235.72    59.125348   -11294.846   -40746.093 
   59400    318.01314   -11249.502    54.980332   -11304.482   -41087.246 
   59600    279.31359   -11251.126    48.289685   -11299.415    13068.876 
   59800    307.25455   -11244.248    53.120312   -11297.368   -43851.475 
   60000    277.94778   -11257.012    48.053554   -11305.066   -32532.447 
   60200    315.39226   -11244.587    54.527217   -11299.114     -38169.1 
   60400    278.06818   -11248.307    48.074368   -11296.381   -47714.241 
   60600    277.67449   -11249.554    48.006305   -11297.561    29613.764 
   60800    373.91081   -11234.242    64.644312   -11298.886   -62954.853 
   61000     278.9156   -11249.345    48.220877   -11297.566   -13326.305 
   61200    321.79604   -11255.047    55.634346   -11310.681    -31071.14 
   61400    262.72196   -11268.637    45.421208   -11314.058   -11993.758 
   61600    323.47847    -11248.72    55.925216   -11304.645    16589.551 
   61800    315.86605   -11248.746    54.609129   -11303.355   -14543.782 
   62000    279.10356   -11255.575    48.253372   -11303.828    7805.7186 
   62200    284.32204   -11252.754    49.155579   -11301.909    45966.672 
   62400    363.78461   -11240.033    62.893623   -11302.927   -38219.215 
   62600     297.1039   -11256.401    51.365396   -11307.766   -16626.029 
   62800    280.36121   -11247.834    48.470804   -11296.305    9234.9693 
   63000     310.0625   -11246.058     53.60577   -11299.663    -77917.73 
   63200    340.77327    -11246.62    58.915263   -11305.535   -96376.841 
   63400    377.37574   -11236.188    65.243353   -11301.431    41614.591 
   63600    289.75717   -11254.258    50.095243   -11304.354    4730.5473 
   63800    345.54278   -11243.023    59.739849   -11302.763    41938.966 
   64000    310.22404   -11248.953    53.633698   -11302.587    13146.014 
   64200    301.02051   -11253.802    52.042528   -11305.845   -26035.164 
   64400    336.08159   -11244.778    58.104131   -11302.882   -19420.233 
   64600    276.12288     -11258.7    47.738051   -11306.438    541.21559 
   64800    305.98105   -11254.562    52.900141   -11307.462   -54404.671 
   65000    275.63808   -11244.021    47.654237   -11291.676    73334.718 
   65200    266.41486   -11252.787    46.059661   -11298.847   -72232.054 
   65400    228.62968   -11261.114    39.527096   -11300.641   -25937.975 
   65600    308.91325   -11242.225     53.40708   -11295.632    21453.456 
   65800    283.96159   -11251.787    49.093262   -11300.881    8390.2627 
   66000    210.67809   -11274.497    36.423499   -11310.921   -3759.8977 
   66200    267.20438   -11261.441    46.196159   -11307.637    8409.3887 
   66400    314.76542   -11245.885    54.418845   -11300.304    16951.472 
   66600    274.89074   -11255.873     47.52503   -11303.398    4195.6369 
   66800    310.98664   -11256.475    53.765541   -11310.241    63692.007 
   67000    339.56225   -11245.346    58.705893   -11304.052    5017.5496 
   67200    284.38513   -11254.712    49.166487   -11303.878    22197.393 
   67400    301.33303   -11247.897    52.096558   -11299.993    67896.843 
   67600    348.75205   -11243.103    60.294689   -11303.398    61818.786 
   67800    294.89875   -11259.965    50.984155   -11310.949    2801.1254 
   68000     259.7253   -11247.415    44.903123   -11292.318    35834.702 
   68200     298.5882   -11246.005    51.622013   -11297.627    -13434.71 
   68400    266.01041   -11260.218    45.989737   -11306.207   -18302.963 
   68600    309.67401   -11242.564    53.538605   -11296.102    36938.929 
   68800    292.07593   -11247.727    50.496127   -11298.224    -9496.727 
   69000    284.22505   -11264.667    49.138812   -11313.806   -10163.173 
   69200    280.20749   -11265.208    48.444228   -11313.652    28129.179 
   69400    281.52519   -11250.379    48.672041   -11299.051   -30379.799 
   69600    303.29899   -11252.472    52.436446   -11304.908    105337.39 
   69800     296.2865   -11254.502    51.224079   -11305.726    157.25702 
   70000    296.71382   -11250.673    51.297958   -11301.971     -36003.6 
   70200    270.59197   -11258.412    46.781829   -11305.193    119040.64 
   70400    321.28369   -11247.693    55.545768   -11303.239    117782.31 
   70600    300.22281   -11246.176    51.904615    -11298.08   -39072.117 
   70800    403.42761     -11229.9    69.747383   -11299.647   -6588.8104 
   71000    322.22913   -11248.899    55.709223   -11304.608    21005.596 
   71200    246.04118    -11249.49    42.537317   -11292.028    23884.644 
   71400    305.41237   -11240.678    52.801823    -11293.48    32492.324 
   71600    293.49078   -11256.478    50.740735   -11307.219   -24857.225 
   71800    242.11361   -11256.053    41.858291   -11297.911    20899.285 
   72000     310.8343   -11239.277    53.739205   -11293.016   -95475.285 
   72200    304.73022   -11253.996    52.683889    -11306.68     58434.76 
   72400    282.12202   -11250.791    48.775225   -11299.566    88.360271 
   72600    294.82782   -11249.037    50.971892   -11300.009    94784.058 
   72800    321.24441   -11245.485    55.538976   -11301.024   -63249.425 
   73000     367.8155   -11229.446    63.590512   -11293.037    24584.839 
   73200    306.26456   -11249.249    52.949155   -11302.198    -66272.46 
   73400    358.12754   -11242.935    61.915589    -11304.85   -42072.135 
   73600    312.76929   -11251.014    54.073739   -11305.087    4298.8547 
   73800    276.44524   -11257.135    47.793783   -11304.929   -41126.364 
   74000    312.20119   -11246.776    53.975522   -11300.752   -1262.5143 
   74200    329.01502   -11248.718    56.882415     -11305.6    27104.181 
   74400    306.45221   -11253.474    52.981599   -11306.455    -72200.47 
   74600    286.47056   -11249.542    49.527031   -11299.069   -41237.302 
   74800    353.40849   -11232.072    61.099727   -11293.172   -87500.838 
   75000    277.53883   -11252.724    47.982851   -11300.707   -27290.068 
   75200    267.10885   -11253.038    46.179644   -11299.218   -9107.7465 
   75400    304.44466    -11233.57    52.634519   -11286.204    40750.467 
   75600    307.10114    -11249.12     53.09379   -11302.214    9288.2554 
   75800    237.32577   -11263.949    41.030536   -11304.979    6302.5979 
   76000    327.92504   -11237.069    56.693971   -11293.763   -48700.715 
   76200    303.31256   -11252.716    52.438794   -11305.155   -5259.8724 
   76400    302.55395   -11258.084    52.307639   -11310.391    2096.2839 
   76600     314.6732   -11243.744      54.4029   -11298.146   -18194.898 
   76800    293.46751   -11250.837    50.736713   -11301.574    20861.517 
   77000    241.01707   -11265.699    41.668714   -11307.368   -995.25605 
   77200    279.94988   -11250.464     48.39969   -11298.863   -64757.582 
   77400    272.19907   -11249.427    47.059676   -11296.486    2228.9191 
   77600    358.37205   -11232.644    61.957862   -11294.602   -58303.569 
   77800    358.93834   -11240.022    62.055767   -11302.078   -6808.9816 
   78000    267.69323   -11253.666    46.280675   -11299.947   -21941.322 
   78200    297.62231   -11244.238    51.455023   -11295.693   -40627.852 
   78400    338.71524    -11228.63    58.559455   -11287.189   -13759.903 
   78600    318.88501   -11252.358    55.131067   -11307.489    104003.14 
   78800     293.5873   -11253.743    50.757423   -11304.501   -35991.417 
   79000    303.04765   -11245.265    52.392993   -11297.658   -7470.1508 
   79200    276.93095   -11250.356    47.877756   -11298.234   -27751.688 
   79400    251.82121   -11261.135    43.536609   -11304.671   -14051.016 
   79600    308.11299    -11240.18    53.268725   -11293.449   -53268.638 
   79800    310.25707   -11245.033    53.639409   -11298.672     902.0605 
   80000    262.16982   -11254.522    45.325749   -11299.847    36371.838 
   80200     334.6628   -11249.698    57.858841   -11307.557    68876.226 
   80400     306.5631   -11246.713     53.00077   -11299.713   -47470.645 
   80600    342.57357   -11239.823    59.226511   -11299.049   -20799.735 
   80800    268.14899   -11258.055     46.35947   -11304.415    5639.9727 
   81000    292.37746   -11252.336    50.548256   -11302.884    54902.539 
   81200    317.58754   -11245.405    54.906751   -11300.312   -19038.272 
   81400    283.81471   -11258.328    49.067868   -11307.395     1915.779 
   81600    313.79503   -11237.243    54.251076   -11291.494   -24909.175 
   81800    294.65587   -11246.482    50.942165   -11297.424   -4196.9888 
   82000    285.77186   -11250.756    49.406236   -11300.162    10602.688 
   82200    301.95423   -11253.561    52.203956   -11305.765    11921.332 
   82400    261.39884   -11256.832    45.192456   -11302.024    6570.3366 
   82600    360.99329   -11240.248    62.411041   -11302.659   -49970.675 
   82800    269.46233   -11256.399     46.58653   -11302.986   -22628.055 
   83000    311.92762   -11255.945    53.928226   -11309.873   -10841.955 
   83200    338.90774   -11237.433    58.592736   -11296.026    -64185.95 
   83400    342.27491   -11239.046    59.174877   -11298.221   -23476.371 
   83600    267.01789    -11256.47    46.163917   -11302.634   -18040.806 
   83800    317.49624   -11246.796    54.890968   -11301.687   -35253.042 
   84000    355.19529   -11239.866    61.408643   -11301.275    25979.069 
   84200    286.81109   -11251.504    49.585904    -11301.09    8035.4951 
   84400    316.96582   -11249.037    54.799265   -11303.837   -3832.0338 
   84600    314.90674   -11237.988    54.443277   -11292.431   -41756.927 
   84800    299.46979   -11254.973    51.774429   -11306.748   -50916.659 
   85000    268.00414   -11253.199    46.334427   -11299.534    -36364.36 
   85200    347.02195   -11238.647    59.995579   -11298.643    58031.272 
   85400    328.88986   -11242.248    56.860776   -11299.109    61904.593 
   85600    267.83007   -11255.313    46.304334   -11301.617    12263.535 
   85800    235.58858   -11268.619    40.730198   -11309.349    62310.055 
   86000    264.86456    -11250.24    45.791635   -11296.032    17049.029 
   86200    304.70284   -11245.314    52.679155   -11297.993    5738.4397 
   86400    292.21183   -11250.807    50.519622   -11301.327    90085.019 
   86600    247.80952    -11260.31    42.843039   -11303.153    23213.908 
   86800    316.87054   -11241.135    54.782792   -11295.918    23162.521 
   87000    298.62259   -11245.405    51.627958   -11297.033    13512.732 
   87200     253.7804    -11265.75    43.875328   -11309.626   -28420.866 
   87400    288.15691     -11252.9    49.818578   -11302.719   -62007.704 
   87600    332.28151   -11241.417    57.447147   -11298.864    6900.2473 
   87800    263.75301   -11256.416    45.599461   -11302.016      1812.29 
   88000    256.73644   -11253.562    44.386388   -11297.948   -85891.134 
   88200    314.49151    -11245.04    54.371489   -11299.412    17845.837 
   88400    257.28192   -11265.365    44.480694   -11309.845    104324.78 
   88600    307.83316   -11256.096    53.220346   -11309.317    18347.345 
   88800     348.9533   -11247.946    60.329482   -11308.275     3750.221 
   89000    327.23624   -11234.483    56.574887   -11291.058    25333.828 
   89200    301.11272   -11237.504     52.05847   -11289.562    96394.089 
   89400    289.63461    -11246.55    50.074054   -11296.624   -27345.958 
   89600    349.52477   -11244.711    60.428283   -11305.139   -13261.549 
   89800    373.60948   -11230.957    64.592216   -11295.549    57154.131 
   90000    272.27929   -11251.449    47.073545   -11298.522   -12692.152 
   90200    286.76073   -11249.728    49.577198   -11299.305     31184.15 
   90400     375.9546   -11237.905    64.997656   -11302.902    17129.232 
   90600    308.25251   -11255.768    53.292846   -11309.061    5130.2268 
   90800     286.1316   -11245.738    49.468429   -11295.207   -1705.5019 
   91000    276.07962    -11242.09    47.730572   -11289.821    -6516.646 
   91200    286.67825   -11258.354    49.562937   -11307.917    3617.6829 
   91400    305.74953   -11243.685    52.860113   -11296.545    10890.761 
   91600    347.10482    -11241.73    60.009905    -11301.74    28237.434 
   91800    256.88388   -11248.507    44.411879   -11292.919    33647.251 
   92000    269.53579   -11252.878     46.59923   -11299.477   -50831.383 
   92200    332.21762   -11236.503    57.436102   -11293.939    10346.129 
   92400    277.25687     -11251.2    47.934105   -11299.134    31310.174 
   92600    291.64853   -11252.358    50.422235    -11302.78    7228.4943 
   92800    299.66313   -11245.471    51.807854   -11297.278   -23167.468 
   93000    250.82068   -11265.825     43.36363   -11309.189    243.99013 
   93200    272.92512    -11248.25      47.1852   -11295.435    17266.082 
   93400    333.67134   -11242.359    57.687431   -11300.046    10198.445 
   93600     275.9408   -11259.772    47.706572   -11307.479   -20164.248 
   93800    300.27063   -11252.401    51.912884   -11304.314   -55039.587 
   94000    335.83294    -11243.34    58.061144   -11301.401     88717.55 
   94200    309.89146   -11236.007      53.5762   -11289.583   -4163.4058 
   94400    313.22829   -11254.225    54.153094   -11308.378    50977.981 
   94600    266.56549   -11253.032    46.085703   -11299.118     86053.28 
   94800    322.11967   -11237.703    55.690298   -11293.393    26701.986 
   95000     311.1926   -11251.597    53.801149   -11305.398    28571.312 
   95200    287.37109   -11254.455     49.68272   -11304.138    12088.108 
   95400    312.85727   -11242.205     54.08895   -11296.294   -69514.693 
   95600    288.26992   -11250.365    49.838117   -11300.203    70772.538 
   95800     272.0669   -11256.401    47.036826   -11303.438   -58768.798 
   96000    330.28308   -11241.165    57.101645   -11298.266    17853.808 
   96200    271.79515   -11253.142    46.989843   -11300.131   -15098.053 
   96400    249.06688   -11268.867    43.060421   -11311.927    29832.842 
   96600    324.67236   -11252.868    56.131624       -11309   -11388.526 
   96800    319.34903   -11243.602     55.21129   -11298.814    22266.172 
   97000    350.34472   -11236.805    60.570042   -11297.375     31860.43 
   97200    283.34145   -11258.343    48.986048   -11307.329   -3717.7246 
   97400    264.14136   -11249.151    45.666602   -11294.817   -41278.718 
   97600    360.75861   -11236.365    62.370468   -11298.736   -7675.0868 
   97800     293.2951   -11248.842    50.706905   -11299.549      4661.38 
   98000    335.95532   -11249.487    58.082302   -11307.569    68395.055 
   98200    294.51885   -11245.888    50.918475   -11296.807    44419.352 
   98400    316.58123   -11235.094    54.732774   -11289.827    6697.8884 
   98600    252.93563   -11255.822    43.729278   -11299.551    37453.073 
   98800    288.89549   -11247.365    49.946269   -11297.311   -16616.279 
   99000    388.70043   -11235.686    67.201245   -11302.887   -41637.618 
   99200    301.87876   -11250.751    52.190908   -11302.942    40410.246 
   99400    296.96971   -11257.744    51.342197   -11309.087   -26092.194 
   99600    236.71221    -11252.33     40.92446   -11293.255    22931.832 
   99800    350.18698   -11244.144     60.54277   -11304.687   -18273.263 
  100000    280.46475   -11259.253    48.488705   -11307.742    63480.226 
  100200    292.11595   -11252.982    50.503046   -11303.485   -40301.581 
  100400    341.51965   -11247.398    59.044302   -11306.443   -47493.496 
  100600     307.8519   -11252.289    53.223587   -11305.512   -65095.183 
  100800    244.55814    -11262.18    42.280919   -11304.461   -16633.093 
  101000     342.0727   -11240.362    59.139917   -11299.502    9414.4398 
  101200    275.72728   -11255.608    47.669657   -11303.278   -23389.937 
  101400    315.09615   -11252.388    54.476022   -11306.864    1648.9221 
  101600    348.51921   -11237.632    60.254435   -11297.887    20130.443 
  101800    302.07161   -11254.271    52.224249   -11306.496   -35167.568 
  102000    306.87052   -11243.976    53.053919    -11297.03   -2423.2298 
  102200    323.65959    -11240.08     55.95653   -11296.036   -24552.788 
  102400    283.22605   -11253.576    48.966097   -11302.542    16758.588 
  102600     273.7275   -11247.075    47.323922   -11294.398   -17757.388 
  102800    340.36378   -11234.384    58.844466   -11293.228   -21524.257 
  103000    294.04669   -11253.058    50.836845   -11303.895    88089.063 
  103200    306.38965   -11249.562    52.970782   -11302.533    7187.0065 
  103400    334.05965   -11230.246    57.754564       -11288   -30518.549 
  103600    362.22943   -11244.219    62.624754   -11306.844    36960.498 
  103800    293.45229   -11254.679     50.73408   -11305.413    63938.905 
  104000    335.08306   -11242.033      57.9315   -11299.965    41913.564 
  104200    312.23443   -11244.459    53.981269    -11298.44    58331.248 
  104400    329.11434   -11253.467    56.899585   -11310.367   -38904.705 
  104600    332.94153   -11243.014    57.561256   -11300.575    -28896.49 
  104800    250.65534     -11249.6    43.335046   -11292.935    65690.464 
  105000       307.78   -11252.079    53.211156   -11305.291   -21194.264 
  105200    364.71421   -11230.483     63.05434   -11293.537    54994.332 
  105400    333.80281   -11241.999    57.710161   -11299.709   -2884.5738 
  105600    294.36358   -11251.529    50.891631   -11302.421    35586.511 
  105800    278.08644   -11256.065    48.077526   -11304.142   -3953.1732 
  106000    375.42055    -11237.42    64.905326   -11302.325    -5991.594 
  106200     307.1413   -11249.091    53.100733   -11302.192    50582.588 
  106400    297.11732   -11248.983    51.367716    -11300.35    -33237.96 
  106600    310.79577   -11246.017    53.732542   -11299.749    47313.406 
  106800    249.07265   -11257.691    43.061418   -11300.752   -52105.284 
  107000    341.31168   -11240.333    59.008347   -11299.342     -60653.7 
  107200    319.47799   -11246.536    55.233586   -11301.769   -79675.553 
  107400    306.38475   -11250.633    52.969935   -11303.603     41878.06 
  107600    278.15308   -11243.743    48.089046   -11291.832   -75032.369 
  107800    334.94425   -11248.032      57.9075   -11305.939   -36001.836 
  108000     269.6632   -11256.533    46.621258   -11303.154    -92.43811 
  108200    288.88153   -11242.917    49.943856   -11292.861    35299.095 
  108400    326.51157   -11249.751      56.4496   -11306.201    41961.772 
  108600    276.68419   -11256.009    47.835095   -11303.844    43422.892 
  108800    259.16572   -11250.929    44.806379   -11295.736    37524.203 
  109000    330.35979   -11242.162    57.114908   -11299.277   -32579.588 
  109200    241.23526   -11258.023    41.706436   -11299.729    37520.668 
  109400    320.29774   -11246.354     55.37531    -11301.73    35480.119 
  109600     327.5312   -11248.484    56.625881   -11305.109   -18033.642 
  109800    224.58235   -11267.984    38.827365   -11306.811    14768.511 
  110000    288.17968   -11252.052    49.822515   -11301.874   -18707.541 
  110200    316.32828   -11244.818    54.689042   -11299.507    39242.727 
  110400    257.61094   -11261.896    44.537577   -11306.433    36097.964 
  110600    323.11759   -11244.861    55.862826   -11300.724    38104.405 
  110800    306.56401   -11240.439    53.000927   -11293.439    18981.536 
  111000    243.97964   -11254.301    42.180904   -11296.482    2368.6279 
  111200    289.67006   -11250.204    50.080183   -11300.284     16393.11 
  111400    278.98339   -11245.033    48.232597   -11293.266    1376.9536 
  111600    279.71652   -11254.074    48.359346   -11302.433    -1502.184 
  111800    257.93382   -11261.977      44.5934    -11306.57    7496.6992 
  112000    277.89159   -11246.701    48.043839   -11294.745   -13680.715 
  112200    301.73559   -11246.359    52.166155   -11298.525   -557.91777 
  112400     306.1294   -11247.081    52.925789   -11300.007   -65569.169 
  112600    270.64718   -11249.147    46.791375   -11295.938   -58984.779 
  112800    289.66511   -11267.266    50.079327   -11317.345   -44140.091 
  113000    326.42728   -11250.628    56.435028   -11307.063   -39343.527 
  113200    297.41278   -11243.964    51.418799   -11295.383    1727.9313 
  113400    287.54835   -11257.487    49.713366     -11307.2   -18277.189 
  113600    297.25636   -11259.586    51.391756   -11310.978    19240.255 
  113800    305.63346   -11248.488    52.840047   -11301.328   -45959.037 
  114000    383.26054    -11234.92    66.260759    -11301.18    -22688.89 
  114200    266.86226   -11249.355    46.137011   -11295.492   -83518.834 
  114400    298.66524    -11249.02    51.635332   -11300.656    63427.573 
  114600    277.75856   -11261.063     48.02084   -11309.084   -58335.927 
  114800    293.66934   -11253.948    50.771607   -11304.719    8501.1849 
  115000    285.89698   -11245.975    49.427867   -11295.403   -17308.751 
  115200    244.59324   -11259.938    42.286988   -11302.225   -25627.132 
  115400    322.65659   -11237.665    55.783125   -11293.448      20788.5 
  115600    317.07026   -11246.954    54.817321   -11301.771    19268.901 
  115800    289.18578   -11253.085    49.996457   -11303.082    14009.545 
  116000    338.55487   -11236.354    58.531729   -11294.885     7756.852 
  116200     289.7278    -11251.44    50.090166    -11301.53    11927.114 
  116400     276.5166   -11257.399    47.806121   -11305.205   -25401.823 
  116600    366.57757   -11238.108     63.37649   -11301.484   -34135.052 
  116800    293.41924   -11254.667    50.728368   -11305.396   -30685.201 
  117000    271.88714   -11253.634    47.005748    -11300.64    7883.5003 
  117200    323.26556   -11235.581    55.888407    -11291.47   -98827.283 
  117400    268.05908   -11254.252    46.343926   -11300.596    84527.485 
  117600    297.85394   -11244.243    51.495069   -11295.738    85483.102 
  117800    376.49028   -11225.229    65.090269   -11290.319   -65344.095 
  118000    297.88974   -11241.849    51.501258   -11293.351   -50427.896 
  118200    290.45353   -11249.783    50.215635   -11299.999    26422.107 
  118400    246.14296   -11256.214    42.554914   -11298.769   -76633.453 
  118600    304.40148   -11238.297    52.627054   -11290.924   -70774.251 
  118800     259.6982   -11252.571    44.898439    -11297.47   -32770.817 
  119000    295.91017   -11251.777    51.159017   -11302.936    3003.2393 
  119200    278.35863   -11241.453    48.124583   -11289.578   -5456.5707 
  119400     246.4175   -11254.678    42.602379    -11297.28   -4744.4315 
  119600    280.75175   -11248.644    48.538323   -11297.183   -58495.681 
  119800    312.19493   -11236.596     53.97444    -11290.57    47545.904 
  120000    313.01195   -11254.868    54.115691   -11308.984   -36044.837 
  120200     294.3289   -11251.464    50.885636   -11302.349    8098.3497 
  120400    298.20344   -11242.632    51.555493   -11294.187   -79257.484 
  120600    318.10806   -11245.447    54.996743   -11300.444    6011.9099 
  120800    315.43108   -11247.998    54.533928   -11302.532   -16335.605 
  121000     302.7467   -11249.476    52.340964   -11301.817   -10690.277 
  121200    297.26929   -11242.179     51.39399   -11293.573    38292.573 
  121400     305.9098   -11242.256    52.887823   -11295.144    16185.918 
  121600    290.87928   -11255.199    50.289241   -11305.488   -23304.924 
  121800     300.9241   -11246.194    52.025859    -11298.22   -14168.518 
  122000    339.45863   -11224.788    58.687979   -11283.476    45305.476 
  122200    315.55041   -11242.883    54.554559   -11297.437    63102.775 
  122400     274.5324   -11251.903    47.463079   -11299.366    32711.842 
  122600    295.64487   -11237.848     51.11315   -11288.962    49725.335 
  122800     264.4486   -11248.186    45.719721   -11293.906   -23980.871 
  123000    322.82142   -11245.771    55.811621   -11301.583    40369.333 
  123200    361.93426   -11239.797    62.573722    -11302.37    22858.714 
  123400    291.61555   -11250.329    50.416532   -11300.746    11275.813 
  123600     275.2754   -11255.701    47.591533   -11303.293    28898.722 
  123800    260.82304   -11258.207    45.092908     -11303.3    57228.906 
  124000    316.63596   -11241.059    54.742235   -11295.801   -28780.411 
  124200    259.31541   -11255.895    44.832259   -11300.727    14743.261 
  124400    291.68158   -11248.881    50.427949   -11299.309    15103.916 
  124600    231.60479    -11253.97    40.041453   -11294.011    41287.864 
  124800    335.99224   -11234.544    58.088685   -11292.633   -44972.159 
  125000    295.32728   -11243.972    51.058242    -11295.03    23417.239 
  125200     283.6829   -11250.719    49.045081   -11299.764    30259.767 
  125400    266.21799   -11265.663    46.025626   -11311.689    30315.014 
  125600    278.25084    -11247.07    48.105948   -11295.176    1321.9638 
  125800    342.19429   -11249.186    59.160938   -11308.347   -36918.147 
  126000    283.34551   -11256.285    48.986751   -11305.272     37799.06 
  126200    268.17898   -11247.211    46.364655   -11293.576    704.39195 
  126400    308.86447   -11242.147    53.398646   -11295.545    21911.703 
  126600    314.43839   -11250.525    54.362305   -11304.887    52476.949 
  126800    296.77584   -11246.851     51.30868    -11298.16    77208.967 
  127000    330.88676   -11232.211    57.206014   -11289.417   -48885.621 
  127200    271.33309   -11253.098     46.90996   -11300.008    69979.196 
  127400    275.08539   -11257.794    47.558683   -11305.353    -18957.57 
  127600    311.70933   -11240.684    53.890486   -11294.574   -25593.015 
  127800    293.19319   -11252.781    50.689287    -11303.47    54046.894 
  128000    265.05631   -11259.795    45.824785    -11305.62    43652.365 
  128200    319.16542   -11245.358    55.179547   -11300.537    39626.433 
  128400    296.31965   -11250.277    51.229811   -11301.507   -9725.4504 
  128600     241.0407   -11265.536    41.672799   -11307.208   -36613.002 
  128800    286.62532   -11261.932    49.553787   -11311.486    21127.098 
  129000    309.29319   -11246.103    53.472766   -11299.575     67984.68 
  129200    284.97229    -11245.91       49.268   -11295.178    17174.187 
  129400    279.81751   -11256.698    48.376805   -11305.075    25207.375 
  129600    313.01567   -11246.905    54.116335   -11301.021    17383.523 
  129800    319.20788   -11241.918    55.186887   -11297.104    69082.085 
  130000    288.20158   -11257.722    49.826301   -11307.549   -47223.877 
  130200     234.6994   -11271.832    40.576472   -11312.408    22606.011 
  130400    326.99377   -11255.519    56.532967   -11312.052   -1043.7742 
  130600    320.09694   -11244.267    55.340594   -11299.608   -16088.013 
  130800    255.83626   -11254.587    44.230759   -11298.818    41347.305 
  131000     324.2133   -11248.186    56.052259   -11304.238   -53899.514 
  131200    302.31714   -11240.304    52.266698   -11292.571   -138.42637 
  131400      289.281   -11247.301    50.012919   -11297.314   -20053.647 
  131600     371.6122   -11239.815    64.246912   -11304.061   -13408.336 
  131800    332.15908   -11235.497    57.425982   -11292.923   -22427.074 
  132000    308.36514     -11251.8    53.312319   -11305.112     29041.22 
  132200     348.1191   -11243.023    60.185261   -11303.208   -8551.9102 
  132400    311.86807   -11244.559     53.91793   -11298.477   -6284.8249 
  132600    250.45598   -11270.515    43.300578   -11313.816    70896.193 
  132800    274.88885   -11259.176    47.524704   -11306.701   -6857.4693 
  133000    303.15582   -11245.232    52.411695   -11297.644    492.22188 
  133200    329.58877   -11237.786    56.981607   -11294.768   -21971.815 
  133400    290.95284   -11255.475    50.301959   -11305.777     76559.48 
  133600    318.44657   -11248.184    55.055267   -11303.239   -66095.537 
  133800    223.04643   -11266.105    38.561825   -11304.667   -15362.217 
  134000    312.69036    -11249.01    54.060094    -11303.07    -3323.783 
  134200    362.51573   -11238.637    62.674251   -11301.311   -30418.117 
  134400    296.12248    -11254.76    51.195722   -11305.955    39466.772 
  134600    244.30764   -11255.175    42.237611   -11297.412    -53427.18 
  134800    315.43938   -11239.945    54.535363   -11294.481    99424.229 
  135000    269.98882   -11253.678    46.677553   -11300.356   -14088.674 
  135200     342.7011   -11235.055    59.248558   -11294.303   -4776.1595 
  135400    333.32477   -11241.242    57.627514   -11298.869    -50324.91 
  135600    275.42027   -11253.581     47.61658   -11301.197   -27788.595 
  135800    332.58017    -11238.93    57.498782   -11296.429    59391.757 
  136000    336.24321   -11225.505    58.132074   -11283.637   -10110.843 
  136200    274.81363   -11256.256    47.511699   -11303.767   -11202.546 
  136400    300.81088   -11250.621    52.006286   -11302.628     19449.97 
  136600    364.38742   -11232.742    62.997842    -11295.74    13727.449 
  136800    318.65742   -11250.705    55.091721   -11305.797   -5535.6453 
  137000     302.8891   -11251.653    52.365582   -11304.019    -9119.953 
  137200    269.32924   -11258.345     46.56352   -11304.909   -808.40129 
  137400    350.55581   -11241.477    60.606537   -11302.083   -27395.735 
  137600    297.53452   -11256.776    51.439846   -11308.216   -70223.887 
  137800    275.00437    -11263.64    47.544676   -11311.184    19990.642 
  138000    295.78206   -11251.747    51.136869   -11302.884    1895.2835 
  138200    328.22364    -11239.68    56.745594   -11296.425   -28975.461 
  138400    294.02814   -11260.462    50.833638   -11311.295    47172.884 
  138600    332.62956   -11249.191    57.507321   -11306.698   -14949.583 
  138800    343.40237    -11246.41      59.3698    -11305.78    22790.185 
  139000    274.46231   -11260.536    47.450961   -11307.987    30539.193 
  139200     318.2912   -11252.184    55.028405   -11307.212   -58698.698 
  139400    311.14791   -11247.717    53.793423   -11301.511    20091.308 
  139600    268.81457   -11266.793     46.47454   -11313.267    18638.969 
  139800    282.47274   -11252.088     48.83586   -11300.924    -50942.94 
  140000    295.71028    -11253.42    51.124459   -11304.545    21770.767 
  140200    296.89462   -11244.135    51.329215   -11295.465   -72959.653 
  140400    346.69018    -11247.01    59.938219   -11306.949     24226.66 
  140600    259.24379   -11257.241    44.819876   -11302.061    23458.879 
  140800    355.43925   -11241.977     61.45082   -11303.427    23939.058 
  141000    332.59357   -11249.339    57.501098    -11306.84    17017.074 
  141200    310.47296   -11251.698    53.676733   -11305.375    -40529.48 
  141400    310.46775   -11233.385    53.675833   -11287.061    62657.571 
  141600    328.30488   -11251.439     56.75964   -11308.199   -28682.615 
  141800    278.63701   -11254.328    48.172712   -11302.501   -37792.874 
  142000    358.95055   -11246.641    62.057877   -11308.699   -40812.747 
  142200    310.59351   -11250.458    53.697575   -11304.155    6052.6824 
  142400    277.11189   -11259.519    47.909038   -11307.428    43444.337 
  142600    308.19003   -11240.067    53.282044   -11293.349   -60832.612 
  142800    310.55058   -11248.885    53.690153   -11302.575   -65635.256 
  143000    289.59247   -11249.405    50.066768   -11299.472   -6970.8927 
  143200    270.91261     -11251.4    46.837263   -11298.237    93810.728 
  143400    358.62076   -11240.922    62.000862   -11302.923    -32728.89 
  143600    287.11624   -11258.904     49.63866   -11308.543   -38976.027 
  143800    338.57753   -11250.293    58.535647   -11308.829   -26275.357 
  144000    305.27153   -11247.355    52.777474   -11300.133   -15774.066 
  144200    312.69553   -11247.827    54.060988   -11301.888    40943.175 
  144400    336.25398   -11261.643    58.133936   -11319.777   -2968.8561 
  144600    329.08143   -11242.295    56.893895   -11299.189    10071.587 
  144800    295.44451   -11248.084    51.078511   -11299.163   -5651.9859 
  145000    274.71913   -11262.721    47.495362   -11310.217   -57342.982 
  145200    287.81941   -11263.216    49.760229   -11312.977   -18926.253 
  145400    318.06647   -11246.223    54.989553   -11301.212   -42771.051 
  145600    333.43238   -11242.558    57.646119   -11300.204    9412.9867 
  145800    302.33814   -11258.555    52.270328   -11310.825   -18825.832 
  146000    318.96016   -11248.618     55.14406   -11303.762    -37383.99 
  146200    335.40284   -11244.086    57.986785   -11302.073   -39743.287 
  146400    267.15242   -11254.107    46.187176   -11300.294    8553.4902 
  146600    365.40011   -11231.496    63.172923   -11294.668    8502.7543 
  146800    306.41197   -11243.912    52.974642   -11296.887    22194.422 
  147000    256.05589    -11256.44    44.268731   -11300.709   -20424.247 
  147200    354.99388   -11230.282    61.373821   -11291.656   -51907.267 
  147400    324.27805   -11245.572    56.063454   -11301.636    32799.917 
  147600    270.39809   -11253.863    46.748309   -11300.612   -20634.699 
  147800    403.09976   -11234.403    69.690702   -11304.093    17725.302 
  148000    312.77389   -11246.355    54.074535   -11300.429   -17930.847 
  148200    239.36101   -11262.837    41.382402   -11304.219   -2320.8609 
  148400    327.59579   -11254.952    56.637047   -11311.589   -16974.482 
  148600    324.00077   -11242.961    56.015516   -11298.977   -34796.287 
  148800    309.58826   -11251.514     53.52378   -11305.038    37338.236 
  149000    273.80072   -11264.197    47.336581   -11311.534   -48829.635 
  149200    324.15557    -11242.79    56.042278   -11298.832     14702.83 
  149400    282.29238   -11251.977    48.804677   -11300.781    39382.762 
  149600    348.99303   -11241.439    60.336352   -11301.775   -7042.5547 
  149800    291.25358   -11242.389    50.353952   -11292.743   -37382.392 
  150000    256.47428   -11258.588    44.341064   -11302.929    13563.925 
  150200    348.81002   -11243.131    60.304712   -11303.435   -38493.702 
  150400    311.56885    -11244.17    53.866198   -11298.036    5411.1149 
  150600    259.61791   -11248.507    44.884556   -11293.392   -26222.106 
  150800    352.15845   -11241.028    60.883612   -11301.912      62851.8 
  151000    335.39109   -11246.605    57.984753   -11304.589    21521.197 
  151200    260.95969   -11258.169    45.116533   -11303.286    25096.847 
  151400    326.63424   -11240.131    56.470808   -11296.602   -30971.567 
  151600    399.40082   -11224.702    69.051203   -11293.753   -52079.029 
  151800    295.62334   -11251.849    51.109428   -11302.958    9772.0343 
  152000     267.8242     -11258.6    46.303318   -11304.903    6558.0916 
  152200    326.40963   -11243.707    56.431976   -11300.139    19398.194 
  152400    294.81032   -11252.581    50.968866    -11303.55   -88881.806 
  152600    272.69033   -11254.202    47.144608   -11301.346   -25162.959 
  152800    324.97109   -11236.999    56.183272   -11293.182    84871.046 
  153000    304.61962   -11252.633    52.664767   -11305.298    -49344.22 
  153200    292.47647    -11248.87    50.565374   -11299.435   -10404.989 
  153400    340.46156   -11244.024    58.861372   -11302.886   -37340.208 
  153600     290.0553   -11247.086    50.146785   -11297.232   -30705.536 
  153800    331.93741   -11244.569    57.387658   -11301.957    19356.814 
  154000    246.06796    -11256.99    42.541946   -11299.532   -22814.892 
  154200    297.61153   -11237.424    51.453159   -11288.877      1465.01 
  154400    313.86761   -11242.553    54.263623   -11296.817   -24244.998 
  154600    285.76439   -11249.279    49.404944   -11298.684   -52546.661 
  154800    315.57439   -11247.748    54.558704   -11302.306   -7586.5789 
  155000     286.6891    -11252.46    49.564813   -11302.024    36951.091 
  155200    293.42081   -11241.898    50.728639   -11292.626    -9065.735 
  155400    293.60227   -11245.567    50.760011   -11296.327   -12929.868 
  155600    292.20943   -11255.318    50.519206   -11305.837    -34895.56 
  155800    311.20692   -11245.775    53.803625   -11299.579   -71596.533 
  156000    288.66876   -11247.849    49.907071   -11297.756    2974.1809 
  156200     266.4958   -11254.471    46.073655   -11300.544    59457.173 
  156400    272.03499   -11256.713    47.031308   -11303.744    36551.565 
  156600    322.35441   -11239.284    55.730881   -11295.015   -5375.9639 
  156800    308.90774   -11246.436    53.406127   -11299.842     15458.76 
  157000    290.20497   -11260.019    50.172662   -11310.192   -564.45063 
  157200    312.51673    -11251.11    54.030075    -11305.14      17653.5 
  157400    281.37513   -11245.687    48.646098   -11294.333   -46709.896 
  157600    412.30634   -11219.577    71.282399   -11290.859    34611.216 
  157800    373.83195   -11239.563    64.630677   -11304.194    41041.243 
  158000    264.45369   -11250.985    45.720601   -11296.706    -55560.87 
  158200    341.02802   -11236.727    58.959305   -11295.686    -31292.29 
  158400    305.30892   -11239.859    52.783938   -11292.643    1735.1144 
  158600    273.35545   -11255.349    47.259599   -11302.608   -27397.605 
  158800    295.35031   -11242.868    51.062224   -11293.931    40377.145 
  159000    403.44529   -11230.444    69.750438   -11300.194    20491.769 
  159200    265.16983   -11248.284    45.844412   -11294.129    53448.778 
  159400    285.48259    -11247.98    49.356224   -11297.336   -50583.168 
  159600    290.24484   -11245.692    50.179554   -11295.871     52647.58 
  159800    358.03315   -11241.026    61.899271   -11302.926    7305.9967 
  160000    289.90116   -11256.718    50.120137   -11306.838    15788.251 
  160200    296.20031   -11248.966    51.209178   -11300.175   -88365.064 
  160400    303.60757   -11242.335    52.489797   -11294.825   -39777.095 
  160600    271.83215   -11253.665     46.99624   -11300.661    67235.489 
  160800    302.70607   -11247.666    52.333939       -11300     22121.23 
  161000    360.96802   -11236.888    62.406672   -11299.295    79100.019 
  161200    299.36076   -11255.762    51.755579   -11307.518   -14387.737 
  161400    247.43699   -11248.668    42.778635   -11291.447   -46103.792 
  161600    390.99993   -11228.073    67.598798   -11295.672   -18049.545 
  161800    362.20912   -11241.195    62.621241   -11303.816   -66394.942 
  162000     258.1917   -11259.069    44.637984   -11303.707    48930.384 
  162200    293.43315   -11250.315    50.730772   -11301.046    29028.025 
  162400    285.68016   -11240.811    49.390381   -11290.201   -29045.212 
  162600     283.3623   -11247.271    48.989652    -11296.26   -16691.452 
  162800    285.34611   -11252.949    49.332628   -11302.281    45841.715 
  163000    327.68924   -11253.877    56.653204   -11310.531   -8486.5623 
  163200    344.73849   -11238.495    59.600797   -11298.096    99850.474 
  163400    265.69153   -11254.654    45.934608   -11300.588    7126.3486 
  163600    329.91505   -11251.921    57.038017   -11308.959   -817.41013 
  163800    319.44701   -11230.093    55.228231   -11285.321    22302.385 
  164000    331.90942   -11243.954    57.382818   -11301.337    26764.636 
  164200    303.40233   -11253.889    52.454313   -11306.343   -61936.779 
  164400     358.1183    -11234.65    61.913992   -11296.564    30780.552 
  164600    284.01521   -11244.119    49.102533   -11293.222   -29379.541 
  164800    295.12775   -11257.824    51.023747   -11308.848    20517.273 
  165000    298.34121   -11249.573    51.579311   -11301.153   -4522.0525 
  165200     309.0766     -11246.2    53.435321   -11299.635    44223.038 
  165400      292.039    -11252.51    50.489742       -11303    35433.271 
  165600    259.52025   -11256.536    44.867674   -11301.403    35045.593 
  165800    291.31362   -11242.441    50.364332   -11292.806    20111.356 
  166000    305.72891   -11250.425     52.85655   -11303.282   -62179.107 
  166200     313.7629     -11261.1    54.245521   -11315.345   -44811.131 
  166400    261.17349   -11247.803    45.153496   -11292.956   -25109.721 
  166600    316.28866   -11247.119    54.682192   -11301.802     20817.99 
  166800    260.01042   -11266.412    44.952417   -11311.364    3073.3775 
  167000    295.86099   -11249.407    51.150514   -11300.558   -12204.154 
  167200    334.66959   -11243.913    57.860015   -11301.773   -27026.902 
  167400    332.50406   -11249.305    57.485624    -11306.79    2874.6178 
  167600      329.831   -11249.888    57.023487   -11306.911   -16987.778 
  167800    317.69032   -11244.193    54.924522   -11299.118    6031.3553 
  168000    225.93898    -11259.55    39.061909   -11298.612    3809.9505 
  168200    274.58146   -11252.428     47.47156     -11299.9    3088.4541 
  168400    322.51834   -11241.752    55.759222   -11297.511   -13187.663 
  168600    306.29114    -11250.54     52.95375   -11303.493    20450.949 
  168800    288.97479   -11251.466    49.959979   -11301.426    93025.359 
  169000    369.06508   -11231.994    63.806549   -11295.801    -11283.91 
  169200    296.75567   -11249.832    51.305193   -11301.138   -44985.294 
  169400    287.06998   -11253.982    49.630663   -11303.613   -12138.478 
  169600    309.17508    -11251.23    53.452347   -11304.682    45258.921 
  169800     347.0196   -11230.757    59.995172   -11290.752    2608.0107 
  170000    328.50778   -11250.291    56.794719   -11307.086    -39676.97 
  170200    315.74282    -11252.37    54.587824   -11306.958   -624.62258 
  170400    318.02669   -11232.781    54.982675   -11287.763   -3148.5282 
  170600    370.20896   -11239.089    64.004309   -11303.093     12129.56 
  170800     261.6336   -11251.165    45.233043   -11296.398   -9926.0409 
  171000    285.97268   -11253.114    49.440954   -11302.555   -21368.885 
  171200    376.95444   -11233.399    65.170516    -11298.57   -19839.778 
  171400    314.48808   -11250.629    54.370896       -11305   -17979.907 
  171600    310.43608   -11245.322    53.670357   -11298.993   -440.73506 
  171800    308.48977   -11244.949    53.333865   -11298.283    -24028.24 
  172000    287.42647   -11258.585    49.692296   -11308.278   -17370.238 
  172200    322.08723   -11240.362     55.68469   -11296.046   -86264.371 
  172400     294.3365   -11241.042    50.886949   -11291.929    68475.224 
  172600    244.41356   -11260.839    42.255923   -11303.095    16648.349 
  172800    294.08532   -11254.313    50.843523   -11305.157    15182.052 
  173000    294.38319   -11245.076    50.895021   -11295.971   -49854.741 
  173200    299.54513   -11248.677    51.787454   -11300.464   -62374.432 
  173400    266.32767   -11265.192    46.044587   -11311.237    52127.883 
  173600     288.2601   -11266.077    49.836419   -11315.913   -34342.255 
  173800    256.66332   -11252.972    44.373748   -11297.345   -60208.259 
  174000    302.62909   -11240.863     52.32063   -11293.184   -32632.052 
  174200    276.74581   -11261.042    47.845748   -11308.888    46482.395 
  174400    326.17046   -11252.237    56.390627   -11308.628   -70583.366 
  174600    351.81579   -11239.664    60.824371   -11300.488   -12587.057 
  174800    296.48807   -11244.273    51.258928   -11295.532   -58603.004 
  175000    285.05746   -11258.176    49.282725   -11307.459    1182.8782 
  175200    262.99063    -11244.32    45.467657   -11289.787   -776.95947 
  175400     266.6834   -11258.538    46.106089   -11304.644   -10543.346 
  175600    249.10423   -11258.537    43.066878   -11301.604    36213.673 
  175800      324.338   -11247.752    56.073818   -11303.826   -6702.8859 
  176000    284.26829   -11258.233    49.146287    -11307.38   -1760.3236 
  176200    267.99414    -11266.48    46.332699   -11312.812    1458.5348 
  176400    302.60822   -11255.014    52.317023   -11307.331   -46752.927 
  176600    316.71129   -11238.435    54.755259   -11293.191   -66877.943 
  176800    285.66969   -11247.671     49.38857    -11297.06   -37949.818 
  177000    282.66441   -11251.211    48.868997    -11300.08     1853.687 
  177200    357.45241   -11235.939    61.798869   -11297.738    44506.533 
  177400    252.78514   -11244.023    43.703261   -11287.726   -19674.293 
  177600    280.37727   -11254.664    48.473579   -11303.138    -17785.86 
  177800    289.22175   -11248.765    50.002676   -11298.768    49864.785 
[...]
  950000     298.9141    -11250.28    51.678356   -11301.958    137501.31 
  950200    268.26862   -11261.981    46.380153   -11308.361    30432.914 
  950400    337.62581   -11244.967    58.371108   -11303.338    9615.9892 
  950600    289.72303   -11246.057     50.08934   -11296.147   -3156.8134 
  950800    262.40706   -11253.019    45.366765   -11298.385   -17568.498 
  951000    290.57122   -11254.912    50.235981   -11305.148   -2844.8374 
  951200    320.17029   -11235.645    55.353275   -11290.999    81286.618 
  951400    251.59618   -11251.527    43.497704   -11295.025    36019.403 
  951600    291.50853   -11252.634    50.398031   -11303.032   -25304.024 
  951800    336.64875   -11239.201    58.202186   -11297.403   -29801.964 
  952000    267.67132   -11248.395    46.276887   -11294.672    117460.53 
  952200    288.23439    -11246.86    49.831974   -11296.692   -33882.683 
  952400     287.7239   -11250.963    49.743717   -11300.707    10596.154 
  952600    330.38978   -11253.372    57.120092   -11310.492    10327.915 
  952800    287.99132   -11253.777     49.78995   -11303.567    75038.209 
  953000    294.53125   -11238.654     50.92062   -11289.575   -47664.126 
  953200    283.41152   -11257.309    48.998162   -11306.308    7884.0218 
  953400    321.50473    -11254.27    55.583983   -11309.854    6077.4321 
  953600    330.27791   -11246.667    57.100751   -11303.768   -75653.915 
  953800    288.74274   -11246.759    49.919861   -11296.679   -11887.366 
  954000    308.76172   -11243.093    53.380882   -11296.474    78271.023 
  954200    273.35834   -11262.941    47.260098   -11310.201   -43088.998 
  954400    292.04481   -11248.565    50.490745   -11299.056    27875.451 
  954600    289.44386   -11243.567    50.041075   -11293.608   -1862.8056 
  954800    233.37429   -11248.725    40.347376   -11289.072   -32414.709 
  955000    304.35496   -11252.163    52.619011   -11304.782    -72538.59 
  955200     279.8777   -11249.947    48.387212   -11298.334   -10794.671 
  955400    294.31568   -11241.464    50.883351   -11292.347     52577.43 
  955600    303.77047   -11254.123     52.51796   -11306.641    5848.2348 
  955800     301.7181   -11242.894    52.163132   -11295.057    35107.103 
  956000    375.04491   -11226.704    64.840384   -11291.545    86206.289 
  956200    317.07992   -11247.489    54.818991   -11302.308    9886.7422 
  956400    258.88905   -11254.889    44.758547   -11299.647   -15584.638 
  956600    309.54227   -11236.369    53.515829   -11289.884    65799.483 
  956800    293.20396   -11250.819    50.691149    -11301.51    36548.583 
  957000    294.15361    -11252.98    50.855329   -11303.835    29035.946 
  957200    330.47709   -11247.625    57.135186    -11304.76    20290.613 
  957400    267.67084   -11252.784    46.276804    -11299.06   -31762.326 
  957600    198.96544   -11270.994    34.398535   -11305.393    76610.474 
  957800    313.17432    -11254.49    54.143764   -11308.634   -104234.45 
  958000    338.03721   -11239.618    58.442234   -11298.061    -14948.89 
  958200    247.74417   -11257.008    42.831741    -11299.84    16976.429 
  958400    306.19544   -11250.763    52.937207     -11303.7   -38496.125 
  958600    349.28972   -11239.166    60.387646   -11299.554    35211.456 
  958800      360.616   -11234.999    62.345813   -11297.345   -51126.732 
  959000    315.34341   -11250.275     54.51877   -11304.794    60839.979 
  959200     301.6875   -11250.915    52.157842   -11303.073   -7800.5807 
  959400    292.81219   -11254.747    50.623417    -11305.37   -47418.901 
  959600    351.77715   -11240.877    60.817689   -11301.695    50248.035 
  959800    272.46397   -11245.944    47.105473    -11293.05    58137.263 
  960000    333.18043   -11250.971     57.60256   -11308.573   -79257.883 
  960200    312.06094   -11252.104    53.951274   -11306.055    53484.888 
  960400    328.04537   -11239.713    56.714775   -11296.428   -68257.503 
  960600    250.64677   -11251.528    43.333564   -11294.861    41740.664 
  960800    281.25881   -11256.157    48.625987   -11304.783   -66007.955 
  961000    313.00848   -11241.266    54.115092   -11295.381    98402.378 
  961200    343.41376    -11245.72    59.371769   -11305.092   -27052.472 
  961400    262.17353   -11258.296    45.326391   -11303.622    38282.421 
  961600    354.51428   -11233.458    61.290905   -11294.749    88997.629 
  961800    273.35324   -11246.526    47.259217   -11293.785    90522.626 
  962000    270.48515   -11250.356    46.763362   -11297.119    -19310.24 
  962200    294.80981   -11258.099    50.968779   -11309.068     5159.812 
  962400    305.08154   -11244.145    52.744626    -11296.89   -19658.456 
  962600    346.74924   -11241.106     59.94843   -11301.055    -32027.93 
  962800    268.11355    -11259.65    46.353342   -11306.004    19250.314 
  963000    331.08153   -11242.615    57.239687   -11299.854   -29196.736 
  963200    340.97204   -11245.543    58.949628   -11304.492   -22762.714 
  963400    296.88407   -11248.819     51.32739   -11300.146   -38718.894 
  963600     311.8694   -11245.185    53.918159   -11299.103    10753.791 
  963800    284.79836   -11264.327    49.237929   -11313.565    32592.341 
  964000    286.58641   -11251.915     49.54706   -11301.462    34984.988 
  964200    300.96181   -11249.351     52.03238   -11301.383     65775.86 
  964400    339.05558   -11233.839    58.618297   -11292.458    114979.97 
  964600    324.15352   -11250.395    56.041925   -11306.437    58475.688 
  964800    257.55277   -11255.702    44.527521    -11300.23   -96227.657 
  965000    264.83897   -11246.818    45.787211   -11292.605    143345.73 
  965200    314.42738   -11247.976      54.3604   -11302.336    58547.415 
  965400    352.58943   -11238.565    60.958123   -11299.523    9459.6678 
  965600    322.83362   -11247.721    55.813731   -11303.535    49657.872 
  965800    286.74489   -11252.257    49.574459   -11301.831   -61455.902 
  966000    294.93042   -11238.625     50.98963   -11289.615   -13995.305 
  966200    337.97385    -11237.42     58.43128   -11295.852    74639.456 
  966400    283.09267   -11255.651    48.943037   -11304.594     37676.15 
  966600    329.61592   -11243.135    56.986302   -11300.122   -6220.1149 
  966800    280.21063   -11254.166     48.44477    -11302.61   -15898.861 
  967000    341.48892   -11247.639    59.038988   -11306.678    87992.493 
  967200    327.96028   -11239.094    56.700063   -11295.794   -17062.889 
  967400    303.58361   -11254.194    52.485655    -11306.68   -797.87152 
  967600    369.05132   -11238.869    63.804169   -11302.673   -11483.399 
  967800    367.73426   -11238.184    63.576467   -11301.761   -62784.133 
  968000    283.99042   -11251.305    49.098247   -11300.403    2063.6068 
  968200    364.26208   -11239.594    62.976172    -11302.57    46343.669 
  968400    272.49703   -11254.579    47.111189    -11301.69    1492.0138 
  968600      299.242   -11248.534    51.735047   -11300.269   -17744.929 
  968800    316.20518   -11224.202     54.66776    -11278.87   -18031.252 
  969000    305.49515     -11243.8    52.816135   -11296.616   -22866.697 
  969200    303.32472    -11252.46    52.440896   -11304.901    -50469.25 
  969400    330.02047   -11239.078    57.056243   -11296.134    15565.775 
  969600    243.27558    -11248.52    42.059182    -11290.58    14246.558 
  969800    281.19032   -11256.562    48.614146   -11305.176     14522.62 
  970000    329.09324   -11243.432    56.895938   -11300.328    -16460.02 
  970200    295.64189   -11247.807    51.112634    -11298.92   -14987.199 
  970400    304.89963   -11255.656    52.713177   -11308.369    74823.663 
  970600    329.32074   -11240.599    56.935269   -11297.534   -12438.881 
  970800    296.60677   -11252.819    51.279449   -11304.098   -6832.0464 
  971000    277.01896   -11254.419    47.892972   -11302.312      15173.6 
  971200    318.96089   -11240.958    55.144186   -11296.102   -62278.723 
  971400    346.51213   -11247.407    59.907437   -11307.315   -48390.016 
  971600    278.05529   -11250.727    48.072139     -11298.8    36178.756 
  971800    279.88671   -11259.855    48.388768   -11308.244   -39297.392 
  972000    286.82542   -11254.025    49.588381   -11303.614     1864.403 
  972200    293.42676   -11248.067    50.729668   -11298.797      11230.2 
  972400    380.94478   -11234.395    65.860393   -11300.256   -40773.267 
  972600    271.55755   -11247.077    46.948766   -11294.026   -47204.961 
  972800    292.03361   -11254.121     50.48881    -11304.61    1992.3727 
  973000    349.67676   -11242.158    60.454561   -11302.613   -70285.841 
  973200    348.40783   -11229.717    60.235179   -11289.953   -23580.088 
  973400    258.54912    -11254.17    44.699777    -11298.87    9355.5116 
  973600    299.34684   -11246.994    51.753172   -11298.747    18662.708 
  973800    355.24945   -11241.607    61.418006   -11303.025   -26011.118 
  974000    288.34982   -11259.116    49.851931   -11308.968   -53374.238 
  974200    339.16849   -11244.152    58.637817    -11302.79    33436.583 
  974400    312.57716   -11241.766    54.040522   -11295.806   -30555.445 
  974600     270.1246   -11251.568    46.701026    -11298.27    15123.192 
  974800     279.5023   -11250.907     48.32231   -11299.229    7451.9677 
  975000    306.79167   -11253.392    53.040286   -11306.433   -42161.198 
  975200    363.93296   -11237.998    62.919271   -11300.917   -90205.095 
  975400    249.28472   -11254.739    43.098083   -11297.837   -64992.577 
  975600    255.82355   -11252.305    44.228561   -11296.533    29279.917 
  975800    356.59679   -11234.616    61.650944   -11296.267   -8009.6893 
  976000    291.36691   -11259.885    50.373546   -11310.259    3597.5349 
  976200    283.70143   -11258.076    49.048285   -11307.125   -21724.151 
  976400    315.63188   -11244.686    54.568643   -11299.255    65511.883 
  976600    329.85188   -11254.004    57.027096   -11311.031   -72279.943 
  976800    256.51796   -11266.066    44.348616   -11310.414    32024.888 
  977000    287.07867   -11246.755    49.632166   -11296.387   -66730.143 
  977200    292.69387   -11251.086    50.602961   -11301.689   -4562.1362 
  977400    261.41937   -11262.882    45.196006   -11308.078   -52796.986 
  977600    335.62815   -11244.046    58.025738   -11302.071    -67675.71 
  977800    262.62828   -11252.893    45.405012   -11298.298     60056.68 
  978000    236.38998   -11262.297     40.86875   -11303.166    128083.06 
  978200     331.7171   -11243.613    57.349569   -11300.963    35342.611 
  978400     300.5117   -11251.529    51.954561   -11303.483   -27823.792 
  978600    266.97875   -11259.403    46.157151    -11305.56    88627.306 
  978800    321.85853   -11247.359     55.64515   -11303.004    56972.478 
  979000    329.78279   -11237.397    57.015151   -11294.412    11086.455 
  979200    261.54052   -11257.026    45.216952   -11302.243   -282.51567 
  979400    292.04827    -11243.35    50.491344   -11293.841    30075.667 
  979600    313.20804   -11246.374    54.149592   -11300.524    1841.4878 
  979800    296.28939   -11249.319    51.224579   -11300.543    31508.575 
  980000    358.92225   -11231.718    62.052986   -11293.771    44840.804 
  980200    308.88015   -11255.099    53.401357     -11308.5    -9960.835 
  980400    282.11661   -11245.943    48.774289   -11294.717    19311.429 
  980600    302.87855    -11241.02    52.363759   -11293.383    57010.438 
  980800    280.40929   -11252.995    48.479117   -11301.474   -9591.1276 
  981000    275.34441   -11251.411    47.603464   -11299.015   -30270.434 
  981200    325.44294    -11245.01    56.264848   -11301.275     50764.87 
  981400    303.18699   -11247.585    52.417084   -11300.003   -56799.072 
  981600    273.17536   -11257.796    47.228464   -11305.025    32845.543 
  981800    370.75488   -11240.652    64.098692   -11304.751   -9460.4788 
  982000    295.74316   -11254.235    51.130142   -11305.365   -68120.916 
  982200    264.96544   -11251.134    45.809075   -11296.943    10548.494 
  982400    311.57485   -11233.098    53.867235   -11286.965    20108.994 
  982600    289.45729   -11248.657    50.043397   -11298.701    32596.921 
  982800    296.92909   -11254.002    51.335175   -11305.337   -40855.245 
  983000    296.86571   -11254.591    51.324217   -11305.916   -53109.612 
  983200    355.51825   -11239.865    61.464477    -11301.33    13504.182 
  983400    337.81733   -11253.773    58.404219   -11312.178   -4948.0797 
  983600    254.89444    -11257.82    44.067931   -11301.888   -42403.057 
  983800    277.68052   -11247.203    48.007347   -11295.211    405.05332 
  984000    303.33935   -11248.833    52.443425   -11301.277    28392.073 
  984200    271.88832   -11265.562    47.005952   -11312.568   -29640.525 
  984400    339.19537    -11249.17    58.642464   -11307.812   -47676.585 
  984600    301.18233   -11249.261    52.070505   -11301.332   -6673.4568 
  984800    262.21307   -11258.961    45.333226   -11304.294    33449.505 
  985000     244.9155   -11261.133    42.342702   -11303.476   -23568.344 
  985200    284.43685   -11245.811    49.175429   -11294.986    -55942.55 
  985400    304.97111   -11250.856    52.725536   -11303.581   -33867.555 
  985600    265.50602   -11259.358    45.902535   -11305.261    12209.478 
  985800    323.19674    -11247.42    55.876509   -11303.296     35989.73 
  986000    321.69104    -11251.98    55.616193   -11307.596   -1469.1789 
  986200    330.24801   -11252.306    57.095581   -11309.402    -25844.14 
  986400     270.8032   -11249.112    46.818348    -11295.93   -9082.1968 
  986600    353.30426   -11235.456    61.081707   -11296.538   -44378.374 
  986800     272.7116   -11247.092    47.148286    -11294.24    -28804.33 
  987000    265.49082   -11258.711    45.899908   -11304.611   -21111.033 
  987200     315.4181   -11240.662    54.531683   -11295.194   -60151.029 
  987400    339.90655   -11238.542    58.765417   -11297.307    -27794.52 
  987600    252.98706   -11249.862     43.73817   -11293.601   -15822.601 
  987800    298.43755   -11255.125    51.595968   -11306.721   -19295.807 
  988000    289.12534   -11264.012    49.986008   -11313.998    15464.037 
  988200    346.57106   -11242.697    59.917625   -11302.615    89554.318 
  988400    289.44218   -11256.736    50.040786   -11306.776    20120.103 
  988600    257.06155   -11248.531    44.442596   -11292.973   -7063.3352 
  988800    321.97569   -11240.083    55.665406   -11295.748     73553.66 
  989000    293.80549   -11257.342    50.795144   -11308.137    49191.642 
  989200    271.67775   -11247.532    46.969546   -11294.501   -8333.7698 
  989400    324.74826   -11240.443    56.144747   -11296.588     -14992.7 
  989600    290.47728   -11253.648    50.219741   -11303.868   -10336.051 
  989800     288.2906   -11253.546    49.841691   -11303.388   -13241.309 
  990000    327.91897   -11234.698    56.692921   -11291.391    19837.586 
  990200    309.34522   -11247.691    53.481762   -11301.173    -4564.064 
  990400     296.7125   -11253.305    51.297729   -11304.603    10123.702 
  990600    314.54082   -11242.788    54.380013   -11297.168    63630.921 
  990800    274.59435   -11249.163    47.473789   -11296.636    41015.412 
  991000    270.81668   -11260.831    46.820679   -11307.652    16220.404 
  991200    330.20334   -11240.001     57.08786   -11297.089    19447.095 
  991400    300.30462   -11248.907    51.918759   -11300.826    37052.053 
  991600    236.73903   -11254.991    40.929096    -11295.92   -18313.793 
  991800    314.26787   -11249.874    54.332824   -11304.207   -29965.391 
  992000    328.71255   -11238.108    56.830121   -11294.938    68755.067 
  992200    284.61747   -11258.771    49.206656   -11307.977   -43256.299 
  992400    288.36784   -11249.455    49.855045    -11299.31    32751.745 
  992600    298.36693   -11247.796    51.583758    -11299.38      3920.61 
  992800    303.28259   -11256.654    52.433612   -11309.088   -5950.2828 
  993000    337.48391   -11243.828    58.346575   -11302.174    -16807.11 
  993200    314.85944   -11250.696    54.435099   -11305.131   -3863.7328 
  993400    289.26874   -11256.804      50.0108   -11306.815    42806.504 
  993600    319.98119   -11243.014    55.320583   -11298.335   -52111.705 
  993800    221.56805   -11254.875    38.306232   -11293.182    88808.291 
  994000    343.78822   -11237.384    59.436509   -11296.821   -86883.245 
  994200    324.89961   -11248.253    56.170914   -11304.424   -6183.5174 
  994400    272.47362   -11254.452    47.107141   -11301.559    8589.2137 
  994600     343.6122   -11233.959    59.406077   -11293.365   -65.484123 
  994800    330.45031   -11248.089    57.130558    -11305.22   -67936.205 
  995000    326.03173   -11248.384    56.366642   -11304.751   -12815.905 
  995200    280.79634   -11251.734    48.546033    -11300.28    -7726.587 
  995400    322.09469   -11237.545     55.68598   -11293.231     5177.712 
  995600    353.67614   -11249.491       61.146   -11310.637   -59172.115 
  995800    292.85228    -11253.02    50.630347    -11303.65   -25387.497 
  996000    362.51165   -11236.489    62.673545   -11299.162   -346.21833 
  996200    298.59297   -11258.126    51.622838   -11309.748   -18791.879 
  996400     332.2379   -11243.835    57.439608   -11301.275   -36232.207 
  996600    274.84545   -11241.917    47.517201   -11289.434   -36166.706 
  996800    284.18086   -11257.674    49.131171   -11306.805    18566.122 
  997000    305.60603    -11247.67    52.835305   -11300.505   -28283.354 
  997200    336.62275   -11235.671    58.197691   -11293.868   -63712.008 
  997400     259.6448   -11256.814    44.889206   -11301.703   -24891.839 
  997600    340.78255   -11242.281    58.916867   -11301.198    8737.3155 
  997800    297.55694   -11254.265    51.443721   -11305.708    532.17286 
  998000    278.38787   -11256.421    48.129639    -11304.55    -25164.91 
  998200     265.0567   -11243.925    45.824854    -11289.75   -96.649682 
  998400    336.45542   -11251.748    58.168763   -11309.917   -9044.7349 
  998600    284.72814   -11250.258     49.22579   -11299.484    47612.269 
  998800    272.36192   -11246.523    47.087831   -11293.611     -26298.2 
  999000    225.13984    -11267.49    38.923747   -11306.414    1978.7125 
  999200    253.94537   -11255.388    43.903849   -11299.292   -27650.251 
  999400     319.9158   -11245.018    55.309277   -11300.327    15008.912 
  999600    342.48925   -11252.265    59.211933   -11311.477    50001.668 
  999800    277.87983   -11254.151    48.041805   -11302.193   -11344.675 
 1000000    283.27819   -11247.742    48.975112   -11296.717    -48628.05 
Loop time of 5469.78 on 8 procs for 1000000 steps with 59 atoms

Performance: 3.949 ns/day, 6.078 hours/ns, 182.823 timesteps/s
99.4% CPU use with 8 MPI tasks x no OpenMP threads

MPI task timing breakdown:
Section |  min time  |  avg time  |  max time  |%varavg| %total
---------------------------------------------------------------
Pair    | 4441.2     | 4642       | 4865.2     | 195.3 | 84.87
Neigh   | 1.6893     | 1.8638     | 2.0164     |   7.8 |  0.03
Comm    | 108.38     | 331.25     | 531.89     | 730.6 |  6.06
Output  | 0.099506   | 0.11904    | 0.25031    |  14.4 |  0.00
Modify  | 491.33     | 492.08     | 492.61     |   1.7 |  9.00
Other   |            | 2.482      |            |       |  0.05

Nlocal:    7.375 ave 13 max 3 min
Histogram: 1 1 2 0 0 1 1 0 0 2
Nghost:    703.375 ave 756 max 648 min
Histogram: 1 2 0 0 0 1 0 3 0 1
Neighs:    1178.88 ave 2132 max 482 min
Histogram: 1 2 1 0 1 1 0 0 1 1

Total # of neighbors = 9431
Ave neighs/atom = 159.847
Neighbor list builds = 1860
Dangerous builds = 0

unfix 1
unfix output
undump 1

Please see the log.cite file for references relevant to this simulation

Total wall time: 1:31:26
