
     Program PWSCF v.7.1 starts on 25May2025 at  2: 1:31 

     This program is part of the open-source Quantum ESPRESSO suite
     for quantum simulation of materials; please cite
         "P. Giannozzi et al., J. Phys.:Condens. Matter 21 395502 (2009);
         "P. Giannozzi et al., J. Phys.:Condens. Matter 29 465901 (2017);
         "P. Giannozzi et al., J. Chem. Phys. 152 154105 (2020);
          URL http://www.quantum-espresso.org", 
     in publications or presentations arising from this work. More details at
     http://www.quantum-espresso.org/quote

     Parallel version (MPI), running on    16 processors

     MPI processes distributed on     1 nodes
     247034 MiB available memory on the printing compute node when the environment starts

     Reading input from input.pwi
Warning: card &CELL ignored
Warning: card / ignored
Warning: card &FCP ignored
Warning: card / ignored
Warning: card &RISM ignored
Warning: card / ignored

     Current dimensions of program PWSCF are:
     Max number of different atomic species (ntypx) = 10
     Max number of k-points (npk) =  40000
     Max angular momentum in pseudopotentials (lmaxx) =  4
     file C.pbe-n-kjpaw_psl.1.0.0.UPF: wavefunction(s)  2S 2P renormalized
     file O.pbe-n-kjpaw_psl.0.1.UPF: wavefunction(s)  2P renormalized

     IMPORTANT: XC functional enforced from input :
     Exchange-correlation= PBE
                           (   1   4   3   4   0   0   0)
     Any further DFT definition will be discarded
     Please, verify this is what you really want


     gamma-point specific algorithms are used
     Message from routine  set_nelup_neldw :
     BEWARE: non-integer number of up and down electrons!

     R & G space division:  proc/nbgrp/npool/nimage =      16
     Subspace diagonalization in iterative solution of the eigenvalue problem:
     a serial algorithm will be used


     Parallelization info
     --------------------
     sticks:   dense  smooth     PW     G-vecs:    dense   smooth      PW
     Min         858     428    106                75870    26832    3354
     Max         860     430    108                75880    26846    3360
     Sum       13753    6869   1725              1214029   429409   53715

     Using Slab Decomposition



     bravais-lattice index     =            0
     lattice parameter (alat)  =      20.7870  a.u.
     unit-cell volume          =    8983.6663 (a.u.)^3
     number of atoms/cell      =           50
     number of atomic types    =            3
     number of electrons       =       199.00 (up:  99.50, down:  99.50)
     number of Kohn-Sham states=          119
     kinetic-energy cutoff     =      50.0000  Ry
     charge density cutoff     =     400.0000  Ry
     scf convergence threshold =      1.0E-06
     mixing beta               =       0.3000
     number of iterations used =            8  plain     mixing
     energy convergence thresh.=      1.0E-04
     force convergence thresh. =      1.0E-03
     Exchange-correlation= PBE
                           (   1   4   3   4   0   0   0)
     nstep                     =         1000


     celldm(1)=  20.786987  celldm(2)=   0.000000  celldm(3)=   0.000000
     celldm(4)=   0.000000  celldm(5)=   0.000000  celldm(6)=   0.000000

     crystal axes: (cart. coord. in units of alat)
               a(1) = (   1.000000   0.000000   0.000000 )  
               a(2) = (   0.000000   1.000182   0.000000 )  
               a(3) = (   0.000000   0.000000   1.000000 )  

     reciprocal axes: (cart. coord. in units 2 pi/alat)
               b(1) = (  1.000000  0.000000  0.000000 )  
               b(2) = (  0.000000  0.999818  0.000000 )  
               b(3) = (  0.000000  0.000000  1.000000 )  


     PseudoPot. # 1 for C  read from file:
     /home/ana.bisette/espresso/pseudo/C.pbe-n-kjpaw_psl.1.0.0.UPF
     MD5 check sum: 5d2aebdfa2cae82b50a7e79e9516da0f
     Pseudo is Projector augmented-wave + core cor, Zval =  4.0
     Generated using "atomic" code by A. Dal Corso  v.5.1
     Shape of augmentation charge: PSQ
     Using radial grid of 1073 points,  4 beta functions with: 
                l(1) =   0
                l(2) =   0
                l(3) =   1
                l(4) =   1
     Q(r) pseudized with 0 coefficients 


     PseudoPot. # 2 for O  read from file:
     /home/ana.bisette/espresso/pseudo/O.pbe-n-kjpaw_psl.0.1.UPF
     MD5 check sum: 0234752ac141de4415c5fc33072bef88
     Pseudo is Projector augmented-wave + core cor, Zval =  6.0
     Generated using "atomic" code by A. Dal Corso  v.5.0.99 svn rev. 10869
     Shape of augmentation charge: BESSEL
     Using radial grid of 1095 points,  4 beta functions with: 
                l(1) =   0
                l(2) =   0
                l(3) =   1
                l(4) =   1
     Q(r) pseudized with 0 coefficients 


     PseudoPot. # 3 for H  read from file:
     /home/ana.bisette/espresso/pseudo/H.pbe-rrkjus_psl.1.0.0.UPF
     MD5 check sum: f52b6d4d1c606e5624b1dc7b2218f220
     Pseudo is Ultrasoft, Zval =  1.0
     Generated using "atomic" code by A. Dal Corso  v.5.1
     Using radial grid of  929 points,  2 beta functions with: 
                l(1) =   0
                l(2) =   0
     Q(r) pseudized with 0 coefficients 


     atomic species   valence    mass     pseudopotential
        C              4.00    12.01100     C ( 1.00)
        O              6.00    15.99900     O ( 1.00)
        H              1.00     1.00800     H ( 1.00)

     Starting magnetic structure 
     atomic species   magnetization
        C            0.000
        O            0.000
        H            0.000

     No symmetry found



   Cartesian axes

     site n.     atom                  positions (alat units)
         1           C   tau(   1) = (   0.5607273   0.4189091   0.5608182  )
         2           C   tau(   2) = (   0.6985455   0.2805455   0.6985455  )
         3           C   tau(   3) = (   0.6340000   0.3453636   0.6340000  )
         4           C   tau(   4) = (   0.4189091   0.5608182   0.5608182  )
         5           C   tau(   5) = (   0.2805455   0.6985455   0.6985455  )
         6           C   tau(   6) = (   0.3453636   0.6340000   0.6340000  )
         7           C   tau(   7) = (   0.5608182   0.5608182   0.4189091  )
         8           C   tau(   8) = (   0.6985455   0.6985455   0.2805455  )
         9           C   tau(   9) = (   0.6340000   0.6340000   0.3453636  )
        10           C   tau(  10) = (   0.4184545   0.4184545   0.4184545  )
        11           C   tau(  11) = (   0.2804545   0.2804545   0.2804545  )
        12           C   tau(  12) = (   0.3450909   0.3450909   0.3450909  )
        13           C   tau(  13) = (   0.5659091   0.4132727   0.4132727  )
        14           C   tau(  14) = (   0.7058182   0.2739091   0.2739091  )
        15           C   tau(  15) = (   0.6411818   0.3382727   0.3383636  )
        16           C   tau(  16) = (   0.4132727   0.5659091   0.4132727  )
        17           C   tau(  17) = (   0.2739091   0.7059091   0.2739091  )
        18           C   tau(  18) = (   0.3382727   0.6411818   0.3383636  )
        19           C   tau(  19) = (   0.4132727   0.4131818   0.5660000  )
        20           C   tau(  20) = (   0.2739091   0.2739091   0.7058182  )
        21           C   tau(  21) = (   0.3382727   0.3382727   0.6411818  )
        22           C   tau(  22) = (   0.5662727   0.5662727   0.5662727  )
        23           C   tau(  23) = (   0.7058182   0.7059091   0.7059091  )
        24           C   tau(  24) = (   0.6413636   0.6414545   0.6413636  )
        25           C   tau(  25) = (   0.0607273   0.9184545   0.0607273  )
        26           C   tau(  26) = (   0.1989091   0.7808182   0.1989091  )
        27           C   tau(  27) = (   0.1341818   0.8452727   0.1341818  )
        28           C   tau(  28) = (   0.9183636   0.0606364   0.0607273  )
        29           C   tau(  29) = (   0.7808182   0.1988182   0.1989091  )
        30           C   tau(  30) = (   0.8452727   0.1340909   0.1341818  )
        31           C   tau(  31) = (   0.0607273   0.0606364   0.9184545  )
        32           C   tau(  32) = (   0.1988182   0.1988182   0.7808182  )
        33           C   tau(  33) = (   0.1341818   0.1340909   0.8452727  )
        34           C   tau(  34) = (   0.9189091   0.9189091   0.9188182  )
        35           C   tau(  35) = (   0.7809091   0.7809091   0.7809091  )
        36           C   tau(  36) = (   0.8455455   0.8455455   0.8454545  )
        37           C   tau(  37) = (   0.0662727   0.9132727   0.9132727  )
        38           C   tau(  38) = (   0.2053636   0.7735455   0.7734545  )
        39           C   tau(  39) = (   0.1410909   0.8380909   0.8380909  )
        40           C   tau(  40) = (   0.9131818   0.0661818   0.9132727  )
        41           C   tau(  41) = (   0.7734545   0.2053636   0.7734545  )
        42           C   tau(  42) = (   0.8380000   0.1410000   0.8380000  )
        43           C   tau(  43) = (   0.9132727   0.9133636   0.0662727  )
        44           C   tau(  44) = (   0.7734545   0.7735455   0.2053636  )
        45           C   tau(  45) = (   0.8380909   0.8380909   0.1410909  )
        46           C   tau(  46) = (   0.0660000   0.0659091   0.0659091  )
        47           C   tau(  47) = (   0.2054545   0.2053636   0.2054545  )
        48           C   tau(  48) = (   0.1410000   0.1409091   0.1409091  )
        49           O   tau(  49) = (   0.0650909   0.7950000   0.9458182  )
        50           H   tau(  50) = (   0.0650909   0.7062727   0.9458182  )

     number of k points=     1  Gaussian smearing, width (Ry)=  0.0001
                       cart. coord. in units 2pi/alat
        k(    1) = (   0.0000000   0.0000000   0.0000000), wk =   1.0000000

     Dense  grid:   607015 G-vectors     FFT dimensions: ( 135, 135, 135)

     Smooth grid:   214705 G-vectors     FFT dimensions: (  96,  96,  96)

     Estimated max dynamical RAM per process >     175.34 MB

     Estimated total dynamical RAM >       2.74 GB

     Check: negative core charge=   -0.000004
     Generating pointlists ...
     new r_m :   0.0461 (alat units)  0.9573 (a.u.) for type    1
     new r_m :   0.0366 (alat units)  0.7608 (a.u.) for type    2
     new r_m :   0.0366 (alat units)  0.7608 (a.u.) for type    3

     Initial potential from superposition of free atoms

     starting charge     198.9980, renormalised to     199.0000
     Starting wfcs are  197 randomized atomic wfcs
     Checking if some PAW data can be deallocated... 

     total cpu time spent up to now is        3.2 secs

     Self-consistent Calculation

     iteration #  1     ecut=    50.00 Ry     beta= 0.30
     Davidson diagonalization with overlap
     ethr =  1.00E-02,  avg # of iterations =  2.0

     total cpu time spent up to now is        5.6 secs

     total energy              =    -924.35143054 Ry
     estimated scf accuracy    <       5.45604127 Ry

     total magnetization       =     0.00 Bohr mag/cell
     absolute magnetization    =     0.07 Bohr mag/cell

     iteration #  2     ecut=    50.00 Ry     beta= 0.30
     Davidson diagonalization with overlap
     ethr =  2.74E-03,  avg # of iterations =  1.0

     negative rho (up, down):  1.076E-06 1.084E-06

     total cpu time spent up to now is        7.5 secs

     total energy              =    -923.41911304 Ry
     estimated scf accuracy    <       1.83691085 Ry

     total magnetization       =    -0.00 Bohr mag/cell
     absolute magnetization    =     0.05 Bohr mag/cell

     iteration #  3     ecut=    50.00 Ry     beta= 0.30
     Davidson diagonalization with overlap
     ethr =  9.23E-04,  avg # of iterations =  3.5

     negative rho (up, down):  6.944E-07 7.015E-07

     total cpu time spent up to now is        9.9 secs

     total energy              =    -923.83347530 Ry
     estimated scf accuracy    <       0.33491888 Ry

     total magnetization       =    -0.00 Bohr mag/cell
     absolute magnetization    =     0.04 Bohr mag/cell

     iteration #  4     ecut=    50.00 Ry     beta= 0.30
     Davidson diagonalization with overlap
     ethr =  1.68E-04,  avg # of iterations = 11.5

     negative rho (up, down):  5.041E-07 5.092E-07

     total cpu time spent up to now is       12.4 secs

     total energy              =    -923.81706729 Ry
     estimated scf accuracy    <       0.13940174 Ry

     total magnetization       =     0.00 Bohr mag/cell
     absolute magnetization    =     0.03 Bohr mag/cell

     iteration #  5     ecut=    50.00 Ry     beta= 0.30
     Davidson diagonalization with overlap
     ethr =  7.01E-05,  avg # of iterations =  3.5

     negative rho (up, down):  4.785E-07 4.832E-07

     total cpu time spent up to now is       14.5 secs

     total energy              =    -923.82249372 Ry
     estimated scf accuracy    <       0.08130908 Ry

     total magnetization       =    -0.00 Bohr mag/cell
     absolute magnetization    =     0.02 Bohr mag/cell

     iteration #  6     ecut=    50.00 Ry     beta= 0.30
     Davidson diagonalization with overlap
     ethr =  4.09E-05,  avg # of iterations =  4.0

     negative rho (up, down):  8.610E-07 8.689E-07

     total cpu time spent up to now is       16.7 secs

     total energy              =    -923.81598933 Ry
     estimated scf accuracy    <       0.04964721 Ry

     total magnetization       =     0.00 Bohr mag/cell
     absolute magnetization    =     0.02 Bohr mag/cell

     iteration #  7     ecut=    50.00 Ry     beta= 0.30
     Davidson diagonalization with overlap
     ethr =  2.49E-05,  avg # of iterations =  2.0

     negative rho (up, down):  9.843E-07 9.937E-07

     total cpu time spent up to now is       18.7 secs

     total energy              =    -923.81972397 Ry
     estimated scf accuracy    <       0.07690219 Ry

     total magnetization       =     0.00 Bohr mag/cell
     absolute magnetization    =     0.01 Bohr mag/cell

     iteration #  8     ecut=    50.00 Ry     beta= 0.30
     Davidson diagonalization with overlap
     ethr =  2.49E-05,  avg # of iterations =  2.0

     negative rho (up, down):  1.185E-06 1.195E-06

     total cpu time spent up to now is       20.8 secs

     total energy              =    -923.82221398 Ry
     estimated scf accuracy    <       0.03545974 Ry

     total magnetization       =    -0.00 Bohr mag/cell
     absolute magnetization    =     0.01 Bohr mag/cell

     iteration #  9     ecut=    50.00 Ry     beta= 0.30
     Davidson diagonalization with overlap
     ethr =  1.78E-05,  avg # of iterations =  1.0

     negative rho (up, down):  1.179E-06 1.186E-06

     total cpu time spent up to now is       22.6 secs

     total energy              =    -923.82155062 Ry
     estimated scf accuracy    <       0.04935522 Ry

     total magnetization       =     0.00 Bohr mag/cell
     absolute magnetization    =     0.01 Bohr mag/cell

     iteration # 10     ecut=    50.00 Ry     beta= 0.30
     Davidson diagonalization with overlap
     ethr =  1.78E-05,  avg # of iterations =  1.0

     negative rho (up, down):  1.205E-06 1.210E-06

     total cpu time spent up to now is       24.4 secs

     total energy              =    -923.82401326 Ry
     estimated scf accuracy    <       0.03416744 Ry

     total magnetization       =    -0.00 Bohr mag/cell
     absolute magnetization    =     0.01 Bohr mag/cell

     iteration # 11     ecut=    50.00 Ry     beta= 0.30
     Davidson diagonalization with overlap
     ethr =  1.72E-05,  avg # of iterations =  1.0

     negative rho (up, down):  1.196E-06 1.201E-06

     total cpu time spent up to now is       26.4 secs

     total energy              =    -923.82482054 Ry
     estimated scf accuracy    <       0.03101775 Ry

     total magnetization       =     0.00 Bohr mag/cell
     absolute magnetization    =     0.02 Bohr mag/cell

     iteration # 12     ecut=    50.00 Ry     beta= 0.30
     Davidson diagonalization with overlap
     ethr =  1.56E-05,  avg # of iterations =  1.0

     negative rho (up, down):  1.200E-06 1.203E-06

     total cpu time spent up to now is       28.3 secs

     total energy              =    -923.82334249 Ry
     estimated scf accuracy    <       0.03596081 Ry

     total magnetization       =     0.00 Bohr mag/cell
     absolute magnetization    =     0.02 Bohr mag/cell

     iteration # 13     ecut=    50.00 Ry     beta= 0.30
     Davidson diagonalization with overlap
     ethr =  1.56E-05,  avg # of iterations =  1.0

     negative rho (up, down):  1.212E-06 1.214E-06

     total cpu time spent up to now is       30.2 secs

     total energy              =    -923.82438204 Ry
     estimated scf accuracy    <       0.03011219 Ry

     total magnetization       =     0.00 Bohr mag/cell
     absolute magnetization    =     0.01 Bohr mag/cell

     iteration # 14     ecut=    50.00 Ry     beta= 0.30
     Davidson diagonalization with overlap
     ethr =  1.51E-05,  avg # of iterations =  1.0

     negative rho (up, down):  1.208E-06 1.211E-06

     total cpu time spent up to now is       32.1 secs

     total energy              =    -923.82446807 Ry
     estimated scf accuracy    <       0.00712194 Ry

     total magnetization       =    -0.00 Bohr mag/cell
     absolute magnetization    =     0.20 Bohr mag/cell

     iteration # 15     ecut=    50.00 Ry     beta= 0.30
     Davidson diagonalization with overlap
     ethr =  3.58E-06,  avg # of iterations =  1.0

     negative rho (up, down):  1.209E-06 1.211E-06

     total cpu time spent up to now is       34.0 secs

     total energy              =    -923.82447140 Ry
     estimated scf accuracy    <       0.01804309 Ry

     total magnetization       =     0.00 Bohr mag/cell
     absolute magnetization    =     0.04 Bohr mag/cell

     iteration # 16     ecut=    50.00 Ry     beta= 0.30
     Davidson diagonalization with overlap
     ethr =  3.58E-06,  avg # of iterations =  1.0

     negative rho (up, down):  1.211E-06 1.212E-06

     total cpu time spent up to now is       35.9 secs

     total energy              =    -923.82447360 Ry
     estimated scf accuracy    <       0.00227805 Ry

     total magnetization       =     0.00 Bohr mag/cell
     absolute magnetization    =     0.40 Bohr mag/cell

     iteration # 17     ecut=    50.00 Ry     beta= 0.30
     Davidson diagonalization with overlap
     ethr =  1.14E-06,  avg # of iterations =  1.0

     negative rho (up, down):  1.215E-06 1.213E-06

     total cpu time spent up to now is       37.8 secs

     total energy              =    -923.82426579 Ry
     estimated scf accuracy    <       0.02482278 Ry

     total magnetization       =     0.00 Bohr mag/cell
     absolute magnetization    =     0.02 Bohr mag/cell

     iteration # 18     ecut=    50.00 Ry     beta= 0.30
     Davidson diagonalization with overlap
     ethr =  1.14E-06,  avg # of iterations =  1.0

     negative rho (up, down):  1.214E-06 1.216E-06

     total cpu time spent up to now is       39.7 secs

     total energy              =    -923.82446504 Ry
     estimated scf accuracy    <       0.04006567 Ry

     total magnetization       =    -0.00 Bohr mag/cell
     absolute magnetization    =     0.08 Bohr mag/cell

     iteration # 19     ecut=    50.00 Ry     beta= 0.30
     Davidson diagonalization with overlap
     ethr =  1.14E-06,  avg # of iterations =  1.0

     negative rho (up, down):  1.215E-06 1.219E-06

     total cpu time spent up to now is       41.6 secs

     total energy              =    -923.82463059 Ry
     estimated scf accuracy    <       0.00466049 Ry

     total magnetization       =    -0.00 Bohr mag/cell
     absolute magnetization    =     0.51 Bohr mag/cell

     iteration # 20     ecut=    50.00 Ry     beta= 0.30
     Davidson diagonalization with overlap
     ethr =  1.14E-06,  avg # of iterations =  1.0

     negative rho (up, down):  1.215E-06 1.224E-06

     total cpu time spent up to now is       43.5 secs

     total energy              =    -923.82464764 Ry
     estimated scf accuracy    <       0.03285777 Ry

     total magnetization       =    -0.00 Bohr mag/cell
     absolute magnetization    =     0.19 Bohr mag/cell

     iteration # 21     ecut=    50.00 Ry     beta= 0.30
     Davidson diagonalization with overlap
     ethr =  1.14E-06,  avg # of iterations =  1.0

     negative rho (up, down):  1.218E-06 1.230E-06

     total cpu time spent up to now is       45.3 secs

     total energy              =    -923.82458836 Ry
     estimated scf accuracy    <       0.02519739 Ry

     total magnetization       =     0.00 Bohr mag/cell
     absolute magnetization    =     0.29 Bohr mag/cell

     iteration # 22     ecut=    50.00 Ry     beta= 0.30
     Davidson diagonalization with overlap
     ethr =  1.14E-06,  avg # of iterations =  1.0

     negative rho (up, down):  1.219E-06 1.235E-06

     total cpu time spent up to now is       47.2 secs

     total energy              =    -923.82451856 Ry
     estimated scf accuracy    <       0.02031710 Ry

     total magnetization       =     0.00 Bohr mag/cell
     absolute magnetization    =     0.33 Bohr mag/cell

     iteration # 23     ecut=    50.00 Ry     beta= 0.30
     Davidson diagonalization with overlap
     ethr =  1.14E-06,  avg # of iterations =  1.0

     negative rho (up, down):  1.221E-06 1.236E-06

     total cpu time spent up to now is       49.1 secs

     total energy              =    -923.82448916 Ry
     estimated scf accuracy    <       0.00715806 Ry

     total magnetization       =     0.00 Bohr mag/cell
     absolute magnetization    =     0.29 Bohr mag/cell

     iteration # 24     ecut=    50.00 Ry     beta= 0.30
     Davidson diagonalization with overlap
     ethr =  1.14E-06,  avg # of iterations =  1.0

     negative rho (up, down):  1.218E-06 1.222E-06

     total cpu time spent up to now is       51.0 secs

     total energy              =    -923.82452280 Ry
     estimated scf accuracy    <       0.00264126 Ry

     total magnetization       =     0.00 Bohr mag/cell
     absolute magnetization    =     0.22 Bohr mag/cell

     iteration # 25     ecut=    50.00 Ry     beta= 0.30
     Davidson diagonalization with overlap
     ethr =  1.14E-06,  avg # of iterations =  1.0

     negative rho (up, down):  1.214E-06 1.216E-06

     total cpu time spent up to now is       52.9 secs

     total energy              =    -923.82454386 Ry
     estimated scf accuracy    <       0.00317076 Ry

     total magnetization       =    -0.00 Bohr mag/cell
     absolute magnetization    =     0.13 Bohr mag/cell

     iteration # 26     ecut=    50.00 Ry     beta= 0.30
     Davidson diagonalization with overlap
     ethr =  1.14E-06,  avg # of iterations =  1.0

     negative rho (up, down):  1.214E-06 1.219E-06

     total cpu time spent up to now is       54.8 secs

     total energy              =    -923.82478828 Ry
     estimated scf accuracy    <       0.00769020 Ry

     total magnetization       =     0.00 Bohr mag/cell
     absolute magnetization    =     0.56 Bohr mag/cell

     iteration # 27     ecut=    50.00 Ry     beta= 0.30
     Davidson diagonalization with overlap
     ethr =  1.14E-06,  avg # of iterations =  1.0

     negative rho (up, down):  1.215E-06 1.226E-06

     total cpu time spent up to now is       56.7 secs

     total energy              =    -923.82462014 Ry
     estimated scf accuracy    <       0.01109844 Ry

     total magnetization       =     0.00 Bohr mag/cell
     absolute magnetization    =     0.51 Bohr mag/cell

     iteration # 28     ecut=    50.00 Ry     beta= 0.30
     Davidson diagonalization with overlap
     ethr =  1.14E-06,  avg # of iterations =  1.0

     negative rho (up, down):  1.215E-06 1.231E-06

     total cpu time spent up to now is       58.6 secs

     total energy              =    -923.82454544 Ry
     estimated scf accuracy    <       0.00993243 Ry

     total magnetization       =    -0.00 Bohr mag/cell
     absolute magnetization    =     0.52 Bohr mag/cell

     iteration # 29     ecut=    50.00 Ry     beta= 0.30
     Davidson diagonalization with overlap
     ethr =  1.14E-06,  avg # of iterations =  1.0

     negative rho (up, down):  1.216E-06 1.241E-06

     total cpu time spent up to now is       60.5 secs

     total energy              =    -923.82421693 Ry
     estimated scf accuracy    <       0.01490157 Ry

     total magnetization       =     0.00 Bohr mag/cell
     absolute magnetization    =     0.42 Bohr mag/cell

     iteration # 30     ecut=    50.00 Ry     beta= 0.30
     Davidson diagonalization with overlap
     ethr =  1.14E-06,  avg # of iterations =  1.0

     negative rho (up, down):  1.219E-06 1.224E-06

     total cpu time spent up to now is       62.4 secs

     total energy              =    -923.82440074 Ry
     estimated scf accuracy    <       0.00865091 Ry

     total magnetization       =    -0.00 Bohr mag/cell
     absolute magnetization    =     0.39 Bohr mag/cell

     iteration # 31     ecut=    50.00 Ry     beta= 0.30
     Davidson diagonalization with overlap
     ethr =  1.14E-06,  avg # of iterations =  1.0

     negative rho (up, down):  1.221E-06 1.229E-06

     total cpu time spent up to now is       64.3 secs

     total energy              =    -923.82444704 Ry
     estimated scf accuracy    <       0.00076494 Ry

     total magnetization       =    -0.00 Bohr mag/cell
     absolute magnetization    =     0.52 Bohr mag/cell

     iteration # 32     ecut=    50.00 Ry     beta= 0.30
     Davidson diagonalization with overlap
     ethr =  3.84E-07,  avg # of iterations =  1.0

     negative rho (up, down):  1.221E-06 1.224E-06

     total cpu time spent up to now is       66.3 secs

     total energy              =    -923.82442253 Ry
     estimated scf accuracy    <       0.00108577 Ry

     total magnetization       =    -0.00 Bohr mag/cell
     absolute magnetization    =     0.30 Bohr mag/cell

     iteration # 33     ecut=    50.00 Ry     beta= 0.30
     Davidson diagonalization with overlap
     ethr =  3.84E-07,  avg # of iterations =  1.0

     negative rho (up, down):  1.220E-06 1.226E-06

     total cpu time spent up to now is       68.1 secs

     total energy              =    -923.82455191 Ry
     estimated scf accuracy    <       0.00583111 Ry

     total magnetization       =    -0.00 Bohr mag/cell
     absolute magnetization    =     0.51 Bohr mag/cell

     iteration # 34     ecut=    50.00 Ry     beta= 0.30
     Davidson diagonalization with overlap
     ethr =  3.84E-07,  avg # of iterations =  1.0

     negative rho (up, down):  1.221E-06 1.230E-06

     total cpu time spent up to now is       69.9 secs

     total energy              =    -923.82455256 Ry
     estimated scf accuracy    <       0.00681927 Ry

     total magnetization       =    -0.00 Bohr mag/cell
     absolute magnetization    =     0.54 Bohr mag/cell

     iteration # 35     ecut=    50.00 Ry     beta= 0.30
     Davidson diagonalization with overlap
     ethr =  3.84E-07,  avg # of iterations =  1.0

     negative rho (up, down):  1.223E-06 1.235E-06

     total cpu time spent up to now is       71.9 secs

     total energy              =    -923.82450457 Ry
     estimated scf accuracy    <       0.00597211 Ry

     total magnetization       =     0.00 Bohr mag/cell
     absolute magnetization    =     0.54 Bohr mag/cell

     iteration # 36     ecut=    50.00 Ry     beta= 0.30
     Davidson diagonalization with overlap
     ethr =  3.84E-07,  avg # of iterations =  1.0

     negative rho (up, down):  1.223E-06 1.234E-06

     total cpu time spent up to now is       73.8 secs

     total energy              =    -923.82445091 Ry
     estimated scf accuracy    <       0.00080118 Ry

     total magnetization       =     0.00 Bohr mag/cell
     absolute magnetization    =     0.35 Bohr mag/cell

     iteration # 37     ecut=    50.00 Ry     beta= 0.30
     Davidson diagonalization with overlap
     ethr =  3.84E-07,  avg # of iterations =  1.0

     negative rho (up, down):  1.224E-06 1.223E-06

     total cpu time spent up to now is       75.7 secs

     total energy              =    -923.82447601 Ry
     estimated scf accuracy    <       0.02087595 Ry

     total magnetization       =    -0.00 Bohr mag/cell
     absolute magnetization    =     0.14 Bohr mag/cell

     iteration # 38     ecut=    50.00 Ry     beta= 0.30
     Davidson diagonalization with overlap
     ethr =  3.84E-07,  avg # of iterations =  1.0

     negative rho (up, down):  1.223E-06 1.222E-06

     total cpu time spent up to now is       77.6 secs

     total energy              =    -923.82448955 Ry
     estimated scf accuracy    <       0.00164067 Ry

     total magnetization       =    -0.00 Bohr mag/cell
     absolute magnetization    =     0.16 Bohr mag/cell

     iteration # 39     ecut=    50.00 Ry     beta= 0.30
     Davidson diagonalization with overlap
     ethr =  3.84E-07,  avg # of iterations =  1.0

     negative rho (up, down):  1.223E-06 1.222E-06

     total cpu time spent up to now is       79.5 secs

     total energy              =    -923.82449377 Ry
     estimated scf accuracy    <       0.00265443 Ry

     total magnetization       =     0.00 Bohr mag/cell
     absolute magnetization    =     0.18 Bohr mag/cell

     iteration # 40     ecut=    50.00 Ry     beta= 0.30
     Davidson diagonalization with overlap
     ethr =  3.84E-07,  avg # of iterations =  1.0

     negative rho (up, down):  1.223E-06 1.223E-06

     total cpu time spent up to now is       81.4 secs

     total energy              =    -923.82447681 Ry
     estimated scf accuracy    <       0.00061707 Ry

     total magnetization       =    -0.00 Bohr mag/cell
     absolute magnetization    =     0.27 Bohr mag/cell

     iteration # 41     ecut=    50.00 Ry     beta= 0.30
     Davidson diagonalization with overlap
     ethr =  3.10E-07,  avg # of iterations =  1.0

     negative rho (up, down):  1.223E-06 1.222E-06

     total cpu time spent up to now is       83.3 secs

     total energy              =    -923.82448015 Ry
     estimated scf accuracy    <       0.00213730 Ry

     total magnetization       =     0.00 Bohr mag/cell
     absolute magnetization    =     0.11 Bohr mag/cell

     iteration # 42     ecut=    50.00 Ry     beta= 0.30
     Davidson diagonalization with overlap
     ethr =  3.10E-07,  avg # of iterations =  1.0

     negative rho (up, down):  1.222E-06 1.223E-06

     total cpu time spent up to now is       85.2 secs

     total energy              =    -923.82446481 Ry
     estimated scf accuracy    <       0.00055788 Ry

     total magnetization       =    -0.00 Bohr mag/cell
     absolute magnetization    =     0.07 Bohr mag/cell

     iteration # 43     ecut=    50.00 Ry     beta= 0.30
     Davidson diagonalization with overlap
     ethr =  2.80E-07,  avg # of iterations =  1.0

     negative rho (up, down):  1.221E-06 1.222E-06

     total cpu time spent up to now is       87.1 secs

     total energy              =    -923.82446261 Ry
     estimated scf accuracy    <       0.00024267 Ry

     total magnetization       =     0.00 Bohr mag/cell
     absolute magnetization    =     0.30 Bohr mag/cell

     iteration # 44     ecut=    50.00 Ry     beta= 0.30
     Davidson diagonalization with overlap
     ethr =  1.22E-07,  avg # of iterations =  1.0

     negative rho (up, down):  1.221E-06 1.222E-06

     total cpu time spent up to now is       89.0 secs

     total energy              =    -923.82446551 Ry
     estimated scf accuracy    <       0.00028948 Ry

     total magnetization       =     0.00 Bohr mag/cell
     absolute magnetization    =     0.17 Bohr mag/cell

     iteration # 45     ecut=    50.00 Ry     beta= 0.30
     Davidson diagonalization with overlap
     ethr =  1.22E-07,  avg # of iterations =  1.0

     negative rho (up, down):  1.222E-06 1.222E-06

     total cpu time spent up to now is       90.8 secs

     total energy              =    -923.82447388 Ry
     estimated scf accuracy    <       0.00015108 Ry

     total magnetization       =    -0.00 Bohr mag/cell
     absolute magnetization    =     0.15 Bohr mag/cell

     iteration # 46     ecut=    50.00 Ry     beta= 0.30
     Davidson diagonalization with overlap
     ethr =  7.59E-08,  avg # of iterations =  1.0

     negative rho (up, down):  1.222E-06 1.222E-06

     total cpu time spent up to now is       92.7 secs

     total energy              =    -923.82447472 Ry
     estimated scf accuracy    <       0.00000635 Ry

     total magnetization       =    -0.00 Bohr mag/cell
     absolute magnetization    =     0.03 Bohr mag/cell

     iteration # 47     ecut=    50.00 Ry     beta= 0.30
     Davidson diagonalization with overlap
     ethr =  3.19E-09,  avg # of iterations =  1.0

     negative rho (up, down):  1.222E-06 1.222E-06

     total cpu time spent up to now is       94.6 secs

     total energy              =    -923.82447546 Ry
     estimated scf accuracy    <       0.00006362 Ry

     total magnetization       =    -0.00 Bohr mag/cell
     absolute magnetization    =     0.05 Bohr mag/cell

     iteration # 48     ecut=    50.00 Ry     beta= 0.30
     Davidson diagonalization with overlap
     ethr =  3.19E-09,  avg # of iterations =  1.0

     negative rho (up, down):  1.222E-06 1.223E-06

     total cpu time spent up to now is       96.5 secs

     total energy              =    -923.82447487 Ry
     estimated scf accuracy    <       0.00006443 Ry

     total magnetization       =    -0.00 Bohr mag/cell
     absolute magnetization    =     0.05 Bohr mag/cell

     iteration # 49     ecut=    50.00 Ry     beta= 0.30
     Davidson diagonalization with overlap
     ethr =  3.19E-09,  avg # of iterations =  1.0

     negative rho (up, down):  1.222E-06 1.223E-06

     total cpu time spent up to now is       98.4 secs

     total energy              =    -923.82447500 Ry
     estimated scf accuracy    <       0.00000451 Ry

     total magnetization       =     0.00 Bohr mag/cell
     absolute magnetization    =     0.01 Bohr mag/cell

     iteration # 50     ecut=    50.00 Ry     beta= 0.30
     Davidson diagonalization with overlap
     ethr =  2.27E-09,  avg # of iterations =  1.0

     negative rho (up, down):  1.223E-06 1.223E-06

     Magnetic moment per site  (integrated on atomic sphere of radius R)
     atom   1 (R=0.046)  charge=  1.1271  magn= -0.0000
     atom   2 (R=0.046)  charge=  1.1710  magn= -0.0000
     atom   3 (R=0.046)  charge=  1.1958  magn=  0.0000
     atom   4 (R=0.046)  charge=  1.1261  magn=  0.0000
     atom   5 (R=0.046)  charge=  1.1665  magn= -0.0000
     atom   6 (R=0.046)  charge=  1.1980  magn= -0.0000
     atom   7 (R=0.046)  charge=  1.1277  magn= -0.0000
     atom   8 (R=0.046)  charge=  1.1715  magn= -0.0000
     atom   9 (R=0.046)  charge=  1.1949  magn=  0.0000
     atom  10 (R=0.046)  charge=  1.1268  magn=  0.0000
     atom  11 (R=0.046)  charge=  1.1709  magn=  0.0000
     atom  12 (R=0.046)  charge=  1.1957  magn= -0.0000
     atom  13 (R=0.046)  charge=  1.1184  magn=  0.0000
     atom  14 (R=0.046)  charge=  1.1716  magn= -0.0000
     atom  15 (R=0.046)  charge=  1.1841  magn=  0.0000
     atom  16 (R=0.046)  charge=  1.1185  magn= -0.0000
     atom  17 (R=0.046)  charge=  1.1716  magn= -0.0000
     atom  18 (R=0.046)  charge=  1.1838  magn=  0.0000
     atom  19 (R=0.046)  charge=  1.1186  magn= -0.0000
     atom  20 (R=0.046)  charge=  1.1710  magn=  0.0000
     atom  21 (R=0.046)  charge=  1.1854  magn=  0.0000
     atom  22 (R=0.046)  charge=  1.1174  magn=  0.0000
     atom  23 (R=0.046)  charge=  1.1709  magn=  0.0000
     atom  24 (R=0.046)  charge=  1.1832  magn=  0.0000
     atom  25 (R=0.046)  charge=  1.1391  magn=  0.0000
     atom  26 (R=0.046)  charge=  1.1742  magn=  0.0000
     atom  27 (R=0.046)  charge=  1.1979  magn= -0.0000
     atom  28 (R=0.046)  charge=  1.1265  magn=  0.0000
     atom  29 (R=0.046)  charge=  1.1725  magn=  0.0000
     atom  30 (R=0.046)  charge=  1.1957  magn= -0.0000
     atom  31 (R=0.046)  charge=  1.1389  magn=  0.0000
     atom  32 (R=0.046)  charge=  1.1745  magn=  0.0000
     atom  33 (R=0.046)  charge=  1.1942  magn=  0.0000
     atom  34 (R=0.046)  charge=  1.1373  magn=  0.0000
     atom  35 (R=0.046)  charge=  1.1717  magn=  0.0000
     atom  36 (R=0.046)  charge=  1.1964  magn= -0.0000
     atom  37 (R=0.046)  charge=  1.1447  magn= -0.0000
     atom  38 (R=0.046)  charge=  1.1842  magn= -0.0000
     atom  39 (R=0.046)  charge=  1.1957  magn= -0.0000
     atom  40 (R=0.046)  charge=  1.1187  magn=  0.0000
     atom  41 (R=0.046)  charge=  1.1721  magn=  0.0000
     atom  42 (R=0.046)  charge=  1.1838  magn= -0.0000
     atom  43 (R=0.046)  charge=  1.1170  magn=  0.0000
     atom  44 (R=0.046)  charge=  1.1708  magn=  0.0000
     atom  45 (R=0.046)  charge=  1.1849  magn= -0.0000
     atom  46 (R=0.046)  charge=  1.1217  magn= -0.0000
     atom  47 (R=0.046)  charge=  1.1730  magn= -0.0000
     atom  48 (R=0.046)  charge=  1.1841  magn=  0.0000
     atom  49 (R=0.037)  charge=  1.9988  magn= -0.0000
     atom  50 (R=0.037)  charge=  0.3741  magn=  0.0000

     total cpu time spent up to now is      100.3 secs

     End of self-consistent calculation

 ------ SPIN UP ------------


          k = 0.0000 0.0000 0.0000 ( 26858 PWs)   bands (ev):

   -26.7976 -21.5194 -21.1407 -17.6310 -17.5237 -17.4810 -17.4392 -17.3706
   -17.3374 -16.8792 -16.7839 -16.7326 -16.6669 -16.6175 -16.2868 -16.2182
   -15.9884 -15.9707 -15.8613 -15.8106 -15.6929 -15.5902 -15.0914 -14.6319
   -14.5919 -14.5681 -14.1106 -14.0272 -13.6034 -13.3197 -13.0696 -12.9203
   -12.8379 -12.3246 -12.2017 -11.8716 -11.7664 -11.6998 -11.2833 -10.8603
   -10.8074 -10.7032 -10.6378 -10.4673 -10.1797 -10.0860  -9.8681  -9.8296
    -9.5860  -9.4556  -9.4531  -9.3864  -9.3559  -8.3024  -8.0710  -7.4491
    -6.8722  -6.7835  -6.7646  -6.5418  -6.2890  -6.2728  -6.1588  -6.0164
    -5.9561  -5.7561  -5.5630  -5.5445  -5.4891  -5.4532  -5.3898  -5.3706
    -5.3312  -5.2892  -5.1768  -5.0365  -4.7876  -4.7120  -4.4742  -4.4615
    -4.3833  -4.2098  -4.0421  -3.8800  -3.8395  -3.7065  -3.6260  -3.5480
    -3.4221  -3.3342  -3.2017  -2.9957  -2.9813  -2.9130  -2.8531  -2.6376
    -2.0438  -1.9893  -1.6499  -1.6495  -0.2172  -0.1577   0.1340   0.5624
     0.6791   0.9121   1.2205   1.2574   1.3419   1.3908   1.6071   1.6872
     2.0984   2.1655   2.2981   2.4361   2.5762   2.6421   2.7082

 ------ SPIN DOWN ----------


          k = 0.0000 0.0000 0.0000 ( 26858 PWs)   bands (ev):

   -26.7976 -21.5194 -21.1407 -17.6310 -17.5237 -17.4810 -17.4392 -17.3706
   -17.3374 -16.8792 -16.7839 -16.7326 -16.6669 -16.6175 -16.2868 -16.2182
   -15.9884 -15.9707 -15.8613 -15.8106 -15.6929 -15.5902 -15.0914 -14.6319
   -14.5919 -14.5681 -14.1106 -14.0272 -13.6034 -13.3197 -13.0696 -12.9203
   -12.8379 -12.3246 -12.2017 -11.8716 -11.7664 -11.6998 -11.2833 -10.8603
   -10.8074 -10.7032 -10.6378 -10.4673 -10.1797 -10.0860  -9.8681  -9.8296
    -9.5860  -9.4556  -9.4531  -9.3864  -9.3559  -8.3024  -8.0710  -7.4491
    -6.8722  -6.7835  -6.7645  -6.5418  -6.2890  -6.2728  -6.1588  -6.0164
    -5.9561  -5.7561  -5.5630  -5.5445  -5.4891  -5.4532  -5.3898  -5.3706
    -5.3311  -5.2891  -5.1768  -5.0365  -4.7876  -4.7120  -4.4742  -4.4615
    -4.3833  -4.2098  -4.0421  -3.8800  -3.8395  -3.7065  -3.6260  -3.5480
    -3.4221  -3.3342  -3.2017  -2.9957  -2.9813  -2.9130  -2.8531  -2.6376
    -2.0438  -1.9893  -1.6499  -1.6495  -0.2172  -0.1577   0.1340   0.5624
     0.6791   0.9121   1.2205   1.2574   1.3419   1.3908   1.6071   1.6872
     2.0984   2.1655   2.2981   2.4361   2.5762   2.6421   2.7082

     the spin up/dw Fermi energies are    -1.6491   -1.6491 ev

!    total energy              =    -923.82447504 Ry
     estimated scf accuracy    <          1.6E-09 Ry
     smearing contrib. (-TS)   =      -0.00008812 Ry
     internal energy E=F+TS    =    -923.82438692 Ry

     The total energy is F=E-TS. E is the sum of the following terms:
     one-electron contribution =   -1330.05055837 Ry
     hartree contribution      =     711.70916680 Ry
     xc contribution           =    -226.75496527 Ry
     ewald contribution        =     226.83173960 Ry
     one-center paw contrib.   =    -305.55976968 Ry

     total magnetization       =     0.00 Bohr mag/cell
     absolute magnetization    =     0.00 Bohr mag/cell

     convergence has been achieved in  50 iterations

     negative rho (up, down):  1.223E-06 1.223E-06

     Forces acting on atoms (cartesian axes, Ry/au):

     atom    1 type  1   force =     0.01700046   -0.02091383    0.01990650
     atom    2 type  1   force =     0.04837408   -0.04845555    0.04801415
     atom    3 type  1   force =     0.03805723   -0.03820191    0.03784264
     atom    4 type  1   force =    -0.02873372    0.04199274    0.03288331
     atom    5 type  1   force =    -0.09523759    0.09718026    0.09284464
     atom    6 type  1   force =    -0.00415914    0.00951657    0.00678791
     atom    7 type  1   force =     0.01457694    0.02034247   -0.01868195
     atom    8 type  1   force =     0.04862960    0.04899430   -0.04916385
     atom    9 type  1   force =     0.03789962    0.03885575   -0.03799515
     atom   10 type  1   force =    -0.01687249   -0.01850799   -0.01815977
     atom   11 type  1   force =    -0.04933235   -0.04987955   -0.04952233
     atom   12 type  1   force =    -0.03611122   -0.03738207   -0.03678232
     atom   13 type  1   force =    -0.05295620    0.04732470    0.05065300
     atom   14 type  1   force =     0.05193436   -0.05197446   -0.05196280
     atom   15 type  1   force =    -0.00638760    0.00650055    0.00628364
     atom   16 type  1   force =     0.04850859   -0.04931159    0.04277841
     atom   17 type  1   force =    -0.05465397    0.05453204   -0.05462810
     atom   18 type  1   force =     0.01003343   -0.00993805    0.00835555
     atom   19 type  1   force =     0.05100048    0.03699566   -0.05124081
     atom   20 type  1   force =    -0.06192168   -0.06270191    0.06149416
     atom   21 type  1   force =     0.01554160    0.01227086   -0.01493074
     atom   22 type  1   force =    -0.05062775   -0.05000326   -0.04692891
     atom   23 type  1   force =     0.05391504    0.05411461    0.05368584
     atom   24 type  1   force =    -0.00850477   -0.00937120   -0.00867533
     atom   25 type  1   force =     0.02166300    0.13254221    0.14544797
     atom   26 type  1   force =     0.05449707   -0.05261650    0.05675041
     atom   27 type  1   force =     0.04022697   -0.01296664    0.04716200
     atom   28 type  1   force =    -0.00617430    0.02173189    0.01351965
     atom   29 type  1   force =    -0.04779076    0.04806363    0.04780589
     atom   30 type  1   force =    -0.03944633    0.03672062    0.03905257
     atom   31 type  1   force =     0.01317666    0.14070356   -0.00799967
     atom   32 type  1   force =     0.06735476    0.06208741   -0.06716741
     atom   33 type  1   force =     0.01022640    0.02224644   -0.01088609
     atom   34 type  1   force =    -0.06748152    0.05590987   -0.04216553
     atom   35 type  1   force =    -0.05377652   -0.05479403   -0.05364770
     atom   36 type  1   force =    -0.02745611   -0.02787509   -0.03034656
     atom   37 type  1   force =    -0.11715607    0.32369607   -0.02884023
     atom   38 type  1   force =     0.16124462   -0.14215199   -0.16473602
     atom   39 type  1   force =    -0.00035569    0.08665505   -0.01050991
     atom   40 type  1   force =     0.05203319   -0.04842417    0.04826034
     atom   41 type  1   force =    -0.05177218    0.05270778   -0.05228033
     atom   42 type  1   force =     0.00631569   -0.00614855    0.00971532
     atom   43 type  1   force =     0.06905502    0.04581179   -0.07029620
     atom   44 type  1   force =    -0.05257823   -0.05369464    0.05320286
     atom   45 type  1   force =     0.00908886    0.00703749   -0.00756623
     atom   46 type  1   force =    -0.05355308   -0.02836112   -0.04148760
     atom   47 type  1   force =     0.05525816    0.05458510    0.05479625
     atom   48 type  1   force =    -0.01240443   -0.00437466   -0.00837604
     atom   49 type  2   force =     0.02105528   -0.64448324    0.07379455
     atom   50 type  3   force =    -0.02122339   -0.03658741   -0.01606001

     Total force =     0.963314     Total SCF correction =     0.000052

     BFGS Geometry Optimization
     Energy error            =      0.0E+00 Ry
     Gradient error          =      6.4E-01 Ry/Bohr

     number of scf cycles    =   1
     number of bfgs steps    =   0

     energy             new  =    -923.8244750381 Ry

     new trust radius        =       0.5000000000 bohr
     new conv_thr            =       0.0000010000 Ry


ATOMIC_POSITIONS (angstrom)
C             6.1749304768        4.5994741836        6.1771151661
C             7.7037203719        3.0662464144        7.7035736446
C             6.9895145637        3.7834264552        6.9894270859
C             4.5962862973        6.1861189318        6.1824053421
C             3.0471750571        7.7236168966        7.7218494210
C             3.7973044675        6.9778795622        6.9767671877
C             6.1749424943        6.1772928921        4.6003840421
C             7.7038245386        7.7039732157        3.0659576665
C             6.9894503146        6.9898400931        3.7835107450
C             4.5961216913        4.5954549589        4.5955969156
C             3.0648889758        3.0646659014        3.0648115280
C             3.7812787542        3.7807606745        3.7810051699
C             6.2034116628        4.5652925786        4.5666494091
C             7.7851717735        2.9918118810        2.9918166350
C             7.0503960056        3.7236500392        3.7245616134
C             4.5657752079        6.2048974363        4.5634392213
C             2.9907195398        7.7872307541        2.9907300874
C             3.7250902678        7.0489486138        3.7254062565
C             4.5667910633        4.5600818013        6.2051109622
C             2.9877567566        2.9874386872        7.7890689588
C             3.7273357496        3.7260023870        7.0469132758
C             6.2083608843        6.2086154668        6.2098687694
C             7.7859792245        7.7870605823        7.7868857862
C             7.0515329113        7.0521796985        7.0514633807
C             0.6768312277       10.1570326943        0.7272939073
C             2.2102164980        8.5675501456        2.2111351012
C             1.4923990898        9.2927139653        1.4952262529
C            10.0994829598        0.6758593098        0.6735114745
C             8.5695174243        2.2065938141        2.2074887413
C             9.2819191493        1.4899696752        1.4919203280
C             0.6733716511        0.7243597827       10.0997388220
C             2.2144581134        2.2123108038        8.5616182635
C             1.4801689367        1.4840690738        9.2935621337
C            10.0804902108       10.1307924446       10.0898106298
C             8.5680772440        8.5676624456        8.5681297617
C             9.2898071300        9.2896363295        9.2876287977
C             0.6812396827       10.1779592519       10.0342428749
C             2.3247336338        8.4510497442        8.4408430476
C             1.5518549974        9.2543261485        9.2147154878
C            10.0662120599        0.7082592055       10.0656740061
C             8.4868943443        2.2804870654        8.4866871887
C             9.2205746780        1.5484934553        9.2219605876
C            10.0741512491       10.0656758207        0.7003427655
C             8.4865657449        8.4871106239        2.2806888936
C             9.2227052017        9.2218689324        1.5489155213
C             0.7041683332        0.7134381920        0.7080869962
C             2.2825267655        2.2812523811        2.2823384605
C             1.5459431580        1.5482166076        1.5465853908
O             0.7245834798        8.4822673527       10.4340833849
H             0.7073479865        7.7540846289       10.3974529105



     Writing config-only to output data dir ./pwscf.save/
     NEW-OLD atomic charge density approx. for the potential

     Check: negative core charge=   -0.000004

     negative rho (up, down):  1.226E-06 1.226E-06
     Generating pointlists ...
     new r_m :   0.0273 (alat units)  0.5685 (a.u.) for type    2
     new r_m :   0.0273 (alat units)  0.5685 (a.u.) for type    3

     total cpu time spent up to now is      104.9 secs

     Self-consistent Calculation

     iteration #  1     ecut=    50.00 Ry     beta= 0.30
     Davidson diagonalization with overlap
     c_bands:  1 eigenvalues not converged
     c_bands:  1 eigenvalues not converged
     ethr =  1.00E-06,  avg # of iterations = 20.0

     negative rho (up, down):  1.175E-06 1.175E-06

     total cpu time spent up to now is      111.4 secs

     total energy              =    -923.87555675 Ry
     estimated scf accuracy    <       0.66872873 Ry

     total magnetization       =     0.00 Bohr mag/cell
     absolute magnetization    =     0.00 Bohr mag/cell

     iteration #  2     ecut=    50.00 Ry     beta= 0.30
     Davidson diagonalization with overlap
     ethr =  3.36E-04,  avg # of iterations =  3.0

     negative rho (up, down):  1.196E-06 1.196E-06

     total cpu time spent up to now is      113.5 secs

     total energy              =    -923.97232559 Ry
     estimated scf accuracy    <       0.10829124 Ry

     total magnetization       =     0.00 Bohr mag/cell
     absolute magnetization    =     0.00 Bohr mag/cell

     iteration #  3     ecut=    50.00 Ry     beta= 0.30
     Davidson diagonalization with overlap
     ethr =  5.44E-05,  avg # of iterations =  2.0

     negative rho (up, down):  1.325E-06 1.325E-06

     total cpu time spent up to now is      115.6 secs

     total energy              =    -923.97217050 Ry
     estimated scf accuracy    <       0.07458192 Ry

     total magnetization       =     0.00 Bohr mag/cell
     absolute magnetization    =     0.00 Bohr mag/cell

     iteration #  4     ecut=    50.00 Ry     beta= 0.30
     Davidson diagonalization with overlap
     ethr =  3.75E-05,  avg # of iterations =  1.0

     negative rho (up, down):  1.201E-06 1.200E-06

     total cpu time spent up to now is      117.5 secs

     total energy              =    -923.97151755 Ry
     estimated scf accuracy    <       0.02902003 Ry

     total magnetization       =     0.00 Bohr mag/cell
     absolute magnetization    =     0.00 Bohr mag/cell

     iteration #  5     ecut=    50.00 Ry     beta= 0.30
     Davidson diagonalization with overlap
     ethr =  1.46E-05,  avg # of iterations =  2.0

     negative rho (up, down):  1.171E-06 1.170E-06

     total cpu time spent up to now is      119.5 secs

     total energy              =    -923.96965247 Ry
     estimated scf accuracy    <       0.00490334 Ry

     total magnetization       =     0.00 Bohr mag/cell
     absolute magnetization    =     0.00 Bohr mag/cell

     iteration #  6     ecut=    50.00 Ry     beta= 0.30
     Davidson diagonalization with overlap
     ethr =  2.46E-06,  avg # of iterations =  5.0

     negative rho (up, down):  1.172E-06 1.172E-06

     total cpu time spent up to now is      121.8 secs

     total energy              =    -923.96986625 Ry
     estimated scf accuracy    <       0.00057966 Ry

     total magnetization       =     0.00 Bohr mag/cell
     absolute magnetization    =     0.00 Bohr mag/cell

     iteration #  7     ecut=    50.00 Ry     beta= 0.30
     Davidson diagonalization with overlap
     ethr =  2.91E-07,  avg # of iterations =  4.0

     negative rho (up, down):  1.178E-06 1.178E-06

     total cpu time spent up to now is      124.0 secs

     total energy              =    -923.96980765 Ry
     estimated scf accuracy    <       0.00021240 Ry

     total magnetization       =     0.00 Bohr mag/cell
     absolute magnetization    =     0.00 Bohr mag/cell

     iteration #  8     ecut=    50.00 Ry     beta= 0.30
     Davidson diagonalization with overlap
     ethr =  1.07E-07,  avg # of iterations =  3.0

     negative rho (up, down):  1.178E-06 1.178E-06

     total cpu time spent up to now is      126.2 secs

     total energy              =    -923.96980109 Ry
     estimated scf accuracy    <       0.00005165 Ry

     total magnetization       =     0.00 Bohr mag/cell
     absolute magnetization    =     0.00 Bohr mag/cell

     iteration #  9     ecut=    50.00 Ry     beta= 0.30
     Davidson diagonalization with overlap
     ethr =  2.60E-08,  avg # of iterations =  2.0

     negative rho (up, down):  1.173E-06 1.173E-06

     total cpu time spent up to now is      128.2 secs

     total energy              =    -923.96980281 Ry
     estimated scf accuracy    <       0.00000976 Ry

     total magnetization       =     0.00 Bohr mag/cell
     absolute magnetization    =     0.00 Bohr mag/cell

     iteration # 10     ecut=    50.00 Ry     beta= 0.30
     Davidson diagonalization with overlap
     ethr =  4.90E-09,  avg # of iterations =  2.0

     negative rho (up, down):  1.169E-06 1.169E-06

     total cpu time spent up to now is      130.4 secs

     total energy              =    -923.96980442 Ry
     estimated scf accuracy    <       0.00000214 Ry

     total magnetization       =    -0.00 Bohr mag/cell
     absolute magnetization    =     0.00 Bohr mag/cell

     iteration # 11     ecut=    50.00 Ry     beta= 0.30
     Davidson diagonalization with overlap
     ethr =  1.08E-09,  avg # of iterations =  4.0

     negative rho (up, down):  1.169E-06 1.169E-06

     Magnetic moment per site  (integrated on atomic sphere of radius R)
     atom   1 (R=0.046)  charge=  1.1300  magn= -0.0000
     atom   2 (R=0.046)  charge=  1.1895  magn= -0.0000
     atom   3 (R=0.046)  charge=  1.1877  magn=  0.0000
     atom   4 (R=0.046)  charge=  1.1364  magn=  0.0000
     atom   5 (R=0.046)  charge=  1.2058  magn=  0.0000
     atom   6 (R=0.046)  charge=  1.1691  magn= -0.0000
     atom   7 (R=0.046)  charge=  1.1294  magn=  0.0000
     atom   8 (R=0.046)  charge=  1.1895  magn= -0.0000
     atom   9 (R=0.046)  charge=  1.1869  magn=  0.0000
     atom  10 (R=0.046)  charge=  1.1291  magn=  0.0000
     atom  11 (R=0.046)  charge=  1.1893  magn=  0.0000
     atom  12 (R=0.046)  charge=  1.1855  magn= -0.0000
     atom  13 (R=0.046)  charge=  1.1159  magn=  0.0000
     atom  14 (R=0.046)  charge=  1.1694  magn= -0.0000
     atom  15 (R=0.046)  charge=  1.1510  magn=  0.0000
     atom  16 (R=0.046)  charge=  1.1149  magn= -0.0000
     atom  17 (R=0.046)  charge=  1.1686  magn= -0.0000
     atom  18 (R=0.046)  charge=  1.1512  magn=  0.0000
     atom  19 (R=0.046)  charge=  1.1155  magn= -0.0000
     atom  20 (R=0.046)  charge=  1.1688  magn= -0.0000
     atom  21 (R=0.046)  charge=  1.1482  magn=  0.0000
     atom  22 (R=0.046)  charge=  1.1153  magn= -0.0000
     atom  23 (R=0.046)  charge=  1.1689  magn= -0.0000
     atom  24 (R=0.046)  charge=  1.1493  magn=  0.0000
     atom  25 (R=0.046)  charge=  1.1301  magn=  0.0000
     atom  26 (R=0.046)  charge=  1.1920  magn=  0.0000
     atom  27 (R=0.046)  charge=  1.1776  magn= -0.0000
     atom  28 (R=0.046)  charge=  1.1298  magn=  0.0000
     atom  29 (R=0.046)  charge=  1.1918  magn=  0.0000
     atom  30 (R=0.046)  charge=  1.1857  magn= -0.0000
     atom  31 (R=0.046)  charge=  1.1631  magn=  0.0000
     atom  32 (R=0.046)  charge=  1.1831  magn=  0.0000
     atom  33 (R=0.046)  charge=  1.1827  magn= -0.0000
     atom  34 (R=0.046)  charge=  1.1378  magn=  0.0000
     atom  35 (R=0.046)  charge=  1.1878  magn=  0.0000
     atom  36 (R=0.046)  charge=  1.1812  magn= -0.0000
     atom  37 (R=0.046)  charge=  1.1026  magn= -0.0000
     atom  38 (R=0.046)  charge=  1.1894  magn= -0.0000
     atom  39 (R=0.046)  charge=  1.0897  magn=  0.0000
     atom  40 (R=0.046)  charge=  1.1211  magn=  0.0000
     atom  41 (R=0.046)  charge=  1.1716  magn=  0.0000
     atom  42 (R=0.046)  charge=  1.1510  magn= -0.0000
     atom  43 (R=0.046)  charge=  1.1117  magn= -0.0000
     atom  44 (R=0.046)  charge=  1.1708  magn=  0.0000
     atom  45 (R=0.046)  charge=  1.1475  magn= -0.0000
     atom  46 (R=0.046)  charge=  1.1289  magn= -0.0000
     atom  47 (R=0.046)  charge=  1.1709  magn= -0.0000
     atom  48 (R=0.046)  charge=  1.1521  magn=  0.0000
     atom  49 (R=0.027)  charge=  0.9722  magn= -0.0000
     atom  50 (R=0.027)  charge=  0.3852  magn=  0.0000

     total cpu time spent up to now is      132.4 secs

     End of self-consistent calculation

 ------ SPIN UP ------------


          k = 0.0000 0.0000 0.0000 ( 26858 PWs)   bands (ev):

   -24.0427 -21.7737 -21.6724 -17.6908 -17.5817 -17.5799 -17.4871 -17.4085
   -17.3412 -17.0638 -16.8540 -16.8067 -16.7783 -16.7422 -16.3113 -16.1532
   -16.1260 -15.9387 -15.7901 -15.7473 -15.5538 -15.3823 -14.6249 -14.5184
   -14.4745 -14.4633 -14.2623 -14.1735 -13.7935 -13.3055 -12.9654 -12.7558
   -12.7019 -12.3321 -12.2586 -12.1406 -12.1293 -11.5097 -11.2926 -11.0572
   -11.0069 -10.8198 -10.5377 -10.2586  -9.9795  -9.9082  -9.8517  -9.6196
    -9.6050  -9.5956  -9.5478  -9.4446  -9.3792  -8.0312  -7.3774  -6.9429
    -6.8157  -6.7865  -6.6296  -6.5589  -6.3551  -6.3217  -6.1849  -6.0651
    -5.9755  -5.8449  -5.7482  -5.6086  -5.6024  -5.5492  -5.5159  -5.4737
    -5.4322  -5.4223  -5.3362  -5.1980  -4.9449  -4.9301  -4.7941  -4.6627
    -4.5864  -4.4931  -4.2966  -3.8419  -3.6788  -3.6075  -3.4868  -3.3250
    -3.2548  -3.1547  -3.0911  -2.9207  -2.8942  -2.8595  -2.7823  -2.5595
    -2.1047  -1.9470  -1.8455  -1.5222  -0.5689  -0.3954  -0.0351   0.2642
     0.4537   0.6696   0.8942   0.9973   1.0245   1.1041   1.2416   1.2515
     1.7152   2.1900   2.2197   2.2573   2.3816   2.4386   2.4892

 ------ SPIN DOWN ----------


          k = 0.0000 0.0000 0.0000 ( 26858 PWs)   bands (ev):

   -24.0427 -21.7737 -21.6724 -17.6908 -17.5817 -17.5799 -17.4871 -17.4085
   -17.3412 -17.0638 -16.8540 -16.8067 -16.7783 -16.7422 -16.3113 -16.1532
   -16.1260 -15.9387 -15.7901 -15.7473 -15.5538 -15.3823 -14.6249 -14.5184
   -14.4745 -14.4633 -14.2623 -14.1735 -13.7935 -13.3055 -12.9654 -12.7558
   -12.7019 -12.3321 -12.2586 -12.1406 -12.1293 -11.5097 -11.2926 -11.0572
   -11.0069 -10.8198 -10.5377 -10.2586  -9.9795  -9.9082  -9.8517  -9.6196
    -9.6050  -9.5956  -9.5478  -9.4446  -9.3792  -8.0312  -7.3774  -6.9429
    -6.8157  -6.7865  -6.6296  -6.5589  -6.3551  -6.3217  -6.1849  -6.0651
    -5.9755  -5.8449  -5.7482  -5.6086  -5.6024  -5.5492  -5.5159  -5.4737
    -5.4322  -5.4223  -5.3362  -5.1980  -4.9449  -4.9301  -4.7941  -4.6627
    -4.5864  -4.4931  -4.2966  -3.8419  -3.6788  -3.6075  -3.4868  -3.3249
    -3.2548  -3.1547  -3.0911  -2.9207  -2.8942  -2.8595  -2.7823  -2.5595
    -2.1047  -1.9470  -1.8455  -1.5222  -0.5689  -0.3954  -0.0351   0.2642
     0.4537   0.6696   0.8943   0.9973   1.0245   1.1041   1.2416   1.2515
     1.7152   2.1900   2.2197   2.2573   2.3816   2.4386   2.4892

     the spin up/dw Fermi energies are    -1.5222   -1.5222 ev

!    total energy              =    -923.96980492 Ry
     estimated scf accuracy    <       0.00000058 Ry
     smearing contrib. (-TS)   =      -0.00005642 Ry
     internal energy E=F+TS    =    -923.96974850 Ry

     The total energy is F=E-TS. E is the sum of the following terms:
     one-electron contribution =   -1308.10499246 Ry
     hartree contribution      =     700.69139050 Ry
     xc contribution           =    -226.52180507 Ry
     ewald contribution        =     215.50202946 Ry
     one-center paw contrib.   =    -305.53637094 Ry

     total magnetization       =    -0.00 Bohr mag/cell
     absolute magnetization    =     0.00 Bohr mag/cell

     convergence has been achieved in  11 iterations

     negative rho (up, down):  1.169E-06 1.169E-06

     Forces acting on atoms (cartesian axes, Ry/au):

     atom    1 type  1   force =     0.01396714   -0.01686580    0.01626764
     atom    2 type  1   force =    -0.01535267    0.01558520   -0.01588774
     atom    3 type  1   force =     0.02928373   -0.03091987    0.03061871
     atom    4 type  1   force =    -0.00986021    0.03544620    0.01800986
     atom    5 type  1   force =     0.13708675   -0.13187758   -0.13709233
     atom    6 type  1   force =    -0.06419139    0.07140534    0.06541909
     atom    7 type  1   force =     0.01452785    0.01871776   -0.01395737
     atom    8 type  1   force =    -0.01580693   -0.01536368    0.01544440
     atom    9 type  1   force =     0.02844360    0.03037219   -0.02850229
     atom   10 type  1   force =    -0.01543536   -0.01700151   -0.01444689
     atom   11 type  1   force =     0.02124101    0.02058245    0.02066229
     atom   12 type  1   force =    -0.03242728   -0.03431756   -0.03225236
     atom   13 type  1   force =    -0.00465295   -0.00002264    0.00327189
     atom   14 type  1   force =    -0.07366655    0.07306091    0.07327420
     atom   15 type  1   force =     0.04449574   -0.04455408   -0.04451968
     atom   16 type  1   force =    -0.00135905   -0.00255849   -0.00495795
     atom   17 type  1   force =     0.07930299   -0.08227183    0.07927530
     atom   18 type  1   force =    -0.04618538    0.04697107   -0.04771269
     atom   19 type  1   force =     0.00398049   -0.01835508   -0.00738777
     atom   20 type  1   force =     0.09543551    0.09510029   -0.09664706
     atom   21 type  1   force =    -0.05139653   -0.05996540    0.05208906
     atom   22 type  1   force =    -0.00029449   -0.00259677    0.00048379
     atom   23 type  1   force =    -0.07995409   -0.08131575   -0.07968065
     atom   24 type  1   force =     0.04667232    0.04700558    0.04662427
     atom   25 type  1   force =     0.01610881    0.00622564   -0.01789138
     atom   26 type  1   force =    -0.02922082    0.03440826   -0.02594839
     atom   27 type  1   force =     0.04360597   -0.01846459    0.04760520
     atom   28 type  1   force =    -0.02598482    0.03083906    0.01990076
     atom   29 type  1   force =     0.01463140   -0.01456737   -0.01446412
     atom   30 type  1   force =    -0.02760291    0.02739630    0.02684370
     atom   31 type  1   force =    -0.02115646    0.02329953    0.01302528
     atom   32 type  1   force =    -0.06778362   -0.06751364    0.06806369
     atom   33 type  1   force =     0.09870950    0.11391962   -0.09896503
     atom   34 type  1   force =     0.01196175   -0.00271277   -0.00791254
     atom   35 type  1   force =     0.03719854    0.03775006    0.03789754
     atom   36 type  1   force =    -0.05330268   -0.04610030   -0.05741079
     atom   37 type  1   force =     0.00720337    0.09975625   -0.00359525
     atom   38 type  1   force =    -0.16063864    0.19693553    0.15157659
     atom   39 type  1   force =    -0.00941457   -0.12497673    0.04080414
     atom   40 type  1   force =    -0.02041829    0.03149150    0.00235661
     atom   41 type  1   force =     0.07549595   -0.07416130    0.07520540
     atom   42 type  1   force =    -0.05026703    0.04983874   -0.04416580
     atom   43 type  1   force =     0.00344999    0.00790381   -0.00216896
     atom   44 type  1   force =     0.07635314    0.07497332   -0.07557490
     atom   45 type  1   force =    -0.04053182   -0.04110060    0.04077104
     atom   46 type  1   force =    -0.00530180    0.03176370    0.01157515
     atom   47 type  1   force =    -0.08080262   -0.07969966   -0.08097997
     atom   48 type  1   force =     0.05281408    0.06275835    0.05984514
     atom   49 type  2   force =     0.07833005    0.91820639    0.01869819
     atom   50 type  3   force =    -0.02729071   -1.19443006   -0.08348706

     Total force =     1.656746     Total SCF correction =     0.000878
     Energy error            =      1.5E-01 Ry
     Gradient error          =      1.2E+00 Ry/Bohr

     number of scf cycles    =   2
     number of bfgs steps    =   1

     energy             old  =    -923.8244750381 Ry
     energy             new  =    -923.9698049232 Ry

     CASE: energy            _new < energy            _old

     new trust radius        =       0.6963895796 bohr
     new conv_thr            =       0.0000010000 Ry


ATOMIC_POSITIONS (angstrom)
C             6.1863778986        4.5854846461        6.1904938264
C             7.7201047161        3.0498952014        7.7196452995
C             7.0145580587        3.7578397156        7.0147701517
C             4.5809773787        6.2146731218        6.2019013196
C             3.0463170465        7.7268446695        7.7216721444
C             3.7766464669        7.0029714140        6.9989214355
C             6.1855078174        6.1915797916        4.5882131651
C             7.7201857811        7.7206222350        3.0492591301
C             7.0141788766        7.0155483409        3.7587236773
C             4.5842981363        4.5824647612        4.5835077600
C             3.0498208807        3.0491679347        3.0494913248
C             3.7561521731        3.7545297204        3.7556401006
C             6.1791697703        4.5857280815        4.5894906275
C             7.7859595619        2.9908288149        2.9909012799
C             7.0607110885        3.7133666030        3.7141945911
C             4.5863294187        6.1828452672        4.5804607842
C             2.9904131634        7.7866121237        2.9904267502
C             3.7158535529        7.0584573884        3.7149960001
C             4.5899905852        4.5706689770        6.1808064645
C             2.9890512938        2.9882977055        7.7872337612
C             3.7189471183        3.7136831394        7.0557692584
C             6.1864054270        6.1862532806        6.1897397302
C             7.7857751033        7.7865425664        7.7866630033
C             7.0615730183        7.0619434680        7.0614156939
C             0.6909219474       10.2161142903        0.7848638817
C             2.2251708064        8.5549323927        2.2280242929
C             1.5225881384        9.2816874806        1.5295860256
C            10.0891807855        0.6943079952        0.6851988230
C             8.5531731131        2.2230748051        2.2238887358
C             9.2567695018        1.5138812286        1.5166768105
C             0.6728469492        0.7919835592       10.1001105566
C             2.2236354129        2.2192921703        8.5526041850
C             1.5135902207        1.5271516855        9.2597808107
C            10.0548559463       10.1541459146       10.0692720544
C             8.5557782833        8.5550860243        8.5560918366
C             9.2622853232        9.2640498302        9.2576513541
C             0.6327500735       10.3470929883       10.0207287868
C             2.3471834482        8.4475122539        8.4142223898
C             1.5489350583        9.2550351861        9.2221652078
C            10.0826885383        0.6965953152       10.0872127615
C             8.4867141461        2.2814635594        8.4862021196
C             9.2085327478        1.5604817335        9.2131798799
C            10.1049936453       10.0877868545        0.6693406412
C             8.4862892385        8.4859464430        2.2814638837
C             9.2147216678        9.2128321720        1.5576270564
C             0.6794779619        0.7105206238        0.6935673489
C             2.2826534864        2.2814124511        2.2822135453
C             1.5561034253        1.5647673128        1.5605516907
O             0.7566942365        8.4736771374       10.4714534442
H             0.6901615655        7.3873196244       10.3659845974



     Writing config-only to output data dir ./pwscf.save/
     NEW-OLD atomic charge density approx. for the potential

     Check: negative core charge=   -0.000004

     negative rho (up, down):  9.570E-07 9.570E-07
     Generating pointlists ...

     total cpu time spent up to now is      137.5 secs

     Self-consistent Calculation

     iteration #  1     ecut=    50.00 Ry     beta= 0.30
     Davidson diagonalization with overlap
     ethr =  1.00E-06,  avg # of iterations = 13.0

     negative rho (up, down):  1.110E-06 1.110E-06

     total cpu time spent up to now is      143.2 secs

     total energy              =    -924.03243397 Ry
     estimated scf accuracy    <       0.41317542 Ry

     total magnetization       =     0.00 Bohr mag/cell
     absolute magnetization    =     0.00 Bohr mag/cell

     iteration #  2     ecut=    50.00 Ry     beta= 0.30
     Davidson diagonalization with overlap
     ethr =  2.08E-04,  avg # of iterations =  4.0

     negative rho (up, down):  1.252E-06 1.252E-06

     total cpu time spent up to now is      145.5 secs

     total energy              =    -924.10677626 Ry
     estimated scf accuracy    <       0.17844618 Ry

     total magnetization       =     0.00 Bohr mag/cell
     absolute magnetization    =     0.00 Bohr mag/cell

     iteration #  3     ecut=    50.00 Ry     beta= 0.30
     Davidson diagonalization with overlap
     ethr =  8.97E-05,  avg # of iterations =  2.0

     negative rho (up, down):  1.447E-06 1.447E-06

     total cpu time spent up to now is      147.5 secs

     total energy              =    -924.12379112 Ry
     estimated scf accuracy    <       0.06003062 Ry

     total magnetization       =     0.00 Bohr mag/cell
     absolute magnetization    =     0.00 Bohr mag/cell

     iteration #  4     ecut=    50.00 Ry     beta= 0.30
     Davidson diagonalization with overlap
     ethr =  3.02E-05,  avg # of iterations =  2.0

     negative rho (up, down):  1.283E-06 1.283E-06

     total cpu time spent up to now is      149.6 secs

     total energy              =    -924.12766236 Ry
     estimated scf accuracy    <       0.01402672 Ry

     total magnetization       =     0.00 Bohr mag/cell
     absolute magnetization    =     0.00 Bohr mag/cell

     iteration #  5     ecut=    50.00 Ry     beta= 0.30
     Davidson diagonalization with overlap
     ethr =  7.05E-06,  avg # of iterations =  4.0

     negative rho (up, down):  1.344E-06 1.344E-06

     total cpu time spent up to now is      151.7 secs

     total energy              =    -924.12866384 Ry
     estimated scf accuracy    <       0.00394487 Ry

     total magnetization       =    -0.00 Bohr mag/cell
     absolute magnetization    =     0.00 Bohr mag/cell

     iteration #  6     ecut=    50.00 Ry     beta= 0.30
     Davidson diagonalization with overlap
     ethr =  1.98E-06,  avg # of iterations =  2.0

     negative rho (up, down):  1.347E-06 1.347E-06

     total cpu time spent up to now is      153.6 secs

     total energy              =    -924.12884262 Ry
     estimated scf accuracy    <       0.00074764 Ry

     total magnetization       =    -0.00 Bohr mag/cell
     absolute magnetization    =     0.00 Bohr mag/cell

     iteration #  7     ecut=    50.00 Ry     beta= 0.30
     Davidson diagonalization with overlap
     ethr =  3.76E-07,  avg # of iterations =  4.0

     negative rho (up, down):  1.314E-06 1.314E-06

     total cpu time spent up to now is      155.9 secs

     total energy              =    -924.12899406 Ry
     estimated scf accuracy    <       0.00011191 Ry

     total magnetization       =    -0.00 Bohr mag/cell
     absolute magnetization    =     0.00 Bohr mag/cell

     iteration #  8     ecut=    50.00 Ry     beta= 0.30
     Davidson diagonalization with overlap
     ethr =  5.62E-08,  avg # of iterations =  2.0

     negative rho (up, down):  1.292E-06 1.292E-06

     total cpu time spent up to now is      157.9 secs

     total energy              =    -924.12899942 Ry
     estimated scf accuracy    <       0.00003352 Ry

     total magnetization       =    -0.00 Bohr mag/cell
     absolute magnetization    =     0.00 Bohr mag/cell

     iteration #  9     ecut=    50.00 Ry     beta= 0.30
     Davidson diagonalization with overlap
     ethr =  1.68E-08,  avg # of iterations =  4.0

     negative rho (up, down):  1.281E-06 1.281E-06

     total cpu time spent up to now is      160.2 secs

     total energy              =    -924.12900579 Ry
     estimated scf accuracy    <       0.00000696 Ry

     total magnetization       =    -0.00 Bohr mag/cell
     absolute magnetization    =     0.00 Bohr mag/cell

     iteration # 10     ecut=    50.00 Ry     beta= 0.30
     Davidson diagonalization with overlap
     ethr =  3.50E-09,  avg # of iterations =  2.0

     negative rho (up, down):  1.275E-06 1.275E-06

     total cpu time spent up to now is      162.3 secs

     total energy              =    -924.12900685 Ry
     estimated scf accuracy    <       0.00000127 Ry

     total magnetization       =     0.00 Bohr mag/cell
     absolute magnetization    =     0.00 Bohr mag/cell

     iteration # 11     ecut=    50.00 Ry     beta= 0.30
     Davidson diagonalization with overlap
     ethr =  6.36E-10,  avg # of iterations =  4.0

     negative rho (up, down):  1.274E-06 1.274E-06

     Magnetic moment per site  (integrated on atomic sphere of radius R)
     atom   1 (R=0.046)  charge=  1.1285  magn=  0.0000
     atom   2 (R=0.046)  charge=  1.2132  magn= -0.0000
     atom   3 (R=0.046)  charge=  1.1913  magn=  0.0000
     atom   4 (R=0.046)  charge=  1.1333  magn=  0.0000
     atom   5 (R=0.046)  charge=  1.2467  magn=  0.0000
     atom   6 (R=0.046)  charge=  1.1903  magn= -0.0000
     atom   7 (R=0.046)  charge=  1.1272  magn=  0.0000
     atom   8 (R=0.046)  charge=  1.2127  magn= -0.0000
     atom   9 (R=0.046)  charge=  1.1900  magn=  0.0000
     atom  10 (R=0.046)  charge=  1.1283  magn=  0.0000
     atom  11 (R=0.046)  charge=  1.2124  magn=  0.0000
     atom  12 (R=0.046)  charge=  1.1906  magn= -0.0000
     atom  13 (R=0.046)  charge=  1.1061  magn= -0.0000
     atom  14 (R=0.046)  charge=  1.1925  magn= -0.0000
     atom  15 (R=0.046)  charge=  1.1475  magn=  0.0000
     atom  16 (R=0.046)  charge=  1.1046  magn= -0.0000
     atom  17 (R=0.046)  charge=  1.1900  magn= -0.0000
     atom  18 (R=0.046)  charge=  1.1488  magn=  0.0000
     atom  19 (R=0.046)  charge=  1.1048  magn= -0.0000
     atom  20 (R=0.046)  charge=  1.1875  magn= -0.0000
     atom  21 (R=0.046)  charge=  1.1452  magn=  0.0000
     atom  22 (R=0.046)  charge=  1.1059  magn= -0.0000
     atom  23 (R=0.046)  charge=  1.1893  magn= -0.0000
     atom  24 (R=0.046)  charge=  1.1475  magn=  0.0000
     atom  25 (R=0.046)  charge=  1.1234  magn=  0.0000
     atom  26 (R=0.046)  charge=  1.2145  magn=  0.0000
     atom  27 (R=0.046)  charge=  1.1750  magn= -0.0000
     atom  28 (R=0.046)  charge=  1.1299  magn=  0.0000
     atom  29 (R=0.046)  charge=  1.2131  magn=  0.0000
     atom  30 (R=0.046)  charge=  1.1882  magn= -0.0000
     atom  31 (R=0.046)  charge=  1.1780  magn=  0.0000
     atom  32 (R=0.046)  charge=  1.2183  magn=  0.0000
     atom  33 (R=0.046)  charge=  1.2046  magn= -0.0000
     atom  34 (R=0.046)  charge=  1.1344  magn=  0.0000
     atom  35 (R=0.046)  charge=  1.2134  magn=  0.0000
     atom  36 (R=0.046)  charge=  1.1860  magn= -0.0000
     atom  37 (R=0.046)  charge=  1.1060  magn= -0.0000
     atom  38 (R=0.046)  charge=  1.1970  magn= -0.0000
     atom  39 (R=0.046)  charge=  1.0508  magn=  0.0000
     atom  40 (R=0.046)  charge=  1.1204  magn=  0.0000
     atom  41 (R=0.046)  charge=  1.1952  magn=  0.0000
     atom  42 (R=0.046)  charge=  1.1519  magn= -0.0000
     atom  43 (R=0.046)  charge=  1.1012  magn= -0.0000
     atom  44 (R=0.046)  charge=  1.1922  magn=  0.0000
     atom  45 (R=0.046)  charge=  1.1416  magn= -0.0000
     atom  46 (R=0.046)  charge=  1.1310  magn= -0.0000
     atom  47 (R=0.046)  charge=  1.1965  magn= -0.0000
     atom  48 (R=0.046)  charge=  1.1565  magn=  0.0000
     atom  49 (R=0.027)  charge=  0.9312  magn= -0.0000
     atom  50 (R=0.027)  charge=  0.1685  magn=  0.0000

     total cpu time spent up to now is      164.6 secs

     End of self-consistent calculation

 ------ SPIN UP ------------


          k = 0.0000 0.0000 0.0000 ( 26858 PWs)   bands (ev):

   -22.4039 -21.8323 -21.0886 -17.8146 -17.6326 -17.5499 -17.4263 -17.3646
   -17.1207 -16.9477 -16.9246 -16.8810 -16.8377 -16.7785 -16.3906 -16.2876
   -16.1256 -15.7198 -15.6473 -15.6065 -15.4215 -15.3020 -14.6757 -14.6460
   -14.4917 -14.1079 -14.0776 -13.9377 -13.6593 -13.1452 -12.7168 -12.5966
   -12.5538 -12.4164 -12.2712 -12.2307 -12.0634 -11.2872 -11.2040 -11.1185
   -11.0728 -10.7352 -10.3184 -10.1469  -9.9538  -9.8777  -9.7446  -9.6334
    -9.5785  -9.5570  -9.4685  -9.3956  -9.0095  -7.6233  -7.2216  -6.9258
    -6.7202  -6.6823  -6.5859  -6.4543  -6.3447  -6.2302  -6.2018  -6.0257
    -5.9753  -5.8048  -5.7447  -5.6875  -5.6329  -5.5982  -5.5869  -5.5775
    -5.5395  -5.5082  -5.4825  -5.2587  -5.2102  -4.9697  -4.8981  -4.7200
    -4.6835  -4.5909  -4.2250  -3.7258  -3.6340  -3.5135  -3.4382  -3.2565
    -3.2206  -3.1412  -3.0695  -3.0348  -2.9946  -2.9452  -2.8325  -2.4821
    -2.2609  -2.1329  -1.8249  -1.4121  -0.4536  -0.2566   0.1194   0.4476
     0.6735   0.8313   1.0499   1.0941   1.1812   1.2038   1.2808   1.3275
     1.7537   2.1020   2.1471   2.1981   2.3142   2.3816   2.5778

 ------ SPIN DOWN ----------


          k = 0.0000 0.0000 0.0000 ( 26858 PWs)   bands (ev):

   -22.4039 -21.8323 -21.0886 -17.8146 -17.6326 -17.5499 -17.4263 -17.3646
   -17.1207 -16.9477 -16.9246 -16.8810 -16.8377 -16.7785 -16.3906 -16.2876
   -16.1256 -15.7198 -15.6473 -15.6065 -15.4215 -15.3020 -14.6757 -14.6460
   -14.4917 -14.1079 -14.0776 -13.9377 -13.6593 -13.1452 -12.7168 -12.5966
   -12.5538 -12.4164 -12.2712 -12.2307 -12.0634 -11.2872 -11.2040 -11.1185
   -11.0728 -10.7352 -10.3184 -10.1469  -9.9538  -9.8777  -9.7446  -9.6334
    -9.5785  -9.5570  -9.4685  -9.3956  -9.0095  -7.6233  -7.2216  -6.9258
    -6.7202  -6.6823  -6.5859  -6.4543  -6.3447  -6.2302  -6.2018  -6.0257
    -5.9753  -5.8048  -5.7447  -5.6875  -5.6329  -5.5982  -5.5869  -5.5775
    -5.5395  -5.5082  -5.4825  -5.2587  -5.2102  -4.9697  -4.8981  -4.7200
    -4.6835  -4.5909  -4.2250  -3.7258  -3.6340  -3.5135  -3.4382  -3.2565
    -3.2206  -3.1412  -3.0695  -3.0348  -2.9946  -2.9452  -2.8325  -2.4821
    -2.2609  -2.1329  -1.8249  -1.4121  -0.4536  -0.2566   0.1194   0.4476
     0.6735   0.8313   1.0499   1.0941   1.1812   1.2038   1.2808   1.3275
     1.7537   2.1020   2.1471   2.1981   2.3142   2.3816   2.5778

     the spin up/dw Fermi energies are    -1.4121   -1.4121 ev

!    total energy              =    -924.12900680 Ry
     estimated scf accuracy    <       0.00000067 Ry
     smearing contrib. (-TS)   =      -0.00005642 Ry
     internal energy E=F+TS    =    -924.12895038 Ry

     The total energy is F=E-TS. E is the sum of the following terms:
     one-electron contribution =   -1292.33250156 Ry
     hartree contribution      =     693.16166806 Ry
     xc contribution           =    -226.43952678 Ry
     ewald contribution        =     207.07784290 Ry
     one-center paw contrib.   =    -305.59643301 Ry

     total magnetization       =    -0.00 Bohr mag/cell
     absolute magnetization    =     0.00 Bohr mag/cell

     convergence has been achieved in  11 iterations

     negative rho (up, down):  1.274E-06 1.274E-06

     Forces acting on atoms (cartesian axes, Ry/au):

     atom    1 type  1   force =     0.00688712   -0.00823587    0.00820627
     atom    2 type  1   force =    -0.02131880    0.02139287   -0.02208027
     atom    3 type  1   force =    -0.02130395    0.01989784   -0.02026096
     atom    4 type  1   force =     0.01262457   -0.00697523   -0.01013351
     atom    5 type  1   force =     0.13906638   -0.13489057   -0.13875242
     atom    6 type  1   force =     0.00547543   -0.00025314   -0.00427243
     atom    7 type  1   force =     0.00993196    0.00835555   -0.00751845
[...]
     absolute magnetization    =     0.01 Bohr mag/cell

     iteration #  7     ecut=    50.00 Ry     beta= 0.30
     Davidson diagonalization with overlap
     ethr =  8.70E-07,  avg # of iterations =  2.0

     negative rho (up, down):  1.430E-06 1.430E-06

     total cpu time spent up to now is     1369.2 secs

     total energy              =    -924.53630817 Ry
     estimated scf accuracy    <       0.00069422 Ry

     total magnetization       =     0.00 Bohr mag/cell
     absolute magnetization    =     0.01 Bohr mag/cell

     iteration #  8     ecut=    50.00 Ry     beta= 0.30
     Davidson diagonalization with overlap
     ethr =  3.49E-07,  avg # of iterations =  1.0

     negative rho (up, down):  1.398E-06 1.398E-06

     total cpu time spent up to now is     1371.1 secs

     total energy              =    -924.53640250 Ry
     estimated scf accuracy    <       0.00006158 Ry

     total magnetization       =     0.00 Bohr mag/cell
     absolute magnetization    =     0.01 Bohr mag/cell

     iteration #  9     ecut=    50.00 Ry     beta= 0.30
     Davidson diagonalization with overlap
     ethr =  3.09E-08,  avg # of iterations =  4.0

     negative rho (up, down):  1.379E-06 1.379E-06

     total cpu time spent up to now is     1373.4 secs

     total energy              =    -924.53641584 Ry
     estimated scf accuracy    <       0.00002273 Ry

     total magnetization       =    -0.00 Bohr mag/cell
     absolute magnetization    =     0.01 Bohr mag/cell

     iteration # 10     ecut=    50.00 Ry     beta= 0.30
     Davidson diagonalization with overlap
     ethr =  1.14E-08,  avg # of iterations =  3.0

     negative rho (up, down):  1.357E-06 1.357E-06

     total cpu time spent up to now is     1375.7 secs

     total energy              =    -924.53642312 Ry
     estimated scf accuracy    <       0.00000138 Ry

     total magnetization       =     0.00 Bohr mag/cell
     absolute magnetization    =     0.01 Bohr mag/cell

     iteration # 11     ecut=    50.00 Ry     beta= 0.30
     Davidson diagonalization with overlap
     ethr =  6.93E-10,  avg # of iterations =  4.0

     negative rho (up, down):  1.347E-06 1.347E-06

     total cpu time spent up to now is     1378.0 secs

     total energy              =    -924.53642491 Ry
     estimated scf accuracy    <       0.00000070 Ry

     total magnetization       =     0.00 Bohr mag/cell
     absolute magnetization    =     0.00 Bohr mag/cell

     iteration # 12     ecut=    50.00 Ry     beta= 0.30
     Davidson diagonalization with overlap
     ethr =  3.50E-10,  avg # of iterations =  2.0

     negative rho (up, down):  1.343E-06 1.343E-06

     total cpu time spent up to now is     1380.2 secs

     total energy              =    -924.53642638 Ry
     estimated scf accuracy    <       0.00000012 Ry

     total magnetization       =     0.00 Bohr mag/cell
     absolute magnetization    =     0.00 Bohr mag/cell

     iteration # 13     ecut=    50.00 Ry     beta= 0.30
     Davidson diagonalization with overlap
     ethr =  5.92E-11,  avg # of iterations =  2.0

     negative rho (up, down):  1.340E-06 1.340E-06

     total cpu time spent up to now is     1382.4 secs

     total energy              =    -924.53642693 Ry
     estimated scf accuracy    <       0.00000002 Ry

     total magnetization       =    -0.00 Bohr mag/cell
     absolute magnetization    =     0.00 Bohr mag/cell

     iteration # 14     ecut=    50.00 Ry     beta= 0.30
     Davidson diagonalization with overlap
     ethr =  7.54E-12,  avg # of iterations =  4.0

     negative rho (up, down):  1.332E-06 1.332E-06

     Magnetic moment per site  (integrated on atomic sphere of radius R)
     atom   1 (R=0.043)  charge=  0.9260  magn=  0.0000
     atom   2 (R=0.043)  charge=  0.9839  magn= -0.0000
     atom   3 (R=0.043)  charge=  0.9784  magn=  0.0000
     atom   4 (R=0.043)  charge=  0.9199  magn=  0.0000
     atom   5 (R=0.043)  charge=  0.9780  magn= -0.0000
     atom   6 (R=0.043)  charge=  0.9744  magn=  0.0000
     atom   7 (R=0.043)  charge=  0.9269  magn= -0.0000
     atom   8 (R=0.043)  charge=  0.9857  magn= -0.0000
     atom   9 (R=0.043)  charge=  0.9798  magn=  0.0000
     atom  10 (R=0.043)  charge=  0.9257  magn=  0.0000
     atom  11 (R=0.043)  charge=  0.9846  magn= -0.0000
     atom  12 (R=0.043)  charge=  0.9786  magn=  0.0000
     atom  13 (R=0.043)  charge=  0.9248  magn=  0.0000
     atom  14 (R=0.043)  charge=  0.9846  magn=  0.0000
     atom  15 (R=0.043)  charge=  0.9781  magn= -0.0000
     atom  16 (R=0.043)  charge=  0.9270  magn=  0.0000
     atom  17 (R=0.043)  charge=  0.9863  magn=  0.0000
     atom  18 (R=0.043)  charge=  0.9813  magn= -0.0000
     atom  19 (R=0.043)  charge=  0.9216  magn= -0.0000
     atom  20 (R=0.043)  charge=  0.9850  magn= -0.0000
     atom  21 (R=0.043)  charge=  0.9810  magn=  0.0000
     atom  22 (R=0.043)  charge=  0.9271  magn= -0.0000
     atom  23 (R=0.043)  charge=  0.9876  magn= -0.0000
     atom  24 (R=0.043)  charge=  0.9816  magn=  0.0000
     atom  25 (R=0.043)  charge=  0.9295  magn= -0.0000
     atom  26 (R=0.043)  charge=  0.9869  magn= -0.0000
     atom  27 (R=0.043)  charge=  0.9808  magn=  0.0000
     atom  28 (R=0.043)  charge=  0.9262  magn= -0.0000
     atom  29 (R=0.043)  charge=  0.9846  magn=  0.0000
     atom  30 (R=0.043)  charge=  0.9782  magn= -0.0000
     atom  31 (R=0.043)  charge=  0.9217  magn=  0.0000
     atom  32 (R=0.043)  charge=  0.9866  magn=  0.0000
     atom  33 (R=0.043)  charge=  0.9800  magn= -0.0000
     atom  34 (R=0.043)  charge=  0.9290  magn=  0.0000
     atom  35 (R=0.043)  charge=  0.9869  magn=  0.0000
     atom  36 (R=0.043)  charge=  0.9806  magn= -0.0000
     atom  37 (R=0.043)  charge=  0.9214  magn= -0.0000
     atom  38 (R=0.043)  charge=  0.9728  magn=  0.0000
     atom  39 (R=0.043)  charge=  0.9361  magn= -0.0000
     atom  40 (R=0.043)  charge=  0.9249  magn= -0.0000
     atom  41 (R=0.043)  charge=  0.9843  magn=  0.0000
     atom  42 (R=0.043)  charge=  0.9787  magn= -0.0000
     atom  43 (R=0.043)  charge=  0.9270  magn=  0.0000
     atom  44 (R=0.043)  charge=  0.9868  magn=  0.0000
     atom  45 (R=0.043)  charge=  0.9800  magn= -0.0000
     atom  46 (R=0.043)  charge=  0.9249  magn=  0.0000
     atom  47 (R=0.043)  charge=  0.9842  magn=  0.0000
     atom  48 (R=0.043)  charge=  0.9782  magn= -0.0000
     atom  49 (R=0.027)  charge=  0.9388  magn= -0.0000
     atom  50 (R=0.027)  charge=  0.2046  magn=  0.0000

     total cpu time spent up to now is     1384.8 secs

     End of self-consistent calculation

 ------ SPIN UP ------------


          k = 0.0000 0.0000 0.0000 ( 26858 PWs)   bands (ev):

   -23.5208 -21.4475 -21.3437 -17.5067 -17.4664 -17.3850 -17.2675 -17.2376
   -17.1288 -16.8895 -16.8463 -16.8244 -16.7611 -16.6888 -16.0688 -16.0227
   -15.9878 -15.8695 -15.8279 -15.7696 -15.5774 -15.4346 -14.5875 -14.5606
   -14.4699 -14.1791 -14.0513 -14.0350 -13.5679 -13.1327 -12.8034 -12.7344
   -12.6553 -12.2013 -12.0482 -12.0211 -12.0087 -11.4384 -11.0275 -10.9931
   -10.9195 -10.7157 -10.6223 -10.2420  -9.8271  -9.7634  -9.5771  -9.4167
    -9.4007  -9.3725  -9.3402  -9.2717  -9.1864  -8.9327  -7.1982  -6.8895
    -6.8023  -6.7213  -6.6910  -6.5253  -6.3554  -6.3483  -6.2250  -6.1408
    -6.0074  -5.8009  -5.7356  -5.6994  -5.6365  -5.5931  -5.5728  -5.5161
    -5.4852  -5.4799  -5.3729  -5.3549  -5.0465  -4.9549  -4.8252  -4.7333
    -4.6840  -4.4253  -4.3930  -4.2402  -3.7597  -3.6858  -3.6599  -3.4236
    -3.3572  -3.3339  -3.1369  -3.1275  -2.9960  -2.9667  -2.9051  -2.5503
    -2.2973  -2.0404  -1.8122  -1.3226  -0.2392  -0.1995  -0.0453   0.6131
     0.6271   0.7462   1.1529   1.1652   1.1919   1.1993   1.4059   1.4884
     1.9761   2.2355   2.3514   2.3781   2.3911   2.4180   2.4853

 ------ SPIN DOWN ----------


          k = 0.0000 0.0000 0.0000 ( 26858 PWs)   bands (ev):

   -23.5208 -21.4475 -21.3436 -17.5067 -17.4664 -17.3850 -17.2675 -17.2376
   -17.1288 -16.8895 -16.8463 -16.8244 -16.7611 -16.6888 -16.0688 -16.0227
   -15.9878 -15.8695 -15.8279 -15.7696 -15.5774 -15.4346 -14.5875 -14.5606
   -14.4699 -14.1791 -14.0513 -14.0350 -13.5679 -13.1327 -12.8034 -12.7344
   -12.6553 -12.2013 -12.0482 -12.0211 -12.0087 -11.4384 -11.0275 -10.9931
   -10.9195 -10.7157 -10.6223 -10.2420  -9.8271  -9.7634  -9.5771  -9.4167
    -9.4007  -9.3725  -9.3402  -9.2717  -9.1864  -8.9327  -7.1983  -6.8895
    -6.8023  -6.7213  -6.6910  -6.5253  -6.3554  -6.3483  -6.2250  -6.1408
    -6.0074  -5.8009  -5.7356  -5.6994  -5.6366  -5.5931  -5.5728  -5.5161
    -5.4852  -5.4799  -5.3729  -5.3549  -5.0465  -4.9549  -4.8252  -4.7333
    -4.6840  -4.4253  -4.3930  -4.2403  -3.7597  -3.6858  -3.6599  -3.4236
    -3.3572  -3.3339  -3.1369  -3.1275  -2.9960  -2.9667  -2.9051  -2.5503
    -2.2972  -2.0404  -1.8122  -1.3225  -0.2392  -0.1995  -0.0453   0.6131
     0.6271   0.7461   1.1529   1.1652   1.1919   1.1993   1.4059   1.4884
     1.9761   2.2355   2.3514   2.3781   2.3911   2.4180   2.4853

     the spin up/dw Fermi energies are    -1.3226   -1.3225 ev

!    total energy              =    -924.53642698 Ry
     estimated scf accuracy    <          4.0E-09 Ry
     smearing contrib. (-TS)   =      -0.00005642 Ry
     internal energy E=F+TS    =    -924.53637056 Ry

     The total energy is F=E-TS. E is the sum of the following terms:
     one-electron contribution =   -1257.27171477 Ry
     hartree contribution      =     675.35582481 Ry
     xc contribution           =    -226.22983450 Ry
     ewald contribution        =     189.15553558 Ry
     one-center paw contrib.   =    -305.54618167 Ry

     total magnetization       =     0.00 Bohr mag/cell
     absolute magnetization    =     0.00 Bohr mag/cell

     convergence has been achieved in  14 iterations

     negative rho (up, down):  1.332E-06 1.332E-06

     Forces acting on atoms (cartesian axes, Ry/au):

     atom    1 type  1   force =    -0.00000597    0.00013395   -0.00002370
     atom    2 type  1   force =    -0.00022088    0.00051193   -0.00032009
     atom    3 type  1   force =     0.00045837   -0.00032070    0.00049158
     atom    4 type  1   force =    -0.00007585   -0.00015640   -0.00008298
     atom    5 type  1   force =    -0.00010478   -0.00001699   -0.00014605
     atom    6 type  1   force =    -0.00020897   -0.00007513   -0.00019342
     atom    7 type  1   force =     0.00010879    0.00005712   -0.00006983
     atom    8 type  1   force =    -0.00085553   -0.00070109    0.00073273
     atom    9 type  1   force =    -0.00001143    0.00035698   -0.00006961
     atom   10 type  1   force =     0.00014575   -0.00020738   -0.00002707
     atom   11 type  1   force =     0.00000283   -0.00031734   -0.00018039
     atom   12 type  1   force =     0.00046777   -0.00000575    0.00033985
     atom   13 type  1   force =     0.00005067    0.00000687    0.00021391
     atom   14 type  1   force =     0.00031647   -0.00011979   -0.00013701
     atom   15 type  1   force =     0.00003090    0.00032189    0.00031982
     atom   16 type  1   force =     0.00000052   -0.00019208   -0.00011089
     atom   17 type  1   force =    -0.00018150   -0.00003997    0.00008274
     atom   18 type  1   force =    -0.00007418   -0.00030834    0.00011785
     atom   19 type  1   force =     0.00011662    0.00027416   -0.00002401
     atom   20 type  1   force =     0.00019358    0.00022595   -0.00012094
     atom   21 type  1   force =    -0.00017586    0.00017997    0.00018659
     atom   22 type  1   force =    -0.00002673   -0.00003051    0.00001281
     atom   23 type  1   force =    -0.00021156    0.00004654   -0.00002739
     atom   24 type  1   force =    -0.00009935    0.00020033    0.00026874
     atom   25 type  1   force =     0.00013086    0.00004688    0.00002065
     atom   26 type  1   force =    -0.00027976    0.00026653   -0.00022765
     atom   27 type  1   force =     0.00029756   -0.00006727    0.00041506
     atom   28 type  1   force =    -0.00006735   -0.00024266   -0.00007910
     atom   29 type  1   force =     0.00000301    0.00001032   -0.00001778
     atom   30 type  1   force =    -0.00008820    0.00039789   -0.00011086
     atom   31 type  1   force =     0.00000635    0.00020284   -0.00000623
     atom   32 type  1   force =     0.00035165    0.00003420   -0.00027453
     atom   33 type  1   force =    -0.00007678   -0.00033974   -0.00001805
     atom   34 type  1   force =     0.00011012   -0.00016942   -0.00019014
     atom   35 type  1   force =    -0.00012380   -0.00023747   -0.00038981
     atom   36 type  1   force =     0.00029958    0.00032934    0.00019017
     atom   37 type  1   force =     0.00003827   -0.00004434   -0.00005723
     atom   38 type  1   force =    -0.00000126    0.00015756   -0.00012661
     atom   39 type  1   force =     0.00010900   -0.00018687   -0.00000348
     atom   40 type  1   force =     0.00001527   -0.00006121   -0.00000700
     atom   41 type  1   force =    -0.00037728    0.00053883   -0.00035610
     atom   42 type  1   force =     0.00047090   -0.00025235    0.00027135
     atom   43 type  1   force =    -0.00011499   -0.00041004    0.00018656
     atom   44 type  1   force =     0.00028726    0.00012353   -0.00040276
     atom   45 type  1   force =    -0.00034122    0.00009519    0.00023307
     atom   46 type  1   force =    -0.00001827   -0.00003105   -0.00007362
     atom   47 type  1   force =    -0.00003248   -0.00013294   -0.00004204
     atom   48 type  1   force =     0.00012504    0.00043667    0.00011149
     atom   49 type  2   force =     0.00025724   -0.00006873   -0.00025902
     atom   50 type  3   force =    -0.00062042   -0.00021991   -0.00001959

     Total force =     0.002961     Total SCF correction =     0.000101
     Energy error            =      1.0E-05 Ry
     Gradient error          =      8.6E-04 Ry/Bohr

     bfgs converged in  52 scf cycles and  48 bfgs steps
     (criteria: energy <  1.0E-04 Ry, force <  1.0E-03 Ry/Bohr)

     End of BFGS Geometry Optimization

     Final energy             =    -924.5364269752 Ry

     File ./pwscf.bfgs deleted, as requested
Begin final coordinates

ATOMIC_POSITIONS (angstrom)
C             6.1801715923        4.6146103041        6.2161287108
C             7.7437959751        3.0581108381        7.7371609773
C             7.0208125351        3.7761188473        7.0395659411
C             4.5654993575        6.3061764688        6.2309749319
C             3.0502623478        7.8970285070        7.7602662343
C             3.7819117940        7.1655380560        7.0261956334
C             6.1768291840        6.2454941767        4.6077560611
C             7.7073660737        7.8178790563        3.0819965693
C             7.0018457338        7.0890858366        3.7845459443
C             4.5559626381        4.6272091141        4.6021515959
C             3.0240813239        3.0865169455        3.0341427578
C             3.7230516279        3.7999625126        3.7596804965
C             6.1802103097        4.6220973915        4.5916016027
C             7.7357035902        3.1048938315        3.0268481524
C             7.0148392814        3.8009837710        3.7481933806
C             4.5571446336        6.2452629513        4.6078393810
C             3.0067847772        7.7962276762        3.0834974439
C             3.7289748986        7.0759622929        3.7770170350
C             4.5713083807        4.5765859650        6.2107121000
C             3.0453980665        3.0120776510        7.7334223187
C             3.7604954649        3.7262556580        7.0203288980
C             6.1867649178        6.2331581570        6.2273985839
C             7.7176097912        7.7719783769        7.7838390634
C             7.0253917456        7.0543027218        7.0576145754
C             0.6601774939       10.1156078883        0.7466009840
C             2.2069996752        8.5959943864        2.3068254531
C             1.4864078173        9.3039888526        1.5999340263
C            10.0866523941        0.7717118033        0.6895231302
C             8.5394982560        2.3259271796        2.2254282662
C             9.2618291111        1.6273070879        1.5076467217
C             0.7230557996        0.6559255900       10.0576891379
C             2.2611223889        2.2069048980        8.5166395601
C             1.5599168375        1.4723780157        9.2190534030
C            10.0457027893       10.1028147842       10.1289624988
C             8.4929754696        8.5706780455        8.5865742813
C             9.1972634308        9.2810536108        9.3071123355
C             0.6614325186       10.0451911582       10.1321220739
C             2.2921342085        8.6871750852        8.5160997825
C             1.3533864389        8.8692159551        9.4561482486
C            10.0903573885        0.7144235978       10.0694378858
C             8.5476111012        2.2591722647        8.5189487339
C             9.2670184440        1.5436472120        9.2223239148
C            10.0427673523       10.1489823836        0.7461500001
C             8.4947605426        8.6228315174        2.2976314896
C             9.2021722164        9.3443512972        1.5900907447
C             0.7067213543        0.7268901873        0.6893929853
C             2.2443361771        2.2878757576        2.2284217627
C             1.5465366639        1.5668612263        1.5088117217
O             0.7700207224        7.7578383434       10.0612005056
H             1.1809273672        6.9567347647        9.6863519642
End final coordinates



     Writing all to output data dir ./pwscf.save/

     init_run     :      2.92s CPU      3.02s WALL (       1 calls)
     electrons    :   1105.05s CPU   1152.23s WALL (      53 calls)
     update_pot   :     93.18s CPU     94.05s WALL (      51 calls)
     forces       :     90.36s CPU     93.67s WALL (      53 calls)

     Called by init_run:
     wfcinit      :      0.69s CPU      0.72s WALL (       1 calls)
     potinit      :      2.36s CPU      2.42s WALL (       2 calls)
     hinit0       :      0.73s CPU      0.74s WALL (       1 calls)

     Called by electrons:
     c_bands      :    603.63s CPU    621.18s WALL (     513 calls)
     sum_band     :    155.02s CPU    159.75s WALL (     513 calls)
     v_of_rho     :    126.97s CPU    130.71s WALL (     551 calls)
     newd         :     59.08s CPU     60.34s WALL (     551 calls)
     PAW_pot      :    185.85s CPU    186.80s WALL (     602 calls)
     mix_rho      :     12.69s CPU     13.58s WALL (     513 calls)

     Called by c_bands:
     init_us_2    :      9.16s CPU      9.33s WALL (    2262 calls)
     init_us_2:cp :      9.14s CPU      9.33s WALL (    2262 calls)
     regterg      :    588.55s CPU    605.73s WALL (    1026 calls)

     Called by *egterg:
     rdiaghg      :     37.92s CPU     38.11s WALL (    3673 calls)
     h_psi        :    335.61s CPU    350.83s WALL (    3809 calls)
     s_psi        :     56.12s CPU     56.46s WALL (    3809 calls)
     g_psi        :      1.18s CPU      1.19s WALL (    2781 calls)

     Called by h_psi:
     h_psi:calbec :     56.23s CPU     57.06s WALL (    3809 calls)
     vloc_psi     :    219.60s CPU    233.61s WALL (    3809 calls)
     add_vuspsi   :     56.71s CPU     57.07s WALL (    3809 calls)

     General routines
     calbec       :     88.92s CPU     90.17s WALL (    5361 calls)
     fft          :     54.41s CPU     60.42s WALL (   12074 calls)
     ffts         :      2.60s CPU      2.98s WALL (    2128 calls)
     fftw         :    228.51s CPU    243.27s WALL (  363542 calls)
     interpolate  :      7.05s CPU      7.84s WALL (    1102 calls)

     Parallel routines

     PWSCF        :  22m 8.65s CPU  23m 8.61s WALL


   This run was terminated on:   2:24:40  25May2025            

=------------------------------------------------------------------------------=
   JOB DONE.
=------------------------------------------------------------------------------=
