ITEM: TIMESTEP
0
ITEM: NUMBER OF ATOMS
163
ITEM: BOX BOUNDS xy xz yz pp pp pp
-6.7755000000000001e+00 1.3552000000000000e+01 -6.7755000000000001e+00
0.0000000000000000e+00 1.1735510246683001e+01 0.0000000000000000e+00
0.0000000000000000e+00 2.2149999999999999e+01 0.0000000000000000e+00
ITEM: ATOMS id type x y z 
8 1 -2.486 5.297 9.849 
87 1 3.001 4.231 10.696 
90 1 2.733 5.481 9.824 
109 1 -2.486 5.297 0.765 
158 1 2.733 5.481 0.79 
161 2 2.733 5.481 8.474 
162 2 3.311 5.326 7.085 
163 3 2.496 5.09 6.622 
11 1 4.24 4.139 20.131 
14 1 3.031 4.094 19.728 
18 1 1.299 5.827 18.554 
33 1 2.266 4.151 20.924 
43 1 4.343 3.96 21.647 
47 1 3.32 5.732 17.88 
52 1 4.24 4.139 12.633 
76 1 2.552 4.924 14.209 
85 1 4.343 3.96 11.117 
89 1 3.32 5.732 14.883 
91 1 1.036 5.037 11.84 
102 1 3.031 4.094 13.035 
105 1 1.299 5.827 14.209 
114 1 2.266 4.151 11.84 
150 1 2.552 4.924 18.554 
156 1 3.001 4.231 22.068 
159 1 1.036 5.037 20.924 
5 1 -5.049 10.63 8.653 
9 1 -3.317 8.897 7.479 
19 1 -1.707 7.414 10.572 
21 1 -2.66 8.795 10.993 
23 1 -3.31 7.532 6.805 
25 1 -4.284 10.573 9.849 
32 1 1.503 6.367 0.79 
36 1 -1.869 7.426 9.056 
38 1 -2.209 6.086 8.653 
54 1 0.3 8.576 10.696 
57 1 1.291 8.001 9.824 
60 1 -1.707 7.414 0.042 
65 1 -3.31 7.532 3.808 
78 1 -1.869 7.426 1.558 
80 1 -2.566 8.842 1.961 
84 1 -4.57 9.799 3.135 
99 1 -3.054 9.687 0.765 
100 1 -2.96 6.142 3.135 
107 1 -5.049 10.63 1.961 
110 1 -3.317 8.897 3.135 
111 1 0.642 5.929 10.696 
113 1 1.503 6.367 9.824 
119 1 -4.284 10.573 0.765 
127 1 -2.209 6.086 1.961 
131 1 -2.318 6.148 10.993 
138 1 1.291 8.001 0.79 
142 1 -2.566 8.842 8.653 
145 1 -4.57 9.799 7.479 
151 1 -5.019 10.493 10.993 
154 1 -3.054 9.687 9.849 
155 1 -2.96 6.142 7.479 
12 1 2.53 7.1 17.202 
17 1 0.468 9.427 20.924 
24 1 -3.52 8.357 11.865 
27 1 -0.31 7.31 21.647 
29 1 0.642 5.929 22.068 
31 1 1.292 7.192 17.88 
44 1 -0.148 7.298 20.131 
46 1 0.191 8.638 19.728 
51 1 -0.31 7.31 11.117 
53 1 2.53 7.1 15.561 
56 1 1.292 7.192 14.883 
63 1 -2.318 6.148 21.771 
66 1 -3.309 6.723 20.899 
70 1 -0.148 7.298 12.633 
72 1 0.548 5.882 13.035 
92 1 0.942 8.582 14.209 
95 1 -5.019 10.493 21.771 
98 1 -4.751 9.243 20.899 
104 1 0.468 9.427 11.84 
116 1 -2.66 8.795 21.771 
118 1 -3.52 8.357 20.899 
122 1 0.191 8.638 13.035 
133 1 -3.309 6.723 11.865 
136 1 0.3 8.576 22.068 
147 1 0.548 5.882 19.728 
153 1 -4.751 9.243 11.865 
160 1 0.942 8.582 18.554 
1 1 7.976 4.694 10.572 
4 1 9.274 4.77 10.993 
20 1 8.034 4.861 9.056 
42 1 9.55 5.41 7.479 
67 1 10.043 4.578 0.765 
77 1 7.976 4.694 0.042 
94 1 8.035 4.861 1.558 
96 1 9.278 4.635 1.961 
121 1 4.688 5.417 10.696 
130 1 9.55 5.41 3.135 
134 1 10.043 4.578 9.849 
152 1 9.278 4.635 8.653 
45 1 4.688 5.417 22.068 
55 1 4.788 5.329 13.035 
106 1 9.274 4.77 21.771 
137 1 4.788 5.329 19.728 
2 1 7.294 10.585 9.056 
3 1 9.004 7.624 6.127 
6 1 8.556 6.347 6.805 
16 1 2.314 8.72 0.79 
22 1 7.166 6.156 8.653 
26 1 7.226 8.565 7.479 
35 1 7.191 10.764 10.572 
37 1 6.846 9.307 10.993 
39 1 8.214 8.992 6.805 
41 1 6.677 7.002 9.849 
48 1 3.775 6.213 0.79 
61 1 7.294 10.585 1.558 
62 1 9.004 7.624 4.487 
64 1 6.747 9.395 1.961 
68 1 7.437 6.931 3.135 
71 1 4.29 8.493 10.696 
74 1 3.567 7.818 9.824 
81 1 8.556 6.347 3.808 
83 1 6.47 8.606 0.765 
93 1 7.191 10.764 0.042 
97 1 8.214 8.992 3.808 
101 1 2.261 9.954 10.696 
103 1 2.314 8.72 9.824 
117 1 7.166 6.156 1.961 
120 1 7.226 8.565 3.135 
123 1 3.775 6.213 9.824 
129 1 6.677 7.002 0.765 
132 1 6.747 9.395 8.653 
135 1 7.437 6.931 7.479 
141 1 7.244 6.231 10.993 
144 1 6.47 8.606 9.849 
148 1 3.567 7.818 0.79 
7 1 9.22 6.004 11.865 
10 1 3.558 10.029 21.647 
13 1 2.261 9.954 22.068 
15 1 2.978 8.376 17.88 
28 1 3.5 9.862 20.131 
30 1 4.369 8.568 19.728 
34 1 4.308 6.159 18.554 
40 1 7.76 8.511 11.865 
49 1 4.857 7.722 20.924 
50 1 1.984 9.314 18.554 
58 1 1.491 10.146 11.84 
59 1 4.097 7.793 14.209 
69 1 3.558 10.029 11.117 
73 1 2.978 8.376 14.883 
75 1 5.064 6.118 11.84 
79 1 7.244 6.231 21.771 
82 1 7.967 6.906 20.899 
86 1 3.5 9.862 12.633 
88 1 2.256 10.089 13.035 
108 1 9.22 6.004 20.899 
112 1 4.369 8.568 13.035 
115 1 4.308 6.159 14.209 
124 1 4.857 7.722 11.84 
125 1 1.984 9.314 14.209 
126 1 6.846 9.307 21.771 
128 1 7.76 8.511 20.899 
139 1 1.491 10.146 20.924 
140 1 4.097 7.793 18.554 
143 1 7.967 6.906 11.865 
146 1 4.29 8.493 22.068 
149 1 5.064 6.118 20.924 
157 1 2.256 10.089 19.728 
ITEM: TIMESTEP
10
ITEM: NUMBER OF ATOMS
163
ITEM: BOX BOUNDS xy xz yz pp pp pp
-6.7755000000000001e+00 1.3552000000000000e+01 -6.7755000000000001e+00
0.0000000000000000e+00 1.1735510246683001e+01 0.0000000000000000e+00
0.0000000000000000e+00 2.2149999999999999e+01 0.0000000000000000e+00
ITEM: ATOMS id type x y z 
8 1 -2.45974 5.40062 9.82197 
87 1 3.03322 4.28459 10.681 
90 1 2.67986 5.52104 9.55395 
109 1 -2.45934 5.40315 0.790811 
158 1 2.65495 5.42714 0.858962 
161 2 2.7125 5.41744 8.50292 
162 2 3.32406 5.32425 7.06077 
163 3 2.49403 5.09265 6.63667 
11 1 4.27514 4.26166 20.1121 
14 1 2.90199 4.13613 19.694 
18 1 1.31184 5.84945 18.5821 
33 1 2.10873 4.27244 20.9251 
43 1 4.27561 4.20875 21.5697 
47 1 3.22915 5.78854 17.8304 
52 1 4.31047 4.22838 12.6912 
76 1 2.44273 4.92096 14.2003 
85 1 4.29976 4.16077 11.1951 
89 1 3.24526 5.78794 14.9206 
91 1 0.944647 5.08352 11.8289 
102 1 2.89409 4.13107 13.0886 
105 1 1.31037 5.8459 14.1821 
114 1 2.12551 4.24028 11.8269 
150 1 2.44 4.90262 18.5798 
156 1 2.98867 4.28084 22.0887 
159 1 0.953436 5.10871 20.9146 
5 1 -4.92705 10.6032 8.62557 
9 1 -3.33643 8.85684 7.5128 
19 1 -1.75573 7.55963 10.5455 
21 1 -2.62529 8.75457 10.9605 
23 1 -3.29409 7.53624 6.81298 
25 1 -4.11769 10.4507 9.8495 
32 1 1.59138 6.36612 0.767257 
36 1 -1.90125 7.55416 9.06167 
38 1 -2.15541 6.22294 8.67166 
54 1 0.292056 8.49782 10.6925 
57 1 1.25724 7.91754 9.77399 
60 1 -1.76169 7.56857 0.0621429 
65 1 -3.29047 7.5366 3.80101 
78 1 -1.89331 7.55421 1.55265 
80 1 -2.55542 8.78431 1.89598 
84 1 -4.44602 9.81857 3.11107 
99 1 -2.96231 9.60965 0.765808 
100 1 -2.92119 6.23776 3.16155 
107 1 -4.9103 10.6018 1.99449 
110 1 -3.33153 8.87489 3.09506 
111 1 0.586174 5.96145 10.7702 
113 1 1.42303 6.50667 9.83089 
119 1 -4.11992 10.4486 0.768 
127 1 -2.15748 6.21721 1.943 
131 1 -2.32181 6.18844 10.9983 
138 1 1.35121 7.97961 0.828702 
142 1 -2.55857 8.78327 8.71089 
145 1 -4.45486 9.82865 7.50264 
151 1 -5.01074 10.4448 11.0239 
154 1 -2.96606 9.61072 9.83294 
155 1 -2.92134 6.2615 7.44435 
12 1 2.57175 7.07674 17.115 
17 1 0.41146 9.32686 20.9153 
24 1 -3.6182 8.36553 11.8467 
27 1 -0.250349 7.19553 21.628 
29 1 0.61171 5.96807 22.0342 
31 1 1.2989 7.1916 17.8739 
44 1 -0.122969 7.16324 20.1511 
46 1 0.129731 8.49055 19.7287 
51 1 -0.269911 7.20881 11.1265 
53 1 2.5817 7.05287 15.6849 
56 1 1.27275 7.17438 14.8815 
63 1 -2.32381 6.18977 21.7668 
66 1 -3.38659 6.74324 20.8477 
70 1 -0.14064 7.17214 12.6316 
72 1 0.529104 5.92832 12.9574 
92 1 0.91441 8.48059 14.2472 
95 1 -5.0248 10.4253 21.736 
98 1 -4.66491 9.29887 20.8109 
104 1 0.411327 9.33355 11.832 
116 1 -2.62484 8.74642 21.8213 
118 1 -3.61103 8.3668 20.9187 
122 1 0.131865 8.50307 13.0467 
133 1 -3.39135 6.74588 11.9192 
136 1 0.313611 8.49799 22.0762 
147 1 0.530654 5.93197 19.8004 
153 1 -4.66124 9.29539 11.95 
160 1 0.906734 8.47432 18.5128 
1 1 7.87042 4.929 10.5077 
4 1 9.1877 4.7728 10.9978 
20 1 7.84827 4.96388 9.0579 
42 1 9.45689 5.43154 7.43819 
67 1 9.98868 4.60407 0.744805 
77 1 7.86896 4.92962 0.104159 
94 1 7.85267 4.95705 1.55317 
96 1 9.16232 4.66174 1.99993 
121 1 4.65686 5.45323 10.6745 
130 1 9.46082 5.43302 3.16434 
134 1 9.98685 4.60389 9.86743 
152 1 9.15926 4.6557 8.62648 
45 1 4.65515 5.4532 22.0643 
55 1 4.82545 5.49622 13.0647 
106 1 9.1867 4.77436 21.7654 
137 1 4.82014 5.47862 19.7001 
2 1 7.25108 10.4624 9.03792 
3 1 8.96421 7.64719 6.03525 
6 1 8.5011 6.40366 6.83979 
16 1 2.35686 8.67482 0.876779 
22 1 7.12765 6.16838 8.66926 
26 1 7.19989 8.38575 7.55013 
35 1 7.24778 10.5198 10.4767 
37 1 6.8773 9.29645 10.9839 
39 1 8.28488 8.93133 6.77614 
41 1 6.70262 7.00359 9.80782 
48 1 3.70234 6.37487 0.843219 
61 1 7.2404 10.4716 1.59757 
62 1 8.94841 7.65799 4.58959 
64 1 6.70999 9.2287 1.99944 
68 1 7.40392 6.99239 3.04696 
71 1 4.32681 8.52921 10.7643 
74 1 3.59166 7.819 9.81497 
81 1 8.51906 6.39508 3.77733 
83 1 6.55169 8.46654 0.78097 
93 1 7.23477 10.546 0.123184 
97 1 8.27697 8.94144 3.85027 
101 1 2.36668 9.90977 10.6268 
103 1 2.44547 8.70708 9.75941 
117 1 7.12169 6.16612 1.94553 
120 1 7.18397 8.38865 3.0625 
123 1 3.78277 6.3394 9.8683 
129 1 6.70277 7.01257 0.797011 
132 1 6.71848 9.24243 8.6108 
135 1 7.41038 6.99281 7.57275 
141 1 7.20618 6.17043 10.9393 
144 1 6.54586 8.46583 9.83302 
148 1 3.60384 7.77804 0.825748 
7 1 9.17727 6.02816 11.9418 
10 1 3.70044 9.78481 21.5751 
13 1 2.34209 9.98064 22.1062 
15 1 2.99424 8.31695 17.8944 
28 1 3.69417 9.7428 20.1257 
30 1 4.40877 8.55426 19.7891 
34 1 4.35305 6.30391 18.6214 
40 1 7.84189 8.34535 11.9395 
49 1 4.80963 7.73942 20.8793 
50 1 2.08967 9.27796 18.518 
58 1 1.56428 10.126 11.8399 
59 1 4.14933 7.76663 14.1275 
69 1 3.71961 9.77556 11.1997 
73 1 3.00556 8.33747 14.8547 
75 1 4.98177 6.28998 11.864 
79 1 7.20551 6.16957 21.8261 
82 1 7.93143 6.92067 20.8541 
86 1 3.67924 9.77245 12.6223 
88 1 2.36809 10.0579 13.0627 
108 1 9.17817 6.02717 20.8233 
112 1 4.40665 8.5696 12.9987 
115 1 4.34838 6.30775 14.1507 
124 1 4.84491 7.72277 11.8737 
125 1 2.08022 9.28749 14.2403 
126 1 6.89655 9.29359 21.7763 
128 1 7.84848 8.3468 20.8183 
139 1 1.54961 10.1334 20.9217 
140 1 4.14612 7.78379 18.6419 
143 1 7.93408 6.9249 11.912 
146 1 4.33573 8.53015 22.0049 
149 1 4.98153 6.2787 20.9141 
157 1 2.37476 10.0614 19.6859 
ITEM: TIMESTEP
20
ITEM: NUMBER OF ATOMS
163
ITEM: BOX BOUNDS xy xz yz pp pp pp
-6.7755000000000001e+00 1.3552000000000000e+01 -6.7755000000000001e+00
0.0000000000000000e+00 1.1735510246683001e+01 0.0000000000000000e+00
0.0000000000000000e+00 2.2149999999999999e+01 0.0000000000000000e+00
ITEM: ATOMS id type x y z 
8 1 -2.44411 5.42112 9.83274 
87 1 2.99614 4.31666 10.6903 
90 1 2.6346 5.51884 9.58219 
109 1 -2.44384 5.42159 0.779135 
158 1 2.65397 5.44155 0.870348 
161 2 2.70904 5.3984 8.47617 
162 2 3.32831 5.32404 7.0539 
163 3 2.49272 5.09277 6.63781 
11 1 4.26545 4.25048 20.0988 
14 1 2.86922 4.15862 19.7037 
18 1 1.29609 5.85858 18.5715 
33 1 2.0874 4.2828 20.9043 
43 1 4.2815 4.23394 21.5459 
47 1 3.24289 5.79619 17.8283 
52 1 4.2725 4.2353 12.6736 
76 1 2.43412 4.92707 14.1888 
85 1 4.27603 4.19539 11.2247 
89 1 3.24574 5.79628 14.9251 
91 1 0.950227 5.0913 11.8456 
102 1 2.88585 4.15745 13.066 
105 1 1.29383 5.86145 14.1849 
114 1 2.11782 4.27122 11.8274 
150 1 2.43179 4.92529 18.5735 
156 1 2.9579 4.29035 22.1096 
159 1 0.94546 5.1198 20.928 
5 1 -4.88853 10.5733 8.62883 
9 1 -3.31648 8.86147 7.49828 
19 1 -1.76583 7.54959 10.5607 
21 1 -2.61952 8.76548 10.9669 
23 1 -3.29718 7.53789 6.81008 
25 1 -4.11178 10.4385 9.83372 
32 1 1.59951 6.36925 0.78084 
36 1 -1.87683 7.57005 9.06324 
38 1 -2.15539 6.24691 8.63856 
54 1 0.281999 8.48697 10.6896 
57 1 1.27015 7.94311 9.74698 
60 1 -1.76725 7.54526 0.0556199 
65 1 -3.30765 7.53449 3.7955 
78 1 -1.86914 7.57119 1.54917 
80 1 -2.54158 8.7967 1.89752 
84 1 -4.45121 9.80075 3.11194 
99 1 -2.96205 9.6049 0.764469 
100 1 -2.92678 6.26933 3.17497 
107 1 -4.89107 10.5707 1.9875 
110 1 -3.31551 8.85942 3.11572 
111 1 0.572688 5.94461 10.7438 
113 1 1.43521 6.45634 9.82038 
119 1 -4.11043 10.4342 0.778475 
127 1 -2.1527 6.24615 1.97214 
131 1 -2.34561 6.23796 11.0136 
138 1 1.37165 7.98516 0.834702 
142 1 -2.54318 8.79655 8.70983 
145 1 -4.45424 9.80485 7.50361 
151 1 -4.97014 10.4323 11.0393 
154 1 -2.96338 9.60287 9.85095 
155 1 -2.93353 6.27515 7.44015 
12 1 2.56014 7.07103 17.1454 
17 1 0.41717 9.30348 20.9065 
24 1 -3.61365 8.35536 11.8593 
27 1 -0.251799 7.18057 21.6368 
29 1 0.599613 5.96202 22.0401 
31 1 1.28812 7.18273 17.8742 
44 1 -0.142341 7.14772 20.1417 
46 1 0.137624 8.47544 19.7135 
51 1 -0.290291 7.20175 11.1543 
53 1 2.55744 7.07034 15.6587 
56 1 1.28637 7.17655 14.8749 
63 1 -2.34486 6.24347 21.7513 
66 1 -3.38862 6.74097 20.8589 
70 1 -0.150204 7.15575 12.6342 
72 1 0.531654 5.91581 12.9571 
92 1 0.919351 8.43713 14.2481 
95 1 -4.97842 10.4261 21.7332 
98 1 -4.67498 9.2778 20.8054 
104 1 0.419342 9.31269 11.8501 
116 1 -2.61883 8.76077 21.7996 
118 1 -3.61355 8.34948 20.9059 
122 1 0.142277 8.47984 13.054 
133 1 -3.39061 6.73939 11.9074 
136 1 0.321743 8.48563 22.0807 
147 1 0.520873 5.92163 19.7881 
153 1 -4.6772 9.27409 11.9492 
160 1 0.914061 8.45074 18.5185 
1 1 7.85491 4.94421 10.5169 
4 1 9.14241 4.7963 11.009 
20 1 7.82416 4.9499 9.06309 
42 1 9.45074 5.45229 7.44509 
67 1 9.95484 4.59614 0.771369 
77 1 7.8517 4.94504 0.0948906 
94 1 7.82399 4.95003 1.55172 
96 1 9.15248 4.67567 2.00328 
121 1 4.65847 5.51144 10.6658 
130 1 9.45328 5.45231 3.16692 
134 1 9.95509 4.59517 9.84172 
152 1 9.1511 4.6761 8.61134 
45 1 4.6489 5.5037 22.0839 
55 1 4.82716 5.53187 13.0709 
106 1 9.14307 4.79851 21.7542 
137 1 4.82776 5.53006 19.6912 
2 1 7.26962 10.4725 9.02178 
3 1 8.97133 7.64932 6.06814 
6 1 8.51511 6.39246 6.81507 
16 1 2.37025 8.69046 0.878953 
22 1 7.07392 6.17992 8.69511 
26 1 7.19815 8.41881 7.53236 
35 1 7.25498 10.493 10.4667 
37 1 6.88491 9.22183 11.0045 
39 1 8.28695 8.93608 6.76126 
41 1 6.70956 6.98892 9.82737 
48 1 3.68825 6.35788 0.849865 
61 1 7.26702 10.4756 1.59784 
62 1 8.96583 7.66097 4.54767 
64 1 6.70343 9.19619 1.99508 
68 1 7.40188 6.96649 3.06008 
71 1 4.35675 8.51559 10.7639 
74 1 3.61413 7.79944 9.80906 
81 1 8.51898 6.39707 3.79693 
83 1 6.55845 8.42224 0.776045 
93 1 7.24334 10.5083 0.143331 
97 1 8.28136 8.93772 3.85393 
101 1 2.41461 9.87033 10.6516 
103 1 2.4389 8.71379 9.7556 
117 1 7.07423 6.18074 1.9191 
120 1 7.19377 8.41597 3.08489 
123 1 3.7842 6.37719 9.86472 
129 1 6.71061 6.98642 0.784135 
132 1 6.7001 9.1976 8.62075 
135 1 7.40231 6.96585 7.55695 
141 1 7.20195 6.21482 10.9486 
144 1 6.54992 8.42216 9.83247 
148 1 3.58784 7.80223 0.829856 
7 1 9.16348 6.03007 11.9531 
10 1 3.68071 9.793 21.5966 
13 1 2.39946 9.92858 22.0734 
15 1 3.02575 8.32069 17.8774 
28 1 3.70873 9.77279 20.1364 
30 1 4.45027 8.54515 19.766 
34 1 4.33213 6.31671 18.6056 
40 1 7.84409 8.36213 11.9324 
49 1 4.83166 7.73083 20.8982 
50 1 2.08249 9.26407 18.5262 
58 1 1.59232 10.1029 11.8308 
59 1 4.14667 7.76976 14.1445 
69 1 3.74578 9.79543 11.1681 
73 1 3.01498 8.32578 14.8673 
75 1 4.98422 6.31462 11.8789 
79 1 7.20259 6.21188 21.8177 
82 1 7.93913 6.91837 20.8612 
86 1 3.70657 9.78018 12.6328 
88 1 2.37279 10.0441 13.0648 
108 1 9.16472 6.03003 20.8142 
112 1 4.45118 8.55428 13.0047 
115 1 4.33458 6.31324 14.1599 
124 1 4.85309 7.73962 11.8726 
125 1 2.08606 9.26371 14.2403 
126 1 6.89356 9.22301 21.7626 
128 1 7.85091 8.36033 20.8298 
139 1 1.5831 10.127 20.9197 
140 1 4.14784 7.76563 18.6213 
143 1 7.94044 6.91943 11.9029 
146 1 4.34236 8.51057 22.0343 
149 1 4.98178 6.30337 20.9031 
157 1 2.38161 10.0392 19.6839 
ITEM: TIMESTEP
30
ITEM: NUMBER OF ATOMS
163
ITEM: BOX BOUNDS xy xz yz pp pp pp
-6.7755000000000001e+00 1.3552000000000000e+01 -6.7755000000000001e+00
0.0000000000000000e+00 1.1735510246683001e+01 0.0000000000000000e+00
0.0000000000000000e+00 2.2149999999999999e+01 0.0000000000000000e+00
ITEM: ATOMS id type x y z 
8 1 -2.46104 5.44935 9.82543 
87 1 2.96358 4.34755 10.6895 
90 1 2.58653 5.52588 9.58142 
109 1 -2.45844 5.4518 0.786542 
158 1 2.63053 5.44857 0.865493 
161 2 2.70188 5.37368 8.47083 
162 2 3.33413 5.32356 7.04247 
163 3 2.49172 5.0933 6.63985 
11 1 4.25161 4.26757 20.1021 
14 1 2.85591 4.18782 19.7024 
18 1 1.28291 5.8421 18.5617 
33 1 2.07381 4.28916 20.9086 
43 1 4.26082 4.27415 21.5294 
47 1 3.22647 5.8282 17.7919 
52 1 4.26013 4.25515 12.6511 
76 1 2.42815 4.93936 14.1909 
85 1 4.23231 4.27238 11.226 
89 1 3.23258 5.81789 14.9375 
91 1 0.935866 5.1221 11.8314 
102 1 2.86681 4.17983 13.0623 
105 1 1.27365 5.84962 14.194 
114 1 2.09778 4.28936 11.8302 
150 1 2.41232 4.94523 18.5735 
156 1 2.93235 4.31296 22.1194 
159 1 0.927625 5.1356 20.9292 
5 1 -4.87723 10.5402 8.63445 
9 1 -3.29519 8.87566 7.48273 
19 1 -1.77097 7.56079 10.5691 
21 1 -2.60587 8.76806 10.982 
23 1 -3.29147 7.5386 6.81392 
25 1 -4.08939 10.4363 9.82928 
32 1 1.59547 6.37903 0.804607 
36 1 -1.85512 7.59262 9.06253 
38 1 -2.15666 6.26524 8.63973 
54 1 0.299191 8.45893 10.6798 
57 1 1.27521 7.92142 9.73614 
60 1 -1.76743 7.55493 0.0469239 
65 1 -3.28917 7.53631 3.80042 
78 1 -1.85044 7.59304 1.55138 
80 1 -2.51074 8.80524 1.90582 
84 1 -4.43585 9.79047 3.11874 
99 1 -2.94573 9.58406 0.755147 
100 1 -2.93715 6.29311 3.17055 
107 1 -4.87476 10.5425 1.9792 
110 1 -3.29898 8.87279 3.12566 
111 1 0.548643 5.92952 10.7092 
113 1 1.42959 6.44629 9.81823 
119 1 -4.09094 10.4328 0.78673 
127 1 -2.15448 6.26571 1.97422 
131 1 -2.3605 6.25875 11.0085 
138 1 1.3857 7.97717 0.827652 
142 1 -2.51067 8.80482 8.7096 
145 1 -4.43328 9.78467 7.49553 
151 1 -4.9533 10.4144 11.0483 
154 1 -2.94864 9.58783 9.85808 
155 1 -2.93892 6.29366 7.44186 
12 1 2.55582 7.07578 17.1863 
17 1 0.445351 9.27916 20.8987 
24 1 -3.61688 8.34238 11.8824 
27 1 -0.249062 7.16698 21.6402 
29 1 0.583496 5.95962 22.0566 
31 1 1.2862 7.17654 17.8417 
44 1 -0.163909 7.12981 20.1385 
46 1 0.138101 8.45355 19.7187 
51 1 -0.297785 7.19335 11.1617 
53 1 2.55683 7.0784 15.6783 
56 1 1.28234 7.17348 14.8754 
63 1 -2.35522 6.26192 21.7558 
66 1 -3.40854 6.75001 20.855 
70 1 -0.173133 7.12848 12.6432 
72 1 0.511086 5.90626 12.9716 
92 1 0.930247 8.41683 14.2487 
95 1 -4.95083 10.4133 21.7115 
98 1 -4.64958 9.27201 20.8294 
104 1 0.440633 9.27416 11.8589 
116 1 -2.60139 8.7682 21.7838 
118 1 -3.61615 8.34917 20.88 
122 1 0.143723 8.45726 13.0513 
133 1 -3.41002 6.74839 11.91 
136 1 0.343173 8.46162 22.0907 
147 1 0.494552 5.91035 19.7867 
153 1 -4.64875 9.27896 11.9436 
160 1 0.919424 8.44076 18.5199 
1 1 7.81358 4.97053 10.5126 
4 1 9.12023 4.83456 11.0097 
20 1 7.77762 4.94746 9.06318 
42 1 9.44236 5.47448 7.4431 
67 1 9.93125 4.61676 0.789329 
77 1 7.81135 4.966 0.0997255 
94 1 7.77954 4.9474 1.55161 
96 1 9.13027 4.70743 1.9928 
121 1 4.66387 5.57364 10.6641 
130 1 9.44295 5.47771 3.17032 
134 1 9.92994 4.6162 9.82477 
152 1 9.13008 4.70585 8.62066 
45 1 4.62672 5.54663 22.0851 
55 1 4.81932 5.55417 13.0739 
106 1 9.11822 4.83646 21.755 
137 1 4.81492 5.55924 19.6867 
2 1 7.28045 10.462 9.0282 
3 1 8.96247 7.65742 6.07806 
6 1 8.50557 6.39377 6.80513 
16 1 2.37074 8.7143 0.880977 
22 1 7.05216 6.16757 8.68364 
26 1 7.19627 8.40527 7.5233 
35 1 7.28032 10.4459 10.4589 
37 1 6.9066 9.17785 11.0141 
39 1 8.29328 8.92175 6.74665 
41 1 6.68789 6.97669 9.83266 
48 1 3.69751 6.35768 0.863793 
61 1 7.27634 10.4647 1.56962 
62 1 8.96286 7.65319 4.53064 
64 1 6.71553 9.16813 1.99835 
68 1 7.37356 6.95148 3.06646 
71 1 4.36226 8.54347 10.7706 
74 1 3.64294 7.79772 9.80298 
81 1 8.50243 6.39197 3.8107 
83 1 6.5603 8.37778 0.80587 
93 1 7.28321 10.4385 0.156659 
97 1 8.29766 8.92031 3.86844 
101 1 2.45958 9.83139 10.6536 
103 1 2.45444 8.70145 9.77126 
117 1 7.05284 6.16673 1.93089 
120 1 7.19632 8.4062 3.09308 
123 1 3.77574 6.39031 9.86018 
129 1 6.68743 6.97478 0.779925 
132 1 6.71538 9.17122 8.61928 
135 1 7.377 6.9509 7.54714 
141 1 7.19757 6.20218 10.9698 
144 1 6.54153 8.38207 9.81635 
148 1 3.59317 7.80896 0.827439 
7 1 9.16054 6.01256 11.9587 
10 1 3.72697 9.75424 21.5832 
13 1 2.4107 9.88311 22.0823 
15 1 3.03438 8.3136 17.839 
28 1 3.75321 9.77562 20.143 
30 1 4.4851 8.55181 19.758 
34 1 4.33122 6.32888 18.5967 
40 1 7.83258 8.36395 11.937 
49 1 4.84588 7.75651 20.9088 
50 1 2.09687 9.23191 18.527 
58 1 1.6104 10.0737 11.8463 
59 1 4.15806 7.78052 14.1582 
69 1 3.81107 9.79813 11.1641 
73 1 3.02803 8.3216 14.8868 
75 1 4.99313 6.33674 11.8971 
79 1 7.1995 6.20255 21.7905 
82 1 7.93909 6.91689 20.8548 
86 1 3.75487 9.7765 12.6262 
88 1 2.39089 10.0041 13.0532 
108 1 9.16018 6.01573 20.8081 
112 1 4.48048 8.56693 13.0208 
115 1 4.32991 6.32252 14.1763 
124 1 4.87161 7.76338 11.8658 
125 1 2.10023 9.24378 14.2359 
126 1 6.89914 9.18659 21.7492 
128 1 7.83095 8.36941 20.8276 
139 1 1.59933 10.1011 20.8986 
140 1 4.16926 7.77153 18.6177 
143 1 7.93832 6.91566 11.9102 
146 1 4.34234 8.52149 22.051 
149 1 4.98385 6.33815 20.89 
157 1 2.40072 10.0079 19.6851 
ITEM: TIMESTEP
40
ITEM: NUMBER OF ATOMS
163
ITEM: BOX BOUNDS xy xz yz pp pp pp
-6.7755000000000001e+00 1.3552000000000000e+01 -6.7755000000000001e+00
0.0000000000000000e+00 1.1735510246683001e+01 0.0000000000000000e+00
0.0000000000000000e+00 2.2149999999999999e+01 0.0000000000000000e+00
ITEM: ATOMS id type x y z 
8 1 -2.47153 5.46181 9.82405 
87 1 2.94524 4.37688 10.6804 
90 1 2.59698 5.52623 9.57008 
109 1 -2.46876 5.46419 0.787504 
158 1 2.63223 5.45067 0.8842 
161 2 2.69692 5.35731 8.46941 
162 2 3.33817 5.32333 7.03446 
163 3 2.49104 5.09367 6.64063 
11 1 4.24518 4.28863 20.0892 
14 1 2.84891 4.19246 19.7089 
18 1 1.27356 5.85369 18.5549 
33 1 2.06142 4.29854 20.911 
43 1 4.24985 4.28738 21.5318 
47 1 3.22246 5.81135 17.8053 
52 1 4.24726 4.27893 12.6647 
76 1 2.41787 4.94177 14.1956 
85 1 4.22924 4.29015 11.2191 
89 1 3.23012 5.81217 14.9399 
91 1 0.920118 5.12472 11.8331 
102 1 2.86288 4.18766 13.0582 
105 1 1.26804 5.84694 14.2046 
114 1 2.08416 4.3004 11.8266 
150 1 2.40455 4.9401 18.5653 
156 1 2.93087 4.31792 22.1156 
159 1 0.915836 5.1365 20.9319 
5 1 -4.86661 10.5377 8.63587 
9 1 -3.28544 8.87011 7.4798 
19 1 -1.768 7.56984 10.5666 
21 1 -2.60402 8.76912 10.9912 
23 1 -3.29561 7.53771 6.8122 
25 1 -4.08006 10.4257 9.83947 
32 1 1.57924 6.38385 0.814618 
36 1 -1.84262 7.60013 9.06217 
38 1 -2.15076 6.28118 8.63942 
54 1 0.305017 8.4498 10.6816 
57 1 1.28205 7.91449 9.7296 
60 1 -1.76441 7.56741 0.0488809 
65 1 -3.29628 7.53839 3.80018 
78 1 -1.83749 7.60195 1.55185 
80 1 -2.50078 8.81583 1.91041 
84 1 -4.42604 9.7932 3.12011 
99 1 -2.9348 9.58484 0.759612 
100 1 -2.93187 6.28982 3.1679 
107 1 -4.86921 10.537 1.97812 
110 1 -3.28825 8.86822 3.13192 
111 1 0.522225 5.93382 10.7027 
113 1 1.40669 6.45187 9.80773 
119 1 -4.08127 10.4229 0.773407 
127 1 -2.14763 6.28029 1.97282 
131 1 -2.37122 6.26829 11.0094 
138 1 1.39229 7.9751 0.837885 
142 1 -2.50349 8.81654 8.70133 
145 1 -4.42527 9.79323 7.49261 
151 1 -4.94728 10.4052 11.0427 
154 1 -2.93653 9.58654 9.85496 
155 1 -2.93324 6.29169 7.44566 
12 1 2.56005 7.07193 17.1742 
17 1 0.448935 9.25943 20.9023 
24 1 -3.59928 8.34144 11.8926 
27 1 -0.253011 7.158 21.6375 
29 1 0.580915 5.95736 22.0641 
31 1 1.28202 7.18866 17.8502 
44 1 -0.176696 7.11637 20.1373 
46 1 0.132734 8.44019 19.7177 
51 1 -0.296664 7.17335 11.1599 
53 1 2.55898 7.07441 15.6664 
56 1 1.28199 7.17193 14.88 
63 1 -2.36517 6.27162 21.7534 
66 1 -3.4095 6.74819 20.8506 
70 1 -0.187664 7.12037 12.6473 
72 1 0.495156 5.89789 12.9766 
92 1 0.926417 8.41783 14.2443 
95 1 -4.94806 10.4059 21.7235 
98 1 -4.65178 9.27549 20.8018 
104 1 0.452008 9.25394 11.8529 
116 1 -2.59898 8.76379 21.7725 
118 1 -3.59732 8.33948 20.8725 
122 1 0.139544 8.44174 13.0548 
133 1 -3.41264 6.74696 11.9154 
136 1 0.345304 8.45439 22.0834 
147 1 0.486835 5.90481 19.7734 
153 1 -4.6517 9.27188 11.9637 
160 1 0.909683 8.44151 18.5189 
1 1 7.80251 4.96262 10.5131 
4 1 9.10236 4.83114 10.9996 
20 1 7.76029 4.94384 9.05649 
42 1 9.4359 5.47716 7.44721 
67 1 9.92389 4.63594 0.782364 
77 1 7.79904 4.9594 0.0995323 
94 1 7.76105 4.9437 1.55674 
96 1 9.10423 4.71763 1.99919 
121 1 4.64973 5.5885 10.6623 
130 1 9.43573 5.47822 3.16561 
134 1 9.92105 4.63449 9.83084 
152 1 9.10346 4.71592 8.61461 
45 1 4.61653 5.55953 22.0783 
55 1 4.81545 5.56164 13.0815 
106 1 9.10268 4.8341 21.7649 
137 1 4.80976 5.56815 19.6827 
2 1 7.2868 10.4392 9.01842 
3 1 8.96208 7.65754 6.07146 
6 1 8.501 6.39559 6.80818 
16 1 2.38139 8.70616 0.893086 
22 1 7.02751 6.16225 8.67847 
26 1 7.20175 8.3925 7.5135 
35 1 7.28372 10.4397 10.4584 
37 1 6.91845 9.16618 11.0052 
39 1 8.30221 8.92832 6.75525 
41 1 6.67271 6.9547 9.82953 
48 1 3.67962 6.36791 0.877788 
61 1 7.28725 10.44 1.59785 
62 1 8.9623 7.65706 4.53978 
64 1 6.72 9.16355 2.00308 
68 1 7.36519 6.94443 3.07919 
71 1 4.39182 8.53358 10.7595 
74 1 3.65258 7.80631 9.7932 
81 1 8.49936 6.39493 3.80489 
83 1 6.5592 8.38183 0.79173 
93 1 7.28217 10.4429 0.152211 
97 1 8.3017 8.92909 3.86034 
101 1 2.47182 9.8315 10.6666 
103 1 2.46421 8.6899 9.76571 
117 1 7.02775 6.16096 1.93496 
120 1 7.20076 8.3929 3.10256 
123 1 3.7601 6.39144 9.8473 
129 1 6.67346 6.9511 0.782895 
132 1 6.71663 9.16172 8.61442 
135 1 7.36523 6.94404 7.53667 
141 1 7.17789 6.20718 10.9735 
144 1 6.53998 8.38188 9.8222 
148 1 3.59625 7.81459 0.84533 
7 1 9.14934 6.01594 11.9707 
10 1 3.73342 9.76277 21.5877 
13 1 2.43291 9.89074 22.0692 
15 1 3.03643 8.31165 17.8473 
28 1 3.77456 9.77429 20.1277 
30 1 4.50616 8.5599 19.7514 
34 1 4.32799 6.34128 18.5858 
40 1 7.85316 8.35657 11.956 
49 1 4.86477 7.76953 20.9051 
50 1 2.10198 9.22983 18.5281 
58 1 1.62764 10.0509 11.8329 
59 1 4.17062 7.78546 14.1661 
69 1 3.8285 9.82874 11.1667 
73 1 3.03037 8.32396 14.8921 
75 1 5.00086 6.35198 11.8994 
79 1 7.17689 6.20539 21.7895 
82 1 7.93492 6.907 20.8407 
86 1 3.77184 9.78048 12.6391 
88 1 2.42597 9.99024 13.0551 
108 1 9.15033 6.01775 20.7966 
112 1 4.50176 8.57515 13.0322 
115 1 4.33019 6.3337 14.1833 
124 1 4.89175 7.77616 11.8796 
125 1 2.10647 9.23592 14.2365 
126 1 6.92045 9.16446 21.7579 
128 1 7.85372 8.35648 20.8087 
139 1 1.61221 10.0857 20.9032 
140 1 4.1789 7.78098 18.6083 
143 1 7.9345 6.90799 11.9239 
146 1 4.36278 8.51919 22.0518 
149 1 4.98179 6.34566 20.8934 
157 1 2.42922 9.99627 19.6812 
ITEM: TIMESTEP
50
ITEM: NUMBER OF ATOMS
163
ITEM: BOX BOUNDS xy xz yz pp pp pp
-6.7755000000000001e+00 1.3552000000000000e+01 -6.7755000000000001e+00
0.0000000000000000e+00 1.1735510246683001e+01 0.0000000000000000e+00
0.0000000000000000e+00 2.2149999999999999e+01 0.0000000000000000e+00
ITEM: ATOMS id type x y z 
8 1 -2.48083 5.47401 9.82307 
87 1 2.9389 4.39247 10.6784 
90 1 2.58387 5.53327 9.5625 
109 1 -2.47668 5.47672 0.788885 
158 1 2.62427 5.45489 0.891565 
161 2 2.69258 5.34257 8.46482 
162 2 3.34141 5.32312 7.02746 
163 3 2.49062 5.09399 6.64069 
11 1 4.23782 4.30024 20.0901 
14 1 2.83839 4.19915 19.7081 
18 1 1.26679 5.85353 18.5518 
33 1 2.05757 4.30364 20.913 
43 1 4.24262 4.30136 21.5266 
47 1 3.2181 5.81358 17.8043 
52 1 4.24001 4.29262 12.6615 
76 1 2.41038 4.93926 14.1977 
85 1 4.21785 4.30585 11.2209 
89 1 3.22526 5.81415 14.9389 
91 1 0.904962 5.13012 11.8306 
102 1 2.85353 4.19505 13.0554 
105 1 1.26275 5.84729 14.2081 
114 1 2.07344 4.30896 11.8259 
150 1 2.39466 4.94206 18.564 
156 1 2.92276 4.32808 22.1185 
159 1 0.906266 5.13734 20.933 
5 1 -4.85848 10.5323 8.63802 
9 1 -3.27967 8.87226 7.47783 
19 1 -1.76854 7.57594 10.5661 
21 1 -2.59915 8.77046 10.9938 
23 1 -3.29743 7.53678 6.81157 
25 1 -4.07533 10.422 9.83991 
32 1 1.57572 6.38306 0.82434 
36 1 -1.83449 7.61079 9.05914 
38 1 -2.14819 6.28746 8.64103 
54 1 0.309948 8.4372 10.6781 
57 1 1.28425 7.91185 9.72632 
60 1 -1.76302 7.57221 0.0495341 
65 1 -3.29759 7.53549 3.79976 
78 1 -1.82862 7.61099 1.55414 
80 1 -2.49007 8.81953 1.91558 
84 1 -4.41511 9.79215 3.12264 
99 1 -2.92484 9.58342 0.754377 
100 1 -2.93149 6.28991 3.16629 
107 1 -4.85881 10.5324 1.97582 
110 1 -3.28133 8.87051 3.13304 
111 1 0.509697 5.92537 10.6971 
113 1 1.3999 6.4477 9.80007 
119 1 -4.0754 10.4192 0.773853 
127 1 -2.14581 6.28783 1.97143 
131 1 -2.37995 6.2756 11.0092 
138 1 1.39581 7.97447 0.841372 
142 1 -2.4914 8.81937 8.69767 
145 1 -4.41443 9.79202 7.49097 
151 1 -4.94072 10.3961 11.0467 
154 1 -2.92647 9.586 9.85869 
155 1 -2.93401 6.29083 7.44598 
12 1 2.55891 7.0692 17.1772 
17 1 0.458173 9.24831 20.8993 
24 1 -3.59613 8.34075 11.9031 
27 1 -0.253984 7.15108 21.6371 
29 1 0.575691 5.95701 22.0663 
31 1 1.28302 7.19055 17.8473 
44 1 -0.1864 7.10827 20.1334 
46 1 0.131018 8.43233 19.7195 
51 1 -0.298321 7.16683 11.1621 
53 1 2.56088 7.07028 15.6713 
56 1 1.2854 7.1729 14.8816 
63 1 -2.3728 6.27984 21.753 
66 1 -3.41448 6.75073 20.8462 
70 1 -0.197561 7.11128 12.6503 
72 1 0.484145 5.89333 12.9852 
92 1 0.926341 8.41833 14.243 
95 1 -4.93975 10.3965 21.7171 
98 1 -4.64306 9.26876 20.7962 
104 1 0.463054 9.24013 11.8543 
116 1 -2.59376 8.7666 21.7709 
118 1 -3.59477 8.3409 20.8623 
122 1 0.137643 8.43324 13.0527 
133 1 -3.41837 6.74862 11.9205 
136 1 0.354357 8.44433 22.0858 
147 1 0.477097 5.90088 19.7712 
153 1 -4.64418 9.26907 11.9704 
160 1 0.907216 8.44405 18.5192 
1 1 7.78789 4.96381 10.5095 
4 1 9.09138 4.83834 10.9995 
20 1 7.74197 4.94376 9.0566 
42 1 9.4327 5.48307 7.45002 
67 1 9.91159 4.64877 0.786579 
77 1 7.78525 4.96055 0.102735 
94 1 7.74273 4.94308 1.55669 
96 1 9.09288 4.72394 1.99658 
121 1 4.64044 5.60444 10.6628 
130 1 9.43304 5.48287 3.16266 
134 1 9.90855 4.64706 9.82683 
152 1 9.0922 4.72252 8.6155 
45 1 4.60494 5.57094 22.0789 
55 1 4.81431 5.57458 13.0836 
106 1 9.09106 4.84086 21.7657 
137 1 4.80807 5.5804 19.6801 
2 1 7.29431 10.4272 9.01927 
3 1 8.96018 7.66006 6.07376 
6 1 8.49686 6.39834 6.80666 
16 1 2.38672 8.70982 0.894831 
22 1 7.01116 6.1568 8.67089 
26 1 7.20278 8.38591 7.51051 
35 1 7.29242 10.4245 10.4557 
37 1 6.92802 9.15417 11.0055 
39 1 8.30714 8.92658 6.75669 
41 1 6.66067 6.95009 9.82782 
48 1 3.6745 6.37385 0.883654 
61 1 7.29382 10.4296 1.59274 
62 1 8.95966 7.66022 4.54042 
64 1 6.72189 9.15048 2.0041 
68 1 7.35455 6.93732 3.08097 
71 1 4.40466 8.54246 10.7621 
74 1 3.66333 7.81102 9.7929 
81 1 8.49609 6.39782 3.80653 
83 1 6.56199 8.36782 0.798278 
93 1 7.29173 10.4252 0.156933 
97 1 8.30759 8.92754 3.85839 
101 1 2.49354 9.81894 10.6706 
103 1 2.47004 8.6884 9.76271 
117 1 7.01154 6.15601 1.94339 
120 1 7.20183 8.3857 3.10698 
123 1 3.75908 6.40266 9.84186 
129 1 6.66112 6.94706 0.785007 
132 1 6.71915 9.14922 8.61194 
135 1 7.35521 6.93761 7.53314 
141 1 7.17062 6.20545 10.9771 
144 1 6.54062 8.37034 9.81909 
148 1 3.60149 7.82065 0.850586 
7 1 9.14437 6.01275 11.9747 
10 1 3.74809 9.76065 21.5807 
13 1 2.44252 9.88189 22.0692 
15 1 3.041 8.31065 17.8448 
28 1 3.79194 9.77586 20.1291 
30 1 4.5255 8.56399 19.7441 