LAMMPS (3 Mar 2020)
# Alpha
clear
units		real
dimension 3
boundary        p p p
atom_style	charge
newton on
read_data       OOH_32.lmp
  triclinic box = (0 0 0) to (13.552 11.7355 22.15) with tilt (-6.7755 0 0)
  2 by 2 by 2 MPI processor grid
  reading atoms ...
  163 atoms
  read_data CPU = 0.0160944 secs

timestep 0.25

# ---------- Define Interatomic Potential ---------------------
pair_style      reax/c NULL checkqeq no
pair_coeff      * * ffield.reax C H O
fix             2 all qeq/reax 1 0.0 10.0 1.0e-6 reax/c

#------------ Equilibration of the system -------------------------
reset_timestep 0

dump 1 all custom 10 min.lammpstrj id type x y z

minimize 1.0e-8 1.0e-8 100000 100000
WARNING: Using 'neigh_modify every 1 delay 0 check yes' setting during minimization (../min.cpp:190)
WARNING: Total cutoff < 2*bond cutoff. May need to use an increased neighbor list skin. (../pair_reaxc.cpp:413)
Neighbor list info ...
  update every 1 steps, delay 0 steps, check yes
  max neighbors/atom: 2000, page size: 100000
  master list distance cutoff = 9.5
  ghost atom cutoff = 9.5
  binsize = 4.75, bins = 5 3 5
  2 neighbor lists, perpetual/occasional/extra = 2 0 0
  (1) pair reax/c, perpetual
      attributes: half, newton off, ghost
      pair build: half/bin/newtoff/ghost
      stencil: half/ghost/bin/3d/newtoff
      bin: standard
  (2) fix qeq/reax, perpetual, copy from (1)
      attributes: half, newton off, ghost
      pair build: copy
      stencil: none
      bin: none
Per MPI rank memory allocation (min/avg/max) = 22.56 | 23.58 | 24.57 Mbytes
Step Temp E_pair E_mol TotEng Press 
       0            0   -25615.626            0   -25615.626    83934.959 
     223            0   -29247.668            0   -29247.668      31914.3 
Loop time of 11.5554 on 8 procs for 223 steps with 163 atoms

99.1% CPU use with 8 MPI tasks x no OpenMP threads

Minimization stats:
  Stopping criterion = energy tolerance
  Energy initial, next-to-last, final = 
        -25615.6264342     -29247.6678683      -29247.667895
  Force two-norm initial, final = 4595.87 166.135
  Force max component initial, final = 518.019 63.9953
  Final line search alpha, max atom move = 0.000350745 0.0224461
  Iterations, force evaluations = 223 1430

MPI task timing breakdown:
Section |  min time  |  avg time  |  max time  |%varavg| %total
---------------------------------------------------------------
Pair    | 8.5294     | 8.9914     | 9.4021     |  10.9 | 77.81
Neigh   | 0          | 0          | 0          |   0.0 |  0.00
Comm    | 0.068175   | 0.47845    | 0.93891    |  47.0 |  4.14
Output  | 0.0011691  | 0.0014957  | 0.0021991  |   0.9 |  0.01
Modify  | 2.0664     | 2.0674     | 2.069      |   0.1 | 17.89
Other   |            | 0.01673    |            |       |  0.14

Nlocal:    20.375 ave 32 max 4 min
Histogram: 2 0 1 0 0 1 0 0 1 3
Nghost:    852.125 ave 899 max 794 min
Histogram: 1 0 2 1 0 0 0 0 2 2
Neighs:    2828.38 ave 4384 max 598 min
Histogram: 2 0 0 1 0 0 1 0 1 3

Total # of neighbors = 22627
Ave neighs/atom = 138.816
Neighbor list builds = 0
Dangerous builds = 0

###
min_style cg
minimize 1.0e-8 1.0e-8 100000 100000
WARNING: Using 'neigh_modify every 1 delay 0 check yes' setting during minimization (../min.cpp:190)
WARNING: Total cutoff < 2*bond cutoff. May need to use an increased neighbor list skin. (../pair_reaxc.cpp:413)
Per MPI rank memory allocation (min/avg/max) = 22.56 | 23.58 | 24.57 Mbytes
Step Temp E_pair E_mol TotEng Press 
     223            0   -29247.668            0   -29247.668      31914.3 
     248            0   -29259.532            0   -29259.532    53814.028 
Loop time of 1.18649 on 8 procs for 25 steps with 163 atoms

99.1% CPU use with 8 MPI tasks x no OpenMP threads

Minimization stats:
  Stopping criterion = energy tolerance
  Energy initial, next-to-last, final = 
         -29247.667895     -29259.5322868     -29259.5323162
  Force two-norm initial, final = 166.135 519.723
  Force max component initial, final = 63.9953 126.653
  Final line search alpha, max atom move = 7.9379e-05 0.0100536
  Iterations, force evaluations = 25 143

MPI task timing breakdown:
Section |  min time  |  avg time  |  max time  |%varavg| %total
---------------------------------------------------------------
Pair    | 0.89811    | 0.93396    | 0.97379    |   2.9 | 78.72
Neigh   | 0          | 0          | 0          |   0.0 |  0.00
Comm    | 0.0067298  | 0.046441   | 0.082367   |  12.9 |  3.91
Output  | 8.2254e-05 | 9.7364e-05 | 0.00014169 |   0.0 |  0.01
Modify  | 0.20396    | 0.20402    | 0.20415    |   0.0 | 17.20
Other   |            | 0.001967   |            |       |  0.17

Nlocal:    20.375 ave 32 max 4 min
Histogram: 2 0 1 0 0 1 0 0 1 3
Nghost:    883.625 ave 930 max 828 min
Histogram: 1 1 2 0 0 0 0 0 1 3
Neighs:    2821.75 ave 4347 max 592 min
Histogram: 2 0 0 1 0 1 0 0 0 4

Total # of neighbors = 22574
Ave neighs/atom = 138.491
Neighbor list builds = 0
Dangerous builds = 0

###
fix 1 all box/relax aniso 0.0
min_style cg
minimize 1.0e-8 1.0e-8 100000 100000
WARNING: Using 'neigh_modify every 1 delay 0 check yes' setting during minimization (../min.cpp:190)
WARNING: Total cutoff < 2*bond cutoff. May need to use an increased neighbor list skin. (../pair_reaxc.cpp:413)
Per MPI rank memory allocation (min/avg/max) = 22.56 | 23.58 | 24.57 Mbytes
Step Temp E_pair E_mol TotEng Press Volume 
     248            0   -29259.532            0   -29259.532    53814.028    3522.7279 
     318            0   -29275.669            0   -29275.669    -4172.425    3529.3834 
Loop time of 0.946004 on 8 procs for 70 steps with 163 atoms

99.0% CPU use with 8 MPI tasks x no OpenMP threads

Minimization stats:
  Stopping criterion = energy tolerance
  Energy initial, next-to-last, final = 
        -29259.5323162     -29275.6691255     -29275.6691255
  Force two-norm initial, final = 5549.78 621.3
  Force max component initial, final = 4626.84 422.178
  Final line search alpha, max atom move = 3.48434e-14 1.47101e-11
  Iterations, force evaluations = 70 125

MPI task timing breakdown:
Section |  min time  |  avg time  |  max time  |%varavg| %total
---------------------------------------------------------------
Pair    | 0.77462    | 0.8079     | 0.84068    |   2.9 | 85.40
Neigh   | 0          | 0          | 0          |   0.0 |  0.00
Comm    | 0.0055027  | 0.038206   | 0.071462   |  13.1 |  4.04
Output  | 0.00028418 | 0.00033405 | 0.00047165 |   0.0 |  0.04
Modify  | 0.095537   | 0.095575   | 0.095665   |   0.0 | 10.10
Other   |            | 0.003987   |            |       |  0.42

Nlocal:    20.375 ave 32 max 4 min
Histogram: 2 0 1 0 0 1 0 0 1 3
Nghost:    878.125 ave 931 max 816 min
Histogram: 1 0 2 1 0 0 0 1 2 1
Neighs:    2819.75 ave 4333 max 591 min
Histogram: 2 0 0 1 0 1 0 0 0 4

Total # of neighbors = 22558
Ave neighs/atom = 138.393
Neighbor list builds = 0
Dangerous builds = 0

unfix 1
###
min_style cg
minimize 1.0e-8 1.0e-8 100000 100000
WARNING: Using 'neigh_modify every 1 delay 0 check yes' setting during minimization (../min.cpp:190)
WARNING: Total cutoff < 2*bond cutoff. May need to use an increased neighbor list skin. (../pair_reaxc.cpp:413)
Per MPI rank memory allocation (min/avg/max) = 22.56 | 23.58 | 24.57 Mbytes
Step Temp E_pair E_mol TotEng Press 
     318            0   -29275.669            0   -29275.669    -4172.425 
     460            0   -29312.631            0   -29312.631    33610.309 
Loop time of 8.88828 on 8 procs for 142 steps with 163 atoms

99.2% CPU use with 8 MPI tasks x no OpenMP threads

Minimization stats:
  Stopping criterion = energy tolerance
  Energy initial, next-to-last, final = 
        -29275.6691255     -29312.6307834     -29312.6308898
  Force two-norm initial, final = 400.711 65.9133
  Force max component initial, final = 54.7115 19.3648
  Final line search alpha, max atom move = 0.00109167 0.02114
  Iterations, force evaluations = 142 1090

MPI task timing breakdown:
Section |  min time  |  avg time  |  max time  |%varavg| %total
---------------------------------------------------------------
Pair    | 6.6423     | 7.0263     | 7.3505     |   8.8 | 79.05
Neigh   | 0          | 0          | 0          |   0.0 |  0.00
Comm    | 0.048214   | 0.37179    | 0.75479    |  38.1 |  4.18
Output  | 0.00058808 | 0.00069467 | 0.0010029  |   0.0 |  0.01
Modify  | 1.4764     | 1.4772     | 1.4784     |   0.1 | 16.62
Other   |            | 0.01229    |            |       |  0.14

Nlocal:    20.375 ave 32 max 4 min
Histogram: 2 0 1 0 0 1 0 0 1 3
Nghost:    877.125 ave 931 max 814 min
Histogram: 1 0 2 1 0 0 0 1 2 1
Neighs:    2810.5 ave 4315 max 586 min
Histogram: 2 0 0 1 0 1 0 0 0 4

Total # of neighbors = 22484
Ave neighs/atom = 137.939
Neighbor list builds = 0
Dangerous builds = 0

###
fix 1 all box/relax aniso 0.0
min_style cg
minimize 1.0e-8 1.0e-8 100000 100000
WARNING: Using 'neigh_modify every 1 delay 0 check yes' setting during minimization (../min.cpp:190)
WARNING: Total cutoff < 2*bond cutoff. May need to use an increased neighbor list skin. (../pair_reaxc.cpp:413)
Per MPI rank memory allocation (min/avg/max) = 22.56 | 23.58 | 24.57 Mbytes
Step Temp E_pair E_mol TotEng Press Volume 
     460            0   -29312.631            0   -29312.631    33610.309    3529.3834 
     542            0   -29327.382            0   -29327.382     1445.198    3536.6131 
Loop time of 0.978501 on 8 procs for 82 steps with 163 atoms

99.2% CPU use with 8 MPI tasks x no OpenMP threads

Minimization stats:
  Stopping criterion = linesearch alpha is zero
  Energy initial, next-to-last, final = 
        -29312.6308898     -29327.3821732     -29327.3821732
  Force two-norm initial, final = 3750.73 552.171
  Force max component initial, final = 3240.34 386.795
  Final line search alpha, max atom move = 3.06805e-14 1.18671e-11
  Iterations, force evaluations = 82 130

MPI task timing breakdown:
Section |  min time  |  avg time  |  max time  |%varavg| %total
---------------------------------------------------------------
Pair    | 0.79893    | 0.83517    | 0.87017    |   2.8 | 85.35
Neigh   | 0          | 0          | 0          |   0.0 |  0.00
Comm    | 0.0053257  | 0.040221   | 0.076282   |  12.8 |  4.11
Output  | 0.00031082 | 0.00036241 | 0.00051224 |   0.0 |  0.04
Modify  | 0.098575   | 0.098639   | 0.098749   |   0.0 | 10.08
Other   |            | 0.004108   |            |       |  0.42

Nlocal:    20.375 ave 32 max 4 min
Histogram: 2 0 1 0 1 0 0 0 0 4
Nghost:    877.125 ave 932 max 815 min
Histogram: 1 0 2 1 0 0 0 1 2 1
Neighs:    2812.38 ave 4319 max 587 min
Histogram: 2 0 0 1 0 1 0 0 0 4

Total # of neighbors = 22499
Ave neighs/atom = 138.031
Neighbor list builds = 0
Dangerous builds = 0

unfix 1
###
min_style cg
minimize 1.0e-8 1.0e-8 100000 100000
WARNING: Using 'neigh_modify every 1 delay 0 check yes' setting during minimization (../min.cpp:190)
WARNING: Total cutoff < 2*bond cutoff. May need to use an increased neighbor list skin. (../pair_reaxc.cpp:413)
Per MPI rank memory allocation (min/avg/max) = 22.56 | 23.58 | 24.57 Mbytes
Step Temp E_pair E_mol TotEng Press 
     542            0   -29327.382            0   -29327.382     1445.198 
     549            0   -29330.223            0   -29330.223    32542.959 
Loop time of 0.473357 on 8 procs for 7 steps with 163 atoms

99.2% CPU use with 8 MPI tasks x no OpenMP threads

Minimization stats:
  Stopping criterion = energy tolerance
  Energy initial, next-to-last, final = 
        -29327.3821732     -29330.2226219     -29330.2227484
  Force two-norm initial, final = 310.888 106.079
  Force max component initial, final = 36.6993 22.214
  Final line search alpha, max atom move = 0.00015179 0.00337187
  Iterations, force evaluations = 7 56

MPI task timing breakdown:
Section |  min time  |  avg time  |  max time  |%varavg| %total
---------------------------------------------------------------
Pair    | 0.35167    | 0.36905    | 0.3892     |   2.0 | 77.96
Neigh   | 0          | 0          | 0          |   0.0 |  0.00
Comm    | 0.0024295  | 0.022547   | 0.039883   |   7.9 |  4.76
Output  | 0          | 0          | 0          |   0.0 |  0.00
Modify  | 0.081009   | 0.081042   | 0.081096   |   0.0 | 17.12
Other   |            | 0.0007231  |            |       |  0.15

Nlocal:    20.375 ave 32 max 4 min
Histogram: 2 0 1 0 1 0 0 0 0 4
Nghost:    874.375 ave 934 max 807 min
Histogram: 1 0 2 1 0 0 1 1 1 1
Neighs:    2807.25 ave 4308 max 589 min
Histogram: 2 0 0 1 0 1 0 0 0 4

Total # of neighbors = 22458
Ave neighs/atom = 137.779
Neighbor list builds = 0
Dangerous builds = 0

undump 1
#############
#----------- Thermo ------------
reset_timestep 0
thermo  200

thermo_style    custom step temp etotal ke pe press
velocity all create 300 12345 mom yes rot yes
fix 1 all npt temp 300 300 25.0 iso 0.0 0.0 250.0

variable vpe equal pe
variable vtemp equal temp
variable vstep equal step

fix output all print 2500 "${vstep} ${vtemp} ${vpe}" file temp-tpdh-Pt.dat screen no

dump 1 all custom 2500 thermo-tpdh-Pt.lammpstrj id type x y z

run 1000000
WARNING: Total cutoff < 2*bond cutoff. May need to use an increased neighbor list skin. (../pair_reaxc.cpp:413)
Per MPI rank memory allocation (min/avg/max) = 21.46 | 22.47 | 23.46 Mbytes
Step Temp TotEng KinEng PotEng Press 
       0          300   -29185.355    144.86737   -29330.223    34415.433 
     200    321.76114   -29223.536    155.37563   -29378.912   -297.55764 
     400    346.11669   -29245.353    167.13671    -29412.49    7397.4224 
     600    290.38206   -29273.982    140.22295   -29414.205    35845.651 
     800     291.7965   -29270.254    140.90597    -29411.16    18698.895 
    1000    304.70416   -29238.047    147.13897   -29385.186   -2454.6134 
    1200    282.63305   -29250.611    136.48102   -29387.092    7465.9655 
    1400     303.2813   -29240.309    146.45188   -29386.761   -6788.6498 
    1600    318.49933   -29228.645    153.80053   -29382.446    14314.522 
    1800    274.43897   -29234.676    132.52417     -29367.2   -5709.4584 
    2000    318.37805   -29208.601    153.74197   -29362.343   -1490.0337 
    2200    299.25826   -29223.882    144.50919   -29368.391   -5421.0414 
    2400    282.14511   -29241.579     136.2454   -29377.824    1139.9973 
    2600     265.7563   -29210.885    128.33139   -29339.217    25810.504 
    2800    341.12035   -29188.246    164.72403    -29352.97   -22683.716 
    3000    279.59357   -29217.804    135.01328   -29352.817    3053.9226 
    3200     300.5923   -29199.269    145.15338   -29344.422    39270.401 
    3400    310.89099   -29184.871    150.12653   -29334.998   -5443.5172 
    3600    341.55149   -29160.258    164.93222    -29325.19   -24925.583 
    3800    294.59194   -29202.355    142.25586   -29344.611    3884.2353 
    4000    280.19646   -29213.278    135.30441   -29348.582    12894.641 
    4200    313.23731   -29182.041    151.25955   -29333.301    9270.3549 
    4400    297.81862   -29203.668      143.814   -29347.482   -7262.9215 
    4600    310.94357   -29215.126    150.15192   -29365.278   -7380.3297 
    4800    275.24699   -29214.554    132.91436   -29347.468    7695.0244 
    5000    296.92357   -29212.405    143.38179   -29355.787    19003.813 
    5200    291.41658   -29236.178    140.72251     -29376.9    -26998.15 
    5400    278.32951   -29246.532    134.40288   -29380.935    -6564.826 
    5600    313.54014   -29214.575    151.40579    -29365.98   -28748.931 
    5800    320.26962   -29242.879    154.65539   -29397.535   -868.94059 
    6000     291.7484   -29245.266    140.88275   -29386.149    -4258.379 
    6200    311.89343    -29228.23     150.6106    -29378.84    8998.6673 
    6400    339.50493     -29236.9    163.94395   -29400.844   -7353.5437 
    6600     290.5682   -29268.894    140.31283   -29409.207    525.80189 
    6800    310.82542   -29253.312    150.09487   -29403.407   -15450.594 
    7000    290.72999   -29233.577    140.39096   -29373.968     8001.357 
    7200    312.53195   -29214.905    150.91894   -29365.824   -579.85741 
    7400    334.00194   -29206.963    161.28661   -29368.249   -40518.815 
    7600    329.47992   -29234.108    159.10296   -29393.211    18172.308 
    7800    287.12577   -29248.758    138.65051   -29387.409   -16029.179 
    8000    273.66825   -29273.173      132.152   -29405.325   -24476.249 
    8200    284.73228   -29243.937    137.49472   -29381.431   -19260.483 
    8400    322.52857   -29235.657    155.74622   -29391.403    24940.753 
    8600    269.99393   -29262.701     130.3777   -29393.078   -2468.0294 
    8800    309.78432   -29244.186    149.59213   -29393.778    1879.7689 
    9000    267.27983   -29239.872    129.06708   -29368.939   -20476.198 
    9200    300.81516   -29210.618      145.261   -29355.879   -11592.495 
    9400    315.95648   -29225.649    152.57261   -29378.222   -629.99268 
    9600    300.34624   -29253.783    145.03457   -29398.818   -3855.4403 
    9800    310.59761   -29240.314    149.98486   -29390.299   -17665.398 
   10000    295.83118   -29227.158    142.85428   -29370.013    2412.8991 
   10200    302.99521   -29244.922    146.31373   -29391.236   -45700.761 
   10400    308.95845    -29245.41    149.19332   -29394.603   -20167.575 
   10600    285.76536   -29244.848    137.99359   -29382.842    2891.0952 
   10800    288.18607   -29251.499    139.16253   -29390.662    25291.156 
   11000    255.70713   -29267.644    123.47873   -29391.123    5561.3861 
   11200    312.84665   -29237.405     151.0709   -29388.476   -4345.9233 
   11400    292.22572   -29240.526    141.11324   -29381.639   -8905.5085 
   11600    291.58248   -29251.723    140.80262   -29392.526   -1472.8176 
   11800    289.50545   -29264.645    139.79964   -29404.445    34268.155 
   12000    296.94277   -29237.357    143.39106   -29380.748   -12058.825 
   12200    318.31989   -29226.175    153.71388   -29379.889    24685.171 
   12400      331.162   -29196.723    159.91522   -29356.639   -19317.432 
   12600    320.45119   -29228.255    154.74307   -29382.998   -29665.726 
   12800    304.31023   -29251.887    146.94874   -29398.835   -22014.758 
   13000    270.83822   -29263.065     130.7854   -29393.851    14825.763 
   13200    305.30229   -29233.203     147.4278   -29380.631   -12151.679 
   13400    327.01475   -29224.736    157.91256   -29382.648    41344.512 
   13600    332.10182   -29225.604    160.36906   -29385.973     2244.338 
   13800    298.16486   -29253.729    143.98119   -29397.711   -22494.541 
   14000    325.82556   -29227.103     157.3383   -29384.442   -14048.976 
   14200    312.63731   -29219.034    150.96981   -29370.004    27286.588 
   14400    286.07679    -29216.03    138.14397   -29354.174    8277.9595 
   14600    290.31841   -29240.968    140.19221    -29381.16   -928.36778 
   14800    300.23106   -29239.625    144.97894   -29384.604   -10131.471 
   15000    287.14549   -29228.597    138.66004   -29367.257   -14196.479 
   15200    309.71161   -29225.979    149.55702   -29375.536    27490.394 
   15400    338.73465   -29196.113    163.57199   -29359.685    28924.415 
   15600    280.42582   -29229.521    135.41517   -29364.937   -19334.844 
   15800    298.39377    -29228.13    144.09173   -29372.222   -11455.648 
   16000    299.60699   -29222.342    144.67759    -29367.02   -7420.0545 
   16200    275.67867   -29248.178    133.12281     -29381.3   -12365.907 
   16400    307.83061   -29220.651     148.6487     -29369.3    14209.867 
   16600    314.54535   -29222.501    151.89119   -29374.393    16771.559 
   16800    280.41803   -29245.471    135.41141   -29380.882    -24196.36 
   17000    300.25915   -29251.111    144.99251   -29396.103    11944.152 
   17200    281.79988   -29258.754    136.07869   -29394.833    3260.4836 
   17400    306.40834   -29230.163     147.9619   -29378.125    4194.1002 
   17600    319.90398   -29225.532    154.47882   -29380.011   -25904.398 
   17800    282.72735    -29264.98    136.52656   -29401.507   -48181.863 
   18000    294.77754   -29248.527    142.34549   -29390.872   -26913.034 
   18200    305.95196   -29225.888    147.74152    -29373.63    7791.9659 
   18400     340.2348   -29206.737     164.2964   -29371.034    42285.901 
   18600    282.79061   -29237.059     136.5571   -29373.616   -38845.627 
   18800    307.34066   -29227.423    148.41211   -29375.835    37307.375 
   19000    313.88741   -29230.444    151.57348   -29382.017   -25413.763 
   19200    276.64344   -29250.076    133.58869   -29383.665    17394.652 
   19400    353.01861   -29222.376    170.46959   -29392.846    674.42014 
   19600    248.66332   -29258.584    120.07733   -29378.661   -462.93118 
   19800    310.23991   -29232.874    149.81213   -29382.686    37037.196 
   20000    294.35106   -29235.324    142.13954   -29377.464   -14247.512 
   20200    299.97117   -29253.027    144.85345   -29397.881    8980.1687 
   20400    307.77807   -29231.884    148.62333   -29380.507   -7057.4015 
   20600    314.63527   -29236.259    151.93461   -29388.194     9250.421 
   20800    288.74323   -29241.167    139.43157   -29380.598    6537.3763 
   21000    311.30136   -29224.789     150.3247   -29375.113    44853.287 
   21200    331.11003   -29201.148    159.89013   -29361.038    10993.134 
   21400    306.09501   -29235.094    147.81059   -29382.905    25969.841 
   21600    292.98187    -29248.68    141.47837   -29390.158   -34107.868 
   21800    278.96453   -29258.429    134.70952   -29393.139    15435.112 
   22000    298.46722   -29224.411     144.1272   -29368.538   -10670.133 
   22200    328.64018   -29223.312    158.69746   -29382.009    30489.914 
   22400     274.3924   -29255.022    132.50168   -29387.523    6285.1347 
   22600     260.6223   -29235.437    125.85222   -29361.289    -25879.93 
   22800    308.08431   -29222.978    148.77121   -29371.749    50993.597 
   23000    280.66597    -29232.34    135.53114   -29367.871    8426.0242 
   23200    275.82644   -29259.654    133.19417   -29392.848    -8742.489 
   23400    276.65175   -29243.229     133.5927   -29376.822      22353.9 
   23600    314.24681     -29228.1    151.74703   -29379.847    3158.1693 
   23800    286.67265   -29254.649    138.43171   -29393.081    7308.8498 
   24000    333.08594   -29221.999    160.84428   -29382.843   -17924.295 
   24200    301.25809    -29228.43    145.47489   -29373.905   -1137.0482 
   24400    281.35633   -29249.927    135.86451   -29385.791    7877.3324 
   24600    299.04798   -29235.673    144.40765    -29380.08    24020.194 
   24800    291.26781   -29234.325    140.65067   -29374.976    6339.5304 
   25000    298.60548   -29248.799    144.19397   -29392.992   -16620.274 
   25200    296.25178   -29218.525    143.05739   -29361.582    -52902.29 
   25400    307.16145   -29224.999    148.32557   -29373.325   -6937.7313 
   25600    296.70655   -29250.761    143.27699   -29394.038    -9536.585 
   25800    291.81382   -29237.656    140.91433    -29378.57   -4848.1497 
   26000     303.1516   -29213.832    146.38925   -29360.221   -43355.973 
   26200    310.82683   -29250.011    150.09555   -29400.106   -16060.153 
   26400    325.48315   -29236.288    157.17296   -29393.461   -9670.9003 
   26600    330.58026   -29223.678    159.63431   -29383.312    8326.0574 
   26800    296.32581   -29258.048    143.09313   -29401.141   -5406.0108 
   27000    307.36685   -29242.708    148.42476   -29391.133   -21361.486 
   27200    332.40544   -29224.389    160.51567   -29384.905    24689.561 
   27400    286.14198   -29242.829    138.17545   -29381.004    9143.0576 
   27600    295.01787   -29248.429    142.46154   -29390.891   -30138.331 
   27800    313.17669   -29223.027    151.23028   -29374.257   -6555.4996 
   28000    263.10853   -29256.031     127.0528   -29383.084    54163.865 
   28200    313.39506   -29250.409    151.33572   -29401.744    8337.1305 
   28400    320.82634   -29227.531    154.92422   -29382.456    3219.5981 
   28600    293.90025   -29264.332    141.92185   -29406.254     681.8758 
   28800    294.11824   -29238.164    142.02712   -29380.191    1558.7575 
   29000    324.26766   -29239.094    156.58601    -29395.68   -3041.6767 
   29200    274.39328   -29265.847    132.50211   -29398.349   -28661.519 
   29400    321.88141   -29243.537    155.43371    -29398.97    10151.343 
   29600    320.97164   -29235.255    154.99439   -29390.249    14250.957 
   29800    269.84935   -29269.132    130.30789    -29399.44   -12937.014 
   30000    310.92575   -29241.163    150.14332   -29391.306   -8361.3227 
   30200    314.84973   -29241.512    152.03817    -29393.55    37107.239 
   30400    276.50427   -29263.052    133.52149   -29396.573    22778.863 
   30600    292.05979    -29252.26    141.03311   -29393.293    1097.9351 
   30800    310.23143   -29235.255    149.80804   -29385.063   -16651.348 
   31000    284.44846   -29233.517    137.35767   -29370.875    8295.9294 
   31200     282.1419   -29233.153    136.24385   -29369.397   -6144.3547 
   31400     273.4885   -29234.447     132.0652   -29366.513   -6305.1964 
   31600     303.9499   -29220.151    146.77474   -29366.926    28853.049 
   31800    263.51861   -29248.985    127.25082   -29376.236   -4018.2818 
   32000    330.52166   -29231.621    159.60601   -29391.227   -28654.781 
   32200     291.7958   -29217.396    140.90563   -29358.301   -8172.5579 
   32400     293.5307    -29231.06     141.7434   -29372.803   -16303.919 
   32600    258.47183   -29259.621    124.81378   -29384.435   -46850.386 
   32800    278.58605   -29232.302    134.52676   -29366.829     1419.304 
   33000    295.30787    -29220.64    142.60158   -29363.242   -15252.209 
   33200    283.76725   -29242.096    137.02871   -29379.125    41566.797 
   33400    282.46584   -29233.985    136.40028   -29370.386   -11637.333 
   33600    306.85784   -29217.885    148.17896   -29366.064   -26178.355 
   33800    271.77696   -29244.228    131.23871   -29375.467   -679.60252 
   34000    303.97646   -29234.594    146.78756   -29381.382   -23233.799 
   34200    294.91133   -29232.428    142.41009   -29374.838   -4639.2323 
   34400    282.15561   -29257.505    136.25047   -29393.756   -44255.524 
   34600    316.06526    -29229.71    152.62514   -29382.335   -14559.407 
   34800    300.23319   -29233.384    144.97997   -29378.364    -4744.075 
   35000    280.63026   -29266.214    135.51389   -29401.728   -16851.079 
   35200    307.97858   -29244.053    148.72015   -29392.773   -13617.789 
   35400    305.48119   -29243.591    147.51419   -29391.106   -5014.6864 
   35600    311.44681   -29232.197    150.39493   -29382.591   -12691.774 
   35800    310.66781   -29227.274    150.01876   -29377.293    3486.0943 
   36000    289.13202   -29244.074    139.61931   -29383.694   -27295.541 
   36200    333.97747   -29219.738    161.27479   -29381.012   -21128.679 
   36400    278.44405    -29240.66    134.45819   -29375.118   -27786.807 
   36600     287.6529    -29247.46    138.90506   -29386.365   -7423.3201 
   36800    303.08481   -29220.597      146.357   -29366.954   -20430.343 
   37000    288.94575   -29246.086    139.52937   -29385.615   -5263.1286 
   37200    292.23942    -29250.54    141.11985    -29391.66    474.01484 
   37400    294.23416   -29235.828     142.0831   -29377.911   -34638.896 
   37600    304.45515   -29232.414    147.01872   -29379.432   -434.05545 
   37800     307.1865   -29237.208    148.33767   -29385.545   -27199.459 
   38000     293.1948   -29253.688     141.5812   -29395.269   -3203.2271 
   38200     299.9189   -29222.168    144.82821   -29366.996    22885.715 
   38400    305.60744   -29221.346    147.57515   -29368.921    -5320.819 
   38600    290.19613   -29254.513    140.13317   -29394.646     9948.832 
   38800    275.14468   -29237.627    132.86495   -29370.492    462.19518 
   39000    297.03745   -29224.736    143.43678   -29368.173    55859.069 
   39200     299.1397   -29212.482    144.45193   -29356.934   -4330.4413 
   39400    270.89808   -29237.736    130.81431   -29368.551    4060.7299 
   39600    249.27936    -29240.08    120.37482   -29360.455    4961.4276 
   39800    308.16205   -29215.619    148.80875   -29364.428   -6741.2347 
   40000    293.11021   -29234.111    141.54035   -29375.651   -2255.2148 
   40200     298.4041   -29235.023    144.09672    -29379.12    32475.838 
   40400    324.45578     -29213.3    156.67685   -29369.977    6807.0008 
   40600    255.11042   -29244.863    123.19058   -29368.053    11869.305 
   40800    305.65871   -29236.973    147.59991   -29384.573    -3161.552 
   41000    290.35835   -29225.926     140.2115   -29366.138    4516.8446 
   41200    269.48169   -29231.002    130.13034   -29361.132   -12156.725 
   41400    275.96888   -29244.964    133.26295   -29378.226    4813.0373 
   41600     287.7623   -29251.911    138.95789   -29390.869     247.3863 
   41800    304.72526     -29222.7    147.14915   -29369.849   -5917.3456 
   42000    288.23001   -29236.561    139.18374   -29375.744    16353.548 
   42200    292.87291   -29258.278    141.42576   -29399.704    12302.589 
   42400    274.94713   -29236.947    132.76956   -29369.716    10726.867 
   42600    304.43831   -29220.464    147.01059   -29367.474    6837.0648 
   42800    283.84247    -29254.48    137.06504   -29391.545   -25138.185 
   43000    299.46851   -29239.427    144.61072   -29384.038   -720.63641 
   43200    308.29691   -29217.583    148.87387   -29366.457    7884.0772 
   43400     285.1491   -29236.053      137.696   -29373.749    -10280.52 
   43600     271.4099   -29249.014    131.06146   -29380.075    47802.242 
   43800     313.9271   -29218.851    151.59264   -29370.444   -44689.424 
   44000     290.1635   -29239.028    140.11741   -29379.145     10561.67 
   44200    304.24465   -29245.105    146.91707   -29392.022   -1632.5481 
   44400    311.21562   -29229.744    150.28329   -29380.028   -15132.351 
   44600     296.0261   -29233.016     142.9484   -29375.965    56840.626 
   44800    272.84871   -29256.323    131.75625    -29388.08   -22568.701 
   45000    297.02659    -29225.77    143.43153   -29369.201    43589.399 
   45200    326.52913   -29224.427    157.67805   -29382.105    21263.119 
   45400    279.24859   -29253.787    134.84669   -29388.633   -25161.505 
   45600    312.86437   -29224.707    151.07946   -29375.786   -4565.7588 
   45800    285.84615   -29227.834     138.0326   -29365.867    12319.518 
   46000    288.56622   -29246.495     139.3461   -29385.841    11461.667 
   46200    291.33727   -29255.803    140.68421   -29396.488    46548.178 
   46400    305.32554   -29225.095    147.43903   -29372.534    4857.8927 
   46600     275.5157   -29235.942    133.04411   -29368.986    10534.024 
   46800    287.30745   -29259.365    138.73825   -29398.104   -7732.2587 
   47000    319.98705   -29225.247    154.51894   -29379.766   -6479.0401 
   47200    293.72582    -29244.68    141.83762   -29386.518    15004.321 
   47400    267.04441   -29261.782     128.9534   -29390.735   -29107.971 
   47600    333.25885   -29225.916    160.92778   -29386.844   -16372.617 
   47800     294.1855   -29248.937     142.0596   -29390.996    4486.3889 
   48000    287.43499   -29246.533    138.79983   -29385.333    17296.291 
   48200    310.06613   -29222.571    149.72821   -29372.299    20644.949 
   48400    296.56706   -29245.618    143.20963   -29388.828   -6207.6859 
   48600    297.77352    -29241.87    143.79222   -29385.662   -3920.7583 
   48800    362.23578   -29220.935    174.92048   -29395.856   -2880.7297 
   49000    279.48613   -29255.476     134.9614   -29390.437    -539.2427 
   49200    309.42016   -29242.553    149.41628   -29391.969   -8467.5306 
   49400    342.77171   -29209.538    165.52145    -29375.06     -15222.3 
   49600     295.2863   -29232.064    142.59116   -29374.655   -908.78737 
   49800    317.74433   -29239.416    153.43595   -29392.852    17451.895 
   50000    275.39723   -29237.095    132.98691   -29370.082   -7471.5325 
   50200    325.67024   -29212.843     157.2633   -29370.106     8930.809 
   50400    289.27023   -29249.209    139.68606   -29388.895   -5801.4689 
   50600    295.11566   -29235.742    142.50876   -29378.251   -46359.066 
   50800    314.23798   -29223.377    151.74277    -29375.12   -2613.1209 
   51000    293.65043   -29254.537    141.80122   -29396.338   -32907.052 
   51200    307.59451   -29229.355    148.53469    -29377.89    4628.3439 
   51400    295.48743    -29238.16    142.68829   -29380.848   -11007.399 
   51600    304.86417   -29247.454    147.21623    -29394.67    550.64013 
   51800    301.30375   -29238.917    145.49694   -29384.414   -7318.0229 
   52000    308.04861   -29225.472    148.75397   -29374.226     23931.63 
   52200    291.48327   -29253.658    140.75472   -29394.413   -50294.557 
   52400     299.7299   -29234.656    144.73694   -29379.393    26096.777 
   52600    310.55653   -29227.827    149.96503   -29377.792   -23265.884 
   52800    294.11474   -29242.164    142.02543   -29384.189     21715.84 
   53000    290.53435   -29238.624    140.29649   -29378.921    1686.8825 
   53200    275.57513   -29221.973    133.07281   -29355.046    21067.233 
   53400    268.82984   -29251.916    129.81557   -29381.731   -17428.303 
   53600    311.76217   -29233.685    150.54722   -29384.232    21815.852 
   53800    299.27632     -29228.2    144.51791   -29372.717    12623.437 
   54000    309.58466   -29231.845    149.49572   -29381.341    21337.273 
   54200     330.6632   -29217.308    159.67436   -29376.982    5165.0562 
   54400    286.19641   -29234.149    138.20174    -29372.35   -19583.559 
   54600     278.2097   -29237.547    134.34502   -29371.892    1868.8181 
   54800    316.56678   -29218.366    152.86732   -29371.234    3374.4804 
   55000    288.18039   -29236.158    139.15978   -29375.318    41007.268 
   55200    280.52257    -29257.59    135.46189   -29393.051   -14400.191 
   55400    310.45501   -29231.574      149.916    -29381.49   -32095.886 
   55600    301.48258   -29220.924    145.58329   -29366.507    29570.996 
   55800    282.07733    -29245.02    136.21267   -29381.233   -9246.0865 
   56000    303.22521   -29221.892     146.4248   -29368.317    22745.045 
   56200     299.5695   -29226.987    144.65948   -29371.647    -34236.19 
   56400    282.52283   -29240.013     136.4278   -29376.441    3932.9806 
   56600    286.93373   -29225.627    138.55778   -29364.185    16359.983 
   56800    296.51575    -29235.74    143.18486   -29378.925   -12038.654 
   57000    260.27807   -29256.755      125.686   -29382.441   -24352.211 
   57200    298.33949   -29223.474    144.06552    -29367.54    28927.551 
   57400    292.93034   -29238.739    141.45349   -29380.192   -10724.941 
   57600    281.86942    -29248.42    136.11227   -29384.532   -51431.881 
   57800    270.97764   -29235.705    130.85273   -29366.558    19522.286 
   58000    301.11424   -29216.267    145.40543   -29361.673   -19946.932 
   58200    312.81663   -29224.878    151.05641   -29375.934     22672.08 
   58400    274.58991   -29249.268    132.59706   -29381.865    8800.9745 
   58600    329.50624   -29221.704    159.11567    -29380.82   -20680.319 
   58800    321.84871   -29244.482    155.41792     -29399.9   -9277.0654 
   59000    280.69717   -29246.082     135.5462   -29381.628   -10929.881 
   59200    317.93707   -29226.627    153.52902   -29380.156   -29353.319 
   59400    320.71537    -29226.08    154.87064   -29380.951    643.16372 
   59600    276.10095   -29248.927    133.32673   -29382.254     1985.317 
   59800     311.0465   -29220.096    150.20163   -29370.298   -1889.2459 
   60000    300.35089   -29229.734    145.03681    -29374.77    56269.559 
   60200    311.62156   -29245.896    150.47932   -29396.375   -23881.669 
   60400    295.26668   -29247.702    142.58169   -29390.284   -16188.632 
   60600    311.70061   -29224.996    150.51749   -29375.514    12678.257 
   60800    270.45056   -29252.706     130.5982   -29383.304    20195.987 
   61000    290.05436   -29245.415    140.06471    -29385.48   -35011.571 
   61200    295.66168    -29238.06    142.77243   -29380.833    1744.3325 
   61400    293.89378   -29244.738    141.91873   -29386.657    13694.075 
   61600    282.23261   -29259.366    136.28765   -29395.654    47115.791 
   61800    299.28853   -29228.212    144.52381   -29372.736   -30902.145 
   62000    298.36681   -29235.837    144.07872   -29379.915   -8637.5208 
   62200    271.06592   -29259.876    130.89535   -29390.772    5540.0212 
   62400    281.30024   -29242.052    135.83742    -29377.89   -33718.928 
   62600    301.01452   -29230.685    145.35727   -29376.042    31178.558 
   62800    304.44456    -29238.15    147.01361   -29385.164     8262.575 
   63000    265.23083   -29246.426    128.07764   -29374.503   -1584.8944 
   63200     316.9832    -29217.85    153.06841   -29370.919    10227.559 
   63400    290.49388   -29239.462    140.27695   -29379.739   -4133.3472 
   63600    288.18113   -29241.714    139.16014   -29380.874   -5413.9192 
   63800    320.03762   -29230.774    154.54336   -29385.317    9510.1523 
   64000    291.59293   -29217.916    140.80767   -29358.724    6212.4171 
   64200    302.98851   -29244.511    146.31049   -29390.821   -2452.4682 
   64400     293.1699   -29239.937    141.56917   -29381.506   -5856.9442 
   64600    320.52457   -29218.669     154.7785   -29373.447   -3984.0104 
   64800    298.99151   -29248.157    144.38038   -29392.537    50469.971 
   65000    294.00229   -29248.241    141.97113   -29390.212   -21650.337 
   65200    313.76456   -29218.196    151.51415    -29369.71     15102.61 
   65400    290.62548   -29241.487    140.34049   -29381.828    3063.7474 
   65600    312.84358   -29237.946    151.06942   -29389.015   -3735.5624 
   65800    346.67821   -29205.047    167.40786   -29372.455   -9627.5175 
   66000    316.75337   -29240.391    152.95743   -29393.349    12882.802 
   66200    295.63728   -29249.846    142.76065   -29392.607   -2957.4708 
   66400    308.08245   -29224.002    148.77031   -29372.772    10004.806 
   66600    285.08725   -29239.051    137.66613   -29376.717   -31484.703 
   66800    300.25854   -29245.335    144.99222   -29390.327   -21561.705 
   67000    330.89628   -29224.197    159.78691   -29383.983    -19203.55 
   67200    286.15107   -29252.002    138.17984   -29390.182   -5011.5335 
   67400    294.76661    -29243.71    142.34021    -29386.05    34814.576 
   67600    317.43201   -29227.063    153.28513   -29380.348    2454.4372 
   67800    303.33023   -29245.432    146.47551   -29391.908    8537.3771 
   68000    289.34826    -29240.85    139.72374   -29380.573   -2709.3856 
   68200    349.66264   -29213.852    168.84902   -29382.701   -35620.292 
   68400    283.39367   -29244.573    136.84832   -29381.421    23648.751 
   68600     309.8956   -29231.368    149.64587   -29381.014    -30229.16 
   68800    329.79695   -29213.144    159.25606     -29372.4     36325.29 
   69000    310.65536   -29232.155    150.01275   -29382.168    31356.186 
   69200    279.76919   -29233.914    135.09809   -29369.012   -16296.553 
   69400     327.8916   -29204.817    158.33598   -29363.153    13966.499 
   69600    290.66198   -29234.639    140.35812   -29374.997   -9814.6688 
   69800    306.05108    -29235.65    147.78938   -29383.439   -11876.052 
   70000     282.8219   -29238.149    136.57221   -29374.722   -11084.578 
   70200    295.73253    -29246.65    142.80665   -29389.456   -25381.884 
   70400    330.69884   -29217.979    159.69157    -29377.67    9198.7388 
   70600    293.72044   -29246.668    141.83502   -29388.503    6461.1179 
   70800    306.32024     -29241.3    147.91936   -29389.219   -22946.115 
   71000     301.4867    -29226.29    145.58528   -29371.875    15231.406 
   71200    318.30278   -29237.279    153.70562   -29390.984    11742.735 
   71400    284.48139   -29235.846    137.37357    -29373.22   -6360.2642 
   71600    290.88619    -29220.75    140.46639   -29361.216   -36761.549 
   71800    321.71212   -29222.516    155.35196   -29377.868   -9878.0721 
   72000    312.50237   -29248.727    150.90465   -29399.632   -5777.1698 
   72200    326.47487   -29220.147    157.65185   -29377.799    15997.087 
   72400    324.57204   -29224.614    156.73299   -29381.347   -28384.895 
   72600    284.57572   -29242.409    137.41912   -29379.828   -31144.895 
   72800    298.29838   -29258.591    144.04567   -29402.637    3245.1915 
   73000    311.62988   -29240.143    150.48333   -29390.626    3515.5095 
   73200    275.26884   -29232.872    132.92491   -29365.797    -2078.936 
   73400    275.55837   -29264.064    133.06472   -29397.128    396.71561 
   73600    313.07444   -29249.187     151.1809   -29400.368   -3961.6568 
   73800    279.36068   -29234.335    134.90082   -29369.236   -16188.397 
   74000    270.20684   -29246.885    130.48051   -29377.366    23466.484 
   74200    290.94885   -29255.567    140.49665   -29396.064   -1755.1798 
   74400    311.78915   -29228.827    150.56024   -29379.387    5499.7156 
   74600     296.5436   -29238.988     143.1983   -29382.187    3888.9752 
   74800    277.73887    -29265.55    134.11766   -29399.668   -4206.2274 
   75000    279.64042   -29236.391     135.0359   -29371.427   -204.98954 
   75200    314.93097   -29229.468     152.0774   -29381.545    12598.788 
   75400    273.68361   -29259.308    132.15942   -29391.467   -22646.695 
   75600    312.29652   -29243.886    150.80525   -29394.691   -19765.255 
   75800    290.08696   -29240.193    140.08045   -29380.274    9666.9822 
   76000    305.29528   -29242.384    147.42441   -29389.809   -6806.4597 
   76200    321.29017   -29244.839     155.1482   -29399.987    10534.161 
   76400    290.62919   -29237.683    140.34229   -29378.025    16461.279 
   76600    346.93213   -29215.337    167.53048   -29382.867    33314.224 
   76800    256.43991   -29249.166    123.83258   -29372.999    17179.533 
   77000    314.24789   -29231.586    151.74755   -29383.333   -6923.6331 
   77200    313.69632    -29223.03     151.4812   -29374.511    30067.659 
   77400    268.74879   -29264.839    129.77643   -29394.615   -5104.6261 
   77600    268.98444    -29244.63    129.89023    -29374.52    25837.312 
   77800    343.45525   -29231.112    165.85153   -29396.964   -2724.7437 
   78000    266.42504   -29265.339    128.65432   -29393.993   -1686.4579 
   78200    282.93078   -29250.588    136.62479   -29387.213   -18823.073 
   78400    307.67689   -29231.799    148.57447   -29380.373    21339.162 
   78600    274.41939   -29241.667    132.51472   -29374.181    -76.39817 
   78800    302.39305   -29251.515    146.02295   -29397.538      4503.92 
   79000    321.75702   -29227.106    155.37364    -29382.48   -14026.807 
   79200    338.05356   -29237.146     163.2431   -29400.389   -17401.071 
   79400    243.97174   -29265.622    117.81181   -29383.434    2178.3142 
   79600     297.9878   -29234.075    143.89569    -29377.97     47079.83 
   79800     292.1052   -29241.232    141.05504   -29382.288   -6694.6603 
   80000    275.06137   -29260.146    132.82472   -29392.971    4425.7047 
   80200    319.28531   -29228.101    154.18008   -29382.282   -19460.724 
   80400    299.76162   -29243.487    144.75226   -29388.239   -16993.265 
   80600     278.3598   -29253.547     134.4175   -29387.965   -2319.6039 
   80800    325.11455    -29217.61    156.99496   -29374.605   -9773.0883 
   81000    286.44259   -29250.097    138.32061   -29388.418   -13146.934 
   81200    293.36896   -29244.468     141.6653   -29386.133    38055.071 
   81400     321.1906   -29215.785    155.10012   -29370.885   -6680.2945 
   81600    303.30164   -29240.637     146.4617   -29387.099    12875.315 
   81800    293.17173   -29251.626    141.57006   -29393.196   -24601.363 
   82000     324.5121   -29236.533    156.70405   -29393.237    -23150.44 
   82200    305.47334   -29227.995     147.5104   -29375.505    31499.436 
   82400     267.0696   -29255.802    128.96557   -29384.768    13150.378 
   82600    296.87716   -29222.042    143.35938   -29365.401   -11416.785 
   82800    288.77708   -29231.659    139.44792   -29371.107    235.84584 
   83000    316.29561   -29248.745    152.73637   -29401.481     46132.81 
   83200     328.5291   -29214.677    158.64382   -29373.321    42033.333 
   83400    283.69132   -29235.845    136.99205   -29372.837   -38514.413 
   83600    300.39009   -29230.873    145.05574   -29375.929   -23322.469 
   83800    327.85204   -29205.958    158.31688   -29364.275    6039.8126 
   84000    299.67142   -29235.586     144.7087   -29380.294    30350.108 
   84200    307.75428   -29239.081    148.61184   -29387.693   -11328.381 
   84400    337.76373   -29208.466    163.10314   -29371.569   -7053.2685 
   84600    297.79747     -29239.3    143.80379   -29383.103    2702.6389 
   84800    302.45778   -29229.599    146.05421   -29375.653    21322.748 
   85000    319.04918   -29229.627    154.06605   -29383.693    15367.135 
   85200     272.9913   -29253.749     131.8251   -29385.574   -19970.305 
   85400    321.16423     -29228.3    155.08739   -29383.387    26328.902 
   85600    280.79829   -29248.832    135.59503   -29384.427   -35137.344 
   85800    266.76071   -29254.368    128.81641   -29383.185   -13627.322 
   86000    277.81789   -29238.609    134.15582   -29372.765    33212.327 
   86200    319.10692   -29226.078    154.09393   -29380.172   -11811.323 
   86400    299.18781   -29221.956    144.47517   -29366.431   -2034.3733 
   86600     301.5448   -29248.738    145.61334   -29394.352    22939.474 
   86800    345.25657   -29223.827    166.72137   -29390.548   -19656.531 
   87000    324.47124   -29222.154    156.68431   -29378.838   -316.29923 
   87200     294.3149   -29246.301    142.12208   -29388.423   -10983.101 
   87400    287.14413   -29250.923    138.65938   -29389.582   -4726.8122 
   87600     308.0348   -29220.108     148.7473   -29368.855   -23535.809 
   87800    301.91951   -29249.441    145.79428   -29395.235   -30879.326 
   88000     297.4043   -29245.671    143.61393   -29389.285   -39416.369 
   88200    326.10186   -29204.326    157.47173   -29361.798     8843.019 
   88400    284.82485   -29233.216    137.53942   -29370.755    11217.019 
   88600    287.37808   -29251.228    138.77235       -29390   -18456.732 
   88800    291.47134   -29228.106    140.74895   -29368.855    12247.335 
   89000    307.71738   -29228.202    148.59402   -29376.796   -47390.048 
   89200    286.27627   -29243.195     138.2403   -29381.435   -10711.857 
   89400    272.52406   -29235.802    131.59948   -29367.401    330.93849 
   89600    326.27723   -29221.604    157.55641    -29379.16   -17630.977 
   89800    291.55372   -29246.469    140.78873   -29387.258    37427.019 
   90000     328.5575   -29224.217    158.65753   -29382.875    13830.168 
   90200     319.4179   -29196.848     154.2441   -29351.092   -395.90852 
   90400    299.85056   -29239.284    144.79521    -29384.08    26643.071 
   90600     288.7315   -29243.231    139.42591   -29382.657   -39370.553 
   90800    306.07673   -29215.226    147.80177   -29363.028   -1944.5831 
   91000    260.49203   -29249.766    125.78932   -29375.555    22147.213 
   91200    288.48152   -29237.811     139.3052   -29377.116    51676.538 
   91400     294.3627   -29228.608    142.14517   -29370.753   -48347.267 
   91600    280.19639   -29261.139    135.30438   -29396.444    25202.541 
   91800     321.8271   -29241.632    155.40749    -29397.04    16591.112 
   92000    288.42078   -29230.505    139.27586   -29369.781   -22790.499 
   92200    350.13391     -29196.8    169.07659   -29365.877    11081.695 
   92400    316.98781   -29230.352    153.07063   -29383.423   -8529.1379 
   92600    289.39383    -29246.88    139.74574   -29386.626    31645.491 
   92800    279.48994     -29258.7    134.96324   -29393.663   -15978.254 
   93000    323.50524   -29226.493    156.21784   -29382.711   -58466.243 
   93200    286.24111   -29239.165    138.22332   -29377.388     -5016.76 
   93400    278.56455   -29249.336    134.51638   -29383.852   -4591.4663 
   93600    308.19052   -29231.232     148.8225   -29380.055   -20238.951 
   93800    289.09116   -29247.456    139.59958   -29387.056    5862.7153 
   94000    288.36513   -29254.833    139.24899   -29394.082   -20.447987 
   94200    300.06169   -29239.353    144.89716    -29384.25    25156.191 
   94400    280.02462   -29241.841    135.22143   -29377.062   -20031.434 
   94600    318.32205   -29243.511    153.71493   -29397.226   -432.54565 
   94800    309.18977   -29236.465    149.30503    -29385.77   -14687.074 
   95000    300.64969   -29245.817     145.1811   -29390.998     20352.46 
   95200    283.64485   -29261.465    136.96961   -29398.435    598.17747 
   95400    341.77792   -29237.764    165.04156   -29402.806    56745.343 
   95600    313.34879   -29241.819    151.31338   -29393.133   -22066.112 
   95800    305.11246   -29228.492    147.33613   -29375.828    37966.507 
   96000    297.85226   -29235.262    143.83024   -29379.092   -17698.916 
   96200    286.14155   -29248.109    138.17525   -29386.284    978.72308 
   96400     306.7937   -29228.192    148.14799    -29376.34   -10847.732 
   96600    294.96724   -29231.831    142.43709   -29374.268   -20712.041 
   96800     293.6577   -29224.347    141.80473   -29366.152    3711.7194 
   97000    313.45923   -29234.339    151.36671   -29385.706    13488.653 
   97200    294.18026   -29253.813    142.05707    -29395.87     3025.254 
   97400    304.98769   -29220.587    147.27588   -29367.863     11486.63 
   97600    322.24285    -29225.73    155.60824   -29381.338   -37864.569 
   97800    288.94552   -29257.958    139.52926   -29397.488    6518.6554 
   98000    302.80508   -29233.511    146.22192   -29379.733   -7241.6364 
   98200    311.29458   -29219.345    150.32142   -29369.666    11389.665 
   98400    296.86325   -29247.138    143.35266   -29390.491   -19320.383 
   98600    291.06735   -29227.169    140.55387   -29367.723    18183.151 
   98800     293.1822   -29222.206    141.57511   -29363.781    9140.0871 
   99000    300.07327   -29243.316    144.90275   -29388.219    18929.542 
   99200    311.34771   -29240.828    150.34708   -29391.175   -19542.997 
   99400    318.64691   -29214.063     153.8718   -29367.935    2880.4126 
   99600     278.4046   -29245.645    134.43914   -29380.084    23629.756 
   99800    307.89285   -29236.528    148.67876   -29385.207   -17603.768 
  100000    314.76399    -29223.51    151.99677   -29375.506    3317.1661 
  100200    285.60117   -29261.135     137.9143   -29399.049    11058.798 
  100400    294.79687   -29244.362    142.35482   -29386.717   -16674.033 
  100600    329.09084   -29224.872    158.91508   -29383.787      25065.3 
  100800    309.88937   -29253.878    149.64286   -29403.521   -20571.731 
  101000    290.20424   -29247.055    140.13708   -29387.192   -8042.0385 
  101200    280.37193   -29243.402    135.38914   -29378.791     30048.45 
  101400    318.66992   -29228.546    153.88291   -29382.429    5697.2066 
  101600    286.18617   -29236.107    138.19679   -29374.304    47005.926 
  101800     293.8845   -29250.658    141.91425   -29392.573    32078.331 
  102000    298.93109   -29225.994     144.3512   -29370.345    4941.8617 
  102200    303.91406   -29233.889    146.75743   -29380.646   -646.32234 
  102400    269.50271   -29252.742     130.1405   -29382.883   -11742.789 
  102600    288.40467   -29240.636    139.26809   -29379.904    42067.693 
  102800    276.80188   -29225.855     133.6652   -29359.521    15830.385 
  103000    265.29796   -29252.906    128.11006   -29381.016    -2682.001 
  103200    316.21609   -29219.358    152.69798   -29372.056   -25592.638 
  103400    299.70468   -29238.888    144.72476   -29383.613   -11798.568 
  103600    297.35323   -29248.591    143.58926    -29392.18   -25548.913 
  103800    334.25918    -29213.56    161.41083   -29374.971   -19891.151 
  104000    282.97104   -29232.285    136.64423   -29368.929   -26438.145 
  104200    311.35631   -29238.233    150.35123   -29388.585    522.53439 
  104400    334.87903    -29206.79    161.71015     -29368.5   -12328.944 
  104600    321.91659   -29223.703     155.4507   -29379.154   -7462.1586 
  104800    298.05567    -29242.51    143.92847   -29386.438    73167.937 
  105000    323.62552   -29230.319    156.27593   -29386.595   -8968.3064 
  105200     292.7013   -29216.603    141.34289   -29357.946   -101.19851 
  105400    286.19777   -29233.013    138.20239   -29371.215    1633.2245 
  105600    320.83881   -29224.542    154.93025   -29379.472   -20167.029 
  105800    342.35854   -29214.714    165.32193   -29380.036   -30520.379 
  106000    284.76841   -29247.013    137.51216   -29384.526    28832.116 
  106200    302.99119   -29228.141    146.31179   -29374.453   -4798.2181 
  106400    343.00811       -29216    165.63561   -29381.636    2542.9074 
  106600    297.01328   -29245.711    143.42511   -29389.136   -40985.298 
  106800    313.53035   -29224.981    151.40106   -29376.382   -32028.772 
  107000    286.68705   -29246.749    138.43866   -29385.187   -33533.488 
  107200    295.77358   -29250.833    142.82647   -29393.659    9865.0829 
  107400    326.61548   -29233.803    157.71975   -29391.523    10248.698 
  107600    265.94448   -29235.141    128.42226   -29363.563   -33675.294 
  107800    322.66572   -29231.337    155.81245   -29387.149    19542.202 
  108000    301.47052   -29233.537    145.57747   -29379.114    26107.919 
  108200    291.47581   -29255.673    140.75111   -29396.424    2962.5879 
  108400    294.38341   -29221.729    142.15516   -29363.884    53098.868 
  108600    299.48028   -29234.302     144.6164   -29378.918   -6551.5613 
  108800     301.8571   -29245.099    145.76415   -29390.863    19999.158 
  109000    321.86823   -29212.969    155.42734   -29368.396   -3161.9759 
  109200    296.57972   -29240.814    143.21574    -29384.03   -11560.944 
  109400    314.21544   -29244.235    151.73188   -29395.967    17609.999 
  109600    287.41371   -29222.279    138.78956   -29361.068   -9306.9061 
  109800    327.86257   -29219.273    158.32196   -29377.595   -16008.064 
  110000     286.2875   -29237.513    138.24572   -29375.758   -118.47896 
  110200    299.00136    -29241.57    144.38513   -29385.955    40864.548 
  110400    271.46707   -29257.428    131.08907   -29388.517   -4850.5522 
  110600    293.83109   -29228.672    141.88845    -29370.56    2828.8915 
  110800    266.64869   -29236.935    128.76231   -29365.698      15727.7 
  111000    270.74052    -29262.28    130.73822   -29393.019    26656.277 
  111200    255.28981   -29255.003    123.27721    -29378.28   -4091.2524 
  111400    296.55675   -29233.904    143.20465   -29377.108   -41511.011 
  111600    287.53306   -29239.504    138.84719   -29378.351   -7119.2131 
  111800    263.37118   -29254.615    127.17963   -29381.795   -26877.678 
  112000    315.61645   -29222.428    152.40842   -29374.837   -28212.801 
  112200    290.99791   -29235.715    140.52034   -29376.235    17388.162 
  112400    248.24667   -29263.659    119.87614   -29383.535    35686.868 
  112600    308.61378   -29230.251    149.02689   -29379.278   -14353.833 
  112800    310.83397   -29227.236      150.099   -29377.335   -37960.927 
  113000    278.22485   -29251.716    134.35234   -29386.069   -948.32445 
  113200    325.63256   -29234.915    157.24511   -29392.161   -18671.037 
  113400    293.90069   -29224.504    141.92207   -29366.426   -57576.876 
  113600    292.34392   -29251.845    141.17032   -29393.015    41856.595 
  113800    292.34693   -29242.303    141.17177   -29383.475     37496.82 
  114000    315.42334   -29227.171    152.31517   -29379.486    11294.701 
  114200    281.34535   -29242.558     135.8592   -29378.417   -43360.412 
  114400    286.88005   -29247.618    138.53186    -29386.15     18496.65 
  114600    317.31578   -29222.446      153.229   -29375.675    13473.412 
  114800      292.033   -29258.226    141.02017   -29399.246    26663.993 
  115000    287.18027   -29241.616    138.67683   -29380.293    12880.934 
  115200     288.6194   -29223.741    139.37178   -29363.113    30274.293 
  115400    273.24473   -29252.246    131.94748   -29384.193    20213.559 
  115600     300.8689   -29239.531    145.28695   -29384.818    4488.2512 
  115800    343.90933   -29242.996     166.0708   -29409.066    10091.178 
  116000    266.17665   -29266.757    128.53437   -29395.292   -29226.418 
  116200     302.5991   -29276.033    146.12245   -29422.156    1689.2071 
  116400    266.29373   -29257.901    128.59091   -29386.492   -7814.6031 
  116600    300.66833   -29258.037     145.1901   -29403.227   -13868.135 
  116800    292.94477   -29280.393    141.46046   -29421.854    21520.037 
  117000     283.4926   -29261.774    136.89609    -29398.67   -1710.0886 
  117200     338.0853   -29249.511    163.25843    -29412.77   -4534.4432 
  117400    265.07704   -29278.796    128.00338     -29406.8       -33215 
  117600    301.11138   -29249.915    145.40404   -29395.319   -6816.4672 
  117800    306.54743   -29256.991    148.02907    -29405.02     52141.92 
  118000    302.57106    -29265.16    146.10891   -29411.269   -32207.243 
  118200    293.52216   -29261.348    141.73928   -29403.088   -493.30535 
  118400    288.26848   -29239.116    139.20232   -29378.318     172.5085 
  118600    328.71055    -29241.75    158.73144   -29400.481    3000.5057 
  118800    295.69609   -29259.087    142.78905   -29401.876   -4959.8037 
  119000    323.92076   -29251.523    156.41849   -29407.941   -16396.192 
  119200    299.96128   -29240.468    144.84867   -29385.317    19063.738 
  119400    251.91567   -29271.358    121.64787   -29393.005   -7626.7044 
  119600    309.52023   -29251.868     149.4646   -29401.333    -13646.95 
  119800    327.65535   -29223.151     158.2219   -29381.373   -28540.542 
  120000    289.58511   -29258.565    139.83811   -29398.403    -75090.81 
  120200    315.19908   -29266.429    152.20687   -29418.636   -25806.841 
  120400    260.45139   -29273.435    125.76969   -29399.205    12039.955 
  120600    303.89252   -29248.067    146.74703   -29394.814   -28605.434 
  120800    311.07424   -29250.029    150.21502   -29400.244   -43372.212 
  121000    288.43129    -29271.83    139.28094   -29411.111    4949.9637 
  121200    278.81271   -29250.654    134.63621   -29385.291    25397.925 
  121400    283.56158    -29254.17     136.9294     -29391.1    -1509.231 
  121600    278.10002   -29278.446    134.29206   -29412.738   -3621.5567 
  121800    341.98513   -29252.081    165.14162   -29417.223    53022.993 
  122000    288.91425   -29268.566    139.51416    -29408.08   -18011.979 
  122200    274.15962   -29281.851    132.38928    -29414.24   -6446.2006 
  122400     304.7997   -29257.104     147.1851    -29404.29   -2865.1966 
  122600    322.67018   -29266.501     155.8146   -29422.315    40393.397 
  122800    284.23189    -29289.46    137.25309   -29426.713   -7534.5832 
  123000    308.77109   -29264.698    149.10285   -29413.801    49446.781 
  123200    288.01171   -29258.024    139.07833   -29397.102   -35374.304 
  123400    359.18978   -29228.018    173.44959   -29401.468    13668.888 
  123600    283.72278   -29266.161    137.00724   -29403.168    50261.101 
  123800    311.50093   -29269.584    150.42106   -29420.005   -11217.056 
  124000    342.65301    -29240.91    165.46413   -29406.374   -32840.247 
  124200    282.62962   -29274.114    136.47936   -29410.594   -6648.9218 
  124400    275.75569    -29265.08       133.16    -29398.24   -9956.7643 
  124600    336.87756   -29240.978    162.67522   -29403.653    16361.746 
  124800     305.1856   -29275.788    147.37145   -29423.159    15807.986 
  125000     298.0727   -29262.693    143.93669   -29406.629     18743.88 
  125200    290.82311   -29250.259    140.43593   -29390.695   -9558.1334 
  125400     270.7284   -29275.719    130.73237   -29406.451   -19559.241 
  125600    279.31309   -29281.795    134.87784   -29416.673   -34678.344 
  125800    306.00003   -29254.551    147.76473   -29402.316    27117.434 
  126000    314.66608   -29251.186    151.94949   -29403.135    13535.462 
  126200    311.43494   -29282.012     150.3892   -29432.401   -12653.742 
  126400    270.17435   -29253.604    130.46483   -29384.069   -2495.1906 
  126600    290.51234   -29255.617    140.28586   -29395.903    31222.114 
  126800     271.7419   -29283.065    131.22178   -29414.286   -280.99036 
  127000     307.5399   -29266.629    148.50832   -29415.137    12353.906 
  127200    328.75868   -29249.881    158.75468   -29408.635    8888.7109 
  127400    299.18376   -29273.682    144.47321   -29418.155   -8013.1825 
  127600    326.43946   -29250.038    157.63475   -29407.672   -4302.8648 
  127800    281.13228   -29250.235    135.75631   -29385.991   -1457.3003 
  128000    297.34979   -29276.484     143.5876   -29420.071    14155.048 
  128200    277.98585   -29302.761    134.23693   -29436.998   -9763.4761 
  128400     300.9763    -29263.35    145.33881   -29408.689     31146.79 
  128600    286.26048    -29253.05    138.23267   -29391.282     38663.75 
  128800     274.8771   -29282.446    132.73574   -29415.182    48758.545 
  129000    287.37064   -29266.593    138.76876   -29405.362    2501.1872 
  129200    286.25182   -29263.673    138.22849   -29401.902    4122.5121 
  129400    280.72312   -29282.058    135.55873   -29417.617   -691.13054 
  129600    294.42101   -29272.566    142.17333   -29414.739    2049.7625 
  129800    303.84171   -29256.336    146.72249   -29403.058   -2846.8545 
  130000    256.01832   -29281.732      123.629   -29405.361       -31970 
  130200    326.67569   -29251.151    157.74883   -29408.899   -13135.585 
  130400     317.3292    -29265.28    153.23549   -29418.515    9185.2487 
  130600    297.63704   -29278.553    143.72631   -29422.279    31499.531 
  130800    337.76147   -29250.073    163.10205   -29413.175   -853.30643 
  131000     332.6567   -29261.237      160.637   -29421.874    9535.9462 
  131200    293.18009   -29280.546    141.57409    -29422.12    7010.2616 
  131400    328.68402   -29259.129    158.71863   -29417.848   -8287.4149 
  131600    280.53337   -29257.318     135.4671   -29392.785    4483.1695 
  131800    296.41195   -29272.044    143.13473   -29415.179    14290.849 
  132000    296.55448   -29262.101    143.20356   -29405.304   -21926.857 
  132200    300.65932   -29244.755    145.18575   -29389.941    36493.569 
  132400    314.45482   -29249.433    151.84747    -29401.28    39731.697 
  132600    291.89567   -29270.211    140.95386   -29411.165    43381.718 
  132800    332.67915   -29237.204    160.64784   -29397.852    59121.788 
  133000    330.28169   -29247.749    159.49013   -29407.239    -1922.934 
  133200    282.49635   -29263.879    136.41501   -29400.294    42418.794 
  133400    277.47304   -29272.925     133.9893   -29406.915    3323.3971 
  133600    296.41534   -29244.815    143.13637   -29387.952    18448.349 
  133800    316.16851   -29254.378      152.675   -29407.053   -14840.406 
  134000     272.3956   -29277.255    131.53744   -29408.793    46626.772 
  134200    283.49161   -29252.269    136.89561   -29389.164    41581.268 
  134400    314.34415   -29253.697    151.79403   -29405.491    11766.609 
  134600    259.43878   -29286.876    125.28071   -29412.156   -5385.0017 
  134800    279.90843   -29263.407    135.16533   -29398.572    25476.748 
  135000    299.35306   -29250.083    144.55497   -29394.638   -21435.495 
  135200    306.16374   -29252.026    147.84378   -29399.869   -12699.589 
  135400    288.17601   -29276.117    139.15767   -29415.275   -27121.038 
  135600    315.82626   -29244.293    152.50973   -29396.803   -24097.081 
  135800    307.16642   -29254.818    148.32797   -29403.145    22477.362 
  136000    309.48235   -29268.513    149.44631    -29417.96   -6758.0042 
  136200    293.70285   -29265.288    141.82653   -29407.115    25584.328 
  136400    308.40128   -29236.363    148.92427   -29385.287    29031.722 
  136600    296.64692   -29264.577    143.24819   -29407.825    14815.324 
  136800    306.21334   -29267.074    147.86774   -29414.942   -49204.971 
  137000    336.12876   -29231.542    162.31363   -29393.856   -28556.134 
  137200    314.26817   -29271.447    151.75734   -29423.205   -28642.412 
  137400    285.25047   -29267.482    137.74495   -29405.226   -13683.234 
  137600    331.30106   -29245.673    159.98238   -29405.655   -307.59119 
  137800    299.25523   -29276.731    144.50773   -29421.239   -11891.691 
  138000    312.52528   -29262.695    150.91571   -29413.611    45450.375 
  138200    317.85879    -29255.19    153.49122   -29408.681   -2693.3075 
  138400    294.87808   -29265.073    142.39404   -29407.467    12592.072 
  138600    270.18538   -29279.677    130.47015   -29410.147    36883.489 
  138800    313.57981   -29268.866    151.42494   -29420.291   -46093.341 
  139000    314.47133   -29250.904    151.85545    -29402.76    3622.2468 
  139200    279.79142   -29282.835    135.10882   -29417.944    11960.365 
  139400    275.55205   -29272.843    133.06167   -29405.904   -14638.748 
  139600    308.94122   -29254.777      149.185   -29403.962   -29660.827 
  139800    279.66005   -29284.186    135.04538   -29419.232    11517.677 
  140000    280.19102   -29270.347    135.30179   -29405.649    19842.577 
  140200    321.76377   -29256.781     155.3769   -29412.158     29478.88 
  140400    289.66117   -29263.647    139.87484   -29403.522   -34577.278 
  140600     283.7124   -29265.722    137.00223   -29402.724   -29090.474 
  140800    340.75059   -29239.992    164.54547   -29404.537   -21619.609 
  141000    267.99967   -29272.514    129.41469   -29401.929    5553.5967 
  141200    297.62547   -29262.501    143.72073   -29406.222   -31591.088 
  141400    319.55154    -29246.76    154.30863   -29401.069    8652.1331 
  141600    282.98059   -29277.895    136.64884   -29414.543    50741.444 
  141800    279.51723   -29256.177    134.97642   -29391.154     30565.04 
  142000    324.10471   -29259.388    156.50732   -29415.895   -11946.316 
  142200    295.90825   -29268.515     142.8915   -29411.407   -18234.318 
  142400    346.93718   -29232.942    167.53292   -29400.475    28648.324 
  142600    306.70932   -29260.373    148.10724    -29408.48   -3293.5096 
  142800     300.8902   -29264.865    145.29724   -29410.162   -11368.695 
  143000    327.79276   -29233.277    158.28825   -29391.566   -16881.627 
  143200    324.64432   -29256.647     156.7679   -29413.415    18906.035 
  143400    274.86275   -29266.155    132.72881   -29398.884   -8366.4388 
  143600    288.12163   -29242.482    139.13141   -29381.613   -37224.739 
  143800    293.45722   -29258.387    141.70792   -29400.095    7659.5599 
  144000    285.51707    -29264.06    137.87369   -29401.933   -34110.455 
  144200    315.49773   -29248.013    152.35109   -29400.364    75208.032 
  144400     280.2025   -29282.148    135.30733   -29417.455    15370.884 
  144600    298.51981   -29259.882     144.1526   -29404.035     24784.95 
  144800    288.88183   -29255.619     139.4985   -29395.118    974.68994 
  145000    268.59944   -29273.304    129.70431   -29403.008   -40542.692 
  145200    256.58782   -29294.676    123.90401    -29418.58   -43205.645 
  145400    285.20967   -29260.649    137.72525   -29398.374   -13573.976 
  145600     311.8932   -29258.567    150.61049   -29409.178   -8732.9061 
  145800    286.79277   -29283.529    138.48971   -29422.019   -8736.5752 
  146000    313.34904    -29250.81     151.3135   -29402.123   -4704.3467 
  146200     291.7271   -29258.938    140.87246    -29399.81    24819.427 
  146400    290.58289   -29288.666    140.31993   -29428.986    3042.0426 
  146600    259.12736    -29291.43    125.13033    -29416.56    5484.6075 
  146800    314.52572   -29257.794    151.88171   -29409.676    5407.9256 
  147000     298.2289   -29252.997    144.01212   -29397.009     13800.07 
  147200    276.08835   -29282.436    133.32064   -29415.757    25946.115 
  147400     310.6458   -29256.584    150.00813   -29406.592     -5275.92 
  147600    309.95078   -29256.766    149.67251   -29406.439    -23782.65 
  147800    274.64753   -29277.032    132.62488   -29409.657    29535.608 
  148000    307.19843   -29243.885    148.34343   -29392.228    31557.352 
  148200    296.50149   -29246.392    143.17797    -29389.57    85391.182 
  148400    261.30658    -29276.03    126.18266   -29402.213    521.67988 
  148600    310.89021   -29247.146    150.12615   -29397.272    13870.725 
  148800    300.79032   -29246.751    145.24901       -29392    19565.335 
  149000    282.10211   -29272.588    136.22463   -29408.812   -2586.5416 
  149200    311.66866   -29261.085    150.50206   -29411.587   -35162.335 
  149400    297.17383   -29262.115    143.50263   -29405.618   -5345.6149 
  149600    270.66478   -29272.518    130.70165    -29403.22   -22585.487 
  149800    265.05512   -29282.602    127.99279   -29410.595    24662.279 
  150000    328.59373   -29252.928    158.67503   -29411.603    22577.325 
  150200    286.27526   -29271.334    138.23981   -29409.574    7122.4374 
  150400    268.24685   -29296.389    129.53405   -29425.923    37792.618 
  150600    304.54208   -29264.295     147.0607   -29411.356   -14906.151 
  150800    317.40339   -29252.863    153.27131   -29406.134   -9935.5356 
  151000     293.1861    -29282.51      141.577   -29424.087   -2548.1434 
  151200     296.7534   -29262.891    143.29962   -29406.191    7125.5798 
  151400    314.55625   -29254.856    151.89645   -29406.752   -3690.9358 
  151600     295.0182   -29271.703     142.4617   -29414.165    3948.5763 
  151800    270.57648    -29283.52    130.65901   -29414.179    2815.9836 
  152000    314.50749   -29247.191    151.87291   -29399.064   -38616.739 
  152200    317.38658   -29273.367    153.26319    -29426.63   -20606.612 
  152400    271.06385   -29271.562    130.89435   -29402.456    8769.1596 
  152600    327.40551   -29253.648    158.10125    -29411.75    7056.2039 
  152800     313.0595   -29265.922    151.17369   -29417.096   -33261.211 
  153000    300.46316   -29267.598    145.09102   -29412.689   -32739.863 
  153200    298.84553   -29257.256    144.30989   -29401.566     21716.16 
  153400    284.61934   -29278.195    137.44018   -29415.635   -45784.616 
  153600    294.67094   -29275.084    142.29401   -29417.378   -7992.8178 
  153800    311.74294   -29252.665    150.53793   -29403.203     25392.19 
  154000    280.88078   -29265.746    135.63486   -29401.381   -2677.0328 
  154200    276.16487   -29290.443    133.35759   -29423.801   -1263.6242 
  154400    308.97965   -29256.545    149.20356   -29405.749    10419.575 
  154600    311.76605   -29258.811    150.54909    -29409.36   -22507.022 
  154800    250.83958   -29289.041    121.12823   -29410.169   -33607.056 
  155000    336.51343   -29255.865    162.49939   -29418.365    1062.9307 
  155200    301.52986   -29259.847    145.60612   -29405.453    56470.103 
  155400    280.76462   -29280.685    135.57877   -29416.264    23042.089 
  155600    329.34774   -29257.849    159.03913   -29416.888    3319.5759 
  155800    292.84633   -29246.717    141.41292    -29388.13   -47189.035 
  156000    265.65629   -29279.815    128.28309   -29408.098   -8854.2657 
  156200    283.50077   -29264.404    136.90004   -29401.304    17359.134 
  156400    299.77428   -29252.151    144.75837   -29396.909    2609.5214 
  156600    291.97832   -29263.626    140.99377    -29404.62   -37067.545 
  156800    270.19186   -29276.514    130.47328   -29406.987    40056.145 
  157000     301.3529   -29250.428    145.52067   -29395.949    17593.699 
  157200    298.90252   -29270.446    144.33741   -29414.783   -6302.1519 
  157400    282.86678   -29279.277    136.59389   -29415.871   -44301.802 
  157600    287.49488   -29261.679    138.82876   -29400.507   -28744.831 
  157800    319.35019   -29262.244     154.2114   -29416.455   -7793.2771 
  158000    293.08773    -29277.28    141.52949   -29418.809     43662.41 
  158200    290.89013   -29272.565    140.46829   -29413.033   -31089.248 
  158400     296.5611   -29251.606    143.20676   -29394.812    59921.689 
  158600    282.40943   -29286.391    136.37303   -29422.764    7394.3149 
  158800    298.80268   -29273.565    144.28919   -29417.854    16468.781 
  159000    309.05372   -29254.033    149.23933   -29403.273   -9119.3798 
  159200     293.3111   -29265.466    141.63736   -29407.103    38347.232 
  159400    271.58406   -29276.872    131.14556   -29408.018     7435.748 
  159600    313.04453   -29252.905    151.16646   -29404.071    19333.317 
  159800    282.86266   -29260.587     136.5919   -29397.179   -29920.498 
  160000    284.40947   -29279.254    137.33884   -29416.593    21660.766 
  160200    302.39804   -29255.806    146.02536   -29401.832    16207.187 
  160400     302.0632   -29255.159    145.86367   -29401.022   -12283.814 
  160600    281.14154   -29289.545    135.76078   -29425.306    19066.428 
  160800    319.53739   -29266.198     154.3018   -29420.499    54104.893 
  161000    292.26394   -29266.787    141.13169   -29407.919    27997.665 
  161200    256.08292   -29290.207    123.66019   -29413.867   -12579.042 
  161400    292.65134   -29261.752    141.31876    -29403.07   -29439.489 
  161600    312.47078   -29263.391     150.8894    -29414.28   -2892.7638 
  161800    253.48322    -29284.18    122.40482   -29406.584   -8484.4783 
  162000    320.26685   -29253.408    154.65405   -29408.062    43599.571 
  162200    303.51153   -29255.724    146.56305   -29402.287   -42230.237 
  162400    297.02754   -29279.227    143.43199   -29422.659    17935.658 
  162600    299.01098   -29248.205    144.38978   -29392.595   -4253.3099 
  162800    276.77019   -29267.806     133.6499   -29401.456    4770.7657 
  163000    288.95524   -29276.642    139.53395   -29416.176    3031.7335 
  163200    304.55312   -29262.857    147.06603   -29409.923   -13379.037 
  163400    302.51532   -29269.001      146.082   -29415.083    17636.017 
  163600    254.56679    -29283.03    122.92807   -29405.958    29330.962 
  163800    328.94221   -29259.536    158.84331    -29418.38   -34110.283 
  164000    330.31148   -29256.636    159.50451    -29416.14    6373.3498 
  164200    275.52841   -29287.473    133.05025   -29420.523   -32894.066 
  164400    312.42672   -29257.297    150.86812   -29408.165    15260.904 
  164600    307.95113   -29255.592     148.7069   -29404.299    2793.5058 
  164800    282.44267   -29273.213    136.38909   -29409.602   -23280.131 
  165000    293.28364   -29250.945     141.6241   -29392.569    13589.692 
  165200     307.0924   -29255.181    148.29223   -29403.473   -5851.3638 
  165400    282.84296   -29265.369    136.58239   -29401.951    31135.874 
  165600    300.91868   -29261.777    145.31099   -29407.088   -22406.907 
  165800     326.7509   -29256.981    157.78514   -29414.766    9890.3457 
  166000    319.70035   -29243.498     154.3805   -29397.878    12958.794 
  166200    267.48706   -29271.178    129.16716   -29400.345   -28569.867 
  166400    317.26228   -29250.138    153.20317   -29403.341    9642.9058 
  166600    354.55181   -29241.274    171.20996   -29412.484    11173.528 
  166800    277.17928   -29263.347    133.84744   -29397.195   -5724.9632 
  167000    276.50903   -29268.241    133.52378   -29401.765    7791.7759 
  167200    325.90055   -29249.191    157.37452   -29406.566   -10190.634 
  167400    298.84333    -29273.54    144.30882   -29417.849   -18346.849 
  167600    303.95116   -29251.777    146.77535   -29398.552    253.38974 
  167800    302.63325   -29252.929    146.13894   -29399.068   -5499.2387 
  168000    306.74345   -29268.025    148.12372   -29416.149     69686.65 
  168200    281.36744   -29264.047    135.86987   -29399.917     15641.66 
  168400    282.07413    -29246.35    136.21112   -29382.561    23306.679 
  168600    319.09135   -29255.557    154.08641   -29409.643    11651.301 
  168800    295.91412   -29269.082    142.89433   -29411.977   -12399.594 
  169000    305.29474   -29249.477    147.42415   -29396.901   -22539.804 
  169200    265.73604   -29285.068     128.3216    -29413.39    5110.9798 
  169400    242.33371     -29274.8    117.02082   -29391.821    -40931.95 
  169600    315.41649    -29253.58    152.31186   -29405.891   -9042.0705 
  169800    321.67716   -29261.566    155.33508   -29416.901    539.31808 
  170000    289.94576    -29264.15    140.01226   -29404.162    19132.035 
  170200    336.02335    -29237.54    162.26273   -29399.802    14149.579 
  170400    292.58753     -29270.5    141.28795   -29411.788   -5576.4539 
  170600    279.71577    -29253.08    135.07229   -29388.152    12315.537 
  170800    327.42369   -29251.656    158.11003   -29409.766    9827.7428 
  171000    289.03506   -29268.063    139.57249   -29407.636    -14973.37 
  171200    288.68835   -29254.176    139.40507   -29393.581    26735.535 
  171400    310.83449   -29256.483    150.09925   -29406.582    17333.231 
  171600    295.79929   -29270.297    142.83888   -29413.136    15563.975 
  171800    314.78547    -29239.18    152.00714   -29391.187    10941.701 
  172000    305.61248   -29258.351    147.57758   -29405.929    14827.878 
  172200    306.27707    -29259.51    147.89851   -29407.409   -19117.418 
  172400    316.89025   -29254.997    153.02352    -29408.02    29067.943 
  172600    282.37491   -29263.183    136.35637   -29399.539   -13933.197 
  172800    312.94503   -29251.922    151.11841   -29403.041    11164.448 
  173000    336.65347   -29243.112    162.56701   -29405.679    30215.648 
  173200    262.74268   -29270.638    126.87613   -29397.514    19216.112 
  173400    314.37479   -29247.476    151.80883   -29399.284    3492.6268 
  173600    310.79113   -29248.713    150.07831   -29398.791   -28058.782 
  173800    274.71749   -29273.768    132.65867   -29406.427   -29835.158 
  174000    311.73949   -29246.778    150.53627   -29397.314    -4479.044 
  174200    310.62653   -29267.265    149.99883   -29417.264   -9659.2752 
  174400    277.82437   -29266.639    134.15895   -29400.798    34942.873 
  174600     307.2066   -29248.649    148.34737   -29396.996    23894.526 
  174800    296.52051   -29281.602    143.18715   -29424.789    2843.4487 
  175000    310.00647   -29265.422     149.6994   -29415.121     7324.363 
  175200    283.01269   -29256.882    136.66434   -29393.546   -14805.154 
  175400    294.77273   -29260.454    142.34316   -29402.797    1832.4348 
  175600     319.6525   -29262.216    154.35739   -29416.573    10188.443 
  175800    328.57335   -29232.723    158.66519   -29391.388    26127.455 
  176000    293.01842   -29257.894    141.49602    -29399.39    32587.969 
  176200    298.07917   -29259.677    143.93982   -29403.617    22402.335 
  176400    307.94943   -29237.895    148.70608   -29386.601    42964.308 
  176600    301.39358   -29251.046    145.54031   -29396.587    16530.733 
  176800    311.18127   -29271.552     150.2667   -29421.819    -18859.61 
  177000     305.5766   -29256.114    147.56026   -29403.674    47450.898 
  177200    291.50068   -29253.593    140.76312   -29394.356    16971.821 
  177400    277.67537   -29273.199      134.087   -29407.286    9530.3919 
  177600    344.21687   -29250.689    166.21931   -29416.908     -2848.21 
  177800    302.99097   -29263.274    146.31168   -29409.585    8070.0278 
[...]
  950000    310.73553   -29280.582    150.05146   -29430.633    -8414.716 
  950200    286.97743   -29310.309    138.57889   -29448.888    1224.9984 
  950400    311.23819   -29287.227    150.29419   -29437.521    2094.5782 
  950600    314.70819   -29281.199    151.96983   -29433.169   -3960.8649 
  950800      265.897   -29308.046    128.39933   -29436.446    3994.6775 
  951000    314.10274   -29276.518    151.67746   -29428.196   -38467.728 
  951200    308.07805    -29285.52    148.76819   -29434.289    12754.249 
  951400    309.90041   -29299.203    149.64819   -29448.852   -32433.157 
  951600    332.56225   -29260.468    160.59139   -29421.059    31167.964 
  951800    300.86014   -29278.223    145.28272   -29423.506   -30480.289 
  952000    286.18523   -29290.227    138.19634   -29428.424    5774.2501 
  952200     323.3865   -29257.103     156.1605   -29413.264    30932.743 
  952400    299.53991    -29276.09    144.64519   -29420.735    16295.889 
  952600     309.0771     -29281.8    149.25062    -29431.05    19832.087 
  952800    308.77344   -29265.559    149.10398   -29414.663   -33430.193 
  953000    307.44185   -29275.089    148.46097    -29423.55    23042.744 
  953200    287.12875   -29289.392    138.65195   -29428.044   -5860.6401 
  953400    332.89643   -29259.825    160.75276   -29420.578   -28012.185 
  953600    303.33975   -29277.663    146.48011   -29424.143    26609.764 
  953800    321.74814   -29290.298    155.36935   -29445.668   -8276.7433 
  954000    296.94129   -29273.873    143.39034   -29417.263   -10647.896 
  954200    293.93641   -29279.066    141.93931   -29421.005    25741.805 
  954400    303.86681   -29301.911    146.73462   -29448.646    8893.2198 
  954600    312.09902   -29272.003    150.70988   -29422.713   -56416.039 
  954800    321.25656   -29277.659    155.13197   -29432.791     5864.155 
  955000    299.18821   -29294.729    144.47536   -29439.204    54846.939 
  955200    303.76404   -29269.645    146.68499    -29416.33   -17896.475 
  955400    308.21774   -29280.787    148.83564   -29429.622    4917.5362 
  955600    299.28357   -29300.009    144.52141    -29444.53    1014.7682 
  955800    307.27204   -29268.201    148.37897    -29416.58    45141.975 
  956000    322.70559   -29277.598     155.8317    -29433.43    12646.005 
  956200    312.56781   -29295.837    150.93625   -29446.773   -24759.839 
  956400    258.86068   -29318.881    125.00155   -29443.882   -36312.735 
  956600    297.35157   -29293.143    143.58846   -29436.732    29048.933 
  956800    338.61657   -29279.528    163.51497   -29443.043    15106.038 
  957000     277.9577   -29306.078    134.22334   -29440.301    -22236.74 
  957200    281.29788   -29285.508    135.83628   -29421.344   -10450.828 
  957400    303.93238   -29281.362    146.76628   -29428.128    -19615.52 
  957600    280.37277   -29298.318    135.38955   -29433.707    5273.5891 
  957800     306.1205    -29269.69     147.8229   -29417.513      16831.4 
  958000    313.84531   -29287.962    151.55315   -29439.515   -18803.884 
  958200    292.27404   -29289.994    141.13657    -29431.13    39010.714 
  958400    288.03727   -29276.996    139.09067   -29416.087    9204.9051 
  958600    304.66917   -29305.074    147.12207   -29452.196    31567.276 
  958800     300.1979   -29285.016    144.96293   -29429.979   -28.311398 
  959000    310.19629    -29281.52    149.79107   -29431.311   -1585.0785 
  959200    271.47053   -29306.763    131.09074   -29437.853    26318.229 
  959400     282.8297   -29290.488    136.57598   -29427.064   -11964.912 
  959600     308.4306   -29283.928    148.93843   -29432.866    16007.397 
  959800    271.21319   -29303.551    130.96647   -29434.518    4682.1903 
  960000    306.23115   -29271.407    147.87634   -29419.283    12454.276 
  960200     280.5112   -29290.937     135.4564   -29426.393   -35507.082 
  960400    327.60133   -29286.682    158.19581   -29444.877   -729.75597 
  960600    311.68888   -29267.666    150.51182   -29418.177     24897.94 
  960800     264.7885   -29293.804    127.86405   -29421.668    7263.4369 
  961000    311.33774   -29279.686    150.34226   -29430.028    26612.936 
  961200    322.44442   -29255.436    155.70558   -29411.142    28420.965 
  961400    296.99283   -29279.464    143.41523   -29422.879    28186.924 
  961600    301.34989   -29283.734    145.51922   -29429.253    -13831.45 
  961800    313.92902   -29257.729    151.59357   -29409.323    3804.1522 
  962000    273.04453   -29289.197    131.85081   -29421.048   -24476.521 
  962200    299.61113   -29283.464    144.67959   -29428.143    15156.013 
  962400    325.50713    -29245.67    157.18454   -29402.855    703.63735 
  962600    313.02229   -29270.517    151.15572   -29421.673    24729.009 
  962800     312.1105   -29289.837    150.71542   -29440.552    54904.374 
  963000    277.94227   -29301.088    134.21588   -29435.303   -24691.927 
  963200    310.90762   -29271.351    150.13456   -29421.486   -37673.345 
  963400    286.84023    -29288.84    138.51263   -29427.352    13051.323 
  963600    296.56865   -29296.505     143.2104   -29439.716   -12191.822 
  963800     294.5112    -29278.28    142.21687   -29420.497   -73052.037 
  964000    314.03727   -29279.268    151.64584   -29430.914   -6729.0143 
  964200    278.38255    -29287.35    134.42849   -29421.778    7288.3077 
  964400    338.49126    -29274.25    163.45446   -29437.705    -37893.54 
  964600    320.30393   -29272.033    154.67196   -29426.705    17925.414 
  964800    280.47237   -29293.989    135.43765   -29429.426   -55862.994 
  965000    316.63916   -29272.439    152.90227   -29425.342    -10986.63 
  965200    309.46582   -29295.915    149.43833   -29445.353    132.16422 
  965400    305.84794    -29296.85    147.69129   -29444.541    789.18836 
  965600    301.31427   -29271.553    145.50202   -29417.055    18359.474 
  965800    263.46515   -29293.775    127.22501       -29421   -4379.7754 
  966000    290.24216   -29299.853    140.15539   -29440.008    22454.171 
  966200    309.95816   -29276.725    149.67608   -29426.401   -7387.7155 
  966400     294.8014   -29288.974    142.35701   -29431.331    13023.797 
  966600     282.6063   -29303.999     136.4681   -29440.467   -14843.442 
  966800    304.23187   -29283.646     146.9109   -29430.557    1939.1518 
  967000    295.95293   -29286.146    142.91308   -29429.059    -11039.75 
  967200     295.4014   -29293.091    142.64674   -29435.738   -3979.3091 
  967400    310.99583   -29273.309    150.17716   -29423.487   -19058.138 
  967600    297.66448   -29271.087    143.73957   -29414.827    47799.961 
  967800    289.66232   -29293.985    139.87539    -29433.86    21103.444 
  968000    316.37885    -29265.12    152.77657   -29417.897    45198.082 
  968200    309.81368   -29270.114    149.60631    -29419.72    -933.3617 
  968400    324.30082   -29286.809    156.60202   -29443.411    28435.419 
  968600    269.73898   -29298.515    130.25459    -29428.77   -27375.228 
  968800       299.24   -29300.017    144.50037   -29444.518     68640.63 
  969000    306.36875   -29274.231    147.94278   -29422.173    28956.747 
  969200    273.06729   -29301.974     131.8618   -29433.836     9846.645 
  969400    296.47085    -29293.68    143.16317   -29436.843    22784.491 
  969600    317.22537   -29284.203    153.18535   -29437.388    57936.392 
  969800     302.4468    -29284.36    146.04891   -29430.409    25925.307 
  970000    284.91987   -29286.958     137.5853   -29424.543    25087.695 
  970200    294.83894   -29274.957    142.37514   -29417.332    -11757.67 
  970400    274.68835   -29295.231     132.6446   -29427.875   -35841.671 
  970600    317.08231   -29292.813    153.11627   -29445.929   -33860.377 
  970800    331.10444   -29270.834    159.88743   -29430.721   -3018.1107 
  971000    271.89147   -29289.415      131.294   -29420.709    39212.953 
  971200    303.76562   -29290.525    146.68575   -29437.211   -346.22484 
  971400    299.03493   -29272.036    144.40135   -29416.438   -30936.881 
  971600    293.04834   -29279.928    141.51047   -29421.438    -14184.01 
  971800    304.72493   -29300.919    147.14899   -29448.068   -20928.639 
  972000    321.67342    -29281.46    155.33328   -29436.794   -1442.6533 
  972200    293.63229    -29283.45    141.79246   -29425.242    41516.161 
  972400    279.60283   -29303.612    135.01775   -29438.629   -14757.764 
  972600    281.96476   -29305.771    136.15831    -29441.93    40418.713 
  972800    320.86998   -29281.789     154.9453   -29436.734   -6539.1975 
  973000    292.66762   -29290.405    141.32663   -29431.731     9205.973 
  973200    275.99294   -29305.139    133.27457   -29438.414    15299.641 
  973400    328.03862   -29271.985    158.40697   -29430.392   -10421.836 
  973600    280.84118   -29291.092    135.61574   -29426.708    9692.0823 
  973800    276.69984   -29310.731    133.61593   -29444.347   -4710.4853 
  974000    301.73512   -29278.125    145.70524   -29423.831   -11759.623 
  974200    309.87965   -29278.761    149.63817   -29428.399   -7863.1274 
  974400     288.3986   -29305.224    139.26515    -29444.49   -5803.7908 
  974600    281.65317   -29286.258    136.00784   -29422.266   -808.49743 
  974800    308.23135   -29285.281    148.84222   -29434.123    32963.288 
  975000     307.9089   -29271.074    148.68651   -29419.761   -17027.136 
  975200    276.44497   -29284.827    133.49285    -29418.32   -8518.1735 
  975400    286.18775   -29296.046    138.19756   -29434.244    8744.6293 
  975600    320.40874   -29270.662    154.72257   -29425.384    47334.494 
  975800    341.17003   -29233.428    164.74801   -29398.176    22403.945 
  976000    307.83102    -29282.85     148.6489   -29431.499   -34670.127 
  976200    278.23977   -29293.986    134.35955   -29428.345    12606.506 
  976400    325.64123   -29268.669    157.24929   -29425.919   -15884.244 
  976600    305.52459    -29289.45    147.53515   -29436.985   -2540.3697 
  976800    304.17062   -29291.515    146.88132   -29438.397    22243.972 
  977000    325.34249   -29268.385    157.10503    -29425.49   -36242.079 
  977200    294.16228   -29283.816    142.04838   -29425.864   -7362.1181 
  977400    280.48652   -29297.257    135.44448   -29432.701   -41789.804 
  977600    349.73215   -29268.267    168.88259    -29437.15    52647.115 
  977800    322.19409   -29279.744     155.5847   -29435.329   -26220.113 
  978000    263.80116   -29289.743    127.38727    -29417.13   -24784.428 
  978200    353.21522   -29269.171    170.56453   -29439.735   -13908.951 
  978400    293.87917   -29281.185    141.91167   -29423.096    14536.999 
  978600    295.55973   -29294.626     142.7232   -29437.349   -20503.548 
  978800    308.39161   -29280.512     148.9196   -29429.432    45316.841 
  979000    286.07717   -29291.015    138.14416   -29429.159   -68257.861 
  979200    292.47496   -29299.911    141.23359   -29441.145   -17510.301 
  979400    325.26667   -29271.469    157.06842   -29428.538   -1099.8576 
  979600    310.09539   -29285.954    149.74234   -29435.697    32763.359 
  979800     282.7511    -29300.96    136.53802   -29437.498    14009.992 
  980000     286.6304   -29276.382     138.4113   -29414.793   -45062.996 
  980200    316.59825   -29277.547    152.88252    -29430.43    15486.744 
  980400     279.8035   -29302.854    135.11466   -29437.969   -11280.969 
  980600    343.11721   -29270.944    165.68829   -29436.632   -16597.493 
  980800    323.47106   -29279.165    156.20134   -29435.366   -18088.265 
  981000    318.26431    -29295.33    153.68704   -29449.017   -5640.8305 
  981200    333.61309   -29260.881    161.09884   -29421.979    28295.295 
  981400    274.54195   -29285.127     132.5739   -29417.701   -40638.373 
  981600    293.64799   -29292.058    141.80004   -29433.858    40150.373 
  981800    317.50824   -29251.438    153.32194    -29404.76    -25265.59 
  982000    289.71229   -29281.005    139.89953   -29420.904    16485.096 
  982200    287.04983    -29293.01    138.61384   -29431.624   -6209.9348 
  982400    315.36881    -29266.25    152.28883   -29418.539    18388.001 
  982600    300.17544   -29279.809    144.95209   -29424.761   -55883.306 
  982800    309.99322   -29290.371    149.69301   -29440.064   -44951.298 
  983000    305.94991   -29277.963    147.74053   -29425.703    -23230.27 
  983200    338.89626   -29256.904    163.65003   -29420.554   -25033.045 
  983400    276.05627   -29286.214    133.30515   -29419.519      25512.5 
  983600    310.37664   -29278.887    149.87816   -29428.765    28969.357 
  983800    335.00496   -29253.668    161.77095   -29415.439    20951.957 
  984000    274.29327   -29290.875    132.45381   -29423.329   -41699.479 
  984200    306.10716   -29284.886    147.81646   -29432.702   -41235.485 
  984400    319.46709   -29260.219    154.26785   -29414.487   -7301.8744 
  984600    280.46264   -29296.146    135.43295   -29431.579    9878.8441 
  984800     275.0804    -29280.76    132.83391   -29413.593   -8598.1183 
  985000    284.96218   -29269.908    137.60573   -29407.514   -38649.887 
  985200     276.6551   -29303.865    133.59432   -29437.459    17219.768 
  985400    287.42451   -29276.221    138.79477   -29415.016   -4054.3785 
  985600    272.51911   -29286.273    131.59709    -29417.87   -20265.607 
  985800    283.20538   -29315.921    136.75739   -29452.679    -29366.88 
  986000    303.67438   -29293.314     146.6417   -29439.956   -7765.3775 
  986200     311.3855   -29276.231    150.36533   -29426.596   -3856.8554 
  986400    282.53514   -29307.605    136.43374   -29444.039    24964.353 
  986600    280.08921   -29298.996    135.25262   -29434.249   -4610.1196 
  986800    319.63131   -29281.409    154.34715   -29435.756    28150.149 
  987000    268.31245   -29288.522    129.56573   -29418.088    30866.158 
  987200    278.11289   -29307.115    134.29827   -29441.413   -26200.342 
  987400    312.04048   -29273.253    150.68161   -29423.934    -11414.45 
  987600    297.82228   -29284.006    143.81576   -29427.822   -3355.4165 
  987800     268.4307   -29307.787    129.62283    -29437.41   -16997.144 
  988000    305.99711    -29275.13    147.76332   -29422.893   -43237.841 
  988200    302.09144   -29286.309    145.87731   -29432.187    5739.0002 
  988400    296.11882   -29299.466    142.99318    -29442.46    -11986.28 
  988600    308.24992   -29283.089    148.85118    -29431.94     23625.91 
  988800    347.92425   -29250.934    168.00957   -29418.943    5898.9357 
  989000    305.01675   -29286.632    147.28991   -29433.922    21529.375 
  989200    286.54396   -29299.499    138.36956   -29437.869   -2150.5742 
  989400    338.76963    -29267.42    163.58888   -29431.008   -9420.1873 
  989600    307.74774   -29284.786    148.60868   -29433.395    3566.0886 
  989800    296.83817   -29293.115    143.34055   -29436.456   -13267.147 
  990000     331.7825    -29250.62    160.21486   -29410.834   -33716.599 
  990200    309.85791   -29277.243    149.62767   -29426.871    11020.005 
  990400    310.28657    -29296.26    149.83466   -29446.095   -10478.113 
  990600    318.16817    -29278.89    153.64062    -29432.53    5196.9641 
  990800    365.15256   -29268.452    176.32897   -29444.781    26954.046 
  991000    310.29778    -29293.54    149.84007    -29443.38    5767.8143 
  991200    287.92263   -29284.564    139.03531   -29423.599    15942.116 
  991400    293.70121   -29253.503    141.82574   -29395.328    -13134.09 
  991600    314.53134   -29291.327    151.88442   -29443.211    20191.481 
  991800     281.3555   -29285.331     135.8641   -29421.196   -6987.0845 
  992000    321.71555   -29262.074    155.35362   -29417.427   -38215.741 
  992200    305.88623   -29289.089    147.70978   -29436.799   -6152.8909 
  992400    264.45302   -29296.551    127.70204   -29424.253    9691.7157 
  992600    341.63533   -29269.125     164.9727   -29434.097    5931.1705 
  992800    292.50801   -29303.064    141.24955   -29444.313   -12610.824 
  993000    301.79614   -29291.008    145.73471   -29436.742   -30640.537 
  993200    316.92038   -29275.941    153.03807   -29428.979     6019.185 
  993400    282.58572   -29309.825    136.45817   -29446.284    24885.564 
  993600    312.64088   -29297.089    150.97154    -29448.06   -773.90522 
  993800    288.96059   -29285.009    139.53653   -29424.545   -7044.4024 
  994000    319.83089    -29262.63    154.44353   -29417.074   -27966.128 
  994200    298.00209   -29276.358    143.90259   -29420.261   -39571.869 
  994400    319.05611   -29291.951    154.06939    -29446.02    5052.5394 
  994600    310.96871   -29285.073    150.16406   -29435.237   -27942.469 
  994800     318.4531   -29268.053    153.77821   -29421.831   -5421.7826 
  995000    275.26325   -29300.184    132.92221   -29433.106    21399.718 
  995200    296.64502   -29283.224    143.24728   -29426.471   -34957.691 
  995400    322.68927   -29276.419    155.82382   -29432.243    40055.299 
  995600    300.51334   -29284.753    145.11525   -29429.868    37834.347 
  995800    292.62131   -29291.812    141.30426   -29433.116    6672.2244 
  996000     299.3334   -29293.688    144.54548   -29438.233   -10179.419 
  996200    305.88198   -29265.942    147.70773   -29413.649    32258.956 
  996400    311.06603   -29292.433    150.21106   -29442.644   -29464.746 
  996600    264.71717   -29293.342     127.8296   -29421.172   -13035.029 
  996800    321.57705   -29268.429    155.28674   -29423.716    1409.4122 
  997000    276.18362   -29297.078    133.36665   -29430.445   -27127.747 
  997200    290.36311   -29296.166     140.2138    -29436.38   -26049.544 
  997400     310.2054   -29277.514    149.79547    -29427.31    12649.006 
  997600    299.28706   -29284.195     144.5231   -29428.718   -43597.826 
  997800    312.29276   -29292.628    150.80343   -29443.432   -4905.3755 
  998000    273.45262   -29308.617    132.04787   -29440.665   -11011.216 
  998200    326.15447   -29276.952    157.49713   -29434.449    4290.6673 
  998400    302.62338   -29286.244    146.13418   -29432.378   -3339.5326 
  998600    297.08866   -29308.003    143.46151   -29451.464   -10803.604 
  998800    321.19993   -29282.724    155.10463   -29437.829   -22964.932 
  999000    302.20111   -29281.751    145.93026   -29427.681    35933.756 
  999200    275.81944   -29314.251    133.19079   -29447.441   -30766.323 
  999400    290.19594   -29286.177    140.13307    -29426.31   -32499.674 
  999600    303.20633   -29283.112    146.41568   -29429.527    3110.1983 
  999800    293.43536   -29304.191    141.69736   -29445.888    6982.7012 
 1000000    284.20329   -29300.334    137.23927   -29437.573    11318.159 
Loop time of 6223.3 on 8 procs for 1000000 steps with 163 atoms

Performance: 3.471 ns/day, 6.915 hours/ns, 160.686 timesteps/s
99.2% CPU use with 8 MPI tasks x no OpenMP threads

MPI task timing breakdown:
Section |  min time  |  avg time  |  max time  |%varavg| %total
---------------------------------------------------------------
Pair    | 5115.3     | 5301.8     | 5400.6     | 114.3 | 85.19
Neigh   | 3.8734     | 3.9526     | 4.1556     |   4.4 |  0.06
Comm    | 74.849     | 173.68     | 361.08     | 632.9 |  2.79
Output  | 0.1318     | 0.14309    | 0.21381    |   7.1 |  0.00
Modify  | 738.28     | 739.11     | 739.81     |   1.9 | 11.88
Other   |            | 4.632      |            |       |  0.07

Nlocal:    20.375 ave 34 max 6 min
Histogram: 2 0 1 0 1 0 1 0 1 2
Nghost:    758.125 ave 766 max 752 min
Histogram: 3 0 0 1 0 1 1 0 0 2
Neighs:    2208.75 ave 3621 max 677 min
Histogram: 2 0 1 0 1 0 1 0 1 2

Total # of neighbors = 17670
Ave neighs/atom = 108.405
Neighbor list builds = 3947
Dangerous builds = 0

unfix 1
unfix output
undump 1

Please see the log.cite file for references relevant to this simulation

Total wall time: 1:44:07
