ITEM: TIMESTEP
0
ITEM: NUMBER OF ATOMS
163
ITEM: BOX BOUNDS xy xz yz pp pp pp
-6.7755000000000001e+00 1.3552000000000000e+01 -6.7755000000000001e+00
0.0000000000000000e+00 1.1735510246683001e+01 0.0000000000000000e+00
0.0000000000000000e+00 2.2149999999999999e+01 0.0000000000000000e+00
ITEM: ATOMS id type x y z 
8 1 -2.486 5.297 9.849 
87 1 3.001 4.231 10.696 
90 1 2.733 5.481 9.824 
109 1 -2.486 5.297 0.765 
158 1 2.733 5.481 0.79 
11 1 4.24 4.139 20.131 
14 1 3.031 4.094 19.728 
18 1 1.299 5.827 18.554 
33 1 2.266 4.151 20.924 
43 1 4.343 3.96 21.647 
47 1 3.32 5.732 17.88 
52 1 4.24 4.139 12.633 
76 1 2.552 4.924 14.209 
85 1 4.343 3.96 11.117 
89 1 3.32 5.732 14.883 
91 1 1.036 5.037 11.84 
102 1 3.031 4.094 13.035 
105 1 1.299 5.827 14.209 
114 1 2.266 4.151 11.84 
150 1 2.552 4.924 18.554 
156 1 3.001 4.231 22.068 
159 1 1.036 5.037 20.924 
161 2 -0.456 4.979 13.01 
162 2 0.168 3.733 13.557 
163 3 -0.479 3.108 13.17 
5 1 -5.049 10.63 8.653 
9 1 -3.317 8.897 7.479 
19 1 -1.707 7.414 10.572 
21 1 -2.66 8.795 10.993 
23 1 -3.31 7.532 6.805 
25 1 -4.284 10.573 9.849 
32 1 1.503 6.367 0.79 
36 1 -1.869 7.426 9.056 
38 1 -2.209 6.086 8.653 
54 1 0.3 8.576 10.696 
57 1 1.291 8.001 9.824 
60 1 -1.707 7.414 0.042 
65 1 -3.31 7.532 3.808 
78 1 -1.869 7.426 1.558 
80 1 -2.566 8.842 1.961 
84 1 -4.57 9.799 3.135 
99 1 -3.054 9.687 0.765 
100 1 -2.96 6.142 3.135 
107 1 -5.049 10.63 1.961 
110 1 -3.317 8.897 3.135 
111 1 0.642 5.929 10.696 
113 1 1.503 6.367 9.824 
119 1 -4.284 10.573 0.765 
127 1 -2.209 6.086 1.961 
131 1 -2.318 6.148 10.993 
138 1 1.291 8.001 0.79 
142 1 -2.566 8.842 8.653 
145 1 -4.57 9.799 7.479 
151 1 -5.019 10.493 10.993 
154 1 -3.054 9.687 9.849 
155 1 -2.96 6.142 7.479 
12 1 2.53 7.1 17.202 
17 1 0.468 9.427 20.924 
24 1 -3.52 8.357 11.865 
27 1 -0.31 7.31 21.647 
29 1 0.642 5.929 22.068 
31 1 1.292 7.192 17.88 
44 1 -0.148 7.298 20.131 
46 1 0.191 8.638 19.728 
51 1 -0.31 7.31 11.117 
53 1 2.53 7.1 15.561 
56 1 1.292 7.192 14.883 
63 1 -2.318 6.148 21.771 
66 1 -3.309 6.723 20.899 
70 1 -0.148 7.298 12.633 
72 1 0.548 5.882 13.035 
92 1 0.942 8.582 14.209 
95 1 -5.019 10.493 21.771 
98 1 -4.751 9.243 20.899 
104 1 0.468 9.427 11.84 
116 1 -2.66 8.795 21.771 
118 1 -3.52 8.357 20.899 
122 1 0.191 8.638 13.035 
133 1 -3.309 6.723 11.865 
136 1 0.3 8.576 22.068 
147 1 0.548 5.882 19.728 
153 1 -4.751 9.243 11.865 
160 1 0.942 8.582 18.554 
1 1 7.976 4.694 10.572 
4 1 9.274 4.77 10.993 
20 1 8.034 4.861 9.056 
42 1 9.55 5.41 7.479 
67 1 10.043 4.578 0.765 
77 1 7.976 4.694 0.042 
94 1 8.035 4.861 1.558 
96 1 9.278 4.635 1.961 
121 1 4.688 5.417 10.696 
130 1 9.55 5.41 3.135 
134 1 10.043 4.578 9.849 
152 1 9.278 4.635 8.653 
45 1 4.688 5.417 22.068 
55 1 4.788 5.329 13.035 
106 1 9.274 4.77 21.771 
137 1 4.788 5.329 19.728 
2 1 7.294 10.585 9.056 
3 1 9.004 7.624 6.127 
6 1 8.556 6.347 6.805 
16 1 2.314 8.72 0.79 
22 1 7.166 6.156 8.653 
26 1 7.226 8.565 7.479 
35 1 7.191 10.764 10.572 
37 1 6.846 9.307 10.993 
39 1 8.214 8.992 6.805 
41 1 6.677 7.002 9.849 
48 1 3.775 6.213 0.79 
61 1 7.294 10.585 1.558 
62 1 9.004 7.624 4.487 
64 1 6.747 9.395 1.961 
68 1 7.437 6.931 3.135 
71 1 4.29 8.493 10.696 
74 1 3.567 7.818 9.824 
81 1 8.556 6.347 3.808 
83 1 6.47 8.606 0.765 
93 1 7.191 10.764 0.042 
97 1 8.214 8.992 3.808 
101 1 2.261 9.954 10.696 
103 1 2.314 8.72 9.824 
117 1 7.166 6.156 1.961 
120 1 7.226 8.565 3.135 
123 1 3.775 6.213 9.824 
129 1 6.677 7.002 0.765 
132 1 6.747 9.395 8.653 
135 1 7.437 6.931 7.479 
141 1 7.244 6.231 10.993 
144 1 6.47 8.606 9.849 
148 1 3.567 7.818 0.79 
7 1 9.22 6.004 11.865 
10 1 3.558 10.029 21.647 
13 1 2.261 9.954 22.068 
15 1 2.978 8.376 17.88 
28 1 3.5 9.862 20.131 
30 1 4.369 8.568 19.728 
34 1 4.308 6.159 18.554 
40 1 7.76 8.511 11.865 
49 1 4.857 7.722 20.924 
50 1 1.984 9.314 18.554 
58 1 1.491 10.146 11.84 
59 1 4.097 7.793 14.209 
69 1 3.558 10.029 11.117 
73 1 2.978 8.376 14.883 
75 1 5.064 6.118 11.84 
79 1 7.244 6.231 21.771 
82 1 7.967 6.906 20.899 
86 1 3.5 9.862 12.633 
88 1 2.256 10.089 13.035 
108 1 9.22 6.004 20.899 
112 1 4.369 8.568 13.035 
115 1 4.308 6.159 14.209 
124 1 4.857 7.722 11.84 
125 1 1.984 9.314 14.209 
126 1 6.846 9.307 21.771 
128 1 7.76 8.511 20.899 
139 1 1.491 10.146 20.924 
140 1 4.097 7.793 18.554 
143 1 7.967 6.906 11.865 
146 1 4.29 8.493 22.068 
149 1 5.064 6.118 20.924 
157 1 2.256 10.089 19.728 
ITEM: TIMESTEP
10
ITEM: NUMBER OF ATOMS
163
ITEM: BOX BOUNDS xy xz yz pp pp pp
-6.7755000000000001e+00 1.3552000000000000e+01 -6.7755000000000001e+00
0.0000000000000000e+00 1.1735510246683001e+01 0.0000000000000000e+00
0.0000000000000000e+00 2.2149999999999999e+01 0.0000000000000000e+00
ITEM: ATOMS id type x y z 
8 1 -2.38256 5.34805 9.8343 
87 1 3.00738 4.29758 10.6282 
90 1 2.66142 5.51352 9.78781 
109 1 -2.38633 5.35001 0.79206 
158 1 2.67946 5.44962 0.842775 
11 1 4.27397 4.19678 20.1524 
14 1 2.92206 4.12931 19.7009 
18 1 1.31931 5.85447 18.5958 
33 1 2.15829 4.22178 20.8985 
43 1 4.3119 4.14885 21.5769 
47 1 3.2532 5.80337 17.833 
52 1 4.27598 4.20221 12.6055 
76 1 2.43195 4.91794 14.1957 
85 1 4.29621 4.13196 11.1859 
89 1 3.25848 5.80328 14.9229 
91 1 1.03421 5.08313 11.8209 
102 1 2.91641 4.11988 13.0627 
105 1 1.35957 5.85072 14.2154 
114 1 2.15083 4.22782 11.8459 
150 1 2.43438 4.91862 18.5789 
156 1 2.98246 4.26372 22.1132 
159 1 0.989997 5.04988 20.8919 
161 2 -0.418691 5.05279 13.0335 
162 2 0.159239 3.69544 13.5736 
163 3 -0.479689 3.1228 13.1679 
5 1 -4.93624 10.6062 8.62588 
9 1 -3.33778 8.8755 7.51168 
19 1 -1.7436 7.4966 10.5425 
21 1 -2.60007 8.76357 10.8899 
23 1 -3.32763 7.52455 6.82326 
25 1 -4.15767 10.5008 9.82162 
32 1 1.61191 6.35809 0.801512 
36 1 -1.90333 7.52005 9.06891 
38 1 -2.14657 6.22466 8.62649 
54 1 0.293364 8.52297 10.664 
57 1 1.35543 7.96402 9.78187 
60 1 -1.72834 7.48433 0.0785503 
65 1 -3.30328 7.53242 3.80224 
78 1 -1.8921 7.49312 1.5534 
80 1 -2.54773 8.78862 1.81991 
84 1 -4.45073 9.82417 3.11567 
99 1 -3.02048 9.70135 0.794545 
100 1 -2.90365 6.23532 3.16296 
107 1 -4.93862 10.6005 1.98527 
110 1 -3.34885 8.8994 3.10577 
111 1 0.599587 5.95321 10.7472 
113 1 1.52077 6.35992 9.81191 
119 1 -4.16261 10.4976 0.796701 
127 1 -2.1514 6.2247 1.9821 
131 1 -2.30824 6.21191 11.0412 
138 1 1.37343 8.0056 0.835081 
142 1 -2.55068 8.78372 8.74961 
145 1 -4.44811 9.82947 7.49742 
151 1 -4.99386 10.4756 11.0487 
154 1 -3.00072 9.66468 9.82848 
155 1 -2.91521 6.25488 7.43626 
12 1 2.58289 7.06998 17.1292 
17 1 0.36915 9.37682 20.9076 
24 1 -3.61978 8.37593 11.8604 
27 1 -0.276415 7.23443 21.6228 
29 1 0.568257 5.94616 21.9375 
31 1 1.30917 7.17887 17.9075 
44 1 -0.120035 7.20199 20.1368 
46 1 0.12899 8.50755 19.7036 
51 1 -0.253987 7.23179 11.1356 
53 1 2.58441 7.08828 15.6337 
56 1 1.30251 7.15996 14.8357 
63 1 -2.3039 6.19842 21.7189 
66 1 -3.4022 6.7165 20.8451 
70 1 -0.128552 7.2111 12.6212 
72 1 0.371537 5.83703 13.0127 
92 1 0.909031 8.45961 14.2498 
95 1 -4.99794 10.4642 21.7191 
98 1 -4.68855 9.26615 20.8373 
104 1 0.385525 9.38072 11.8318 
116 1 -2.56854 8.78488 21.9227 
118 1 -3.62013 8.36665 20.8709 
122 1 0.133928 8.51427 13.067 
133 1 -3.39604 6.7279 11.9107 
136 1 0.2934 8.52095 22.1191 
147 1 0.536339 5.93446 19.8367 
153 1 -4.64612 9.27374 11.9193 
160 1 0.892799 8.46697 18.5107 
1 1 7.85316 4.95213 10.5049 
4 1 9.17892 4.74385 11.0803 
20 1 7.87602 4.95012 9.07385 
42 1 9.45869 5.41625 7.42611 
67 1 9.98956 4.51663 0.792421 
77 1 7.85184 4.95584 0.112283 
94 1 7.87967 4.95373 1.5396 
96 1 9.17641 4.6412 1.99415 
121 1 4.68351 5.4291 10.6789 
130 1 9.46131 5.40479 3.18272 
134 1 9.9876 4.51342 9.82322 
152 1 9.17878 4.63949 8.61662 
45 1 4.67705 5.42143 22.031 
55 1 4.81552 5.49518 13.0526 
106 1 9.1793 4.74407 21.6846 
137 1 4.82404 5.47837 19.7076 
2 1 7.23435 10.5426 9.06541 
3 1 8.95176 7.65182 6.04241 
6 1 8.55298 6.42545 6.82631 
16 1 2.33044 8.64553 0.865036 
22 1 7.15241 6.17852 8.72131 
26 1 7.16828 8.43248 7.55019 
35 1 7.21716 10.5786 10.5042 
37 1 6.82913 9.31462 10.961 
39 1 8.28706 8.91339 6.76617 
41 1 6.74285 7.00808 9.83579 
48 1 3.71225 6.36841 0.837792 
61 1 7.24144 10.5312 1.54087 
62 1 8.93399 7.66118 4.57866 
64 1 6.71783 9.24198 1.97552 
68 1 7.40968 6.95959 3.05694 
71 1 4.27829 8.53498 10.7662 
74 1 3.64735 7.7514 9.85237 
81 1 8.52963 6.42141 3.78637 
83 1 6.549 8.45201 0.789721 
93 1 7.21443 10.574 0.11758 
97 1 8.28471 8.91144 3.84158 
101 1 2.35744 9.92629 10.6481 
103 1 2.34587 8.68814 9.79279 
117 1 7.1588 6.18126 1.89605 
120 1 7.16937 8.42284 3.06219 
123 1 3.80131 6.3515 9.8109 
129 1 6.74113 7.01675 0.781327 
132 1 6.71521 9.24027 8.62841 
135 1 7.4067 6.95476 7.55479 
141 1 7.24242 6.17549 10.9099 
144 1 6.53917 8.4431 9.81985 
148 1 3.63054 7.78462 0.765971 
7 1 9.20665 6.07105 11.9321 
10 1 3.69302 9.77926 21.5789 
13 1 2.3498 9.99369 22.1561 
15 1 2.98148 8.29569 17.8987 
28 1 3.65124 9.7807 20.1472 
30 1 4.38724 8.55109 19.7971 
34 1 4.35974 6.2818 18.6138 
40 1 7.80262 8.35435 11.9351 
49 1 4.79346 7.70397 20.9228 
50 1 2.08017 9.30926 18.5012 
58 1 1.5713 10.185 11.8259 
59 1 4.12922 7.75967 14.1277 
69 1 3.64464 9.78111 11.1614 
73 1 3.01951 8.33181 14.8629 
75 1 4.98482 6.29103 11.8917 
79 1 7.24451 6.1773 21.8558 
82 1 7.90238 6.92615 20.9223 
86 1 3.65799 9.76916 12.6165 
88 1 2.3391 10.0781 13.067 
108 1 9.20349 6.07055 20.8311 
112 1 4.37926 8.53397 12.975 
115 1 4.3421 6.30874 14.1366 
124 1 4.79634 7.71277 11.8607 
125 1 2.07148 9.2879 14.2566 
126 1 6.85081 9.30442 21.804 
128 1 7.7916 8.3592 20.8498 
139 1 1.5418 10.2049 20.8885 
140 1 4.12458 7.76924 18.6167 
143 1 7.90528 6.89927 11.8413 
146 1 4.29213 8.54245 21.9875 
149 1 4.98849 6.27121 20.9137 
157 1 2.35325 10.0817 19.6987 
ITEM: TIMESTEP
20
ITEM: NUMBER OF ATOMS
163
ITEM: BOX BOUNDS xy xz yz pp pp pp
-6.7755000000000001e+00 1.3552000000000000e+01 -6.7755000000000001e+00
0.0000000000000000e+00 1.1735510246683001e+01 0.0000000000000000e+00
0.0000000000000000e+00 2.2149999999999999e+01 0.0000000000000000e+00
ITEM: ATOMS id type x y z 
8 1 -2.41905 5.37818 9.84436 
87 1 2.97611 4.31032 10.6284 
90 1 2.65555 5.5268 9.78396 
109 1 -2.41877 5.37747 0.767724 
158 1 2.64862 5.45034 0.85044 
11 1 4.2866 4.21098 20.126 
14 1 2.90503 4.12945 19.6865 
18 1 1.30981 5.86335 18.5913 
33 1 2.13681 4.21829 20.9107 
43 1 4.30575 4.17101 21.5796 
47 1 3.26235 5.79581 17.8312 
52 1 4.2627 4.21914 12.6245 
76 1 2.43833 4.9273 14.1849 
85 1 4.2988 4.15335 11.174 
89 1 3.2678 5.79758 14.9348 
91 1 1.02576 5.09852 11.8066 
102 1 2.90292 4.13952 13.0681 
105 1 1.33208 5.84892 14.2025 
114 1 2.12728 4.25035 11.8406 
150 1 2.43268 4.93243 18.5717 
156 1 2.97312 4.2619 22.1175 
159 1 0.97914 5.05201 20.9153 
161 2 -0.42874 5.052 13.0403 
162 2 0.159438 3.6883 13.5799 
163 3 -0.483163 3.12099 13.1655 
5 1 -4.92681 10.5857 8.61423 
9 1 -3.33331 8.86258 7.51315 
19 1 -1.74434 7.48875 10.5541 
21 1 -2.62281 8.75976 10.8714 
23 1 -3.30797 7.54977 6.83921 
25 1 -4.15354 10.5009 9.83309 
32 1 1.60143 6.35723 0.756309 
36 1 -1.88305 7.5248 9.06899 
38 1 -2.1564 6.20955 8.637 
54 1 0.305725 8.52249 10.6824 
57 1 1.36324 7.94923 9.78451 
60 1 -1.74813 7.49043 0.0660241 
65 1 -3.31025 7.55137 3.77478 
78 1 -1.87973 7.52126 1.548 
80 1 -2.55636 8.79139 1.83866 
84 1 -4.44519 9.79839 3.10874 
99 1 -2.99692 9.67271 0.773741 
100 1 -2.93297 6.26647 3.18123 
107 1 -4.924 10.5892 2.00103 
110 1 -3.33021 8.8631 3.09754 
111 1 0.610772 5.94043 10.7497 
113 1 1.52196 6.3666 9.82087 
119 1 -4.15511 10.4994 0.784246 
127 1 -2.15745 6.20982 1.97597 
131 1 -2.32491 6.20603 11.0115 
138 1 1.36036 7.98125 0.825507 
142 1 -2.55408 8.79223 8.77092 
145 1 -4.44572 9.80013 7.50703 
151 1 -4.99022 10.4562 11.0404 
154 1 -2.99369 9.67218 9.83653 
155 1 -2.93445 6.26709 7.43741 
12 1 2.56907 7.06564 17.1371 
17 1 0.400166 9.34876 20.9179 
24 1 -3.60892 8.36586 11.8379 
27 1 -0.267403 7.23522 21.6288 
29 1 0.613166 5.95909 21.9522 
31 1 1.2884 7.17147 17.9144 
44 1 -0.139153 7.20026 20.1426 
46 1 0.137107 8.51392 19.7139 
51 1 -0.251812 7.22759 11.1498 
53 1 2.57829 7.08489 15.6219 
56 1 1.30239 7.16022 14.839 
63 1 -2.32835 6.20337 21.7494 
66 1 -3.37858 6.74625 20.8622 
70 1 -0.135514 7.21496 12.609 
72 1 0.367106 5.8348 13.0174 
92 1 0.917699 8.44934 14.2494 
95 1 -4.98925 10.454 21.7248 
98 1 -4.66668 9.26966 20.8402 
104 1 0.403653 9.3503 11.8288 
116 1 -2.62365 8.76571 21.8871 
118 1 -3.61184 8.36893 20.9316 
122 1 0.13161 8.49438 13.0499 
133 1 -3.37951 6.74866 11.8998 
136 1 0.309401 8.5242 22.0898 
147 1 0.526094 5.93055 19.8506 
153 1 -4.67026 9.26238 11.9167 
160 1 0.915739 8.45808 18.5109 
1 1 7.87791 4.92811 10.5264 
4 1 9.16708 4.78584 11.0212 
20 1 7.86146 4.94201 9.07123 
42 1 9.46721 5.43962 7.43739 
67 1 9.97496 4.55488 0.757187 
77 1 7.87248 4.92658 0.0833803 
94 1 7.86427 4.94376 1.54423 
96 1 9.18313 4.65317 2.00376 
121 1 4.68867 5.47261 10.6797 
130 1 9.46492 5.44079 3.17802 
134 1 9.97525 4.55533 9.85619 
152 1 9.18286 4.65315 8.61119 
45 1 4.67411 5.4531 22.0495 
55 1 4.81556 5.50182 13.0621 
106 1 9.16844 4.7863 21.7457 
137 1 4.82308 5.50279 19.7001 
2 1 7.24861 10.5191 9.04633 
3 1 8.96703 7.6607 6.06697 
6 1 8.52696 6.39583 6.82499 
16 1 2.35333 8.69044 0.852085 
22 1 7.12712 6.18875 8.70894 
26 1 7.18506 8.42141 7.54577 
35 1 7.22714 10.5555 10.5066 
37 1 6.8615 9.26589 10.9787 
39 1 8.27518 8.92939 6.76987 
41 1 6.72989 7.00519 9.83004 
48 1 3.70017 6.36198 0.838053 
61 1 7.25185 10.5173 1.56526 
62 1 8.96962 7.65847 4.55127 
64 1 6.70969 9.22581 1.98605 
68 1 7.4006 6.96348 3.0628 
71 1 4.30213 8.52411 10.7541 
74 1 3.62054 7.76005 9.8302 
81 1 8.52406 6.3941 3.78913 
83 1 6.54427 8.44017 0.78121 
93 1 7.22469 10.5564 0.107717 
97 1 8.27825 8.92771 3.84366 
101 1 2.36863 9.92011 10.659 
103 1 2.35949 8.66086 9.78072 
117 1 7.1276 6.19042 1.90145 
120 1 7.18172 8.4217 3.07166 
123 1 3.80283 6.33849 9.81387 
129 1 6.7325 7.00655 0.780403 
132 1 6.7178 9.22687 8.62387 
135 1 7.40204 6.96787 7.55182 
141 1 7.22187 6.19089 10.9286 
144 1 6.54283 8.43993 9.83069 
148 1 3.60718 7.79495 0.789966 
7 1 9.18128 6.03428 11.925 
10 1 3.66699 9.81076 21.6076 
13 1 2.36719 9.93679 22.0921 
15 1 3.00821 8.32586 17.8998 
28 1 3.67161 9.77601 20.1443 
30 1 4.40604 8.53328 19.7867 
34 1 4.3493 6.29845 18.6151 
40 1 7.82078 8.36325 11.91 
49 1 4.80059 7.71967 20.9072 
50 1 2.06965 9.28306 18.5119 
58 1 1.56369 10.1644 11.8337 
59 1 4.13808 7.76356 14.1388 
69 1 3.65389 9.78769 11.1617 
73 1 3.02107 8.34305 14.8736 
75 1 4.98705 6.29395 11.8732 
79 1 7.22391 6.19316 21.8442 
82 1 7.92194 6.9291 20.8995 
86 1 3.67146 9.78165 12.6212 
88 1 2.3451 10.0595 13.0692 
108 1 9.18127 6.03316 20.8362 
112 1 4.40683 8.53724 12.9775 
115 1 4.33977 6.30656 14.1447 
124 1 4.81166 7.71948 11.8599 
125 1 2.07344 9.27592 14.2461 
126 1 6.86006 9.26809 21.7884 
128 1 7.82367 8.36216 20.85 
139 1 1.55982 10.1689 20.9323 
140 1 4.13461 7.75887 18.629 
143 1 7.92799 6.93497 11.8664 
146 1 4.311 8.52723 21.9981 
149 1 4.99128 6.28375 20.9067 
157 1 2.35142 10.0686 19.6854 
ITEM: TIMESTEP
30
ITEM: NUMBER OF ATOMS
163
ITEM: BOX BOUNDS xy xz yz pp pp pp
-6.7755000000000001e+00 1.3552000000000000e+01 -6.7755000000000001e+00
0.0000000000000000e+00 1.1735510246683001e+01 0.0000000000000000e+00
0.0000000000000000e+00 2.2149999999999999e+01 0.0000000000000000e+00
ITEM: ATOMS id type x y z 
8 1 -2.42762 5.38682 9.84172 
87 1 2.96701 4.31882 10.6269 
90 1 2.65532 5.52979 9.78274 
109 1 -2.42758 5.38646 0.770656 
158 1 2.64679 5.45666 0.842816 
11 1 4.27889 4.21975 20.1186 
14 1 2.9003 4.14385 19.6901 
18 1 1.31087 5.86312 18.5955 
33 1 2.12826 4.22021 20.9057 
43 1 4.29743 4.1907 21.5705 
47 1 3.25419 5.8001 17.8309 
52 1 4.25945 4.2265 12.627 
76 1 2.43556 4.93528 14.1833 
85 1 4.28896 4.1778 11.174 
89 1 3.26603 5.80251 14.9412 
91 1 1.01506 5.10671 11.8068 
102 1 2.89406 4.1506 13.0658 
105 1 1.32213 5.84877 14.1982 
114 1 2.1156 4.25845 11.8419 
150 1 2.43023 4.93547 18.5811 
156 1 2.9666 4.27154 22.1224 
159 1 0.977664 5.04833 20.9145 
161 2 -0.435055 5.05167 13.0448 
162 2 0.159176 3.68234 13.5844 
163 3 -0.485428 3.12003 13.1638 
5 1 -4.91971 10.5793 8.61689 
9 1 -3.32614 8.86343 7.51683 
19 1 -1.74524 7.49175 10.5523 
21 1 -2.62756 8.75896 10.8763 
23 1 -3.30271 7.55471 6.8378 
25 1 -4.14336 10.5005 9.83192 
32 1 1.603 6.36734 0.752561 
36 1 -1.87116 7.52886 9.07099 
38 1 -2.15703 6.21564 8.63618 
54 1 0.314522 8.51218 10.6758 
57 1 1.36618 7.93961 9.78932 
60 1 -1.74796 7.49173 0.0642121 
65 1 -3.30413 7.55499 3.77554 
78 1 -1.86964 7.52724 1.54638 
80 1 -2.54885 8.7909 1.834 
84 1 -4.44437 9.79141 3.10578 
99 1 -2.99249 9.67545 0.770515 
100 1 -2.93654 6.27415 3.17703 
107 1 -4.91881 10.5805 2.00002 
110 1 -3.3258 8.86377 3.09516 
111 1 0.606406 5.93482 10.7462 
113 1 1.52123 6.37815 9.81939 
119 1 -4.14529 10.5005 0.78382 
127 1 -2.15875 6.21508 1.97863 
131 1 -2.33323 6.21416 11.0158 
138 1 1.36721 7.97123 0.818963 
142 1 -2.54751 8.79292 8.7773 
145 1 -4.44537 9.7924 7.50843 
151 1 -4.98541 10.4498 11.0441 
154 1 -2.99111 9.67429 9.84048 
155 1 -2.93695 6.27469 7.43956 
12 1 2.56472 7.0688 17.1463 
17 1 0.409277 9.33896 20.9156 
24 1 -3.62053 8.35498 11.8296 
27 1 -0.267534 7.23385 21.6269 
29 1 0.613581 5.96119 21.9537 
31 1 1.28529 7.16828 17.9144 
44 1 -0.148563 7.19424 20.1456 
46 1 0.139069 8.50782 19.7117 
51 1 -0.254161 7.22381 11.1513 
53 1 2.58252 7.08 15.6183 
56 1 1.30059 7.15826 14.84 
63 1 -2.3356 6.21212 21.7467 
66 1 -3.38572 6.75486 20.8693 
70 1 -0.142453 7.20421 12.6071 
72 1 0.361695 5.83277 13.0209 
92 1 0.920178 8.44264 14.2471 
95 1 -4.9851 10.4484 21.7201 
98 1 -4.66565 9.2646 20.8463 
104 1 0.410135 9.33846 11.8339 
116 1 -2.6268 8.76327 21.8846 
118 1 -3.6206 8.35835 20.9368 
122 1 0.132263 8.49062 13.0489 
133 1 -3.38547 6.75828 11.8927 
136 1 0.316254 8.51559 22.0919 
147 1 0.524249 5.93009 19.8545 
153 1 -4.6652 9.26195 11.9125 
160 1 0.918574 8.44801 18.5142 
1 1 7.86326 4.93319 10.5264 
4 1 9.16025 4.79905 11.0168 
20 1 7.85032 4.94303 9.0676 
42 1 9.45925 5.44734 7.44167 
67 1 9.96651 4.56517 0.767254 
77 1 7.85748 4.928 0.0845362 
94 1 7.85271 4.94491 1.54669 
96 1 9.1767 4.66739 1.99938 
121 1 4.69437 5.48732 10.6774 
130 1 9.45804 5.44909 3.17367 
134 1 9.96574 4.56596 9.8473 
152 1 9.1762 4.66693 8.61585 
45 1 4.6606 5.48009 22.0644 
55 1 4.81249 5.51307 13.0612 
106 1 9.16008 4.8012 21.7485 
137 1 4.81956 5.51266 19.698 
2 1 7.25203 10.5091 9.04612 
3 1 8.96919 7.65742 6.07353 
6 1 8.52029 6.39454 6.81888 
16 1 2.35694 8.69057 0.85323 
22 1 7.11554 6.1872 8.70782 
26 1 7.19026 8.41909 7.54216 
35 1 7.23559 10.5335 10.4964 
37 1 6.87242 9.2422 10.99 
39 1 8.27811 8.92674 6.76247 
41 1 6.72619 6.99788 9.83282 
48 1 3.70052 6.35378 0.82899 
61 1 7.25321 10.5061 1.56872 
62 1 8.96983 7.6547 4.54299 
64 1 6.71439 9.21385 1.98921 
68 1 7.39516 6.96408 3.06334 
71 1 4.30919 8.52063 10.7534 
74 1 3.61883 7.76402 9.82305 
81 1 8.51863 6.39496 3.79538 
83 1 6.54392 8.42991 0.785351 
93 1 7.23494 10.5344 0.116727 
97 1 8.27959 8.92337 3.84879 
101 1 2.37361 9.90448 10.6623 
103 1 2.36349 8.65779 9.77902 
117 1 7.11738 6.18699 1.90574 
120 1 7.18802 8.41975 3.07158 
123 1 3.80163 6.33819 9.8077 
129 1 6.72573 6.99899 0.77952 
132 1 6.71659 9.215 8.62502 
135 1 7.39647 6.96421 7.55182 
141 1 7.21818 6.19835 10.9351 
144 1 6.54486 8.42693 9.8279 
148 1 3.60037 7.79283 0.794379 
7 1 9.17829 6.03433 11.9271 
10 1 3.68455 9.80672 21.6076 
13 1 2.37557 9.9218 22.0883 
15 1 3.01534 8.32643 17.8949 
28 1 3.68115 9.77679 20.1429 
30 1 4.41701 8.53668 19.7833 
34 1 4.34294 6.3035 18.6134 
40 1 7.8347 8.3687 11.9035 
49 1 4.8073 7.72582 20.9114 
50 1 2.07615 9.27428 18.5158 
58 1 1.56914 10.1538 11.8356 
59 1 4.14237 7.76839 14.1403 
69 1 3.67233 9.78312 11.16 
73 1 3.02352 8.3398 14.8784 
75 1 4.99016 6.30422 11.878 
79 1 7.2224 6.19918 21.8322 
82 1 7.93179 6.9317 20.8945 
86 1 3.68354 9.78065 12.6217 
88 1 2.35492 10.0497 13.069 
108 1 9.17623 6.03435 20.8355 
112 1 4.41893 8.54119 12.982 
115 1 4.34009 6.30811 14.1491 
124 1 4.81619 7.72873 11.8563 
125 1 2.07656 9.26933 14.2442 
126 1 6.87185 9.24346 21.7733 
128 1 7.83451 8.36766 20.8589 
139 1 1.56739 10.1584 20.9218 
140 1 4.13891 7.75733 18.6264 
143 1 7.93493 6.93221 11.8707 
146 1 4.31123 8.52225 22.0069 
149 1 4.9904 6.2953 20.9046 
157 1 2.35859 10.0549 19.6899 
ITEM: TIMESTEP
40
ITEM: NUMBER OF ATOMS
163
ITEM: BOX BOUNDS xy xz yz pp pp pp
-6.7755000000000001e+00 1.3552000000000000e+01 -6.7755000000000001e+00
0.0000000000000000e+00 1.1735510246683001e+01 0.0000000000000000e+00
0.0000000000000000e+00 2.2149999999999999e+01 0.0000000000000000e+00
ITEM: ATOMS id type x y z 
8 1 -2.44326 5.41035 9.83739 
87 1 2.95675 4.35127 10.6255 
90 1 2.65281 5.53852 9.76972 
109 1 -2.44351 5.41026 0.776247 
158 1 2.62714 5.44821 0.839312 
11 1 4.27502 4.24209 20.1115 
14 1 2.88855 4.15657 19.6986 
18 1 1.30003 5.86212 18.6036 
33 1 2.10773 4.21515 20.9047 
43 1 4.27992 4.23975 21.5524 
47 1 3.24188 5.80386 17.8243 
52 1 4.2479 4.25187 12.6341 
76 1 2.42497 4.94847 14.1831 
85 1 4.27858 4.21643 11.1818 
89 1 3.25817 5.80717 14.9517 
91 1 0.9867 5.11792 11.8067 
102 1 2.87884 4.17156 13.0565 
105 1 1.30897 5.84794 14.1988 
114 1 2.09068 4.27445 11.8404 
150 1 2.41892 4.9416 18.5833 
156 1 2.95901 4.28103 22.1278 
159 1 0.958933 5.04081 20.9235 
161 2 -0.454617 5.04915 13.0583 
162 2 0.157862 3.66537 13.5966 
163 3 -0.491069 3.118 13.1598 
5 1 -4.90643 10.5677 8.62508 
9 1 -3.31629 8.86431 7.52567 
19 1 -1.74376 7.5026 10.5512 
21 1 -2.61774 8.76289 10.8788 
23 1 -3.2977 7.55727 6.83558 
25 1 -4.12456 10.5071 9.82981 
32 1 1.60462 6.39305 0.752723 
36 1 -1.84016 7.54071 9.06971 
38 1 -2.15291 6.23095 8.63558 
54 1 0.325416 8.49224 10.6703 
57 1 1.37211 7.92664 9.79055 
60 1 -1.7451 7.5016 0.0622838 
65 1 -3.2981 7.55736 3.7783 
78 1 -1.84252 7.53981 1.54645 
80 1 -2.53083 8.79416 1.83115 
84 1 -4.43606 9.7813 3.10456 
99 1 -2.97511 9.68279 0.764938 
100 1 -2.93932 6.28643 3.17125 
107 1 -4.90642 10.5671 1.99017 
110 1 -3.31632 8.86359 3.08783 
111 1 0.585576 5.93114 10.7338 
113 1 1.50908 6.39036 9.81002 
119 1 -4.12523 10.5071 0.784985 
127 1 -2.15278 6.23068 1.97894 
131 1 -2.34487 6.22715 11.0186 
138 1 1.3782 7.9547 0.810426 
142 1 -2.53035 8.79523 8.78143 
145 1 -4.43639 9.7819 7.50933 
151 1 -4.97693 10.4409 11.0517 
154 1 -2.97462 9.68191 9.84772 
155 1 -2.93924 6.28694 7.44391 
12 1 2.5649 7.06742 17.1508 
17 1 0.425028 9.31469 20.9126 
24 1 -3.62045 8.32764 11.827 
27 1 -0.270689 7.22181 21.6282 
29 1 0.603247 5.96001 21.9535 
31 1 1.27953 7.16841 17.9113 
44 1 -0.176311 7.18249 20.1443 
46 1 0.133291 8.49176 19.7115 
51 1 -0.259732 7.20754 11.1485 
53 1 2.59024 7.07146 15.6168 
56 1 1.2987 7.15805 14.8451 
63 1 -2.3476 6.22463 21.7435 
66 1 -3.39664 6.77241 20.8782 
70 1 -0.163547 7.18465 12.6095 
72 1 0.337222 5.82763 13.0287 
92 1 0.922909 8.43131 14.2426 
95 1 -4.97773 10.441 21.7119 
98 1 -4.64686 9.27479 20.8499 
104 1 0.424293 9.30985 11.8387 
116 1 -2.61916 8.76517 21.8839 
118 1 -3.62152 8.32953 20.937 
122 1 0.129052 8.47352 13.0473 
133 1 -3.39649 6.77391 11.8855 
136 1 0.328973 8.50295 22.0954 
147 1 0.510129 5.92772 19.8555 
153 1 -4.64798 9.2746 11.9122 
160 1 0.919918 8.43676 18.5185 
1 1 7.82437 4.93811 10.5256 
4 1 9.13567 4.82557 11.0101 
20 1 7.81524 4.94486 9.06422 
42 1 9.44576 5.46496 7.44413 
67 1 9.95097 4.58758 0.775934 
77 1 7.81712 4.92813 0.0852725 
94 1 7.81705 4.9469 1.54956 
96 1 9.14992 4.69258 1.99918 
121 1 4.68948 5.51836 10.671 
130 1 9.44486 5.46506 3.17096 
134 1 9.95053 4.58813 9.83791 
152 1 9.14962 4.69165 8.61564 
45 1 4.6454 5.51701 22.0822 
55 1 4.80688 5.53555 13.0647 
106 1 9.13434 4.82815 21.7563 
137 1 4.81761 5.53594 19.6966 
2 1 7.2592 10.4822 9.037 
3 1 8.96919 7.65648 6.07805 
6 1 8.51208 6.39903 6.80726 
16 1 2.36616 8.69332 0.859805 
22 1 7.08562 6.17516 8.69519 
26 1 7.19867 8.40776 7.53198 
35 1 7.25235 10.4858 10.4782 
37 1 6.89127 9.20222 11.0109 
39 1 8.29289 8.92014 6.75053 
41 1 6.70566 6.98007 9.83568 
48 1 3.69676 6.34905 0.834963 
61 1 7.25933 10.4816 1.57754 
62 1 8.96877 7.65533 4.53774 
64 1 6.71534 9.18844 1.99083 
68 1 7.37954 6.95742 3.06754 
71 1 4.32545 8.51931 10.7438 
74 1 3.62276 7.77367 9.79943 
81 1 8.51115 6.39976 3.80753 
83 1 6.5408 8.40246 0.793455 
93 1 7.25312 10.4852 0.135732 
97 1 8.29275 8.91853 3.86162 
101 1 2.3969 9.86934 10.668 
103 1 2.38034 8.65257 9.77402 
117 1 7.08706 6.17594 1.9178 
120 1 7.19697 8.40713 3.08166 
123 1 3.80507 6.34548 9.78784 
129 1 6.70411 6.98056 0.776681 
132 1 6.71602 9.18902 8.62243 
135 1 7.38115 6.95759 7.54689 
141 1 7.20783 6.20153 10.9524 
144 1 6.54269 8.40154 9.82 
148 1 3.59569 7.80871 0.815093 
7 1 9.16853 6.03053 11.9358 
10 1 3.72725 9.8081 21.6089 
13 1 2.40137 9.89285 22.0796 
15 1 3.02326 8.3249 17.8842 
28 1 3.71594 9.77459 20.1406 
30 1 4.44654 8.54805 19.7721 
34 1 4.33588 6.3163 18.6029 
40 1 7.83842 8.3729 11.9081 
49 1 4.82973 7.74417 20.9137 
50 1 2.08973 9.25886 18.5187 
58 1 1.58331 10.1269 11.8431 
59 1 4.15615 7.77493 14.1464 
69 1 3.71613 9.78231 11.1559 
73 1 3.02892 8.3343 14.8858 
75 1 4.99955 6.32704 11.8823 
79 1 7.21076 6.20416 21.8145 
82 1 7.93882 6.91715 20.8727 
86 1 3.71571 9.77861 12.623 
88 1 2.38116 10.0271 13.0678 
108 1 9.16724 6.03117 20.8282 
112 1 4.45029 8.55521 12.9958 
115 1 4.34091 6.3226 14.1608 
124 1 4.83814 7.74511 11.8569 
125 1 2.08696 9.25568 14.2409 
126 1 6.88957 9.20395 21.7531 
128 1 7.83691 8.37388 20.8551 
139 1 1.58273 10.1362 20.9126 
140 1 4.15354 7.76576 18.6215 
143 1 7.94103 6.91731 11.8916 
146 1 4.32108 8.51824 22.025 
149 1 4.99273 6.32217 20.8968 
157 1 2.38527 10.0308 19.6904 
ITEM: TIMESTEP
50
ITEM: NUMBER OF ATOMS
163
ITEM: BOX BOUNDS xy xz yz pp pp pp
-6.7755000000000001e+00 1.3552000000000000e+01 -6.7755000000000001e+00
0.0000000000000000e+00 1.1735510246683001e+01 0.0000000000000000e+00
0.0000000000000000e+00 2.2149999999999999e+01 0.0000000000000000e+00
ITEM: ATOMS id type x y z 
8 1 -2.47654 5.4614 9.83155 
87 1 2.94287 4.41696 10.64 
90 1 2.63697 5.59168 9.7192 
109 1 -2.47582 5.46084 0.779981 
158 1 2.61256 5.46999 0.874451 
11 1 4.25199 4.31114 20.0792 
14 1 2.85782 4.17345 19.7156 
18 1 1.2824 5.87839 18.6035 
33 1 2.07769 4.21578 20.9259 
43 1 4.26148 4.30952 21.5233 
47 1 3.22586 5.7855 17.837 
52 1 4.22278 4.31821 12.6399 
76 1 2.3909 4.94729 14.1824 
85 1 4.25032 4.2963 11.1983 
89 1 3.24665 5.79395 14.9401 
91 1 0.913932 5.13447 11.7977 
102 1 2.83622 4.21017 13.0318 
105 1 1.28995 5.86416 14.214 
114 1 2.04786 4.32049 11.8212 
150 1 2.38333 4.94148 18.5861 
156 1 2.94371 4.31962 22.1135 
159 1 0.9086 5.02665 20.9266 
161 2 -0.521043 5.03228 13.1026 
162 2 0.152177 3.61457 13.6303 
163 3 -0.505232 3.11435 13.1493 
5 1 -4.87472 10.5482 8.63943 
9 1 -3.30028 8.84565 7.53118 
19 1 -1.73631 7.52956 10.5419 
21 1 -2.57437 8.78532 10.8821 
23 1 -3.30246 7.54822 6.84459 
25 1 -4.0951 10.5069 9.85214 
32 1 1.57165 6.39001 0.760547 
36 1 -1.78281 7.57536 9.0558 
38 1 -2.12361 6.27072 8.64159 
54 1 0.343674 8.45197 10.6673 
57 1 1.38534 7.91804 9.77373 
60 1 -1.73574 7.52609 0.0712843 
65 1 -3.30299 7.54698 3.77055 
78 1 -1.78607 7.57456 1.55854 
80 1 -2.48242 8.81947 1.83018 
84 1 -4.40116 9.78453 3.10142 
99 1 -2.92837 9.7004 0.765919 
100 1 -2.93028 6.2831 3.1586 
107 1 -4.87496 10.5479 1.974 
110 1 -3.30105 8.84613 3.08286 
111 1 0.535703 5.91769 10.7047 
113 1 1.47607 6.38339 9.77693 
119 1 -4.09601 10.5082 0.76056 
127 1 -2.12525 6.27087 1.97395 
131 1 -2.366 6.25749 11.013 
138 1 1.40345 7.95468 0.816464 
142 1 -2.48088 8.81924 8.78364 
145 1 -4.40092 9.78636 7.51272 
151 1 -4.96148 10.3989 11.0408 
154 1 -2.92904 9.69918 9.84899 
155 1 -2.92957 6.28296 7.4549 
12 1 2.57015 7.04159 17.1431 
17 1 0.457391 9.26253 20.9079 
24 1 -3.58197 8.34334 11.8393 
27 1 -0.280308 7.19716 21.6175 
29 1 0.567018 5.93915 21.959 
31 1 1.28573 7.1739 17.9181 
44 1 -0.232267 7.14884 20.1316 
46 1 0.107996 8.45396 19.7151 
51 1 -0.272876 7.16751 11.1537 
53 1 2.60099 7.05382 15.6264 
56 1 1.3037 7.16557 14.8536 
63 1 -2.36621 6.25278 21.7505 
66 1 -3.42285 6.77279 20.8731 
70 1 -0.22484 7.14998 12.619 
72 1 0.286836 5.80495 13.0537 
92 1 0.918465 8.43242 14.2332 
95 1 -4.96086 10.3985 21.7221 
98 1 -4.62954 9.23963 20.8191 
104 1 0.456509 9.24539 11.8382 
116 1 -2.5798 8.78598 21.8826 
118 1 -3.57942 8.33856 20.9249 
122 1 0.112686 8.42411 13.0441 
133 1 -3.42211 6.77154 11.8922 
136 1 0.345151 8.46908 22.0899 
147 1 0.46287 5.90452 19.8604 
153 1 -4.62696 9.23654 11.9459 
160 1 0.913344 8.44356 18.5311 
1 1 7.73381 4.9202 10.5279 
4 1 9.07189 4.85945 10.9857 
20 1 7.7301 4.94742 9.05393 
42 1 9.42694 5.48442 7.45192 
67 1 9.89953 4.65202 0.783708 
77 1 7.71908 4.90208 0.0799379 
94 1 7.73355 4.95226 1.55776 
96 1 9.07069 4.73491 1.99519 
121 1 4.67701 5.57985 10.6683 
130 1 9.42647 5.4855 3.16324 
134 1 9.90093 4.65113 9.8298 
152 1 9.07329 4.73454 8.61879 
45 1 4.61162 5.57308 22.0666 
55 1 4.80373 5.59705 13.075 
106 1 9.06834 4.86546 21.7826 
137 1 4.81832 5.59615 19.6863 
2 1 7.28106 10.4111 9.00669 
3 1 8.9637 7.684 6.06742 
6 1 8.50142 6.40738 6.81337 
16 1 2.3982 8.69268 0.880644 
22 1 7.00086 6.15104 8.66808 
26 1 7.20706 8.37624 7.50096 
35 1 7.27763 10.4124 10.452 
37 1 6.92173 9.15204 10.9931 
39 1 8.30828 8.93774 6.76201 
41 1 6.65181 6.9327 9.83149 
48 1 3.63934 6.38374 0.900456 
61 1 7.28045 10.4113 1.6078 
62 1 8.9643 7.68499 4.54586 
64 1 6.71601 9.1283 2.00299 
68 1 7.35215 6.92788 3.09192 
71 1 4.37896 8.50815 10.7231 
74 1 3.67475 7.79667 9.74676 
81 1 8.49924 6.40648 3.80059 
83 1 6.53618 8.36309 0.783261 
93 1 7.27551 10.4141 0.164299 
97 1 8.30701 8.93727 3.85288 
101 1 2.46901 9.81365 10.6921 
103 1 2.41426 8.62979 9.75834 
117 1 7.00196 6.15025 1.94346 
120 1 7.20648 8.37573 3.11168 
123 1 3.80132 6.37464 9.73669 
129 1 6.64918 6.93296 0.779572 
132 1 6.71718 9.12997 8.61033 
135 1 7.35184 6.92768 7.52235 
141 1 7.16936 6.20421 10.9759 
144 1 6.53922 8.36371 9.82901 
148 1 3.62502 7.82473 0.864458 
7 1 9.13928 6.02906 11.9589 
10 1 3.82439 9.84039 21.6097 
13 1 2.47571 9.85697 22.0509 
15 1 3.03433 8.31394 17.8848 
28 1 3.79676 9.76904 20.144 
30 1 4.52932 8.57413 19.7446 