ITEM: TIMESTEP
0
ITEM: NUMBER OF ATOMS
83
ITEM: BOX BOUNDS pp pp pp
0.0000000000000000e+00 1.3416000000000000e+01
0.0000000000000000e+00 1.3416000000000000e+01
0.0000000000000000e+00 1.3414999999999999e+01
ITEM: ATOMS id type x y z 
21 1 1.912 1.912 1.912 
22 1 2.794 2.794 2.795 
23 1 0.386 2.099 2.099 
33 1 2.098 2.099 0.386 
37 1 2.099 0.386 2.099 
41 1 4.371 4.372 4.372 
42 1 3.489 3.489 3.489 
43 1 4.184 5.897 4.185 
53 1 4.185 4.185 5.898 
57 1 5.897 4.185 4.185 
4 1 1.912 1.912 11.079 
5 1 2.794 2.794 10.197 
6 1 2.099 0.386 10.892 
16 1 2.098 2.099 12.605 
19 1 0.386 2.099 10.892 
64 1 4.371 4.372 8.62 
65 1 3.489 3.489 9.502 
66 1 5.897 4.185 8.807 
76 1 4.185 4.185 7.094 
79 1 4.184 5.897 8.807 
10 1 1.911 11.079 1.912 
11 1 2.794 10.197 2.795 
12 1 2.099 12.605 2.099 
15 1 2.099 10.892 0.386 
18 1 0.386 10.892 2.099 
67 1 4.372 8.62 4.371 
68 1 3.489 9.502 3.489 
69 1 5.897 8.807 4.185 
74 1 4.185 8.807 5.897 
80 1 4.185 7.094 4.185 
30 1 1.911 11.079 11.079 
31 1 2.794 10.197 10.197 
32 1 0.386 10.892 10.892 
35 1 2.099 10.892 12.605 
38 1 2.099 12.605 10.892 
47 1 4.372 8.62 8.62 
48 1 3.489 9.502 9.502 
49 1 4.184 7.094 8.807 
54 1 4.184 8.807 7.094 
60 1 5.897 8.807 8.807 
7 1 11.08 1.912 1.912 
8 1 10.197 2.794 2.795 
9 1 10.893 0.386 2.099 
14 1 10.893 2.099 0.386 
20 1 12.606 2.099 2.099 
70 1 8.62 4.372 4.372 
71 1 9.502 3.489 3.489 
72 1 7.094 4.185 4.185 
75 1 8.807 4.185 5.897 
78 1 8.807 5.898 4.185 
27 1 11.08 1.912 11.079 
28 1 10.197 2.794 10.197 
29 1 12.606 2.099 10.892 
34 1 10.893 2.099 12.605 
40 1 10.893 0.386 10.892 
50 1 8.62 4.372 8.62 
51 1 9.502 3.489 9.502 
52 1 8.807 5.897 8.807 
55 1 8.807 4.185 7.094 
58 1 7.094 4.185 8.807 
24 1 11.08 11.08 1.912 
25 1 10.197 10.197 2.795 
26 1 12.606 10.892 2.099 
36 1 10.893 10.892 0.386 
39 1 10.893 12.605 2.099 
44 1 8.62 8.62 4.372 
45 1 9.502 9.502 3.489 
46 1 8.807 7.094 4.185 
56 1 8.807 8.807 5.898 
59 1 7.094 8.807 4.185 
1 1 11.08 11.079 11.079 
2 1 10.197 10.197 10.197 
3 1 10.893 12.605 10.892 
13 1 10.893 10.892 12.605 
17 1 12.606 10.892 10.892 
61 1 8.62 8.62 8.62 
62 1 9.502 9.502 9.502 
63 1 7.094 8.807 8.807 
73 1 8.807 8.807 7.094 
77 1 8.807 7.094 8.807 
81 2 10.893 12.605 12.242 
82 2 9.498 13.203 12.23 
83 3 8.987 12.391 12.036 
ITEM: TIMESTEP
10
ITEM: NUMBER OF ATOMS
83
ITEM: BOX BOUNDS pp pp pp
0.0000000000000000e+00 1.3416000000000000e+01
0.0000000000000000e+00 1.3416000000000000e+01
0.0000000000000000e+00 1.3414999999999999e+01
ITEM: ATOMS id type x y z 
21 1 1.91212 1.91165 1.91227 
22 1 2.79494 2.79465 2.79399 
23 1 0.386729 2.09864 2.09868 
33 1 2.09767 2.09862 0.386871 
37 1 2.09856 0.385731 2.09861 
41 1 4.37142 4.37159 4.37182 
42 1 3.4886 3.48847 3.49038 
43 1 4.18471 5.89749 4.18525 
53 1 4.18534 4.18543 5.89747 
57 1 5.8973 4.18544 4.18541 
4 1 1.91651 1.91115 11.0794 
5 1 2.7953 2.79488 10.1965 
6 1 2.09914 0.385278 10.8922 
16 1 2.09823 2.0987 12.6059 
19 1 0.39497 2.10157 10.8919 
64 1 4.37119 4.37188 8.61973 
65 1 3.48928 3.48999 9.50211 
66 1 5.8964 4.18529 8.80671 
76 1 4.18527 4.1853 7.09389 
79 1 4.18445 5.89755 8.80661 
10 1 1.91241 11.0794 1.91232 
11 1 2.79491 10.1966 2.794 
12 1 2.09852 12.6055 2.09861 
15 1 2.09868 10.8924 0.386853 
18 1 0.38606 10.8921 2.09883 
67 1 4.37147 8.61977 4.37183 
68 1 3.48889 9.50243 3.48982 
69 1 5.89735 8.80663 4.18517 
74 1 4.1851 8.80643 5.8973 
80 1 4.18503 7.0939 4.18532 
30 1 1.90831 11.0786 11.0784 
31 1 2.79396 10.1956 10.1954 
32 1 0.389064 10.8988 10.8913 
35 1 2.0986 10.8921 12.6059 
38 1 2.09854 12.6057 10.8921 
47 1 4.37152 8.6195 8.61939 
48 1 3.49029 9.50212 9.50206 
49 1 4.1845 7.0939 8.8065 
54 1 4.18488 8.80655 7.09371 
60 1 5.89706 8.80647 8.80647 
7 1 11.0803 1.91184 1.91708 
8 1 10.1958 2.79531 2.79475 
9 1 10.893 0.385495 2.09913 
14 1 10.8933 2.10262 0.395213 
20 1 12.6068 2.0988 2.09917 
70 1 8.61957 4.37175 4.37156 
71 1 9.50203 3.48893 3.49062 
72 1 7.0936 4.18548 4.18537 
75 1 8.80664 4.18537 5.89661 
78 1 8.80663 5.89759 4.18524 
27 1 11.0768 1.88519 11.0702 
28 1 10.1867 2.79907 10.1848 
29 1 12.6196 2.10057 10.8884 
34 1 10.8899 2.10224 12.6187 
40 1 10.9434 0.459995 10.8863 
50 1 8.61563 4.3752 8.61633 
51 1 9.49787 3.49677 9.49732 
52 1 8.80664 5.89891 8.80667 
55 1 8.80659 4.18521 7.09233 
58 1 7.09222 4.18521 8.80667 
24 1 11.0791 11.0808 1.91466 
25 1 10.1955 10.1959 2.79502 
26 1 12.6067 10.8923 2.0992 
36 1 10.8936 10.8795 0.391045 
39 1 10.8928 12.6064 2.09908 
44 1 8.61955 8.61962 4.3721 
45 1 9.50236 9.50247 3.49017 
46 1 8.80662 7.09382 4.18532 
56 1 8.80658 8.80657 5.89778 
59 1 7.09364 8.80664 4.18534 
1 1 11.1192 10.9519 11.0999 
2 1 10.2084 10.1874 10.1993 
3 1 10.841 12.6778 10.9442 
13 1 10.8999 10.8246 12.6106 
17 1 12.6022 10.8792 10.8895 
61 1 8.62205 8.62372 8.62289 
62 1 9.49898 9.5044 9.50081 
63 1 7.09321 8.80688 8.80689 
73 1 8.80684 8.80691 7.09384 
77 1 8.80691 7.09445 8.80698 
81 2 10.8931 12.6639 12.1327 
82 2 9.45226 13.2025 12.2541 
83 3 8.97928 12.3998 12.0441 
ITEM: TIMESTEP
20
ITEM: NUMBER OF ATOMS
83
ITEM: BOX BOUNDS pp pp pp
0.0000000000000000e+00 1.3416000000000000e+01
0.0000000000000000e+00 1.3416000000000000e+01
0.0000000000000000e+00 1.3414999999999999e+01
ITEM: ATOMS id type x y z 
21 1 1.91457 1.91079 1.91724 
22 1 2.79699 2.79497 2.79459 
23 1 0.388673 2.09988 2.09994 
33 1 2.09922 2.10022 0.392904 
37 1 2.09938 0.383769 2.09941 
41 1 4.36994 4.37305 4.36966 
42 1 3.48887 3.4891 3.49193 
43 1 4.18464 5.89912 4.18503 
53 1 4.18465 4.18453 5.89464 
57 1 5.89502 4.18467 4.18476 
4 1 1.93874 1.91005 11.083 
5 1 2.80492 2.79564 10.1961 
6 1 2.1072 0.384171 10.8908 
16 1 2.10603 2.10025 12.6119 
19 1 0.414261 2.11137 10.8834 
64 1 4.36608 4.37523 8.61573 
65 1 3.49372 3.49341 9.49838 
66 1 5.88979 4.18212 8.80948 
76 1 4.18326 4.18473 7.08993 
79 1 4.18247 5.90072 8.80727 
10 1 1.91225 11.0785 1.91454 
11 1 2.79458 10.1966 2.79539 
12 1 2.09849 12.6037 2.09895 
15 1 2.09911 10.8917 0.389668 
18 1 0.385416 10.893 2.09976 
67 1 4.37163 8.62017 4.37094 
68 1 3.48954 9.50218 3.48948 
69 1 5.89687 8.80628 4.18535 
74 1 4.18492 8.80643 5.89563 
80 1 4.18502 7.09478 4.18529 
30 1 1.91638 11.0794 11.079 
31 1 2.79558 10.194 10.1945 
32 1 0.398121 10.8956 10.8857 
35 1 2.0983 10.8915 12.6087 
38 1 2.09998 12.6039 10.8894 
47 1 4.37154 8.6197 8.61804 
48 1 3.4896 9.50107 9.49838 
49 1 4.18412 7.09607 8.80719 
54 1 4.18483 8.80655 7.09124 
60 1 5.89465 8.80667 8.80731 
7 1 11.0827 1.91035 1.92941 
8 1 10.1982 2.79377 2.80176 
9 1 10.8925 0.384265 2.10461 
14 1 10.886 2.10929 0.397542 
20 1 12.608 2.09923 2.10496 
70 1 8.61633 4.37537 4.36509 
71 1 9.50066 3.49092 3.49225 
72 1 7.09065 4.1849 4.18374 
75 1 8.80915 4.18214 5.88971 
78 1 8.80682 5.90054 4.18365 
27 1 11.1015 1.9386 11.0709 
28 1 10.1876 2.80965 10.1756 
29 1 12.6376 2.12333 10.882 
34 1 10.8957 2.11777 12.6194 
40 1 10.9432 0.472734 10.8617 
50 1 8.60429 4.38844 8.60664 
51 1 9.48766 3.49683 9.4867 
52 1 8.80605 5.90963 8.80633 
55 1 8.8059 4.18638 7.08547 
58 1 7.0855 4.18619 8.80632 
24 1 11.0779 11.0765 1.90792 
25 1 10.1941 10.1961 2.79284 
26 1 12.6058 10.8935 2.09855 
36 1 10.9042 10.8396 0.398611 
39 1 10.8905 12.6039 2.09643 
44 1 8.61845 8.6205 4.37041 
45 1 9.50278 9.50468 3.49257 
46 1 8.80701 7.09634 4.18499 
56 1 8.80702 8.80641 5.89388 
59 1 7.0927 8.80638 4.18541 
1 1 11.1329 10.9172 11.1108 
2 1 10.2269 10.1548 10.2216 
3 1 10.8236 12.6739 10.9359 
13 1 10.9109 10.776 12.6145 
17 1 12.6069 10.8471 10.8929 
61 1 8.61774 8.63261 8.61772 
62 1 9.50446 9.49948 9.49793 
63 1 7.09058 8.81068 8.80832 
73 1 8.80776 8.81037 7.08995 
77 1 8.80983 7.10566 8.81013 
81 2 10.8867 12.6599 12.0971 
82 2 9.36462 13.2213 12.314 
83 3 8.94742 12.3941 12.0584 
ITEM: TIMESTEP
27
ITEM: NUMBER OF ATOMS
83
ITEM: BOX BOUNDS pp pp pp
0.0000000000000000e+00 1.3416000000000000e+01
0.0000000000000000e+00 1.3416000000000000e+01
0.0000000000000000e+00 1.3414999999999999e+01
ITEM: ATOMS id type x y z 
21 1 1.91315 1.91061 1.91659 
22 1 2.79468 2.79339 2.79624 
23 1 0.387178 2.09936 2.10156 
33 1 2.10048 2.10033 0.392061 
37 1 2.09959 0.38429 2.10013 
41 1 4.36981 4.37273 4.36971 
42 1 3.48943 3.48953 3.48902 
43 1 4.18396 5.89914 4.18429 
53 1 4.1836 4.18398 5.89423 
57 1 5.89569 4.1842 4.18388 
4 1 1.93576 1.91087 11.0835 
5 1 2.806 2.79507 10.198 
6 1 2.10888 0.383916 10.8905 
16 1 2.10777 2.10015 12.6115 
19 1 0.419302 2.1135 10.8844 
64 1 4.36693 4.37523 8.61526 
65 1 3.49429 3.4921 9.49993 
66 1 5.89114 4.18255 8.80906 
76 1 4.18233 4.18451 7.08999 
79 1 4.18158 5.90045 8.80731 
10 1 1.9116 11.0779 1.9146 
11 1 2.79433 10.1977 2.79564 
12 1 2.09897 12.6042 2.09946 
15 1 2.09894 10.8911 0.38853 
18 1 0.385744 10.8929 2.10027 
67 1 4.37104 8.62084 4.3699 
68 1 3.48889 9.50186 3.48904 
69 1 5.89684 8.80686 4.18472 
74 1 4.18435 8.80712 5.89585 
80 1 4.18448 7.09501 4.18461 
30 1 1.9111 11.0783 11.079 
31 1 2.79586 10.1964 10.1932 
32 1 0.400678 10.8917 10.8878 
35 1 2.09929 10.8917 12.6082 
38 1 2.10199 12.605 10.8894 
47 1 4.37002 8.62052 8.61671 
48 1 3.48966 9.50109 9.50039 
49 1 4.18318 7.09617 8.80777 
54 1 4.18441 8.80689 7.09182 
60 1 5.89634 8.80776 8.80792 
7 1 11.0809 1.91063 1.92185 
8 1 10.1984 2.7924 2.80082 
9 1 10.8922 0.384746 2.10366 
14 1 10.8898 2.10935 0.400211 
20 1 12.6074 2.09923 2.10482 
70 1 8.61767 4.3731 4.36693 
71 1 9.50264 3.49073 3.49031 
72 1 7.09161 4.18492 4.18282 
75 1 8.8087 4.18291 5.89022 
78 1 8.80677 5.89968 4.18278 
27 1 11.1052 1.94185 11.0705 
28 1 10.1884 2.81414 10.1735 
29 1 12.6415 2.12937 10.8808 
34 1 10.8972 2.12161 12.6211 
40 1 10.9404 0.478688 10.8575 
50 1 8.60733 4.38507 8.60746 
51 1 9.48559 3.50231 9.4858 
52 1 8.80469 5.9103 8.80531 
55 1 8.80444 4.18765 7.0858 
58 1 7.08647 4.18727 8.80541 
24 1 11.0774 11.0781 1.90959 
25 1 10.1971 10.1969 2.79535 
26 1 12.6057 10.8933 2.09893 
36 1 10.904 10.832 0.393972 
39 1 10.8908 12.6048 2.09612 
44 1 8.61903 8.62192 4.37034 
45 1 9.5009 9.50349 3.4895 
46 1 8.80754 7.09568 4.18404 
56 1 8.80759 8.80755 5.89557 
59 1 7.09288 8.80697 4.1847 
1 1 11.1283 10.9197 11.1269 
2 1 10.2286 10.1457 10.2167 
3 1 10.8253 12.6753 10.9375 
13 1 10.9158 10.7682 12.6064 
17 1 12.6147 10.8434 10.8913 
61 1 8.62119 8.63532 8.62027 
62 1 9.50511 9.49532 9.50111 
63 1 7.09162 8.81194 8.80827 
73 1 8.8076 8.81137 7.09104 
77 1 8.80916 7.10502 8.80921 
81 2 10.8824 12.6508 12.0888 
82 2 9.34494 13.224 12.3266 
83 3 8.9418 12.3932 12.063 
ITEM: TIMESTEP
30
ITEM: NUMBER OF ATOMS
83
ITEM: BOX BOUNDS pp pp pp
0.0000000000000000e+00 1.3416000000000000e+01
0.0000000000000000e+00 1.3416000000000000e+01
0.0000000000000000e+00 1.3414999999999999e+01
ITEM: ATOMS id type x y z 
21 1 1.91285 1.91054 1.91687 
22 1 2.79502 2.79368 2.79563 
23 1 0.387277 2.09931 2.10181 
33 1 2.10073 2.10032 0.392331 
37 1 2.09961 0.384108 2.10023 
41 1 4.37006 4.37287 4.36931 
42 1 3.48913 3.48922 3.4897 
43 1 4.18392 5.899 4.18424 
53 1 4.18344 4.18394 5.89414 
57 1 5.89571 4.18426 4.18377 
4 1 1.93645 1.91082 11.0836 
5 1 2.80654 2.79515 10.1979 
6 1 2.10926 0.383894 10.8904 
16 1 2.1081 2.10027 12.6118 
19 1 0.418781 2.11429 10.8844 
64 1 4.36701 4.37522 8.6153 
65 1 3.49469 3.4923 9.49986 
66 1 5.89089 4.18274 8.80891 
76 1 4.18223 4.18449 7.08988 
79 1 4.18152 5.90057 8.80731 
10 1 1.91169 11.0783 1.91455 
11 1 2.79402 10.1973 2.79537 
12 1 2.09899 12.6042 2.09951 
15 1 2.09901 10.8911 0.388862 
18 1 0.385383 10.8929 2.10031 
67 1 4.37103 8.62071 4.36996 
68 1 3.48901 9.50233 3.48927 
69 1 5.89698 8.80692 4.18461 
74 1 4.18432 8.80717 5.89573 
80 1 4.18441 7.09501 4.1845 
30 1 1.91193 11.0788 11.0787 
31 1 2.79625 10.1961 10.194 
32 1 0.400469 10.8909 10.8875 
35 1 2.09931 10.8916 12.6083 
38 1 2.1022 12.6047 10.8894 
47 1 4.37067 8.62044 8.6172 
48 1 3.48938 9.50121 9.49935 
49 1 4.18303 7.09624 8.80773 
54 1 4.18431 8.80697 7.09167 
60 1 5.89587 8.80786 8.8078 
7 1 11.0811 1.91045 1.92288 
8 1 10.1981 2.7928 2.80035 
9 1 10.892 0.384274 2.10339 
14 1 10.8899 2.10987 0.398536 
20 1 12.6074 2.09927 2.10482 
70 1 8.6179 4.37339 4.36669 
71 1 9.50244 3.49044 3.49067 
72 1 7.09157 4.18486 4.18275 
75 1 8.80861 4.183 5.89005 
78 1 8.80678 5.89985 4.18275 
27 1 11.1052 1.94175 11.07 
28 1 10.1894 2.8142 10.1746 
29 1 12.641 2.13007 10.8808 
34 1 10.8978 2.12196 12.6195 
40 1 10.9406 0.480733 10.8581 
50 1 8.60703 4.38581 8.60731 
51 1 9.48654 3.50202 9.48618 
52 1 8.80456 5.91012 8.80514 
55 1 8.80441 4.1877 7.08555 
58 1 7.08623 4.18725 8.80538 
24 1 11.0775 11.0778 1.90876 
25 1 10.1969 10.1969 2.79512 
26 1 12.6054 10.8935 2.09894 
36 1 10.9046 10.8308 0.394691 
39 1 10.8909 12.6044 2.09606 
44 1 8.61898 8.62182 4.37042 
45 1 9.50127 9.50326 3.48923 
46 1 8.80747 7.09569 4.18397 
56 1 8.80756 8.80771 5.8952 
59 1 7.09299 8.80703 4.18467 
1 1 11.1301 10.9183 11.1241 
2 1 10.2309 10.147 10.2201 
3 1 10.8253 12.6766 10.9366 
13 1 10.9159 10.7665 12.6082 
17 1 12.6122 10.8429 10.8921 
61 1 8.62058 8.6347 8.61986 
62 1 9.50536 9.49396 9.5005 
63 1 7.09173 8.8122 8.80839 
73 1 8.80774 8.81163 7.09116 
77 1 8.80904 7.10551 8.8091 
81 2 10.8816 12.6497 12.0877 
82 2 9.34116 13.2246 12.3291 
83 3 8.94064 12.393 12.0639 
ITEM: TIMESTEP
40
ITEM: NUMBER OF ATOMS
83
ITEM: BOX BOUNDS pp pp pp
0.0000000000000000e+00 1.3416000000000000e+01
0.0000000000000000e+00 1.3416000000000000e+01
0.0000000000000000e+00 1.3414999999999999e+01
ITEM: ATOMS id type x y z 
21 1 1.91164 1.91 1.9181 
22 1 2.79288 2.79438 2.79672 
23 1 0.385659 2.09871 2.10403 
33 1 2.10347 2.10023 0.393592 
37 1 2.09987 0.383781 2.10162 
41 1 4.37143 4.37276 4.36782 
42 1 3.48808 3.49106 3.48902 
43 1 4.18368 5.89877 4.18327 
53 1 4.18201 4.18346 5.8925 
57 1 5.89704 4.18432 4.18219 
4 1 1.94145 1.91079 11.0851 
5 1 2.81098 2.79492 10.1992 
6 1 2.11329 0.384042 10.8903 
16 1 2.11214 2.10063 12.6134 
19 1 0.422865 2.12283 10.8847 
64 1 4.36693 4.37613 8.61426 
65 1 3.49783 3.49195 9.50049 
66 1 5.89101 4.18436 8.80729 
76 1 4.18067 4.18433 7.08838 
79 1 4.18024 5.90153 8.80716 
10 1 1.91104 11.0788 1.91451 
11 1 2.79241 10.1962 2.79547 
12 1 2.0996 12.604 2.1006 
15 1 2.0995 10.8908 0.388814 
18 1 0.384976 10.8933 2.10104 
67 1 4.37157 8.62072 4.36987 
68 1 3.48807 9.50172 3.48921 
69 1 5.89753 8.80768 4.18366 
74 1 4.18379 8.80787 5.89512 
80 1 4.18381 7.09509 4.18368 
30 1 1.91314 11.079 11.0786 
31 1 2.79527 10.195 10.1932 
32 1 0.401047 10.8828 10.8884 
35 1 2.09991 10.8912 12.6082 
38 1 2.10524 12.6051 10.8888 
47 1 4.37193 8.62129 8.61676 
48 1 3.49115 9.50207 9.49945 
49 1 4.18155 7.09695 8.80781 
54 1 4.18375 8.80769 7.09096 
60 1 5.89686 8.80985 8.80746 
7 1 11.0808 1.90973 1.92023 
8 1 10.1981 2.79315 2.79781 
9 1 10.8913 0.383117 2.10028 
14 1 10.895 2.1137 0.39423 
20 1 12.6064 2.09866 2.10522 
70 1 8.61899 4.37372 4.36513 
71 1 9.50086 3.48809 3.48751 
72 1 7.0929 4.18479 4.18172 
75 1 8.80785 4.1841 5.88964 
78 1 8.80707 5.90057 4.18171 
27 1 11.1095 1.94983 11.067 
28 1 10.1956 2.82191 10.1765 
29 1 12.6443 2.14162 10.8786 
34 1 10.9039 2.12909 12.6145 
40 1 10.9403 0.489236 10.8561 
50 1 8.60646 4.38792 8.60667 
51 1 9.48949 3.50796 9.48661 
52 1 8.80269 5.91184 8.80295 
55 1 8.80323 4.18918 7.08472 
58 1 7.08612 4.18832 8.80443 
24 1 11.0779 11.0758 1.90738 
25 1 10.1953 10.1951 2.79281 
26 1 12.6057 10.8937 2.09953 
36 1 10.9093 10.8145 0.394682 
39 1 10.8908 12.6043 2.09383 
44 1 8.61957 8.62125 4.37059 
45 1 9.5019 9.50158 3.48742 
46 1 8.807 7.09586 4.18307 
56 1 8.80779 8.80996 5.89604 
59 1 7.09325 8.80782 4.18397 
1 1 11.134 10.9111 11.1238 
2 1 10.2373 10.1355 10.2268 
3 1 10.8246 12.6874 10.9271 
13 1 10.921 10.7485 12.6121 
17 1 12.6125 10.8344 10.8951 
61 1 8.6215 8.63622 8.62085 
62 1 9.51527 9.48675 9.50718 
63 1 7.09188 8.81508 8.80928 
73 1 8.80862 8.81439 7.09091 
77 1 8.8071 7.1065 8.80723 
81 2 10.869 12.6324 12.0762 
82 2 9.29235 13.2318 12.361 
83 3 8.92622 12.3904 12.0758 
ITEM: TIMESTEP
50
ITEM: NUMBER OF ATOMS
83
ITEM: BOX BOUNDS pp pp pp
0.0000000000000000e+00 1.3416000000000000e+01
0.0000000000000000e+00 1.3416000000000000e+01
0.0000000000000000e+00 1.3414999999999999e+01
ITEM: ATOMS id type x y z 
21 1 1.91098 1.91056 1.9186 
22 1 2.79335 2.79429 2.79684 
23 1 0.386082 2.09855 2.10447 
33 1 2.10391 2.10017 0.394955 
37 1 2.09979 0.384173 2.10206 
41 1 4.37076 4.3733 4.36778 
42 1 3.4887 3.49002 3.48856 
43 1 4.18371 5.89934 4.1829 
53 1 4.18183 4.18352 5.89256 
57 1 5.89695 4.18443 4.18189 
4 1 1.94217 1.9112 11.0857 
5 1 2.81316 2.79335 10.2005 
6 1 2.11443 0.384539 10.8905 
16 1 2.11361 2.10048 12.6134 
19 1 0.423335 2.1253 10.8848 
64 1 4.36759 4.37626 8.61388 
65 1 3.49705 3.49348 9.49885 
66 1 5.89006 4.18485 8.80672 
76 1 4.18038 4.18445 7.08776 
79 1 4.17985 5.90168 8.80692 
10 1 1.91088 11.078 1.91439 
11 1 2.79311 10.1967 2.79554 
12 1 2.09967 12.6038 2.10089 
15 1 2.09947 10.8908 0.38871 
18 1 0.385209 10.8934 2.1013 
67 1 4.37117 8.62028 4.36952 
68 1 3.48848 9.50219 3.4892 
69 1 5.89734 8.80776 4.18353 
74 1 4.18364 8.80788 5.89492 
80 1 4.18379 7.09482 4.18352 
30 1 1.91249 11.0786 11.0782 
31 1 2.79782 10.196 10.1942 
32 1 0.401004 10.881 10.889 
35 1 2.10009 10.8912 12.6082 
38 1 2.10574 12.6045 10.8887 
47 1 4.37218 8.62137 8.61688 
48 1 3.48919 9.50136 9.49792 
49 1 4.18149 7.0975 8.80768 
54 1 4.18389 8.80797 7.09104 
60 1 5.8969 8.81057 8.80747 
7 1 11.0804 1.90915 1.919 
8 1 10.1976 2.79178 2.79522 
9 1 10.8912 0.383684 2.09892 
14 1 10.8967 2.11499 0.392577 
20 1 12.6049 2.0983 2.10534 
70 1 8.6188 4.37291 4.36471 
71 1 9.50218 3.4902 3.48817 
72 1 7.09279 4.18478 4.18111 
75 1 8.80758 4.18446 5.88804 
78 1 8.80697 5.89944 4.1812 
27 1 11.1118 1.95233 11.0668 
28 1 10.195 2.82707 10.1741 
29 1 12.6487 2.14483 10.878 
34 1 10.9058 2.13116 12.6158 
40 1 10.9406 0.490307 10.8563 
50 1 8.60652 4.38813 8.60665 
51 1 9.49192 3.50862 9.48796 
52 1 8.80206 5.91194 8.80234 
55 1 8.80305 4.18962 7.08459 
58 1 7.08624 4.1887 8.80421 
24 1 11.0782 11.0748 1.90687 
25 1 10.1955 10.1951 2.79139 
26 1 12.6049 10.8937 2.09977 
36 1 10.9108 10.8103 0.398045 
39 1 10.8909 12.6021 2.09243 
44 1 8.61987 8.62109 4.37086 
45 1 9.50003 9.50234 3.48788 
46 1 8.80717 7.09615 4.18298 
56 1 8.80792 8.81041 5.8953 
59 1 7.09367 8.80786 4.18389 
1 1 11.1356 10.9091 11.1261 
2 1 10.2411 10.133 10.23 
3 1 10.8239 12.6883 10.9246 
13 1 10.9229 10.7437 12.6087 
17 1 12.6134 10.8319 10.8959 
61 1 8.62197 8.63716 8.62104 
62 1 9.5156 9.48264 9.50678 
63 1 7.09309 8.81601 8.80951 
73 1 8.80884 8.81538 7.09187 
77 1 8.80657 7.10814 8.8066 
81 2 10.8634 12.6281 12.0719 
82 2 9.27666 13.2338 12.3712 
83 3 8.92199 12.3898 12.0799 
ITEM: TIMESTEP
60
ITEM: NUMBER OF ATOMS
83
ITEM: BOX BOUNDS pp pp pp
0.0000000000000000e+00 1.3416000000000000e+01
0.0000000000000000e+00 1.3416000000000000e+01
0.0000000000000000e+00 1.3414999999999999e+01
ITEM: ATOMS id type x y z 
21 1 1.90607 1.91001 1.9241 
22 1 2.79515 2.78968 2.79786 
23 1 0.379441 2.0971 2.10976 
33 1 2.11014 2.0993 0.402321 
37 1 2.0978 0.383782 2.10657 
41 1 4.37015 4.37447 4.36482 
42 1 3.49494 3.4852 3.48598 
43 1 4.18266 5.9007 4.17873 
53 1 4.17855 4.18433 5.88879 
57 1 5.89627 4.18631 4.17797 
4 1 1.96181 1.91104 11.0938 
5 1 2.82848 2.79001 10.2023 
6 1 2.12577 0.384359 10.8935 
16 1 2.12902 2.09942 12.6215 
19 1 0.447135 2.15291 10.8849 
64 1 4.36518 4.38127 8.6083 
65 1 3.49842 3.49625 9.49486 
66 1 5.88912 4.18971 8.80152 
76 1 4.17742 4.18556 7.08409 
79 1 4.17666 5.90537 8.8042 
10 1 1.91236 11.0785 1.9142 
11 1 2.7969 10.2011 2.79577 
12 1 2.09942 12.6038 2.10331 
15 1 2.09974 10.8909 0.388721 
18 1 0.386286 10.8945 2.10475 
67 1 4.37212 8.6213 4.36843 
68 1 3.49186 9.50489 3.48848 
69 1 5.89831 8.80798 4.18229 
74 1 4.18305 8.80856 5.89354 
80 1 4.18321 7.09649 4.1802 
30 1 1.91651 11.0787 11.0782 
31 1 2.80664 10.1985 10.1957 
32 1 0.410378 10.8609 10.8937 
35 1 2.10149 10.8917 12.6082 
38 1 2.11126 12.6047 10.8889 
47 1 4.37462 8.62254 8.61398 
48 1 3.48706 9.50182 9.49098 
49 1 4.18024 7.10089 8.80592 
54 1 4.18504 8.80989 7.0895 
60 1 5.90069 8.81841 8.80776 
7 1 11.0752 1.90274 1.90887 
8 1 10.1972 2.79172 2.78531 
9 1 10.889 0.374196 2.08195 
14 1 10.9124 2.12934 0.385461 
20 1 12.5993 2.09386 2.10637 
70 1 8.61974 4.37056 4.35797 
71 1 9.50983 3.49564 3.47767 
72 1 7.09195 4.18378 4.17456 
75 1 8.80521 4.18729 5.88187 
78 1 8.80654 5.89708 4.17653 
27 1 11.1347 1.97985 11.0595 
28 1 10.2126 2.85847 10.1728 
29 1 12.6722 2.17864 10.8719 
34 1 10.9289 2.15376 12.6081 
40 1 10.9499 0.510039 10.8706 
50 1 8.60378 4.39604 8.60058 
51 1 9.50345 3.53265 9.48441 
52 1 8.79438 5.91915 8.7942 
55 1 8.79998 4.19568 7.07821 
58 1 7.08515 4.19345 8.80058 
24 1 11.0783 11.0623 1.89957 
25 1 10.187 10.1935 2.78889 
26 1 12.6071 10.8916 2.10305 
36 1 10.9269 10.7631 0.400195 
39 1 10.8907 12.5943 2.0755 
44 1 8.61896 8.61932 4.37251 
45 1 9.48956 9.5054 3.48511 
46 1 8.8076 7.09284 4.18177 
56 1 8.80945 8.81642 5.89609 
59 1 7.09426 8.80767 4.18386 
1 1 11.1511 10.8689 11.1413 
2 1 10.2668 10.0945 10.2517 
3 1 10.8107 12.7058 10.8858 
13 1 10.9432 10.6927 12.6133 
17 1 12.619 10.8038 10.9059 
61 1 8.62748 8.64588 8.62233 
62 1 9.53762 9.45226 9.5207 
63 1 7.09616 8.82785 8.81261 
73 1 8.81274 8.82661 7.09178 
77 1 8.80084 7.11536 8.79964 
81 2 10.7928 12.587 12.0204 
82 2 9.09498 13.2532 12.4874 
83 3 8.87397 12.3859 12.13 
ITEM: TIMESTEP
70
ITEM: NUMBER OF ATOMS
83
ITEM: BOX BOUNDS pp pp pp
0.0000000000000000e+00 1.3416000000000000e+01
0.0000000000000000e+00 1.3416000000000000e+01
0.0000000000000000e+00 1.3414999999999999e+01
ITEM: ATOMS id type x y z 
21 1 1.90601 1.90944 1.92503 
22 1 2.79394 2.79048 2.79872 
23 1 0.37984 2.09639 2.10989 
33 1 2.11103 2.09898 0.403088 
37 1 2.0975 0.384048 2.10708 
41 1 4.37198 4.37403 4.36346 
42 1 3.49294 3.48675 3.48678 
43 1 4.18257 5.90032 4.1783 
53 1 4.17874 4.18418 5.88771 
57 1 5.8977 4.18585 4.17726 
4 1 1.96352 1.91182 11.0935 
5 1 2.8258 2.79293 10.2012 
6 1 2.12608 0.384651 10.8937 
16 1 2.12997 2.0999 12.6223 
19 1 0.449734 2.15223 10.8845 
64 1 4.36525 4.38095 8.60794 
65 1 3.50453 3.49428 9.4968 
66 1 5.88852 4.19024 8.80123 
76 1 4.17658 4.18601 7.08294 
79 1 4.17648 5.90581 8.80408 
10 1 1.91273 11.0794 1.91505 
11 1 2.79587 10.1999 2.79548 
12 1 2.0996 12.6041 2.10384 
15 1 2.10041 10.8911 0.389347 
18 1 0.386846 10.8941 2.10536 
67 1 4.37225 8.6218 4.3682 
68 1 3.49143 9.50427 3.48817 
69 1 5.89771 8.80834 4.18223 
74 1 4.18353 8.80928 5.89297 
80 1 4.18303 7.09602 4.17975 
30 1 1.91755 11.078 11.078 
31 1 2.80145 10.1961 10.1916 
32 1 0.412359 10.8626 10.8939 
35 1 2.10239 10.8913 12.6091 
38 1 2.11215 12.6051 10.8892 
47 1 4.37588 8.62416 8.61364 
48 1 3.49405 9.5037 9.4949 
49 1 4.1802 7.1011 8.8057 
54 1 4.1848 8.80981 7.08879 
60 1 5.90046 8.81915 8.80774 
7 1 11.0765 1.9032 1.9098 
8 1 10.1995 2.79201 2.78679 
9 1 10.8885 0.374313 2.07969 
14 1 10.9121 2.12917 0.385868 
20 1 12.5995 2.09336 2.10617 
70 1 8.61996 4.37167 4.35627 
71 1 9.50517 3.49202 3.47678 
72 1 7.09339 4.18418 4.17422 
75 1 8.80541 4.18723 5.88104 
78 1 8.80718 5.89793 4.17633 
27 1 11.1369 1.98511 11.0604 
28 1 10.2127 2.85959 10.1714 
29 1 12.6749 2.17805 10.8713 
34 1 10.9298 2.1543 12.6089 
40 1 10.9517 0.516074 10.8816 
50 1 8.6043 4.39632 8.59971 
51 1 9.50385 3.53306 9.48227 
52 1 8.79423 5.9191 8.79319 
55 1 8.79971 4.19602 7.07761 
58 1 7.08476 4.19377 8.79995 
24 1 11.0785 11.0623 1.90091 
25 1 10.1876 10.1933 2.79031 
26 1 12.6076 10.8904 2.10321 
36 1 10.9263 10.7645 0.402383 
39 1 10.8902 12.5939 2.07328 
44 1 8.61804 8.61915 4.37226 
45 1 9.49197 9.50224 3.48578 
46 1 8.80687 7.09369 4.18159 
56 1 8.80974 8.8173 5.89607 
59 1 7.09365 8.80737 4.18378 
1 1 11.1551 10.8533 11.1432 
2 1 10.2678 10.0891 10.2525 
3 1 10.8056 12.7034 10.8759 
13 1 10.9445 10.6912 12.614 
17 1 12.6219 10.8016 10.9064 
61 1 8.62655 8.64659 8.62247 
62 1 9.5359 9.45253 9.51904 
63 1 7.09565 8.82876 8.81293 
73 1 8.81384 8.82731 7.09148 
77 1 8.8006 7.11541 8.79934 
81 2 10.781 12.5949 12.01 
82 2 9.08285 13.253 12.4944 
83 3 8.87066 12.3867 12.136 
ITEM: TIMESTEP
80
ITEM: NUMBER OF ATOMS
83
ITEM: BOX BOUNDS pp pp pp
0.0000000000000000e+00 1.3416000000000000e+01
0.0000000000000000e+00 1.3416000000000000e+01
0.0000000000000000e+00 1.3414999999999999e+01
ITEM: ATOMS id type x y z 
21 1 1.90679 1.90956 1.92596 
22 1 2.79211 2.79225 2.7996 
23 1 0.380539 2.09564 2.11049 
33 1 2.11266 2.09891 0.40351 
37 1 2.09786 0.384057 2.10873 
41 1 4.37332 4.37392 4.36231 
42 1 3.49012 3.48944 3.48844 
43 1 4.18291 5.89987 4.17717 
53 1 4.17882 4.18431 5.88609 
57 1 5.89875 4.18503 4.17546 
4 1 1.96593 1.91281 11.0936 
5 1 2.82891 2.79493 10.2027 
6 1 2.12803 0.384789 10.8942 
16 1 2.13236 2.10047 12.6237 
19 1 0.453187 2.15053 10.8831 
64 1 4.3661 4.38099 8.60619 
65 1 3.50771 3.49462 9.49763 
66 1 5.88974 4.19104 8.80035 
76 1 4.17585 4.18636 7.08178 
79 1 4.1762 5.90623 8.80358 
10 1 1.91291 11.0799 1.91625 
11 1 2.79515 10.1979 2.794 
12 1 2.10006 12.6043 2.10543 
15 1 2.10189 10.8912 0.389776 
18 1 0.387759 10.8928 2.10635 
67 1 4.37134 8.62137 4.36749 
68 1 3.48971 9.50304 3.48841 
69 1 5.89679 8.80889 4.18144 
74 1 4.18334 8.81004 5.89251 
80 1 4.18258 7.09556 4.17889 
30 1 1.91906 11.0786 11.0777 
31 1 2.80345 10.1966 10.1916 
32 1 0.415777 10.8641 10.8939 
35 1 2.10428 10.8908 12.6096 
38 1 2.11371 12.6065 10.8895 
47 1 4.37688 8.62491 8.6131 
48 1 3.49608 9.50292 9.49548 
49 1 4.18046 7.10181 8.80525 
54 1 4.18507 8.81098 7.08806 
60 1 5.90023 8.82147 8.80842 
7 1 11.0774 1.90373 1.90976 
8 1 10.1971 2.78936 2.78631 
9 1 10.8879 0.373839 2.07618 
14 1 10.9124 2.12919 0.386599 
20 1 12.6013 2.09296 2.10696 
70 1 8.62127 4.37238 4.35463 
71 1 9.50271 3.48753 3.47761 
72 1 7.09477 4.18424 4.17251 
75 1 8.80587 4.18751 5.8801 
78 1 8.80825 5.89855 4.17473 
27 1 11.142 1.99431 11.065 
28 1 10.2206 2.86231 10.1735 
29 1 12.6745 2.17935 10.8716 
34 1 10.932 2.15848 12.6069 
40 1 10.9509 0.517845 10.8897 
50 1 8.60402 4.39541 8.59769 
51 1 9.50418 3.53476 9.4805 
52 1 8.79397 5.92009 8.7915 
55 1 8.79966 4.19598 7.07429 
58 1 7.08368 4.19432 8.79867 
24 1 11.0788 11.0623 1.90254 
25 1 10.1902 10.1914 2.79224 
26 1 12.6082 10.8888 2.10441 
36 1 10.9261 10.7665 0.405201 
39 1 10.8892 12.5946 2.07014 
44 1 8.61698 8.61942 4.37216 
45 1 9.49524 9.4993 3.48821 
46 1 8.80664 7.09454 4.18105 
56 1 8.81083 8.81889 5.89544 
59 1 7.09239 8.8078 4.18328 
1 1 11.1608 10.8322 11.1474 
2 1 10.271 10.0787 10.2544 
3 1 10.8022 12.7089 10.8604 
13 1 10.9464 10.6879 12.6165 
17 1 12.6247 10.7956 10.9074 
61 1 8.62558 8.64722 8.62133 
62 1 9.53572 9.45099 9.51771 
63 1 7.09519 8.83117 8.81375 
73 1 8.81525 8.82934 7.09034 
77 1 8.80008 7.1137 8.79839 
81 2 10.7543 12.6018 11.9917 
82 2 9.0585 13.2547 12.5098 
83 3 8.8628 12.3859 12.1487 
ITEM: TIMESTEP
90
ITEM: NUMBER OF ATOMS
83
ITEM: BOX BOUNDS pp pp pp
0.0000000000000000e+00 1.3416000000000000e+01
0.0000000000000000e+00 1.3416000000000000e+01
0.0000000000000000e+00 1.3414999999999999e+01
ITEM: ATOMS id type x y z 
21 1 1.90711 1.9097 1.92585 
22 1 2.78941 2.79426 2.80046 
23 1 0.381924 2.09504 2.11164 
33 1 2.11518 2.09897 0.40443 
37 1 2.09911 0.384227 2.11127 
41 1 4.37425 4.37431 4.36115 
42 1 3.4883 3.49096 3.48862 
43 1 4.18332 5.89956 4.17542 
53 1 4.17862 4.18457 5.88494 
57 1 5.90041 4.18439 4.17256 
4 1 1.97021 1.91362 11.0954 
5 1 2.83498 2.79506 10.2045 
6 1 2.13117 0.386497 10.8946 
16 1 2.13511 2.10088 12.6243 
19 1 0.455297 2.15095 10.8829 
64 1 4.36731 4.38299 8.60498 
65 1 3.50965 3.49964 9.50089 
66 1 5.89099 4.19216 8.79791 
76 1 4.17581 4.18619 7.08027 
79 1 4.17726 5.90628 8.80186 
10 1 1.91317 11.0791 1.91514 
11 1 2.79483 10.1969 2.79289 
12 1 2.10076 12.6049 2.10794 
15 1 2.10346 10.8911 0.390143 
18 1 0.388041 10.891 2.10795 
67 1 4.36986 8.62026 4.36686 
68 1 3.48957 9.5017 3.48686 
69 1 5.89533 8.80946 4.1803 
74 1 4.1826 8.81128 5.89218 
80 1 4.18189 7.0955 4.17739 
30 1 1.92239 11.0809 11.0788 
31 1 2.80393 10.1965 10.1917 
32 1 0.418543 10.8628 10.8953 
35 1 2.10724 10.8914 12.61 
38 1 2.11707 12.6074 10.8903 
47 1 4.37735 8.6245 8.613 
48 1 3.49806 9.50366 9.49642 
49 1 4.18086 7.1015 8.80403 
54 1 4.18528 8.81251 7.08792 
60 1 5.90064 8.82485 8.80934 
7 1 11.078 1.90283 1.90951 
8 1 10.1941 2.78415 2.78775 
9 1 10.8871 0.374035 2.07196 
14 1 10.9145 2.13358 0.386555 
20 1 12.6025 2.09267 2.10797 
70 1 8.62179 4.37251 4.35346 
71 1 9.49977 3.48318 3.47715 
72 1 7.09605 4.18393 4.16983 
75 1 8.80615 4.18813 5.87797 
78 1 8.80965 5.89871 4.1723 
27 1 11.1436 1.99853 11.0665 
28 1 10.2234 2.86657 10.1751 
29 1 12.678 2.18053 10.8719 
34 1 10.9339 2.16396 12.6075 
40 1 10.9515 0.522858 10.8808 
50 1 8.60676 4.39387 8.59654 
51 1 9.51035 3.53825 9.481 
52 1 8.79316 5.91845 8.78873 
55 1 8.80026 4.19566 7.07312 
58 1 7.08606 4.19453 8.79679 
24 1 11.0799 11.0624 1.90403 
25 1 10.1934 10.1888 2.79417 
26 1 12.6088 10.8872 2.10663 
36 1 10.9276 10.7676 0.40739 
39 1 10.8882 12.5943 2.06772 
44 1 8.61633 8.61929 4.37248 
45 1 9.49782 9.4972 3.48985 
46 1 8.80685 7.09422 4.17972 
56 1 8.81198 8.82145 5.89511 
59 1 7.09113 8.80889 4.18218 
1 1 11.1651 10.8169 11.1509 
2 1 10.276 10.0672 10.2584 
3 1 10.8049 12.7165 10.8482 
13 1 10.9484 10.685 12.6179 
17 1 12.6273 10.7883 10.9089 
61 1 8.62592 8.6467 8.62049 
62 1 9.53812 9.44436 9.5183 
63 1 7.09533 8.83443 8.81446 
73 1 8.81661 8.83173 7.08994 
77 1 8.79835 7.11318 8.79524 
81 2 10.7078 12.6005 11.9722 
82 2 9.02153 13.2575 12.5335 
83 3 8.85571 12.3849 12.1665 
ITEM: TIMESTEP
100
ITEM: NUMBER OF ATOMS
83
ITEM: BOX BOUNDS pp pp pp
0.0000000000000000e+00 1.3416000000000000e+01
0.0000000000000000e+00 1.3416000000000000e+01
0.0000000000000000e+00 1.3414999999999999e+01
ITEM: ATOMS id type x y z 
21 1 1.90754 1.90929 1.92813 
22 1 2.79124 2.79329 2.80049 
23 1 0.380151 2.09537 2.11207 
33 1 2.11582 2.09938 0.404499 
37 1 2.09922 0.383485 2.11213 
41 1 4.3742 4.37386 4.36096 
42 1 3.48904 3.49205 3.48844 
43 1 4.18311 5.89984 4.17483 
53 1 4.17899 4.18438 5.88517 
57 1 5.89905 4.18452 4.17169 
4 1 1.97125 1.91494 11.0952 
5 1 2.83242 2.79844 10.2049 
6 1 2.13327 0.387175 10.8952 
16 1 2.13705 2.10113 12.6243 
19 1 0.457129 2.15091 10.8838 
64 1 4.36788 4.38249 8.60554 