ITEM: TIMESTEP
0
ITEM: NUMBER OF ATOMS
129
ITEM: BOX BOUNDS pp pp pp
0.0000000000000000e+00 1.8762000000000000e+01
0.0000000000000000e+00 1.8762000000000000e+01
0.0000000000000000e+00 1.8760999999999999e+01
ITEM: ATOMS id type x y z 
1 1 3.12 3.119 3.121 
10 1 5.595 5.596 5.595 
17 1 4.011 4.011 4.012 
26 1 4.704 4.704 4.704 
33 1 0.414 3.456 3.456 
41 1 3.456 0.413 3.456 
49 1 3.456 3.456 0.414 
58 1 8.301 5.259 5.259 
66 1 5.259 8.301 5.259 
74 1 5.259 5.259 8.301 
81 1 1.612 3.354 3.354 
89 1 3.353 1.612 3.354 
97 1 3.354 3.354 1.613 
106 1 7.103 5.361 5.361 
114 1 5.362 7.103 5.361 
122 1 5.361 5.361 7.103 
4 1 3.12 3.12 14.976 
11 1 5.595 5.595 12.5 
20 1 4.011 4.011 14.084 
27 1 4.704 4.704 13.392 
36 1 0.414 3.456 14.639 
46 1 3.456 0.414 14.639 
56 1 3.456 3.456 17.682 
59 1 8.301 5.259 12.837 
69 1 5.259 8.301 12.837 
79 1 5.259 5.259 9.794 
84 1 1.612 3.354 14.742 
94 1 3.354 1.612 14.742 
104 1 3.354 3.354 16.483 
107 1 7.103 5.361 12.735 
117 1 5.361 7.103 12.735 
127 1 5.361 5.361 10.993 
6 1 3.12 14.976 3.12 
13 1 5.595 12.501 5.596 
22 1 4.011 14.085 4.011 
29 1 4.704 13.392 4.705 
38 1 0.414 14.64 3.457 
48 1 3.456 17.682 3.456 
52 1 3.456 14.64 0.414 
61 1 8.301 12.837 5.259 
71 1 5.259 9.794 5.259 
75 1 5.259 12.837 8.301 
86 1 1.612 14.742 3.354 
96 1 3.354 16.483 3.354 
100 1 3.354 14.742 1.612 
109 1 7.103 12.735 5.361 
119 1 5.361 10.993 5.361 
123 1 5.361 12.735 7.103 
7 1 3.12 14.976 14.976 
16 1 5.595 12.501 12.5 
23 1 4.011 14.085 14.084 
32 1 4.704 13.392 13.391 
39 1 0.414 14.64 14.639 
43 1 3.456 17.682 14.639 
53 1 3.456 14.64 17.682 
64 1 8.302 12.837 12.837 
68 1 5.259 9.795 12.837 
78 1 5.259 12.837 9.794 
87 1 1.612 14.742 14.741 
91 1 3.354 16.483 14.741 
101 1 3.353 14.742 16.483 
112 1 7.103 12.735 12.735 
116 1 5.361 10.993 12.735 
126 1 5.361 12.735 10.993 
8 1 14.976 3.12 3.12 
15 1 12.501 5.595 5.595 
24 1 14.084 4.011 4.011 
31 1 13.392 4.704 4.704 
40 1 17.682 3.456 3.456 
44 1 14.64 0.414 3.457 
54 1 14.64 3.456 0.414 
63 1 9.795 5.259 5.259 
67 1 12.837 8.301 5.259 
77 1 12.837 5.259 8.301 
88 1 16.483 3.354 3.354 
92 1 14.742 1.612 3.354 
102 1 14.742 3.354 1.612 
111 1 10.993 5.361 5.361 
115 1 12.735 7.103 5.361 
125 1 12.735 5.361 7.103 
5 1 14.976 3.119 14.975 
14 1 12.501 5.596 12.501 
21 1 14.085 4.011 14.084 
30 1 13.392 4.703 13.392 
37 1 17.682 3.456 14.639 
47 1 14.64 0.413 14.639 
51 1 14.64 3.456 17.682 
62 1 9.794 5.259 12.837 
72 1 12.837 8.301 12.837 
76 1 12.837 5.259 9.795 
85 1 16.483 3.354 14.741 
95 1 14.742 1.612 14.741 
99 1 14.742 3.354 16.483 
110 1 10.993 5.361 12.735 
120 1 12.734 7.103 12.735 
124 1 12.735 5.361 10.993 
3 1 14.976 14.976 3.12 
12 1 12.501 12.501 5.595 
19 1 14.085 14.085 4.011 
28 1 13.392 13.392 4.704 
35 1 17.682 14.64 3.457 
45 1 14.64 17.682 3.457 
55 1 14.64 14.64 0.414 
60 1 9.794 12.837 5.259 
70 1 12.837 9.794 5.259 
80 1 12.837 12.837 8.301 
83 1 16.484 14.742 3.354 
93 1 14.742 16.483 3.354 
103 1 14.742 14.742 1.613 
108 1 10.993 12.735 5.361 
118 1 12.734 10.993 5.361 
128 1 12.734 12.734 7.103 
2 1 14.976 14.976 14.975 
9 1 12.501 12.501 12.501 
18 1 14.084 14.085 14.084 
25 1 13.391 13.393 13.392 
34 1 17.682 14.64 14.639 
42 1 14.64 17.682 14.639 
50 1 14.64 14.64 17.682 
57 1 9.795 12.837 12.837 
65 1 12.837 9.794 12.837 
73 1 12.837 12.837 9.794 
82 1 16.483 14.742 14.741 
90 1 14.742 16.483 14.741 
98 1 14.742 14.742 16.483 
105 1 10.993 12.734 12.734 
113 1 12.735 10.993 12.735 
121 1 12.735 12.734 10.993 
129 2 11.124 12.142 13.661 
ITEM: TIMESTEP
10
ITEM: NUMBER OF ATOMS
129
ITEM: BOX BOUNDS pp pp pp
0.0000000000000000e+00 1.8762000000000000e+01
0.0000000000000000e+00 1.8762000000000000e+01
0.0000000000000000e+00 1.8760999999999999e+01
ITEM: ATOMS id type x y z 
1 1 3.11976 3.11949 3.12055 
10 1 5.59518 5.59532 5.59503 
17 1 4.01122 4.01079 4.01148 
26 1 4.70363 4.70394 4.70431 
33 1 0.413351 3.45548 3.45534 
41 1 3.4551 0.413596 3.45535 
49 1 3.45533 3.45538 0.414596 
58 1 8.30214 5.25938 5.25945 
66 1 5.25974 8.30146 5.25942 
74 1 5.25948 5.25944 8.30138 
81 1 1.61205 3.35342 3.35377 
89 1 3.35303 1.61099 3.35375 
97 1 3.35362 3.35346 1.61216 
106 1 7.10163 5.36162 5.36147 
114 1 5.36201 7.10241 5.36147 
122 1 5.36149 5.36162 7.10207 
4 1 3.1199 3.11989 14.9759 
11 1 5.595 5.59521 12.5005 
20 1 4.01124 4.0112 14.085 
27 1 4.70361 4.70369 13.3911 
36 1 0.413426 3.45545 14.6398 
46 1 3.45544 0.413471 14.6398 
56 1 3.45535 3.45536 17.6815 
59 1 8.30161 5.25951 12.8365 
69 1 5.25944 8.30179 12.8366 
79 1 5.2595 5.25949 9.79416 
84 1 1.61205 3.35349 14.7421 
94 1 3.3535 1.61199 14.7421 
104 1 3.35361 3.35361 16.484 
107 1 7.10232 5.36147 12.7344 
117 1 5.36155 7.1018 12.7344 
127 1 5.3615 5.36152 10.9935 
6 1 3.12006 14.9759 3.12022 
13 1 5.59483 12.5011 5.59563 
22 1 4.01233 14.0836 4.01241 
29 1 4.70261 13.3931 4.70307 
38 1 0.412941 14.6404 3.45636 
48 1 3.45542 17.6817 3.45538 
52 1 3.45553 14.6405 0.413541 
61 1 8.3018 12.8365 5.25943 
71 1 5.25949 9.79422 5.25944 
75 1 5.25943 12.8366 8.30166 
86 1 1.61317 14.7425 3.35378 
96 1 3.3537 16.4841 3.35367 
100 1 3.35357 14.7424 1.61275 
109 1 7.10231 12.7346 5.36159 
119 1 5.36141 10.9934 5.36161 
123 1 5.36146 12.7345 7.10245 
7 1 3.11988 14.9762 14.975 
16 1 5.60931 12.5058 12.5042 
23 1 4.01098 14.0842 14.0835 
32 1 4.70429 13.3922 13.3939 
39 1 0.413221 14.6406 14.6396 
43 1 3.4554 17.6822 14.6395 
53 1 3.45519 14.6405 17.6818 
64 1 8.32289 12.8404 12.8362 
68 1 5.25894 9.7914 12.8365 
78 1 5.25897 12.8364 9.79194 
87 1 1.61177 14.7424 14.7415 
91 1 3.3536 16.4836 14.7415 
101 1 3.35296 14.7425 16.4826 
112 1 7.10275 12.733 12.7321 
116 1 5.36261 10.9945 12.7351 
126 1 5.36244 12.7355 10.9928 
8 1 14.9759 3.11986 3.11997 
15 1 12.5009 5.59512 5.59514 
24 1 14.085 4.01118 4.0112 
31 1 13.3912 4.70369 4.70368 
40 1 17.6822 3.45542 3.4554 
44 1 14.6406 0.413607 3.45622 
54 1 14.6405 3.45552 0.41351 
63 1 9.79406 5.25943 5.25945 
67 1 12.8365 8.30155 5.25951 
77 1 12.8365 5.25943 8.30232 
88 1 16.4835 3.35358 3.35359 
92 1 14.7424 1.61182 3.35383 
102 1 14.7424 3.35349 1.61285 
111 1 10.9945 5.36158 5.36158 
115 1 12.7346 7.10237 5.36148 
125 1 12.7345 5.36154 7.10168 
5 1 14.976 3.11933 14.9752 
14 1 12.5007 5.59602 12.5009 
21 1 14.085 4.00948 14.084 
30 1 13.3912 4.70543 13.3914 
37 1 17.6822 3.45544 14.6396 
47 1 14.6407 0.413368 14.6397 
51 1 14.6405 3.45551 17.6818 
62 1 9.79454 5.25957 12.8364 
72 1 12.8358 8.30717 12.8365 
76 1 12.8365 5.2595 9.79432 
85 1 16.4837 3.35349 14.7414 
95 1 14.7424 1.61083 14.7414 
99 1 14.7425 3.35339 16.4825 
110 1 10.9939 5.36167 12.7344 
120 1 12.7339 7.10371 12.7344 
124 1 12.7343 5.36175 10.9949 
3 1 14.976 14.9757 3.12 
12 1 12.5008 12.5008 5.59588 
19 1 14.0841 14.0843 4.01191 
28 1 13.3921 13.3922 4.704 
35 1 17.683 14.6404 3.45635 
45 1 14.6406 17.6821 3.45622 
55 1 14.6406 14.6406 0.414132 
60 1 9.79437 12.8364 5.25955 
70 1 12.8361 9.79438 5.25952 
80 1 12.8359 12.8361 8.30841 
83 1 16.4829 14.7425 3.35379 
93 1 14.7424 16.4839 3.35393 
103 1 14.7423 14.7423 1.61154 
108 1 10.9939 12.7345 5.36159 
118 1 12.7339 10.9938 5.36165 
128 1 12.7339 12.7338 7.10384 
2 1 14.9735 14.9745 14.9738 
9 1 12.5984 12.477 12.4583 
18 1 14.0825 14.0862 14.0855 
25 1 13.3948 13.3846 13.3813 
34 1 17.6815 14.6407 14.6397 
42 1 14.6408 17.6809 14.6397 
50 1 14.6408 14.6408 17.6806 
57 1 9.72549 12.8137 12.8026 
65 1 12.832 9.79429 12.8371 
73 1 12.8311 12.8372 9.79101 
82 1 16.4833 14.7423 14.7414 
90 1 14.7423 16.4837 14.7414 
98 1 14.7423 14.7424 16.4836 
105 1 10.9405 12.7739 12.7947 
113 1 12.7478 10.9975 12.7249 
121 1 12.7429 12.731 10.9953 
129 2 11.1019 12.141 13.6868 
ITEM: TIMESTEP
20
ITEM: NUMBER OF ATOMS
129
ITEM: BOX BOUNDS pp pp pp
0.0000000000000000e+00 1.8762000000000000e+01
0.0000000000000000e+00 1.8762000000000000e+01
0.0000000000000000e+00 1.8760999999999999e+01
ITEM: ATOMS id type x y z 
1 1 3.11955 3.11977 3.12033 
10 1 5.59529 5.59515 5.59499 
17 1 4.01152 4.01022 4.01175 
26 1 4.70346 4.70421 4.70397 
33 1 0.413281 3.45503 3.45496 
41 1 3.45467 0.413404 3.45497 
49 1 3.45495 3.45494 0.414395 
58 1 8.30193 5.25987 5.25989 
66 1 5.26022 8.30137 5.25982 
74 1 5.25992 5.25991 8.30123 
81 1 1.61206 3.35313 3.35348 
89 1 3.35281 1.61144 3.35345 
97 1 3.35326 3.35314 1.61241 
106 1 7.10215 5.36183 5.36174 
114 1 5.36213 7.10244 5.36174 
122 1 5.36174 5.36185 7.10235 
4 1 3.12006 3.11981 14.9762 
11 1 5.59493 5.59495 12.5004 
20 1 4.01029 4.01078 14.0838 
27 1 4.70397 4.70394 13.3927 
36 1 0.413409 3.45499 14.6403 
46 1 3.45499 0.41355 14.6403 
56 1 3.45494 3.45497 17.6818 
59 1 8.3018 5.25994 12.8361 
69 1 5.25935 8.30028 12.8365 
79 1 5.25992 5.25989 9.79409 
84 1 1.61196 3.3532 14.7424 
94 1 3.35319 1.6122 14.7424 
104 1 3.35329 3.35328 16.4838 
107 1 7.10311 5.36166 12.7342 
117 1 5.36206 7.09921 12.7339 
127 1 5.36169 5.36172 10.9929 
6 1 3.12009 14.976 3.11998 
13 1 5.59487 12.5009 5.59522 
22 1 4.01151 14.0837 4.01219 
29 1 4.70296 13.3936 4.70315 
38 1 0.412861 14.6409 3.45584 
48 1 3.45502 17.6819 3.45499 
52 1 3.45509 14.6409 0.413499 
61 1 8.30206 12.8361 5.25984 
71 1 5.2599 9.79408 5.25983 
75 1 5.25928 12.8365 8.29986 
86 1 1.613 14.7428 3.35359 
96 1 3.35337 16.4837 3.35336 
100 1 3.35328 14.7427 1.61288 
109 1 7.10265 12.7343 5.36182 
119 1 5.36161 10.9932 5.36185 
123 1 5.36197 12.7341 7.09975 
7 1 3.11853 14.9767 14.9755 
16 1 5.61133 12.5084 12.5078 
23 1 4.00847 14.0856 14.0854 
32 1 4.7054 13.3957 13.3979 
39 1 0.412768 14.641 14.6401 
43 1 3.45509 17.6826 14.64 
53 1 3.45477 14.6409 17.682 
64 1 8.31243 12.834 12.8247 
68 1 5.25816 9.78853 12.8363 
78 1 5.25805 12.8363 9.78858 
87 1 1.61106 14.7427 14.7416 
91 1 3.35328 16.484 14.7416 
101 1 3.35277 14.7428 16.4828 
112 1 7.09462 12.7324 12.7306 
116 1 5.3644 10.991 12.737 
126 1 5.36413 12.7376 10.9899 
8 1 14.9761 3.1197 3.12029 
15 1 12.5006 5.59496 5.59515 
24 1 14.0838 4.01123 4.01049 
31 1 13.3926 4.70395 4.70421 
40 1 17.6823 3.45502 3.45496 
44 1 14.641 0.413463 3.4557 
54 1 14.641 3.45506 0.413441 
63 1 9.79428 5.2599 5.25993 
67 1 12.836 8.30148 5.25996 
77 1 12.8361 5.25994 8.30216 
88 1 16.4835 3.35327 3.35329 
92 1 14.7427 1.61186 3.35363 
102 1 14.7427 3.35322 1.61261 
111 1 10.994 5.36183 5.36183 
115 1 12.7343 7.10261 5.36176 
125 1 12.7342 5.36176 7.10245 
5 1 14.9756 3.11922 14.9753 
14 1 12.5009 5.59714 12.5012 
21 1 14.0851 4.01019 14.0835 
30 1 13.3917 4.70535 13.3917 
37 1 17.6821 3.45499 14.64 
47 1 14.6412 0.413231 14.6402 
51 1 14.641 3.45503 17.6816 
62 1 9.79494 5.26001 12.8359 
72 1 12.8335 8.30633 12.8367 
76 1 12.8359 5.25997 9.79468 
85 1 16.4836 3.3531 14.7417 
95 1 14.7427 1.61082 14.7417 
99 1 14.7428 3.35302 16.4825 
110 1 10.9936 5.36221 12.7343 
120 1 12.7335 7.10502 12.734 
124 1 12.7341 5.36227 10.9943 
3 1 14.976 14.9758 3.12018 
12 1 12.5011 12.5012 5.59718 
19 1 14.0836 14.084 4.01103 
28 1 13.3934 13.393 4.70536 
35 1 17.6828 14.6409 3.45583 
45 1 14.641 17.6821 3.45573 
55 1 14.6411 14.6411 0.413865 
60 1 9.79432 12.836 5.25988 
70 1 12.8356 9.79428 5.25991 
80 1 12.8339 12.8362 8.30549 
83 1 16.4827 14.7428 3.3535 
93 1 14.7427 16.4836 3.35361 
103 1 14.7426 14.7426 1.61156 
108 1 10.9937 12.7343 5.36207 
118 1 12.7339 10.9933 5.36208 
128 1 12.7334 12.7331 7.10335 
2 1 14.9716 14.9744 14.9738 
9 1 12.6121 12.4719 12.4519 
18 1 14.0826 14.0859 14.0864 
25 1 13.4067 13.3822 13.375 
34 1 17.6811 14.6413 14.6403 
42 1 14.6414 17.6812 14.6402 
50 1 14.6414 14.6413 17.6809 
57 1 9.71831 12.8201 12.7969 
65 1 12.8302 9.79185 12.837 
73 1 12.8279 12.839 9.786 
82 1 16.4829 14.7424 14.7415 
90 1 14.7421 16.4836 14.7415 
98 1 14.7422 14.7425 16.4833 
105 1 10.9355 12.7834 12.8206 
113 1 12.7603 10.9957 12.7171 
121 1 12.7532 12.7284 10.9919 
129 2 11.0957 12.1398 13.7056 
ITEM: TIMESTEP
30
ITEM: NUMBER OF ATOMS
129
ITEM: BOX BOUNDS pp pp pp
0.0000000000000000e+00 1.8762000000000000e+01
0.0000000000000000e+00 1.8762000000000000e+01
0.0000000000000000e+00 1.8760999999999999e+01
ITEM: ATOMS id type x y z 
1 1 3.11872 3.12027 3.11995 
10 1 5.59603 5.59377 5.59498 
17 1 4.01257 4.00963 4.01054 
26 1 4.70217 4.70423 4.70401 
33 1 0.413041 3.45342 3.45329 
41 1 3.45315 0.413195 3.45345 
49 1 3.45337 3.45345 0.414506 
58 1 8.3017 5.26152 5.26157 
66 1 5.26158 8.30014 5.26131 
74 1 5.26137 5.26136 8.30033 
81 1 1.61157 3.35199 3.35262 
89 1 3.35193 1.61222 3.35259 
97 1 3.35205 3.35185 1.61348 
106 1 7.1034 5.3627 5.36248 
114 1 5.36277 7.10185 5.36236 
122 1 5.36274 5.36282 7.10136 
4 1 3.11932 3.11916 14.9769 
11 1 5.59485 5.59213 12.5003 
20 1 4.00908 4.01215 14.0868 
27 1 4.70365 4.70036 13.3917 
36 1 0.412073 3.45346 14.642 
46 1 3.45397 0.415161 14.6417 
56 1 3.45363 3.45347 17.6825 
59 1 8.30344 5.26104 12.8347 
69 1 5.25804 8.29325 12.8358 
79 1 5.26099 5.26126 9.79291 
84 1 1.61102 3.3523 14.7431 
94 1 3.35191 1.6137 14.7432 
104 1 3.35195 3.35224 16.4836 
107 1 7.10409 5.36159 12.7337 
117 1 5.36244 7.09346 12.7332 
127 1 5.3626 5.36164 10.9918 
6 1 3.11926 14.9779 3.11975 
13 1 5.59456 12.5004 5.59231 
22 1 4.00756 14.0847 4.00785 
29 1 4.70498 13.3919 4.70209 
38 1 0.413466 14.6425 3.45389 
48 1 3.45363 17.6833 3.45345 
52 1 3.45374 14.6422 0.415936 
61 1 8.30163 12.8349 5.26087 
71 1 5.26108 9.79339 5.2612 
75 1 5.25777 12.836 8.29399 
86 1 1.61016 14.7437 3.35327 
96 1 3.35221 16.4844 3.35279 
100 1 3.35204 14.7438 1.61335 
109 1 7.10414 12.734 5.36165 
119 1 5.36242 10.9915 5.36171 
123 1 5.36219 12.7335 7.09355 
7 1 3.11284 14.9798 14.9794 
16 1 5.59286 12.5082 12.5099 
23 1 4.00642 14.0928 14.0927 
32 1 4.70623 13.4008 13.4044 
39 1 0.408093 14.642 14.641 
43 1 3.45453 17.6848 14.6408 
53 1 3.45409 14.6419 17.6832 
64 1 8.30351 12.8207 12.7816 
68 1 5.26033 9.78493 12.8374 
78 1 5.26004 12.8378 9.78528 
87 1 1.60717 14.7439 14.7426 
91 1 3.35141 16.4866 14.7426 
101 1 3.35107 14.744 16.4859 
112 1 7.0754 12.7264 12.7153 
116 1 5.365 10.9843 12.7407 
126 1 5.36451 12.7406 10.9852 
8 1 14.9765 3.11915 3.1204 
15 1 12.5004 5.59511 5.59483 
24 1 14.0832 4.00948 4.00981 
31 1 13.3939 4.70505 4.70464 
40 1 17.682 3.45322 3.45337 
44 1 14.6428 0.413755 3.45394 
54 1 14.6428 3.45321 0.413346 
63 1 9.79503 5.26168 5.26155 
67 1 12.8343 8.29987 5.26124 
77 1 12.8343 5.26153 8.30182 
88 1 16.4835 3.35232 3.35202 
92 1 14.7438 1.61245 3.35236 
102 1 14.7437 3.35228 1.61177 
111 1 10.9932 5.36254 5.36301 
115 1 12.7331 7.10115 5.36314 
125 1 12.7333 5.36256 7.10313 
5 1 14.9767 3.11987 14.975 
14 1 12.5029 5.59825 12.5006 
21 1 14.0835 4.01055 14.0842 
30 1 13.3908 4.70523 13.3953 
37 1 17.6823 3.45335 14.6419 
47 1 14.643 0.412338 14.6419 
51 1 14.6428 3.45313 17.6812 
62 1 9.79644 5.26142 12.8345 
72 1 12.8247 8.30803 12.8382 
76 1 12.834 5.26143 9.79422 
85 1 16.4832 3.35176 14.7425 
95 1 14.7441 1.61294 14.7426 
99 1 14.7439 3.35178 16.4828 
110 1 10.9956 5.36441 12.7331 
120 1 12.7293 7.10631 12.7349 
124 1 12.7343 5.36438 10.9929 
3 1 14.977 14.9773 3.12003 
12 1 12.5026 12.5006 5.59523 
19 1 14.087 14.0849 4.00903 
28 1 13.3929 13.3945 4.70545 
35 1 17.6812 14.6427 3.45399 
45 1 14.6427 17.6825 3.45404 
55 1 14.643 14.6426 0.412488 
60 1 9.79533 12.8349 5.26085 
70 1 12.8343 9.79278 5.26094 
80 1 12.8253 12.8389 8.3013 
83 1 16.4845 14.7436 3.3525 
93 1 14.7436 16.4839 3.35246 
103 1 14.7437 14.7437 1.61274 
108 1 10.9927 12.7342 5.36347 
118 1 12.7343 10.9915 5.36353 
128 1 12.73 12.7336 7.09846 
2 1 14.9653 14.9742 14.9741 
9 1 12.6382 12.4642 12.4405 
18 1 14.0878 14.0761 14.0734 
25 1 13.4397 13.3642 13.3529 
34 1 17.6772 14.6427 14.6417 
42 1 14.643 17.6829 14.6414 
50 1 14.643 14.6425 17.6825 
57 1 9.70367 12.8436 12.7889 
65 1 12.839 9.79253 12.8262 
73 1 12.8296 12.8398 9.78053 
82 1 16.4775 14.7435 14.7429 
90 1 14.7408 16.4817 14.7425 
98 1 14.7408 14.7433 16.4814 
105 1 10.9425 12.8021 12.9028 
113 1 12.7869 10.9976 12.696 
121 1 12.7735 12.7219 10.9884 
129 2 11.0795 12.1398 13.7769 
ITEM: TIMESTEP
40
ITEM: NUMBER OF ATOMS
129
ITEM: BOX BOUNDS pp pp pp
0.0000000000000000e+00 1.8762000000000000e+01
0.0000000000000000e+00 1.8762000000000000e+01
0.0000000000000000e+00 1.8760999999999999e+01
ITEM: ATOMS id type x y z 
1 1 3.1195 3.11921 3.12024 
10 1 5.5952 5.59478 5.59444 
17 1 4.00997 4.01142 4.01157 
26 1 4.70482 4.70248 4.70311 
33 1 0.412701 3.45295 3.45318 
41 1 3.45294 0.414063 3.45324 
49 1 3.45316 3.453 0.414537 
58 1 8.30216 5.26193 5.26173 
66 1 5.26173 8.30026 5.26156 
74 1 5.26153 5.26185 8.30018 
81 1 1.61174 3.35206 3.35224 
89 1 3.35164 1.61262 3.35221 
97 1 3.35183 3.35201 1.61292 
106 1 7.10284 5.36256 5.36274 
114 1 5.36306 7.10109 5.36261 
122 1 5.36293 5.36253 7.10167 
4 1 3.11798 3.12069 14.977 
11 1 5.59642 5.59014 12.5001 
20 1 4.01082 4.00942 14.085 
27 1 4.70233 4.70258 13.393 
36 1 0.41233 3.45314 14.6421 
46 1 3.45393 0.41526 14.6415 
56 1 3.45326 3.45319 17.683 
59 1 8.30384 5.2615 12.8345 
69 1 5.25885 8.29247 12.8362 
79 1 5.26135 5.26153 9.79273 
84 1 1.61098 3.35227 14.7437 
94 1 3.35199 1.61405 14.7436 
104 1 3.35187 3.35225 16.4846 
107 1 7.10574 5.36084 12.7332 
117 1 5.36153 7.09311 12.733 
127 1 5.36267 5.36103 10.9913 
6 1 3.11829 14.977 3.12019 
13 1 5.59536 12.5005 5.59082 
22 1 4.01073 14.0848 4.01085 
29 1 4.70201 13.3923 4.69947 
38 1 0.411632 14.6425 3.4541 
48 1 3.45332 17.6833 3.45342 
52 1 3.45387 14.6421 0.414762 
61 1 8.30284 12.835 5.26105 
71 1 5.26137 9.79241 5.26142 
75 1 5.25865 12.8365 8.29313 
86 1 1.61272 14.7442 3.35263 
96 1 3.35211 16.4847 3.35251 
100 1 3.35185 14.7441 1.61466 
109 1 7.10285 12.7335 5.36106 
119 1 5.36248 10.9917 5.3612 
123 1 5.36111 12.7334 7.09434 
7 1 3.11224 14.9815 14.98 
16 1 5.58575 12.5071 12.5102 
23 1 4.00726 14.0933 14.0957 
32 1 4.70104 13.4028 13.4047 
39 1 0.406373 14.6425 14.6413 
43 1 3.45428 17.6851 14.6409 
53 1 3.45394 14.6419 17.6846 
64 1 8.29494 12.8242 12.7702 
68 1 5.26098 9.77934 12.8384 
78 1 5.26072 12.8385 9.78045 
87 1 1.60394 14.7444 14.7432 
91 1 3.35036 16.4866 14.7435 
101 1 3.34988 14.7449 16.485 
112 1 7.06953 12.7243 12.7036 
116 1 5.36146 10.9843 12.7411 
126 1 5.36071 12.7405 10.9849 
8 1 14.9756 3.11951 3.11916 
15 1 12.5015 5.59449 5.59572 
24 1 14.0858 4.01182 4.01201 
31 1 13.3913 4.70248 4.70248 
40 1 17.6821 3.4531 3.45289 
44 1 14.6431 0.413552 3.45352 
54 1 14.6431 3.45293 0.413018 
63 1 9.79453 5.26183 5.26196 
67 1 12.834 8.30006 5.26162 
77 1 12.8338 5.2617 8.30201 
88 1 16.483 3.35182 3.35201 
92 1 14.744 1.61226 3.35235 
102 1 14.7439 3.35177 1.61224 
111 1 10.994 5.36284 5.36302 
115 1 12.733 7.10139 5.36289 
125 1 12.7331 5.36274 7.10296 
5 1 14.9752 3.11877 14.9751 
14 1 12.5021 5.59989 12.5021 
21 1 14.0837 4.01174 14.0856 
30 1 13.3924 4.70567 13.392 
37 1 17.6815 3.45291 14.642 
47 1 14.6439 0.413032 14.6423 
51 1 14.6432 3.4527 17.6816 
62 1 9.79668 5.26219 12.834 
72 1 12.825 8.30793 12.8367 
76 1 12.8341 5.26228 9.79464 
85 1 16.4828 3.35182 14.7429 
95 1 14.7441 1.6102 14.7428 
99 1 14.7442 3.35159 16.4824 
110 1 10.9947 5.36441 12.7331 
120 1 12.7263 7.10738 12.7361 
124 1 12.7338 5.36465 10.9937 
3 1 14.9763 14.9767 3.11859 
12 1 12.5029 12.5012 5.59593 
19 1 14.0852 14.0863 4.01195 
28 1 13.3949 13.3929 4.70248 
35 1 17.683 14.6426 3.45382 
45 1 14.6429 17.6829 3.45361 
55 1 14.6436 14.6431 0.41306 
60 1 9.79422 12.835 5.26147 
70 1 12.8344 9.79256 5.26172 
80 1 12.8245 12.8394 8.29985 
83 1 16.4819 14.7442 3.35224 
93 1 14.744 16.4843 3.35239 
103 1 14.7441 14.744 1.61045 
108 1 10.9943 12.7336 5.36259 
118 1 12.734 10.9913 5.36283 
128 1 12.7275 12.7347 7.09821 
2 1 14.9635 14.9728 14.9722 
9 1 12.6308 12.4646 12.4406 
18 1 14.0981 14.0754 14.0718 
25 1 13.445 13.3609 13.3487 
34 1 17.6745 14.6434 14.6425 
42 1 14.6434 17.6809 14.6423 
50 1 14.6434 14.6432 17.6802 
57 1 9.71865 12.846 12.7888 
65 1 12.8438 9.79339 12.8209 
73 1 12.8324 12.8387 9.78071 
82 1 16.4768 14.7439 14.7432 
90 1 14.7396 16.4836 14.742 
98 1 14.7396 14.7428 16.4826 
105 1 10.953 12.8041 12.9217 
113 1 12.7881 10.9958 12.693 
121 1 12.7729 12.7217 10.9859 
129 2 11.0879 12.1391 13.8031 
ITEM: TIMESTEP
50
ITEM: NUMBER OF ATOMS
129
ITEM: BOX BOUNDS pp pp pp
0.0000000000000000e+00 1.8762000000000000e+01
0.0000000000000000e+00 1.8762000000000000e+01
0.0000000000000000e+00 1.8760999999999999e+01
ITEM: ATOMS id type x y z 
1 1 3.11903 3.11978 3.12028 
10 1 5.59568 5.59421 5.59438 
17 1 4.01076 4.0106 4.01155 
26 1 4.70395 4.70329 4.70306 
33 1 0.412522 3.45282 3.45291 
41 1 3.45283 0.413961 3.45309 
49 1 3.453 3.45289 0.414627 
58 1 8.30233 5.26205 5.26201 
66 1 5.26184 8.30002 5.26178 
74 1 5.26168 5.26196 8.29997 
81 1 1.61154 3.35189 3.35221 
89 1 3.35158 1.61268 3.35219 
97 1 3.35176 3.35187 1.61321 
106 1 7.10319 5.36267 5.36268 
114 1 5.36311 7.10102 5.36259 
122 1 5.36296 5.36265 7.10135 
4 1 3.11826 3.12043 14.9772 
11 1 5.59618 5.58991 12.5001 
20 1 4.00963 4.01019 14.0852 
27 1 4.70345 4.70089 13.3927 
36 1 0.411883 3.45294 14.6423 
46 1 3.45398 0.415611 14.6415 
56 1 3.45314 3.453 17.683 
59 1 8.3041 5.26147 12.8343 
69 1 5.2591 8.2926 12.8363 
79 1 5.26144 5.26156 9.7926 
84 1 1.6106 3.3523 14.7438 
94 1 3.35179 1.6144 14.7437 
104 1 3.3516 3.35229 16.4844 
107 1 7.10555 5.36058 12.7331 
117 1 5.36169 7.09249 12.7331 
127 1 5.36289 5.36066 10.9913 
6 1 3.1183 14.9773 3.12031 
13 1 5.5951 12.5001 5.59029 
22 1 4.01047 14.085 4.01037 
29 1 4.70226 13.3924 4.6995 
38 1 0.411883 14.6428 3.45386 
48 1 3.4532 17.6835 3.45326 
52 1 3.45388 14.6422 0.415288 
61 1 8.30269 12.8349 5.26114 
71 1 5.26148 9.79229 5.26146 
75 1 5.2589 12.8368 8.29359 
86 1 1.61176 14.7443 3.3527 
96 1 3.35182 16.4847 3.3525 
100 1 3.35172 14.7442 1.61463 
109 1 7.10315 12.7334 5.36071 
119 1 5.36262 10.9915 5.36087 
123 1 5.3612 12.7335 7.0935 
7 1 3.11196 14.982 14.981 
16 1 5.58393 12.5066 12.5102 
23 1 4.00613 14.0932 14.0948 
32 1 4.7003 13.4016 13.4046 
39 1 0.405488 14.6427 14.6416 
43 1 3.454 17.6857 14.6409 
53 1 3.45364 14.642 17.6847 
64 1 8.29494 12.8248 12.7611 
68 1 5.26126 9.77981 12.8386 
78 1 5.26079 12.8386 9.78019 
87 1 1.60341 14.745 14.7437 
91 1 3.34988 16.4872 14.744 
101 1 3.34939 14.7455 16.4858 
112 1 7.07129 12.7243 12.696 
116 1 5.35944 10.9833 12.7414 
126 1 5.35834 12.7404 10.9841 
8 1 14.9761 3.11975 3.11947 
15 1 12.5009 5.59428 5.59533 
24 1 14.0846 4.01124 4.01106 
31 1 13.3925 4.7028 4.70365 
40 1 17.6821 3.45277 3.45277 
44 1 14.6433 0.41358 3.45336 
54 1 14.6433 3.45263 0.412921 
63 1 9.79464 5.26213 5.26214 
67 1 12.8338 8.2999 5.26182 
77 1 12.8336 5.26199 8.30218 
88 1 16.4831 3.35179 3.35173 
92 1 14.7441 1.61241 3.35212 
102 1 14.744 3.35172 1.61202 
111 1 10.9938 5.36282 5.36321 
115 1 12.733 7.10107 5.36299 
125 1 12.7329 5.36265 7.10317 
5 1 14.9749 3.11857 14.9751 
14 1 12.5017 5.5997 12.5022 
21 1 14.0846 4.01231 14.0853 
30 1 13.393 4.70648 13.3923 
37 1 17.6812 3.45271 14.6422 
47 1 14.6443 0.412662 14.6425 
51 1 14.6436 3.45253 17.6815 
62 1 9.79683 5.26236 12.8338 
72 1 12.8252 8.30863 12.8358 
76 1 12.8339 5.26265 9.79485 
85 1 16.4824 3.35151 14.743 
95 1 14.7442 1.61063 14.7431 
99 1 14.7441 3.35125 16.4824 
110 1 10.9952 5.36465 12.7331 
120 1 12.7254 7.10774 12.7363 
124 1 12.7337 5.36514 10.9938 
3 1 14.9765 14.9771 3.11892 
12 1 12.5026 12.5009 5.5949 
19 1 14.0854 14.0859 4.01072 
28 1 13.3948 13.3934 4.70299 
35 1 17.6823 14.6428 3.45365 
45 1 14.6432 17.683 3.45345 
55 1 14.644 14.6433 0.41262 
60 1 9.79468 12.8348 5.26152 
70 1 12.8342 9.79239 5.26183 
80 1 12.8242 12.8399 8.30007 
83 1 16.4825 14.7443 3.352 
93 1 14.7441 16.4842 3.35205 
103 1 14.7444 14.7442 1.61068 
108 1 10.9941 12.7336 5.36243 
118 1 12.7341 10.9913 5.36289 
128 1 12.7267 12.7352 7.09793 
2 1 14.9631 14.9725 14.9716 
9 1 12.6294 12.4654 12.4407 
18 1 14.1009 14.0716 14.0677 
25 1 13.4488 13.3588 13.3454 
34 1 17.6738 14.6436 14.6427 
42 1 14.6432 17.6812 14.6425 
50 1 14.6431 14.6433 17.6803 
57 1 9.71913 12.8476 12.7906 
65 1 12.8464 9.79378 12.8178 
73 1 12.8333 12.8383 9.78036 
82 1 16.4755 14.7441 14.7433 
90 1 14.7389 16.4828 14.7417 
98 1 14.7388 14.7425 16.4816 
105 1 10.9523 12.8031 12.9368 
113 1 12.7889 10.9968 12.6903 
121 1 12.7722 12.7212 10.9862 
129 2 11.0936 12.1412 13.819 
ITEM: TIMESTEP
60
ITEM: NUMBER OF ATOMS
129
ITEM: BOX BOUNDS pp pp pp
0.0000000000000000e+00 1.8762000000000000e+01
0.0000000000000000e+00 1.8762000000000000e+01
0.0000000000000000e+00 1.8760999999999999e+01
ITEM: ATOMS id type x y z 
1 1 3.11876 3.11976 3.12055 
10 1 5.59672 5.59401 5.59291 
17 1 4.01278 4.01392 4.00671 
26 1 4.70047 4.69992 4.70903 
33 1 0.412155 3.45204 3.45214 
41 1 3.45243 0.414011 3.45246 
49 1 3.45243 3.45219 0.415042 
58 1 8.30299 5.2627 5.26281 
66 1 5.26213 8.29977 5.26254 
74 1 5.26214 5.26267 8.29919 
81 1 1.61137 3.35153 3.35208 
89 1 3.35109 1.61323 3.35223 
97 1 3.3511 3.35148 1.61372 
106 1 7.1036 5.36282 5.36242 
114 1 5.36365 7.10009 5.36238 
122 1 5.36361 5.36296 7.10085 
4 1 3.11703 3.12333 14.9797 
11 1 5.59698 5.58906 12.5014 
20 1 4.01045 4.00597 14.0823 
27 1 4.70293 4.69605 13.3883 
36 1 0.410221 3.4521 14.6431 
46 1 3.45373 0.416874 14.6415 
56 1 3.45245 3.45234 17.6838 
59 1 8.30451 5.26128 12.8331 
69 1 5.26064 8.29168 12.837 
79 1 5.2623 5.26143 9.79281 
84 1 1.60926 3.35261 14.7449 
94 1 3.35133 1.61584 14.7444 
104 1 3.35074 3.35271 16.4851 
107 1 7.10615 5.35965 12.7329 
117 1 5.36261 7.09131 12.7342 
127 1 5.36375 5.35977 10.9913 
6 1 3.11895 14.9784 3.1202 
13 1 5.59468 12.4989 5.58825 
22 1 4.00581 14.0808 4.0144 
29 1 4.70568 13.3969 4.6958 
38 1 0.410932 14.6433 3.45338 
48 1 3.45238 17.6845 3.45285 
52 1 3.45362 14.642 0.415309 
61 1 8.30313 12.8345 5.26108 
71 1 5.26214 9.79099 5.26129 
75 1 5.26041 12.8381 8.29257 
86 1 1.61206 14.7452 3.35232 
96 1 3.35125 16.4851 3.35225 
100 1 3.35174 14.7446 1.61579 
109 1 7.10245 12.7326 5.35967 
119 1 5.36274 10.9911 5.35967 
123 1 5.3618 12.7339 7.09159 
7 1 3.11042 14.9832 14.9823 
16 1 5.57802 12.5035 12.5077 
23 1 4.00083 14.0896 14.0921 
32 1 4.69549 13.4005 13.4042 
39 1 0.402587 14.6447 14.6437 
43 1 3.45252 17.6869 14.6419 
53 1 3.45217 14.643 17.6859 
64 1 8.29621 12.8293 12.7218 
68 1 5.25981 9.7797 12.8396 
78 1 5.25808 12.8384 9.77808 
87 1 1.60068 14.7478 14.7466 
91 1 3.34767 16.4881 14.7462 
101 1 3.34706 14.7478 16.486 
112 1 7.07553 12.7236 12.6601 
116 1 5.35372 10.9837 12.7427 
126 1 5.35048 12.74 10.9843 
8 1 14.9748 3.11949 3.11858 
15 1 12.5028 5.59452 5.59649 
24 1 14.0926 4.01732 4.01549 
31 1 13.3834 4.69504 4.69982 
40 1 17.6816 3.45189 3.45189 
44 1 14.6441 0.413401 3.45259 
54 1 14.6445 3.45173 0.412303 
63 1 9.79547 5.26289 5.2631 
67 1 12.8331 8.30004 5.26259 
77 1 12.8326 5.26288 8.30335 
88 1 16.4823 3.35112 3.35085 
92 1 14.7442 1.61295 3.35142 
102 1 14.7443 3.35118 1.6119 
111 1 10.9948 5.36336 5.36403 
115 1 12.733 7.10043 5.36342 
125 1 12.7327 5.36286 7.1039 
5 1 14.9773 3.12129 14.975 
14 1 12.5043 5.60456 12.5031 
21 1 14.0824 4.00768 14.083 
30 1 13.3892 4.70697 13.3942 
37 1 17.6806 3.45152 14.6429 
47 1 14.6455 0.412366 14.644 
51 1 14.6442 3.45108 17.6816 
62 1 9.79794 5.26311 12.8331 
72 1 12.8268 8.3119 12.831 
76 1 12.8329 5.26444 9.79549 
85 1 16.4815 3.35108 14.7437 
95 1 14.7451 1.60958 14.7437 
99 1 14.7445 3.35094 16.4821 
110 1 10.9959 5.36589 12.7333 
120 1 12.7237 7.11083 12.7358 
124 1 12.7336 5.36751 10.9945 
3 1 14.9784 14.9771 3.11959 
12 1 12.5036 12.5001 5.59405 
19 1 14.0817 14.0829 4.00516 
28 1 13.3926 13.3984 4.70274 
35 1 17.6825 14.6433 3.45284 
45 1 14.6439 17.6839 3.4523 
55 1 14.6454 14.6448 0.41136 
60 1 9.7949 12.8345 5.26164 
70 1 12.8338 9.79124 5.26265 
80 1 12.8227 12.8417 8.29951 
83 1 16.4813 14.7451 3.35145 
93 1 14.7449 16.4844 3.35146 
103 1 14.7459 14.7454 1.60915 
108 1 10.9954 12.7328 5.36148 
118 1 12.7344 10.991 5.36257 
128 1 12.7239 12.7365 7.09708 
2 1 14.9622 14.9682 14.9669 
9 1 12.6199 12.4667 12.4404 
18 1 14.1211 14.0595 14.0517 
25 1 13.4541 13.3527 13.3369 
34 1 17.6712 14.6452 14.6444 
42 1 14.6425 17.6792 14.6434 
50 1 14.642 14.6438 17.6778 
57 1 9.72536 12.8505 12.8006 
65 1 12.8557 9.79594 12.8039 
73 1 12.8349 12.8368 9.77943 
82 1 16.4725 14.745 14.7439 
90 1 14.736 16.4811 14.7399 
98 1 14.7355 14.7406 16.4792 
105 1 10.9505 12.7951 13.0012 
113 1 12.7924 10.9992 12.6782 
121 1 12.7686 12.7199 10.9855 
129 2 11.1216 12.1535 13.8951 
ITEM: TIMESTEP
70
ITEM: NUMBER OF ATOMS
129
ITEM: BOX BOUNDS pp pp pp
0.0000000000000000e+00 1.8762000000000000e+01
0.0000000000000000e+00 1.8762000000000000e+01
0.0000000000000000e+00 1.8760999999999999e+01
ITEM: ATOMS id type x y z 
1 1 3.11885 3.1203 3.11988 
10 1 5.59617 5.59362 5.59409 
17 1 4.01145 4.01205 4.0094 
26 1 4.70218 4.70171 4.70627 
33 1 0.412016 3.45193 3.45214 
41 1 3.45232 0.414375 3.45257 
49 1 3.45239 3.45215 0.414936 
58 1 8.30309 5.26279 5.26278 
66 1 5.26228 8.29925 5.26245 
74 1 5.26228 5.26269 8.29984 
81 1 1.61092 3.35161 3.35204 
89 1 3.35118 1.6132 3.35215 
97 1 3.35107 3.35144 1.61382 
106 1 7.10409 5.36271 5.3624 
114 1 5.36358 7.1004 5.36243 
122 1 5.36366 5.36302 7.10105 
4 1 3.11698 3.12208 14.9785 
11 1 5.59703 5.58809 12.5002 
20 1 4.0103 4.00654 14.083 
27 1 4.7032 4.69671 13.3886 
36 1 0.41055 3.45207 14.6432 
46 1 3.45355 0.417015 14.6417 
56 1 3.45241 3.4524 17.684 
59 1 8.30498 5.26125 12.833 
69 1 5.26078 8.29168 12.837 
79 1 5.26242 5.26146 9.79245 
84 1 1.60946 3.35265 14.7451 
94 1 3.35123 1.6155 14.7445 
104 1 3.3507 3.35284 16.485 
107 1 7.1059 5.35956 12.7327 
117 1 5.36276 7.09221 12.7344 
127 1 5.3639 5.35981 10.9914 
6 1 3.11752 14.978 3.12076 
13 1 5.59571 12.4993 5.58827 
22 1 4.00675 14.0843 4.01107 
29 1 4.7049 13.3931 4.69884 
38 1 0.411825 14.6436 3.45316 
48 1 3.45237 17.684 3.45277 
52 1 3.4535 14.6422 0.415988 
61 1 8.30281 12.8343 5.26113 
71 1 5.26213 9.79163 5.26132 
75 1 5.26033 12.838 8.29217 
86 1 1.61056 14.7452 3.35234 
96 1 3.35121 16.4852 3.35228 
100 1 3.35183 14.7444 1.61465 
109 1 7.10391 12.7326 5.35955 
119 1 5.36278 10.9907 5.35953 
123 1 5.36212 12.7341 7.09216 
7 1 3.10941 14.9826 14.9819 
16 1 5.57853 12.5031 12.5074 
23 1 4.00159 14.0915 14.0933 
32 1 4.69554 13.3985 13.4021 
39 1 0.402354 14.6452 14.6441 
43 1 3.45229 17.6866 14.6422 
53 1 3.45189 14.6434 17.685 