LAMMPS (3 Mar 2020)
Reading data file ...
  orthogonal box = (0 0 0) to (18.762 18.762 18.761)
  2 by 2 by 2 MPI processor grid
  reading atoms ...
  129 atoms
  read_data CPU = 0.00286963 secs
WARNING: Using 'neigh_modify every 1 delay 0 check yes' setting during minimization (../min.cpp:190)
WARNING: Total cutoff < 2*bond cutoff. May need to use an increased neighbor list skin. (../pair_reaxc.cpp:413)
Neighbor list info ...
  update every 1 steps, delay 0 steps, check yes
  max neighbors/atom: 2000, page size: 100000
  master list distance cutoff = 9.5
  ghost atom cutoff = 9.5
  binsize = 4.75, bins = 4 4 4
  2 neighbor lists, perpetual/occasional/extra = 2 0 0
  (1) pair reax/c, perpetual
      attributes: half, newton off, ghost
      pair build: half/bin/newtoff/ghost
      stencil: half/ghost/bin/3d/newtoff
      bin: standard
  (2) fix qeq/reax, perpetual, copy from (1)
      attributes: half, newton off, ghost
      pair build: copy
      stencil: none
      bin: none
Setting up cg style minimization ...
  Unit style    : real
  Current step  : 0
Per MPI rank memory allocation (min/avg/max) = 15.86 | 15.9 | 15.98 Mbytes
Step Temp E_pair E_mol TotEng Press 
       0            0   -23376.117            0   -23376.117   -235.28881 
      20            0   -23408.293            0   -23408.293    2103.6548 
Loop time of 0.182148 on 8 procs for 20 steps with 129 atoms

99.5% CPU use with 8 MPI tasks x no OpenMP threads

Minimization stats:
  Stopping criterion = energy tolerance
  Energy initial, next-to-last, final = 
        -23376.1172658     -23408.2932567     -23408.2933851
  Force two-norm initial, final = 324.728 297.701
  Force max component initial, final = 169.356 216.962
  Final line search alpha, max atom move = 0.000110463 0.0239662
  Iterations, force evaluations = 20 95

MPI task timing breakdown:
Section |  min time  |  avg time  |  max time  |%varavg| %total
---------------------------------------------------------------
Pair    | 0.10188    | 0.10339    | 0.10834    |   0.6 | 56.76
Neigh   | 0          | 0          | 0          |   0.0 |  0.00
Comm    | 0.0015907  | 0.0065318  | 0.0080492  |   2.4 |  3.59
Output  | 2.2842e-05 | 2.8593e-05 | 3.7059e-05 |   0.0 |  0.02
Modify  | 0.071469   | 0.071481   | 0.071497   |   0.0 | 39.24
Other   |            | 0.0007129  |            |       |  0.39

Nlocal:    16.125 ave 17 max 16 min
Histogram: 7 0 0 0 0 0 0 0 0 1
Nghost:    419.25 ave 424 max 416 min
Histogram: 1 0 3 0 0 3 0 0 0 1
Neighs:    949.75 ave 999 max 936 min
Histogram: 4 2 1 0 0 0 0 0 0 1

Total # of neighbors = 7598
Ave neighs/atom = 58.8992
Neighbor list builds = 0
Dangerous builds = 0
WARNING: Using 'neigh_modify every 1 delay 0 check yes' setting during minimization (../min.cpp:190)
WARNING: Total cutoff < 2*bond cutoff. May need to use an increased neighbor list skin. (../pair_reaxc.cpp:413)
Setting up cg style minimization ...
  Unit style    : real
  Current step  : 20
Per MPI rank memory allocation (min/avg/max) = 15.86 | 15.9 | 15.98 Mbytes
Step Temp E_pair E_mol TotEng Press 
      20            0   -23408.293            0   -23408.293    2103.6548 
     208            0   -23426.847            0   -23426.847    966.71592 
Loop time of 2.23833 on 8 procs for 188 steps with 129 atoms

99.6% CPU use with 8 MPI tasks x no OpenMP threads

Minimization stats:
  Stopping criterion = energy tolerance
  Energy initial, next-to-last, final = 
        -23408.2933851     -23426.8472818     -23426.8472819
  Force two-norm initial, final = 297.701 82.4996
  Force max component initial, final = 216.962 54.5623
  Final line search alpha, max atom move = 0.00115442 0.0629879
  Iterations, force evaluations = 188 1194

MPI task timing breakdown:
Section |  min time  |  avg time  |  max time  |%varavg| %total
---------------------------------------------------------------
Pair    | 1.2653     | 1.2861     | 1.3441     |   2.0 | 57.46
Neigh   | 0          | 0          | 0          |   0.0 |  0.00
Comm    | 0.020639   | 0.078607   | 0.099484   |   8.2 |  3.51
Output  | 0.00039746 | 0.00051183 | 0.000669   |   0.0 |  0.02
Modify  | 0.86503    | 0.86514    | 0.8653     |   0.0 | 38.65
Other   |            | 0.00792    |            |       |  0.35

Nlocal:    16.125 ave 17 max 16 min
Histogram: 7 0 0 0 0 0 0 0 0 1
Nghost:    419.25 ave 424 max 416 min
Histogram: 1 0 3 0 0 3 0 0 0 1
Neighs:    949.75 ave 999 max 936 min
Histogram: 4 2 1 0 0 0 0 0 0 1

Total # of neighbors = 7598
Ave neighs/atom = 58.8992
Neighbor list builds = 0
Dangerous builds = 0
WARNING: Using 'neigh_modify every 1 delay 0 check yes' setting during minimization (../min.cpp:190)
WARNING: Total cutoff < 2*bond cutoff. May need to use an increased neighbor list skin. (../pair_reaxc.cpp:413)
Setting up cg style minimization ...
  Unit style    : real
  Current step  : 208
WARNING: Energy due to 3 extra global DOFs will be included in minimizer energies
Per MPI rank memory allocation (min/avg/max) = 15.86 | 15.9 | 15.98 Mbytes
Step Temp E_pair E_mol TotEng Press Volume 
     208            0   -23426.847            0   -23426.847    966.71592    6604.1092 
     423            0   -23428.554            0   -23428.554   -113.26024    6608.3323 
Loop time of 0.630539 on 8 procs for 215 steps with 129 atoms

99.6% CPU use with 8 MPI tasks x no OpenMP threads

Minimization stats:
  Stopping criterion = linesearch alpha is zero
  Energy initial, next-to-last, final = 
        -23426.8472819     -23428.5539815     -23428.5539816
  Force two-norm initial, final = 186.874 44.7014
  Force max component initial, final = 127.264 23.7391
  Final line search alpha, max atom move = 4.01731e-12 9.53674e-11
  Iterations, force evaluations = 215 409

MPI task timing breakdown:
Section |  min time  |  avg time  |  max time  |%varavg| %total
---------------------------------------------------------------
Pair    | 0.43023    | 0.43752    | 0.45704    |   1.2 | 69.39
Neigh   | 0          | 0          | 0          |   0.0 |  0.00
Comm    | 0.0077136  | 0.027207   | 0.03453    |   4.7 |  4.31
Output  | 0.00047312 | 0.00057425 | 0.00070719 |   0.0 |  0.09
Modify  | 0.1573     | 0.15734    | 0.15741    |   0.0 | 24.95
Other   |            | 0.007893   |            |       |  1.25

Nlocal:    16.125 ave 17 max 16 min
Histogram: 7 0 0 0 0 0 0 0 0 1
Nghost:    419.25 ave 424 max 416 min
Histogram: 1 0 3 0 0 3 0 0 0 1
Neighs:    949 ave 995 max 935 min
Histogram: 3 1 2 1 0 0 0 0 0 1

Total # of neighbors = 7592
Ave neighs/atom = 58.8527
Neighbor list builds = 0
Dangerous builds = 0
WARNING: Using 'neigh_modify every 1 delay 0 check yes' setting during minimization (../min.cpp:190)
WARNING: Total cutoff < 2*bond cutoff. May need to use an increased neighbor list skin. (../pair_reaxc.cpp:413)
Setting up cg style minimization ...
  Unit style    : real
  Current step  : 423
Per MPI rank memory allocation (min/avg/max) = 15.86 | 15.9 | 15.98 Mbytes
Step Temp E_pair E_mol TotEng Press 
     423            0   -23428.554            0   -23428.554   -113.26024 
     465            0   -23428.997            0   -23428.997   -72.204888 
Loop time of 0.622761 on 8 procs for 42 steps with 129 atoms

99.6% CPU use with 8 MPI tasks x no OpenMP threads

Minimization stats:
  Stopping criterion = energy tolerance
  Energy initial, next-to-last, final = 
        -23428.5539815     -23428.9968795     -23428.9969004
  Force two-norm initial, final = 34.6985 71.1933
  Force max component initial, final = 18.1879 15.7203
  Final line search alpha, max atom move = 0.00243009 0.0382018
  Iterations, force evaluations = 42 336

MPI task timing breakdown:
Section |  min time  |  avg time  |  max time  |%varavg| %total
---------------------------------------------------------------
Pair    | 0.35557    | 0.36129    | 0.37727    |   1.1 | 58.01
Neigh   | 0          | 0          | 0          |   0.0 |  0.00
Comm    | 0.0058336  | 0.021835   | 0.02756    |   4.3 |  3.51
Output  | 9.1201e-05 | 0.00011035 | 0.00014118 |   0.0 |  0.02
Modify  | 0.2373     | 0.23733    | 0.23737    |   0.0 | 38.11
Other   |            | 0.002203   |            |       |  0.35

Nlocal:    16.125 ave 17 max 16 min
Histogram: 7 0 0 0 0 0 0 0 0 1
Nghost:    419.25 ave 424 max 416 min
Histogram: 1 0 3 0 0 3 0 0 0 1
Neighs:    948.75 ave 995 max 935 min
Histogram: 4 1 2 0 0 0 0 0 0 1

Total # of neighbors = 7590
Ave neighs/atom = 58.8372
Neighbor list builds = 0
Dangerous builds = 0
WARNING: Using 'neigh_modify every 1 delay 0 check yes' setting during minimization (../min.cpp:190)
WARNING: Total cutoff < 2*bond cutoff. May need to use an increased neighbor list skin. (../pair_reaxc.cpp:413)
Setting up cg style minimization ...
  Unit style    : real
  Current step  : 465
WARNING: Energy due to 3 extra global DOFs will be included in minimizer energies
Per MPI rank memory allocation (min/avg/max) = 15.86 | 15.9 | 15.98 Mbytes
Step Temp E_pair E_mol TotEng Press Volume 
     465            0   -23428.997            0   -23428.997   -72.204888    6608.3323 
     473            0   -23429.106            0   -23429.106   -42.167398    6608.1749 
Loop time of 0.0747181 on 8 procs for 8 steps with 129 atoms

99.6% CPU use with 8 MPI tasks x no OpenMP threads

Minimization stats:
  Stopping criterion = linesearch alpha is zero
  Energy initial, next-to-last, final = 
        -23428.9969004     -23429.1056819     -23429.1056819
  Force two-norm initial, final = 84.3615 26.1083
  Force max component initial, final = 34.0099 12.0075
  Final line search alpha, max atom move = 1.63402e-11 1.96205e-10
  Iterations, force evaluations = 8 48

MPI task timing breakdown:
Section |  min time  |  avg time  |  max time  |%varavg| %total
---------------------------------------------------------------
Pair    | 0.051391   | 0.052256   | 0.054516   |   0.4 | 69.94
Neigh   | 0          | 0          | 0          |   0.0 |  0.00
Comm    | 0.00082865 | 0.0030879  | 0.0039513  |   1.6 |  4.13
Output  | 2.2933e-05 | 2.7243e-05 | 3.4775e-05 |   0.0 |  0.04
Modify  | 0.018534   | 0.018539   | 0.018544   |   0.0 | 24.81
Other   |            | 0.0008083  |            |       |  1.08

Nlocal:    16.125 ave 17 max 16 min
Histogram: 7 0 0 0 0 0 0 0 0 1
Nghost:    419.25 ave 424 max 416 min
Histogram: 1 0 3 0 0 3 0 0 0 1
Neighs:    948.5 ave 993 max 934 min
Histogram: 3 1 2 1 0 0 0 0 0 1

Total # of neighbors = 7588
Ave neighs/atom = 58.8217
Neighbor list builds = 0
Dangerous builds = 0
WARNING: Using 'neigh_modify every 1 delay 0 check yes' setting during minimization (../min.cpp:190)
WARNING: Total cutoff < 2*bond cutoff. May need to use an increased neighbor list skin. (../pair_reaxc.cpp:413)
Setting up cg style minimization ...
  Unit style    : real
  Current step  : 473
Per MPI rank memory allocation (min/avg/max) = 15.86 | 15.9 | 15.98 Mbytes
Step Temp E_pair E_mol TotEng Press 
     473            0   -23429.106            0   -23429.106   -42.167398 
     514            0   -23429.354            0   -23429.354   -62.249166 
Loop time of 0.716561 on 8 procs for 41 steps with 129 atoms

99.0% CPU use with 8 MPI tasks x no OpenMP threads

Minimization stats:
  Stopping criterion = energy tolerance
  Energy initial, next-to-last, final = 
        -23429.1056819     -23429.3539353     -23429.3540427
  Force two-norm initial, final = 21.7319 17.1714
  Force max component initial, final = 4.92173 6.07218
  Final line search alpha, max atom move = 0.000257301 0.00156238
  Iterations, force evaluations = 41 383

MPI task timing breakdown:
Section |  min time  |  avg time  |  max time  |%varavg| %total
---------------------------------------------------------------
Pair    | 0.40738    | 0.41307    | 0.4303     |   1.1 | 57.65
Neigh   | 0          | 0          | 0          |   0.0 |  0.00
Comm    | 0.011954   | 0.029206   | 0.03488    |   4.1 |  4.08
Output  | 8.9567e-05 | 0.00011163 | 0.0001582  |   0.0 |  0.02
Modify  | 0.27159    | 0.27166    | 0.27173    |   0.0 | 37.91
Other   |            | 0.002515   |            |       |  0.35

Nlocal:    16.125 ave 17 max 16 min
Histogram: 7 0 0 0 0 0 0 0 0 1
Nghost:    419.25 ave 424 max 416 min
Histogram: 1 0 3 0 0 3 0 0 0 1
Neighs:    948.5 ave 993 max 934 min
Histogram: 3 1 2 1 0 0 0 0 0 1

Total # of neighbors = 7588
Ave neighs/atom = 58.8217
Neighbor list builds = 0
Dangerous builds = 0
WARNING: Total cutoff < 2*bond cutoff. May need to use an increased neighbor list skin. (../pair_reaxc.cpp:413)
Setting up Verlet run ...
  Unit style    : real
  Current step  : 0
  Time step     : 0.25
Per MPI rank memory allocation (min/avg/max) = 14.73 | 14.78 | 14.86 Mbytes
Step Temp TotEng KinEng PotEng Press 
       0          300   -23314.891    114.46311   -23429.354    729.55329 
     200    214.62555   -23274.105    81.889023   -23355.994    907.63589 
     400    253.34708   -23214.649     96.66298   -23311.312   -3025.3491 
     600    300.54604    -23188.54    114.67144   -23303.211   -4422.6275 
     800    265.48594   -23211.205    101.29448   -23312.499    6700.3806 
    1000    288.16019   -23192.556     109.9457   -23302.502    1867.1085 
    1200    293.03208   -23184.793    111.80454   -23296.598   -5691.9194 
    1400    274.03556   -23205.783    104.55654    -23310.34   -1130.6393 
    1600    289.87511   -23207.542    110.60002   -23318.142    5624.5728 
    1800    268.52529    -23228.11    102.45413   -23330.564   -3223.8639 
    2000    325.12813   -23204.107    124.05058   -23328.158   -2202.0198 
    2200    293.68284    -23207.67    112.05283   -23319.723    3681.0493 
    2400    364.66206   -23177.219    139.13451   -23316.354    4947.6678 
    2600    307.89616   -23182.621    117.47584   -23300.097    10924.336 
    2800    280.54726   -23196.627    107.04103   -23303.668     6406.516 
    3000    264.20615   -23211.991    100.80619   -23312.798    2292.6625 
    3200    364.04409   -23185.366    138.89872   -23324.265    3268.3533 
    3400    304.54598   -23209.017     116.1976   -23325.215    8310.1144 
    3600    292.48246    -23218.41    111.59484   -23330.005   -416.11509 
    3800    304.20483   -23212.257    116.06743   -23328.325   -5573.3918 
    4000    284.06202   -23198.369    108.38207   -23306.751   -7277.6238 
    4200    321.04032   -23177.738    122.49091   -23300.229   -4040.9883 
    4400    320.34025   -23191.447     122.2238   -23313.671   -8851.8862 
    4600     312.2251   -23192.484    119.12751   -23311.612    5996.7974 
    4800    318.19952   -23180.701    121.40702   -23302.108    3211.3153 
    5000    285.43021   -23214.973     108.9041   -23323.877   -2954.9485 
    5200    332.00263   -23199.364    126.67351   -23326.038    7099.4768 
    5400     313.7763   -23207.781    119.71937     -23327.5   -1201.7864 
    5600    292.21335   -23220.608    111.49216   -23332.101   -8157.6954 
    5800    309.02887   -23196.126    117.90801   -23314.034    -7022.491 
    6000    308.99988   -23195.371    117.89695   -23313.268    1502.7073 
    6200     336.3671   -23178.496    128.33874   -23306.835    1863.6113 
    6400    309.38499    -23193.23    118.04389   -23311.274     1344.907 
    6600    312.40744   -23196.085    119.19708   -23315.282    3663.5102 
    6800    349.01233   -23196.226    133.16345   -23329.389   -40.272908 
    7000    282.94954   -23218.902    107.95761   -23326.859    7548.3199 
    7200    288.17825   -23210.165    109.95259   -23320.118    3272.9318 
    7400    319.20736   -23184.541    121.79155   -23306.333    1547.8698 
    7600    271.65308   -23206.741    103.64752   -23310.388    2503.6319 
    7800    278.16517   -23208.216    106.13216   -23314.348   -364.30926 
    8000     307.6837   -23195.319    117.39477   -23312.713    1091.9516 
    8200    316.56441   -23186.784    120.78315   -23307.567    8133.5163 
    8400    269.90242   -23214.708    102.97956   -23317.688    3341.8825 
    8600    334.25665   -23203.366    127.53351   -23330.899    4638.3024 
    8800    292.27449   -23214.278    111.51549   -23325.793    11845.995 
    9000    301.95404    -23222.07    115.20866   -23337.278    12324.696 
    9200     327.7061   -23198.785    125.03419   -23323.819    10314.999 
    9400    335.80155   -23191.855    128.12296   -23319.978    3365.5135 
    9600    331.95206   -23174.487    126.65421   -23301.141    3423.4202 
    9800    289.00185   -23201.926    110.26683   -23312.192   -2580.9941 
   10000    290.77383   -23200.445    110.94292   -23311.388   -4778.5651 
   10200    297.75264   -23209.745    113.60564   -23323.351   -3483.6422 
   10400    266.86644   -23223.441     101.8212   -23325.262    483.10742 
   10600    325.12019   -23196.401    124.04756   -23320.448    4269.0777 
   10800    283.48725   -23219.885    108.16277   -23328.048   -880.81889 
   11000    300.98798   -23207.133    114.84006   -23321.973   -258.24799 
   11200     306.8128   -23194.248    117.06249   -23311.311   -5161.3668 
   11400    308.26581   -23175.558    117.61687   -23293.175    -6584.272 
   11600    255.36749    -23211.63    97.433853   -23309.064   -8378.9966 
   11800    302.48272   -23200.942    115.41037   -23316.352   -5821.4101 
   12000    320.05886   -23188.833    122.11644    -23310.95    322.18777 
   12200    251.82123   -23219.405    96.080802   -23315.486   -641.71653 
   12400    320.83337   -23201.618    122.41195    -23324.03   -3239.9087 
   12600    268.54087   -23208.315    102.46007   -23310.775   -2367.4218 
   12800    316.89397   -23209.785    120.90889   -23330.694   -1023.4619 
   13000    311.65972    -23188.48     118.9118   -23307.391   -2025.2754 
   13200     274.6529    -23207.68    104.79208   -23312.472   -6479.4384 
   13400    301.28255   -23211.535    114.95245   -23326.487    1824.7539 
   13600    317.70179   -23197.461    121.21711   -23318.678     7927.874 
   13800    295.13493   -23215.322    112.60687   -23327.929    3442.3106 
   14000    280.87196   -23225.215    107.16492    -23332.38   -1942.4974 
   14200    301.79882   -23204.764    115.14943   -23319.914   -595.41373 
   14400    307.86388    -23188.72    117.46352   -23306.184   -3684.7055 
   14600     349.6357   -23192.701    133.40129   -23326.102   -1033.1317 
   14800    267.58701   -23203.427    102.09613   -23305.524   -1265.6451 
   15000    307.60454    -23183.46    117.36457   -23300.825   -11810.066 
   15200    244.74957   -23210.136    93.382652   -23303.519   -379.44499 
   15400    283.95297   -23213.412    108.34046   -23321.752   -6138.3114 
   15600    305.60867   -23196.971    116.60306   -23313.574    5552.4774 
   15800    331.33752   -23176.096    126.41974   -23302.515    2172.1072 
   16000     281.0311   -23208.226    107.22564   -23315.452    765.44712 
   16200    308.61559    -23194.96    117.75033    -23312.71    6767.1917 
   16400    292.93385   -23200.095    111.76706   -23311.862     4075.306 
   16600    305.95436   -23205.995    116.73495    -23322.73    5769.5804 
   16800    305.05882   -23189.374    116.39327   -23305.768   -596.01546 
   17000    306.72275   -23204.396    117.02813   -23321.424    3790.8669 
   17200    242.74056   -23237.184    92.616127     -23329.8   -6192.7179 
   17400    300.08381   -23216.839    114.49508   -23331.334   -3008.6198 
   17600    314.33824   -23198.541    119.93377   -23318.474    4613.3924 
   17800    266.08827   -23213.327     101.5243   -23314.851   -1477.1691 
   18000    297.19951   -23208.887    113.39459   -23322.282   -2687.3396 
   18200     280.6166   -23198.667    107.06749   -23305.735    -1257.622 
   18400    290.84435   -23211.005    110.96983   -23321.975   -2676.4333 
   18600    272.75156   -23215.207    104.06664   -23319.274   -2161.5743 
   18800    295.32749   -23195.429    112.68034   -23308.109    3549.4179 
   19000    275.80444   -23216.508    105.23144   -23321.739    4688.1753 
   19200     336.2547   -23214.867    128.29586   -23343.163   -5679.9868 
   19400    296.28126   -23202.422    113.04424   -23315.466   -2183.3285 
   19600    297.96249   -23198.335    113.68571   -23312.021    -7792.724 
   19800    274.91204   -23200.548    104.89095   -23305.439   -3258.3142 
   20000    318.01298   -23178.401    121.33584   -23299.736   -3378.9609 
   20200    280.21877   -23195.764     106.9157   -23302.679   -204.83688 
   20400    312.98567   -23203.592    119.41771   -23323.009   -11021.792 
   20600     307.2707   -23195.157    117.23719   -23312.395   -5897.3222 
   20800    312.81954   -23192.051    119.35432   -23311.406    3335.8071 
   21000    305.51417    -23208.04      116.567   -23324.607     848.9452 
   21200    297.11499   -23199.147    113.36235    -23312.51   -1483.7571 
   21400     288.1229   -23197.601    109.93147   -23307.533    2781.1527 
   21600    280.14667   -23194.767    106.88819   -23301.655   -1183.4582 
   21800    296.66835   -23163.463    113.19194   -23276.655   -2536.8119 
   22000    318.70065   -23189.964    121.59822   -23311.562   -2382.7213 
   22200    280.60762    -23208.11    107.06406   -23315.174   -751.37011 
   22400    294.50432   -23190.081    112.36626   -23302.448    65.171046 
   22600    277.46889   -23201.704     105.8665    -23307.57   -3181.8348 
   22800    319.50086   -23207.669    121.90354   -23329.573   -3397.1728 
   23000    336.41182   -23180.174     128.3558    -23308.53   -3415.2261 
   23200    315.94014   -23195.855    120.54497     -23316.4    5436.0428 
   23400     284.7573   -23206.392    108.64735   -23315.039    11013.633 
   23600    330.05861   -23183.317    125.93178   -23309.249    5365.0226 
   23800     325.5431   -23196.843    124.20891   -23321.052    3840.1733 
   24000    342.61583   -23192.861    130.72291   -23323.584    2485.8607 
   24200    296.12772   -23217.487    112.98566   -23330.473    5043.6632 
   24400     309.8235   -23204.439     118.2112    -23322.65    2398.8768 
   24600    305.27231   -23200.846    116.47472   -23317.321   -4331.4036 
   24800    309.73428   -23197.418    118.17716   -23315.595    8346.6373 
   25000     283.9112     -23211.8    108.32453   -23320.125    2068.5217 
   25200     308.4953    -23187.16    117.70444   -23304.864   -7987.6339 
   25400    272.54832   -23200.915    103.98909   -23304.904   -3824.3735 
   25600    285.75791   -23206.156    109.02912   -23315.185   -1056.1437 
   25800    339.50115   -23195.706    129.53452   -23325.241   -1588.7926 
   26000    278.81927   -23221.917    106.38173   -23328.299   -4253.0843 
   26200    263.88269   -23212.106    100.68277   -23312.788   -443.83395 
   26400    303.63736   -23202.258    115.85092   -23318.109   -5442.8663 
   26600     267.7061   -23225.617    102.14157   -23327.758   -4317.8016 
   26800    288.19588   -23208.485    109.95932   -23318.444   -2349.8219 
   27000    291.06897    -23191.84    111.05553   -23302.896    4158.7561 
   27200    333.53462   -23178.721    127.25803   -23305.979    7802.3055 
   27400    278.00049   -23211.389    106.06933   -23317.459    4204.0435 
   27600    323.54671   -23197.714     123.4472   -23321.161    -919.1213 
   27800    339.95426   -23188.002     129.7074   -23317.709   -547.34336 
   28000    288.96795   -23220.649     110.2539   -23330.903    11164.922 
   28200    323.07313    -23202.96    123.26651   -23326.227    5615.7093 
   28400    313.40721   -23204.711    119.57854   -23324.289    1383.6626 
   28600    270.74192   -23223.456    103.29987   -23326.756   -6014.0725 
   28800    308.35881    -23193.48    117.65236   -23311.133   -380.15997 
   29000     294.9905    -23190.55    112.55176   -23303.102    3182.0877 
   29200    262.14995   -23217.075    100.02166   -23317.097   -5334.8151 
   29400    286.19366    -23203.39    109.19539   -23312.585    6068.9541 
   29600    301.44109   -23204.176    115.01294   -23319.189   -2080.0193 
   29800    308.83147   -23212.505     117.8327   -23330.338   -9497.4228 
   30000    292.94258   -23210.186    111.77039   -23321.957   -3847.4786 
   30200    342.95771   -23187.329    130.85335   -23318.183    4605.2552 
   30400     346.8876   -23176.487    132.35277    -23308.84   -2136.5099 
   30600    278.00258   -23206.908    106.07013   -23312.979   -4757.2713 
   30800    315.43567   -23187.179    120.35249   -23307.531   -61.950595 
   31000    329.76249   -23187.041     125.8188    -23312.86    2772.8795 
   31200    304.96801   -23202.267    116.35862   -23318.626   -5239.4464 
   31400    274.62953   -23225.907    104.78316    -23330.69   -1505.6187 
   31600    252.08771   -23223.809    96.182474   -23319.991    276.28415 
   31800    310.10763   -23211.949    118.31961   -23330.269   -7122.0492 
   32000    315.18831   -23190.972    120.25811    -23311.23    6365.6197 
   32200    300.91685   -23176.931    114.81292   -23291.744    9679.5115 
   32400    294.46132   -23205.394    112.34986   -23317.744    5973.3167 
   32600    309.02398   -23188.634    117.90615    -23306.54    896.37716 
   32800    317.76837   -23184.942    121.24251   -23306.185    1657.9054 
   33000    266.35373   -23211.302    101.62559   -23312.928   -2693.3831 
   33200    329.34751    -23193.88    125.66046   -23319.541   -7369.5917 
   33400    309.84696   -23196.225    118.22015   -23314.446     98.28558 
   33600    297.68714   -23208.806    113.58065   -23322.387    -845.0969 
   33800     312.6825   -23204.139    119.30203   -23323.441   -2051.6966 
   34000    289.22404   -23179.938    110.35161    -23290.29    6884.1703 
   34200    283.59176    -23203.21    108.20265   -23311.412    3740.7434 
   34400    336.12482   -23195.229     128.2463   -23323.475    7659.5365 
   34600    287.07814   -23201.497    109.53285    -23311.03    4890.4532 
   34800      262.181   -23219.287     100.0335   -23319.321    15638.182 
   35000     309.9597   -23195.084    118.26317   -23313.347    6748.1171 
   35200    318.45508   -23208.373    121.50453   -23329.878   -2163.9867 
   35400    286.14566    -23218.25    109.17707   -23327.427    -17187.64 
   35600    290.99246   -23206.935    111.02633   -23317.961   -9707.0942 
   35800    289.30683   -23197.113    110.38319   -23307.496    3096.3831 
   36000    323.23308   -23181.718    123.32754   -23305.045    850.06968 
   36200    303.12423    -23195.61    115.65514   -23311.265    -7038.277 
   36400    291.86878   -23208.485    111.36069   -23319.846    2838.2932 
   36600    296.99312    -23216.42    113.31585   -23329.736    2643.9271 
   36800    309.45199   -23198.169    118.06945   -23316.238   -732.63128 
   37000    305.71121   -23193.494    116.64218   -23310.136    4353.4669 
   37200    275.17882   -23221.581    104.99274   -23326.574   -666.07347 
   37400    270.34279   -23222.381    103.14758   -23325.529   -2838.4555 
   37600    334.65166   -23195.907    127.68423   -23323.592   -4609.6786 
   37800    292.15047   -23207.265    111.46817   -23318.733   -534.26952 
   38000    314.10079   -23192.929    119.84317   -23312.773   -2324.1459 
   38200    270.82906   -23207.311    103.33312   -23310.644    4104.3856 
   38400    287.77763   -23208.433    109.79974   -23318.233    -495.9456 
   38600    272.95119   -23194.983     104.1428   -23299.126    701.49212 
   38800    268.85831   -23216.354    102.58119   -23318.936    2367.1278 
   39000    315.97066   -23203.798    120.55661   -23324.355    3561.1863 
   39200    300.68877   -23189.342     114.7259   -23304.068   -7214.2508 
   39400    280.42119   -23212.215    106.99293   -23319.208    2279.9658 
   39600    285.25945   -23219.527    108.83894   -23328.366    6167.8604 
   39800    313.86213   -23209.007    119.75211   -23328.759      970.659 
   40000    333.93137   -23197.528    127.40941   -23324.937   -2579.7839 
   40200    310.75616   -23188.156    118.56705   -23306.723   -4627.5938 
   40400     283.1547   -23218.854    108.03589   -23326.889    5065.1182 
   40600    274.60146   -23196.447    104.77246   -23301.219     3846.273 
   40800     290.6203   -23185.194    110.88434   -23296.079    4691.9208 
   41000    298.46668   -23199.391    113.87808   -23313.269    6197.8449 
   41200    295.09905   -23217.797    112.59318    -23330.39   -311.35404 
   41400    279.50899     -23218.4    106.64489   -23325.045   -4004.2022 
   41600    307.44976   -23197.259    117.30552   -23314.564    3875.4271 
   41800    288.99916   -23218.156     110.2658   -23328.422    2785.7639 
   42000     304.8287   -23202.719    116.30547   -23319.024    3023.2308 
   42200     320.7549   -23182.737    122.38201   -23305.119    6316.8414 
   42400    285.76899   -23204.854    109.03336   -23313.888    194.29073 
   42600    260.17332   -23221.601    99.267488   -23320.868    1641.3909 
   42800    307.78178   -23192.623     117.4322   -23310.055   -5322.5492 
   43000    302.77201   -23196.655    115.52075   -23312.176   -9129.9581 
   43200     263.8601   -23223.488    100.67416   -23324.162   -3029.9114 
   43400    309.33205   -23218.907    118.02369   -23336.931   -4166.5819 
   43600    323.40094   -23183.117    123.39159   -23306.508   -4539.4678 
   43800    282.47054   -23174.446    107.77485   -23282.221   -2783.7611 
   44000    302.06005   -23192.417    115.24911   -23307.666   -3060.4323 
   44200    307.67858    -23201.97    117.39282   -23319.363   -2328.9076 
   44400    273.35148   -23200.092    104.29553   -23304.388   -1665.7364 
   44600    300.74676    -23172.14    114.74803   -23286.888   -395.33269 
   44800    299.64734   -23200.379    114.32855   -23314.708    1735.3368 
   45000    301.19292   -23212.229    114.91826   -23327.147    6437.7016 
   45200     274.4477   -23227.776    104.71379    -23332.49    8399.1194 
   45400    315.24551   -23206.997    120.27993   -23327.277   -3007.7558 
   45600    322.17483   -23195.336    122.92377    -23318.26    3195.4484 
   45800    277.26431    -23210.24    105.78845   -23316.028    9869.4631 
   46000    323.09267   -23182.527    123.27397   -23305.801    6382.3024 
   46200     323.7018    -23199.43    123.50638   -23322.936    2606.1468 
   46400     297.0593   -23203.076     113.3411   -23316.418    6215.7579 
   46600    284.90713    -23199.26    108.70452   -23307.964    2702.9421 
   46800    318.73942   -23183.296    121.61301   -23304.909    1336.0132 
   47000    306.31865   -23211.248    116.87395   -23328.122     2988.215 
   47200    254.75556   -23219.896    97.200376   -23317.097    1184.3108 
   47400     297.7769   -23190.506     113.6149   -23304.121   -6508.2267 
   47600    297.95969   -23192.114    113.68464   -23305.799   -2398.6212 
   47800     289.7503   -23217.293     110.5524   -23327.845   -1916.3802 
   48000    320.26904   -23192.415    122.19663   -23314.612   -3570.3189 
   48200     303.4832   -23193.535     115.7921   -23309.328   -746.57781 
   48400    261.20686   -23217.765    99.661827   -23317.427   -900.27685 
   48600    281.72672   -23207.095    107.49105   -23314.586    178.23732 
   48800    306.02921   -23203.618    116.76351   -23320.382    7884.7006 
   49000    281.74109   -23215.138    107.49654   -23322.635    398.89772 
   49200    311.67424    -23210.24    118.91734   -23329.157   -6231.9834 
   49400    324.16764    -23196.32    123.68411   -23320.004   -1161.4386 
   49600    282.84216   -23210.336    107.91664   -23318.252    8545.8828 
   49800    310.00975   -23199.276    118.28226   -23317.559   -1574.8182 
   50000    303.73465   -23202.965    115.88804   -23318.853     8.871889 
   50200    313.00366   -23213.512    119.42457   -23332.937     2088.349 
   50400    318.32347   -23193.687    121.45431   -23315.141   -8545.1814 
   50600    305.27433   -23196.662    116.47549   -23313.137    -8842.468 
   50800    293.50627   -23199.738    111.98546   -23311.723    8515.9071 
   51000    279.49052   -23219.204    106.63784   -23325.842   -1739.5898 
   51200    328.16755   -23193.091    125.21026   -23318.302   -2469.1429 
   51400    314.47142   -23196.034    119.98459   -23316.019   -90.956761 
   51600    290.91616   -23215.288    110.99722   -23326.286    2277.2111 
   51800     279.2477   -23223.727     106.5452   -23330.272   -3042.2164 
   52000    321.70414   -23197.261    122.74418   -23320.005   -3241.1937 
   52200     309.5267   -23198.049    118.09796   -23316.147   -2578.0595 
   52400     316.3029   -23186.141    120.68337   -23306.824    635.60375 
   52600    304.16581    -23190.58    116.05254   -23306.632   -7574.1334 
   52800    278.96757   -23202.981    106.43832   -23309.419    3484.9203 
   53000    306.52783   -23196.573    116.95376   -23313.527    4536.1055 
   53200    274.39291     -23215.3    104.69288   -23319.993   -4605.0108 
   53400    328.09584   -23192.161     125.1829   -23317.344   -5202.0926 
   53600    294.32341   -23220.399    112.29724   -23332.696   -3220.0986 
   53800    310.85332   -23210.809    118.60412   -23329.413    6217.5018 
   54000    294.70744   -23201.431    112.44376   -23313.875    368.27218 
   54200    271.02852    -23224.08    103.40922   -23327.489    1037.0406 
   54400    315.79517   -23195.959    120.48965   -23316.449    1687.6439 
   54600    305.95525   -23191.137     116.7353   -23307.872    4429.8532 
   54800    291.70545   -23218.019    111.29837   -23329.317   -3065.5779 
   55000    305.12664   -23202.335    116.41914   -23318.755      5991.23 
   55200     298.5428   -23198.552    113.90712   -23312.459    10057.822 
   55400    324.62876   -23211.126    123.86006   -23334.986    1866.5442 
   55600    297.72767   -23221.255    113.59611   -23334.851   -1946.1098 
   55800    317.65666   -23205.412    121.19989   -23326.611   -549.76893 
   56000     314.0121   -23181.525    119.80934   -23301.335   -5902.0506 
   56200     316.1554   -23180.838     120.6271   -23301.465   -2332.4567 
   56400     282.3785   -23201.051    107.73973    -23308.79   -3620.3401 
   56600    263.79804    -23210.61    100.65048   -23311.261    2241.4383 
   56800    344.64735   -23188.454    131.49802   -23319.952    -5669.407 
   57000     283.3156   -23203.118    108.09728   -23311.215    1555.5752 
   57200    316.19667   -23187.974    120.64284   -23308.617    8954.6245 
   57400    252.81595    -23210.81    96.460328   -23307.271   -448.41839 
   57600    319.10909   -23206.863    121.75406   -23328.617    2477.8084 
   57800    317.34436   -23189.542    121.08074   -23310.623    2149.2701 
   58000    285.58654   -23205.337    108.96374   -23314.301   -5743.4841 
   58200    326.08793   -23192.752    124.41679   -23317.169   -8052.4829 
   58400    324.80413   -23181.583    123.92697    -23305.51    -2651.012 
   58600    284.11426   -23204.276      108.402   -23312.678   -124.45867 
   58800     294.7821   -23206.717    112.47225    -23319.19    -7261.209 
   59000    344.32052   -23181.314    131.37332   -23312.688   -5238.5256 
   59200    305.38709   -23206.468    116.51852   -23322.986      5126.51 
   59400    340.60855   -23195.472    129.95704   -23325.429    3623.2624 
   59600    280.13805   -23215.589     106.8849   -23322.474    3860.5476 
   59800    289.74359   -23216.001    110.54984   -23326.551     777.1518 
   60000    296.29235   -23194.115    113.04848   -23307.163    2229.1599 
   60200    290.79625   -23196.315    110.95147   -23307.267   -693.86016 
   60400    327.29064   -23180.094    124.87568    -23304.97    213.17052 
   60600    279.54848   -23211.765    106.65996   -23318.425   -871.69007 
   60800    292.25157   -23195.825    111.50674   -23307.332   -4273.1871 
   61000    306.64047   -23188.624    116.99674   -23305.621   -6312.4378 
   61200    322.75115    -23203.27    123.14366   -23326.413   -5520.9426 
   61400    334.52981   -23206.891    127.63774   -23334.528   -2548.4901 
   61600    317.95545   -23184.207     121.3139   -23305.521    3287.2208 
   61800    296.16094   -23203.936    112.99834   -23316.934   -6150.0722 
   62000    287.01398    -23202.45    109.50837   -23311.958   -14058.848 
   62200    349.58174   -23172.945    133.38071   -23306.325   -1582.0344 
   62400    304.03717   -23199.713    116.00346   -23315.716    3321.2731 
   62600     295.8034   -23198.271    112.86192   -23311.133    4737.7418 
   62800    317.73218   -23181.396    121.22871   -23302.625    429.72017 
   63000    269.43592   -23209.111    102.80158   -23311.912   -5944.6499 
   63200    317.85595    -23203.71    121.27593   -23324.986    770.64975 
   63400    266.44842   -23216.167    101.66171   -23317.828    2210.1396 
   63600    284.32495    -23206.79    108.48239   -23315.272   -2903.4362 
   63800    307.39295   -23198.752    117.28384   -23316.036    3065.9218 
   64000    303.12819   -23187.486    115.65665   -23303.142      5473.91 
   64200    309.96919   -23189.225    118.26679   -23307.491   -10444.887 
   64400    299.87782   -23210.454    114.41649    -23324.87   -10727.822 
   64600    315.37386   -23186.246    120.32891   -23306.575   -5734.1401 
   64800    306.38191   -23201.302    116.89808     -23318.2   -607.14652 
   65000    288.28574   -23205.134     109.9936   -23315.128   -804.99818 
   65200    311.34309   -23182.295    118.79099   -23301.086   -373.60706 
   65400    281.42509   -23201.411    107.37597   -23308.787     1567.089 
   65600    293.66002   -23211.978    112.04413   -23324.022   -5542.8957 
   65800    350.80667   -23181.272    133.84807    -23315.12    2155.2844 
   66000    306.26349   -23194.725     116.8529   -23311.578   -1731.3577 
   66200    257.96621   -23224.677    98.425377   -23323.103    2120.0659 
   66400    272.59381   -23228.124    104.00645   -23332.131    4468.5921 
   66600    318.91051   -23203.389    121.67829   -23325.067   -2749.4942 
   66800    282.21947   -23188.358    107.67906   -23296.037   -1303.1805 
   67000    295.86496     -23186.6    112.88541   -23299.485   -1791.9814 
   67200    278.19427   -23219.831    106.14327   -23325.974    6341.8861 
   67400    295.39139   -23206.884    112.70472   -23319.588    7948.0317 
   67600     319.7399    -23193.02    121.99474   -23315.015    256.48002 
   67800    293.72369   -23207.741    112.06842    -23319.81   -182.42767 
   68000    318.71316   -23197.657      121.603    -23319.26   -1726.2309 
   68200    299.11526   -23202.894    114.12554    -23317.02   -1414.8825 
   68400    312.14731   -23199.022    119.09783    -23318.12   -1003.0318 
   68600    355.27246   -23185.498    135.55196    -23321.05   -1095.8979 
   68800    331.01563   -23208.443    126.29692    -23334.74   -824.87852 
   69000    288.35667   -23203.614    110.02067   -23313.635   -7131.6074 
   69200    290.27511   -23196.969    110.75264   -23307.722    951.44716 
   69400    267.16982   -23208.307    101.93696   -23310.244    -1267.253 
   69600    271.08911   -23219.017    103.43234   -23322.449   -315.43555 
   69800    319.09296   -23187.633    121.74791   -23309.381    126.10671 
   70000    323.53149   -23194.559     123.4414   -23318.001   -2313.0989 
   70200    270.06755   -23211.933    103.04257   -23314.976   -31.066185 
   70400    300.69041   -23189.392    114.72653   -23304.119    6685.6358 
   70600    267.37582   -23204.548    102.01555   -23306.564    2728.2346 
   70800    311.64537   -23186.883    118.90632    -23305.79    1093.3344 
   71000    298.26432    -23202.72    113.80087   -23316.521    407.82604 
   71200    296.61385   -23212.719    113.17114    -23325.89   -283.64183 
   71400    328.46457   -23185.435    125.32358   -23310.758   -2831.2202 
   71600    304.98336   -23196.988    116.36448   -23313.352    192.84475 
   71800    243.85064   -23226.263    93.039671   -23319.303     13367.22 
   72000     287.1779   -23217.647    109.57091   -23327.218    4704.1438 
   72200    325.79237   -23196.851    124.30402   -23321.155    386.43178 
   72400    312.71914   -23200.773    119.31601   -23320.089   -3841.7235 
   72600    303.67398   -23219.879    115.86489   -23335.744    563.51425 
   72800    324.42467   -23197.144    123.78218   -23320.927   -1697.0009 
   73000    308.99919   -23177.585    117.89669   -23295.482   -2409.3384 
   73200    288.77703   -23207.764    110.18105   -23317.945   -2749.4284 
   73400    313.11056    -23196.37    119.46536   -23315.836    291.59114 
   73600    290.55898   -23217.613    110.86094   -23328.474    1879.1039 
   73800    297.48888   -23205.035      113.505    -23318.54    3245.9633 
   74000    328.79573   -23193.459    125.44994   -23318.909   -2610.2169 
   74200    280.08358   -23218.092    106.86412   -23324.956   -1116.3655 
   74400    271.80102   -23202.243    103.70396   -23305.947    11570.072 
   74600    308.81928    -23198.37    117.82805   -23316.198     4088.286 
   74800    277.33331   -23206.359    105.81477   -23312.174    5912.7122 
   75000    318.88466    -23185.72    121.66843   -23307.388   -253.98837 
   75200    276.91098   -23211.896    105.65364    -23317.55   -9286.7368 
   75400    277.53192   -23204.032    105.89055   -23309.923   -7481.6828 
   75600    321.84927   -23199.911    122.79956   -23322.711   -29.402912 
   75800    263.92887   -23222.768    100.70039   -23323.468   -3820.8301 
   76000    319.85449   -23196.331    122.03846    -23318.37   -2983.1541 
   76200    310.88038   -23200.712    118.61445   -23319.326   -2434.7694 
   76400    273.17773   -23228.628    104.22924   -23332.857    590.33394 
   76600    313.49872   -23197.195    119.61346   -23316.809    2267.9793 
   76800    288.60801   -23202.337    110.11656   -23312.453    2476.4176 
   77000     367.6358   -23184.734    140.26912   -23325.004   -2363.7456 
   77200    310.61632   -23210.635    118.51369   -23329.149   -3348.6037 
   77400    273.69889   -23207.877    104.42809   -23312.305    7509.5786 
   77600    310.66971   -23189.551    118.53407   -23308.085   -1164.8847 
   77800    269.19259   -23203.869    102.70873   -23306.578    1690.6566 
   78000    295.16879   -23204.342    112.61979   -23316.962    676.69978 
   78200    289.31262   -23214.814    110.38541     -23325.2   -2878.3556 
   78400    295.92657   -23199.185    112.90892   -23312.094    2089.5645 
   78600    314.00728   -23189.519     119.8075   -23309.327    2922.7486 
   78800    259.95006   -23220.608    99.182305    -23319.79    4750.3251 
   79000    296.72316   -23198.764    113.21285   -23311.977   -5239.3232 
   79200    317.61179   -23187.447    121.18277    -23308.63   -547.49854 
   79400    266.06575   -23217.862    101.51571   -23319.378   -3417.6571 
   79600    289.77736   -23204.473    110.56272   -23315.035    1768.5384 
   79800    319.11067   -23185.824    121.75466   -23307.579     -7676.95 
   80000    291.75597   -23210.499    111.31765   -23321.817   -5589.5934 
   80200    286.89082   -23212.501    109.46138   -23321.963    2804.8054 
   80400    308.18615   -23195.637    117.58648   -23313.223    4951.2169 
   80600    299.19549   -23222.818    114.15615   -23336.974    9153.0638 
   80800    317.55272   -23205.348    121.16023   -23326.508    3466.8241 
   81000    300.25095   -23210.244    114.55886   -23324.803    162.38585 
   81200    314.28025   -23178.306    119.91164   -23298.218    562.09476 
   81400    329.42468    -23198.12    125.68991    -23323.81    7327.2525 
   81600     309.6697   -23212.681    118.15252   -23330.834    4587.2573 
   81800    336.11435   -23185.051    128.24231   -23313.294   -1943.3114 
   82000    329.53752   -23186.669    125.73296   -23312.402   -4209.5519 
   82200     309.9983   -23197.726     118.2779   -23316.004   -9299.5084 
   82400    283.15022   -23211.924    108.03418   -23319.958   -6517.9487 
   82600      290.313   -23207.004    110.76709   -23317.772   -605.96729 
   82800    323.72783   -23185.814    123.51631    -23309.33   -1424.0728 
   83000    272.11308   -23210.602    103.82303   -23314.425   -4697.9525 
   83200    280.91754   -23193.221    107.18231   -23300.404   -736.96511 
   83400    295.13694   -23190.624    112.60764   -23303.232   -3891.6893 
   83600    262.66524   -23200.688    100.21826   -23300.906    -4280.787 
   83800      311.392    -23182.24    118.80965    -23301.05   -1645.6015 
   84000    300.98729   -23209.226     114.8398   -23324.065    997.52057 
   84200    305.62141   -23204.379    116.60792   -23320.987    81.542262 
   84400    339.10553    -23184.51    129.38357   -23313.894   -3267.3522 
   84600    312.93783   -23201.059    119.39945   -23320.458    3190.0663 
   84800    298.18033   -23216.546    113.76882   -23330.315    639.39937 
   85000    309.41314   -23195.569    118.05463   -23313.623   -1847.1973 
   85200    328.59944   -23189.048    125.37504   -23314.423   -3252.5321 
   85400    307.86156   -23211.648    117.46263   -23329.111   -3690.9767 
   85600    329.67218   -23201.414    125.78434   -23327.199   -1376.6512 
   85800    310.32194   -23171.473    118.40138   -23289.875    6109.7357 
   86000    312.39958   -23196.357    119.19409   -23315.551    2655.3345 
   86200    321.96402   -23210.889    122.84334   -23333.733    6009.0099 
   86400    315.94291    -23210.15    120.54602   -23330.696    2772.4049 
   86600    365.32429   -23181.684    139.38717   -23321.071    225.99625 
   86800    316.71477   -23202.915    120.84052   -23323.756    3058.1306 
   87000     282.3617   -23210.865    107.73332   -23318.598    532.06606 
   87200    300.98114   -23201.409    114.83745   -23316.247    -2662.875 
   87400    328.82701   -23173.175    125.46187   -23298.636    2733.4687 
   87600     284.4231   -23199.928    108.51984   -23308.447   -1659.9955 
   87800    310.03359   -23207.171    118.29136   -23325.463   -4456.7531 
   88000    280.99282   -23212.466    107.21104   -23319.677   -9027.7981 
   88200    299.13613   -23181.993     114.1335   -23296.126    2138.7415 
   88400    301.56829    -23200.83    115.06148   -23315.891    1980.5778 
   88600    308.28503    -23202.75    117.62421   -23320.374    -533.3471 
   88800    321.10078   -23205.658    122.51397   -23328.172    -176.2283 
   89000     271.5912   -23221.072    103.62391   -23324.696    5979.3446 
   89200    310.57178   -23193.977     118.4967   -23312.473    682.97212 
   89400    300.01908    -23203.14    114.47038   -23317.611    5845.3709 
   89600    284.77755   -23216.022    108.65508   -23324.677   -2797.4621 
   89800    292.23728   -23200.662    111.50129   -23312.164   -3780.8102 
   90000    323.77362   -23194.371    123.53378   -23317.905    2632.0368 
   90200    270.06932   -23221.133    103.04324   -23324.176    4105.7351 
   90400    245.03706   -23227.433    93.492343   -23320.925    5620.3957 
   90600    299.45574   -23197.933    114.25545   -23312.189    2441.8142 
   90800    291.10523   -23205.944    111.06936   -23317.013    577.73535 
   91000    279.28804    -23212.96    106.56059   -23319.521   -4004.0629 
   91200     288.2495   -23203.052    109.97978   -23313.032   -3583.0568 
   91400    313.63361   -23187.477    119.66492   -23307.142     734.2439 
   91600     266.4751   -23220.867    101.67189   -23322.538    2212.4235 
   91800    285.16395   -23197.892     108.8025   -23306.695   -3770.0972 
   92000    305.85085   -23186.172    116.69546   -23302.868    -6190.945 
   92200    299.25832   -23213.103    114.18012   -23327.283    3905.7155 
   92400    317.35853   -23201.278    121.08614   -23322.364    5096.1479 
   92600    309.06128   -23201.162    117.92038   -23319.082    78.932787 
   92800    278.27428   -23207.075    106.17379   -23313.249   -6057.3237 
   93000    275.55491   -23205.949    105.13624   -23311.085   -7079.7796 
   93200    299.93173   -23189.642    114.43706   -23304.079   -7524.4868 
   93400    248.51365   -23219.134    94.818813   -23313.952    1116.3461 
   93600    282.90154   -23206.544     107.9393   -23314.484   -6624.7469 
   93800    326.89634   -23195.042    124.72523   -23319.767   -3048.9331 
   94000    294.51243   -23205.586    112.36936   -23317.955    356.82669 
   94200    301.65498   -23203.463    115.09455   -23318.557    5075.9522 
   94400    299.14846   -23202.998    114.13821   -23317.137    3217.2881 
   94600    283.09631    -23211.72    108.01361   -23319.734    4351.5411 
   94800    310.21432   -23206.395    118.36031   -23324.755    6196.3296 
   95000    320.48213   -23190.986    122.27793   -23313.264    605.58064 
   95200    276.19285   -23205.023    105.37964   -23310.403    4244.8252 
   95400    268.42995   -23221.466    102.41775   -23323.884    8441.8646 
   95600    292.16561   -23208.009    111.47395   -23319.483    4862.1492 
   95800    312.66652    -23188.78    119.29594   -23308.076    1573.1955 
   96000    296.52733   -23212.366    113.13813   -23325.504    -1809.948 
   96200    302.87721   -23211.371    115.56089   -23326.932   -6128.0873 
   96400     345.1949   -23187.989    131.70693   -23319.696     8208.108 
   96600    293.06996   -23189.029    111.81899   -23300.848    4563.1395 
   96800    269.60907   -23209.065    102.86764   -23311.933   -951.39302 
   97000    287.57335   -23208.259     109.7218    -23317.98   -382.54213 
   97200    326.07397   -23185.288    124.41146     -23309.7    854.10745 
   97400    315.20522   -23207.732    120.26456   -23327.996   -10711.912 
   97600     246.0017   -23228.735    93.860397   -23322.595    -1367.788 
   97800    322.43433   -23195.465    123.02278   -23318.488    4283.0621 
   98000    294.00109   -23204.691    112.17426   -23316.865   -1584.3265 
   98200    271.30982   -23216.921    103.51655   -23320.437   -5860.4951 
   98400    283.78664    -23188.71      108.277   -23296.987   -4287.4121 
   98600    282.13654   -23208.119    107.64742   -23315.767   -14268.908 
   98800    287.36072    -23210.42    109.64067   -23320.061   -8792.0583 
   99000    291.02644   -23207.403     111.0393   -23318.442    534.19562 
   99200    244.05519   -23229.731    93.117717   -23322.849    1187.0042 
   99400    290.46773   -23207.519    110.82613   -23318.345    1182.7149 
   99600    277.55054   -23199.573    105.89766   -23305.471     4510.116 
   99800      288.357   -23216.458    110.02079   -23326.479    3828.9185 
  100000     258.9421   -23210.415    98.797724   -23309.212   -5564.8759 
  100200    288.28944   -23191.456    109.99501   -23301.451     1541.767 
  100400    282.90081   -23213.105    107.93902   -23321.045    2895.0195 
  100600    282.39589   -23207.407    107.74637   -23315.153    936.81778 
  100800    299.14449    -23201.19    114.13669   -23315.327    1104.2708 
  101000    282.29994   -23200.232    107.70976   -23307.942   -1328.7293 
  101200     309.4471   -23198.307    118.06759   -23316.374   -33.135831 
  101400    288.38892   -23201.353    110.03297   -23311.386    5017.3647 
  101600    300.62599   -23198.303    114.70195   -23313.005    8361.2423 
  101800    349.65911   -23184.717    133.41023   -23318.128   -901.51238 
  102000    307.20518   -23210.716     117.2122   -23327.929    -8123.795 
  102200    307.97071    -23192.59    117.50428   -23310.094    3208.5118 
  102400    282.38127   -23222.668    107.74079   -23330.409    1803.1126 
  102600    296.81411   -23211.093    113.24755    -23324.34   -3299.8218 
  102800    317.38723    -23194.23    121.09709   -23315.327   -7945.2461 
  103000    316.02318   -23192.245    120.57665   -23312.822   -9816.0413 
  103200    290.73114    -23222.16    110.92663   -23333.086    -915.9716 
  103400     280.4445   -23205.121    107.00183   -23312.123    82.507278 
  103600     301.5074   -23193.477    115.03825   -23308.516   -800.84186 
  103800    252.39068   -23222.835    96.298072   -23319.133   -82.900809 
  104000    297.27299    -23206.08    113.42263   -23319.503    1295.5475 
  104200    278.19655   -23205.129    106.14414   -23311.273    6132.0203 
  104400    281.85902   -23218.273    107.54153   -23325.814    1862.3102 
  104600    289.31241    -23194.53    110.38532   -23304.915   -4801.0421 
  104800    267.59181   -23210.432    102.09797    -23312.53   -12552.143 
  105000    281.19221    -23208.69    107.28711   -23315.977   -1464.4019 
  105200    280.16679   -23196.332    106.89587   -23303.228     1117.062 
  105400    309.06686    -23209.56    117.92251   -23327.483   -196.95986 
  105600    285.88006   -23224.514    109.07573   -23333.589   -5949.7969 
  105800    310.70778   -23195.267    118.54859   -23313.816   -6504.6659 
  106000    280.69197   -23204.403    107.09625   -23311.499   -5638.5702 
  106200    283.22666   -23226.259    108.06334   -23334.322    4783.2239 
  106400     264.0297   -23196.913    100.73887   -23297.652   -970.67926 
  106600     305.6022   -23200.587    116.60059   -23317.188   -1460.1342 
  106800     306.0201   -23188.055    116.76004   -23304.815   -4241.0554 
  107000    311.10001   -23205.688    118.69825   -23324.387   -5668.0016 
  107200    277.30904   -23219.008    105.80551   -23324.813     2108.637 
  107400    261.00646   -23224.281    99.585366   -23323.866    1781.0744 
  107600    307.31383   -23203.075    117.25365   -23320.329    2823.9374 
  107800    343.24296   -23188.045    130.96218   -23319.007   -5479.7838 
  108000    274.20287   -23217.056    104.62038   -23321.677   -4912.8927 
  108200    305.44578   -23202.555    116.54091   -23319.096   -12507.123 
  108400    310.59983   -23206.483    118.50741    -23324.99   -7655.9555 
  108600    315.19891   -23179.538    120.26215     -23299.8   -3831.1365 
  108800    307.23208   -23198.524    117.22246   -23315.747    3413.4491 
  109000     279.4869   -23212.559    106.63646   -23319.195    4533.6462 
  109200    311.40192   -23187.514    118.81344   -23306.327    1650.1292 
  109400    280.12001    -23213.47    106.87802   -23320.348   -929.09787 
  109600    284.85706   -23210.789    108.68541   -23319.474    1533.9707 
  109800     329.5002   -23195.894    125.71872   -23321.613    10872.968 
  110000    270.87948   -23220.793    103.35236   -23324.145   -1481.5089 
  110200    305.46094   -23194.378    116.54669   -23310.925   -2141.8257 
  110400    286.87231   -23210.703    109.45432   -23320.157   -7327.5761 
  110600    290.37835   -23205.898    110.79203    -23316.69   -3550.3903 
  110800    304.91836   -23189.268    116.33967   -23305.608   -2016.4196 
  111000    280.18326   -23206.081    106.90215   -23312.983   -1570.4364 
  111200    281.47192   -23219.381    107.39383   -23326.775    1227.4654 
  111400     309.2014   -23188.759    117.97384   -23306.732    1274.3392 
  111600    297.34196   -23208.774    113.44895   -23322.223    568.90089 
  111800    307.34891   -23210.244    117.26704   -23327.511   -1404.7567 
  112000    331.42933   -23185.515    126.45477    -23311.97   -1012.4177 
  112200    282.89215   -23207.517    107.93571   -23315.453   -827.92866 
  112400    298.42009   -23198.347     113.8603   -23312.207   -1833.0251 
  112600     342.9279   -23176.524    130.84197   -23307.366    8301.9121 
  112800    281.90897   -23201.808    107.56059   -23309.369    5077.8383 
  113000    294.41757   -23208.997    112.33316    -23321.33    7800.7694 
  113200    285.13658   -23194.354    108.79206   -23303.146    2305.0854 
  113400    283.19838   -23198.284    108.05255   -23306.336    799.95058 
  113600    276.41362   -23212.183    105.46387   -23317.646    -6385.074 
  113800    326.58341   -23190.631    124.60584   -23315.237    214.77029 
  114000    291.82428    -23210.47    111.34371   -23321.814    -5086.644 
  114200    292.04167   -23202.503    111.42665   -23313.929   -4776.0663 
  114400    312.75716   -23180.325    119.33052   -23299.656    2483.5866 
  114600    314.44976   -23208.743    119.97632   -23328.719    4966.5548 
  114800    282.92962    -23204.42    107.95001    -23312.37    1046.2099 
  115000    323.23344   -23183.239    123.32768   -23306.567    2320.2188 
  115200    276.92852   -23204.584    105.66033   -23310.244    3253.1508 
  115400     300.2822   -23213.267    114.57078   -23327.837    3510.9941 
  115600    331.84034   -23178.058    126.61159   -23304.669    11318.026 
  115800    307.69003   -23195.495    117.39719   -23312.893    12861.041 
  116000    296.20205   -23206.922    113.01402   -23319.936   -5283.2595 
  116200    294.69645   -23214.169    112.43957   -23326.608   -9233.7845 
  116400    290.19735   -23197.963    110.72297   -23308.686    3209.5277 
  116600    334.13914   -23182.631    127.48868   -23310.119    53.929273 
  116800    297.57101   -23214.312    113.53634   -23327.848   -899.50111 
  117000    321.67078   -23200.967    122.73146   -23323.698   -1464.1923 
  117200    329.79687   -23179.394    125.83191   -23305.226   -5347.1283 
  117400    297.63533   -23189.662    113.56088   -23303.223    7058.3033 
  117600    276.36643   -23215.544    105.44587    -23320.99    4791.5688 
  117800    303.61931   -23208.909    115.84403   -23324.753   -4441.8578 
  118000    307.48223   -23188.623     117.3179   -23305.941    437.81341 
  118200    286.98029   -23220.264    109.49552   -23329.759    880.42768 
  118400    281.51471   -23215.645    107.41016   -23323.055   -2747.8594 
  118600    296.44286   -23202.482     113.1059   -23315.588    5767.7029 
  118800    297.35906    -23192.71    113.45547   -23306.166     5500.002 
  119000     327.6058   -23177.104    124.99592     -23302.1    11297.838 
  119200     304.2596    -23206.55    116.08833   -23322.639    3083.3703 
  119400      295.561   -23213.989    112.76943   -23326.759    5891.7825 
  119600    323.61288   -23186.439    123.47245   -23309.911   -618.77408 
  119800    305.33376   -23201.413    116.49817   -23317.911    2525.3544 
  120000    237.94862   -23228.968    90.787795   -23319.756    3534.6817 
  120200    259.46452   -23213.932    98.997048   -23312.929   -1221.3997 
  120400    300.63485   -23190.619    114.70533   -23305.324   -1441.5085 
  120600    287.04455    -23199.09    109.52003    -23308.61   -3058.9278 
  120800    270.57483   -23214.459    103.23612   -23317.695   -6655.8364 
  121000    279.19606   -23204.402    106.52549   -23310.928   -2428.9359 
  121200    305.54656   -23192.664    116.57936   -23309.243   -4419.0355 
  121400    299.96438   -23218.774    114.44951   -23333.224   -1224.0327 
  121600    287.81523   -23216.031    109.81408   -23325.845    2312.4057 
  121800    300.35188   -23198.706    114.59736   -23313.303   -518.43429 
  122000    318.54825   -23185.591    121.54007   -23307.131   -2525.3701 
  122200    309.70634   -23190.829     118.1665   -23308.995    2767.6327 
  122400    293.88557   -23203.489    112.13018    -23315.62   -1620.6703 
  122600    280.08041   -23211.917    106.86291    -23318.78    896.06248 
  122800    336.16757   -23183.841    128.26261   -23312.104    3481.3401 
  123000    287.63742   -23203.842    109.74624   -23313.588    922.72534 
  123200    287.18008   -23209.296    109.57174   -23318.868   -312.24195 
  123400    287.88222   -23204.833    109.83964   -23314.672    1764.0219 
  123600    253.27939   -23211.687    96.637152   -23308.325   -2903.8342 
  123800    315.04652   -23190.169    120.20401   -23310.373   -1267.9425 
  124000    291.91685   -23188.926    111.37903   -23300.305   -2803.3232 
  124200    273.80518   -23218.824    104.46864   -23323.292    1020.6702 
  124400    330.40809   -23194.213    126.06512   -23320.278   -130.76834 
  124600    270.64104   -23209.016    103.26138   -23312.277    961.52349 
  124800    317.06337   -23203.903    120.97353   -23324.876   -2947.8328 
  125000    309.93439   -23198.415    118.25351   -23316.668   -1866.2295 
  125200    299.82465   -23215.154     114.3962    -23329.55   -2821.7218 
  125400      305.311   -23187.887    116.48949   -23304.377   -2191.3215 
  125600    323.33599   -23191.307    123.36681   -23314.673    2559.5976 
  125800    303.05193   -23206.573    115.62755   -23322.201    5353.6123 
  126000    323.05068   -23202.164    123.25795   -23325.422    4904.5873 
  126200    265.47889   -23199.741     101.2918   -23301.033   -4535.5515 
  126400    271.77244   -23203.148    103.69306   -23306.841   -6844.1153 
  126600     282.0169    -23222.16    107.60177   -23329.761   -650.35784 
  126800    308.25416   -23208.395    117.61243   -23326.007   -5142.2119 
  127000    288.07278   -23202.181    109.91235   -23312.093   -3296.3103 
  127200    301.63863   -23195.244    115.08831   -23310.332    752.59384 
  127400     305.6537   -23184.881    116.62024   -23301.501    1971.3298 
  127600    269.01623   -23214.092    102.64144   -23316.733    2343.6802 
  127800     290.1741    -23201.02     110.7141   -23311.734    -1305.258 
  128000    300.69147   -23197.373    114.72693     -23312.1    -3552.631 
  128200    287.52164   -23219.663    109.70207   -23329.365   -1560.4779 
  128400    274.23935   -23217.018    104.63429   -23321.652   -4223.1638 
  128600    282.50333   -23193.803    107.78736    -23301.59    416.58638 
  128800    288.44453   -23212.579    110.05419   -23322.633    -3745.393 
  129000    299.23727   -23203.766    114.17209   -23317.938   -6078.4747 
  129200    297.58865   -23195.976    113.54307   -23309.519   -860.15381 
  129400    264.55806    -23208.68    100.94046   -23309.621   -6486.8913 
  129600    279.90293   -23204.984     106.7952   -23311.779   -7721.1929 
  129800    318.95862   -23195.938    121.69665   -23317.634    4416.8924 
  130000    298.42244   -23209.748     113.8612    -23323.61    2744.4154 
  130200    335.34028   -23200.383    127.94697    -23328.33    114.27672 
  130400    319.41097   -23190.943    121.86924   -23312.812    3641.6131 
  130600    298.90918   -23209.674    114.04691   -23323.721    2372.8298 
  130800    324.51412   -23183.529    123.81632   -23307.345    1571.3141 
  131000    292.03722    -23195.55    111.42496   -23306.975   -277.58675 
  131200    299.78392   -23201.627    114.38066   -23316.008   -1596.9802 
  131400    273.92474   -23209.743    104.51425   -23314.257   -1119.4417 
  131600    303.29227   -23211.261    115.71925   -23326.981    1403.1828 
  131800    318.75547   -23194.294    121.61914   -23315.913   -3427.8066 
  132000     262.3699   -23214.246    100.10558   -23314.352    -5554.631 
  132200    289.64539   -23202.321    110.51237   -23312.834    236.85999 
  132400    313.43438   -23194.336    119.58891   -23313.925    1368.6581 
  132600    344.52736   -23180.212    131.45224   -23311.665    5838.1842 
  132800    288.78392   -23204.026    110.18368    -23314.21     6342.801 
  133000    301.14295   -23202.521    114.89919    -23317.42    3876.0727 
  133200    322.17979   -23184.074    122.92566       -23307    5797.6468 
  133400    331.92738   -23211.079     126.6448   -23337.723    3554.0243 
  133600    308.79192   -23199.559    117.81761   -23317.377    -4256.289 
  133800     304.1108   -23185.165    116.03156   -23301.197   -5561.4152 
  134000     270.6402   -23210.911    103.26106   -23314.173    777.23379 
  134200    301.72881   -23189.904    115.12272   -23305.027    8480.4051 
  134400    324.74833   -23179.608    123.90567   -23303.514    7597.6594 
  134600    316.18578   -23213.246    120.63869   -23333.885    1537.3671 
  134800    278.72999   -23210.771    106.34767   -23317.119   -471.67567 
  135000    321.83956   -23186.078    122.79585   -23308.874    -5034.732 
  135200    308.97979   -23209.233    117.88929   -23327.122    1405.0473 
  135400    300.62392   -23212.609    114.70116   -23327.311    3810.7118 
  135600    316.32577   -23199.148     120.6921    -23319.84    1898.0487 
  135800    251.12025   -23218.369    95.813344   -23314.182    1636.4011 
  136000    322.36695   -23190.279    122.99707   -23313.276    3659.3289 
  136200    280.74144   -23207.239    107.11512   -23314.355    6699.6525 
  136400    279.78806   -23212.191    106.75137   -23318.942    1199.3795 
  136600     338.7625   -23179.558    129.25269    -23308.81    3030.0471 
  136800      305.454   -23208.107    116.54404   -23324.652    2466.7372 
  137000    292.18334   -23199.083    111.48071   -23310.563    1773.5137 
  137200     314.3635   -23179.735    119.94341   -23299.679    -9250.735 
  137400    314.41109   -23192.722    119.96157   -23312.684    -2448.696 
  137600    300.33392   -23211.636    114.59051   -23326.227   -270.37645 
  137800    282.14557   -23210.873    107.65086   -23318.523   -3484.9166 
  138000    313.82709   -23196.424    119.73875   -23316.162   -3968.7591 
  138200    291.22842   -23210.499    111.11636   -23321.616      1996.19 
  138400    295.51231   -23220.965    112.75086   -23333.716   -1394.9505 
  138600    303.82174   -23194.027    115.92127   -23309.949   -754.00752 
  138800    299.31178   -23201.065    114.20052   -23315.266   -1534.8276 
  139000     269.0167   -23218.905    102.64162   -23321.547   -3858.7358 
  139200    292.30541    -23195.76    111.52728   -23307.288   -1716.8207 
  139400    283.20781   -23206.683    108.05615   -23314.739    -872.1948 
  139600    300.50945   -23199.276    114.65748   -23313.934   -4499.9065 
  139800    373.18978   -23184.128    142.38821   -23326.516    -942.3331 
  140000    306.38272   -23213.937    116.89839   -23330.835    9425.7883 
  140200    304.35051    -23207.29    116.12302   -23323.413    4799.6231 
  140400    318.09249   -23179.258    121.36618   -23300.624    7118.8421 
  140600    309.05492   -23191.158    117.91795   -23309.076   -3581.0202 
  140800    321.93829   -23203.478    122.83352   -23326.311   -1793.5347 
  141000    329.24636   -23186.363    125.62187   -23311.985   -2591.3077 
  141200    320.53066   -23181.052    122.29645   -23303.348   -183.31949 
  141400    271.90393   -23212.217    103.74323    -23315.96   -3061.3236 
  141600    341.99935   -23198.758    130.48769   -23329.246   -972.16293 
  141800    330.64935   -23174.745    126.15717   -23300.902    1306.3448 
  142000    295.11582   -23193.018    112.59958   -23305.618    4000.7893 
  142200    302.00279   -23209.506    115.22726   -23324.734    -9569.775 
  142400    307.18138    -23208.22    117.20312   -23325.423    -2342.948 
  142600    300.10996   -23181.855    114.50506    -23296.36   -3217.4116 
  142800    307.88676   -23204.213    117.47225   -23321.685   -5335.3263 
  143000    275.23574   -23211.714    105.01446   -23316.729    -4573.154 
  143200    332.40708   -23184.579    126.82782   -23311.407   -2687.0549 
  143400    320.52956    -23194.99    122.29603   -23317.286    1051.7953 
  143600    290.55317   -23213.518    110.85873   -23324.377    2564.4019 
  143800    310.02019   -23206.616    118.28625   -23324.903     5652.059 
  144000    303.57777   -23192.432    115.82818    -23308.26    2672.3088 
  144200    271.85379   -23212.329     103.7241   -23316.053   -1475.1469 
  144400    311.15568    -23184.14    118.71948   -23302.859   -8504.1429 
  144600    297.43112   -23200.042    113.48297   -23313.525   -2457.2245 
  144800     310.7187   -23203.558    118.55276   -23322.111    2595.6057 
  145000    308.46271   -23176.031      117.692   -23293.723    207.41883 
  145200    301.42829    -23192.41    115.00806   -23307.418    6202.4816 
  145400    302.17888   -23209.458    115.29444   -23324.753    1255.6557 
  145600    312.53257   -23196.615    119.24483    -23315.86    3908.3017 
  145800    319.59657   -23185.615    121.94005   -23307.555   -2086.0579 
  146000    269.56396   -23210.371    102.85043   -23313.222   -6607.8832 
  146200    279.40349   -23195.407    106.60464   -23302.011    2003.0179 
  146400    270.83715    -23196.16     103.3362   -23299.496   -3999.2218 
  146600    294.66192   -23204.696    112.42639   -23317.123    193.28133 
  146800    250.64177   -23228.871    95.630787   -23324.501    688.24126 
  147000    292.96094   -23207.001     111.7774   -23318.779   -132.16585 
  147200     320.4326   -23192.467    122.25904   -23314.726    913.11827 
  147400    295.23291   -23224.897    112.64425   -23337.541   -3410.8467 
  147600     285.1505   -23206.353    108.79737    -23315.15   -2942.2592 
  147800    311.64713   -23189.983    118.90699    -23308.89   -223.93878 
  148000    298.20586   -23217.324    113.77856   -23331.103   -5102.7861 
  148200     330.2066   -23209.926    125.98825   -23335.914   -559.82126 
  148400    299.79212   -23201.338    114.38379   -23315.722    2452.6682 
  148600    245.05497    -23225.91    93.499178   -23319.409    3715.3697 
  148800    272.03394   -23207.342    103.79283   -23311.135    5386.2195 
  149000    302.94373   -23198.936    115.58627   -23314.522    3139.6596 
  149200     275.9347   -23215.681    105.28114   -23320.962   -4498.1539 
  149400    298.15176   -23206.078    113.75792   -23319.836   -4419.4666 
  149600    302.18773   -23196.457    115.29782   -23311.755    3224.5838 
  149800    319.40133   -23209.466    121.86556   -23331.332   -2486.4399 
  150000    284.87829   -23208.877    108.69351   -23317.571    -5097.858 
  150200    282.70983   -23192.799    107.86615   -23300.666   -4841.9862 
  150400    289.52444   -23208.341    110.46622   -23318.807   -1615.3747 
  150600    292.86796   -23199.119    111.74192   -23310.861   -133.85226 
  150800    325.19088   -23191.245    124.07453    -23315.32   -432.07335 
  151000    270.72012   -23207.444    103.29155   -23310.736   -3045.2718 
  151200    318.43605   -23172.942    121.49726   -23294.439   -3201.9261 
  151400    308.54427   -23194.637    117.72312    -23312.36   -3509.7898 
  151600    317.12051   -23201.503    120.99533   -23322.498    -1324.744 
  151800    328.65203   -23179.426    125.39511   -23304.821    -5946.865 
  152000    325.92389   -23204.911     124.3542   -23329.265     4176.893 
  152200    281.36406   -23214.275    107.35268   -23321.628   -4881.3322 
  152400    302.05958   -23190.157    115.24892   -23305.405   -3910.4948 
  152600    299.21584   -23194.372    114.16392   -23308.536   -3498.0604 
  152800    299.98493   -23212.791    114.45736   -23327.248    -2572.038 
  153000    280.87942   -23197.414    107.16777   -23304.582   -5689.6538 
  153200    293.88448   -23203.119    112.12977   -23315.249   -811.19341 
  153400    298.72185   -23214.939    113.97544   -23328.914   -4463.5787 
  153600    318.12455   -23191.239    121.37841   -23312.617   -3405.5392 
  153800     290.5066   -23205.404    110.84096   -23316.245    3662.0722 
  154000    293.76513   -23217.217    112.08423   -23329.301    8655.5426 
  154200    306.73878   -23196.104    117.03424   -23313.138    7243.8527 
  154400    340.38604   -23193.716    129.87215   -23323.588    241.96269 
  154600    321.79177   -23199.527    122.77762   -23322.305    5236.6364 
  154800    335.19504   -23200.866    127.89155   -23328.757    464.86826 
  155000    336.86319   -23181.792    128.52802    -23310.32   -342.09998 
  155200    273.28086   -23212.608    104.26859   -23316.877    5925.5435 
  155400     267.8852   -23206.725    102.20991   -23308.935    4585.6494 
  155600    310.16542   -23177.572    118.34166   -23295.913    2776.3959 
  155800    274.34168   -23210.681    104.67334   -23315.355   -3628.9826 
  156000    295.95131   -23207.662    112.91836   -23320.581    7450.5849 
  156200    352.10358   -23187.166     134.3429   -23321.509     5402.888 
  156400    276.42179   -23213.886    105.46699   -23319.353   -3619.3303 
  156600    282.66429   -23207.278    107.84878   -23315.126   -7593.9925 
  156800    315.49308   -23187.769    120.37439   -23308.143   -5675.4388 
  157000    309.45068   -23204.177    118.06895   -23322.246    2094.2098 
  157200    284.95144   -23210.173    108.72142   -23318.895   -759.60048 
  157400    312.25204   -23192.102    119.13779    -23311.24    1545.3653 
  157600    283.84048   -23209.815    108.29754   -23318.113   -1704.6296 
  157800    288.64914   -23204.721    110.13226   -23314.853   -1386.0978 
  158000     314.4727   -23192.991    119.98507   -23312.976   -4315.9105 
  158200    340.64022   -23197.461    129.96913   -23327.431   -7474.4671 
  158400    296.75281   -23208.332    113.22416   -23321.557   -1672.8232 
  158600     279.1014   -23231.341    106.48938   -23337.831   -5196.8673 
  158800    283.44657   -23206.936    108.14725   -23315.084    2626.4354 
  159000    332.97229   -23188.025    127.04348   -23315.069   -7411.3026 
  159200    262.47638   -23213.628    100.14621   -23313.774   -4192.7189 
  159400     285.3287   -23204.198    108.86536   -23313.064     2325.825 
  159600    314.65336    -23188.84      120.054   -23308.894   -1383.7298 
  159800    283.91537   -23214.021    108.32612   -23322.347   -325.82989 
  160000    284.58875   -23207.413    108.58304   -23315.996   -4076.4516 
  160200    314.75003   -23192.452    120.09089   -23312.542     4955.604 
  160400      288.674   -23206.961    110.14174   -23317.102   -3577.6356 
  160600    305.60645   -23205.218    116.60221    -23321.82    414.36846 
  160800    316.68502   -23179.265    120.82917   -23300.094   -1560.1254 
  161000    298.26929   -23207.933    113.80277   -23321.736   -9468.5565 
  161200    292.52705   -23205.942    111.61185   -23317.554   -7040.3116 
  161400    283.71096   -23192.056    108.24813   -23300.305    1127.0761 
  161600    267.62989   -23217.327    102.11249    -23319.44   -5431.0598 
  161800    320.17328   -23200.315    122.16009   -23322.475   -7639.1095 
  162000    331.38578   -23199.355    126.43815   -23325.793    1829.4478 
  162200    262.46126   -23226.254    100.14044   -23326.394   -3538.8556 
  162400    277.84012    -23200.34    106.00814   -23306.348    -657.2343 
  162600    294.82803   -23198.175    112.48977   -23310.665   -1495.7711 
  162800    277.08452   -23224.265    105.71985   -23329.985    -8955.372 
  163000    320.02465   -23194.234    122.10338   -23316.337   -2444.6246 
  163200    302.17346   -23193.529    115.29238   -23308.821   -4830.0587 
  163400     289.8833   -23210.898    110.60314   -23321.501    2997.0989 
  163600    289.04118   -23195.847    110.28184   -23306.129   -1143.3235 
  163800    314.15197   -23199.862     119.8627   -23319.725   -4388.3065 
  164000    235.77914    -23227.83    89.960043    -23317.79    -6569.141 
  164200    300.39278   -23196.994    114.61297   -23311.607   -6453.3755 
  164400    303.20734   -23205.362    115.68685   -23321.049      9717.58 
  164600    284.19055   -23208.672    108.43111   -23317.103    7134.4395 
  164800    328.97568   -23188.304    125.51859   -23313.823    5355.4031 
  165000    290.80576   -23211.539     110.9551   -23322.494    1364.4977 
  165200    297.16801   -23204.291    113.38258   -23317.674   -396.79299 
  165400    273.62913   -23200.128    104.40147   -23304.529    5785.7132 
  165600    300.36833   -23186.489    114.60364   -23301.093    8405.6233 
  165800    306.09767   -23210.684    116.78963   -23327.474   -5598.3624 
  166000    310.76273   -23209.743    118.56956   -23328.313   -7282.1711 
  166200    327.84577   -23196.366    125.08749   -23321.453   -374.63242 
  166400    326.12281   -23201.636     124.4301   -23326.066   -2448.6194 
  166600    274.25095   -23206.526    104.63872   -23311.165    449.56423 
  166800    288.05978   -23200.611    109.90739   -23310.518    5475.8974 
  167000     300.9255    -23194.74    114.81622   -23309.557    1157.1303 
  167200    304.70895   -23214.079    116.25978   -23330.338   -1755.5426 
  167400    305.32794   -23195.743    116.49595   -23312.239     1712.477 
  167600    315.14246   -23191.317    120.24061   -23311.558    2188.8458 
  167800    265.81895   -23211.792    101.42154   -23313.214    -6096.751 
  168000    296.58051   -23210.112    113.15842    -23323.27   -3987.7465 
  168200    305.89888   -23191.982    116.71378   -23308.695   -2629.4172 
  168400    283.36124   -23184.962    108.11469   -23293.077   -2414.5754 
  168600    291.14157   -23213.065    111.08323   -23324.148   -3400.4335 
  168800    269.38796   -23205.556    102.78328    -23308.34      5111.95 
  169000    319.31281   -23182.297    121.83179   -23304.129   -4401.6523 
  169200    293.71055   -23200.403     112.0634   -23312.467   -8860.1322 
  169400    289.72861   -23201.787    110.54412   -23312.331   -6671.9052 
  169600    318.20999   -23209.769    121.41101    -23331.18   -274.19404 
  169800    265.50662   -23230.748    101.30238    -23332.05    -7433.551 
  170000    320.16699   -23196.343    122.15769     -23318.5   -3724.9365 
  170200    303.71469   -23214.161    115.88042   -23330.041   -1533.3371 
  170400    290.06898   -23207.235    110.67399   -23317.909    1324.1681 
  170600     310.6294   -23200.239    118.51869   -23318.757    7057.7157 
  170800    305.91099   -23206.013    116.71841   -23322.732    -1732.301 
  171000    341.98558   -23179.258    130.48244    -23309.74    3857.0856 
  171200    284.14083    -23201.69    108.41214   -23310.102    6082.2351 
  171400    307.39852   -23201.188    117.28597   -23318.474    1916.4221 
  171600    298.26312   -23194.456    113.80041   -23308.257    1508.4449 
  171800    276.44534   -23218.702    105.47597   -23324.178   -2061.4406 
  172000    288.44896   -23202.284    110.05588    -23312.34    240.22809 
  172200    305.88354   -23199.648    116.70793   -23316.356    2128.8017 
  172400    305.60542   -23185.873    116.60182   -23302.475    5104.9173 
  172600     332.7782   -23185.939    126.96942   -23312.909   -7082.4244 
  172800    320.39679   -23199.207    122.24537   -23321.452   -10428.907 
  173000     341.8824   -23185.279    130.44307   -23315.722   -7130.6297 
  173200    316.09427   -23203.102    120.60377   -23323.706   -5481.1483 
  173400    276.79069   -23208.335    105.60774   -23313.943   -354.37885 
  173600    306.28125   -23183.367    116.85968   -23300.226    1376.2138 
  173800    291.88091   -23189.238    111.36532   -23300.603   -7918.2562 
  174000    293.69529   -23201.717    112.05758   -23313.775   -7205.7838 
  174200     311.2179   -23194.216    118.74322    -23312.96   -6383.6608 
  174400     289.2657   -23204.395     110.3675   -23314.762   -2538.7358 
  174600    272.15109   -23216.909    103.83753   -23320.747    10051.697 
  174800    319.19052    -23187.49    121.78513   -23309.275    4624.7908 
  175000    292.13066    -23205.84    111.46061     -23317.3    2694.6895 
  175200    314.10438    -23209.03    119.84454   -23328.875    3355.4161 
  175400    328.95702   -23193.422    125.51148   -23318.934    3154.1995 
  175600    274.16914   -23193.498    104.60751   -23298.105   -3385.1355 
  175800    272.64583   -23213.159     104.0263   -23317.185   -4474.6055 
  176000    326.30422    -23180.48    124.49932   -23304.979   -709.33486 
  176200    313.28184   -23188.058    119.53071   -23307.589    -5976.979 
  176400     303.4553   -23201.643    115.78145   -23317.424   -3859.0726 
  176600    264.48729   -23234.058    100.91346   -23334.971   -5225.8341 
  176800    282.83002   -23218.046    107.91201   -23325.958   -5915.8865 
  177000    313.50194    -23194.75    119.61469   -23314.364    4808.4906 
  177200     314.1568   -23193.573    119.86454   -23313.437    8155.1771 
  177400    302.62276   -23218.538     115.4638   -23334.002   -1210.6192 
  177600       318.06   -23195.835    121.35378   -23317.189    -2354.528 
  177800    307.17194   -23192.786    117.19952   -23309.985   -2856.7497 
  178000    284.53542   -23220.292    108.56269   -23328.854   -2163.0616 
  178200    288.34824   -23196.442    110.01745   -23306.459   -2865.0554 
  178400    299.47249   -23201.451    114.26184   -23315.713    4035.2292 
  178600    259.55455   -23212.114    99.031402   -23311.146    4776.0627 
  178800    329.76331    -23184.69    125.81911   -23310.509    282.03902 
  179000    281.15918   -23201.633    107.27451   -23308.908   -7146.2108 
  179200    307.89782   -23197.011    117.47647   -23314.488    1322.8155 
  179400    324.72484   -23179.598    123.89671   -23303.495    4392.3536 
[...]
  950000    277.74914   -23206.196    105.97343   -23312.169   -4214.7156 
  950200    302.84758   -23192.887    115.54958   -23308.437    1363.3039 
  950400    274.92831   -23206.274    104.89716   -23311.171   -1035.2757 
  950600    337.33766   -23174.276    128.70905   -23302.985   -3809.4473 
  950800    299.39207   -23194.911    114.23115   -23309.143   -5971.1911 
  951000    297.65205   -23210.406    113.56726   -23323.973    2449.3213 
  951200    312.39349   -23201.158    119.19176    -23320.35     1628.757 
  951400    281.31694   -23199.903     107.3347   -23307.238     1231.947 
  951600    287.65926   -23214.638    109.75457   -23324.392     3951.202 
  951800     320.0621    -23185.38    122.11767   -23307.498    6244.8937 
  952000    291.84918   -23198.134    111.35321   -23309.488    3979.0325 
  952200    308.67379   -23207.745    117.77254   -23325.518   -1854.7515 
  952400    364.15092   -23191.304    138.93948   -23330.244    2934.1597 
  952600    328.86259   -23181.037    125.47545   -23306.513    8965.1026 
  952800    278.49177    -23210.38    106.25678   -23316.637    6641.7394 
  953000    305.79049   -23197.127    116.67243     -23313.8    3956.0153 
  953200    318.86303   -23187.753    121.66018   -23309.413   -1497.8285 
  953400    291.63041   -23203.614    111.26974   -23314.884   -7876.6098 
  953600    263.21477   -23205.452    100.42793    -23305.88    2597.9198 
  953800    317.27655   -23177.218    121.05486   -23298.272   -1317.7354 
  954000    319.00185   -23199.146    121.71314   -23320.859    11603.265 
  954200    300.91635   -23210.265    114.81273   -23325.078    2606.1891 
  954400    330.10229   -23198.751    125.94844     -23324.7     3471.764 
  954600     284.6402   -23198.913    108.60267   -23307.515    3059.9201 
  954800    334.36414   -23178.276    127.57453    -23305.85    4953.5695 
  955000    296.10838   -23202.282    112.97828    -23315.26   -6890.0307 
  955200    294.55265   -23199.943    112.38471   -23312.327   -2170.7261 
  955400    347.40892   -23171.107    132.55168   -23303.658    2212.5346 
  955600    305.92199   -23201.452     116.7226   -23318.175   -3244.2445 
  955800    298.55972    -23208.59    113.91358   -23322.503    4908.8107 
  956000    305.53357   -23187.825     116.5744     -23304.4    -2964.059 
  956200    310.91253   -23197.747    118.62671   -23316.373   -8562.7947 
  956400    299.74433   -23206.841    114.36556   -23321.207    -1418.461 
  956600    311.51584   -23194.455     118.8569   -23313.311   -1807.0637 
  956800    282.58629   -23180.291    107.81902    -23288.11   -9781.3744 
  957000    286.02395   -23208.589    109.13063    -23317.72   -1181.1293 
  957200    326.64298   -23205.701    124.62857   -23330.329    2070.6967 
  957400    293.29586   -23212.935    111.90518   -23324.841   -4195.0618 
  957600    299.13916   -23204.985    114.13466   -23319.119    2922.1059 
  957800    308.17294   -23188.676    117.58144   -23306.258    3152.1687 
  958000    268.92825   -23210.139    102.60788   -23312.747    918.12872 
  958200    329.48323   -23188.598    125.71225    -23314.31   -1054.7849 
  958400    322.92619   -23196.323    123.21045   -23319.533   -1648.8225 
  958600    282.62907   -23212.608    107.83534   -23320.443   -998.50625 
  958800    349.37094   -23182.181    133.30028   -23315.482    3192.3569 
  959000    308.44522   -23189.438    117.68533   -23307.124   -6361.9654 
  959200    312.82615   -23200.313    119.35684    -23319.67     62.67522 
  959400    316.74733   -23204.535    120.85295   -23325.388   -398.67448 
  959600    308.48228   -23190.041    117.69947   -23307.741   -655.74678 
  959800    307.30607   -23188.043    117.25069   -23305.293   -2615.0472 
  960000    260.06624   -23208.936    99.226632   -23308.162     7131.652 
  960200    322.16827   -23201.317    122.92127   -23324.238    693.13793 
  960400    288.70503    -23219.99    110.15358   -23330.143    4757.0347 
  960600    312.44186   -23193.551    119.21022   -23312.762   -5120.2759 
  960800    314.93142    -23185.97    120.16009    -23306.13     1376.937 
  961000    289.32457   -23200.606    110.38996   -23310.996   -2280.9088 
  961200    305.35669   -23212.563    116.50692   -23329.069   -1285.9315 
  961400    316.33951   -23190.741    120.69734   -23311.438   -3893.5063 
  961600    299.48214   -23197.323    114.26552   -23311.589   -5868.0858 
  961800     284.0022   -23205.861    108.35925    -23314.22   -3066.9345 
  962000    301.06086   -23192.619    114.86787   -23307.487   -191.84397 
  962200    297.88881   -23197.386    113.65759   -23311.043    1326.1483 
  962400    279.46828   -23220.058    106.62936   -23326.688    2051.8951 
  962600    296.26471   -23206.369    113.03793   -23319.407   -3120.3168 
  962800    307.75441   -23187.224    117.42175   -23304.646   -7767.0273 
  963000    281.82826    -23208.63    107.52979    -23316.16    1660.3307 
  963200    282.16945   -23212.403    107.65997   -23320.063   -1727.8446 
  963400    310.69339   -23196.335     118.5431   -23314.878   -1151.4437 
  963600    332.51799   -23170.568    126.87014   -23297.438    10152.679 
  963800    275.55839   -23194.016    105.13756   -23299.154   -1196.0728 
  964000    324.37745   -23193.304    123.76417   -23317.068    3658.4068 
  964200    302.60859   -23213.655     115.4584   -23329.114   -3709.6613 
  964400    293.18029     -23208.6    111.86109   -23320.461   -1941.1591 
  964600     321.6873   -23190.034    122.73776   -23312.771    -772.0452 
  964800    308.57619   -23199.626     117.7353   -23317.361    2086.9187 
  965000    284.19058   -23207.923    108.43112   -23316.354    211.39059 
  965200      312.879   -23193.737    119.37701   -23313.114    2696.8251 
  965400    324.99506   -23198.945    123.99981   -23322.945   -1408.9737 
  965600    282.58102   -23218.452    107.81701   -23326.269   -1457.0833 
  965800    277.04929   -23199.768    105.70641   -23305.475   -5148.8863 
  966000    284.94187    -23199.95    108.71777   -23308.668    4208.0948 
  966200    268.99956   -23224.942    102.63508   -23327.577    6202.7084 
  966400    296.87952   -23206.287    113.27251    -23319.56    6552.8932 
  966600    313.19646   -23201.233    119.49813   -23320.731    5667.7951 
  966800    318.93027    -23199.76    121.68583   -23321.445   -3024.5294 
  967000    298.68124   -23177.587    113.95994   -23291.547   -4074.3809 
  967200    299.19928   -23205.206     114.1576   -23319.364   -1114.6586 
  967400    295.84474   -23203.829    112.87769   -23316.707   -5136.1053 
  967600    315.07568   -23194.948    120.21514   -23315.163   -176.03502 
  967800    332.90908   -23193.894    127.01936   -23320.913    2083.5821 
  968000    303.03895    -23216.98     115.6226   -23332.602    738.32398 
  968200    322.25487    -23191.59    122.95431   -23314.545      6751.55 
  968400     306.0662   -23200.564    116.77762   -23317.341    7096.0384 
  968600    273.20655    -23215.72    104.24023    -23319.96    2698.8843 
  968800    325.45097   -23186.615    124.17376   -23310.789   -1543.0048 
  969000    301.93232   -23204.977    115.20037   -23320.177   -2618.3098 
  969200    290.86529   -23204.138    110.97781   -23315.116   -5058.1325 
  969400     275.7397   -23205.915    105.20674   -23311.122   -2769.9591 
  969600    287.99969   -23197.489    109.88446   -23307.374   -3510.8324 
  969800    345.78537   -23181.906    131.93223   -23313.838    -4727.933 
  970000    267.84004   -23209.295    102.19268   -23311.487   -746.71368 
  970200    314.54936   -23196.484    120.01432   -23316.498   -1831.3004 
  970400    322.71834   -23180.948    123.13115   -23304.079    1685.7569 
  970600    305.96903   -23208.021    116.74055   -23324.762    -950.1367 
  970800    318.53046   -23208.658    121.53329   -23330.191   -4301.5863 
  971000    308.48297   -23185.769    117.69973   -23303.469    299.60522 
  971200    296.26491   -23210.736    113.03801   -23323.775    -2966.967 
  971400    317.37931   -23198.942    121.09407   -23320.037    2741.3701 
  971600    336.58817   -23176.468    128.42309   -23304.891    10555.941 
  971800    300.95137   -23191.931     114.8261   -23306.757    11886.318 
  972000    295.10519   -23193.428    112.59552   -23306.024    1692.2359 
  972200    291.32941   -23210.082     111.1549   -23321.237   -1035.9943 
  972400    305.46004   -23216.114    116.54635   -23332.661    5630.2517 
  972600    324.44933   -23192.135    123.79159   -23315.927     579.2549 
  972800    273.80821    -23197.31    104.46979    -23301.78   -835.81915 
  973000    329.93547    -23180.63    125.88479   -23306.515    4881.2099 
  973200    338.48949   -23180.566    129.14853   -23309.715   -7351.8762 
  973400    276.07736   -23208.586    105.33557   -23313.921   -1654.3975 
  973600    301.00637   -23212.558    114.84708   -23327.405   -3719.3292 
  973800    291.52806   -23187.145    111.23069   -23298.376    7741.4135 
  974000    291.55992   -23209.507    111.24284    -23320.75    7923.1613 
  974200    285.73425   -23208.985     109.0201   -23318.005    7259.5326 
  974400    339.54812   -23197.326    129.55244   -23326.879    5585.4426 
  974600    283.89444   -23220.962    108.31813    -23329.28    620.87005 
  974800    279.49267    -23195.52    106.63866   -23302.158     2570.244 
  975000    334.42976   -23189.633    127.59956   -23317.233    3929.5416 
  975200    297.28532   -23214.726    113.42734   -23328.153    1302.8058 
  975400    306.89347   -23208.552    117.09327   -23325.645   -5238.4545 
  975600    289.56723    -23197.32    110.48255   -23307.802   -6704.6514 
  975800    279.03119   -23192.256    106.46259   -23298.719   -624.00915 
  976000    286.98237    -23211.29    109.49631   -23320.786   -507.07796 
  976200    287.00687   -23197.043    109.50566   -23306.549   -6345.3737 
  976400     300.9206   -23198.368    114.81435   -23313.183    4029.2605 
  976600    303.41479   -23213.438      115.766   -23329.204     2897.288 
  976800    335.77949   -23180.956    128.11454    -23309.07   -3741.8499 
  977000    276.50797   -23200.664    105.49987   -23306.164   -843.80171 
  977200    300.69192   -23206.724     114.7271   -23321.451    3994.7146 
  977400    311.12573   -23181.694    118.70806   -23300.402    10055.469 
  977600    265.21498   -23203.236     101.1911   -23304.427   -2359.3135 
  977800    350.73933   -23176.528    133.82238    -23310.35    2482.3768 
  978000    301.10965   -23183.643    114.88649    -23298.53   -2367.2452 
  978200    298.62591   -23209.006    113.93883   -23322.945   -209.17321 
  978400    317.53202   -23213.788    121.15234    -23334.94    2039.9682 
  978600    301.11204   -23195.414     114.8874   -23310.302   -2330.9694 
  978800    292.11677   -23198.902    111.45531   -23310.357   -7961.4164 
  979000     288.1787   -23201.484    109.95276   -23311.437   -6817.8836 
  979200    321.14183   -23187.742    122.52964   -23310.271   -4585.7457 
  979400    284.63788   -23215.259    108.60179   -23323.861   -2792.6945 
  979600    300.22486   -23197.393     114.5489   -23311.941    851.93067 
  979800    289.71705   -23200.669    110.53971   -23311.208    3172.2326 
  980000    301.00792   -23216.325    114.84767   -23331.173   -1299.2305 
  980200    334.16811   -23195.178    127.49973   -23322.678    -598.4949 
  980400    253.54669   -23227.507    96.739138   -23324.246   -6280.4535 
  980600    276.18876   -23213.329    105.37808   -23318.707     -998.141 
  980800    337.57547   -23191.315    128.79979   -23320.115    4061.0673 
  981000    322.88762   -23187.184    123.19573    -23310.38    5287.1176 
  981200    297.11147   -23199.282      113.361   -23312.643    7273.0229 
  981400    271.34719   -23216.507    103.53081   -23320.038    8586.7413 
  981600     357.4742   -23187.012    136.39202   -23323.404    5717.9838 
  981800    305.73196   -23191.436     116.6501   -23308.086     2240.693 
  982000    290.12093   -23205.167    110.69381   -23315.861   -1065.1014 
  982200    296.24054   -23212.415    113.02871   -23325.443    4306.5668 
  982400    346.08561   -23185.256    132.04678   -23317.303    3423.5246 
  982600    278.03604   -23200.913     106.0829   -23306.996    7874.2596 
  982800    298.72619   -23198.539    113.97709   -23312.517    12483.779 
  983000     271.3073   -23220.148    103.51559   -23323.663    1613.6762 
  983200    297.76004   -23209.073    113.60846   -23322.681    1451.6104 
  983400     293.9112   -23193.487    112.13996   -23305.627    -3157.528 
  983600    285.35169   -23206.294    108.87414   -23315.168   -11506.393 
  983800    305.74367   -23204.744    116.65457   -23321.398   -1658.6831 
  984000    284.48603   -23203.445    108.54385   -23311.988    5782.6583 
  984200    365.14962   -23179.016    139.32053   -23318.336   -5297.0027 
  984400    336.30918    -23200.13    128.31664   -23328.447   -4411.0798 
  984600    286.60717   -23221.449    109.35316   -23330.803    5961.1936 
  984800       281.38    -23195.25    107.35876   -23302.608    5055.0689 
  985000    297.45064   -23195.762    113.49041   -23309.252    3774.1062 
  985200    277.33246   -23213.542    105.81445   -23319.356   -3456.0386 
  985400    299.44898   -23182.645    114.25287   -23296.898   -538.70451 
  985600    320.39233   -23192.678    122.24367   -23314.922      62.0872 
  985800    293.42873   -23208.771    111.95588   -23320.727   -4540.2726 
  986000    328.56167   -23181.804    125.36063   -23307.164   -7827.4576 
  986200     300.2053   -23199.264    114.54144   -23313.806   -5875.0218 
  986400    309.09411   -23206.363    117.93291   -23324.296    4303.7963 
  986600    292.87471   -23196.849     111.7445   -23308.594   -6324.7463 
  986800    307.62709   -23185.457    117.37317    -23302.83   -2200.1189 
  987000    297.64025   -23211.005    113.56276   -23324.568   -5756.8347 
  987200    289.31436    -23206.54    110.38607   -23316.926    656.75656 
  987400    324.61818   -23205.725    123.85602   -23329.581    19.721693 
  987600    307.75195   -23213.026    117.42081   -23330.447   -1398.8722 
  987800    302.27283   -23182.495    115.33029   -23297.825   -1466.1728 
  988000    290.26372   -23205.845    110.74829   -23316.594   -4473.8462 
  988200    305.40963   -23210.441    116.52712   -23326.968   -4262.1874 
  988400    280.60065   -23220.865    107.06141   -23327.927   -5451.5112 
  988600    319.83614   -23192.825    122.03146   -23314.857   -11441.957 
  988800    292.93784    -23197.59    111.76858   -23309.359   -7738.7926 
  989000    226.56363   -23230.219    86.443922   -23316.663    2034.2582 
  989200    284.54097   -23208.349    108.56481   -23316.914    657.86072 
  989400     310.7858   -23200.924    118.57836   -23319.503    1599.2009 
  989600    356.03133   -23170.857    135.84151   -23306.699    5988.8028 
  989800    321.49461   -23185.979    122.66424   -23308.643    5400.9395 
  990000    309.26519   -23199.425    117.99818   -23317.424    9060.3306 
  990200    258.31662   -23217.099    98.559075   -23315.658    9411.6926 
  990400    271.45433   -23223.481    103.57169   -23327.053   -1970.2843 
  990600    325.03024   -23194.189    124.01324   -23318.202   -3238.7198 
  990800    313.77231   -23186.906    119.71784   -23306.624   -8893.4094 
  991000    330.83514   -23169.533    126.22806   -23295.761   -2700.1098 
  991200    295.68235   -23202.671    112.81573   -23315.487    6395.6267 
  991400    269.52214   -23216.479    102.83447   -23319.313    4212.4713 
  991600    349.81528   -23187.224    133.46981   -23320.694   -2153.7522 
  991800     289.1616   -23205.196    110.32778   -23315.524   -1190.0394 
  992000    275.56603   -23217.852    105.14048   -23322.993   -1290.8712 
  992200    277.35134   -23223.859    105.82165   -23329.681    4730.6122 
  992400     287.1684   -23200.307    109.56729   -23309.874    1281.1713 
  992600    315.18921    -23196.76    120.25845   -23317.019   -1232.3122 
  992800    309.51764   -23210.529     118.0945   -23328.623   -607.62608 
  993000    336.25461   -23194.795    128.29582   -23323.091    1770.3166 
  993200    304.82344   -23200.641    116.30346   -23316.945    2483.4647 
  993400    299.97343   -23215.441    114.45297   -23329.893   -802.91674 
  993600    296.96725   -23195.183    113.30598   -23308.489    1736.9111 
  993800    296.62897   -23193.761    113.17691   -23306.938   -3236.8618 
  994000    283.34511   -23216.815    108.10854   -23324.923   -5230.5587 
  994200    313.58413   -23190.677    119.64605   -23310.324   -3720.5266 
  994400    283.71734   -23200.527    108.25056   -23308.778   -6550.6577 
  994600    263.22113   -23218.289    100.43036   -23318.719   -4767.8018 
  994800    295.78968   -23196.676    112.85668   -23309.532    3859.3358 
  995000    323.60708   -23191.754    123.47024   -23315.224    5396.3342 
  995200    306.50477   -23212.967    116.94496   -23329.912    4359.3937 
  995400    313.01276   -23199.549    119.42804   -23318.977    3572.9998 
  995600    325.74622   -23176.216    124.28641   -23300.502    13364.394 
  995800     307.0176   -23189.803    117.14063   -23306.944   -3797.5552 
  996000    307.31413   -23203.629    117.25376   -23320.883    -5759.707 
  996200    280.31675   -23218.687    106.95309    -23325.64    1636.6575 
  996400    274.72139   -23220.322    104.81821    -23325.14    2794.8633 
  996600    308.28253   -23192.587    117.62325    -23310.21    2907.2311 
  996800    292.50498   -23210.503    111.60343   -23322.107    3581.1325 
  997000    290.07834   -23212.141    110.67756   -23322.819    -3129.926 
  997200    305.95263   -23202.128    116.73429   -23318.863     94.56474 
  997400    334.56247   -23195.188     127.6502   -23322.838    4513.8896 
  997600    284.78485   -23209.574    108.65786   -23318.232      5508.32 
  997800    300.24357   -23206.135    114.55604   -23320.691       5502.6 
  998000    331.21663   -23195.934    126.37361   -23322.307    1060.4205 
  998200    291.05493   -23208.826    111.05017   -23319.876   -612.77628 
  998400    305.52375   -23193.164    116.57066   -23309.735    1513.8603 
  998600     329.0205   -23172.555     125.5357    -23298.09    1446.4335 
  998800    287.42894   -23199.846     109.6667   -23309.513   -914.16236 
  999000    285.86601   -23196.324    109.07037   -23305.394    5228.3887 
  999200    364.22045   -23174.471    138.96601   -23313.437    -2743.435 
  999400    292.23247   -23198.877    111.49945   -23310.377   -4570.8393 
  999600     305.8052   -23210.993    116.67804   -23327.671    1124.9264 
  999800     267.2121    -23218.55    101.95309   -23320.503    3130.9833 
 1000000    305.81314   -23196.574    116.68107   -23313.255     981.5159 
Loop time of 1594.52 on 8 procs for 1000000 steps with 129 atoms

Performance: 13.546 ns/day, 1.772 hours/ns, 627.150 timesteps/s
99.6% CPU use with 8 MPI tasks x no OpenMP threads

MPI task timing breakdown:
Section |  min time  |  avg time  |  max time  |%varavg| %total
---------------------------------------------------------------
Pair    | 1120.9     | 1130.2     | 1138       |  15.5 | 70.88
Neigh   | 0.47933    | 0.49579    | 0.51506    |   1.8 |  0.03
Comm    | 26.943     | 34.05      | 42.944     |  88.3 |  2.14
Output  | 0.076081   | 0.080618   | 0.10732    |   3.6 |  0.01
Modify  | 426.67     | 427.48     | 428.13     |   2.7 | 26.81
Other   |            | 2.208      |            |       |  0.14

Nlocal:    16.125 ave 18 max 15 min
Histogram: 1 0 0 6 0 0 0 0 0 1
Nghost:    424.875 ave 431 max 418 min
Histogram: 1 0 1 0 2 1 1 0 0 2
Neighs:    943.625 ave 1044 max 901 min
Histogram: 1 2 3 1 0 0 0 0 0 1

Total # of neighbors = 7549
Ave neighs/atom = 58.5194
Neighbor list builds = 1202
Dangerous builds = 0

Please see the log.cite file for references relevant to this simulation

Total wall time: 0:26:39
