ITEM: TIMESTEP
0
ITEM: NUMBER OF ATOMS
201
ITEM: BOX BOUNDS pp pp pp
0.0000000000000000e+00 1.6114000000000001e+01
0.0000000000000000e+00 1.6113000000000000e+01
0.0000000000000000e+00 1.6111999999999998e+01
ITEM: ATOMS id type x y z 
5 1 5.384 5.384 5.384 
65 1 5.66 6.662 2.461 
66 1 5.336 7.323 3.711 
68 1 4.865 6.606 4.866 
79 1 5.364 7.322 1.219 
89 1 6.662 2.461 5.66 
90 1 7.323 3.711 5.336 
92 1 6.606 4.866 4.866 
101 1 7.322 1.219 5.364 
109 1 2.461 5.66 6.662 
110 1 3.71 5.336 7.323 
112 1 4.865 4.866 6.606 
121 1 1.218 5.364 7.322 
129 1 6.662 5.66 2.461 
130 1 7.323 5.336 3.711 
137 1 7.322 5.364 1.219 
141 1 2.461 6.662 5.66 
142 1 3.71 7.323 5.336 
149 1 1.218 7.322 5.364 
153 1 5.66 2.461 6.662 
154 1 5.336 3.711 7.323 
161 1 5.364 1.219 7.322 
7 1 6.662 5.66 13.616 
8 1 7.323 5.336 12.366 
10 1 6.606 4.866 11.211 
21 1 7.322 5.364 14.858 
32 1 1.218 7.322 10.713 
40 1 2.461 6.662 10.417 
41 1 3.71 7.323 10.741 
43 1 4.865 6.606 11.211 
47 1 5.364 1.219 8.755 
55 1 5.66 2.461 9.415 
56 1 5.336 3.711 8.754 
58 1 4.865 4.866 9.471 
64 1 5.629 6.643 16.094 
75 1 5.384 5.384 10.693 
118 1 6.643 5.629 16.094 
168 1 5.66 6.662 13.616 
169 1 5.336 7.323 12.366 
176 1 5.364 7.322 14.858 
182 1 7.322 1.219 10.713 
186 1 6.662 2.461 10.417 
187 1 7.323 3.711 10.741 
191 1 1.218 5.364 8.755 
195 1 2.461 5.66 9.415 
196 1 3.71 5.336 8.754 
9 1 7.322 10.713 1.219 
19 1 6.662 10.417 2.461 
20 1 7.323 10.741 3.711 
22 1 6.606 11.211 4.866 
27 1 1.218 8.755 5.364 
35 1 2.461 9.415 5.66 
36 1 3.71 8.754 5.336 
38 1 4.865 9.471 4.866 
44 1 6.643 16.095 5.63 
50 1 5.66 13.616 6.662 
51 1 5.336 12.366 7.323 
53 1 4.865 11.211 6.606 
62 1 5.364 14.858 7.322 
76 1 5.629 16.095 6.643 
81 1 5.384 10.693 5.384 
167 1 5.364 8.755 1.219 
171 1 5.66 9.415 2.461 
172 1 5.336 8.754 3.711 
180 1 6.662 13.616 5.66 
181 1 7.323 12.366 5.336 
188 1 7.322 14.858 5.364 
194 1 1.218 10.713 7.322 
198 1 2.461 10.417 6.662 
199 1 3.71 10.741 7.323 
17 1 5.384 10.693 10.693 
39 1 6.643 16.095 10.448 
49 1 5.629 9.434 16.095 
73 1 5.364 8.755 14.858 
82 1 5.629 16.095 9.434 
83 1 5.66 9.415 13.616 
84 1 5.336 8.754 12.366 
86 1 4.865 9.471 11.211 
91 1 7.322 14.858 10.713 
99 1 6.662 13.616 10.417 
100 1 7.323 12.366 10.741 
102 1 6.606 11.211 11.211 
113 1 6.643 10.448 16.094 
114 1 2.461 10.417 9.415 
115 1 3.71 10.741 8.754 
117 1 4.865 11.211 9.471 
126 1 1.218 10.713 8.755 
131 1 7.322 10.713 14.858 
135 1 6.662 10.417 13.616 
136 1 7.323 10.741 12.366 
144 1 2.461 9.415 10.417 
145 1 3.71 8.754 10.741 
152 1 1.218 8.755 10.713 
158 1 5.364 14.858 8.755 
162 1 5.66 13.616 9.415 
163 1 5.336 12.366 8.754 
3 1 8.755 5.364 1.219 
13 1 9.415 5.66 2.461 
14 1 8.754 5.336 3.711 
16 1 9.471 4.866 4.866 
24 1 16.095 5.629 6.643 
30 1 13.616 6.662 5.66 
31 1 12.367 7.323 5.336 
33 1 11.212 6.606 4.866 
42 1 14.859 7.322 5.364 
52 1 10.713 1.219 7.322 
60 1 10.417 2.461 6.662 
61 1 10.741 3.711 7.323 
63 1 11.212 4.866 6.606 
87 1 10.693 5.384 5.384 
98 1 16.095 6.643 5.63 
170 1 10.713 7.322 1.219 
174 1 10.417 6.662 2.461 
175 1 10.741 7.323 3.711 
179 1 8.755 1.219 5.364 
183 1 9.415 2.461 5.66 
184 1 8.754 3.711 5.336 
192 1 13.616 5.66 6.662 
193 1 12.367 5.336 7.323 
200 1 14.859 5.364 7.322 
6 1 16.096 5.629 9.434 
23 1 10.693 5.384 10.693 
59 1 10.448 6.643 16.095 
67 1 10.713 7.322 14.858 
77 1 10.417 6.662 13.616 
78 1 10.741 7.323 12.366 
80 1 11.212 6.606 11.211 
93 1 16.096 6.643 10.448 
94 1 9.415 2.461 10.417 
95 1 8.754 3.711 10.741 
97 1 9.471 4.866 11.211 
106 1 8.755 1.219 10.713 
116 1 14.859 5.364 8.755 
123 1 9.434 5.629 16.094 
124 1 13.616 5.66 9.415 
125 1 12.367 5.336 8.754 
127 1 11.212 4.866 9.471 
134 1 8.755 5.364 14.858 
138 1 9.415 5.66 13.616 
139 1 8.754 5.336 12.366 
143 1 14.859 7.322 10.713 
147 1 13.616 6.662 10.417 
148 1 12.367 7.323 10.741 
156 1 10.417 2.461 9.415 
157 1 10.741 3.711 8.754 
164 1 10.713 1.219 8.755 
201 2 16.096 4.279 9.434 
11 1 10.693 10.693 5.384 
18 1 16.096 10.448 6.643 
29 1 9.434 16.095 5.63 
70 1 10.448 16.095 6.643 
71 1 10.417 9.415 2.461 
72 1 10.741 8.754 3.711 
74 1 11.212 9.471 4.866 
85 1 10.713 8.755 1.219 
96 1 8.755 14.858 5.364 
103 1 16.095 9.434 5.63 
104 1 9.415 13.616 5.66 
105 1 8.754 12.366 5.336 
107 1 9.471 11.211 4.866 
111 1 14.859 10.713 7.322 
119 1 13.616 10.417 6.662 
120 1 12.367 10.741 7.323 
122 1 11.212 11.211 6.606 
132 1 9.415 10.417 2.461 
133 1 8.754 10.741 3.711 
140 1 8.755 10.713 1.219 
146 1 14.859 8.755 5.364 
150 1 13.616 9.415 5.66 
151 1 12.367 8.754 5.336 
155 1 10.713 14.858 7.322 
159 1 10.417 13.616 6.662 
160 1 10.741 12.366 7.323 
1 1 9.415 10.417 13.616 
2 1 8.754 10.741 12.366 
4 1 9.471 11.211 11.211 
12 1 16.096 10.448 9.434 
15 1 8.755 10.713 14.858 
25 1 13.616 9.415 10.417 
26 1 12.367 8.754 10.741 
28 1 11.212 9.471 11.211 
34 1 9.434 16.095 10.448 
37 1 14.859 8.755 10.713 
45 1 10.417 13.616 9.415 
46 1 10.741 12.366 8.754 
48 1 11.212 11.211 9.471 
54 1 10.448 9.434 16.094 
57 1 10.713 14.858 8.755 
69 1 10.693 10.693 10.693 
88 1 10.448 16.095 9.434 
108 1 16.096 9.434 10.448 
128 1 9.434 10.448 16.094 
165 1 10.417 9.415 13.616 
166 1 10.741 8.754 12.366 
173 1 10.713 8.755 14.858 
177 1 9.415 13.616 10.417 
178 1 8.754 12.366 10.741 
185 1 8.755 14.858 10.713 
189 1 13.616 10.417 9.415 
190 1 12.367 10.741 8.754 
197 1 14.859 10.713 8.755 
ITEM: TIMESTEP
10
ITEM: NUMBER OF ATOMS
201
ITEM: BOX BOUNDS pp pp pp
0.0000000000000000e+00 1.6114000000000001e+01
0.0000000000000000e+00 1.6113000000000000e+01
0.0000000000000000e+00 1.6111999999999998e+01
ITEM: ATOMS id type x y z 
5 1 5.34476 5.34288 5.34058 
65 1 5.57808 6.59498 2.43087 
66 1 5.38039 7.32385 3.69926 
68 1 4.87659 6.61813 4.87454 
79 1 5.23906 7.3088 1.20301 
89 1 6.59454 2.42952 5.57872 
90 1 7.32862 3.69825 5.37978 
92 1 6.61776 4.87615 4.87633 
101 1 7.30786 1.20312 5.23995 
109 1 2.43062 5.59023 6.59368 
110 1 3.70621 5.38124 7.3206 
112 1 4.87692 4.87821 6.6142 
121 1 1.21109 5.27423 7.27653 
129 1 6.59582 5.57732 2.43013 
130 1 7.32909 5.37956 3.69922 
137 1 7.30829 5.23974 1.20358 
141 1 2.43007 6.6004 5.56975 
142 1 3.69463 7.32631 5.38089 
149 1 1.19923 7.30594 5.24014 
153 1 5.57903 2.42565 6.59416 
154 1 5.38279 3.69617 7.33453 
161 1 5.24033 1.2048 7.30725 
7 1 6.59536 5.57871 13.6456 
8 1 7.32912 5.37781 12.3762 
10 1 6.61475 4.87705 11.1993 
21 1 7.30869 5.2399 14.8731 
32 1 1.21399 7.33305 10.8453 
40 1 2.42978 6.59843 10.4995 
41 1 3.70924 7.33671 10.7047 
43 1 4.88439 6.61199 11.2036 
47 1 5.23988 1.20445 8.76915 
55 1 5.57792 2.43316 9.47999 
56 1 5.38285 3.69643 8.75315 
58 1 4.88718 4.86991 9.46425 
64 1 5.5338 6.56482 16.0934 
75 1 5.34611 5.346 10.7339 
118 1 6.56568 5.53348 16.0939 
168 1 5.57834 6.59732 13.6444 
169 1 5.37939 7.32655 12.3786 
176 1 5.24029 7.30753 14.8717 
182 1 7.30885 1.20258 10.8372 
186 1 6.59506 2.4303 10.4988 
187 1 7.32894 3.70006 10.6988 
191 1 1.21479 5.12067 8.78833 
195 1 2.46064 5.58827 9.50314 
196 1 3.70163 5.38929 8.74413 
9 1 7.30717 10.837 1.20478 
19 1 6.59631 10.4988 2.43102 
20 1 7.32862 10.698 3.69822 
22 1 6.61286 11.1997 4.87819 
27 1 1.20323 8.77163 5.24018 
35 1 2.42738 9.48126 5.57646 
36 1 3.69787 8.74995 5.38079 
38 1 4.87599 9.46755 4.88067 
44 1 6.56611 16.095 5.53432 
50 1 5.57998 13.6491 6.5938 
51 1 5.38029 12.3792 7.33078 
53 1 4.87738 11.1977 6.61067 
62 1 5.2402 14.8722 7.30818 
76 1 5.53365 16.0949 6.56575 
81 1 5.34558 10.7326 5.34446 
167 1 5.2399 8.76961 1.20374 
171 1 5.57975 9.48504 2.42618 
172 1 5.38169 8.74796 3.69875 
180 1 6.59592 13.646 5.57913 
181 1 7.32868 12.3793 5.37912 
188 1 7.30719 14.8724 5.24043 
194 1 1.20438 10.8386 7.30908 
198 1 2.43057 10.4992 6.59463 
199 1 3.69852 10.6977 7.32879 
17 1 5.3438 10.7318 10.7343 
39 1 6.56551 16.0948 10.5432 
49 1 5.53394 9.51214 16.095 
73 1 5.24008 8.76962 14.8715 
82 1 5.53403 16.0943 9.51194 
83 1 5.57905 9.48175 13.6472 
84 1 5.37878 8.74795 12.3769 
86 1 4.87795 9.46343 11.2003 
91 1 7.30833 14.8726 10.8367 
99 1 6.59542 13.6464 10.4979 
100 1 7.32823 12.3777 10.6986 
102 1 6.61533 11.1996 11.2 
113 1 6.56558 10.5433 16.0937 
114 1 2.43006 10.495 9.48451 
115 1 3.6981 10.6986 8.74959 
117 1 4.87755 11.2016 9.4613 
126 1 1.2045 10.8375 8.77096 
131 1 7.30871 10.8369 14.8733 
135 1 6.59482 10.4978 13.6465 
136 1 7.32873 10.6986 12.3772 
144 1 2.43037 9.48254 10.4964 
145 1 3.69855 8.75456 10.6991 
152 1 1.20479 8.77708 10.8403 
158 1 5.24026 14.8728 8.76891 
162 1 5.57888 13.6448 9.48074 
163 1 5.37834 12.3784 8.75094 
3 1 8.76858 5.23969 1.20353 
13 1 9.48126 5.57714 2.4299 
14 1 8.7476 5.37958 3.69918 
16 1 9.45935 4.87612 4.87648 
24 1 16.0954 5.53177 6.56743 
30 1 13.6473 6.6001 5.56969 
31 1 12.3825 7.3266 5.38121 
33 1 11.2002 6.618 4.87438 
42 1 14.8776 7.30602 5.24028 
52 1 10.8367 1.20477 7.30725 
60 1 10.498 2.42558 6.5941 
61 1 10.6941 3.69607 7.33459 
63 1 11.2001 4.87822 6.61422 
87 1 10.7322 5.34271 5.34058 
98 1 16.0953 6.56619 5.53306 
170 1 10.8379 7.30892 1.20307 
174 1 10.4989 6.59487 2.43101 
175 1 10.6964 7.32352 3.69924 
179 1 8.76914 1.20311 5.23995 
183 1 9.48247 2.42948 5.57871 
184 1 8.74827 3.6982 5.3798 
192 1 13.6464 5.59008 6.59374 
193 1 12.3708 5.38129 7.32077 
200 1 14.8658 5.27425 7.27671 
6 1 16.0954 5.68989 9.47735 
23 1 10.7308 5.34584 10.7339 
59 1 10.5432 6.5648 16.0932 
67 1 10.8368 7.30738 14.8719 
77 1 10.4985 6.59678 13.6455 
78 1 10.6973 7.32735 12.3788 
80 1 11.1929 6.61144 11.2028 
93 1 16.0954 6.61723 10.5511 
94 1 9.48189 2.43032 10.4989 
95 1 8.74816 3.70015 10.6988 
97 1 9.46199 4.87703 11.1995 
106 1 8.76814 1.20256 10.8372 
116 1 14.8623 5.12117 8.78863 
123 1 9.51129 5.53344 16.094 
124 1 13.6163 5.5885 9.50319 
125 1 12.3755 5.38933 8.74427 
127 1 11.1899 4.86994 9.46423 
134 1 8.7684 5.23993 14.873 
138 1 9.48138 5.57868 13.6453 
139 1 8.74823 5.37782 12.3763 
143 1 14.8629 7.33295 10.8452 
147 1 13.6476 6.59838 10.4994 
148 1 12.3683 7.33692 10.7044 
156 1 10.4991 2.43316 9.47996 
157 1 10.6941 3.69638 8.75319 
164 1 10.8371 1.20441 8.76914 
201 2 16.0962 4.09632 9.43602 
11 1 10.7315 10.7327 5.34443 
18 1 16.0956 10.5439 6.5642 
29 1 9.5109 16.095 5.53434 
70 1 10.5433 16.095 6.56572 
71 1 10.4974 9.48531 2.42579 
72 1 10.695 8.74797 3.69873 
74 1 11.2015 9.4674 4.88095 
85 1 10.8373 8.76982 1.20339 
96 1 8.76978 14.8724 5.24041 
103 1 16.0956 9.50794 5.53127 
104 1 9.48106 13.6459 5.5791 
105 1 8.74811 12.3794 5.3791 
107 1 9.46384 11.1997 4.87795 
111 1 14.8728 10.8387 7.3091 
119 1 13.6467 10.4993 6.59453 
120 1 12.3786 10.6977 7.32882 
122 1 11.1995 11.1978 6.61077 
132 1 9.48038 10.499 2.43133 
133 1 8.74847 10.698 3.69817 
140 1 8.76966 10.8371 1.20471 
146 1 14.8737 8.77155 5.23998 
150 1 13.6493 9.48123 5.57639 
151 1 12.3791 8.75026 5.38094 
155 1 10.8368 14.8722 7.30818 
159 1 10.497 13.649 6.59378 
160 1 10.6967 12.3793 7.33056 
1 1 9.48228 10.4979 13.6469 
2 1 8.748 10.6985 12.377 
4 1 9.46158 11.1998 11.1998 
12 1 16.0957 10.5405 9.51493 
15 1 8.76836 10.8369 14.8732 
25 1 13.6464 9.48217 10.4964 
26 1 12.3786 8.75438 10.6994 
28 1 11.1991 9.46265 11.201 
34 1 9.51149 16.0948 10.5432 
37 1 14.8726 8.77687 10.8404 
45 1 10.4981 13.6451 9.48086 
46 1 10.6985 12.3786 8.7508 
48 1 11.1995 11.2017 9.46116 
54 1 10.5431 9.51218 16.0948 
57 1 10.8368 14.8728 8.76893 
69 1 10.7332 10.7318 10.7344 
88 1 10.543 16.0943 9.51194 
108 1 16.0956 9.51365 10.5426 
128 1 9.51141 10.5434 16.0935 
165 1 10.498 9.48137 13.6464 
166 1 10.6986 8.74869 12.377 
173 1 10.8369 8.76919 14.8716 
177 1 9.48174 13.6468 10.4979 
178 1 8.7483 12.3778 10.6983 
185 1 8.76865 14.8726 10.8367 
189 1 13.6471 10.495 9.48445 
190 1 12.3788 10.6986 8.74991 
197 1 14.8728 10.8374 8.77113 
ITEM: TIMESTEP
20
ITEM: NUMBER OF ATOMS
201
ITEM: BOX BOUNDS pp pp pp
0.0000000000000000e+00 1.6114000000000001e+01
0.0000000000000000e+00 1.6113000000000000e+01
0.0000000000000000e+00 1.6111999999999998e+01
ITEM: ATOMS id type x y z 
5 1 5.36228 5.36423 5.36084 
65 1 5.58651 6.60441 2.41869 
66 1 5.36324 7.32746 3.68742 
68 1 4.86998 6.6109 4.863 
79 1 5.23339 7.31041 1.19682 
89 1 6.60221 2.41743 5.58649 
90 1 7.32525 3.68744 5.36278 
92 1 6.61279 4.86594 4.86557 
101 1 7.31008 1.19576 5.23288 
109 1 2.42757 5.60488 6.60088 
110 1 3.69965 5.3652 7.32661 
112 1 4.86835 4.86441 6.61071 
121 1 1.21347 5.27694 7.30778 
129 1 6.60166 5.5872 2.41758 
130 1 7.3252 5.36263 3.68742 
137 1 7.30979 5.23261 1.19566 
141 1 2.42255 6.6127 5.56032 
142 1 3.69518 7.33121 5.35965 
149 1 1.1933 7.31855 5.22158 
153 1 5.58653 2.41779 6.60372 
154 1 5.36364 3.68779 7.32923 
161 1 5.23288 1.1959 7.31064 
7 1 6.60381 5.58738 13.6572 
8 1 7.32668 5.35997 12.3882 
10 1 6.61266 4.8651 11.2114 
21 1 7.31025 5.23352 14.8792 
32 1 1.20689 7.32575 10.8417 
40 1 2.43048 6.61788 10.4891 
41 1 3.70654 7.33845 10.7217 
43 1 4.87671 6.60959 11.2147 
47 1 5.23299 1.19587 8.76751 
55 1 5.58832 2.41885 9.47439 
56 1 5.36547 3.68524 8.75166 
58 1 4.88258 4.86166 9.46953 
64 1 5.5334 6.56327 16.0944 
75 1 5.36787 5.36397 10.7135 
118 1 6.56267 5.53368 16.0934 
168 1 5.58847 6.60397 13.6569 
169 1 5.36336 7.32752 12.3902 
176 1 5.23369 7.31012 14.8798 
182 1 7.31033 1.19615 10.8438 
186 1 6.60461 2.41852 10.491 
187 1 7.32666 3.68791 10.717 
191 1 1.2578 5.06647 8.79036 
195 1 2.4595 5.60928 9.48586 
196 1 3.71718 5.38658 8.74839 
9 1 7.30985 10.8441 1.19674 
19 1 6.60207 10.4894 2.41821 
20 1 7.32554 10.7152 3.68741 
22 1 6.61147 11.2102 4.86697 
27 1 1.19521 8.77922 5.23178 
35 1 2.41791 9.47851 5.58958 
36 1 3.68787 8.75662 5.36248 
38 1 4.86621 9.4652 4.86487 
44 1 6.56285 16.0945 5.53379 
50 1 5.58714 13.6583 6.60369 
51 1 5.36162 12.3884 7.32772 
53 1 4.8644 11.2107 6.61296 
62 1 5.23341 14.88 7.31022 
76 1 5.53331 16.0945 6.56326 
81 1 5.36165 10.7127 5.3654 
167 1 5.23374 8.76708 1.19738 
171 1 5.5871 9.47317 2.41863 
172 1 5.36276 8.74933 3.68795 
180 1 6.60255 13.6592 5.58741 
181 1 7.32538 12.3897 5.36201 
188 1 7.31029 14.8805 5.23337 
194 1 1.19534 10.8412 7.30865 
198 1 2.4166 10.4901 6.60572 
199 1 3.68555 10.7161 7.32494 
17 1 5.36544 10.7148 10.7112 
39 1 6.56339 16.0949 10.5435 
49 1 5.53302 9.51345 16.0946 
73 1 5.23366 8.76698 14.8796 
82 1 5.53374 16.0945 9.51442 
83 1 5.58776 9.47382 13.658 
84 1 5.36136 8.74936 12.3888 
86 1 4.87167 9.47028 11.2125 
91 1 7.30996 14.8803 10.8434 
99 1 6.60376 13.6574 10.4898 
100 1 7.32638 12.3876 10.7163 
102 1 6.61205 11.211 11.2114 
113 1 6.56277 10.5436 16.0942 
114 1 2.41912 10.4956 9.46769 
115 1 3.69061 10.716 8.74836 
117 1 4.86575 11.2121 9.46565 
126 1 1.19513 10.8439 8.76192 
131 1 7.3099 10.8436 14.8793 
135 1 6.60366 10.4895 13.6571 
136 1 7.32651 10.7162 12.388 
144 1 2.42841 9.48409 10.4904 
145 1 3.69528 8.75791 10.7184 
152 1 1.20396 8.78063 10.8565 
158 1 5.23348 14.8798 8.76705 
162 1 5.58709 13.6566 9.473 
163 1 5.36099 12.3875 8.75172 
3 1 8.76714 5.23256 1.19571 
13 1 9.47541 5.58718 2.41747 
14 1 8.75172 5.36258 3.68737 
16 1 9.4642 4.8659 4.86566 
24 1 16.0956 5.52987 6.57288 
30 1 13.6546 6.61244 5.56031 
31 1 12.3817 7.33115 5.35991 
33 1 11.2068 6.61086 4.86285 
42 1 14.8838 7.31845 5.2215 
52 1 10.8442 1.19593 7.31064 
60 1 10.4905 2.41782 6.6037 
61 1 10.7133 3.68769 7.32929 
63 1 11.2086 4.86436 6.61075 
87 1 10.7147 5.36415 5.36074 
98 1 16.0955 6.56224 5.51789 
170 1 10.8436 7.31059 1.19697 
174 1 10.4904 6.60443 2.41867 
175 1 10.7135 7.32751 3.68732 
179 1 8.76688 1.19577 5.23285 
183 1 9.47477 2.41743 5.58646 
184 1 8.75169 3.68741 5.36278 
192 1 13.6494 5.60466 6.60088 
193 1 12.3773 5.36521 7.32661 
200 1 14.8636 5.27688 7.3074 
6 1 16.0961 5.57383 9.52871 
23 1 10.7091 5.36411 10.7136 
59 1 10.5437 6.56329 16.0945 
67 1 10.8434 7.30994 14.8799 
77 1 10.4886 6.60374 13.6572 
78 1 10.7137 7.32785 12.3901 
80 1 11.2004 6.60926 11.2144 
93 1 16.0957 6.6136 10.4933 
94 1 9.4724 2.4185 10.491 
95 1 8.75035 3.68792 10.717 
97 1 9.46449 4.86526 11.2114 
106 1 8.76665 1.19621 10.8438 
116 1 14.819 5.06637 8.79021 
123 1 9.5143 5.53363 16.0935 
124 1 13.617 5.60932 9.48615 
125 1 12.3596 5.38665 8.74847 
127 1 11.1943 4.86168 9.46972 
134 1 8.76669 5.2335 14.8792 
138 1 9.4731 5.58736 13.6571 
139 1 8.75039 5.35998 12.3881 
143 1 14.8705 7.32577 10.8418 
147 1 13.6464 6.61806 10.4895 
148 1 12.3703 7.33836 10.7218 
156 1 10.4887 2.41884 9.47446 
157 1 10.7115 3.68524 8.75168 
164 1 10.844 1.19593 8.76751 
201 2 16.0966 4.06869 9.46443 
11 1 10.7153 10.7129 5.36526 
18 1 16.0955 10.5437 6.56768 
29 1 9.51412 16.0945 5.53373 
70 1 10.5437 16.0946 6.56319 
71 1 10.4898 9.47331 2.41843 
72 1 10.714 8.74926 3.6877 
74 1 11.2108 9.46503 4.8647 
85 1 10.8432 8.76719 1.19739 
96 1 8.76661 14.8806 5.23333 
103 1 16.0956 9.52106 5.53856 
104 1 9.47436 13.6592 5.58728 
105 1 8.75144 12.3897 5.362 
107 1 9.46534 11.2101 4.86682 
111 1 14.8818 10.8412 7.30884 
119 1 13.6606 10.4903 6.60589 
120 1 12.3915 10.7161 7.32518 
122 1 11.2127 11.2108 6.61314 
132 1 9.47492 10.4893 2.41827 
133 1 8.75159 10.7152 3.68725 
140 1 8.76722 10.8441 1.19674 
146 1 14.8819 8.77933 5.23163 
150 1 13.659 9.4787 5.58949 
151 1 12.3891 8.75681 5.36273 
155 1 10.8437 14.8801 7.31019 
159 1 10.4899 13.6583 6.60358 
160 1 10.7153 12.3884 7.32767 
1 1 9.47338 10.4895 13.657 
2 1 8.75056 10.7163 12.3878 
4 1 9.46502 11.211 11.2113 
12 1 16.0955 10.547 9.5104 
15 1 8.76711 10.8436 14.8794 
25 1 13.6487 9.48414 10.4903 
26 1 12.3818 8.75791 10.7185 
28 1 11.2052 9.47013 11.2129 
34 1 9.51357 16.0949 10.5436 
37 1 14.8732 8.78078 10.8565 
45 1 10.4899 13.6567 9.47311 
46 1 10.7159 12.3874 8.75188 
48 1 11.2114 11.212 9.46572 
54 1 10.5439 9.51348 16.0947 
57 1 10.8436 14.8799 8.7671 
69 1 10.7114 10.7149 10.7112 
88 1 10.5433 16.0945 9.51448 
108 1 16.0956 9.52236 10.5481 
128 1 9.5142 10.5436 16.0941 
165 1 10.4893 9.47354 13.6575 
166 1 10.7158 8.7496 12.3888 
173 1 10.8433 8.76696 14.8796 
177 1 9.47311 13.6574 10.4899 
178 1 8.75067 12.3876 10.7163 
185 1 8.76699 14.8804 10.8434 
189 1 13.658 10.4955 9.46769 
190 1 12.3865 10.716 8.74855 
197 1 14.8819 10.8438 8.76195 
ITEM: TIMESTEP
30
ITEM: NUMBER OF ATOMS
201
ITEM: BOX BOUNDS pp pp pp
0.0000000000000000e+00 1.6114000000000001e+01
0.0000000000000000e+00 1.6113000000000000e+01
0.0000000000000000e+00 1.6111999999999998e+01
ITEM: ATOMS id type x y z 
5 1 5.3727 5.36899 5.36458 
65 1 5.59014 6.60543 2.41639 
66 1 5.3505 7.32765 3.68414 
68 1 4.86762 6.60933 4.86337 
79 1 5.22623 7.30888 1.19423 
89 1 6.60609 2.4175 5.58919 
90 1 7.32795 3.68441 5.34888 
92 1 6.61011 4.86285 4.86294 
101 1 7.30931 1.19515 5.22677 
109 1 2.40942 5.62318 6.61659 
110 1 3.69114 5.35934 7.32211 
112 1 4.86362 4.86218 6.60916 
121 1 1.20857 5.28077 7.31646 
129 1 6.60626 5.58884 2.41682 
130 1 7.32767 5.34883 3.6841 
137 1 7.30927 5.22649 1.19387 
141 1 2.41549 6.61627 5.56774 
142 1 3.68509 7.32861 5.34326 
149 1 1.18628 7.30646 5.21825 
153 1 5.58988 2.41714 6.60565 
154 1 5.349 3.68301 7.32694 
161 1 5.22615 1.19412 7.31053 
7 1 6.60666 5.59017 13.6602 
8 1 7.32812 5.34654 12.3942 
10 1 6.61055 4.86275 11.2144 
21 1 7.30982 5.22745 14.8812 
32 1 1.19689 7.32939 10.8198 
40 1 2.42859 6.62339 10.4729 
41 1 3.7013 7.33992 10.7347 
43 1 4.87219 6.61176 11.2136 
47 1 5.22679 1.19301 8.76841 
55 1 5.59212 2.41463 9.47256 
56 1 5.35288 3.68156 8.75098 
58 1 4.88225 4.86504 9.46892 
64 1 5.52684 6.55717 16.0935 
75 1 5.37573 5.36966 10.7101 
118 1 6.55847 5.5262 16.0932 
168 1 5.59236 6.60564 13.6607 
169 1 5.35131 7.32939 12.394 
176 1 5.22732 7.30951 14.8818 
182 1 7.30934 1.19402 10.8502 
186 1 6.6074 2.41577 10.4884 
187 1 7.32814 3.68226 10.7306 
191 1 1.22769 5.04836 8.8096 
195 1 2.45594 5.61849 9.47452 
196 1 3.71451 5.38509 8.74793 
9 1 7.30892 10.8503 1.19479 
19 1 6.60673 10.4881 2.41881 
20 1 7.32762 10.7291 3.68589 
22 1 6.60871 11.2127 4.86454 
27 1 1.19241 8.76835 5.22431 
35 1 2.41655 9.47203 5.58627 
36 1 3.68746 8.75485 5.34893 
38 1 4.86597 9.47039 4.86413 
44 1 6.55768 16.0954 5.52643 
50 1 5.58979 13.6581 6.607 
51 1 5.34726 12.3914 7.32738 
53 1 4.86591 11.2135 6.60766 
62 1 5.22689 14.8814 7.3098 
76 1 5.52612 16.0943 6.55822 
81 1 5.37263 10.7095 5.37077 
167 1 5.22652 8.76849 1.1949 
171 1 5.58981 9.47134 2.41804 
172 1 5.34868 8.75096 3.68573 
180 1 6.60588 13.6581 5.58994 
181 1 7.32773 12.3912 5.34819 
188 1 7.30865 14.8818 5.22678 
194 1 1.19389 10.8527 7.31188 
198 1 2.41845 10.4902 6.60727 
199 1 3.68706 10.7303 7.32689 
17 1 5.37337 10.7106 10.7055 
39 1 6.55874 16.0945 10.5507 
49 1 5.52672 9.51968 16.094 
73 1 5.22715 8.76754 14.8813 
82 1 5.52677 16.0942 9.51962 
83 1 5.59122 9.4715 13.6588 
84 1 5.34852 8.75177 12.3931 
86 1 4.87265 9.47476 11.2152 
91 1 7.30921 14.8817 10.8493 
99 1 6.60682 13.6588 10.4865 
100 1 7.32791 12.3921 10.7302 
102 1 6.6095 11.2128 11.213 
113 1 6.55842 10.5509 16.0933 
114 1 2.41869 10.4885 9.46917 
115 1 3.68612 10.7307 8.75014 
117 1 4.8651 11.2131 9.46857 
126 1 1.19381 10.85 8.7724 
131 1 7.30963 10.8493 14.8807 
135 1 6.6073 10.4868 13.6583 
136 1 7.32795 10.7301 12.3918 
144 1 2.42108 9.48035 10.49 
145 1 3.69002 8.75905 10.7316 
152 1 1.20024 8.77895 10.8576 
158 1 5.22736 14.8811 8.76839 
162 1 5.5907 13.6585 9.47075 
163 1 5.34753 12.3913 8.74958 
3 1 8.76764 5.22643 1.19378 
13 1 9.4707 5.58869 2.41681 
14 1 8.74927 5.3488 3.68408 
16 1 9.46683 4.86281 4.86294 
24 1 16.0955 5.54583 6.59642 
30 1 13.6616 6.61621 5.56783 
31 1 12.392 7.32848 5.3435 
33 1 11.2095 6.60938 4.86339 
42 1 14.8906 7.30646 5.2183 
52 1 10.8509 1.19405 7.31051 
60 1 10.4871 2.41711 6.60563 
61 1 10.7279 3.68297 7.32693 
63 1 11.2135 4.86224 6.60928 
87 1 10.7044 5.36896 5.36455 
98 1 16.0954 6.55757 5.52886 
170 1 10.8508 7.30882 1.19417 
174 1 10.4868 6.60542 2.41632 
175 1 10.7263 7.32766 3.68416 
179 1 8.76767 1.19511 5.22675 
183 1 9.47085 2.41747 5.58913 
184 1 8.74893 3.68437 5.34891 
192 1 13.6674 5.62314 6.61649 
193 1 12.3859 5.35932 7.32211 
200 1 14.8685 5.28071 7.31644 
6 1 16.095 5.55649 9.51683 
23 1 10.7012 5.36965 10.7102 
59 1 10.5501 6.55709 16.0936 
67 1 10.8497 7.30953 14.8818 
77 1 10.4846 6.60559 13.6607 
78 1 10.7258 7.32912 12.3941 
80 1 11.2047 6.61181 11.2138 
93 1 16.0953 6.61204 10.4811 
94 1 9.46958 2.41577 10.4884 
95 1 8.74887 3.68232 10.7307 
97 1 9.46634 4.86274 11.2145 
106 1 8.76762 1.19401 10.8503 
116 1 14.8494 5.04933 8.80973 
123 1 9.51854 5.52624 16.0932 
124 1 13.621 5.6187 9.47481 
125 1 12.3625 5.38517 8.74786 
127 1 11.1948 4.86506 9.46887 
134 1 8.76723 5.22749 14.8813 
138 1 9.4704 5.59026 13.6603 
139 1 8.74885 5.34656 12.3941 
143 1 14.8802 7.32948 10.8197 
147 1 13.6488 6.6233 10.473 
148 1 12.3758 7.33983 10.7348 
156 1 10.4849 2.41456 9.47265 
157 1 10.7241 3.68164 8.75102 
164 1 10.8502 1.19295 8.76838 
201 2 16.097 4.00201 9.45312 
11 1 10.7044 10.7096 5.37075 
18 1 16.0955 10.5549 6.55885 
29 1 9.5193 16.0954 5.52644 
70 1 10.5509 16.0942 6.55821 
71 1 10.4873 9.47145 2.41799 
72 1 10.7281 8.75097 3.68571 
74 1 11.211 9.47043 4.8641 
85 1 10.8506 8.76852 1.19476 
96 1 8.76835 14.8818 5.22677 
103 1 16.0954 9.5219 5.52297 
104 1 9.47109 13.6581 5.58995 
105 1 8.74923 12.3913 5.34816 
107 1 9.46828 11.2127 4.8646 
111 1 14.8832 10.8527 7.3119 
119 1 13.6586 10.4903 6.60732 
120 1 12.39 10.7303 7.32689 
122 1 11.2112 11.2135 6.60774 
132 1 9.47018 10.4883 2.41876 
133 1 8.74929 10.7291 3.68592 
140 1 8.76798 10.8504 1.19469 
146 1 14.8846 8.76834 5.22428 
150 1 13.6606 9.47219 5.58629 
151 1 12.3896 8.75485 5.34916 
155 1 10.8501 14.8814 7.30979 
159 1 10.4872 13.6582 6.60694 
160 1 10.7297 12.3914 7.32732 
1 1 9.46976 10.4867 13.6583 
2 1 8.74909 10.7301 12.3918 
4 1 9.46748 11.2128 11.2129 
12 1 16.0956 10.546 9.52185 
15 1 8.76738 10.8493 14.8806 
25 1 13.6561 9.48022 10.4901 
26 1 12.3871 8.75914 10.7316 
28 1 11.2045 9.47473 11.2151 
34 1 9.51827 16.0944 10.5507 
37 1 14.8769 8.77868 10.8576 
45 1 10.4863 13.6585 9.47081 
46 1 10.7293 12.3914 8.74964 
48 1 11.212 11.2132 9.46851 
54 1 10.5503 9.51965 16.0937 
57 1 10.8496 14.8811 8.76834 
69 1 10.7035 10.7107 10.7056 
88 1 10.5502 16.0942 9.51966 
108 1 16.0955 9.52226 10.5583 
128 1 9.51858 10.5509 16.0932 
165 1 10.4857 9.47153 13.659 
166 1 10.7285 8.75154 12.3932 
173 1 10.8498 8.76746 14.8812 
177 1 9.47016 13.6588 10.4865 
178 1 8.74908 12.3922 10.7301 
185 1 8.7678 14.8817 10.8493 
189 1 13.6584 10.4885 9.46918 
190 1 12.3909 10.7306 8.75013 
197 1 14.8834 10.85 8.7724 
ITEM: TIMESTEP
40
ITEM: NUMBER OF ATOMS
201
ITEM: BOX BOUNDS pp pp pp
0.0000000000000000e+00 1.6114000000000001e+01
0.0000000000000000e+00 1.6113000000000000e+01
0.0000000000000000e+00 1.6111999999999998e+01
ITEM: ATOMS id type x y z 
5 1 5.37147 5.37075 5.36855 
65 1 5.59125 6.60659 2.41529 
66 1 5.34579 7.32804 3.68241 
68 1 4.86748 6.60833 4.86252 
79 1 5.22538 7.30965 1.19323 
89 1 6.60596 2.41578 5.59072 
90 1 7.32709 3.68275 5.34414 
92 1 6.60892 4.86305 4.86255 
101 1 7.3091 1.1931 5.22545 
109 1 2.41063 5.62777 6.62147 
110 1 3.69047 5.35758 7.32338 
112 1 4.86195 4.86192 6.60715 
121 1 1.20784 5.28013 7.32638 
129 1 6.60611 5.59058 2.41519 
130 1 7.32724 5.34407 3.6821 
137 1 7.3093 5.22499 1.19295 
141 1 2.41572 6.61556 5.56895 
142 1 3.68515 7.33085 5.3373 
149 1 1.18599 7.30993 5.21455 
153 1 5.59019 2.41617 6.60707 
154 1 5.34296 3.68224 7.32782 
161 1 5.22522 1.19279 7.30971 
7 1 6.60645 5.59104 13.6615 
8 1 7.32782 5.34181 12.3957 
10 1 6.60969 4.86178 11.2151 
21 1 7.30942 5.22523 14.8833 
32 1 1.19792 7.33099 10.8134 
40 1 2.42782 6.62857 10.4667 
41 1 3.70003 7.34072 10.7384 
43 1 4.87196 6.61071 11.2134 
47 1 5.22553 1.1921 8.76821 
55 1 5.59257 2.41388 9.47108 
56 1 5.3476 3.68127 8.75004 
58 1 4.8822 4.86548 9.46818 
64 1 5.52448 6.55607 16.0943 
75 1 5.37593 5.37233 10.7076 
118 1 6.55594 5.52455 16.0941 
168 1 5.59254 6.60706 13.6619 
169 1 5.34704 7.32961 12.3957 
176 1 5.22592 7.30976 14.8835 
182 1 7.30937 1.19194 10.8523 
186 1 6.60697 2.41456 10.4871 
187 1 7.32785 3.68088 10.7355 
191 1 1.24128 5.02997 8.80889 
195 1 2.45384 5.61734 9.47115 
196 1 3.71496 5.38344 8.74632 
9 1 7.30923 10.8514 1.19381 
19 1 6.6067 10.4862 2.41669 
20 1 7.3274 10.7337 3.68346 
22 1 6.60879 11.2133 4.86404 
27 1 1.19228 8.77257 5.22341 
35 1 2.4151 9.47223 5.59028 
36 1 3.68394 8.75432 5.34353 
38 1 4.86486 9.47036 4.86383 
44 1 6.55621 16.0945 5.52487 
50 1 5.59135 13.66 6.60706 
51 1 5.34266 12.3935 7.32736 
53 1 4.8643 11.2134 6.60788 
62 1 5.2259 14.8828 7.30962 
76 1 5.52456 16.0943 6.55664 
81 1 5.37245 10.7069 5.37194 
167 1 5.22578 8.76804 1.19389 
171 1 5.59113 9.47054 2.41675 
172 1 5.34395 8.75045 3.68362 
180 1 6.60649 13.6604 5.59141 
181 1 7.32741 12.3938 5.3436 
188 1 7.3093 14.883 5.22605 
194 1 1.1934 10.8521 7.31096 
198 1 2.41584 10.4869 6.60741 
199 1 3.68316 10.735 7.32652 
17 1 5.37413 10.7094 10.7043 
39 1 6.55641 16.0939 10.5525 
49 1 5.52475 9.52088 16.0945 
73 1 5.22594 8.76781 14.8832 
82 1 5.52461 16.0938 9.5212 
83 1 5.59177 9.47094 13.6611 
84 1 5.34469 8.75108 12.3949 
86 1 4.87188 9.47542 11.2159 
91 1 7.30949 14.8828 10.8508 
99 1 6.60693 13.6605 10.4852 
100 1 7.32791 12.3946 10.7346 
102 1 6.60945 11.2138 11.2132 
113 1 6.55643 10.5524 16.0942 
114 1 2.41719 10.488 9.46875 
115 1 3.68432 10.7352 8.74835 
117 1 4.86406 11.2135 9.46839 
126 1 1.19224 10.8503 8.76931 
131 1 7.30936 10.8511 14.8827 
135 1 6.60726 10.4859 13.66 
136 1 7.32791 10.7346 12.3937 
144 1 2.42138 9.48069 10.4896 
145 1 3.68803 8.75947 10.7367 
152 1 1.19847 8.77813 10.8584 
158 1 5.22609 14.8825 8.76792 
162 1 5.59179 13.66 9.47025 
163 1 5.34304 12.3936 8.74925 
3 1 8.76763 5.22494 1.19294 
13 1 9.47088 5.5905 2.41518 
14 1 8.74975 5.34402 3.68209 
16 1 9.46805 4.86303 4.86256 
24 1 16.0956 5.54644 6.60204 
30 1 13.6613 6.6155 5.56898 
31 1 12.3918 7.33083 5.3375 
33 1 11.2095 6.60838 4.86248 
42 1 14.891 7.30995 5.21455 
52 1 10.8518 1.19279 7.30971 
60 1 10.4868 2.41615 6.60706 
61 1 10.734 3.68222 7.32784 
63 1 11.215 4.8619 6.60718 
87 1 10.7056 5.37072 5.36853 
98 1 16.0955 6.55519 5.52761 
170 1 10.8516 7.3097 1.19325 
174 1 10.4857 6.60659 2.41527 
175 1 10.731 7.32807 3.68242 
179 1 8.76787 1.1931 5.22543 
183 1 9.47101 2.41577 5.5907 
184 1 8.74984 3.68272 5.34415 
192 1 13.6663 5.62765 6.62137 
193 1 12.3865 5.35758 7.32342 
200 1 14.8691 5.2801 7.32641 
6 1 16.0951 5.53764 9.53045 
23 1 10.7011 5.37236 10.7076 
59 1 10.5525 6.55604 16.0943 
67 1 10.8511 7.30971 14.8835 
77 1 10.4845 6.60702 13.6618 
78 1 10.7301 7.32952 12.3957 
80 1 11.205 6.61065 11.2135 
93 1 16.0955 6.60815 10.4774 
94 1 9.47002 2.41458 10.4871 
95 1 8.74917 3.6809 10.7355 
97 1 9.46728 4.86179 11.2151 
106 1 8.76761 1.19194 10.8523 
116 1 14.8354 5.03105 8.80868 
123 1 9.52104 5.52453 16.0941 
124 1 13.623 5.61748 9.4713 
125 1 12.3619 5.38353 8.74633 
127 1 11.1948 4.86549 9.46818 
134 1 8.76756 5.22524 14.8833 
138 1 9.47054 5.59105 13.6615 
139 1 8.74915 5.34183 12.3957 
143 1 14.8792 7.33105 10.8133 
147 1 13.6493 6.62867 10.467 
148 1 12.377 7.34076 10.7385 
156 1 10.4844 2.41386 9.47112 
157 1 10.7294 3.68128 8.75007 
164 1 10.8515 1.1921 8.7682 
201 2 16.0975 4.00124 9.44765 
11 1 10.7046 10.7069 5.37193 
18 1 16.0955 10.5556 6.55832 
29 1 9.52077 16.0945 5.52486 
70 1 10.5524 16.0943 6.55662 
71 1 10.4859 9.47063 2.41669 
72 1 10.7329 8.7505 3.68358 
74 1 11.2122 9.47036 4.86376 
85 1 10.8513 8.76809 1.19386 
96 1 8.76766 14.8831 5.22603 
103 1 16.0955 9.5246 5.52407 
104 1 9.47048 13.6604 5.59138 
105 1 8.74954 12.3938 5.34358 
107 1 9.4682 11.2133 4.86406 
111 1 14.8837 10.8521 7.31101 
119 1 13.6612 10.4869 6.60747 
120 1 12.3939 10.735 7.32658 
122 1 11.2128 11.2134 6.60793 
132 1 9.47029 10.4862 2.41664 
133 1 8.74959 10.7337 3.68344 
140 1 8.76775 10.8514 1.19377 
146 1 14.8847 8.7726 5.22337 
150 1 13.6619 9.47234 5.59027 
151 1 12.393 8.75435 5.34372 
155 1 10.8511 14.8828 7.3096 
159 1 10.4856 13.6601 6.60702 
160 1 10.7343 12.3936 7.32737 
1 1 9.46975 10.4859 13.66 
2 1 8.74911 10.7346 12.3937 
4 1 9.46756 11.2138 11.2131 
12 1 16.0956 10.5483 9.52367 
15 1 8.76764 10.8511 14.8827 
25 1 13.6557 9.48061 10.4896 
26 1 12.3891 8.75953 10.7368 
28 1 11.2052 9.47545 11.2158 
34 1 9.52058 16.0939 10.5525 
37 1 14.8787 8.77812 10.8584 