ITEM: TIMESTEP
0
ITEM: NUMBER OF ATOMS
131
ITEM: BOX BOUNDS pp pp pp
0.0000000000000000e+00 1.8762000000000000e+01
0.0000000000000000e+00 1.8762000000000000e+01
0.0000000000000000e+00 1.8760999999999999e+01
ITEM: ATOMS id type x y z 
1 1 3.12 3.119 3.121 
10 1 5.595 5.596 5.595 
17 1 4.011 4.011 4.012 
26 1 4.704 4.704 4.704 
33 1 0.414 3.456 3.456 
41 1 3.456 0.413 3.456 
49 1 3.456 3.456 0.414 
58 1 8.301 5.259 5.259 
66 1 5.259 8.301 5.259 
74 1 5.259 5.259 8.301 
81 1 1.612 3.354 3.354 
89 1 3.353 1.612 3.354 
97 1 3.354 3.354 1.613 
106 1 7.103 5.361 5.361 
114 1 5.362 7.103 5.361 
122 1 5.361 5.361 7.103 
4 1 3.12 3.12 14.976 
11 1 5.595 5.595 12.5 
20 1 4.011 4.011 14.084 
27 1 4.704 4.704 13.392 
36 1 0.414 3.456 14.639 
46 1 3.456 0.414 14.639 
56 1 3.456 3.456 17.682 
59 1 8.301 5.259 12.837 
69 1 5.259 8.301 12.837 
79 1 5.259 5.259 9.794 
84 1 1.612 3.354 14.742 
94 1 3.354 1.612 14.742 
104 1 3.354 3.354 16.483 
107 1 7.103 5.361 12.735 
117 1 5.361 7.103 12.735 
127 1 5.361 5.361 10.993 
6 1 3.12 14.976 3.12 
13 1 5.595 12.501 5.596 
22 1 4.011 14.085 4.011 
29 1 4.704 13.392 4.705 
38 1 0.414 14.64 3.457 
48 1 3.456 17.682 3.456 
52 1 3.456 14.64 0.414 
61 1 8.301 12.837 5.259 
71 1 5.259 9.794 5.259 
75 1 5.259 12.837 8.301 
86 1 1.612 14.742 3.354 
96 1 3.354 16.483 3.354 
100 1 3.354 14.742 1.612 
109 1 7.103 12.735 5.361 
119 1 5.361 10.993 5.361 
123 1 5.361 12.735 7.103 
7 1 3.12 14.976 14.976 
16 1 5.595 12.501 12.5 
23 1 4.011 14.085 14.084 
32 1 4.704 13.392 13.391 
39 1 0.414 14.64 14.639 
43 1 3.456 17.682 14.639 
53 1 3.456 14.64 17.682 
64 1 8.302 12.837 12.837 
68 1 5.259 9.795 12.837 
78 1 5.259 12.837 9.794 
87 1 1.612 14.742 14.741 
91 1 3.354 16.483 14.741 
101 1 3.353 14.742 16.483 
112 1 7.103 12.735 12.735 
116 1 5.361 10.993 12.735 
126 1 5.361 12.735 10.993 
8 1 14.976 3.12 3.12 
15 1 12.501 5.595 5.595 
24 1 14.084 4.011 4.011 
31 1 13.392 4.704 4.704 
40 1 17.682 3.456 3.456 
44 1 14.64 0.414 3.457 
54 1 14.64 3.456 0.414 
63 1 9.795 5.259 5.259 
67 1 12.837 8.301 5.259 
77 1 12.837 5.259 8.301 
88 1 16.483 3.354 3.354 
92 1 14.742 1.612 3.354 
102 1 14.742 3.354 1.612 
111 1 10.993 5.361 5.361 
115 1 12.735 7.103 5.361 
125 1 12.735 5.361 7.103 
5 1 14.976 3.119 14.975 
14 1 12.501 5.596 12.501 
21 1 14.085 4.011 14.084 
30 1 13.392 4.703 13.392 
37 1 17.682 3.456 14.639 
47 1 14.64 0.413 14.639 
51 1 14.64 3.456 17.682 
62 1 9.794 5.259 12.837 
72 1 12.837 8.301 12.837 
76 1 12.837 5.259 9.795 
85 1 16.483 3.354 14.741 
95 1 14.742 1.612 14.741 
99 1 14.742 3.354 16.483 
110 1 10.993 5.361 12.735 
120 1 12.734 7.103 12.735 
124 1 12.735 5.361 10.993 
3 1 14.976 14.976 3.12 
12 1 12.501 12.501 5.595 
19 1 14.085 14.085 4.011 
28 1 13.392 13.392 4.704 
35 1 17.682 14.64 3.457 
45 1 14.64 17.682 3.457 
55 1 14.64 14.64 0.414 
60 1 9.794 12.837 5.259 
70 1 12.837 9.794 5.259 
80 1 12.837 12.837 8.301 
83 1 16.484 14.742 3.354 
93 1 14.742 16.483 3.354 
103 1 14.742 14.742 1.613 
108 1 10.993 12.735 5.361 
118 1 12.734 10.993 5.361 
128 1 12.734 12.734 7.103 
2 1 14.976 14.976 14.975 
9 1 12.501 12.501 12.501 
18 1 14.084 14.085 14.084 
25 1 13.391 13.393 13.392 
34 1 17.682 14.64 14.639 
42 1 14.64 17.682 14.639 
50 1 14.64 14.64 17.682 
57 1 9.795 12.837 12.837 
65 1 12.837 9.794 12.837 
73 1 12.837 12.837 9.794 
82 1 16.483 14.742 14.741 
90 1 14.742 16.483 14.741 
98 1 14.742 14.742 16.483 
105 1 10.993 12.734 12.734 
113 1 12.735 10.993 12.735 
121 1 12.735 12.734 10.993 
129 2 10.993 12.734 14.084 
130 2 12.122 12.583 15.088 
131 3 11.556 12.464 15.891 
ITEM: TIMESTEP
10
ITEM: NUMBER OF ATOMS
131
ITEM: BOX BOUNDS pp pp pp
0.0000000000000000e+00 1.8762000000000000e+01
0.0000000000000000e+00 1.8762000000000000e+01
0.0000000000000000e+00 1.8760999999999999e+01
ITEM: ATOMS id type x y z 
1 1 3.11978 3.11951 3.12035 
10 1 5.59508 5.59512 5.59505 
17 1 4.01082 4.01102 4.01156 
26 1 4.7039 4.7036 4.70408 
33 1 0.413505 3.45518 3.45507 
41 1 3.45483 0.413155 3.45514 
49 1 3.45511 3.45513 0.41411 
58 1 8.30149 5.25976 5.25981 
66 1 5.26009 8.30142 5.25971 
74 1 5.25979 5.25978 8.30123 
81 1 1.61221 3.35318 3.35358 
89 1 3.35286 1.6119 3.35351 
97 1 3.35332 3.35316 1.61285 
106 1 7.10283 5.3617 5.36154 
114 1 5.36204 7.10267 5.36159 
122 1 5.36166 5.36177 7.10249 
4 1 3.11995 3.11987 14.976 
11 1 5.59482 5.59535 12.5005 
20 1 4.01114 4.01117 14.0847 
27 1 4.7036 4.70376 13.3915 
36 1 0.413559 3.45517 14.6402 
46 1 3.45514 0.413423 14.6402 
56 1 3.45511 3.45514 17.6821 
59 1 8.30151 5.25982 12.8362 
69 1 5.25969 8.30117 12.8363 
79 1 5.25984 5.2598 9.79457 
84 1 1.61228 3.35325 14.7423 
94 1 3.35327 1.61211 14.7423 
104 1 3.35332 3.35332 16.4833 
107 1 7.10271 5.36165 12.7343 
117 1 5.36179 7.10206 12.7341 
127 1 5.36166 5.36172 10.993 
6 1 3.12017 14.976 3.11991 
13 1 5.59461 12.5007 5.59579 
22 1 4.01019 14.0844 4.0119 
29 1 4.70476 13.3926 4.70391 
38 1 0.413612 14.6408 3.45592 
48 1 3.45519 17.6821 3.45517 
52 1 3.45518 14.6408 0.413605 
61 1 8.30156 12.8362 5.25979 
71 1 5.25982 9.79476 5.25977 
75 1 5.25963 12.8364 8.30081 
86 1 1.61219 14.7426 3.35372 
96 1 3.35344 16.4833 3.35339 
100 1 3.35344 14.7426 1.61228 
109 1 7.10278 12.7344 5.36176 
119 1 5.36156 10.9932 5.36181 
123 1 5.36173 12.7343 7.10188 
7 1 3.11935 14.9763 14.9743 
16 1 5.61883 12.5089 12.508 
23 1 4.01013 14.0849 14.0852 
32 1 4.70473 13.3939 13.3959 
39 1 0.413691 14.641 14.64 
43 1 3.45508 17.6817 14.6399 
53 1 3.45474 14.6409 17.681 
64 1 8.30396 12.8352 12.8251 
68 1 5.25849 9.79106 12.8358 
78 1 5.25835 12.8358 9.79116 
87 1 1.6123 14.7427 14.7417 
91 1 3.35329 16.4833 14.7417 
101 1 3.35284 14.7428 16.4827 
112 1 7.08619 12.7319 12.727 
116 1 5.36427 10.99 12.7364 
126 1 5.36407 12.7369 10.9899 
8 1 14.9761 3.11992 3.12007 
15 1 12.5007 5.59497 5.59505 
24 1 14.0847 4.01105 4.01116 
31 1 13.3916 4.70371 4.70371 
40 1 17.6819 3.45516 3.4551 
44 1 14.6408 0.413569 3.45591 
54 1 14.6409 3.4552 0.413649 
63 1 9.79471 5.2598 5.25982 
67 1 12.8362 8.30154 5.2598 
77 1 12.8362 5.25981 8.30169 
88 1 16.4835 3.35334 3.35337 
92 1 14.7426 1.61227 3.35367 
102 1 14.7425 3.35333 1.61243 
111 1 10.9934 5.3617 5.3617 
115 1 12.7345 7.10268 5.36164 
125 1 12.7345 5.36162 7.10295 
5 1 14.9759 3.11925 14.975 
14 1 12.501 5.5968 12.5013 
21 1 14.0842 4.01051 14.0838 
30 1 13.3918 4.7045 13.3916 
37 1 17.6821 3.45517 14.6398 
47 1 14.6409 0.412844 14.6399 
51 1 14.6409 3.45517 17.6815 
62 1 9.79462 5.25989 12.8361 
72 1 12.8347 8.30787 12.8362 
76 1 12.8361 5.25988 9.79487 
85 1 16.4836 3.35326 14.7416 
95 1 14.7427 1.61169 14.7417 
99 1 14.7426 3.35323 16.483 
110 1 10.9934 5.36183 12.7343 
120 1 12.7341 7.10728 12.7343 
124 1 12.7342 5.36187 10.9938 
3 1 14.9758 14.976 3.12 
12 1 12.5011 12.5009 5.5967 
19 1 14.0851 14.0842 4.01166 
28 1 13.3912 13.3921 4.70428 
35 1 17.6823 14.6408 3.45591 
45 1 14.6408 17.6819 3.45589 
55 1 14.6408 14.6408 0.413521 
60 1 9.79459 12.8361 5.25985 
70 1 12.8357 9.79467 5.25983 
80 1 12.835 12.8358 8.30846 
83 1 16.4838 14.7427 3.35374 
93 1 14.7427 16.4835 3.35376 
103 1 14.7426 14.7426 1.61236 
108 1 10.9934 12.7343 5.3618 
118 1 12.7338 10.9934 5.36186 
128 1 12.734 12.7338 7.10704 
2 1 14.9721 14.974 14.9734 
9 1 12.5924 12.4711 12.4608 
18 1 14.0804 14.0843 14.0782 
25 1 13.4068 13.3827 13.3697 
34 1 17.6815 14.641 14.64 
42 1 14.641 17.6815 14.6399 
50 1 14.6408 14.6408 17.6812 
57 1 9.72919 12.8069 12.7996 
65 1 12.8281 9.79557 12.8378 
73 1 12.8277 12.8374 9.79211 
82 1 16.4828 14.7425 14.7417 
90 1 14.7425 16.4825 14.7418 
98 1 14.7422 14.7424 16.4821 
105 1 10.9417 12.7928 12.9032 
113 1 12.749 10.9981 12.7231 
121 1 12.7461 12.7266 10.9962 
129 2 10.9897 12.7373 14.007 
130 2 12.1226 12.5757 15.1213 
131 3 11.5579 12.4661 15.8791 
ITEM: TIMESTEP
20
ITEM: NUMBER OF ATOMS
131
ITEM: BOX BOUNDS pp pp pp
0.0000000000000000e+00 1.8762000000000000e+01
0.0000000000000000e+00 1.8762000000000000e+01
0.0000000000000000e+00 1.8760999999999999e+01
ITEM: ATOMS id type x y z 
1 1 3.11987 3.11932 3.12033 
10 1 5.59503 5.59526 5.59507 
17 1 4.01009 4.0115 4.01185 
26 1 4.70459 4.70314 4.70356 
33 1 0.413306 3.45461 3.4546 
41 1 3.45428 0.413173 3.45464 
49 1 3.45458 3.45457 0.414137 
58 1 8.30161 5.26034 5.26031 
66 1 5.26061 8.30116 5.2602 
74 1 5.26029 5.26032 8.30109 
81 1 1.61216 3.35287 3.35319 
89 1 3.35262 1.61185 3.35316 
97 1 3.35298 3.35285 1.61276 
106 1 7.1029 5.36195 5.36193 
114 1 5.3623 7.1024 5.36195 
122 1 5.362 5.36203 7.10231 
4 1 3.11979 3.11964 14.976 
11 1 5.59507 5.59455 12.5007 
20 1 4.01037 4.0112 14.0847 
27 1 4.70348 4.70304 13.3922 
36 1 0.413243 3.45459 14.6408 
46 1 3.45461 0.41373 14.6407 
56 1 3.45458 3.45462 17.6821 
59 1 8.30232 5.2603 12.8357 
69 1 5.25926 8.29861 12.836 
79 1 5.26025 5.26025 9.79391 
84 1 1.61195 3.35293 14.7426 
94 1 3.35295 1.6124 14.7426 
104 1 3.35302 3.35297 16.4835 
107 1 7.10359 5.36178 12.7341 
117 1 5.36215 7.09931 12.7338 
127 1 5.36188 5.36184 10.9927 
6 1 3.11962 14.9761 3.12011 
13 1 5.59514 12.501 5.59475 
22 1 4.01109 14.0847 4.01083 
29 1 4.70313 13.3927 4.70353 
38 1 0.413178 14.6413 3.45531 
48 1 3.45465 17.6822 3.45463 
52 1 3.45465 14.6413 0.413851 
61 1 8.30224 12.8357 5.26024 
71 1 5.26024 9.79405 5.26021 
75 1 5.2591 12.8361 8.29861 
86 1 1.61206 14.743 3.35346 
96 1 3.35311 16.4835 3.35311 
100 1 3.35305 14.7429 1.61265 
109 1 7.1035 12.7342 5.36189 
119 1 5.36178 10.9928 5.36191 
123 1 5.36211 12.7339 7.09895 
7 1 3.11724 14.9774 14.976 
16 1 5.60769 12.5087 12.5089 
23 1 4.00772 14.0872 14.0878 
32 1 4.7063 13.3968 13.3987 
39 1 0.411461 14.6414 14.6405 
43 1 3.45483 17.6829 14.6403 
53 1 3.45445 14.6413 17.682 
64 1 8.31387 12.8255 12.8075 
68 1 5.25841 9.78768 12.8363 
78 1 5.25815 12.8364 9.78731 
87 1 1.61 14.7429 14.7417 
91 1 3.3529 16.4843 14.7418 
101 1 3.35248 14.743 16.4833 
112 1 7.08901 12.7321 12.7245 
116 1 5.36525 10.9885 12.7379 
126 1 5.36478 12.7383 10.9886 
8 1 14.9758 3.11973 3.11981 
15 1 12.501 5.59518 5.59551 
24 1 14.0854 4.01156 4.01169 
31 1 13.3909 4.70337 4.7032 
40 1 17.6823 3.45465 3.45455 
44 1 14.6414 0.413206 3.45526 
54 1 14.6414 3.45463 0.41346 
63 1 9.79471 5.26036 5.26038 
67 1 12.8356 8.30169 5.26035 
77 1 12.8356 5.2604 8.30206 
88 1 16.4834 3.35297 3.35303 
92 1 14.7429 1.612 3.35343 
102 1 14.7429 3.35297 1.61229 
111 1 10.9935 5.36205 5.36207 
115 1 12.7341 7.10279 5.362 
125 1 12.734 5.36198 7.10326 
5 1 14.9755 3.1189 14.9747 
14 1 12.5014 5.59842 12.5013 
21 1 14.0847 4.01164 14.0839 
30 1 13.3917 4.70489 13.3917 
37 1 17.6821 3.45458 14.6405 
47 1 14.6417 0.412272 14.6406 
51 1 14.6415 3.45458 17.6813 
62 1 9.79526 5.2604 12.8354 
72 1 12.8314 8.3085 12.8366 
76 1 12.8354 5.26043 9.79511 
85 1 16.4833 3.35273 14.742 
95 1 14.743 1.61092 14.742 
99 1 14.743 3.35268 16.4825 
110 1 10.9941 5.36284 12.734 
120 1 12.7332 7.10787 12.7338 
124 1 12.734 5.36284 10.9939 
3 1 14.9756 14.9756 3.11961 
12 1 12.5015 12.5014 5.59835 
19 1 14.085 14.0843 4.01206 
28 1 13.392 13.3926 4.70511 
35 1 17.6822 14.6414 3.45528 
45 1 14.6415 17.6821 3.45526 
55 1 14.6415 14.6415 0.412888 
60 1 9.795 12.8355 5.26029 
70 1 12.8351 9.79452 5.26032 
80 1 12.8319 12.8362 8.30761 
83 1 16.4833 14.743 3.3533 
93 1 14.743 16.4832 3.35335 
103 1 14.7429 14.7429 1.61151 
108 1 10.9939 12.734 5.36267 
118 1 12.7337 10.9935 5.36265 
128 1 12.7331 12.7331 7.106 
2 1 14.9692 14.9733 14.9726 
9 1 12.5921 12.4713 12.4574 
18 1 14.0847 14.0836 14.0724 
25 1 13.4191 13.3774 13.3605 
34 1 17.6799 14.6419 14.641 
42 1 14.642 17.6809 14.6408 
50 1 14.6416 14.6415 17.6804 
57 1 9.72427 12.8117 12.7981 
65 1 12.8279 9.79582 12.8361 
73 1 12.8264 12.837 9.791 
82 1 16.481 14.7428 14.742 
90 1 14.7421 16.482 14.742 
98 1 14.7415 14.7423 16.4815 
105 1 10.9361 12.8042 12.9201 
113 1 12.7547 10.9986 12.7168 
121 1 12.7495 12.7231 10.9956 
129 2 10.9924 12.7393 14.0239 
130 2 12.1288 12.5726 15.1318 
131 3 11.5526 12.4657 15.8837 
ITEM: TIMESTEP
30
ITEM: NUMBER OF ATOMS
131
ITEM: BOX BOUNDS pp pp pp
0.0000000000000000e+00 1.8762000000000000e+01
0.0000000000000000e+00 1.8762000000000000e+01
0.0000000000000000e+00 1.8760999999999999e+01
ITEM: ATOMS id type x y z 
1 1 3.11908 3.11966 3.12019 
10 1 5.59571 5.59451 5.59467 
17 1 4.01164 4.00911 4.0122 
26 1 4.70279 4.70507 4.7027 
33 1 0.41268 3.45307 3.4532 
41 1 3.45303 0.413563 3.45327 
49 1 3.4533 3.45313 0.414351 
58 1 8.30238 5.26178 5.26173 
66 1 5.26171 8.30022 5.26156 
74 1 5.26146 5.26168 8.30032 
81 1 1.61144 3.35209 3.35231 
89 1 3.35171 1.61231 3.35229 
97 1 3.35196 3.35208 1.61313 
106 1 7.10356 5.36256 5.36266 
114 1 5.36314 7.10158 5.36265 
122 1 5.36291 5.36258 7.10163 
4 1 3.11811 3.11985 14.9764 
11 1 5.59634 5.59167 12.5006 
20 1 4.01217 4.00619 14.0832 
27 1 4.70103 4.7065 13.395 
36 1 0.411714 3.4531 14.6422 
46 1 3.45373 0.414976 14.6418 
56 1 3.45344 3.45325 17.6827 
59 1 8.30443 5.2615 12.8344 
69 1 5.25872 8.29463 12.8356 
79 1 5.26119 5.26151 9.79292 
84 1 1.61049 3.35243 14.7435 
94 1 3.35172 1.61355 14.7437 
104 1 3.35197 3.35251 16.4839 
107 1 7.10558 5.36129 12.7333 
117 1 5.36229 7.09535 12.7328 
127 1 5.36269 5.36127 10.9919 
6 1 3.11826 14.9766 3.11993 
13 1 5.59559 12.5007 5.59195 
22 1 4.00992 14.0857 4.01053 
29 1 4.70424 13.3934 4.70139 
38 1 0.411902 14.6428 3.45388 
48 1 3.45333 17.6828 3.45337 
52 1 3.45366 14.6423 0.414745 
61 1 8.30335 12.8346 5.26132 
71 1 5.26133 9.79293 5.26139 
75 1 5.25854 12.836 8.29531 
86 1 1.61068 14.7437 3.35271 
96 1 3.35206 16.4841 3.35236 
100 1 3.35192 14.7437 1.61347 
109 1 7.10466 12.7334 5.36164 
119 1 5.36246 10.9918 5.36157 
123 1 5.36177 12.7332 7.09591 
7 1 3.11334 14.9791 14.9795 
16 1 5.6007 12.5117 12.5136 
23 1 4.00824 14.0919 14.0918 
32 1 4.70448 13.4017 13.4001 
39 1 0.405989 14.6429 14.6417 
43 1 3.45409 17.6843 14.641 
53 1 3.45381 14.6422 17.6835 
64 1 8.31402 12.8058 12.766 
68 1 5.26109 9.78241 12.8368 
78 1 5.2606 12.837 9.78288 
87 1 1.60455 14.744 14.7431 
91 1 3.35074 16.4857 14.7433 
101 1 3.35031 14.7443 16.4848 
112 1 7.08836 12.7221 12.7022 
116 1 5.36549 10.9857 12.7413 
126 1 5.36462 12.7407 10.9862 
8 1 14.976 3.11948 3.11969 
15 1 12.5009 5.59527 5.59566 
24 1 14.0839 4.01162 4.00976 
31 1 13.3929 4.70289 4.70532 
40 1 17.682 3.45307 3.453 
44 1 14.6431 0.41288 3.45353 
54 1 14.6431 3.45293 0.413031 
63 1 9.79503 5.2619 5.26193 
67 1 12.8338 8.30139 5.26173 
77 1 12.8338 5.26187 8.30248 
88 1 16.4831 3.35193 3.35199 
92 1 14.7439 1.6116 3.35248 
102 1 14.7439 3.3519 1.6118 
111 1 10.9938 5.36307 5.36312 
115 1 12.733 7.10265 5.36299 
125 1 12.733 5.36303 7.10367 
5 1 14.9755 3.11882 14.9745 
14 1 12.5031 5.60224 12.5019 
21 1 14.082 4.00799 14.0819 
30 1 13.3944 4.71042 13.3941 
37 1 17.6812 3.45278 14.6422 
47 1 14.6441 0.411157 14.6428 
51 1 14.6432 3.45269 17.681 
62 1 9.79714 5.26213 12.8339 
72 1 12.8244 8.31215 12.8364 
76 1 12.8336 5.26224 9.79542 
85 1 16.4822 3.35158 14.743 
95 1 14.7441 1.61011 14.7431 
99 1 14.7439 3.35161 16.4821 
110 1 10.9959 5.36517 12.733 
120 1 12.7282 7.11085 12.7344 
124 1 12.7335 5.36528 10.9942 
3 1 14.9757 14.9755 3.11846 
12 1 12.5035 12.5014 5.59996 
19 1 14.0846 14.0869 4.01286 
28 1 13.3941 13.3929 4.70624 
35 1 17.6812 14.6431 3.45362 
45 1 14.6432 17.6818 3.4535 
55 1 14.6437 14.6435 0.410897 
60 1 9.79619 12.8342 5.26167 
70 1 12.8337 9.79408 5.26181 
80 1 12.8252 12.8366 8.30723 
83 1 16.4824 14.7437 3.35187 
93 1 14.7439 16.483 3.35187 
103 1 14.7439 14.7436 1.60983 
108 1 10.9949 12.7335 5.36459 
118 1 12.7336 10.9929 5.36471 
128 1 12.729 12.7335 7.10497 
2 1 14.9635 14.9708 14.9687 
9 1 12.5892 12.4712 12.4538 
18 1 14.1029 14.0765 14.0513 
25 1 13.4405 13.3674 13.3382 
34 1 17.6744 14.644 14.6433 
42 1 14.6441 17.6799 14.6431 
50 1 14.6431 14.6431 17.6785 
57 1 9.72847 12.8191 12.7943 
65 1 12.8314 9.79807 12.8273 
73 1 12.8258 12.8335 9.78872 
82 1 16.4753 14.7439 14.7431 
90 1 14.7404 16.4803 14.7421 
98 1 14.7387 14.7414 16.479 
105 1 10.9309 12.8326 12.9634 
113 1 12.7603 11.0012 12.7042 
121 1 12.7502 12.7178 10.9937 
129 2 11.001 12.746 14.0709 
130 2 12.1476 12.5627 15.1663 
131 3 11.5374 12.465 15.8936 
ITEM: TIMESTEP
40
ITEM: NUMBER OF ATOMS
131
ITEM: BOX BOUNDS pp pp pp
0.0000000000000000e+00 1.8762000000000000e+01
0.0000000000000000e+00 1.8762000000000000e+01
0.0000000000000000e+00 1.8760999999999999e+01
ITEM: ATOMS id type x y z 
1 1 3.11871 3.12017 3.12013 
10 1 5.59594 5.59377 5.59473 
17 1 4.01123 4.00971 4.01227 
26 1 4.70359 4.70441 4.70235 
33 1 0.412001 3.45247 3.45242 
41 1 3.45252 0.413512 3.45267 
49 1 3.45266 3.45262 0.414061 
58 1 8.30283 5.26237 5.26249 
66 1 5.26225 8.30073 5.26228 
74 1 5.26209 5.26227 8.30084 
81 1 1.61115 3.35155 3.35214 
89 1 3.35131 1.61256 3.35208 
97 1 3.35163 3.35154 1.61309 
106 1 7.10366 5.36294 5.36274 
114 1 5.36337 7.10154 5.36272 
122 1 5.36311 5.36295 7.10174 
4 1 3.11692 3.12152 14.9767 
11 1 5.59579 5.59097 12.4995 
20 1 4.01065 4.00919 14.0846 
27 1 4.70539 4.70174 13.3939 
36 1 0.411129 3.45259 14.6432 
46 1 3.45324 0.414371 14.6422 
56 1 3.45259 3.45284 17.6826 
59 1 8.3049 5.2617 12.8333 
69 1 5.26008 8.2965 12.8351 
79 1 5.26213 5.26169 9.79326 
84 1 1.61009 3.35159 14.7438 
94 1 3.35148 1.61303 14.7438 
104 1 3.35135 3.35161 16.4837 
107 1 7.10577 5.36146 12.7329 
117 1 5.36194 7.09627 12.733 
127 1 5.36319 5.36148 10.9922 
6 1 3.11797 14.9759 3.11937 
13 1 5.59594 12.5012 5.59247 
22 1 4.01135 14.0886 4.01241 
29 1 4.70283 13.3889 4.69853 
38 1 0.411352 14.6434 3.45309 
48 1 3.45276 17.6829 3.45271 
52 1 3.45326 14.6427 0.414939 
61 1 8.30386 12.8338 5.26173 
71 1 5.26198 9.79326 5.26183 
75 1 5.25942 12.8357 8.2961 
86 1 1.61026 14.7446 3.35263 
96 1 3.35115 16.4839 3.35223 
100 1 3.35135 14.7444 1.61358 
109 1 7.10445 12.733 5.36128 
119 1 5.36324 10.9922 5.3613 
123 1 5.36194 12.7333 7.09529 
7 1 3.11272 14.9807 14.9789 
16 1 5.60103 12.5093 12.5126 
23 1 4.0051 14.0904 14.0912 
32 1 4.70894 13.4028 13.4013 
39 1 0.404356 14.6443 14.6435 
43 1 3.45291 17.6836 14.6422 
53 1 3.4526 14.643 17.6832 
64 1 8.31759 12.7991 12.7482 
68 1 5.26292 9.78335 12.8371 
78 1 5.26161 12.8368 9.7819 
87 1 1.60279 14.7455 14.7445 
91 1 3.34878 16.4856 14.7446 
101 1 3.34873 14.7455 16.4851 
112 1 7.09393 12.7121 12.6812 
116 1 5.36525 10.9854 12.7416 
126 1 5.36334 12.741 10.9857 
8 1 14.9765 3.11985 3.11979 
15 1 12.5007 5.59431 5.59568 
24 1 14.0816 4.00863 4.01068 
31 1 13.3954 4.70589 4.70429 
40 1 17.6817 3.45223 3.45231 
44 1 14.644 0.412787 3.45283 
54 1 14.6441 3.45201 0.412409 
63 1 9.79504 5.26276 5.26261 
67 1 12.8329 8.3011 5.2623 
77 1 12.8327 5.26265 8.3033 
88 1 16.4828 3.35147 3.35134 
92 1 14.7442 1.61188 3.35162 
102 1 14.7442 3.35133 1.61141 
111 1 10.9942 5.36324 5.36379 
115 1 12.7327 7.10198 5.3636 
125 1 12.7327 5.36315 7.10428 
5 1 14.9741 3.11815 14.9744 
14 1 12.5034 5.60351 12.5021 
21 1 14.0852 4.01316 14.0831 
30 1 13.3921 4.70772 13.3933 
37 1 17.6802 3.45218 14.6431 
47 1 14.6456 0.409942 14.6442 
51 1 14.6443 3.45203 17.6805 
62 1 9.79764 5.26313 12.8329 
72 1 12.8233 8.3138 12.8341 
76 1 12.8328 5.26353 9.79609 
85 1 16.4815 3.35038 14.743 
95 1 14.7445 1.60911 14.7435 
99 1 14.7438 3.35024 16.4817 
110 1 10.9964 5.36696 12.7332 
120 1 12.726 7.11345 12.7352 
124 1 12.7336 5.36764 10.995 
3 1 14.9761 14.9763 3.11881 
12 1 12.5025 12.5028 5.59953 
19 1 14.083 14.0854 4.00954 
28 1 13.3962 13.3931 4.70704 
35 1 17.6807 14.6435 3.45269 
45 1 14.6441 17.682 3.45249 
55 1 14.645 14.6444 0.409248 
60 1 9.79628 12.8337 5.26272 
70 1 12.8332 9.79401 5.26301 
80 1 12.8234 12.8362 8.30705 
83 1 16.4817 14.7445 3.35115 
93 1 14.7442 16.4832 3.35101 
103 1 14.7445 14.7445 1.60817 
108 1 10.9953 12.7332 5.3649 
118 1 12.7339 10.9928 5.36533 
128 1 12.7272 12.7343 7.10559 
2 1 14.9647 14.968 14.9638 
9 1 12.578 12.4752 12.4548 
18 1 14.1105 14.0699 14.043 
25 1 13.4466 13.3677 13.3263 
34 1 17.6735 14.6452 14.6447 
42 1 14.6439 17.6787 14.6444 
50 1 14.6423 14.6434 17.6763 
57 1 9.73473 12.821 12.797 
65 1 12.8324 9.80151 12.8211 
73 1 12.8237 12.8311 9.78993 
82 1 16.4745 14.7444 14.7429 
90 1 14.7393 16.4788 14.7405 
98 1 14.7367 14.7397 16.4765 
105 1 10.931 12.8407 12.9848 
113 1 12.7567 11.0038 12.701 
121 1 12.7437 12.7164 10.9942 
129 2 11.0049 12.7534 14.0938 
130 2 12.164 12.5549 15.1929 
131 3 11.5253 12.4653 15.8972 
ITEM: TIMESTEP
43
ITEM: NUMBER OF ATOMS
131
ITEM: BOX BOUNDS pp pp pp
0.0000000000000000e+00 1.8762000000000000e+01
0.0000000000000000e+00 1.8762000000000000e+01
0.0000000000000000e+00 1.8760999999999999e+01
ITEM: ATOMS id type x y z 
1 1 3.1186 3.1199 3.1204 
10 1 5.59611 5.59409 5.59441 
17 1 4.01142 4.01003 4.01118 
26 1 4.70339 4.70409 4.70348 
33 1 0.411978 3.45236 3.4524 
41 1 3.45243 0.413724 3.45258 
49 1 3.45259 3.45252 0.414159 
58 1 8.30263 5.26251 5.26253 
66 1 5.26232 8.30058 5.26234 
74 1 5.26214 5.26235 8.30093 
81 1 1.6113 3.35155 3.35203 
89 1 3.35127 1.61235 3.35204 
97 1 3.35156 3.35158 1.61293 
106 1 7.10375 5.36291 5.36283 
114 1 5.36343 7.10153 5.3628 
122 1 5.36319 5.36295 7.10165 
4 1 3.1169 3.12107 14.9763 
11 1 5.5961 5.59138 12.5001 
20 1 4.0114 4.0098 14.0858 
27 1 4.70482 4.70088 13.3927 
36 1 0.410768 3.45245 14.6432 
46 1 3.45324 0.414232 14.6423 
56 1 3.45256 3.45265 17.6825 
59 1 8.30487 5.26181 12.8332 
69 1 5.26006 8.29693 12.8352 
79 1 5.26222 5.26179 9.79342 
84 1 1.61013 3.35169 14.744 
94 1 3.3513 1.61357 14.7439 
104 1 3.35116 3.35174 16.4838 
107 1 7.10573 5.36141 12.7327 
117 1 5.36216 7.09445 12.7327 
127 1 5.36324 5.36139 10.992 
6 1 3.11781 14.9765 3.11998 
13 1 5.59607 12.5008 5.59182 
22 1 4.01162 14.0879 4.01103 
29 1 4.70241 13.3897 4.69982 
38 1 0.411266 14.6436 3.45307 
48 1 3.45262 17.6828 3.45266 
52 1 3.45323 14.6428 0.414499 
61 1 8.30395 12.8337 5.26174 
71 1 5.26211 9.7935 5.26186 
75 1 5.25945 12.8358 8.29618 
86 1 1.61012 14.7445 3.35251 
96 1 3.3511 16.4841 3.35211 
100 1 3.35129 14.7443 1.61385 
109 1 7.10469 12.733 5.36129 
119 1 5.36326 10.9918 5.36134 
123 1 5.362 12.7333 7.09481 
7 1 3.11221 14.9799 14.9788 
16 1 5.60016 12.5095 12.5114 
23 1 4.00695 14.0904 14.0895 
32 1 4.7078 13.4025 13.4029 
39 1 0.403943 14.6444 14.6437 
43 1 3.45275 17.6838 14.6423 
53 1 3.45245 14.6431 17.6833 
64 1 8.32211 12.7984 12.7463 
68 1 5.26297 9.78423 12.8371 
78 1 5.26163 12.8367 9.78292 
87 1 1.60344 14.7457 14.7447 
91 1 3.34869 16.4856 14.7447 
101 1 3.34861 14.7456 16.485 
112 1 7.09476 12.7114 12.6795 
116 1 5.36529 10.986 12.7417 
126 1 5.36333 12.7409 10.9858 
8 1 14.9758 3.11953 3.11931 
15 1 12.5013 5.59459 5.59617 
24 1 14.0834 4.00893 4.0116 
31 1 13.3936 4.70559 4.70341 
40 1 17.6815 3.45216 3.45219 
44 1 14.6441 0.412647 3.45269 
54 1 14.6442 3.45193 0.412275 
63 1 9.79522 5.26282 5.26273 
67 1 12.8329 8.3012 5.26244 
77 1 12.8326 5.26275 8.30326 
88 1 16.483 3.35147 3.35135 
92 1 14.7444 1.61192 3.3516 
102 1 14.7443 3.35129 1.61149 
111 1 10.9941 5.36324 5.36379 
115 1 12.7326 7.10199 5.36361 
125 1 12.7326 5.36313 7.10441 
5 1 14.9742 3.11794 14.9741 
14 1 12.5032 5.60377 12.5025 
21 1 14.0847 4.01348 14.0839 
30 1 13.3925 4.70772 13.3926 
37 1 17.6801 3.45202 14.6432 
47 1 14.6457 0.409773 14.6444 
51 1 14.6444 3.45184 17.6804 
62 1 9.79783 5.26332 12.8329 
72 1 12.8232 8.31456 12.8339 
76 1 12.8328 5.26379 9.79619 
85 1 16.4816 3.35038 14.7431 
95 1 14.7445 1.60888 14.7436 
99 1 14.7439 3.35025 16.4818 
110 1 10.9963 5.36703 12.7331 
120 1 12.7259 7.11372 12.7352 
124 1 12.7336 5.36776 10.9949 
3 1 14.9754 14.9766 3.11821 
12 1 12.5031 12.5023 5.59964 
19 1 14.0848 14.0846 4.00958 
28 1 13.3945 13.3939 4.70695 
35 1 17.6807 14.6436 3.45256 
45 1 14.6441 17.6818 3.45233 
55 1 14.645 14.6446 0.409176 
60 1 9.79664 12.8336 5.26285 
70 1 12.8332 9.7943 5.26319 
80 1 12.8232 12.8361 8.30712 
83 1 16.4819 14.7445 3.35113 
93 1 14.7443 16.4834 3.351 
103 1 14.7447 14.7446 1.6078 
108 1 10.9947 12.7333 5.36489 
118 1 12.7338 10.9925 5.36537 
128 1 12.727 12.7344 7.10581 
2 1 14.9644 14.9678 14.9636 
9 1 12.5767 12.4754 12.4551 
18 1 14.1123 14.0699 14.0426 
25 1 13.4467 13.368 13.3255 
34 1 17.6732 14.6453 14.6448 
42 1 14.6439 17.6783 14.6445 
50 1 14.6422 14.6434 17.6757 
57 1 9.72964 12.821 12.7967 
65 1 12.8324 9.80053 12.8206 
73 1 12.8234 12.8309 9.78862 
82 1 16.474 14.7445 14.7429 
90 1 14.7392 16.4787 14.7403 
98 1 14.7366 14.7395 16.4763 
105 1 10.9331 12.8417 12.9878 
113 1 12.7562 11.004 12.7007 
121 1 12.7429 12.7165 10.994 
129 2 11.0053 12.7543 14.0964 
130 2 12.1659 12.554 15.1961 
131 3 11.5239 12.4654 15.8974 
ITEM: TIMESTEP
50
ITEM: NUMBER OF ATOMS
131
ITEM: BOX BOUNDS pp pp pp
0.0000000000000000e+00 1.8762000000000000e+01
0.0000000000000000e+00 1.8762000000000000e+01
0.0000000000000000e+00 1.8760999999999999e+01
ITEM: ATOMS id type x y z 
1 1 3.119 3.1197 3.1201 
10 1 5.59585 5.59438 5.59456 
17 1 4.01008 4.01053 4.01179 
26 1 4.70455 4.70352 4.70299 
33 1 0.412299 3.45204 3.45221 
41 1 3.45219 0.41362 3.45238 
49 1 3.45239 3.45223 0.414214 
58 1 8.30257 5.2628 5.26271 
66 1 5.26254 8.30036 5.26252 
74 1 5.26237 5.26257 8.30055 
81 1 1.61116 3.3515 3.35185 
89 1 3.35115 1.61225 3.3519 
97 1 3.35133 3.35155 1.61286 
106 1 7.10382 5.36296 5.36299 
114 1 5.36357 7.10167 5.36296 
122 1 5.36341 5.363 7.10176 
4 1 3.11818 3.1199 14.9767 
11 1 5.597 5.59085 12.5004 
20 1 4.00985 4.01055 14.0849 
27 1 4.70475 4.70108 13.3933 
36 1 0.410787 3.45208 14.6435 
46 1 3.45298 0.414439 14.6426 
56 1 3.45232 3.45228 17.6824 
59 1 8.30501 5.26209 12.8329 
69 1 5.26043 8.29576 12.8351 
79 1 5.26237 5.262 9.79328 
84 1 1.60975 3.35181 14.7442 
94 1 3.35104 1.61358 14.7439 
104 1 3.35074 3.35183 16.4838 
107 1 7.10602 5.36125 12.7323 
117 1 5.36243 7.09527 12.7327 
127 1 5.36357 5.36121 10.9921 
6 1 3.11784 14.9773 3.12041 
13 1 5.59599 12.5002 5.59102 
22 1 4.01079 14.086 4.00967 
29 1 4.70287 13.3917 4.70112 
38 1 0.411185 14.6439 3.45285 
48 1 3.45226 17.683 3.45246 
52 1 3.45294 14.643 0.414588 
61 1 8.30371 12.8335 5.2619 
71 1 5.26238 9.79297 5.26196 
75 1 5.25977 12.8358 8.29551 
86 1 1.60992 14.7446 3.35231 
96 1 3.35092 16.4844 3.35192 
100 1 3.35121 14.7443 1.61367 
109 1 7.10505 12.7328 5.36117 
119 1 5.36341 10.9917 5.36131 
123 1 5.3621 12.7333 7.09533 
7 1 3.11131 14.9791 14.9781 
16 1 5.60199 12.5099 12.5106 
23 1 4.01013 14.0905 14.0902 
32 1 4.70673 13.4017 13.4024 
39 1 0.403781 14.6451 14.6444 
43 1 3.45225 17.6843 14.6427 
53 1 3.45205 14.6435 17.6833 
64 1 8.32398 12.7957 12.7399 
68 1 5.26307 9.78331 12.8373 
78 1 5.26133 12.8367 9.78195 
87 1 1.60335 14.7462 14.7452 
91 1 3.34817 16.4854 14.7449 
101 1 3.34796 14.7459 16.4844 
112 1 7.09753 12.7088 12.6737 
116 1 5.3657 10.9873 12.7418 
126 1 5.36338 12.7409 10.9865 
8 1 14.9752 3.11894 3.11916 
15 1 12.5017 5.59521 5.59619 
24 1 14.0852 4.01091 4.01137 
31 1 13.3918 4.70354 4.70394 
40 1 17.6814 3.45197 3.45192 
44 1 14.6444 0.412695 3.45231 
54 1 14.6445 3.45167 0.412271 
63 1 9.7955 5.263 5.26305 
67 1 12.8326 8.30121 5.26285 
77 1 12.8323 5.263 8.30343 
88 1 16.4827 3.35125 3.35119 
92 1 14.7445 1.61154 3.35145 
102 1 14.7444 3.35114 1.61119 
111 1 10.9942 5.36341 5.36396 
115 1 12.7324 7.10241 5.36375 
125 1 12.7324 5.36321 7.10461 
5 1 14.9741 3.11742 14.9736 
14 1 12.5032 5.60462 12.5029 
21 1 14.0842 4.01354 14.0843 
30 1 13.393 4.70884 13.3927 
37 1 17.68 3.45157 14.6433 
47 1 14.6459 0.409347 14.6449 
51 1 14.6445 3.45128 17.6804 
62 1 9.79771 5.26384 12.8327 
72 1 12.823 8.31577 12.8329 
76 1 12.8327 5.26459 9.79641 
85 1 16.4811 3.35027 14.7434 
95 1 14.7448 1.60838 14.7437 
99 1 14.7442 3.35016 16.4815 
110 1 10.9964 5.36735 12.7329 
120 1 12.7256 7.11441 12.7348 
124 1 12.7333 5.3682 10.9951 
3 1 14.9753 14.9759 3.11688 
12 1 12.5035 12.5021 5.59975 
19 1 14.085 14.0859 4.01029 
28 1 13.3942 13.3934 4.70606 
35 1 17.6804 14.6439 3.4523 
45 1 14.6444 17.6819 3.45204 
55 1 14.6453 14.6451 0.40828 
60 1 9.7967 12.8334 5.26303 
70 1 12.833 9.79406 5.26358 
80 1 12.8225 12.8359 8.30737 
83 1 16.4816 14.7446 3.35071 
93 1 14.7444 16.4832 3.35061 
103 1 14.745 14.745 1.60683 
108 1 10.995 12.7333 5.36506 
118 1 12.7337 10.9927 5.36568 
128 1 12.7266 12.7344 7.1053 
2 1 14.9649 14.9666 14.9621 
9 1 12.5737 12.476 12.4555 
18 1 14.113 14.0688 14.0408 
25 1 13.4479 13.3681 13.3221 
34 1 17.6736 14.6457 14.6452 
42 1 14.6439 17.6779 14.6447 
50 1 14.6419 14.6435 17.6749 
57 1 9.73035 12.8211 12.7975 
65 1 12.8319 9.80171 12.8188 
73 1 12.8218 12.8302 9.78925 
82 1 16.4736 14.7444 14.7426 
90 1 14.7391 16.4781 14.7396 
98 1 14.7362 14.7388 16.4754 
105 1 10.9332 12.8441 12.9955 
113 1 12.7544 11.0046 12.6994 
121 1 12.7397 12.7165 10.9937 
129 2 11.0065 12.7576 14.1048 
130 2 12.1725 12.5507 15.2069 
131 3 11.5191 12.4657 15.898 
ITEM: TIMESTEP
60
ITEM: NUMBER OF ATOMS
131
ITEM: BOX BOUNDS pp pp pp
0.0000000000000000e+00 1.8762000000000000e+01
0.0000000000000000e+00 1.8762000000000000e+01
0.0000000000000000e+00 1.8760999999999999e+01
ITEM: ATOMS id type x y z 
1 1 3.1184 3.12032 3.12003 
10 1 5.59658 5.59372 5.59441 
17 1 4.01207 4.00861 4.01158 
26 1 4.70235 4.70538 4.70341 
33 1 0.412197 3.45175 3.4519 
41 1 3.45192 0.413795 3.45216 
49 1 3.4521 3.45196 0.414206 
58 1 8.30279 5.26305 5.263 
66 1 5.26279 8.29999 5.26272 
74 1 5.26264 5.26281 8.30052 
81 1 1.61083 3.35136 3.35171 
89 1 3.35102 1.61225 3.35176 
97 1 3.35117 3.35142 1.61277 
106 1 7.10407 5.3631 5.36308 
114 1 5.36371 7.10175 5.36306 
122 1 5.36359 5.3631 7.10196 
4 1 3.11792 3.11982 14.9764 
11 1 5.59694 5.59111 12.5006 
20 1 4.00981 4.01111 14.0854 
27 1 4.70457 4.70023 13.3922 
36 1 0.41071 3.45174 14.6439 
46 1 3.45257 0.414477 14.6429 
56 1 3.45191 3.45204 17.6824 
59 1 8.30506 5.2623 12.8324 
69 1 5.26076 8.29623 12.835 
79 1 5.26266 5.26215 9.79334 
84 1 1.60939 3.35165 14.7445 
94 1 3.35094 1.61335 14.7441 
104 1 3.35057 3.35167 16.4839 
107 1 7.10645 5.36117 12.7322 
117 1 5.36298 7.09522 12.7327 
127 1 5.36399 5.36117 10.9923 
6 1 3.11819 14.9774 3.11992 
13 1 5.59592 12.5002 5.59084 
22 1 4.00873 14.0848 4.01007 
29 1 4.70415 13.393 4.70096 
38 1 0.410961 14.6442 3.45254 
48 1 3.45192 17.6829 3.45221 
52 1 3.45256 14.6433 0.414417 
61 1 8.30346 12.8332 5.26209 
71 1 5.26266 9.79282 5.26208 
75 1 5.25987 12.8359 8.29605 