 # C1
  
         320  atoms
           1  atom types
 
      0.000000000000      18.924300000000  xlo xhi
      0.000000000000      18.924300000000  ylo yhi
      0.000000000000      18.924300000000  zlo zhi
 
Masses
 
            1   12.01100000             # C
 
Atoms # charge
 
         1    1   0.000000       17.536959567000       6.118415433000       4.454401734000
         2    1   0.000000       16.185953790000       5.718355731000       4.669003296000
         3    1   0.000000        9.878484600000       9.878484600000       0.416334600000
         4    1   0.000000        6.118415433000      17.536959567000       4.454401734000
         5    1   0.000000        7.469421210000      17.937019269000       4.669003296000
         6    1   0.000000       13.776890400000      13.776890400000       0.416334600000
         7    1   0.000000       17.536959567000      17.536959567000       0.276673266000
         8    1   0.000000       16.185953790000      17.937019269000       0.062071704000
         9    1   0.000000        9.878484600000      13.776890400000       4.314740400000
        10    1   0.000000        6.118415433000       6.118415433000       0.276673266000
        11    1   0.000000        7.469421210000       5.718355731000       0.062071704000
        12    1   0.000000       13.776890400000       9.878484600000       4.314740400000
        13    1   0.000000        4.454401734000      17.536959567000       6.118415433000
        14    1   0.000000        4.669003296000      16.185953790000       5.718355731000
        15    1   0.000000        0.416334600000       9.878484600000       9.878484600000
        16    1   0.000000        4.454401734000       6.118415433000      17.536959567000
        17    1   0.000000        4.669003296000       7.469421210000      17.937019269000
        18    1   0.000000        0.416334600000      13.776890400000      13.776890400000
        19    1   0.000000        0.276673266000      17.536959567000      17.536959567000
        20    1   0.000000        0.062071704000      16.185953790000      17.937019269000
        21    1   0.000000        4.314740400000       9.878484600000      13.776890400000
        22    1   0.000000        0.276673266000       6.118415433000       6.118415433000
        23    1   0.000000        0.062071704000       7.469421210000       5.718355731000
        24    1   0.000000        4.314740400000      13.776890400000       9.878484600000
        25    1   0.000000        6.118415433000       4.454401734000      17.536959567000
        26    1   0.000000        5.718355731000       4.669003296000      16.185953790000
        27    1   0.000000        9.878484600000       0.416334600000       9.878484600000
        28    1   0.000000       17.536959567000       4.454401734000       6.118415433000
        29    1   0.000000       17.937019269000       4.669003296000       7.469421210000
        30    1   0.000000       13.776890400000       0.416334600000      13.776890400000
        31    1   0.000000       17.536959567000       0.276673266000      17.536959567000
        32    1   0.000000       17.937019269000       0.062071704000      16.185953790000
        33    1   0.000000       13.776890400000       4.314740400000       9.878484600000
        34    1   0.000000        6.118415433000       0.276673266000       6.118415433000
        35    1   0.000000        5.718355731000       0.062071704000       7.469421210000
        36    1   0.000000        9.878484600000       4.314740400000      13.776890400000
        37    1   0.000000       12.805884567000       1.387340433000      14.469898266000
        38    1   0.000000       13.205944269000       2.738346210000      14.255296704000
        39    1   0.000000        9.045815400000       9.045815400000      18.507965400000
        40    1   0.000000        1.387340433000      12.805884567000      14.469898266000
        41    1   0.000000        0.987280731000      11.454878790000      14.255296704000
        42    1   0.000000        5.147409600000       5.147409600000      18.507965400000
        43    1   0.000000        1.387340433000       1.387340433000      18.647626734000
        44    1   0.000000        0.987280731000       2.738346210000      18.862228296000
        45    1   0.000000        5.147409600000       9.045815400000      14.609559600000
        46    1   0.000000       12.805884567000      12.805884567000      18.647626734000
        47    1   0.000000       13.205944269000      11.454878790000      18.862228296000
        48    1   0.000000        9.045815400000       5.147409600000      14.609559600000
        49    1   0.000000        1.387340433000      14.469898266000      12.805884567000
        50    1   0.000000        2.738346210000      14.255296704000      13.205944269000
        51    1   0.000000        9.045815400000      18.507965400000       9.045815400000
        52    1   0.000000       12.805884567000      14.469898266000       1.387340433000
        53    1   0.000000       11.454878790000      14.255296704000       0.987280731000
        54    1   0.000000        5.147409600000      18.507965400000       5.147409600000
        55    1   0.000000        1.387340433000      18.647626734000       1.387340433000
        56    1   0.000000        2.738346210000      18.862228296000       0.987280731000
        57    1   0.000000        9.045815400000      14.609559600000       5.147409600000
        58    1   0.000000       12.805884567000      18.647626734000      12.805884567000
        59    1   0.000000       11.454878790000      18.862228296000      13.205944269000
        60    1   0.000000        5.147409600000      14.609559600000       9.045815400000
        61    1   0.000000       14.469898266000      12.805884567000       1.387340433000
        62    1   0.000000       14.255296704000      13.205944269000       2.738346210000
        63    1   0.000000       18.507965400000       9.045815400000       9.045815400000
        64    1   0.000000       14.469898266000       1.387340433000      12.805884567000
        65    1   0.000000       14.255296704000       0.987280731000      11.454878790000
        66    1   0.000000       18.507965400000       5.147409600000       5.147409600000
        67    1   0.000000       18.647626734000       1.387340433000       1.387340433000
        68    1   0.000000       18.862228296000       0.987280731000       2.738346210000
        69    1   0.000000       14.609559600000       5.147409600000       9.045815400000
        70    1   0.000000       18.647626734000      12.805884567000      12.805884567000
        71    1   0.000000       18.862228296000      13.205944269000      11.454878790000
        72    1   0.000000       14.609559600000       9.045815400000       5.147409600000
        73    1   0.000000       10.849490433000       3.343734567000      14.469898266000
        74    1   0.000000       10.449430731000       1.992728790000      14.255296704000
        75    1   0.000000       14.609559600000      14.609559600000      18.507965400000
        76    1   0.000000        3.343734567000      10.849490433000      14.469898266000
        77    1   0.000000        3.743794269000      12.200496210000      14.255296704000
        78    1   0.000000       18.507965400000      18.507965400000      18.507965400000
        79    1   0.000000        3.343734567000       3.343734567000      18.647626734000
        80    1   0.000000        3.743794269000       1.992728790000      18.862228296000
        81    1   0.000000       18.507965400000      14.609559600000      14.609559600000
        82    1   0.000000       10.849490433000      10.849490433000      18.647626734000
        83    1   0.000000       10.449430731000      12.200496210000      18.862228296000
        84    1   0.000000       14.609559600000      18.507965400000      14.609559600000
        85    1   0.000000        3.343734567000       9.185476734000      12.805884567000
        86    1   0.000000        1.992728790000       9.400078296000      13.205944269000
        87    1   0.000000       10.849490433000       9.185476734000       1.387340433000
        88    1   0.000000       12.200496210000       9.400078296000       0.987280731000
        89    1   0.000000        3.343734567000       5.007748266000       1.387340433000
        90    1   0.000000        1.992728790000       4.793146704000       0.987280731000
        91    1   0.000000       10.849490433000       5.007748266000      12.805884567000
        92    1   0.000000       12.200496210000       4.793146704000      13.205944269000
        93    1   0.000000        9.185476734000      10.849490433000       1.387340433000
        94    1   0.000000        9.400078296000      10.449430731000       2.738346210000
        95    1   0.000000        9.185476734000       3.343734567000      12.805884567000
        96    1   0.000000        9.400078296000       3.743794269000      11.454878790000
        97    1   0.000000        5.007748266000       3.343734567000       1.387340433000
        98    1   0.000000        4.793146704000       3.743794269000       2.738346210000
        99    1   0.000000        5.007748266000      10.849490433000      12.805884567000
       100    1   0.000000        4.793146704000      10.449430731000      11.454878790000
       101    1   0.000000       10.849490433000       1.387340433000       9.185476734000
       102    1   0.000000       10.449430731000       2.738346210000       9.400078296000
       103    1   0.000000        3.343734567000      12.805884567000       9.185476734000
       104    1   0.000000        3.743794269000      11.454878790000       9.400078296000
       105    1   0.000000        3.343734567000       1.387340433000       5.007748266000
       106    1   0.000000        3.743794269000       2.738346210000       4.793146704000
       107    1   0.000000       10.849490433000      12.805884567000       5.007748266000
       108    1   0.000000       10.449430731000      11.454878790000       4.793146704000
       109    1   0.000000        3.343734567000      14.469898266000      10.849490433000
       110    1   0.000000        1.992728790000      14.255296704000      10.449430731000
       111    1   0.000000       10.849490433000      14.469898266000       3.343734567000
       112    1   0.000000       12.200496210000      14.255296704000       3.743794269000
       113    1   0.000000        3.343734567000      18.647626734000       3.343734567000
       114    1   0.000000        1.992728790000      18.862228296000       3.743794269000
       115    1   0.000000       10.849490433000      18.647626734000      10.849490433000
       116    1   0.000000       12.200496210000      18.862228296000      10.449430731000
       117    1   0.000000        9.185476734000      12.805884567000       3.343734567000
       118    1   0.000000        9.400078296000      13.205944269000       1.992728790000
       119    1   0.000000        9.185476734000       1.387340433000      10.849490433000
       120    1   0.000000        9.400078296000       0.987280731000      12.200496210000
       121    1   0.000000        5.007748266000       1.387340433000       3.343734567000
       122    1   0.000000        4.793146704000       0.987280731000       1.992728790000
       123    1   0.000000        5.007748266000      12.805884567000      10.849490433000
       124    1   0.000000        4.793146704000      13.205944269000      12.200496210000
       125    1   0.000000        8.074809567000       8.074809567000       0.276673266000
       126    1   0.000000        6.723803790000       8.474869269000       0.062071704000
       127    1   0.000000        0.416334600000       4.314740400000       4.314740400000
       128    1   0.000000       15.580565433000      15.580565433000       0.276673266000
       129    1   0.000000       16.931571210000      15.180505731000       0.062071704000
       130    1   0.000000        4.314740400000       0.416334600000       4.314740400000
       131    1   0.000000        8.074809567000      15.580565433000       4.454401734000
       132    1   0.000000        6.723803790000      15.180505731000       4.669003296000
       133    1   0.000000        0.416334600000       0.416334600000       0.416334600000
       134    1   0.000000       15.580565433000       8.074809567000       4.454401734000
       135    1   0.000000       16.931571210000       8.474869269000       4.669003296000
       136    1   0.000000        4.314740400000       4.314740400000       0.416334600000
       137    1   0.000000       13.916551734000      15.580565433000      17.536959567000
       138    1   0.000000       14.131153296000      16.931571210000      17.937019269000
       139    1   0.000000       13.916551734000       8.074809567000       6.118415433000
       140    1   0.000000       14.131153296000       6.723803790000       5.718355731000
       141    1   0.000000        9.738823266000      15.580565433000       6.118415433000
       142    1   0.000000        9.524221704000      16.931571210000       5.718355731000
       143    1   0.000000        9.738823266000       8.074809567000      17.536959567000
       144    1   0.000000        9.524221704000       6.723803790000      17.937019269000
       145    1   0.000000       15.580565433000       9.738823266000       6.118415433000
       146    1   0.000000       15.180505731000       9.524221704000       7.469421210000
       147    1   0.000000        8.074809567000       9.738823266000      17.536959567000
       148    1   0.000000        8.474869269000       9.524221704000      16.185953790000
       149    1   0.000000        8.074809567000      13.916551734000       6.118415433000
       150    1   0.000000        8.474869269000      14.131153296000       7.469421210000
       151    1   0.000000       15.580565433000      13.916551734000      17.536959567000
       152    1   0.000000       15.180505731000      14.131153296000      16.185953790000
       153    1   0.000000       12.805884567000       3.343734567000       9.185476734000
       154    1   0.000000       13.205944269000       1.992728790000       9.400078296000
       155    1   0.000000        1.387340433000      10.849490433000       9.185476734000
       156    1   0.000000        0.987280731000      12.200496210000       9.400078296000
       157    1   0.000000        1.387340433000       3.343734567000       5.007748266000
       158    1   0.000000        0.987280731000       1.992728790000       4.793146704000
       159    1   0.000000       12.805884567000      10.849490433000       5.007748266000
       160    1   0.000000       13.205944269000      12.200496210000       4.793146704000
       161    1   0.000000        1.387340433000       9.185476734000      10.849490433000
       162    1   0.000000        2.738346210000       9.400078296000      10.449430731000
       163    1   0.000000       12.805884567000       9.185476734000       3.343734567000
       164    1   0.000000       11.454878790000       9.400078296000       3.743794269000
       165    1   0.000000        1.387340433000       5.007748266000       3.343734567000
       166    1   0.000000        2.738346210000       4.793146704000       3.743794269000
       167    1   0.000000       12.805884567000       5.007748266000      10.849490433000
       168    1   0.000000       11.454878790000       4.793146704000      10.449430731000
       169    1   0.000000       14.469898266000      10.849490433000       3.343734567000
       170    1   0.000000       14.255296704000      10.449430731000       1.992728790000
       171    1   0.000000       14.469898266000       3.343734567000      10.849490433000
       172    1   0.000000       14.255296704000       3.743794269000      12.200496210000
       173    1   0.000000       18.647626734000       3.343734567000       3.343734567000
       174    1   0.000000       18.862228296000       3.743794269000       1.992728790000
       175    1   0.000000       18.647626734000      10.849490433000      10.849490433000
       176    1   0.000000       18.862228296000      10.449430731000      12.200496210000
       177    1   0.000000       17.536959567000      15.580565433000      13.916551734000
       178    1   0.000000       16.185953790000      15.180505731000      14.131153296000
       179    1   0.000000        6.118415433000       8.074809567000      13.916551734000
       180    1   0.000000        7.469421210000       8.474869269000      14.131153296000
       181    1   0.000000       17.536959567000       8.074809567000       9.738823266000
       182    1   0.000000       16.185953790000       8.474869269000       9.524221704000
       183    1   0.000000        6.118415433000      15.580565433000       9.738823266000
       184    1   0.000000        7.469421210000      15.180505731000       9.524221704000
       185    1   0.000000        4.454401734000       8.074809567000      15.580565433000
       186    1   0.000000        4.669003296000       6.723803790000      15.180505731000
       187    1   0.000000        4.454401734000      15.580565433000       8.074809567000
       188    1   0.000000        4.669003296000      16.931571210000       8.474869269000
       189    1   0.000000        0.276673266000       8.074809567000       8.074809567000
       190    1   0.000000        0.062071704000       6.723803790000       8.474869269000
       191    1   0.000000        0.276673266000      15.580565433000      15.580565433000
       192    1   0.000000        0.062071704000      16.931571210000      15.180505731000
       193    1   0.000000        6.118415433000      13.916551734000       8.074809567000
       194    1   0.000000        5.718355731000      14.131153296000       6.723803790000
       195    1   0.000000       17.536959567000      13.916551734000      15.580565433000
       196    1   0.000000       17.937019269000      14.131153296000      16.931571210000
       197    1   0.000000       17.536959567000       9.738823266000       8.074809567000
       198    1   0.000000       17.937019269000       9.524221704000       6.723803790000
       199    1   0.000000        6.118415433000       9.738823266000      15.580565433000
       200    1   0.000000        5.718355731000       9.524221704000      16.931571210000
       201    1   0.000000        8.074809567000       4.454401734000      15.580565433000
       202    1   0.000000        8.474869269000       4.669003296000      16.931571210000
       203    1   0.000000       15.580565433000       4.454401734000       8.074809567000
       204    1   0.000000       15.180505731000       4.669003296000       6.723803790000
       205    1   0.000000       15.580565433000       0.276673266000      15.580565433000
       206    1   0.000000       15.180505731000       0.062071704000      16.931571210000
       207    1   0.000000        8.074809567000       0.276673266000       8.074809567000
       208    1   0.000000        8.474869269000       0.062071704000       6.723803790000
       209    1   0.000000       15.580565433000       6.118415433000       9.738823266000
       210    1   0.000000       16.931571210000       5.718355731000       9.524221704000
       211    1   0.000000        8.074809567000      17.536959567000       9.738823266000
       212    1   0.000000        6.723803790000      17.937019269000       9.524221704000
       213    1   0.000000       15.580565433000      17.536959567000      13.916551734000
       214    1   0.000000       16.931571210000      17.937019269000      14.131153296000
       215    1   0.000000        8.074809567000       6.118415433000      13.916551734000
       216    1   0.000000        6.723803790000       5.718355731000      14.131153296000
       217    1   0.000000        9.738823266000      17.536959567000       8.074809567000
       218    1   0.000000        9.524221704000      16.185953790000       8.474869269000
       219    1   0.000000        9.738823266000       6.118415433000      15.580565433000
       220    1   0.000000        9.524221704000       7.469421210000      15.180505731000
       221    1   0.000000       13.916551734000      17.536959567000      15.580565433000
       222    1   0.000000       14.131153296000      16.185953790000      15.180505731000
       223    1   0.000000       13.916551734000       6.118415433000       8.074809567000
       224    1   0.000000       14.131153296000       7.469421210000       8.474869269000
       225    1   0.000000        2.738346210000      13.205944269000      14.255296704000
       226    1   0.000000       11.454878790000       0.987280731000      14.255296704000
       227    1   0.000000        2.738346210000       0.987280731000      18.862228296000
       228    1   0.000000       11.454878790000      13.205944269000      18.862228296000
       229    1   0.000000       14.255296704000       2.738346210000      13.205944269000
       230    1   0.000000       14.255296704000      11.454878790000       0.987280731000
       231    1   0.000000       18.862228296000       2.738346210000       0.987280731000
       232    1   0.000000       18.862228296000      11.454878790000      13.205944269000
       233    1   0.000000       13.205944269000      14.255296704000       2.738346210000
       234    1   0.000000        0.987280731000      14.255296704000      11.454878790000
       235    1   0.000000        0.987280731000      18.862228296000       2.738346210000
       236    1   0.000000       13.205944269000      18.862228296000      11.454878790000
       237    1   0.000000        5.718355731000      16.185953790000       4.669003296000
       238    1   0.000000       17.937019269000       7.469421210000       4.669003296000
       239    1   0.000000       17.937019269000      16.185953790000       0.062071704000
       240    1   0.000000        5.718355731000       7.469421210000       0.062071704000
       241    1   0.000000       16.185953790000       4.669003296000       5.718355731000
       242    1   0.000000        7.469421210000       4.669003296000      17.937019269000
       243    1   0.000000       16.185953790000       0.062071704000      17.937019269000
       244    1   0.000000        7.469421210000       0.062071704000       5.718355731000
       245    1   0.000000        4.669003296000       5.718355731000      16.185953790000
       246    1   0.000000        4.669003296000      17.937019269000       7.469421210000
       247    1   0.000000        0.062071704000      17.937019269000      16.185953790000
       248    1   0.000000        0.062071704000       5.718355731000       7.469421210000
       249    1   0.000000        8.474869269000      16.931571210000       4.669003296000
       250    1   0.000000       15.180505731000       6.723803790000       4.669003296000
       251    1   0.000000       15.180505731000      16.931571210000       0.062071704000
       252    1   0.000000        8.474869269000       6.723803790000       0.062071704000
       253    1   0.000000       16.931571210000       9.524221704000       5.718355731000
       254    1   0.000000        6.723803790000       9.524221704000      17.937019269000
       255    1   0.000000       16.931571210000      14.131153296000      17.937019269000
       256    1   0.000000        6.723803790000      14.131153296000       5.718355731000
       257    1   0.000000        9.524221704000       8.474869269000      16.185953790000
       258    1   0.000000        9.524221704000      15.180505731000       7.469421210000
       259    1   0.000000       14.131153296000      15.180505731000      16.185953790000
       260    1   0.000000       14.131153296000       8.474869269000       7.469421210000
       261    1   0.000000        8.474869269000      16.185953790000       9.524221704000
       262    1   0.000000       15.180505731000       7.469421210000       9.524221704000
       263    1   0.000000       15.180505731000      16.185953790000      14.131153296000
       264    1   0.000000        8.474869269000       7.469421210000      14.131153296000
       265    1   0.000000       16.931571210000       4.669003296000       8.474869269000
       266    1   0.000000        6.723803790000       4.669003296000      15.180505731000
       267    1   0.000000       16.931571210000       0.062071704000      15.180505731000
       268    1   0.000000        6.723803790000       0.062071704000       8.474869269000
       269    1   0.000000        9.524221704000       5.718355731000      16.931571210000
       270    1   0.000000        9.524221704000      17.937019269000       6.723803790000
       271    1   0.000000       14.131153296000      17.937019269000      16.931571210000
       272    1   0.000000       14.131153296000       5.718355731000       6.723803790000
       273    1   0.000000       12.200496210000      10.449430731000      18.862228296000
       274    1   0.000000        1.992728790000       3.743794269000      18.862228296000
       275    1   0.000000       12.200496210000       3.743794269000      14.255296704000
       276    1   0.000000        1.992728790000      10.449430731000      14.255296704000
       277    1   0.000000        4.793146704000       1.992728790000       0.987280731000
       278    1   0.000000        4.793146704000      12.200496210000      13.205944269000
       279    1   0.000000        9.400078296000       1.992728790000      13.205944269000
       280    1   0.000000        9.400078296000      12.200496210000       0.987280731000
       281    1   0.000000        3.743794269000       9.400078296000      11.454878790000
       282    1   0.000000       10.449430731000       9.400078296000       2.738346210000
       283    1   0.000000       10.449430731000       4.793146704000      11.454878790000
       284    1   0.000000        3.743794269000       4.793146704000       2.738346210000
       285    1   0.000000        5.718355731000      16.931571210000       9.524221704000
       286    1   0.000000       17.937019269000       6.723803790000       9.524221704000
       287    1   0.000000       17.937019269000      16.931571210000      14.131153296000
       288    1   0.000000        5.718355731000       6.723803790000      14.131153296000
       289    1   0.000000       16.185953790000       9.524221704000       8.474869269000
       290    1   0.000000        7.469421210000       9.524221704000      15.180505731000
       291    1   0.000000       16.185953790000      14.131153296000      15.180505731000
       292    1   0.000000        7.469421210000      14.131153296000       8.474869269000
       293    1   0.000000        4.669003296000       8.474869269000      16.931571210000
       294    1   0.000000        4.669003296000      15.180505731000       6.723803790000
       295    1   0.000000        0.062071704000      15.180505731000      16.931571210000
       296    1   0.000000        0.062071704000       8.474869269000       6.723803790000
       297    1   0.000000        2.738346210000       3.743794269000       4.793146704000
       298    1   0.000000       11.454878790000      10.449430731000       4.793146704000
       299    1   0.000000        2.738346210000      10.449430731000       9.400078296000
       300    1   0.000000       11.454878790000       3.743794269000       9.400078296000
       301    1   0.000000       14.255296704000      12.200496210000       3.743794269000
       302    1   0.000000       14.255296704000       1.992728790000      10.449430731000
       303    1   0.000000       18.862228296000      12.200496210000      10.449430731000
       304    1   0.000000       18.862228296000       1.992728790000       3.743794269000
       305    1   0.000000       13.205944269000       4.793146704000      12.200496210000
       306    1   0.000000        0.987280731000       4.793146704000       1.992728790000
       307    1   0.000000        0.987280731000       9.400078296000      12.200496210000
       308    1   0.000000       13.205944269000       9.400078296000       1.992728790000
       309    1   0.000000       10.449430731000      14.255296704000       1.992728790000
       310    1   0.000000        3.743794269000      14.255296704000      12.200496210000
       311    1   0.000000        3.743794269000      18.862228296000       1.992728790000
       312    1   0.000000       10.449430731000      18.862228296000      12.200496210000
       313    1   0.000000        1.992728790000      13.205944269000       9.400078296000
       314    1   0.000000       12.200496210000       0.987280731000       9.400078296000
       315    1   0.000000        1.992728790000       0.987280731000       4.793146704000
       316    1   0.000000       12.200496210000      13.205944269000       4.793146704000
       317    1   0.000000        9.400078296000       2.738346210000      10.449430731000
       318    1   0.000000        9.400078296000      11.454878790000       3.743794269000
       319    1   0.000000        4.793146704000       2.738346210000       3.743794269000
       320    1   0.000000        4.793146704000      11.454878790000      10.449430731000
