ITEM: TIMESTEP
0
ITEM: NUMBER OF ATOMS
320
ITEM: BOX BOUNDS pp pp pp
0.0000000000000000e+00 1.8924299999999999e+01
0.0000000000000000e+00 1.8924299999999999e+01
0.0000000000000000e+00 1.8924299999999999e+01
ITEM: ATOMS id type x y z 
10 1 6.11842 6.11842 0.276673 
11 1 7.46942 5.71836 0.0620717 
22 1 0.276673 6.11842 6.11842 
23 1 0.0620717 7.46942 5.71836 
34 1 6.11842 0.276673 6.11842 
35 1 5.71836 0.0620717 7.46942 
89 1 3.34373 5.00775 1.38734 
90 1 1.99273 4.79315 0.987281 
97 1 5.00775 3.34373 1.38734 
98 1 4.79315 3.74379 2.73835 
105 1 3.34373 1.38734 5.00775 
106 1 3.74379 2.73835 4.79315 
121 1 5.00775 1.38734 3.34373 
122 1 4.79315 0.987281 1.99273 
125 1 8.07481 8.07481 0.276673 
126 1 6.7238 8.47487 0.0620717 
127 1 0.416335 4.31474 4.31474 
130 1 4.31474 0.416335 4.31474 
133 1 0.416335 0.416335 0.416335 
136 1 4.31474 4.31474 0.416335 
157 1 1.38734 3.34373 5.00775 
158 1 0.987281 1.99273 4.79315 
165 1 1.38734 5.00775 3.34373 
166 1 2.73835 4.79315 3.74379 
189 1 0.276673 8.07481 8.07481 
190 1 0.0620717 6.7238 8.47487 
207 1 8.07481 0.276673 8.07481 
208 1 8.47487 0.0620717 6.7238 
240 1 5.71836 7.46942 0.0620717 
244 1 7.46942 0.0620717 5.71836 
248 1 0.0620717 5.71836 7.46942 
252 1 8.47487 6.7238 0.0620717 
268 1 6.7238 0.0620717 8.47487 
277 1 4.79315 1.99273 0.987281 
284 1 3.74379 4.79315 2.73835 
296 1 0.0620717 8.47487 6.7238 
297 1 2.73835 3.74379 4.79315 
306 1 0.987281 4.79315 1.99273 
315 1 1.99273 0.987281 4.79315 
319 1 4.79315 2.73835 3.74379 
16 1 4.4544 6.11842 17.537 
17 1 4.669 7.46942 17.937 
25 1 6.11842 4.4544 17.537 
26 1 5.71836 4.669 16.186 
39 1 9.04582 9.04582 18.508 
42 1 5.14741 5.14741 18.508 
43 1 1.38734 1.38734 18.6476 
44 1 0.987281 2.73835 18.8622 
45 1 5.14741 9.04582 14.6096 
48 1 9.04582 5.14741 14.6096 
79 1 3.34373 3.34373 18.6476 
80 1 3.74379 1.99273 18.8622 
85 1 3.34373 9.18548 12.8059 
86 1 1.99273 9.40008 13.2059 
95 1 9.18548 3.34373 12.8059 
96 1 9.40008 3.74379 11.4549 
119 1 9.18548 1.38734 10.8495 
120 1 9.40008 0.987281 12.2005 
161 1 1.38734 9.18548 10.8495 
162 1 2.73835 9.40008 10.4494 
179 1 6.11842 8.07481 13.9166 
180 1 7.46942 8.47487 14.1312 
185 1 4.4544 8.07481 15.5806 
186 1 4.669 6.7238 15.1805 
201 1 8.07481 4.4544 15.5806 
202 1 8.47487 4.669 16.9316 
215 1 8.07481 6.11842 13.9166 
216 1 6.7238 5.71836 14.1312 
227 1 2.73835 0.987281 18.8622 
242 1 7.46942 4.669 17.937 
245 1 4.669 5.71836 16.186 
264 1 8.47487 7.46942 14.1312 
266 1 6.7238 4.669 15.1805 
274 1 1.99273 3.74379 18.8622 
279 1 9.40008 1.99273 13.2059 
281 1 3.74379 9.40008 11.4549 
288 1 5.71836 6.7238 14.1312 
293 1 4.669 8.47487 16.9316 
307 1 0.987281 9.40008 12.2005 
317 1 9.40008 2.73835 10.4494 
4 1 6.11842 17.537 4.4544 
5 1 7.46942 17.937 4.669 
13 1 4.4544 17.537 6.11842 
14 1 4.669 16.186 5.71836 
51 1 9.04582 18.508 9.04582 
54 1 5.14741 18.508 5.14741 
55 1 1.38734 18.6476 1.38734 
56 1 2.73835 18.8622 0.987281 
57 1 9.04582 14.6096 5.14741 
60 1 5.14741 14.6096 9.04582 
93 1 9.18548 10.8495 1.38734 
94 1 9.40008 10.4494 2.73835 
103 1 3.34373 12.8059 9.18548 
104 1 3.74379 11.4549 9.40008 
113 1 3.34373 18.6476 3.34373 
114 1 1.99273 18.8622 3.74379 
117 1 9.18548 12.8059 3.34373 
118 1 9.40008 13.2059 1.99273 
131 1 8.07481 15.5806 4.4544 
132 1 6.7238 15.1805 4.669 
149 1 8.07481 13.9166 6.11842 
150 1 8.47487 14.1312 7.46942 
155 1 1.38734 10.8495 9.18548 
156 1 0.987281 12.2005 9.40008 
187 1 4.4544 15.5806 8.07481 
188 1 4.669 16.9316 8.47487 
193 1 6.11842 13.9166 8.07481 
194 1 5.71836 14.1312 6.7238 
235 1 0.987281 18.8622 2.73835 
237 1 5.71836 16.186 4.669 
246 1 4.669 17.937 7.46942 
249 1 8.47487 16.9316 4.669 
256 1 6.7238 14.1312 5.71836 
280 1 9.40008 12.2005 0.987281 
292 1 7.46942 14.1312 8.47487 
294 1 4.669 15.1805 6.7238 
299 1 2.73835 10.4494 9.40008 
311 1 3.74379 18.8622 1.99273 
313 1 1.99273 13.2059 9.40008 
318 1 9.40008 11.4549 3.74379 
15 1 0.416335 9.87848 9.87848 
18 1 0.416335 13.7769 13.7769 
19 1 0.276673 17.537 17.537 
20 1 0.0620717 16.186 17.937 
21 1 4.31474 9.87848 13.7769 
24 1 4.31474 13.7769 9.87848 
40 1 1.38734 12.8059 14.4699 
41 1 0.987281 11.4549 14.2553 
49 1 1.38734 14.4699 12.8059 
50 1 2.73835 14.2553 13.2059 
76 1 3.34373 10.8495 14.4699 
77 1 3.74379 12.2005 14.2553 
99 1 5.00775 10.8495 12.8059 
100 1 4.79315 10.4494 11.4549 
109 1 3.34373 14.4699 10.8495 
110 1 1.99273 14.2553 10.4494 
123 1 5.00775 12.8059 10.8495 
124 1 4.79315 13.2059 12.2005 
147 1 8.07481 9.73882 17.537 
148 1 8.47487 9.52422 16.186 
183 1 6.11842 15.5806 9.73882 
184 1 7.46942 15.1805 9.52422 
191 1 0.276673 15.5806 15.5806 
192 1 0.0620717 16.9316 15.1805 
199 1 6.11842 9.73882 15.5806 
200 1 5.71836 9.52422 16.9316 
211 1 8.07481 17.537 9.73882 
212 1 6.7238 17.937 9.52422 
225 1 2.73835 13.2059 14.2553 
234 1 0.987281 14.2553 11.4549 
247 1 0.0620717 17.937 16.186 
254 1 6.7238 9.52422 17.937 
261 1 8.47487 16.186 9.52422 
276 1 1.99273 10.4494 14.2553 
278 1 4.79315 12.2005 13.2059 
285 1 5.71836 16.9316 9.52422 
290 1 7.46942 9.52422 15.1805 
295 1 0.0620717 15.1805 16.9316 
310 1 3.74379 14.2553 12.2005 
320 1 4.79315 11.4549 10.4494 
1 1 17.537 6.11842 4.4544 
2 1 16.186 5.71836 4.669 
28 1 17.537 4.4544 6.11842 
29 1 17.937 4.669 7.46942 
63 1 18.508 9.04582 9.04582 
66 1 18.508 5.14741 5.14741 
67 1 18.6476 1.38734 1.38734 
68 1 18.8622 0.987281 2.73835 
69 1 14.6096 5.14741 9.04582 
72 1 14.6096 9.04582 5.14741 
87 1 10.8495 9.18548 1.38734 
88 1 12.2005 9.40008 0.987281 
101 1 10.8495 1.38734 9.18548 
102 1 10.4494 2.73835 9.40008 
134 1 15.5806 8.07481 4.4544 
135 1 16.9316 8.47487 4.669 
139 1 13.9166 8.07481 6.11842 
140 1 14.1312 6.7238 5.71836 
153 1 12.8059 3.34373 9.18548 
154 1 13.2059 1.99273 9.40008 
163 1 12.8059 9.18548 3.34373 
164 1 11.4549 9.40008 3.74379 
173 1 18.6476 3.34373 3.34373 
174 1 18.8622 3.74379 1.99273 
203 1 15.5806 4.4544 8.07481 
204 1 15.1805 4.669 6.7238 
223 1 13.9166 6.11842 8.07481 
224 1 14.1312 7.46942 8.47487 
231 1 18.8622 2.73835 0.987281 
238 1 17.937 7.46942 4.669 
241 1 16.186 4.669 5.71836 
250 1 15.1805 6.7238 4.669 
260 1 14.1312 8.47487 7.46942 
265 1 16.9316 4.669 8.47487 
272 1 14.1312 5.71836 6.7238 
282 1 10.4494 9.40008 2.73835 
300 1 11.4549 3.74379 9.40008 
304 1 18.8622 1.99273 3.74379 
308 1 13.2059 9.40008 1.99273 
314 1 12.2005 0.987281 9.40008 
27 1 9.87848 0.416335 9.87848 
30 1 13.7769 0.416335 13.7769 
31 1 17.537 0.276673 17.537 
32 1 17.937 0.0620717 16.186 
33 1 13.7769 4.31474 9.87848 
36 1 9.87848 4.31474 13.7769 
37 1 12.8059 1.38734 14.4699 
38 1 13.2059 2.73835 14.2553 
64 1 14.4699 1.38734 12.8059 
65 1 14.2553 0.987281 11.4549 
73 1 10.8495 3.34373 14.4699 
74 1 10.4494 1.99273 14.2553 
91 1 10.8495 5.00775 12.8059 
92 1 12.2005 4.79315 13.2059 
143 1 9.73882 8.07481 17.537 
144 1 9.52422 6.7238 17.937 
167 1 12.8059 5.00775 10.8495 
168 1 11.4549 4.79315 10.4494 
171 1 14.4699 3.34373 10.8495 
172 1 14.2553 3.74379 12.2005 
181 1 17.537 8.07481 9.73882 
182 1 16.186 8.47487 9.52422 
205 1 15.5806 0.276673 15.5806 
206 1 15.1805 0.0620717 16.9316 
209 1 15.5806 6.11842 9.73882 
210 1 16.9316 5.71836 9.52422 
219 1 9.73882 6.11842 15.5806 
220 1 9.52422 7.46942 15.1805 
226 1 11.4549 0.987281 14.2553 
229 1 14.2553 2.73835 13.2059 
243 1 16.186 0.0620717 17.937 
257 1 9.52422 8.47487 16.186 
262 1 15.1805 7.46942 9.52422 
267 1 16.9316 0.0620717 15.1805 
269 1 9.52422 5.71836 16.9316 
275 1 12.2005 3.74379 14.2553 
283 1 10.4494 4.79315 11.4549 
286 1 17.937 6.7238 9.52422 
302 1 14.2553 1.99273 10.4494 
305 1 13.2059 4.79315 12.2005 
3 1 9.87848 9.87848 0.416335 
6 1 13.7769 13.7769 0.416335 
7 1 17.537 17.537 0.276673 
8 1 16.186 17.937 0.0620717 
9 1 9.87848 13.7769 4.31474 
12 1 13.7769 9.87848 4.31474 
52 1 12.8059 14.4699 1.38734 
53 1 11.4549 14.2553 0.987281 
61 1 14.4699 12.8059 1.38734 
62 1 14.2553 13.2059 2.73835 
107 1 10.8495 12.8059 5.00775 
108 1 10.4494 11.4549 4.79315 
111 1 10.8495 14.4699 3.34373 
112 1 12.2005 14.2553 3.74379 
128 1 15.5806 15.5806 0.276673 
129 1 16.9316 15.1805 0.0620717 
141 1 9.73882 15.5806 6.11842 
142 1 9.52422 16.9316 5.71836 
145 1 15.5806 9.73882 6.11842 
146 1 15.1805 9.52422 7.46942 
159 1 12.8059 10.8495 5.00775 
160 1 13.2059 12.2005 4.79315 
169 1 14.4699 10.8495 3.34373 
170 1 14.2553 10.4494 1.99273 
197 1 17.537 9.73882 8.07481 
198 1 17.937 9.52422 6.7238 
217 1 9.73882 17.537 8.07481 
218 1 9.52422 16.186 8.47487 
230 1 14.2553 11.4549 0.987281 
233 1 13.2059 14.2553 2.73835 
239 1 17.937 16.186 0.0620717 
251 1 15.1805 16.9316 0.0620717 
253 1 16.9316 9.52422 5.71836 
258 1 9.52422 15.1805 7.46942 
270 1 9.52422 17.937 6.7238 
289 1 16.186 9.52422 8.47487 
298 1 11.4549 10.4494 4.79315 
301 1 14.2553 12.2005 3.74379 
309 1 10.4494 14.2553 1.99273 
316 1 12.2005 13.2059 4.79315 
46 1 12.8059 12.8059 18.6476 
47 1 13.2059 11.4549 18.8622 
58 1 12.8059 18.6476 12.8059 
59 1 11.4549 18.8622 13.2059 
70 1 18.6476 12.8059 12.8059 
71 1 18.8622 13.2059 11.4549 
75 1 14.6096 14.6096 18.508 
78 1 18.508 18.508 18.508 
81 1 18.508 14.6096 14.6096 
82 1 10.8495 10.8495 18.6476 
83 1 10.4494 12.2005 18.8622 
84 1 14.6096 18.508 14.6096 
115 1 10.8495 18.6476 10.8495 
116 1 12.2005 18.8622 10.4494 
137 1 13.9166 15.5806 17.537 
138 1 14.1312 16.9316 17.937 
151 1 15.5806 13.9166 17.537 
152 1 15.1805 14.1312 16.186 
175 1 18.6476 10.8495 10.8495 
176 1 18.8622 10.4494 12.2005 
177 1 17.537 15.5806 13.9166 
178 1 16.186 15.1805 14.1312 
195 1 17.537 13.9166 15.5806 
196 1 17.937 14.1312 16.9316 
213 1 15.5806 17.537 13.9166 
214 1 16.9316 17.937 14.1312 
221 1 13.9166 17.537 15.5806 
222 1 14.1312 16.186 15.1805 
228 1 11.4549 13.2059 18.8622 
232 1 18.8622 11.4549 13.2059 
236 1 13.2059 18.8622 11.4549 
255 1 16.9316 14.1312 17.937 
259 1 14.1312 15.1805 16.186 
263 1 15.1805 16.186 14.1312 
271 1 14.1312 17.937 16.9316 
273 1 12.2005 10.4494 18.8622 
287 1 17.937 16.9316 14.1312 
291 1 16.186 14.1312 15.1805 
303 1 18.8622 12.2005 10.4494 
312 1 10.4494 18.8622 12.2005 
ITEM: TIMESTEP
10
ITEM: NUMBER OF ATOMS
320
ITEM: BOX BOUNDS pp pp pp
0.0000000000000000e+00 1.8924299999999999e+01
0.0000000000000000e+00 1.8924299999999999e+01
0.0000000000000000e+00 1.8924299999999999e+01
ITEM: ATOMS id type x y z 
10 1 6.13686 6.13686 0.313871 
11 1 7.48597 5.6681 0.113738 
22 1 0.313871 6.13686 6.13686 
23 1 0.113738 7.48597 5.6681 
34 1 6.13686 0.313871 6.13686 
35 1 5.6681 0.113738 7.48597 
89 1 3.32529 5.04495 1.40578 
90 1 1.97618 4.84481 0.937028 
97 1 5.04495 3.32529 1.40578 
98 1 4.84481 3.79405 2.75489 
105 1 3.32529 1.40578 5.04495 
106 1 3.79405 2.75489 4.84481 
121 1 5.04495 1.40578 3.32529 
122 1 4.84481 0.937028 1.97618 
125 1 8.05637 8.05637 0.313871 
126 1 6.70726 8.52512 0.113738 
127 1 0.466428 4.26465 4.26465 
130 1 4.26465 0.466428 4.26465 
133 1 0.466428 0.466428 0.466428 
136 1 4.26465 4.26465 0.466428 
157 1 1.40578 3.32529 5.04495 
158 1 0.937028 1.97618 4.84481 
165 1 1.40578 5.04495 3.32529 
166 1 2.75489 4.84481 3.79405 
189 1 0.313871 8.05637 8.05637 
190 1 0.113738 6.70726 8.52512 
207 1 8.05637 0.313871 8.05637 
208 1 8.52512 0.113738 6.70726 
240 1 5.6681 7.48597 0.113738 
244 1 7.48597 0.113738 5.6681 
248 1 0.113738 5.6681 7.48597 
252 1 8.52512 6.70726 0.113738 
268 1 6.70726 0.113738 8.52512 
277 1 4.84481 1.97618 0.937028 
284 1 3.79405 4.84481 2.75489 
296 1 0.113738 8.52512 6.70726 
297 1 2.75489 3.79405 4.84481 
306 1 0.937028 4.84481 1.97618 
315 1 1.97618 0.937028 4.84481 
319 1 4.84481 2.75489 3.79405 
16 1 4.4172 6.13686 17.5185 
17 1 4.61734 7.48597 17.9873 
25 1 6.13686 4.4172 17.5185 
26 1 5.6681 4.61734 16.1694 
39 1 8.99572 8.99572 18.4579 
42 1 5.1975 5.1975 18.4579 
43 1 1.40578 1.40578 18.6104 
44 1 0.937028 2.75489 18.8106 
45 1 5.1975 8.99572 14.6597 
48 1 8.99572 5.1975 14.6597 
79 1 3.32529 3.32529 18.6104 
80 1 3.79405 1.97618 18.8106 
85 1 3.32529 9.14828 12.7874 
86 1 1.97618 9.34841 13.2562 
95 1 9.14828 3.32529 12.7874 
96 1 9.34841 3.79405 11.4383 
119 1 9.14828 1.40578 10.8679 
120 1 9.34841 0.937028 12.217 
161 1 1.40578 9.14828 10.8679 
162 1 2.75489 9.34841 10.3992 
179 1 6.13686 8.05637 13.8794 
180 1 7.48597 8.52512 14.0795 
185 1 4.4172 8.05637 15.599 
186 1 4.61734 6.70726 15.1303 
201 1 8.05637 4.4172 15.599 
202 1 8.52512 4.61734 16.9481 
215 1 8.05637 6.13686 13.8794 
216 1 6.70726 5.6681 14.0795 
227 1 2.75489 0.937028 18.8106 
242 1 7.48597 4.61734 17.9873 
245 1 4.61734 5.6681 16.1694 
264 1 8.52512 7.48597 14.0795 
266 1 6.70726 4.61734 15.1303 
274 1 1.97618 3.79405 18.8106 
279 1 9.34841 1.97618 13.2562 
281 1 3.79405 9.34841 11.4383 
288 1 5.6681 6.70726 14.0795 
293 1 4.61734 8.52512 16.9481 
307 1 0.937028 9.34841 12.217 
317 1 9.34841 2.75489 10.3992 
4 1 6.13686 17.5185 4.4172 
5 1 7.48597 17.9873 4.61734 
13 1 4.4172 17.5185 6.13686 
14 1 4.61734 16.1694 5.6681 
51 1 8.99572 18.4579 8.99572 
54 1 5.1975 18.4579 5.1975 
55 1 1.40578 18.6104 1.40578 
56 1 2.75489 18.8106 0.937028 
57 1 8.99572 14.6597 5.1975 
60 1 5.1975 14.6597 8.99572 
93 1 9.14828 10.8679 1.40578 
94 1 9.34841 10.3992 2.75489 
103 1 3.32529 12.7874 9.14828 
104 1 3.79405 11.4383 9.34841 
113 1 3.32529 18.6104 3.32529 
114 1 1.97618 18.8106 3.79405 
117 1 9.14828 12.7874 3.32529 
118 1 9.34841 13.2562 1.97618 
131 1 8.05637 15.599 4.4172 
132 1 6.70726 15.1303 4.61734 
149 1 8.05637 13.8794 6.13686 
150 1 8.52512 14.0795 7.48597 
155 1 1.40578 10.8679 9.14828 
156 1 0.937028 12.217 9.34841 
187 1 4.4172 15.599 8.05637 
188 1 4.61734 16.9481 8.52512 
193 1 6.13686 13.8794 8.05637 
194 1 5.6681 14.0795 6.70726 
235 1 0.937028 18.8106 2.75489 
237 1 5.6681 16.1694 4.61734 
246 1 4.61734 17.9873 7.48597 
249 1 8.52512 16.9481 4.61734 
256 1 6.70726 14.0795 5.6681 
280 1 9.34841 12.217 0.937028 
292 1 7.48597 14.0795 8.52512 
294 1 4.61734 15.1303 6.70726 
299 1 2.75489 10.3992 9.34841 
311 1 3.79405 18.8106 1.97618 
313 1 1.97618 13.2562 9.34841 
318 1 9.34841 11.4383 3.79405 
15 1 0.466428 9.92858 9.92858 
18 1 0.466428 13.7268 13.7268 
19 1 0.313871 17.5185 17.5185 
20 1 0.113738 16.1694 17.9873 
21 1 4.26465 9.92858 13.7268 
24 1 4.26465 13.7268 9.92858 
40 1 1.40578 12.7874 14.5071 
41 1 0.937028 11.4383 14.307 
49 1 1.40578 14.5071 12.7874 
50 1 2.75489 14.307 13.2562 
76 1 3.32529 10.8679 14.5071 
77 1 3.79405 12.217 14.307 
99 1 5.04495 10.8679 12.7874 
100 1 4.84481 10.3992 11.4383 
109 1 3.32529 14.5071 10.8679 
110 1 1.97618 14.307 10.3992 
123 1 5.04495 12.7874 10.8679 
124 1 4.84481 13.2562 12.217 
147 1 8.05637 9.77602 17.5185 
148 1 8.52512 9.57589 16.1694 
183 1 6.13686 15.599 9.77602 
184 1 7.48597 15.1303 9.57589 
191 1 0.313871 15.599 15.599 
192 1 0.113738 16.9481 15.1303 
199 1 6.13686 9.77602 15.599 
200 1 5.6681 9.57589 16.9481 
211 1 8.05637 17.5185 9.77602 
212 1 6.70726 17.9873 9.57589 
225 1 2.75489 13.2562 14.307 
234 1 0.937028 14.307 11.4383 
247 1 0.113738 17.9873 16.1694 
254 1 6.70726 9.57589 17.9873 
261 1 8.52512 16.1694 9.57589 
276 1 1.97618 10.3992 14.307 
278 1 4.84481 12.217 13.2562 
285 1 5.6681 16.9481 9.57589 
290 1 7.48597 9.57589 15.1303 
295 1 0.113738 15.1303 16.9481 
310 1 3.79405 14.307 12.217 
320 1 4.84481 11.4383 10.3992 
1 1 17.5185 6.13686 4.4172 
2 1 16.1694 5.6681 4.61734 
28 1 17.5185 4.4172 6.13686 
29 1 17.9873 4.61734 7.48597 
63 1 18.4579 8.99572 8.99572 
66 1 18.4579 5.1975 5.1975 
67 1 18.6104 1.40578 1.40578 
68 1 18.8106 0.937028 2.75489 
69 1 14.6597 5.1975 8.99572 
72 1 14.6597 8.99572 5.1975 
87 1 10.8679 9.14828 1.40578 
88 1 12.217 9.34841 0.937028 
101 1 10.8679 1.40578 9.14828 
102 1 10.3992 2.75489 9.34841 
134 1 15.599 8.05637 4.4172 
135 1 16.9481 8.52512 4.61734 
139 1 13.8794 8.05637 6.13686 
140 1 14.0795 6.70726 5.6681 
153 1 12.7874 3.32529 9.14828 
154 1 13.2562 1.97618 9.34841 
163 1 12.7874 9.14828 3.32529 
164 1 11.4383 9.34841 3.79405 
173 1 18.6104 3.32529 3.32529 
174 1 18.8106 3.79405 1.97618 
203 1 15.599 4.4172 8.05637 
204 1 15.1303 4.61734 6.70726 
223 1 13.8794 6.13686 8.05637 
224 1 14.0795 7.48597 8.52512 
231 1 18.8106 2.75489 0.937028 
238 1 17.9873 7.48597 4.61734 
241 1 16.1694 4.61734 5.6681 
250 1 15.1303 6.70726 4.61734 
260 1 14.0795 8.52512 7.48597 
265 1 16.9481 4.61734 8.52512 
272 1 14.0795 5.6681 6.70726 
282 1 10.3992 9.34841 2.75489 
300 1 11.4383 3.79405 9.34841 
304 1 18.8106 1.97618 3.79405 
308 1 13.2562 9.34841 1.97618 
314 1 12.217 0.937028 9.34841 
27 1 9.92858 0.466428 9.92858 
30 1 13.7268 0.466428 13.7268 
31 1 17.5185 0.313871 17.5185 
32 1 17.9873 0.113738 16.1694 
33 1 13.7268 4.26465 9.92858 
36 1 9.92858 4.26465 13.7268 
37 1 12.7874 1.40578 14.5071 
38 1 13.2562 2.75489 14.307 
64 1 14.5071 1.40578 12.7874 
65 1 14.307 0.937028 11.4383 
73 1 10.8679 3.32529 14.5071 
74 1 10.3992 1.97618 14.307 
91 1 10.8679 5.04495 12.7874 
92 1 12.217 4.84481 13.2562 
143 1 9.77602 8.05637 17.5185 
144 1 9.57589 6.70726 17.9873 
167 1 12.7874 5.04495 10.8679 
168 1 11.4383 4.84481 10.3992 
171 1 14.5071 3.32529 10.8679 
172 1 14.307 3.79405 12.217 
181 1 17.5185 8.05637 9.77602 
182 1 16.1694 8.52512 9.57589 
205 1 15.599 0.313871 15.599 
206 1 15.1303 0.113738 16.9481 
209 1 15.599 6.13686 9.77602 
210 1 16.9481 5.6681 9.57589 
219 1 9.77602 6.13686 15.599 
220 1 9.57589 7.48597 15.1303 
226 1 11.4383 0.937028 14.307 
229 1 14.307 2.75489 13.2562 
243 1 16.1694 0.113738 17.9873 
257 1 9.57589 8.52512 16.1694 
262 1 15.1303 7.48597 9.57589 
267 1 16.9481 0.113738 15.1303 
269 1 9.57589 5.6681 16.9481 
275 1 12.217 3.79405 14.307 
283 1 10.3992 4.84481 11.4383 
286 1 17.9873 6.70726 9.57589 
302 1 14.307 1.97618 10.3992 
305 1 13.2562 4.84481 12.217 
3 1 9.92858 9.92858 0.466428 
6 1 13.7268 13.7268 0.466428 
7 1 17.5185 17.5185 0.313871 
8 1 16.1694 17.9873 0.113738 
9 1 9.92858 13.7268 4.26465 
12 1 13.7268 9.92858 4.26465 
52 1 12.7874 14.5071 1.40578 
53 1 11.4383 14.307 0.937028 
61 1 14.5071 12.7874 1.40578 
62 1 14.307 13.2562 2.75489 
107 1 10.8679 12.7874 5.04495 
108 1 10.3992 11.4383 4.84481 
111 1 10.8679 14.5071 3.32529 
112 1 12.217 14.307 3.79405 
128 1 15.599 15.599 0.313871 
129 1 16.9481 15.1303 0.113738 
141 1 9.77602 15.599 6.13686 
142 1 9.57589 16.9481 5.6681 
145 1 15.599 9.77602 6.13686 
146 1 15.1303 9.57589 7.48597 
159 1 12.7874 10.8679 5.04495 
160 1 13.2562 12.217 4.84481 
169 1 14.5071 10.8679 3.32529 
170 1 14.307 10.3992 1.97618 
197 1 17.5185 9.77602 8.05637 
198 1 17.9873 9.57589 6.70726 
217 1 9.77602 17.5185 8.05637 
218 1 9.57589 16.1694 8.52512 
230 1 14.307 11.4383 0.937028 
233 1 13.2562 14.307 2.75489 
239 1 17.9873 16.1694 0.113738 
251 1 15.1303 16.9481 0.113738 
253 1 16.9481 9.57589 5.6681 
258 1 9.57589 15.1303 7.48597 
270 1 9.57589 17.9873 6.70726 
289 1 16.1694 9.57589 8.52512 
298 1 11.4383 10.3992 4.84481 
301 1 14.307 12.217 3.79405 
309 1 10.3992 14.307 1.97618 
316 1 12.217 13.2562 4.84481 
46 1 12.7874 12.7874 18.6104 
47 1 13.2562 11.4383 18.8106 
58 1 12.7874 18.6104 12.7874 
59 1 11.4383 18.8106 13.2562 
70 1 18.6104 12.7874 12.7874 
71 1 18.8106 13.2562 11.4383 
75 1 14.6597 14.6597 18.4579 
78 1 18.4579 18.4579 18.4579 
81 1 18.4579 14.6597 14.6597 
82 1 10.8679 10.8679 18.6104 
83 1 10.3992 12.217 18.8106 
84 1 14.6597 18.4579 14.6597 
115 1 10.8679 18.6104 10.8679 
116 1 12.217 18.8106 10.3992 
137 1 13.8794 15.599 17.5185 
138 1 14.0795 16.9481 17.9873 
151 1 15.599 13.8794 17.5185 
152 1 15.1303 14.0795 16.1694 
175 1 18.6104 10.8679 10.8679 
176 1 18.8106 10.3992 12.217 
177 1 17.5185 15.599 13.8794 
178 1 16.1694 15.1303 14.0795 
195 1 17.5185 13.8794 15.599 
196 1 17.9873 14.0795 16.9481 
213 1 15.599 17.5185 13.8794 
214 1 16.9481 17.9873 14.0795 
221 1 13.8794 17.5185 15.599 
222 1 14.0795 16.1694 15.1303 
228 1 11.4383 13.2562 18.8106 
232 1 18.8106 11.4383 13.2562 
236 1 13.2562 18.8106 11.4383 
255 1 16.9481 14.0795 17.9873 
259 1 14.0795 15.1303 16.1694 
263 1 15.1303 16.1694 14.0795 
271 1 14.0795 17.9873 16.9481 
273 1 12.217 10.3992 18.8106 
287 1 17.9873 16.9481 14.0795 
291 1 16.1694 14.0795 15.1303 
303 1 18.8106 12.217 10.3992 
312 1 10.3992 18.8106 12.217 
ITEM: TIMESTEP
17
ITEM: NUMBER OF ATOMS
320
ITEM: BOX BOUNDS pp pp pp
0.0000000000000000e+00 1.8924299999999999e+01
0.0000000000000000e+00 1.8924299999999999e+01
0.0000000000000000e+00 1.8924299999999999e+01
ITEM: ATOMS id type x y z 
10 1 6.13967 6.13967 0.299357 
11 1 7.48937 5.66649 0.113772 
22 1 0.299357 6.13967 6.13967 
23 1 0.113772 7.48937 5.66649 
34 1 6.13967 0.299357 6.13967 
35 1 5.66649 0.113772 7.48937 
89 1 3.32248 5.03043 1.40859 
90 1 1.97278 4.84485 0.935414 
97 1 5.03043 3.32248 1.40859 
98 1 4.84485 3.79566 2.75829 
105 1 3.32248 1.40859 5.03043 
106 1 3.79566 2.75829 4.84485 
121 1 5.03043 1.40859 3.32248 
122 1 4.84485 0.935414 1.97278 
125 1 8.05356 8.05356 0.299357 
126 1 6.70386 8.52674 0.113772 
127 1 0.471189 4.25989 4.25989 
130 1 4.25989 0.471189 4.25989 
133 1 0.471189 0.471189 0.471189 
136 1 4.25989 4.25989 0.471189 
157 1 1.40859 3.32248 5.03043 
158 1 0.935414 1.97278 4.84485 
165 1 1.40859 5.03043 3.32248 
166 1 2.75829 4.84485 3.79566 
189 1 0.299357 8.05356 8.05356 
190 1 0.113772 6.70386 8.52674 
207 1 8.05356 0.299357 8.05356 
208 1 8.52674 0.113772 6.70386 
240 1 5.66649 7.48937 0.113772 
244 1 7.48937 0.113772 5.66649 
248 1 0.113772 5.66649 7.48937 
252 1 8.52674 6.70386 0.113772 
268 1 6.70386 0.113772 8.52674 
277 1 4.84485 1.97278 0.935414 
284 1 3.79566 4.84485 2.75829 
296 1 0.113772 8.52674 6.70386 
297 1 2.75829 3.79566 4.84485 
306 1 0.935414 4.84485 1.97278 
315 1 1.97278 0.935414 4.84485 
319 1 4.84485 2.75829 3.79566 
16 1 4.43172 6.13967 17.5157 
17 1 4.6173 7.48937 17.9889 
25 1 6.13967 4.43172 17.5157 
26 1 5.66649 4.6173 16.166 
39 1 8.99096 8.99096 18.4531 
42 1 5.20226 5.20226 18.4531 
43 1 1.40859 1.40859 18.6249 
44 1 0.935414 2.75829 18.8105 
45 1 5.20226 8.99096 14.6644 
48 1 8.99096 5.20226 14.6644 
79 1 3.32248 3.32248 18.6249 
80 1 3.79566 1.97278 18.8105 
85 1 3.32248 9.16279 12.7846 
86 1 1.97278 9.34838 13.2578 
95 1 9.16279 3.32248 12.7846 
96 1 9.34838 3.79566 11.4349 
119 1 9.16279 1.40859 10.8707 
120 1 9.34838 0.935414 12.2204 
161 1 1.40859 9.16279 10.8707 
162 1 2.75829 9.34838 10.3976 
179 1 6.13967 8.05356 13.8939 
180 1 7.48937 8.52674 14.0795 
185 1 4.43172 8.05356 15.6018 
186 1 4.6173 6.70386 15.1286 
201 1 8.05356 4.43172 15.6018 
202 1 8.52674 4.6173 16.9515 
215 1 8.05356 6.13967 13.8939 
216 1 6.70386 5.66649 14.0795 
227 1 2.75829 0.935414 18.8105 
242 1 7.48937 4.6173 17.9889 
245 1 4.6173 5.66649 16.166 
264 1 8.52674 7.48937 14.0795 
266 1 6.70386 4.6173 15.1286 
274 1 1.97278 3.79566 18.8105 
279 1 9.34838 1.97278 13.2578 
281 1 3.79566 9.34838 11.4349 
288 1 5.66649 6.70386 14.0795 
293 1 4.6173 8.52674 16.9515 
307 1 0.935414 9.34838 12.2204 
317 1 9.34838 2.75829 10.3976 
4 1 6.13967 17.5157 4.43172 
5 1 7.48937 17.9889 4.6173 
13 1 4.43172 17.5157 6.13967 
14 1 4.6173 16.166 5.66649 
51 1 8.99096 18.4531 8.99096 
54 1 5.20226 18.4531 5.20226 
55 1 1.40859 18.6249 1.40859 
56 1 2.75829 18.8105 0.935414 
57 1 8.99096 14.6644 5.20226 
60 1 5.20226 14.6644 8.99096 
93 1 9.16279 10.8707 1.40859 
94 1 9.34838 10.3976 2.75829 
103 1 3.32248 12.7846 9.16279 
104 1 3.79566 11.4349 9.34838 
113 1 3.32248 18.6249 3.32248 
114 1 1.97278 18.8105 3.79566 
117 1 9.16279 12.7846 3.32248 
118 1 9.34838 13.2578 1.97278 
131 1 8.05356 15.6018 4.43172 
132 1 6.70386 15.1286 4.6173 
149 1 8.05356 13.8939 6.13967 
150 1 8.52674 14.0795 7.48937 
155 1 1.40859 10.8707 9.16279 
156 1 0.935414 12.2204 9.34838 
187 1 4.43172 15.6018 8.05356 
188 1 4.6173 16.9515 8.52674 
193 1 6.13967 13.8939 8.05356 
194 1 5.66649 14.0795 6.70386 
235 1 0.935414 18.8105 2.75829 
237 1 5.66649 16.166 4.6173 
246 1 4.6173 17.9889 7.48937 
249 1 8.52674 16.9515 4.6173 
256 1 6.70386 14.0795 5.66649 
280 1 9.34838 12.2204 0.935414 
292 1 7.48937 14.0795 8.52674 
294 1 4.6173 15.1286 6.70386 
299 1 2.75829 10.3976 9.34838 
311 1 3.79566 18.8105 1.97278 
313 1 1.97278 13.2578 9.34838 
318 1 9.34838 11.4349 3.79566 
15 1 0.471189 9.93334 9.93334 
18 1 0.471189 13.722 13.722 
19 1 0.299357 17.5157 17.5157 
20 1 0.113772 16.166 17.9889 
21 1 4.25989 9.93334 13.722 
24 1 4.25989 13.722 9.93334 
40 1 1.40859 12.7846 14.4926 
41 1 0.935414 11.4349 14.307 
49 1 1.40859 14.4926 12.7846 
50 1 2.75829 14.307 13.2578 
76 1 3.32248 10.8707 14.4926 
77 1 3.79566 12.2204 14.307 
99 1 5.03043 10.8707 12.7846 
100 1 4.84485 10.3976 11.4349 
109 1 3.32248 14.4926 10.8707 
110 1 1.97278 14.307 10.3976 
123 1 5.03043 12.7846 10.8707 
124 1 4.84485 13.2578 12.2204 
147 1 8.05356 9.76151 17.5157 
148 1 8.52674 9.57592 16.166 
183 1 6.13967 15.6018 9.76151 
184 1 7.48937 15.1286 9.57592 
191 1 0.299357 15.6018 15.6018 
192 1 0.113772 16.9515 15.1286 
199 1 6.13967 9.76151 15.6018 
200 1 5.66649 9.57592 16.9515 
211 1 8.05356 17.5157 9.76151 
212 1 6.70386 17.9889 9.57592 
225 1 2.75829 13.2578 14.307 
234 1 0.935414 14.307 11.4349 
247 1 0.113772 17.9889 16.166 
254 1 6.70386 9.57592 17.9889 
261 1 8.52674 16.166 9.57592 
276 1 1.97278 10.3976 14.307 
278 1 4.84485 12.2204 13.2578 
285 1 5.66649 16.9515 9.57592 
290 1 7.48937 9.57592 15.1286 
295 1 0.113772 15.1286 16.9515 
310 1 3.79566 14.307 12.2204 
320 1 4.84485 11.4349 10.3976 
1 1 17.5157 6.13967 4.43172 
2 1 16.166 5.66649 4.6173 
28 1 17.5157 4.43172 6.13967 
29 1 17.9889 4.6173 7.48937 
63 1 18.4531 8.99096 8.99096 
66 1 18.4531 5.20226 5.20226 
67 1 18.6249 1.40859 1.40859 
68 1 18.8105 0.935414 2.75829 
69 1 14.6644 5.20226 8.99096 
72 1 14.6644 8.99096 5.20226 
87 1 10.8707 9.16279 1.40859 
88 1 12.2204 9.34838 0.935414 
101 1 10.8707 1.40859 9.16279 
102 1 10.3976 2.75829 9.34838 
134 1 15.6018 8.05356 4.43172 
135 1 16.9515 8.52674 4.6173 
139 1 13.8939 8.05356 6.13967 
140 1 14.0795 6.70386 5.66649 
153 1 12.7846 3.32248 9.16279 
154 1 13.2578 1.97278 9.34838 
163 1 12.7846 9.16279 3.32248 
164 1 11.4349 9.34838 3.79566 
173 1 18.6249 3.32248 3.32248 
174 1 18.8105 3.79566 1.97278 
203 1 15.6018 4.43172 8.05356 
204 1 15.1286 4.6173 6.70386 
223 1 13.8939 6.13967 8.05356 
224 1 14.0795 7.48937 8.52674 
231 1 18.8105 2.75829 0.935414 
238 1 17.9889 7.48937 4.6173 
241 1 16.166 4.6173 5.66649 
250 1 15.1286 6.70386 4.6173 
260 1 14.0795 8.52674 7.48937 
265 1 16.9515 4.6173 8.52674 
272 1 14.0795 5.66649 6.70386 
282 1 10.3976 9.34838 2.75829 
300 1 11.4349 3.79566 9.34838 
304 1 18.8105 1.97278 3.79566 
308 1 13.2578 9.34838 1.97278 
314 1 12.2204 0.935414 9.34838 
27 1 9.93334 0.471189 9.93334 
30 1 13.722 0.471189 13.722 
31 1 17.5157 0.299357 17.5157 
32 1 17.9889 0.113772 16.166 
33 1 13.722 4.25989 9.93334 
36 1 9.93334 4.25989 13.722 
37 1 12.7846 1.40859 14.4926 
38 1 13.2578 2.75829 14.307 
64 1 14.4926 1.40859 12.7846 
65 1 14.307 0.935414 11.4349 
73 1 10.8707 3.32248 14.4926 
74 1 10.3976 1.97278 14.307 
91 1 10.8707 5.03043 12.7846 
92 1 12.2204 4.84485 13.2578 
143 1 9.76151 8.05356 17.5157 
144 1 9.57592 6.70386 17.9889 
167 1 12.7846 5.03043 10.8707 
168 1 11.4349 4.84485 10.3976 
171 1 14.4926 3.32248 10.8707 
172 1 14.307 3.79566 12.2204 
181 1 17.5157 8.05356 9.76151 
182 1 16.166 8.52674 9.57592 
205 1 15.6018 0.299357 15.6018 
206 1 15.1286 0.113772 16.9515 
209 1 15.6018 6.13967 9.76151 
210 1 16.9515 5.66649 9.57592 
219 1 9.76151 6.13967 15.6018 
220 1 9.57592 7.48937 15.1286 
226 1 11.4349 0.935414 14.307 
229 1 14.307 2.75829 13.2578 
243 1 16.166 0.113772 17.9889 
257 1 9.57592 8.52674 16.166 
262 1 15.1286 7.48937 9.57592 
267 1 16.9515 0.113772 15.1286 
269 1 9.57592 5.66649 16.9515 
275 1 12.2204 3.79566 14.307 
283 1 10.3976 4.84485 11.4349 
286 1 17.9889 6.70386 9.57592 
302 1 14.307 1.97278 10.3976 
305 1 13.2578 4.84485 12.2204 
3 1 9.93334 9.93334 0.471189 
6 1 13.722 13.722 0.471189 
7 1 17.5157 17.5157 0.299357 
8 1 16.166 17.9889 0.113772 
9 1 9.93334 13.722 4.25989 
12 1 13.722 9.93334 4.25989 
52 1 12.7846 14.4926 1.40859 
53 1 11.4349 14.307 0.935414 
61 1 14.4926 12.7846 1.40859 
62 1 14.307 13.2578 2.75829 
107 1 10.8707 12.7846 5.03043 
108 1 10.3976 11.4349 4.84485 
111 1 10.8707 14.4926 3.32248 
112 1 12.2204 14.307 3.79566 
128 1 15.6018 15.6018 0.299357 
129 1 16.9515 15.1286 0.113772 
141 1 9.76151 15.6018 6.13967 
142 1 9.57592 16.9515 5.66649 
145 1 15.6018 9.76151 6.13967 
146 1 15.1286 9.57592 7.48937 
159 1 12.7846 10.8707 5.03043 
160 1 13.2578 12.2204 4.84485 
169 1 14.4926 10.8707 3.32248 
170 1 14.307 10.3976 1.97278 
197 1 17.5157 9.76151 8.05356 
198 1 17.9889 9.57592 6.70386 
217 1 9.76151 17.5157 8.05356 
218 1 9.57592 16.166 8.52674 
230 1 14.307 11.4349 0.935414 
233 1 13.2578 14.307 2.75829 
239 1 17.9889 16.166 0.113772 
251 1 15.1286 16.9515 0.113772 
253 1 16.9515 9.57592 5.66649 
258 1 9.57592 15.1286 7.48937 
270 1 9.57592 17.9889 6.70386 
289 1 16.166 9.57592 8.52674 
298 1 11.4349 10.3976 4.84485 
301 1 14.307 12.2204 3.79566 
309 1 10.3976 14.307 1.97278 
316 1 12.2204 13.2578 4.84485 
46 1 12.7846 12.7846 18.6249 
47 1 13.2578 11.4349 18.8105 
58 1 12.7846 18.6249 12.7846 
59 1 11.4349 18.8105 13.2578 
70 1 18.6249 12.7846 12.7846 
71 1 18.8105 13.2578 11.4349 
75 1 14.6644 14.6644 18.4531 
78 1 18.4531 18.4531 18.4531 
81 1 18.4531 14.6644 14.6644 
82 1 10.8707 10.8707 18.6249 
83 1 10.3976 12.2204 18.8105 
84 1 14.6644 18.4531 14.6644 
115 1 10.8707 18.6249 10.8707 
116 1 12.2204 18.8105 10.3976 
137 1 13.8939 15.6018 17.5157 
138 1 14.0795 16.9515 17.9889 
151 1 15.6018 13.8939 17.5157 
152 1 15.1286 14.0795 16.166 
175 1 18.6249 10.8707 10.8707 
176 1 18.8105 10.3976 12.2204 
177 1 17.5157 15.6018 13.8939 
178 1 16.166 15.1286 14.0795 
195 1 17.5157 13.8939 15.6018 
196 1 17.9889 14.0795 16.9515 
213 1 15.6018 17.5157 13.8939 
214 1 16.9515 17.9889 14.0795 
221 1 13.8939 17.5157 15.6018 
222 1 14.0795 16.166 15.1286 
228 1 11.4349 13.2578 18.8105 
232 1 18.8105 11.4349 13.2578 
236 1 13.2578 18.8105 11.4349 
255 1 16.9515 14.0795 17.9889 
259 1 14.0795 15.1286 16.166 
263 1 15.1286 16.166 14.0795 
271 1 14.0795 17.9889 16.9515 
273 1 12.2204 10.3976 18.8105 
287 1 17.9889 16.9515 14.0795 
291 1 16.166 14.0795 15.1286 
303 1 18.8105 12.2204 10.3976 