ITEM: TIMESTEP
0
ITEM: NUMBER OF ATOMS
73
ITEM: BOX BOUNDS pp pp pp
0.0000000000000000e+00 1.3600000000000000e+01
0.0000000000000000e+00 1.3600000000000000e+01
0.0000000000000000e+00 1.3600000000000000e+01
ITEM: ATOMS id type x y z 
1 1 6.672 0.882 7.682 
2 1 6.673 1.896 8.696 
3 1 6.672 2.763 9.563 
7 1 6.673 5.663 12.463 
8 1 6.672 4.65 11.449 
9 1 6.672 3.783 10.582 
49 1 5.663 6.673 12.463 
50 1 4.65 6.672 11.449 
51 1 3.783 6.672 10.582 
55 1 0.882 6.672 7.682 
56 1 1.896 6.673 8.696 
57 1 2.763 6.672 9.563 
25 1 0.882 7.682 6.672 
26 1 1.896 8.696 6.673 
27 1 2.763 9.563 6.672 
31 1 5.663 12.463 6.673 
32 1 4.65 11.449 6.672 
33 1 3.783 10.582 6.672 
37 1 6.673 12.463 5.663 
38 1 6.672 11.449 4.65 
39 1 6.672 10.582 3.783 
43 1 6.672 7.682 0.882 
44 1 6.673 8.696 1.896 
45 1 6.672 9.563 2.763 
28 1 5.662 7.683 13.473 
29 1 4.649 8.696 13.472 
30 1 3.781 9.563 13.471 
34 1 0.882 12.462 13.473 
35 1 1.896 11.449 13.472 
36 1 2.763 10.582 13.472 
52 1 5.662 13.473 7.683 
53 1 4.649 13.472 8.696 
54 1 3.781 13.472 9.563 
58 1 0.882 13.472 12.462 
59 1 1.896 13.472 11.449 
60 1 2.763 13.472 10.582 
13 1 7.682 6.672 0.882 
14 1 8.696 6.673 1.896 
15 1 9.563 6.672 2.763 
19 1 12.463 6.673 5.663 
20 1 11.449 6.672 4.65 
21 1 10.582 6.672 3.783 
61 1 12.463 5.663 6.673 
62 1 11.449 4.65 6.672 
63 1 10.582 3.783 6.672 
67 1 7.682 0.882 6.672 
68 1 8.696 1.896 6.673 
69 1 9.563 2.763 6.672 
4 1 13.473 5.662 7.683 
5 1 13.472 4.649 8.696 
6 1 13.471 3.781 9.563 
10 1 13.473 0.883 12.462 
11 1 13.473 1.896 11.449 
12 1 13.472 2.763 10.582 
64 1 7.683 5.662 13.473 
65 1 8.696 4.649 13.472 
66 1 9.563 3.781 13.471 
70 1 12.462 0.883 13.473 
71 1 11.449 1.896 13.473 
72 1 10.582 2.763 13.472 
73 2 7.683 0.768 8.089 
16 1 7.683 13.473 5.662 
17 1 8.696 13.472 4.649 
18 1 9.563 13.471 3.781 
22 1 12.462 13.473 0.882 
23 1 11.449 13.473 1.896 
24 1 10.582 13.472 2.763 
40 1 13.473 7.683 5.662 
41 1 13.472 8.696 4.649 
42 1 13.471 9.563 3.781 
46 1 13.473 12.462 0.882 
47 1 13.473 11.449 1.896 
48 1 13.472 10.582 2.763 
ITEM: TIMESTEP
10
ITEM: NUMBER OF ATOMS
73
ITEM: BOX BOUNDS pp pp pp
0.0000000000000000e+00 1.3600000000000000e+01
0.0000000000000000e+00 1.3600000000000000e+01
0.0000000000000000e+00 1.3600000000000000e+01
ITEM: ATOMS id type x y z 
1 1 6.6569 0.881237 7.71114 
2 1 6.6208 1.94212 8.72527 
3 1 6.66629 2.80411 9.59437 
7 1 6.67277 5.67784 12.4782 
8 1 6.67242 4.67375 11.4719 
9 1 6.67345 3.80966 10.6093 
49 1 5.65653 6.67897 12.4623 
50 1 4.64684 6.67353 11.4476 
51 1 3.78083 6.67147 10.58 
55 1 0.884737 6.67217 7.68463 
56 1 1.89747 6.67528 8.69535 
57 1 2.76361 6.67107 9.56383 
25 1 0.883465 7.68385 6.67175 
26 1 1.89261 8.69077 6.67488 
27 1 2.75934 9.55975 6.67115 
31 1 5.65222 12.4515 6.67376 
32 1 4.64103 11.438 6.67017 
33 1 3.77248 10.5713 6.67099 
37 1 6.6498 12.426 5.65168 
38 1 6.66658 11.4387 4.64608 
39 1 6.67143 10.572 3.77251 
43 1 6.6719 7.68509 0.884842 
44 1 6.67488 8.69108 1.89298 
45 1 6.67127 9.56117 2.76063 
28 1 5.65871 7.68571 13.4723 
29 1 4.64831 8.69936 13.4746 
30 1 3.77831 9.56484 13.4706 
34 1 0.882189 12.4616 13.4736 
35 1 1.89553 11.4494 13.4717 
36 1 2.76208 10.5826 13.4716 
52 1 5.59814 13.4182 7.69115 
53 1 4.63267 13.4595 8.69971 
54 1 3.76778 13.4752 9.57818 
58 1 0.883039 13.473 12.4602 
59 1 1.89288 13.4697 11.4544 
60 1 2.76025 13.473 10.5844 
13 1 7.68567 6.67202 0.88561 
14 1 8.696 6.67547 1.89836 
15 1 9.56502 6.67106 2.76475 
19 1 12.4622 6.67843 5.65697 
20 1 11.4488 6.67313 4.64836 
21 1 10.5803 6.67155 3.78116 
61 1 12.4709 5.67105 6.67283 
62 1 11.464 4.66546 6.67175 
63 1 10.5957 3.79615 6.67328 
67 1 7.71912 0.931706 6.54478 
68 1 8.72142 1.92149 6.6416 
69 1 9.59435 2.79337 6.67529 
4 1 13.4785 5.66219 7.68858 
5 1 13.4732 4.6483 8.69755 
6 1 13.4712 3.77958 9.56487 
10 1 13.472 0.883805 12.462 
11 1 13.4748 1.89485 11.4487 
12 1 13.4705 2.76187 10.5832 
64 1 7.68893 5.66245 13.4792 
65 1 8.699 4.64724 13.4735 
66 1 9.56505 3.77932 13.4712 
70 1 12.463 0.885185 13.4698 
71 1 11.4487 1.89501 13.4747 
72 1 10.5831 2.76196 13.4705 
73 2 7.70993 0.671768 8.19515 
16 1 7.6877 13.4283 5.61356 
17 1 8.71399 13.4599 4.61979 
18 1 9.59004 13.4738 3.75519 
22 1 12.4626 13.4719 0.882855 
23 1 11.4565 13.4749 1.88643 
24 1 10.5896 13.4707 2.75669 
40 1 13.4725 7.68463 5.65988 
41 1 13.4743 8.69862 4.64884 
42 1 13.4705 9.5642 3.77949 
46 1 13.4745 12.4601 0.88264 
47 1 13.4752 11.4481 1.89463 
48 1 13.4704 10.5829 2.76242 
ITEM: TIMESTEP
20
ITEM: NUMBER OF ATOMS
73
ITEM: BOX BOUNDS pp pp pp
0.0000000000000000e+00 1.3600000000000000e+01
0.0000000000000000e+00 1.3600000000000000e+01
0.0000000000000000e+00 1.3600000000000000e+01
ITEM: ATOMS id type x y z 
1 1 6.71152 0.852134 7.70021 
2 1 6.5948 1.95162 8.71975 
3 1 6.64482 2.80624 9.58355 
7 1 6.67253 5.69713 12.4978 
8 1 6.67509 4.69114 11.4905 
9 1 6.67596 3.82611 10.6232 
49 1 5.64298 6.69248 12.4623 
50 1 4.64346 6.67623 11.4473 
51 1 3.77825 6.67083 10.5774 
55 1 0.886695 6.6719 7.68742 
56 1 1.89721 6.67297 8.69612 
57 1 2.76527 6.6726 9.56386 
25 1 0.879237 7.67963 6.67208 
26 1 1.8887 8.68875 6.67242 
27 1 2.75652 9.5556 6.67252 
31 1 5.656 12.4574 6.67613 
32 1 4.64095 11.4377 6.66976 
33 1 3.77432 10.5721 6.66957 
37 1 6.66406 12.441 5.65579 
38 1 6.66158 11.4389 4.65223 
39 1 6.67026 10.5772 3.77886 
43 1 6.67254 7.68667 0.886872 
44 1 6.67257 8.69393 1.89373 
45 1 6.67334 9.56219 2.76239 
28 1 5.655 7.69506 13.4776 
29 1 4.64402 8.70267 13.4743 
30 1 3.77539 9.56983 13.4723 
34 1 0.88721 12.4588 13.4714 
35 1 1.89546 11.4487 13.4721 
36 1 2.76363 10.5808 13.4708 
52 1 5.59609 13.4121 7.68472 
53 1 4.62845 13.4467 8.68794 
54 1 3.77137 13.4725 9.57334 
58 1 0.882519 13.4723 12.461 
59 1 1.89339 13.4726 11.4528 
60 1 2.76297 13.4738 10.5847 
13 1 7.68904 6.67729 0.893705 
14 1 8.69954 6.67448 1.90219 
15 1 9.56797 6.67262 2.76921 
19 1 12.4615 6.67915 5.65551 
20 1 11.4501 6.67464 4.64796 
21 1 10.581 6.67105 3.78143 
61 1 12.473 5.67261 6.67288 
62 1 11.4637 4.66493 6.67346 
63 1 10.5965 3.79545 6.67759 
67 1 7.72075 0.929259 6.54395 
68 1 8.71013 1.91429 6.602 
69 1 9.58578 2.77891 6.67208 
4 1 13.4777 5.6593 7.69059 
5 1 13.4744 4.64793 8.69935 
6 1 13.4709 3.77898 9.56577 
10 1 13.4749 0.886299 12.4569 
11 1 13.4724 1.89679 11.4479 
12 1 13.4721 2.764 10.5798 
64 1 7.70311 5.66072 13.4917 
65 1 8.70286 4.64627 13.4762 
66 1 9.56804 3.77624 13.4706 
70 1 12.4619 0.889986 13.4666 
71 1 11.4496 1.89643 13.4708 
72 1 10.5806 2.76312 13.4723 
73 2 7.69978 0.608179 8.19704 
16 1 7.67828 13.456 5.63104 
17 1 8.69893 13.4501 4.60908 
18 1 9.5828 13.4663 3.76571 
22 1 12.4742 13.4719 0.870902 
23 1 11.4648 13.4729 1.88111 
24 1 10.598 13.4742 2.74811 
40 1 13.4725 7.68893 5.65568 
41 1 13.4725 8.69949 4.64623 
42 1 13.4718 9.56743 3.7785 
46 1 13.4784 12.4542 0.885132 
47 1 13.4735 11.4468 1.89617 
48 1 13.4718 10.5795 2.76428 
ITEM: TIMESTEP
30
ITEM: NUMBER OF ATOMS
73
ITEM: BOX BOUNDS pp pp pp
0.0000000000000000e+00 1.3600000000000000e+01
0.0000000000000000e+00 1.3600000000000000e+01
0.0000000000000000e+00 1.3600000000000000e+01
ITEM: ATOMS id type x y z 
1 1 6.71744 0.844632 7.72952 
2 1 6.59694 1.95818 8.71864 
3 1 6.62156 2.81676 9.58037 
7 1 6.67323 5.69681 12.4977 
8 1 6.67798 4.69415 11.4941 
9 1 6.67171 3.8317 10.6237 
49 1 5.64318 6.6962 12.4668 
50 1 4.64369 6.67886 11.4499 
51 1 3.77943 6.6715 10.5786 
55 1 0.88414 6.67096 7.68597 
56 1 1.89663 6.67243 8.69549 
57 1 2.76455 6.67204 9.5625 
25 1 0.879231 7.67938 6.67187 
26 1 1.88709 8.68926 6.67092 
27 1 2.75704 9.55416 6.67194 
31 1 5.64789 12.4522 6.67778 
32 1 4.63923 11.4353 6.66916 
33 1 3.77146 10.5689 6.66966 
37 1 6.66202 12.4389 5.65581 
38 1 6.66098 11.4396 4.65451 
39 1 6.66818 10.5745 3.78015 
43 1 6.67195 7.69203 0.892592 
44 1 6.67522 8.69788 1.89726 
45 1 6.67186 9.5656 2.76537 
28 1 5.65835 7.69853 13.4831 
29 1 4.6437 8.70541 13.4792 
30 1 3.77447 9.57131 13.4715 
34 1 0.886765 12.4614 13.468 
35 1 1.89499 11.4512 13.4715 
36 1 2.7616 10.5823 13.4706 
52 1 5.60319 13.4199 7.68394 
53 1 4.62726 13.441 8.68396 
54 1 3.7696 13.4665 9.5685 
58 1 0.88709 13.4728 12.4559 
59 1 1.89844 13.4735 11.4502 
60 1 2.76715 13.4755 10.581 
13 1 7.68767 6.68496 0.897038 
14 1 8.69834 6.67532 1.90859 
15 1 9.57132 6.67405 2.77083 
19 1 12.4631 6.67877 5.65552 
20 1 11.4504 6.67369 4.65218 
21 1 10.5845 6.67161 3.78211 
61 1 12.4664 5.66591 6.67347 
62 1 11.4641 4.66365 6.6768 
63 1 10.595 3.79388 6.68043 
67 1 7.708 0.943465 6.51922 
68 1 8.71666 1.91902 6.58759 
69 1 9.59227 2.78577 6.6579 
4 1 13.4771 5.65945 7.69108 
5 1 13.476 4.64904 8.69835 
6 1 13.4704 3.7804 9.56532 
10 1 13.4778 0.88564 12.4548 
11 1 13.4731 1.89686 11.4458 
12 1 13.4722 2.765 10.5785 
64 1 7.70269 5.6664 13.4966 
65 1 8.70248 4.64889 13.4789 
66 1 9.56668 3.77755 13.4714 
70 1 12.4654 0.88872 13.4641 
71 1 11.4517 1.89562 13.4693 
72 1 10.582 2.76139 13.4713 
73 2 7.69557 0.549443 8.24099 
16 1 7.68072 13.4576 5.60755 
17 1 8.70132 13.4444 4.60389 
18 1 9.58498 13.4618 3.75279 
22 1 12.4755 13.4729 0.871417 
23 1 11.4665 13.4699 1.8792 
24 1 10.6006 13.4754 2.74926 
40 1 13.4725 7.68688 5.65625 
41 1 13.4723 8.70193 4.64881 
42 1 13.4723 9.56544 3.77767 
46 1 13.4798 12.4549 0.882486 
47 1 13.4749 11.447 1.8948 
48 1 13.4716 10.5809 2.76371 
ITEM: TIMESTEP
40
ITEM: NUMBER OF ATOMS
73
ITEM: BOX BOUNDS pp pp pp
0.0000000000000000e+00 1.3600000000000000e+01
0.0000000000000000e+00 1.3600000000000000e+01
0.0000000000000000e+00 1.3600000000000000e+01
ITEM: ATOMS id type x y z 
1 1 6.77917 0.815326 7.71841 
2 1 6.60821 1.95459 8.71902 
3 1 6.59822 2.82335 9.56134 
7 1 6.67502 5.70641 12.5054 
8 1 6.67905 4.68638 11.4893 
9 1 6.6583 3.83301 10.614 
49 1 5.65248 6.6937 12.474 
50 1 4.64223 6.68247 11.4519 
51 1 3.78093 6.6731 10.5808 
55 1 0.888757 6.67101 7.68956 
56 1 1.89731 6.67251 8.69688 
57 1 2.76653 6.67078 9.56308 
25 1 0.87698 7.67915 6.6711 
26 1 1.88852 8.68632 6.67283 
27 1 2.75505 9.55483 6.6699 
31 1 5.65576 12.4613 6.67615 
32 1 4.64111 11.439 6.66985 
33 1 3.77621 10.5707 6.66833 
37 1 6.65971 12.4481 5.66441 
38 1 6.66012 11.4443 4.65993 
39 1 6.66611 10.5795 3.78922 
43 1 6.67316 7.69515 0.894477 
44 1 6.67351 8.70364 1.90353 
45 1 6.6725 9.57271 2.77382 
28 1 5.65573 7.70271 13.486 
29 1 4.64542 8.7082 13.4811 
30 1 3.77432 9.57285 13.4742 
34 1 0.888231 12.4649 13.4643 
35 1 1.89352 11.4518 13.4684 
36 1 2.76115 10.5834 13.4704 
52 1 5.63567 13.4453 7.67994 
53 1 4.6356 13.4396 8.67383 
54 1 3.77336 13.4592 9.55597 
58 1 0.892014 13.4759 12.4522 
59 1 1.90262 13.4751 11.4428 
60 1 2.77373 13.4747 10.576 
13 1 7.68678 6.68095 0.908179 
14 1 8.70799 6.69196 1.90173 
15 1 9.56697 6.66872 2.77822 
19 1 12.4626 6.67452 5.66427 
20 1 11.4561 6.67048 4.64885 
21 1 10.5836 6.67305 3.78597 
61 1 12.4706 5.67016 6.67579 
62 1 11.4549 4.65478 6.67903 
63 1 10.5902 3.78376 6.6827 
67 1 7.66609 0.962337 6.49506 
68 1 8.69681 1.919 6.55663 
69 1 9.58134 2.77108 6.63942 
4 1 13.4757 5.66108 7.68746 
5 1 13.473 4.64845 8.69867 
6 1 13.4735 3.78036 9.56567 
10 1 13.4793 0.885018 12.4523 
11 1 13.4741 1.89777 11.4458 
12 1 13.4717 2.76458 10.5775 
64 1 7.69539 5.6726 13.4952 
65 1 8.70538 4.65005 13.4834 
66 1 9.56626 3.77842 13.4733 
70 1 12.4663 0.892157 13.4599 
71 1 11.4522 1.89625 13.4664 
72 1 10.5826 2.76101 13.47 
73 2 7.65646 0.467241 8.34788 
16 1 7.66676 13.4839 5.61287 
17 1 8.69455 13.4412 4.5962 
18 1 9.57925 13.4532 3.74915 
22 1 12.4758 13.4722 0.864799 
23 1 11.4783 13.4782 1.88109 
24 1 10.6039 13.4684 2.74137 
40 1 13.4693 7.69221 5.65781 
41 1 13.4806 8.69569 4.64184 
42 1 13.4682 9.57037 3.78134 
46 1 13.4821 12.4551 0.88 
47 1 13.4764 11.4469 1.89298 
48 1 13.4716 10.581 2.76281 
ITEM: TIMESTEP
50
ITEM: NUMBER OF ATOMS
73
ITEM: BOX BOUNDS pp pp pp
0.0000000000000000e+00 1.3600000000000000e+01
0.0000000000000000e+00 1.3600000000000000e+01
0.0000000000000000e+00 1.3600000000000000e+01
ITEM: ATOMS id type x y z 
1 1 6.79126 0.802619 7.73175 
2 1 6.62268 1.95265 8.70562 
3 1 6.59378 2.82516 9.5554 
7 1 6.67636 5.70037 12.5005 
8 1 6.67504 4.68547 11.4836 
9 1 6.64516 3.83476 10.6066 
49 1 5.65493 6.69321 12.4754 
50 1 4.6448 6.68333 11.4553 
51 1 3.78252 6.6741 10.5838 
55 1 0.886208 6.67179 7.68731 
56 1 1.89954 6.67152 8.69638 
57 1 2.76688 6.6715 9.56412 
25 1 0.878383 7.67905 6.67325 
26 1 1.8911 8.69033 6.67101 
27 1 2.75914 9.55614 6.67036 
31 1 5.65506 12.4668 6.67961 
32 1 4.6411 11.4434 6.67224 
33 1 3.77856 10.5742 6.66779 
37 1 6.66406 12.4573 5.6641 
38 1 6.66026 11.4489 4.66423 
39 1 6.66548 10.5825 3.79464 
43 1 6.67369 7.69699 0.896823 
44 1 6.67288 8.70646 1.90741 
45 1 6.672 9.57395 2.77651 
28 1 5.65872 7.70191 13.488 
29 1 4.64688 8.70812 13.4827 
30 1 3.77573 9.57242 13.4754 
34 1 0.887321 12.4683 13.4607 
35 1 1.89491 11.4546 13.466 
36 1 2.7598 10.5842 13.4704 
52 1 5.64003 13.4451 7.67738 
53 1 4.6493 13.4495 8.67218 
54 1 3.78287 13.457 9.54569 
58 1 0.897405 13.4777 12.4473 
59 1 1.90891 13.4748 11.436 
60 1 2.77707 13.4724 10.5675 
13 1 7.6921 6.69163 0.901088 
14 1 8.69181 6.6794 1.91888 
15 1 9.5758 6.67919 2.77017 
19 1 12.465 6.67281 5.66694 
20 1 11.4569 6.67116 4.65361 
21 1 10.587 6.6709 3.7883 
61 1 12.4606 5.66249 6.67712 
62 1 11.4526 4.64627 6.68245 
63 1 10.5854 3.77626 6.67628 
67 1 7.6619 0.962608 6.51007 
68 1 8.68611 1.92117 6.55577 
69 1 9.57245 2.77214 6.62337 
4 1 13.4735 5.66184 7.68442 
5 1 13.4727 4.65157 8.69758 
6 1 13.4732 3.78151 9.56273 
10 1 13.4819 0.882586 12.4529 
11 1 13.4767 1.89651 11.443 
12 1 13.4721 2.7662 10.5778 
64 1 7.69456 5.67377 13.4962 
65 1 8.70359 4.65266 13.4851 
66 1 9.56561 3.78057 13.4748 
70 1 12.4689 0.88956 13.4599 
71 1 11.4519 1.89645 13.4644 
72 1 10.5827 2.76187 13.4694 
73 2 7.63813 0.423816 8.38063 
16 1 7.66029 13.4952 5.60383 
17 1 8.68886 13.4507 4.59622 
18 1 9.5743 13.4475 3.7492 
22 1 12.4807 13.4777 0.870095 
23 1 11.465 13.4713 1.874 
24 1 10.6059 13.4687 2.74944 
40 1 13.4738 7.68605 5.65826 
41 1 13.4717 8.70052 4.64942 
42 1 13.4734 9.56519 3.77958 
46 1 13.4835 12.4581 0.876181 
47 1 13.4762 11.4475 1.89076 
48 1 13.4725 10.5829 2.76092 
ITEM: TIMESTEP
53
ITEM: NUMBER OF ATOMS
73
ITEM: BOX BOUNDS pp pp pp
0.0000000000000000e+00 1.3600000000000000e+01
0.0000000000000000e+00 1.3600000000000000e+01
0.0000000000000000e+00 1.3600000000000000e+01
ITEM: ATOMS id type x y z 
1 1 6.79189 0.801387 7.7319 
2 1 6.62319 1.95228 8.70523 
3 1 6.59361 2.8247 9.55381 
7 1 6.67691 5.69931 12.5 
8 1 6.67463 4.68619 11.4842 
9 1 6.6446 3.83567 10.6071 
49 1 5.65376 6.69422 12.4753 
50 1 4.64533 6.68335 11.4556 
51 1 3.7824 6.67419 10.5839 
55 1 0.885723 6.67103 7.68664 
56 1 1.89913 6.67237 8.69704 
57 1 2.76696 6.67101 9.56362 
25 1 0.878699 7.67882 6.67364 
26 1 1.89094 8.69017 6.67117 
27 1 2.75916 9.55609 6.67021 
31 1 5.65379 12.4682 6.6819 
32 1 4.64113 11.4434 6.67235 
33 1 3.77796 10.5738 6.66784 
37 1 6.66494 12.4579 5.66343 
38 1 6.66029 11.449 4.66432 
39 1 6.66548 10.5814 3.79365 
43 1 6.67428 7.69737 0.897172 
44 1 6.67235 8.70595 1.9073 
45 1 6.67221 9.57337 2.77588 
28 1 5.65961 7.70151 13.4887 
29 1 4.64695 8.70837 13.4826 
30 1 3.7756 9.57244 13.4756 
34 1 0.88761 12.4684 13.4609 
35 1 1.89445 11.4545 13.4654 
36 1 2.75995 10.5845 13.4706 
52 1 5.63997 13.4451 7.67786 
53 1 4.65009 13.4498 8.67138 
54 1 3.78373 13.4572 9.54512 
58 1 0.897616 13.4779 12.4472 
59 1 1.90878 13.4743 11.4359 
60 1 2.777 13.4725 10.5674 
13 1 7.6903 6.69104 0.900771 
14 1 8.69344 6.68089 1.91788 
15 1 9.57484 6.67831 2.77133 
19 1 12.4652 6.67263 5.66619 
20 1 11.4562 6.67211 4.65448 
21 1 10.5876 6.67055 3.78754 
61 1 12.4601 5.66172 6.6779 
62 1 11.4535 4.64644 6.68225 
63 1 10.5858 3.7769 6.67601 
67 1 7.66244 0.962811 6.5108 
68 1 8.68461 1.92038 6.55551 
69 1 9.5711 2.77126 6.62276 
4 1 13.4738 5.66254 7.68521 
5 1 13.4738 4.65113 8.69665 
6 1 13.4726 3.78232 9.56276 
10 1 13.4817 0.88275 12.4524 
11 1 13.4774 1.89653 11.4434 
12 1 13.4719 2.76589 10.5778 
64 1 7.69558 5.67385 13.4975 
65 1 8.70368 4.65348 13.485 
66 1 9.56512 3.7807 13.475 
70 1 12.4688 0.889013 13.4595 
71 1 11.4525 1.89715 13.4652 
72 1 10.5824 2.76157 13.4688 
73 2 7.63736 0.421251 8.38218 
16 1 7.66089 13.4973 5.60385 
17 1 8.68861 13.4511 4.59618 
18 1 9.57428 13.4476 3.74923 
22 1 12.4808 13.4768 0.869235 
23 1 11.4661 13.4727 1.87522 
24 1 10.6051 13.4676 2.74859 
40 1 13.4733 7.68605 5.65907 
41 1 13.4726 8.69999 4.64843 
42 1 13.4728 9.56597 3.7797 
46 1 13.4829 12.458 0.875907 
47 1 13.4767 11.4483 1.89156 
48 1 13.4724 10.5825 2.76031 
ITEM: TIMESTEP
60
ITEM: NUMBER OF ATOMS
73
ITEM: BOX BOUNDS pp pp pp
0.0000000000000000e+00 1.3600000000000000e+01
0.0000000000000000e+00 1.3600000000000000e+01
0.0000000000000000e+00 1.3600000000000000e+01
ITEM: ATOMS id type x y z 
1 1 6.82348 0.776301 7.75572 
2 1 6.63806 1.95339 8.70243 
3 1 6.59024 2.83749 9.53602 
7 1 6.67802 5.7014 12.5025 
8 1 6.66186 4.69073 11.482 
9 1 6.6259 3.84486 10.5992 
49 1 5.65615 6.69543 12.4771 
50 1 4.64719 6.68138 11.4567 
51 1 3.78381 6.67792 10.587 
55 1 0.887453 6.67203 7.68653 
56 1 1.89957 6.67046 8.69902 
57 1 2.76842 6.67236 9.56561 
25 1 0.878074 7.67859 6.67264 
26 1 1.89181 8.69011 6.66991 
27 1 2.75933 9.55484 6.66919 
31 1 5.6553 12.4725 6.67737 
32 1 4.63893 11.4453 6.67233 
33 1 3.77778 10.5765 6.66972 
37 1 6.66559 12.4681 5.65886 
38 1 6.66198 11.4531 4.66376 
39 1 6.66562 10.5824 3.79903 
43 1 6.67662 7.69937 0.898804 
44 1 6.67112 8.70772 1.90983 
45 1 6.67052 9.57348 2.78043 
28 1 5.66108 7.70161 13.4895 
29 1 4.64724 8.70909 13.4845 
30 1 3.77636 9.57275 13.4791 
34 1 0.887861 12.4707 13.4573 
35 1 1.89852 11.46 13.4597 
36 1 2.75858 10.5856 13.4703 
52 1 5.6456 13.4475 7.67605 
53 1 4.6568 13.4557 8.67075 
54 1 3.78805 13.4631 9.54532 
58 1 0.901377 13.4787 12.4437 
59 1 1.91156 13.4715 11.4321 
60 1 2.77704 13.4678 10.5602 
13 1 7.6804 6.68112 0.912904 
14 1 8.71555 6.70699 1.89975 
15 1 9.56071 6.66646 2.78737 
19 1 12.4669 6.67103 5.66902 
20 1 11.4562 6.67145 4.65821 
21 1 10.5927 6.67203 3.78721 
61 1 12.458 5.65991 6.68108 
62 1 11.4542 4.64193 6.68072 
63 1 10.5847 3.77481 6.66244 
67 1 7.65631 0.959607 6.52308 
68 1 8.67364 1.9247 6.55072 
69 1 9.55818 2.77605 6.60519 
4 1 13.474 5.66321 7.686 
5 1 13.4733 4.65191 8.69769 
6 1 13.4721 3.78282 9.56314 
10 1 13.4846 0.883199 12.4498 
11 1 13.4812 1.89711 11.4412 
12 1 13.4733 2.76555 10.5757 
64 1 7.69758 5.6764 13.4999 
65 1 8.70441 4.65329 13.4848 
66 1 9.56642 3.78244 13.4788 
70 1 12.4713 0.889301 13.4566 
71 1 11.4546 1.89888 13.4618 
72 1 10.5832 2.76179 13.4687 
73 2 7.61441 0.338449 8.43417 
16 1 7.64803 13.5121 5.59385 
17 1 8.68299 13.4645 4.59156 
18 1 9.56946 13.4463 3.74649 
22 1 12.4784 13.4736 0.860411 
23 1 11.4797 13.4827 1.8878 
24 1 10.5962 13.4532 2.73722 
40 1 13.4713 7.68495 5.65951 
41 1 13.474 8.70093 4.64895 
42 1 13.4715 9.56466 3.77892 
46 1 13.4832 12.4598 0.874416 
47 1 13.4796 11.4489 1.89011 
48 1 13.4737 10.5831 2.75856 
ITEM: TIMESTEP
70
ITEM: NUMBER OF ATOMS
73
ITEM: BOX BOUNDS pp pp pp
0.0000000000000000e+00 1.3600000000000000e+01
0.0000000000000000e+00 1.3600000000000000e+01
0.0000000000000000e+00 1.3600000000000000e+01
ITEM: ATOMS id type x y z 
1 1 6.87719 0.719904 7.81797 
2 1 6.67539 1.95307 8.70004 
3 1 6.58371 2.85995 9.50211 
7 1 6.67782 5.69627 12.5049 
8 1 6.63772 4.70054 11.469 
9 1 6.5867 3.86785 10.5758 
49 1 5.66108 6.69647 12.4823 
50 1 4.65079 6.68537 11.4609 
51 1 3.78688 6.68083 10.5914 
55 1 0.889234 6.67193 7.68617 
56 1 1.90132 6.671 8.70208 
57 1 2.76824 6.67437 9.56895 
25 1 0.879292 7.677 6.67225 
26 1 1.8933 8.69073 6.66754 
27 1 2.76187 9.55579 6.66817 
31 1 5.65212 12.4836 6.6722 
32 1 4.63689 11.4537 6.67202 
33 1 3.7771 10.5809 6.67184 
37 1 6.66136 12.49 5.64979 
38 1 6.66306 11.4651 4.66218 
39 1 6.66735 10.5834 3.80737 
43 1 6.67707 7.70065 0.903895 
44 1 6.66897 8.70816 1.91664 
45 1 6.66791 9.57203 2.78842 
28 1 5.66477 7.70403 13.4931 
29 1 4.64851 8.71102 13.4915 
30 1 3.77612 9.57355 13.4844 
34 1 0.890347 12.4748 13.4529 
35 1 1.90125 11.4641 13.4524 
36 1 2.76283 10.5908 13.4681 
52 1 5.66254 13.4555 7.67686 
53 1 4.67359 13.4695 8.6707 
54 1 3.79918 13.4714 9.53648 
58 1 0.906737 13.4789 12.4358 
59 1 1.91683 13.4676 11.4211 
60 1 2.78059 13.4619 10.5485 
13 1 7.68942 6.69067 0.907142 
14 1 8.7039 6.69945 1.91672 
15 1 9.57566 6.68747 2.77935 
19 1 12.4686 6.66834 5.67593 
20 1 11.459 6.66641 4.6634 
21 1 10.5889 6.66646 3.79875 
61 1 12.4544 5.65465 6.68475 
62 1 11.4526 4.63367 6.67247 
63 1 10.5771 3.77361 6.63178 
67 1 7.65221 0.949516 6.55641 
68 1 8.65298 1.92912 6.54566 
69 1 9.53402 2.78867 6.56893 
4 1 13.474 5.66749 7.68639 
5 1 13.4754 4.65669 8.69822 
6 1 13.4706 3.78514 9.56189 
10 1 13.4905 0.883406 12.4476 
11 1 13.4888 1.89371 11.4355 
12 1 13.4765 2.76646 10.5732 
64 1 7.69585 5.67698 13.5037 
65 1 8.70566 4.65682 13.491 
66 1 9.56792 3.78554 13.4818 
70 1 12.4742 0.888 13.4519 
71 1 11.4585 1.90008 13.4578 
72 1 10.5879 2.7635 13.4678 
73 2 7.56473 0.160182 8.53138 
16 1 7.62722 13.5488 5.57986 
17 1 8.66963 13.4914 4.57916 
18 1 9.55392 13.4464 3.73374 
22 1 12.4886 13.4829 0.865048 
23 1 11.4697 13.4651 1.87527 
24 1 10.6015 13.4496 2.73968 
40 1 13.4714 7.68494 5.66266 
41 1 13.4726 8.70029 4.64715 
42 1 13.4719 9.56508 3.77835 
46 1 13.4857 12.4631 0.86933 
47 1 13.4851 11.4483 1.88392 
48 1 13.4765 10.5855 2.75461 
ITEM: TIMESTEP
80
ITEM: NUMBER OF ATOMS
73
ITEM: BOX BOUNDS pp pp pp
0.0000000000000000e+00 1.3600000000000000e+01
0.0000000000000000e+00 1.3600000000000000e+01
0.0000000000000000e+00 1.3600000000000000e+01
ITEM: ATOMS id type x y z 
1 1 6.87758 0.720613 7.82024 
2 1 6.67691 1.94885 8.7042 
3 1 6.58591 2.85884 9.50429 
7 1 6.67605 5.69488 12.5049 
8 1 6.63747 4.70061 11.4652 
9 1 6.58841 3.86916 10.5713 
49 1 5.6615 6.69577 12.4824 
50 1 4.65 6.68689 11.4614 
51 1 3.78678 6.68021 10.5911 
55 1 0.889448 6.67273 7.6862 
56 1 1.90148 6.67261 8.70126 
57 1 2.76792 6.67411 9.56887 
25 1 0.879881 7.67723 6.67174 
26 1 1.89421 8.69105 6.66895 
27 1 2.76167 9.55684 6.66803 
31 1 5.6515 12.4852 6.67189 
32 1 4.6371 11.4551 6.67176 
33 1 3.77847 10.5822 6.67065 
37 1 6.65877 12.4908 5.64891 
38 1 6.66201 11.4665 4.66125 
39 1 6.66757 10.5847 3.8066 
43 1 6.67745 7.69989 0.904068 
44 1 6.67022 8.70796 1.91769 
45 1 6.6681 9.5717 2.7896 
28 1 5.66481 7.70356 13.4943 
29 1 4.64955 8.71091 13.4913 
30 1 3.77717 9.57348 13.4841 
34 1 0.890012 12.4744 13.4527 
35 1 1.90087 11.4628 13.4557 
36 1 2.76359 10.5906 13.467 
52 1 5.66282 13.4544 7.6789 
53 1 4.6723 13.4678 8.67049 
54 1 3.7984 13.4707 9.53683 
58 1 0.905917 13.4781 12.4352 
59 1 1.91635 13.4689 11.4208 
60 1 2.78146 13.464 10.5493 
13 1 7.69085 6.69154 0.905077 
14 1 8.70186 6.69502 1.91722 
15 1 9.57448 6.68758 2.77933 
19 1 12.4691 6.66824 5.6758 
20 1 11.4574 6.66782 4.66403 
21 1 10.59 6.66833 3.79662 
61 1 12.4562 5.65439 6.6833 
62 1 11.4506 4.6349 6.66912 
63 1 10.574 3.77578 6.63022 
67 1 7.65715 0.946402 6.56101 
68 1 8.65613 1.92776 6.54837 
69 1 9.53507 2.7888 6.57073 
4 1 13.4736 5.66798 7.68626 
5 1 13.4743 4.65579 8.69715 
6 1 13.4719 3.78603 9.56229 
10 1 13.4897 0.882629 12.4481 
11 1 13.4865 1.89451 11.4372 
12 1 13.4778 2.76528 10.5731 
64 1 7.69445 5.67589 13.5015 
65 1 8.70618 4.65733 13.4919 
66 1 9.56785 3.78535 13.4811 
70 1 12.4746 0.88822 13.4534 
71 1 11.4587 1.9001 13.4588 
72 1 10.5883 2.76374 13.4673 
73 2 7.56337 0.159144 8.52456 
16 1 7.62919 13.5472 5.58269 
17 1 8.6675 13.4903 4.57869 
18 1 9.55386 13.4526 3.73476 
22 1 12.4874 13.4813 0.865308 
23 1 11.4688 13.4641 1.87538 
24 1 10.5986 13.4494 2.73813 
40 1 13.4717 7.68547 5.66227 
41 1 13.4723 8.69969 4.64665 
42 1 13.4721 9.56543 3.77854 
46 1 13.4866 12.4636 0.869712 
47 1 13.4837 11.4488 1.88514 
48 1 13.4775 10.5842 2.75429 
ITEM: TIMESTEP
90
ITEM: NUMBER OF ATOMS
73
ITEM: BOX BOUNDS pp pp pp
0.0000000000000000e+00 1.3600000000000000e+01
0.0000000000000000e+00 1.3600000000000000e+01
0.0000000000000000e+00 1.3600000000000000e+01
ITEM: ATOMS id type x y z 
1 1 6.87679 0.719224 7.82206 
2 1 6.68042 1.9413 8.71155 
3 1 6.59049 2.85574 9.50731 
7 1 6.67301 5.69269 12.5036 
8 1 6.63682 4.70443 11.4606 
9 1 6.59198 3.8739 10.5653 
49 1 5.66022 6.69612 12.4826 
50 1 4.64822 6.68838 11.4625 
51 1 3.78624 6.68025 10.591 
55 1 0.888182 6.67339 7.68596 
56 1 1.90164 6.67434 8.7004 
57 1 2.76787 6.67446 9.56819 
25 1 0.881612 7.67804 6.67184 
26 1 1.89558 8.69177 6.67033 
27 1 2.76204 9.55869 6.66848 
31 1 5.64917 12.4876 6.67125 
32 1 4.63702 11.4564 6.66872 
33 1 3.77792 10.5838 6.66941 
37 1 6.65508 12.4933 5.64649 
38 1 6.66024 11.4689 4.65866 
39 1 6.66708 10.5868 3.80452 
43 1 6.67835 7.69908 0.905302 
44 1 6.67256 8.70661 1.91886 
45 1 6.66921 9.57027 2.7909 
28 1 5.66535 7.70217 13.496 
29 1 4.651 8.71079 13.4911 
30 1 3.77952 9.57419 13.4827 
34 1 0.890284 12.4733 13.4532 
35 1 1.90003 11.461 13.4589 
36 1 2.76452 10.5905 13.4674 
52 1 5.66117 13.4525 7.68199 
53 1 4.66956 13.4643 8.67179 
54 1 3.79594 13.4696 9.53856 
58 1 0.903501 13.4768 12.4351 
59 1 1.91417 13.4712 11.4218 
60 1 2.78106 13.4682 10.5519 
13 1 7.69117 6.68963 0.902386 
14 1 8.70218 6.69094 1.91521 
15 1 9.57179 6.68542 2.78042 
19 1 12.469 6.67065 5.67435 
20 1 11.4557 6.66521 4.66417 
21 1 10.5906 6.67467 3.79456 
61 1 12.4587 5.65404 6.6799 
62 1 11.4486 4.64022 6.66317 
63 1 10.5707 3.78222 6.62657 
67 1 7.66708 0.940081 6.5672 
68 1 8.66294 1.92393 6.55524 
69 1 9.53707 2.78979 6.57402 
4 1 13.4734 5.66811 7.68592 
5 1 13.4734 4.65511 8.69637 
6 1 13.4742 3.78601 9.56208 
10 1 13.4879 0.88184 12.4488 
11 1 13.4837 1.89523 11.4388 
12 1 13.479 2.76506 10.5738 
64 1 7.69346 5.67415 13.4993 
65 1 8.70584 4.65673 13.4908 
66 1 9.56864 3.78579 13.4808 
70 1 12.4751 0.888452 13.4561 
71 1 11.4588 1.90035 13.4605 
72 1 10.5889 2.7644 13.4669 
73 2 7.56588 0.151587 8.51585 
16 1 7.63274 13.5429 5.58735 
17 1 8.66642 13.4919 4.57951 
18 1 9.55122 13.4617 3.73353 
22 1 12.4842 13.4785 0.864809 
23 1 11.4685 13.4612 1.87738 
24 1 10.5927 13.4521 2.73469 
40 1 13.4728 7.68608 5.66247 
41 1 13.4707 8.69839 4.64526 
42 1 13.4733 9.56542 3.77844 
46 1 13.4874 12.464 0.870802 
47 1 13.4831 11.4496 1.88612 
48 1 13.4782 10.5837 2.75406 
ITEM: TIMESTEP
100
ITEM: NUMBER OF ATOMS
73
ITEM: BOX BOUNDS pp pp pp
0.0000000000000000e+00 1.3600000000000000e+01
0.0000000000000000e+00 1.3600000000000000e+01
0.0000000000000000e+00 1.3600000000000000e+01
ITEM: ATOMS id type x y z 
1 1 6.87894 0.704415 7.82968 
2 1 6.68998 1.92643 8.72334 
3 1 6.60382 2.84748 9.51181 
7 1 6.66954 5.6953 12.5007 
8 1 6.63496 4.71355 11.4506 
9 1 6.59969 3.88174 10.5558 
49 1 5.65474 6.69652 12.485 
50 1 4.6451 6.68963 11.4628 
51 1 3.78283 6.68335 10.5913 
55 1 0.886511 6.6743 7.68684 
56 1 1.9029 6.67843 8.69702 
57 1 2.76619 6.6751 9.5675 
25 1 0.881829 7.67846 6.67052 
26 1 1.89549 8.69232 6.67526 
27 1 2.76105 9.55965 6.66742 
31 1 5.6443 12.4925 6.66592 
32 1 4.63184 11.462 6.6671 
33 1 3.77623 10.5859 6.66359 
37 1 6.64942 12.4984 5.64064 
38 1 6.65665 11.4739 4.65298 
39 1 6.66442 10.5906 3.79953 
43 1 6.68062 7.69635 0.906903 
44 1 6.67723 8.70121 1.92296 
45 1 6.67261 9.56912 2.7906 
28 1 5.66577 7.70215 13.4997 
29 1 4.65388 8.71204 13.4917 
30 1 3.78381 9.57683 13.4812 
34 1 0.890785 12.4709 13.4548 
35 1 1.90049 11.4589 13.4617 
36 1 2.76627 10.5899 13.4698 
52 1 5.65788 13.4481 7.68507 
53 1 4.66441 13.4592 8.6747 
54 1 3.79231 13.4691 9.54317 
58 1 0.897868 13.4769 12.4391 
59 1 1.90675 13.473 11.4239 
60 1 2.77761 13.4759 10.5582 
13 1 7.69041 6.68349 0.900513 
14 1 8.70329 6.68369 1.91076 
15 1 9.57101 6.68374 2.77796 
19 1 12.4686 6.67133 5.66961 
20 1 11.4596 6.6832 4.65625 
21 1 10.5827 6.67189 3.79811 
61 1 12.4627 5.65564 6.67574 
62 1 11.4449 4.65082 6.6521 
63 1 10.5652 3.79443 6.61857 
67 1 7.68473 0.925941 6.58482 
68 1 8.67537 1.9174 6.57239 
69 1 9.54178 2.78977 6.58121 
4 1 13.4755 5.66629 7.68526 
5 1 13.4728 4.65364 8.69581 
6 1 13.4778 3.78417 9.56146 
10 1 13.4825 0.88273 12.4507 
11 1 13.4817 1.89618 11.4401 
12 1 13.4798 2.76702 10.576 
64 1 7.69156 5.67108 13.4944 
65 1 8.70232 4.65224 13.4854 
66 1 9.57146 3.78763 13.4783 
70 1 12.4734 0.887702 13.4607 
71 1 11.4596 1.90103 13.4637 
72 1 10.5904 2.76623 13.4694 
73 2 7.57523 0.125294 8.50273 
16 1 7.64001 13.5368 5.59727 
17 1 8.6659 13.5005 4.5815 
18 1 9.54319 13.4766 3.7273 
22 1 12.4807 13.4719 0.865313 
23 1 11.4601 13.4673 1.87188 
24 1 10.5851 13.4552 2.73012 
40 1 13.4746 7.68678 5.66173 
41 1 13.4771 8.70062 4.64671 
42 1 13.4715 9.56271 3.77467 
46 1 13.4881 12.4621 0.873127 
47 1 13.4847 11.4488 1.88748 
48 1 13.4791 10.5835 2.75611 
ITEM: TIMESTEP
110
ITEM: NUMBER OF ATOMS
73
ITEM: BOX BOUNDS pp pp pp
0.0000000000000000e+00 1.3600000000000000e+01
0.0000000000000000e+00 1.3600000000000000e+01
0.0000000000000000e+00 1.3600000000000000e+01
ITEM: ATOMS id type x y z 
1 1 6.87936 0.704258 7.83019 
2 1 6.69067 1.9259 8.72397 
3 1 6.60444 2.84737 9.51198 
7 1 6.66958 5.69524 12.4998 
8 1 6.63486 4.71318 11.4501 
9 1 6.6001 3.88157 10.5554 
49 1 5.655 6.6966 12.485 
50 1 4.64482 6.68924 11.4631 
51 1 3.78278 6.68346 10.5914 
55 1 0.886683 6.67391 7.68629 
56 1 1.90193 6.67808 8.69823 
57 1 2.76701 6.67576 9.56719 
25 1 0.882153 7.67889 6.67232 
26 1 1.89663 8.6915 6.67356 
27 1 2.7609 9.56057 6.66823 
31 1 5.64398 12.4929 6.66581 
32 1 4.63214 11.4618 6.666 
33 1 3.77576 10.5865 6.66392 
37 1 6.64934 12.4986 5.6407 
38 1 6.65656 11.4741 4.65294 
39 1 6.66436 10.5911 3.79961 
43 1 6.68034 7.69568 0.9075 
44 1 6.67843 8.70207 1.92232 
45 1 6.67209 9.56885 2.79117 
28 1 5.66581 7.70202 13.4996 
29 1 4.65398 8.71217 13.492 
30 1 3.78374 9.57697 13.4814 
34 1 0.890597 12.4711 13.4549 
35 1 1.9005 11.4592 13.4617 
36 1 2.7664 10.59 13.4697 
52 1 5.65783 13.448 7.6854 
53 1 4.66442 13.4594 8.67491 
54 1 3.79236 13.4692 9.54304 
58 1 0.897088 13.476 12.4381 
59 1 1.90886 13.475 11.4257 
60 1 2.77664 13.4747 10.5569 
13 1 7.69035 6.68372 0.900417 
14 1 8.70325 6.68288 1.91065 
15 1 9.57043 6.68313 2.7784 
19 1 12.4693 6.67226 5.66948 
20 1 11.4582 6.68084 4.65749 
21 1 10.584 6.67411 3.79685 
61 1 12.4625 5.6561 6.67547 