ITEM: TIMESTEP
0
ITEM: NUMBER OF ATOMS
50
ITEM: BOX BOUNDS pp pp pp
0.0000000000000000e+00 1.1000000000000000e+01
0.0000000000000000e+00 1.1002000000000001e+01
0.0000000000000000e+00 1.1000000000000000e+01
ITEM: ATOMS id type x y z 
10 1 4.603 4.603 4.603 
11 1 3.085 3.085 3.085 
12 1 3.796 3.796 3.796 
46 1 0.726 0.725 0.725 
47 1 2.26 2.259 2.26 
48 1 1.551 1.55 1.55 
49 2 1.135 1.236 2.804 
50 3 1.135 1.236 3.78 
19 1 4.546 4.545 6.226 
20 1 3.013 3.013 7.764 
21 1 3.721 3.721 7.053 
31 1 0.668 0.667 10.103 
32 1 2.187 2.187 8.589 
33 1 1.476 1.475 9.298 
16 1 4.546 6.225 4.546 
17 1 3.013 7.765 3.013 
18 1 3.721 7.053 3.722 
25 1 0.668 10.103 0.668 
26 1 2.188 8.589 2.188 
27 1 1.476 9.298 1.476 
4 1 4.608 6.169 6.169 
5 1 3.086 7.684 7.684 
6 1 3.799 6.974 6.974 
37 1 0.729 10.046 10.046 
38 1 2.259 8.509 8.508 
39 1 1.552 9.219 9.219 
13 1 6.225 4.546 4.546 
14 1 7.764 3.013 3.013 
15 1 7.053 3.721 3.722 
28 1 10.102 0.667 0.668 
29 1 8.589 2.187 2.188 
30 1 9.298 1.475 1.476 
1 1 6.168 4.608 6.169 
2 1 7.684 3.086 7.684 
3 1 6.974 3.799 6.974 
40 1 10.045 0.728 10.046 
41 1 8.508 2.259 8.508 
42 1 9.218 1.551 9.218 
7 1 6.169 6.169 4.608 
8 1 7.684 7.684 3.086 
9 1 6.974 6.974 3.799 
43 1 10.046 10.047 0.729 
44 1 8.508 8.509 2.259 
45 1 9.219 9.219 1.552 
22 1 6.229 6.229 6.229 
23 1 7.764 7.765 7.765 
24 1 7.055 7.056 7.055 
34 1 10.108 10.108 10.107 
35 1 8.59 8.59 8.59 
36 1 9.301 9.301 9.3 
ITEM: TIMESTEP
10
ITEM: NUMBER OF ATOMS
50
ITEM: BOX BOUNDS pp pp pp
0.0000000000000000e+00 1.1000000000000000e+01
0.0000000000000000e+00 1.1002000000000001e+01
0.0000000000000000e+00 1.1000000000000000e+01
ITEM: ATOMS id type x y z 
10 1 4.59185 4.5903 4.59154 
11 1 3.09075 3.0897 3.08185 
12 1 3.80265 3.80632 3.80197 
46 1 0.684827 0.68582 0.667627 
47 1 2.32125 2.3196 2.25885 
48 1 1.55904 1.55898 1.65764 
49 2 1.14904 1.24266 2.781 
50 3 1.11511 1.21994 3.79219 
19 1 4.54608 4.5454 6.22685 
20 1 3.01448 3.01391 7.76378 
21 1 3.7212 3.72105 7.05104 
31 1 0.670333 0.669586 10.1097 
32 1 2.18799 2.18811 8.58473 
33 1 1.48081 1.48074 9.3003 
16 1 4.54679 6.22498 4.54574 
17 1 3.01454 7.76301 3.01362 
18 1 3.72141 7.05263 3.72364 
25 1 0.667997 10.1118 0.668624 
26 1 2.18676 8.58816 2.1882 
27 1 1.47954 9.30149 1.47787 
4 1 4.60871 6.16636 6.16459 
5 1 3.08875 7.68301 7.68309 
6 1 3.79793 6.97169 6.97155 
37 1 0.723254 10.0273 10.0314 
38 1 2.26058 8.50941 8.50703 
39 1 1.55098 9.21659 9.2193 
13 1 6.22462 4.54688 4.54503 
14 1 7.76267 3.01406 3.01322 
15 1 7.05348 3.72138 3.72453 
28 1 10.1103 0.667566 0.667395 
29 1 8.58706 2.1862 2.1873 
30 1 9.30154 1.4783 1.47889 
1 1 6.16396 4.60743 6.16545 
2 1 7.6813 3.08703 7.68343 
3 1 6.97491 3.80011 6.97085 
40 1 10.0264 0.722211 10.0323 
41 1 8.50791 2.26247 8.50751 
42 1 9.21694 1.54685 9.21801 
7 1 6.16442 6.16501 4.6089 
8 1 7.68279 7.68314 3.08873 
9 1 6.972 6.97117 3.79794 
43 1 10.032 10.0335 0.725392 
44 1 8.50699 8.50888 2.26125 
45 1 9.21833 9.21685 1.55115 
22 1 6.2288 6.22905 6.22963 
23 1 7.76415 7.76474 7.76589 
24 1 7.05605 7.05677 7.05385 
34 1 10.1111 10.1136 10.1104 
35 1 8.58891 8.59068 8.59135 
36 1 9.30276 9.3005 9.29791 
ITEM: TIMESTEP
20
ITEM: NUMBER OF ATOMS
50
ITEM: BOX BOUNDS pp pp pp
0.0000000000000000e+00 1.1000000000000000e+01
0.0000000000000000e+00 1.1002000000000001e+01
0.0000000000000000e+00 1.1000000000000000e+01
ITEM: ATOMS id type x y z 
10 1 4.59947 4.59891 4.60238 
11 1 3.09617 3.09615 3.07144 
12 1 3.80658 3.80772 3.79902 
46 1 0.680654 0.680254 0.658009 
47 1 2.32989 2.32595 2.24886 
48 1 1.54713 1.55309 1.71646 
49 2 1.16151 1.25039 2.77535 
50 3 1.10404 1.21084 3.78573 
19 1 4.54585 4.5454 6.22943 
20 1 3.01282 3.01279 7.763 
21 1 3.72256 3.7216 7.05325 
31 1 0.671933 0.671873 10.1103 
32 1 2.18941 2.19054 8.58687 
33 1 1.48046 1.47815 9.29822 
16 1 4.54583 6.22907 4.54629 
17 1 3.01245 7.76419 3.01267 
18 1 3.72122 7.05454 3.72173 
25 1 0.666239 10.1144 0.666016 
26 1 2.18692 8.59151 2.18716 
27 1 1.47638 9.30214 1.47684 
4 1 4.60795 6.16803 6.16486 
5 1 3.08825 7.68351 7.68218 
6 1 3.79968 6.97101 6.97221 
37 1 0.719671 10.0237 10.0317 
38 1 2.26451 8.50833 8.50693 
39 1 1.54641 9.21237 9.2152 
13 1 6.22937 4.54598 4.54664 
14 1 7.76435 3.01208 3.01364 
15 1 7.05355 3.72163 3.72073 
28 1 10.1134 0.666036 0.665304 
29 1 8.59083 2.18685 2.187 
30 1 9.30089 1.47484 1.47706 
1 1 6.1667 4.60797 6.16574 
2 1 7.68305 3.08842 7.68325 
3 1 6.97188 3.79912 6.97051 
40 1 10.0225 0.717615 10.0312 
41 1 8.5075 2.26409 8.50668 
42 1 9.21182 1.54534 9.21518 
7 1 6.16539 6.16544 4.60748 
8 1 7.68234 7.68298 3.08812 
9 1 6.97225 6.97128 3.79978 
43 1 10.033 10.0328 0.724231 
44 1 8.50769 8.50759 2.26329 
45 1 9.2145 9.21621 1.54846 
22 1 6.22932 6.22998 6.22894 
23 1 7.76378 7.76489 7.7637 
24 1 7.05447 7.05436 7.05578 
34 1 10.1111 10.1116 10.1066 
35 1 8.58951 8.58932 8.58867 
36 1 9.29887 9.30012 9.29996 
ITEM: TIMESTEP
30
ITEM: NUMBER OF ATOMS
50
ITEM: BOX BOUNDS pp pp pp
0.0000000000000000e+00 1.1000000000000000e+01
0.0000000000000000e+00 1.1002000000000001e+01
0.0000000000000000e+00 1.1000000000000000e+01
ITEM: ATOMS id type x y z 
10 1 4.60072 4.60035 4.60488 
11 1 3.10631 3.10577 3.06585 
12 1 3.81187 3.81175 3.79764 
46 1 0.680571 0.67966 0.65508 
47 1 2.33004 2.32547 2.24053 
48 1 1.54033 1.54961 1.74119 
49 2 1.16574 1.25226 2.78413 
50 3 1.09476 1.20307 3.78233 
19 1 4.54658 4.54568 6.23142 
20 1 3.01312 3.01261 7.76246 
21 1 3.72235 3.7224 7.05406 
31 1 0.673329 0.671704 10.1123 
32 1 2.18893 2.18858 8.58767 
33 1 1.47978 1.48003 9.30092 
16 1 4.54648 6.23175 4.54713 
17 1 3.01162 7.76492 3.01202 
18 1 3.72107 7.05563 3.72145 
25 1 0.664638 10.117 0.664473 
26 1 2.1852 8.59319 2.18594 
27 1 1.47669 9.3047 1.47621 
4 1 4.60771 6.16813 6.16421 
5 1 3.08854 7.68342 7.68269 
6 1 3.79977 6.97272 6.97176 
37 1 0.716093 10.0215 10.0295 
38 1 2.26436 8.50732 8.50607 
39 1 1.54558 9.21069 9.21497 
13 1 6.23154 4.54705 4.54708 
14 1 7.76396 3.01224 3.013 
15 1 7.05561 3.72076 3.72129 
28 1 10.1159 0.664189 0.663838 
29 1 8.59244 2.1847 2.18564 
30 1 9.30383 1.47559 1.47646 
1 1 6.16715 4.60714 6.16385 
2 1 7.68297 3.08822 7.68271 
3 1 6.97322 3.8001 6.97179 
40 1 10.0202 0.71439 10.0292 
41 1 8.50628 2.26436 8.50564 
42 1 9.21023 1.54421 9.21488 
7 1 6.16545 6.16421 4.60672 
8 1 7.68303 7.68285 3.08857 
9 1 6.97166 6.97203 3.79904 
43 1 10.0312 10.032 0.723376 
44 1 8.50677 8.5077 2.26284 
45 1 9.2151 9.21506 1.54841 
22 1 6.22937 6.22962 6.22959 
23 1 7.76329 7.7638 7.76367 
24 1 7.05378 7.05458 7.05446 
34 1 10.1098 10.1103 10.105 
35 1 8.58819 8.58855 8.58854 
36 1 9.29892 9.29933 9.29751 
ITEM: TIMESTEP
40
ITEM: NUMBER OF ATOMS
50
ITEM: BOX BOUNDS pp pp pp
0.0000000000000000e+00 1.1000000000000000e+01
0.0000000000000000e+00 1.1002000000000001e+01
0.0000000000000000e+00 1.1000000000000000e+01
ITEM: ATOMS id type x y z 
10 1 4.60315 4.60472 4.61062 
11 1 3.12124 3.11796 3.04764 
12 1 3.81999 3.81928 3.7907 
46 1 0.68324 0.681746 0.654692 
47 1 2.33569 2.33086 2.23478 
48 1 1.52963 1.54416 1.77378 
49 2 1.17035 1.25324 2.80539 
50 3 1.07523 1.18661 3.78392 
19 1 4.54709 4.54657 6.23386 
20 1 3.01212 3.01182 7.76302 
21 1 3.72263 3.72229 7.05545 
31 1 0.674013 0.671825 10.1174 
32 1 2.18902 2.18805 8.58985 
33 1 1.47877 1.48008 9.30272 
16 1 4.54767 6.23583 4.54853 
17 1 3.01079 7.76604 3.01141 
18 1 3.71999 7.05849 3.72058 
25 1 0.66193 10.122 0.662346 
26 1 2.18349 8.59768 2.18554 
27 1 1.4756 9.30591 1.47233 
4 1 4.60682 6.16979 6.16248 
5 1 3.08908 7.68374 7.68351 
6 1 3.80034 6.97464 6.97081 
37 1 0.711856 10.0182 10.0275 
38 1 2.26446 8.50582 8.50785 
39 1 1.53961 9.20928 9.21077 
13 1 6.23606 4.548 4.54785 
14 1 7.76649 3.00974 3.01061 
15 1 7.05838 3.7202 3.7207 
28 1 10.121 0.662153 0.660031 
29 1 8.5972 2.1838 2.18412 
30 1 9.30512 1.47231 1.47421 
1 1 6.1688 4.60574 6.16296 
2 1 7.68338 3.08813 7.68302 
3 1 6.97481 3.80177 6.97203 
40 1 10.0158 0.709321 10.0275 
41 1 8.50447 2.26224 8.50767 
42 1 9.21047 1.54132 9.211 
7 1 6.16494 6.16406 4.60444 
8 1 7.68406 7.68319 3.08881 
9 1 6.97067 6.97283 3.79792 
43 1 10.0299 10.0306 0.722688 
44 1 8.50716 8.50735 2.26218 
45 1 9.2142 9.21501 1.54706 
22 1 6.22974 6.22954 6.22983 
23 1 7.76281 7.76231 7.76247 
24 1 7.0511 7.05365 7.05362 
34 1 10.1088 10.1094 10.1007 
35 1 8.58598 8.58627 8.58633 
36 1 9.29682 9.29751 9.29475 
ITEM: TIMESTEP
50
ITEM: NUMBER OF ATOMS
50
ITEM: BOX BOUNDS pp pp pp
0.0000000000000000e+00 1.1000000000000000e+01
0.0000000000000000e+00 1.1002000000000001e+01
0.0000000000000000e+00 1.1000000000000000e+01
ITEM: ATOMS id type x y z 
10 1 4.60707 4.60593 4.61401 
11 1 3.13991 3.13325 3.01952 
12 1 3.83254 3.83036 3.77319 
46 1 0.688251 0.685186 0.661564 
47 1 2.33974 2.3356 2.23215 
48 1 1.52386 1.54329 1.79654 
49 2 1.17152 1.25113 2.83622 
50 3 1.04171 1.15782 3.80928 
19 1 4.54729 4.54659 6.23317 
20 1 3.01105 3.01151 7.76366 
21 1 3.72318 3.72163 7.05673 
31 1 0.676712 0.67241 10.1255 
32 1 2.18772 2.18738 8.59189 
33 1 1.48046 1.48004 9.308 
16 1 4.54905 6.24047 4.54842 
17 1 3.00853 7.76989 3.00887 
18 1 3.71895 7.06309 3.72034 
25 1 0.659267 10.1284 0.659517 
26 1 2.18108 8.60227 2.18333 
27 1 1.47398 9.31037 1.47036 
4 1 4.60532 6.17227 6.15974 
5 1 3.08847 7.68558 7.68265 
6 1 3.8021 6.97491 6.97352 
37 1 0.706076 10.0186 10.0234 
38 1 2.25862 8.50673 8.50893 
39 1 1.53612 9.20654 9.21218 
13 1 6.2388 4.54965 4.54848 
14 1 7.76465 3.00981 3.01087 
15 1 7.06822 3.71997 3.7206 
28 1 10.1272 0.659995 0.659136 
29 1 8.60187 2.18216 2.18128 
30 1 9.30937 1.46949 1.47293 
1 1 6.17092 4.60571 6.15885 
2 1 7.68484 3.08947 7.68408 
3 1 6.97532 3.79955 6.97071 
40 1 10.016 0.705148 10.0226 
41 1 8.50283 2.2597 8.50566 
42 1 9.20703 1.53779 9.21293 
7 1 6.16406 6.16101 4.59992 
8 1 7.68407 7.68471 3.08834 
9 1 6.97247 6.97139 3.79569 
43 1 10.0306 10.0304 0.720703 
44 1 8.50618 8.50614 2.26064 
45 1 9.21686 9.21835 1.54644 
22 1 6.22868 6.22802 6.22722 
23 1 7.76006 7.7595 7.75784 
24 1 7.04688 7.04955 7.05448 
34 1 10.1083 10.1064 10.0953 
35 1 8.58152 8.58326 8.58412 
36 1 9.29665 9.29459 9.28844 
ITEM: TIMESTEP
60
ITEM: NUMBER OF ATOMS
50
ITEM: BOX BOUNDS pp pp pp
0.0000000000000000e+00 1.1000000000000000e+01
0.0000000000000000e+00 1.1002000000000001e+01
0.0000000000000000e+00 1.1000000000000000e+01
ITEM: ATOMS id type x y z 
10 1 4.61175 4.61219 4.61303 
11 1 3.17457 3.16278 2.96578 
12 1 3.85202 3.84569 3.74457 
46 1 0.694928 0.693617 0.669207 
47 1 2.3472 2.34474 2.22517 
48 1 1.51397 1.54134 1.8463 
49 2 1.17148 1.24679 2.89503 
50 3 0.976017 1.10035 3.85642 
19 1 4.54734 4.5463 6.22801 
20 1 3.01305 3.01268 7.76465 
21 1 3.72142 3.72099 7.05462 
31 1 0.67964 0.677345 10.1437 
32 1 2.18637 2.18657 8.59407 
33 1 1.48565 1.48414 9.32024 
16 1 4.54812 6.2471 4.54977 
17 1 3.0059 7.77537 3.00953 
18 1 3.71993 7.07177 3.71767 
25 1 0.656182 10.1401 0.659343 
26 1 2.17942 8.60699 2.17832 
27 1 1.47156 9.32054 1.47213 
4 1 4.60134 6.17122 6.15535 
5 1 3.08996 7.6865 7.68648 
6 1 3.7989 6.97915 6.97064 
37 1 0.697827 10.0202 10.018 
38 1 2.25283 8.50047 8.50689 
39 1 1.52982 9.20646 9.20909 
13 1 6.24851 4.55085 4.54793 
14 1 7.77693 3.00741 3.0076 
15 1 7.07342 3.71826 3.71895 
28 1 10.1392 0.654646 0.655484 
29 1 8.60531 2.17627 2.17735 
30 1 9.31997 1.47032 1.47121 
1 1 6.17014 4.60073 6.15671 
2 1 7.68618 3.08909 7.68507 
3 1 6.97763 3.79712 6.96852 
40 1 10.0192 0.699658 10.0208 
41 1 8.50115 2.25444 8.50875 
42 1 9.20419 1.52817 9.20995 
7 1 6.16186 6.15908 4.58715 
8 1 7.68753 7.68594 3.08523 
9 1 6.97157 6.97235 3.78845 
43 1 10.0311 10.0323 0.720354 
44 1 8.50925 8.51041 2.25898 
45 1 9.21698 9.21811 1.5433 
22 1 6.22289 6.22278 6.22844 
23 1 7.75393 7.75479 7.75755 
24 1 7.04241 7.04493 7.04907 
34 1 10.1065 10.1053 10.0814 
35 1 8.57893 8.57774 8.57546 
36 1 9.28997 9.29088 9.28229 
ITEM: TIMESTEP
70
ITEM: NUMBER OF ATOMS
50
ITEM: BOX BOUNDS pp pp pp
0.0000000000000000e+00 1.1000000000000000e+01
0.0000000000000000e+00 1.1002000000000001e+01
0.0000000000000000e+00 1.1000000000000000e+01
ITEM: ATOMS id type x y z 
10 1 4.6119 4.61196 4.61176 
11 1 3.17454 3.16262 2.96546 
12 1 3.85238 3.84626 3.74246 
46 1 0.696107 0.693462 0.671091 
47 1 2.34734 2.345 2.22426 
48 1 1.51335 1.5405 1.84833 
49 2 1.17038 1.24621 2.89726 
50 3 0.973139 1.09748 3.8576 
19 1 4.54666 4.54547 6.22644 
20 1 3.0133 3.01309 7.76407 
21 1 3.72194 3.72127 7.0534 
31 1 0.681213 0.678936 10.1451 
32 1 2.18783 2.18772 8.59579 
33 1 1.48469 1.48359 9.31821 
16 1 4.54968 6.24704 4.54831 
17 1 3.00722 7.77609 3.00889 
18 1 3.71804 7.07118 3.71861 
25 1 0.65676 10.1409 0.659973 
26 1 2.17946 8.60745 2.1785 
27 1 1.47111 9.32081 1.47229 
4 1 4.60147 6.17145 6.1563 
5 1 3.09028 7.68659 7.68613 
6 1 3.79759 6.97749 6.97014 
37 1 0.697758 10.0202 10.0181 
38 1 2.25219 8.50128 8.50741 
39 1 1.52939 9.20715 9.20981 
13 1 6.2486 4.55128 4.54761 
14 1 7.77727 3.00728 3.00859 
15 1 7.07265 3.71899 3.71757 
28 1 10.1396 0.655726 0.656624 
29 1 8.60638 2.17692 2.17813 
30 1 9.31908 1.46977 1.47032 
1 1 6.16984 4.60052 6.15692 
2 1 7.68634 3.08886 7.68469 
3 1 6.9767 3.79651 6.96937 
40 1 10.0187 0.698619 10.0202 
41 1 8.50103 2.25306 8.5086 
42 1 9.2059 1.52929 9.21098 
7 1 6.16141 6.1593 4.58664 
8 1 7.68674 7.68633 3.08505 
9 1 6.97228 6.97111 3.78825 
43 1 10.0318 10.0322 0.719894 
44 1 8.50965 8.51073 2.25901 
45 1 9.21727 9.21828 1.54304 
22 1 6.22218 6.22273 6.22847 
23 1 7.7531 7.75448 7.75733 
24 1 7.04292 7.04421 7.04836 
34 1 10.1069 10.1064 10.0821 
35 1 8.578 8.57772 8.57701 
36 1 9.29199 9.29151 9.27962 
ITEM: TIMESTEP
80
ITEM: NUMBER OF ATOMS
50
ITEM: BOX BOUNDS pp pp pp
0.0000000000000000e+00 1.1000000000000000e+01
0.0000000000000000e+00 1.1002000000000001e+01
0.0000000000000000e+00 1.1000000000000000e+01
ITEM: ATOMS id type x y z 
10 1 4.61374 4.61268 4.59791 
11 1 3.17392 3.16225 2.95729 
12 1 3.85289 3.84679 3.73008 
46 1 0.699744 0.69622 0.677617 
47 1 2.34668 2.34473 2.21719 
48 1 1.50967 1.53541 1.86548 
49 2 1.1611 1.24087 2.91449 
50 3 0.949107 1.07374 3.86807 
19 1 4.54344 4.54163 6.21467 
20 1 3.01427 3.01532 7.76143 
21 1 3.7225 3.71939 7.04773 
31 1 0.687792 0.686439 10.1535 
32 1 2.19219 2.19239 8.59975 
33 1 1.48887 1.48649 9.32037 
16 1 4.55188 6.24545 4.54251 
17 1 3.00846 7.7781 3.0089 
18 1 3.71912 7.07216 3.71734 
25 1 0.658065 10.1465 0.665401 
26 1 2.17987 8.60898 2.18142 
27 1 1.47321 9.32417 1.47456 
4 1 4.60052 6.16815 6.1594 
5 1 3.08449 7.68433 7.68419 
6 1 3.79553 6.9757 6.97121 
37 1 0.699727 10.0259 10.0196 
38 1 2.25023 8.50416 8.50914 
39 1 1.52897 9.21101 9.21116 
13 1 6.24801 4.55281 4.5428 
14 1 7.77859 3.00605 3.00971 
15 1 7.07337 3.72255 3.71445 
28 1 10.1423 0.658214 0.659905 
29 1 8.60864 2.17882 2.17935 
30 1 9.32379 1.47084 1.47355 
1 1 6.16584 4.59928 6.16033 
2 1 7.68438 3.08455 7.68431 
3 1 6.97443 3.79344 6.97161 
40 1 10.0242 0.699905 10.0221 
41 1 8.50366 2.24975 8.50864 
42 1 9.20945 1.53006 9.21259 
7 1 6.16105 6.1585 4.58275 
8 1 7.68683 7.68707 3.08218 
9 1 6.97196 6.97083 3.78442 
43 1 10.0355 10.0347 0.72009 
44 1 8.5124 8.51316 2.25994 
45 1 9.21912 9.21926 1.53962 
22 1 6.21674 6.21861 6.2284 
23 1 7.7512 7.75216 7.75603 
24 1 7.04092 7.041 7.04716 
34 1 10.1129 10.1101 10.0784 
35 1 8.57721 8.57633 8.57921 
36 1 9.29349 9.29611 9.27199 
ITEM: TIMESTEP
90
ITEM: NUMBER OF ATOMS
50
ITEM: BOX BOUNDS pp pp pp
0.0000000000000000e+00 1.1000000000000000e+01
0.0000000000000000e+00 1.1002000000000001e+01
0.0000000000000000e+00 1.1000000000000000e+01
ITEM: ATOMS id type x y z 
10 1 4.61555 4.61404 4.58576 
11 1 3.17273 3.16154 2.94754 
12 1 3.8533 3.84719 3.72009 
46 1 0.704013 0.700847 0.684696 
47 1 2.34562 2.34351 2.21157 
48 1 1.50599 1.53101 1.8804 
49 2 1.15246 1.2352 2.92898 
50 3 0.927513 1.05265 3.87761 
19 1 4.54258 4.53864 6.20657 
20 1 3.01571 3.01589 7.7601 
21 1 3.72133 3.71946 7.04197 
31 1 0.693073 0.691997 10.1592 
32 1 2.19525 2.19519 8.60096 
33 1 1.49401 1.49178 9.32627 
16 1 4.55315 6.24505 4.53933 
17 1 3.00926 7.77989 3.00981 
18 1 3.7216 7.07183 3.71543 
25 1 0.658741 10.15 0.669867 
26 1 2.18118 8.61085 2.18244 
27 1 1.47302 9.32719 1.47894 
4 1 4.60013 6.16551 6.16093 
5 1 3.08097 7.68308 7.68329 
6 1 3.79151 6.97297 6.97149 
37 1 0.70071 10.0306 10.0205 
38 1 2.24921 8.50509 8.50892 
39 1 1.52991 9.21365 9.21156 
13 1 6.24832 4.55482 4.53871 
14 1 7.7798 3.00686 3.0094 
15 1 7.07427 3.72324 3.71331 
28 1 10.1457 0.658322 0.663448 
29 1 8.61177 2.17996 2.18167 
30 1 9.32546 1.47231 1.47494 
1 1 6.16211 4.59781 6.16275 
2 1 7.6828 3.08119 7.68436 
3 1 6.9716 3.79066 6.97233 
40 1 10.0287 0.701561 10.0241 
41 1 8.5048 2.2484 8.50839 
42 1 9.2124 1.52979 9.21257 
7 1 6.16045 6.15751 4.57802 
8 1 7.6875 7.68763 3.07976 
9 1 6.97188 6.97187 3.78081 
43 1 10.038 10.0367 0.718354 
44 1 8.51471 8.51513 2.25771 
45 1 9.2219 9.22146 1.54 
22 1 6.21258 6.21474 6.22948 
23 1 7.75042 7.74995 7.7553 
24 1 7.03909 7.03992 7.04868 
34 1 10.1174 10.1136 10.0733 
35 1 8.57775 8.5774 8.57809 
36 1 9.29403 9.29752 9.27027 
ITEM: TIMESTEP
100
ITEM: NUMBER OF ATOMS
50
ITEM: BOX BOUNDS pp pp pp
0.0000000000000000e+00 1.1000000000000000e+01
0.0000000000000000e+00 1.1002000000000001e+01
0.0000000000000000e+00 1.1000000000000000e+01
ITEM: ATOMS id type x y z 
10 1 4.61565 4.61409 4.58472 
11 1 3.17275 3.16196 2.94556 
12 1 3.85339 3.8468 3.71855 
46 1 0.70455 0.701644 0.685299 
47 1 2.34505 2.34262 2.2116 
48 1 1.5049 1.53032 1.88162 
49 2 1.15086 1.23344 2.92996 
50 3 0.924648 1.05009 3.87882 
19 1 4.5432 4.53887 6.20713 
20 1 3.01564 3.01551 7.75961 
21 1 3.72126 3.7197 7.042 
31 1 0.693755 0.691674 10.1601 
32 1 2.19532 2.19476 8.60087 
33 1 1.49461 1.49337 9.32854 
16 1 4.55314 6.24532 4.5398 
17 1 3.00942 7.78004 3.00948 
18 1 3.72169 7.072 3.7153 
25 1 0.658102 10.1504 0.670091 
26 1 2.18118 8.61167 2.18266 
27 1 1.47264 9.32758 1.47901 
4 1 4.60044 6.1652 6.16079 
5 1 3.08105 7.68245 7.6833 
6 1 3.79167 6.97283 6.97122 
37 1 0.700959 10.0313 10.0203 
38 1 2.24905 8.50493 8.50849 
39 1 1.5299 9.21375 9.21127 
13 1 6.24879 4.55575 4.53858 
14 1 7.78037 3.00829 3.00862 
15 1 7.07389 3.72173 3.71434 
28 1 10.1466 0.65774 0.663483 
29 1 8.61222 2.17985 2.18164 
30 1 9.3259 1.47186 1.47526 
1 1 6.16165 4.59807 6.16251 
2 1 7.68221 3.08124 7.6841 
3 1 6.97114 3.79063 6.97219 
40 1 10.0291 0.702139 10.0239 
41 1 8.50448 2.2484 8.5082 
42 1 9.21263 1.53006 9.21222 
7 1 6.1606 6.15765 4.57745 
8 1 7.68762 7.68818 3.07924 
9 1 6.97278 6.97176 3.78056 
43 1 10.0383 10.0369 0.717912 
44 1 8.51458 8.51501 2.25656 
45 1 9.22289 9.2225 1.54112 
22 1 6.21215 6.21439 6.23083 
23 1 7.75034 7.74999 7.7556 
24 1 7.03879 7.0396 7.04959 
34 1 10.1174 10.1148 10.0713 
35 1 8.57783 8.57939 8.5761 
36 1 9.29497 9.29465 9.27256 
ITEM: TIMESTEP
110
ITEM: NUMBER OF ATOMS
50
ITEM: BOX BOUNDS pp pp pp
0.0000000000000000e+00 1.1000000000000000e+01
0.0000000000000000e+00 1.1002000000000001e+01
0.0000000000000000e+00 1.1000000000000000e+01
ITEM: ATOMS id type x y z 
10 1 4.61566 4.61413 4.58453 
11 1 3.17283 3.16199 2.94523 
12 1 3.85332 3.84684 3.71835 
46 1 0.704642 0.701744 0.685445 
47 1 2.34498 2.34251 2.21162 
48 1 1.50473 1.53021 1.88188 
49 2 1.15057 1.23313 2.93014 
50 3 0.924149 1.04964 3.87901 
19 1 4.54315 4.53895 6.20712 
20 1 3.01552 3.01554 7.75949 
21 1 3.7215 3.71958 7.04206 
31 1 0.693884 0.691717 10.1603 
32 1 2.19536 2.19484 8.60098 
33 1 1.49469 1.49341 9.32866 
16 1 4.55322 6.24528 4.53981 
17 1 3.00954 7.78001 3.00943 
18 1 3.72163 7.07207 3.71536 
25 1 0.658007 10.1505 0.670087 
26 1 2.18119 8.61182 2.1827 
27 1 1.47257 9.32761 1.47902 
4 1 4.6005 6.16516 6.16072 
5 1 3.08104 7.68238 7.68331 
6 1 3.79167 6.97281 6.97121 
37 1 0.700993 10.0314 10.0204 
38 1 2.24898 8.50485 8.50863 
39 1 1.52986 9.21397 9.21094 
13 1 6.24875 4.55571 4.5386 
14 1 7.78044 3.00821 3.00858 
15 1 7.074 3.72191 3.71425 
28 1 10.1466 0.657681 0.663432 
29 1 8.61227 2.17986 2.1816 
30 1 9.32603 1.47176 1.47538 
1 1 6.16161 4.59809 6.16249 
2 1 7.68219 3.08119 7.68398 
3 1 6.97096 3.79068 6.97235 
40 1 10.0291 0.702168 10.0238 
41 1 8.50444 2.24838 8.50816 
42 1 9.21268 1.5301 9.2122 
7 1 6.1606 6.15772 4.57738 
8 1 7.68765 7.68821 3.07917 
9 1 6.97282 6.97178 3.78053 
43 1 10.0383 10.037 0.7179 
44 1 8.51463 8.51507 2.25643 
45 1 9.22297 9.22257 1.54119 
22 1 6.21216 6.21441 6.23089 
23 1 7.7504 7.75007 7.75548 
24 1 7.03857 7.03944 7.04999 
34 1 10.1176 10.1149 10.0712 
35 1 8.57789 8.57944 8.57605 
36 1 9.29507 9.29466 9.27249 
ITEM: TIMESTEP
120
ITEM: NUMBER OF ATOMS
50
ITEM: BOX BOUNDS pp pp pp
0.0000000000000000e+00 1.1000000000000000e+01
0.0000000000000000e+00 1.1002000000000001e+01
0.0000000000000000e+00 1.1000000000000000e+01
ITEM: ATOMS id type x y z 
10 1 4.61672 4.6134 4.57915 
11 1 3.17439 3.16141 2.93587 
12 1 3.85364 3.85195 3.7051 
46 1 0.708272 0.705977 0.690793 
47 1 2.342 2.33834 2.21212 
48 1 1.49835 1.52596 1.89222 
49 2 1.1393 1.22114 2.93761 
50 3 0.904787 1.03221 3.88613 
19 1 4.54488 4.53889 6.20813 
20 1 3.0154 3.0143 7.75757 
21 1 3.72109 3.7191 7.04051 
31 1 0.697027 0.695103 10.1676 
32 1 2.19593 2.19839 8.60507 
33 1 1.49979 1.49365 9.33362 
16 1 4.5551 6.24439 4.54066 
17 1 3.01128 7.78077 3.00808 
18 1 3.72232 7.07325 3.7148 
25 1 0.655556 10.152 0.670477 
26 1 2.18081 8.616 2.18392 
27 1 1.4716 9.33109 1.48034 
4 1 4.60216 6.16463 6.15924 
5 1 3.0806 7.67976 7.68352 
6 1 3.79176 6.97167 6.97106 
37 1 0.701895 10.0355 10.019 
38 1 2.24707 8.50449 8.50699 
39 1 1.52977 9.2152 9.20905 
13 1 6.24807 4.55768 4.5385 
14 1 7.78258 3.0102 3.00772 
15 1 7.07561 3.72334 3.71302 
28 1 10.15 0.656776 0.662323 
29 1 8.61555 2.17921 2.18168 
30 1 9.32863 1.47015 1.47625 
1 1 6.15882 4.59975 6.16316 
2 1 7.67915 3.08046 7.6837 
3 1 6.9689 3.78966 6.97137 
40 1 10.0319 0.703435 10.0226 
41 1 8.50424 2.24755 8.50764 
42 1 9.21379 1.5303 9.21149 
7 1 6.16175 6.15794 4.57478 
8 1 7.68893 7.68924 3.0772 
9 1 6.9739 6.97239 3.77831 
43 1 10.0409 10.0397 0.718926 
44 1 8.51496 8.51637 2.25442 
45 1 9.22584 9.22376 1.54176 
22 1 6.20997 6.21251 6.23881 
23 1 7.74878 7.75035 7.7585 
24 1 7.0379 7.03945 7.0521 
34 1 10.1217 10.1175 10.0642 
35 1 8.58018 8.58033 8.5742 
36 1 9.2985 9.29646 9.26876 
ITEM: TIMESTEP
130
ITEM: NUMBER OF ATOMS
50
ITEM: BOX BOUNDS pp pp pp
0.0000000000000000e+00 1.1000000000000000e+01
0.0000000000000000e+00 1.1002000000000001e+01
0.0000000000000000e+00 1.1000000000000000e+01
ITEM: ATOMS id type x y z 
10 1 4.6166 4.61458 4.57798 
11 1 3.17433 3.16312 2.9346 
12 1 3.85455 3.84972 3.7064 
46 1 0.708322 0.70575 0.690979 
47 1 2.34195 2.3383 2.21241 
48 1 1.49814 1.52571 1.89386 
49 2 1.13811 1.22009 2.9386 
50 3 0.902903 1.03042 3.88635 
19 1 4.54414 4.53835 6.20644 
20 1 3.0153 3.0149 7.75729 
21 1 3.72202 3.71896 7.04047 
31 1 0.698419 0.694935 10.1677 
32 1 2.19752 2.19745 8.60495 
33 1 1.49815 1.49639 9.33409 
16 1 4.55514 6.24445 4.53986 
17 1 3.01115 7.78128 3.00839 
18 1 3.72262 7.07317 3.71407 
25 1 0.655547 10.1526 0.671032 
26 1 2.1811 8.61616 2.18417 
27 1 1.47163 9.33082 1.48053 
4 1 4.60228 6.16442 6.15999 
5 1 3.08025 7.67977 7.68348 
6 1 3.79175 6.97161 6.97126 
37 1 0.702083 10.0351 10.0187 
38 1 2.24713 8.50446 8.5068 
39 1 1.52969 9.21515 9.20896 
13 1 6.24794 4.55819 4.53748 
14 1 7.78291 3.01031 3.00786 
15 1 7.07554 3.72345 3.7127 
28 1 10.1498 0.656719 0.662529 
29 1 8.61552 2.17898 2.18227 
30 1 9.32882 1.47124 1.4757 
1 1 6.15849 4.59945 6.16338 
2 1 7.6795 3.07963 7.6833 
3 1 6.96854 3.79008 6.97286 
40 1 10.0321 0.703203 10.0227 
41 1 8.5043 2.24747 8.50771 
42 1 9.21383 1.53019 9.21137 
7 1 6.16178 6.15754 4.57503 
8 1 7.68855 7.68896 3.07725 
9 1 6.9739 6.97218 3.77864 
43 1 10.0416 10.0393 0.719308 
44 1 8.51567 8.51624 2.25483 
45 1 9.2249 9.22427 1.54107 
22 1 6.21034 6.21286 6.23711 
23 1 7.74922 7.75059 7.75777 
24 1 7.03675 7.03866 7.05395 
34 1 10.1223 10.1187 10.0636 
35 1 8.5803 8.58029 8.57415 
36 1 9.29866 9.29686 9.26809 
ITEM: TIMESTEP
140
ITEM: NUMBER OF ATOMS
50
ITEM: BOX BOUNDS pp pp pp
0.0000000000000000e+00 1.1000000000000000e+01
0.0000000000000000e+00 1.1002000000000001e+01
0.0000000000000000e+00 1.1000000000000000e+01
ITEM: ATOMS id type x y z 
10 1 4.6169 4.61546 4.57654 
11 1 3.1748 3.1642 2.93316 
12 1 3.85447 3.84819 3.70766 
46 1 0.708366 0.705608 0.691029 
47 1 2.34177 2.33844 2.21272 
48 1 1.49781 1.52527 1.89566 
49 2 1.13674 1.21886 2.93972 
50 3 0.900574 1.02822 3.88668 
19 1 4.54402 4.53788 6.20505 
20 1 3.01576 3.01526 7.75732 
21 1 3.72208 3.71902 7.03987 
31 1 0.699233 0.695656 10.1681 
32 1 2.19793 2.19789 8.60501 
33 1 1.49865 1.49696 9.33443 
16 1 4.55509 6.24444 4.53896 
17 1 3.01125 7.78166 3.0085 
18 1 3.72284 7.07316 3.7139 
25 1 0.655288 10.1529 0.671472 
26 1 2.18133 8.61629 2.18436 
27 1 1.47165 9.33086 1.48084 
4 1 4.60232 6.16423 6.16054 
5 1 3.08004 7.67978 7.6833 
6 1 3.79168 6.97129 6.97147 
37 1 0.702176 10.035 10.0186 
38 1 2.24701 8.50448 8.50676 
39 1 1.52958 9.21527 9.20886 
13 1 6.24788 4.55848 4.53652 
14 1 7.78316 3.01038 3.00801 
15 1 7.0756 3.72382 3.71243 
28 1 10.1497 0.656813 0.66272 
29 1 8.61566 2.17919 2.18242 
30 1 9.32899 1.47142 1.47584 
1 1 6.15791 4.59928 6.1641 
2 1 7.67948 3.07938 7.68336 
3 1 6.96824 3.78987 6.97316 
40 1 10.0322 0.70316 10.0228 
41 1 8.50423 2.24733 8.5076 
42 1 9.21391 1.5303 9.21123 
7 1 6.16187 6.15724 4.57522 
8 1 7.68845 7.68891 3.07734 
9 1 6.97386 6.97194 3.7785 
43 1 10.0419 10.0394 0.719342 
44 1 8.51581 8.51644 2.25477 
45 1 9.22519 9.22439 1.54108 
22 1 6.21013 6.21277 6.23661 
23 1 7.749 7.75036 7.75813 
24 1 7.03676 7.03871 7.054 
34 1 10.1231 10.1195 10.0629 
35 1 8.58052 8.58043 8.57405 
36 1 9.29898 9.29727 9.26744 
ITEM: TIMESTEP
150
ITEM: NUMBER OF ATOMS
50
ITEM: BOX BOUNDS pp pp pp
0.0000000000000000e+00 1.1000000000000000e+01
0.0000000000000000e+00 1.1002000000000001e+01
0.0000000000000000e+00 1.1000000000000000e+01
ITEM: ATOMS id type x y z 
10 1 4.61692 4.61548 4.57641 
11 1 3.17483 3.1642 2.93308 
12 1 3.85449 3.8482 3.70759 
46 1 0.708416 0.705657 0.691068 
47 1 2.34173 2.33846 2.21275 
48 1 1.49777 1.52521 1.89591 
49 2 1.13655 1.21869 2.93987 
50 3 0.900234 1.0279 3.88674 
19 1 4.54401 4.53784 6.2049 
20 1 3.01579 3.01529 7.75733 
21 1 3.72211 3.71899 7.0398 
31 1 0.69934 0.695745 10.1682 
32 1 2.198 2.19797 8.60505 
33 1 1.49871 1.49701 9.33444 
16 1 4.55509 6.24444 4.53887 
17 1 3.01128 7.78172 3.0085 
18 1 3.72286 7.07315 3.71389 
25 1 0.655244 10.1528 0.67154 
26 1 2.18135 8.61633 2.1844 
27 1 1.47165 9.33087 1.48086 
4 1 4.60235 6.16421 6.16059 
5 1 3.08001 7.67976 7.6833 
6 1 3.79167 6.97127 6.97147 
37 1 0.702191 10.035 10.0186 
38 1 2.247 8.50448 8.50674 
39 1 1.52955 9.21527 9.20885 
13 1 6.24789 4.55851 4.53641 
14 1 7.78319 3.0104 3.00802 
15 1 7.07563 3.72387 3.7124 
28 1 10.1497 0.65683 0.66274 
29 1 8.61572 2.17924 2.18244 
30 1 9.32896 1.47139 1.47585 
1 1 6.15786 4.59928 6.16418 
2 1 7.67946 3.07936 7.68335 
3 1 6.96817 3.78986 6.9732 
40 1 10.0323 0.703206 10.0228 
41 1 8.50427 2.24733 8.50759 
42 1 9.21387 1.53024 9.21124 
7 1 6.16189 6.15721 4.57523 
8 1 7.68845 7.68891 3.07734 
9 1 6.97388 6.97193 3.77849 
43 1 10.042 10.0395 0.719365 
44 1 8.51583 8.51647 2.25476 
45 1 9.22521 9.22439 1.54107 
22 1 6.21008 6.21274 6.23658 
23 1 7.74895 7.7503 7.75817 
24 1 7.03676 7.03873 7.05398 
34 1 10.1233 10.1196 10.0627 
35 1 8.58055 8.58047 8.57403 
36 1 9.29904 9.29729 9.26738 
ITEM: TIMESTEP
160
ITEM: NUMBER OF ATOMS
50
ITEM: BOX BOUNDS pp pp pp
0.0000000000000000e+00 1.1000000000000000e+01
0.0000000000000000e+00 1.1002000000000001e+01
0.0000000000000000e+00 1.1000000000000000e+01
ITEM: ATOMS id type x y z 
10 1 4.61706 4.61566 4.57533 
11 1 3.17501 3.16408 2.93257 
12 1 3.85476 3.84853 3.70661 
46 1 0.708515 0.705755 0.691143 
47 1 2.34136 2.33855 2.21303 
48 1 1.49731 1.52461 1.89795 
49 2 1.13487 1.21716 2.94118 
50 3 0.897198 1.02505 3.88726 
19 1 4.54403 4.53725 6.20363 
20 1 3.01625 3.01544 7.75737 
21 1 3.72194 3.71911 7.03938 
31 1 0.700187 0.696336 10.1688 
32 1 2.19837 2.19841 8.60502 
33 1 1.49957 1.49787 9.33531 
16 1 4.55522 6.2444 4.53805 
17 1 3.01172 7.78207 3.00852 
18 1 3.72284 7.0731 3.71405 
25 1 0.654806 10.1529 0.672026 
26 1 2.18142 8.61638 2.18454 
27 1 1.47187 9.33138 1.48132 
4 1 4.60248 6.16409 6.16086 
5 1 3.07975 7.67959 7.68319 
6 1 3.79168 6.97113 6.97154 
37 1 0.70231 10.0352 10.0184 
38 1 2.2468 8.5045 8.50658 
39 1 1.52951 9.21535 9.20881 
13 1 6.24803 4.55889 4.53552 
14 1 7.7836 3.01061 3.00815 
15 1 7.07558 3.72417 3.71204 
28 1 10.1498 0.65693 0.662821 
29 1 8.61593 2.1796 2.18245 
30 1 9.32919 1.47131 1.4763 
1 1 6.15725 4.59899 6.16482 
2 1 7.67915 3.07904 7.68332 
3 1 6.96792 3.78999 6.97346 
40 1 10.0325 0.70347 10.0228 
41 1 8.50426 2.24713 8.50747 
42 1 9.21394 1.53027 9.21115 
7 1 6.16193 6.1568 4.57515 
8 1 7.68846 7.68884 3.07717 
9 1 6.97402 6.97202 3.7785 
43 1 10.0424 10.0396 0.719446 
44 1 8.51598 8.51657 2.25457 
45 1 9.22552 9.22471 1.54137 
22 1 6.20967 6.21286 6.23605 
23 1 7.74865 7.75035 7.75832 
24 1 7.03675 7.03811 7.05449 
34 1 10.1241 10.1204 10.0618 
35 1 8.58058 8.58076 8.57405 
36 1 9.29996 9.29764 9.26632 
ITEM: TIMESTEP
170
ITEM: NUMBER OF ATOMS
50
ITEM: BOX BOUNDS pp pp pp
0.0000000000000000e+00 1.1000000000000000e+01
0.0000000000000000e+00 1.1002000000000001e+01
0.0000000000000000e+00 1.1000000000000000e+01
ITEM: ATOMS id type x y z 
10 1 4.61715 4.61582 4.57498 
11 1 3.17503 3.16417 2.93233 
12 1 3.85478 3.84838 3.70656 
46 1 0.708604 0.705871 0.691282 
47 1 2.34123 2.33848 2.21308 
48 1 1.4972 1.5245 1.89838 
49 2 1.1345 1.21683 2.94145 
50 3 0.896503 1.02439 3.88739 
19 1 4.54394 4.53726 6.20345 
20 1 3.01616 3.01561 7.75739 
21 1 3.72222 3.71887 7.03923 
31 1 0.70046 0.696604 10.1691 
32 1 2.19856 2.19861 8.60533 
33 1 1.49949 1.49772 9.33504 
16 1 4.55506 6.24435 4.53809 
17 1 3.0116 7.78213 3.00866 
18 1 3.72318 7.07317 3.71376 
25 1 0.654807 10.153 0.672199 
26 1 2.18162 8.61663 2.18463 
27 1 1.47159 9.33107 1.48133 
4 1 4.60251 6.16409 6.16089 
5 1 3.07972 7.67954 7.68317 
6 1 3.79164 6.9711 6.97151 
37 1 0.702378 10.0354 10.0184 
38 1 2.24678 8.50444 8.50657 
39 1 1.52952 9.21542 9.2087 
13 1 6.24798 4.55894 4.53535 